PSF EXT CMAP XPLOR

         3 !NTITLE
* GENERATED BY CHARMM-GUI (HTTP://WWW.CHARMM-GUI.ORG) V3.7 ON MAY, 16. 2026. JOB
* GET A DIFFERENT CONFORMATION FOR LIPIDS PENETRATING PROTEIN / CHOL            
*  DATE:     5/16/26      3: 9:31      CREATED BY USER: charmm-gui              

     51515 !NATOM
         1 LPSA1    1        ECLIPA   HB6S     HCA2     0.900000E-01   1.00800           0
         2 LPSA1    1        ECLIPA   OB6      OC301   -0.360000       15.9994           0
         3 LPSA1    1        ECLIPA   CB6      CC321     0.00000       12.0110           0
         4 LPSA1    1        ECLIPA   HB6R     HCA2     0.900000E-01   1.00800           0
         5 LPSA1    1        ECLIPA   CB5      CC3163   0.110000       12.0110           0
         6 LPSA1    1        ECLIPA   OB5      OC3C61  -0.400000       15.9994           0
         7 LPSA1    1        ECLIPA   HB5      HCA1     0.900000E-01   1.00800           0
         8 LPSA1    1        ECLIPA   CB1      CC3162   0.290000       12.0110           0
         9 LPSA1    1        ECLIPA   HB1      HCA1     0.900000E-01   1.00800           0
        10 LPSA1    1        ECLIPA   OA6      OC301   -0.360000       15.9994           0
        11 LPSA1    1        ECLIPA   CA6      CC321     0.00000       12.0110           0
        12 LPSA1    1        ECLIPA   HA6R     HCA2     0.900000E-01   1.00800           0
        13 LPSA1    1        ECLIPA   HA6S     HCA2     0.900000E-01   1.00800           0
        14 LPSA1    1        ECLIPA   CB4      CC3161  -0.900000E-01   12.0110           0
        15 LPSA1    1        ECLIPA   HB4      HCA1     0.900000E-01   1.00800           0
        16 LPSA1    1        ECLIPA   OB4      OC30P   -0.400000       15.9994           0
        17 LPSA1    1        ECLIPA   PB       PC        1.10000       30.9740           0
        18 LPSA1    1        ECLIPA   OPB4     OC2DP   -0.900000       15.9994           0
        19 LPSA1    1        ECLIPA   OPB3     OC2DP   -0.900000       15.9994           0
        20 LPSA1    1        ECLIPA   OPB2     OC2DP   -0.900000       15.9994           0
        21 LPSA1    1        ECLIPA   CB3      CC3161   0.170000       12.0110           0
        22 LPSA1    1        ECLIPA   OB3      OC301   -0.490000       15.9994           0
        23 LPSA1    1        ECLIPA   HB3      HCA1     0.900000E-01   1.00800           0
        24 LPSA1    1        ECLIPA   C71      CL       0.900000       12.0110           0
        25 LPSA1    1        ECLIPA   O71      OBL     -0.630000       15.9994           0
        26 LPSA1    1        ECLIPA   C72      CTL2    -0.220000       12.0110           0
        27 LPSA1    1        ECLIPA   H72R     HAL2     0.900000E-01   1.00800           0
        28 LPSA1    1        ECLIPA   H72S     HAL2     0.900000E-01   1.00800           0
        29 LPSA1    1        ECLIPA   CB2      CC3161   0.700000E-01   12.0110           0
        30 LPSA1    1        ECLIPA   HB2      HCA1     0.900000E-01   1.00800           0
        31 LPSA1    1        ECLIPA   NB2      NC2D1   -0.470000       14.0070           0
        32 LPSA1    1        ECLIPA   HNB2     HCP1     0.310000       1.00800           0
        33 LPSA1    1        ECLIPA   CA4      CC3161   0.140000       12.0110           0
        34 LPSA1    1        ECLIPA   HA4      HCA1     0.900000E-01   1.00800           0
        35 LPSA1    1        ECLIPA   OA4      OC311   -0.650000       15.9994           0
        36 LPSA1    1        ECLIPA   HOA4     HCP1     0.420000       1.00800           0
        37 LPSA1    1        ECLIPA   CA5      CC3163   0.110000       12.0110           0
        38 LPSA1    1        ECLIPA   HA5      HCA1     0.900000E-01   1.00800           0
        39 LPSA1    1        ECLIPA   OA5      OC3C61  -0.400000       15.9994           0
        40 LPSA1    1        ECLIPA   CA1      CC3162   0.110000       12.0110           0
        41 LPSA1    1        ECLIPA   HA1      HCA1     0.900000E-01   1.00800           0
        42 LPSA1    1        ECLIPA   OA1      OC30P   -0.400000       15.9994           0
        43 LPSA1    1        ECLIPA   OPA2     OC2DP   -0.900000       15.9994           0
        44 LPSA1    1        ECLIPA   OPA3     OC2DP   -0.900000       15.9994           0
        45 LPSA1    1        ECLIPA   OPA4     OC2DP   -0.900000       15.9994           0
        46 LPSA1    1        ECLIPA   PA       PC        1.10000       30.9740           0
        47 LPSA1    1        ECLIPA   CA3      CC3161   0.170000       12.0110           0
        48 LPSA1    1        ECLIPA   HA3      HCA1     0.900000E-01   1.00800           0
        49 LPSA1    1        ECLIPA   OA3      OC301   -0.490000       15.9994           0
        50 LPSA1    1        ECLIPA   C31      CL       0.900000       12.0110           0
        51 LPSA1    1        ECLIPA   O31      OBL     -0.630000       15.9994           0
        52 LPSA1    1        ECLIPA   C32      CTL2    -0.220000       12.0110           0
        53 LPSA1    1        ECLIPA   H32R     HAL2     0.900000E-01   1.00800           0
        54 LPSA1    1        ECLIPA   H32S     HAL2     0.900000E-01   1.00800           0
        55 LPSA1    1        ECLIPA   CA2      CC3161   0.700000E-01   12.0110           0
        56 LPSA1    1        ECLIPA   HA2      HCA1     0.900000E-01   1.00800           0
        57 LPSA1    1        ECLIPA   NA2      NC2D1   -0.470000       14.0070           0
        58 LPSA1    1        ECLIPA   HNA2     HCP1     0.310000       1.00800           0
        59 LPSA1    1        ECLIPA   C73      CTL1     0.170000       12.0110           0
        60 LPSA1    1        ECLIPA   H73R     HAL1     0.900000E-01   1.00800           0
        61 LPSA1    1        ECLIPA   O73      OSL     -0.490000       15.9994           0
        62 LPSA1    1        ECLIPA   C81      CL       0.900000       12.0110           0
        63 LPSA1    1        ECLIPA   O81      OBL     -0.630000       15.9994           0
        64 LPSA1    1        ECLIPA   C82      CTL2    -0.220000       12.0110           0
        65 LPSA1    1        ECLIPA   H82R     HAL2     0.900000E-01   1.00800           0
        66 LPSA1    1        ECLIPA   H82S     HAL2     0.900000E-01   1.00800           0
        67 LPSA1    1        ECLIPA   C83      CTL2    -0.180000       12.0110           0
        68 LPSA1    1        ECLIPA   H83R     HAL2     0.900000E-01   1.00800           0
        69 LPSA1    1        ECLIPA   H83S     HAL2     0.900000E-01   1.00800           0
        70 LPSA1    1        ECLIPA   C84      CTL2    -0.180000       12.0110           0
        71 LPSA1    1        ECLIPA   H84R     HAL2     0.900000E-01   1.00800           0
        72 LPSA1    1        ECLIPA   H84S     HAL2     0.900000E-01   1.00800           0
        73 LPSA1    1        ECLIPA   C85      CTL2    -0.180000       12.0110           0
        74 LPSA1    1        ECLIPA   H85R     HAL2     0.900000E-01   1.00800           0
        75 LPSA1    1        ECLIPA   H85S     HAL2     0.900000E-01   1.00800           0
        76 LPSA1    1        ECLIPA   C86      CTL2    -0.180000       12.0110           0
        77 LPSA1    1        ECLIPA   H86R     HAL2     0.900000E-01   1.00800           0
        78 LPSA1    1        ECLIPA   H86S     HAL2     0.900000E-01   1.00800           0
        79 LPSA1    1        ECLIPA   C87      CTL2    -0.180000       12.0110           0
        80 LPSA1    1        ECLIPA   H87R     HAL2     0.900000E-01   1.00800           0
        81 LPSA1    1        ECLIPA   H87S     HAL2     0.900000E-01   1.00800           0
        82 LPSA1    1        ECLIPA   C88      CTL2    -0.180000       12.0110           0
        83 LPSA1    1        ECLIPA   H88R     HAL2     0.900000E-01   1.00800           0
        84 LPSA1    1        ECLIPA   H88S     HAL2     0.900000E-01   1.00800           0
        85 LPSA1    1        ECLIPA   C89      CTL2    -0.180000       12.0110           0
        86 LPSA1    1        ECLIPA   H89R     HAL2     0.900000E-01   1.00800           0
        87 LPSA1    1        ECLIPA   H89S     HAL2     0.900000E-01   1.00800           0
        88 LPSA1    1        ECLIPA   C810     CTL2    -0.180000       12.0110           0
        89 LPSA1    1        ECLIPA   H810R    HAL2     0.900000E-01   1.00800           0
        90 LPSA1    1        ECLIPA   H810S    HAL2     0.900000E-01   1.00800           0
        91 LPSA1    1        ECLIPA   C811     CTL2    -0.180000       12.0110           0
        92 LPSA1    1        ECLIPA   H811R    HAL2     0.900000E-01   1.00800           0
        93 LPSA1    1        ECLIPA   H811S    HAL2     0.900000E-01   1.00800           0
        94 LPSA1    1        ECLIPA   C812     CTL2    -0.180000       12.0110           0
        95 LPSA1    1        ECLIPA   H812R    HAL2     0.900000E-01   1.00800           0
        96 LPSA1    1        ECLIPA   H812S    HAL2     0.900000E-01   1.00800           0
        97 LPSA1    1        ECLIPA   C813     CTL2    -0.180000       12.0110           0
        98 LPSA1    1        ECLIPA   H813R    HAL2     0.900000E-01   1.00800           0
        99 LPSA1    1        ECLIPA   H813S    HAL2     0.900000E-01   1.00800           0
       100 LPSA1    1        ECLIPA   C814     CTL3    -0.270000       12.0110           0
       101 LPSA1    1        ECLIPA   H814R    HAL3     0.900000E-01   1.00800           0
       102 LPSA1    1        ECLIPA   H814S    HAL3     0.900000E-01   1.00800           0
       103 LPSA1    1        ECLIPA   H814T    HAL3     0.900000E-01   1.00800           0
       104 LPSA1    1        ECLIPA   C74      CTL2    -0.180000       12.0110           0
       105 LPSA1    1        ECLIPA   H74R     HAL2     0.900000E-01   1.00800           0
       106 LPSA1    1        ECLIPA   H74S     HAL2     0.900000E-01   1.00800           0
       107 LPSA1    1        ECLIPA   C75      CTL2    -0.180000       12.0110           0
       108 LPSA1    1        ECLIPA   H75R     HAL2     0.900000E-01   1.00800           0
       109 LPSA1    1        ECLIPA   H75S     HAL2     0.900000E-01   1.00800           0
       110 LPSA1    1        ECLIPA   C76      CTL2    -0.180000       12.0110           0
       111 LPSA1    1        ECLIPA   H76R     HAL2     0.900000E-01   1.00800           0
       112 LPSA1    1        ECLIPA   H76S     HAL2     0.900000E-01   1.00800           0
       113 LPSA1    1        ECLIPA   C77      CTL2    -0.180000       12.0110           0
       114 LPSA1    1        ECLIPA   H77R     HAL2     0.900000E-01   1.00800           0
       115 LPSA1    1        ECLIPA   H77S     HAL2     0.900000E-01   1.00800           0
       116 LPSA1    1        ECLIPA   C78      CTL2    -0.180000       12.0110           0
       117 LPSA1    1        ECLIPA   H78R     HAL2     0.900000E-01   1.00800           0
       118 LPSA1    1        ECLIPA   H78S     HAL2     0.900000E-01   1.00800           0
       119 LPSA1    1        ECLIPA   C79      CTL2    -0.180000       12.0110           0
       120 LPSA1    1        ECLIPA   H79R     HAL2     0.900000E-01   1.00800           0
       121 LPSA1    1        ECLIPA   H79S     HAL2     0.900000E-01   1.00800           0
       122 LPSA1    1        ECLIPA   C710     CTL2    -0.180000       12.0110           0
       123 LPSA1    1        ECLIPA   H710R    HAL2     0.900000E-01   1.00800           0
       124 LPSA1    1        ECLIPA   H710S    HAL2     0.900000E-01   1.00800           0
       125 LPSA1    1        ECLIPA   C711     CTL2    -0.180000       12.0110           0
       126 LPSA1    1        ECLIPA   H711R    HAL2     0.900000E-01   1.00800           0
       127 LPSA1    1        ECLIPA   H711S    HAL2     0.900000E-01   1.00800           0
       128 LPSA1    1        ECLIPA   C712     CTL2    -0.180000       12.0110           0
       129 LPSA1    1        ECLIPA   H712R    HAL2     0.900000E-01   1.00800           0
       130 LPSA1    1        ECLIPA   H712S    HAL2     0.900000E-01   1.00800           0
       131 LPSA1    1        ECLIPA   C713     CTL2    -0.180000       12.0110           0
       132 LPSA1    1        ECLIPA   H713R    HAL2     0.900000E-01   1.00800           0
       133 LPSA1    1        ECLIPA   H713S    HAL2     0.900000E-01   1.00800           0
       134 LPSA1    1        ECLIPA   C714     CTL3    -0.270000       12.0110           0
       135 LPSA1    1        ECLIPA   H714R    HAL3     0.900000E-01   1.00800           0
       136 LPSA1    1        ECLIPA   H714S    HAL3     0.900000E-01   1.00800           0
       137 LPSA1    1        ECLIPA   H714T    HAL3     0.900000E-01   1.00800           0
       138 LPSA1    1        ECLIPA   C51      CC2O1    0.550000       12.0110           0
       139 LPSA1    1        ECLIPA   O51      OC2D1   -0.550000       15.9994           0
       140 LPSA1    1        ECLIPA   C52      CTL2    -0.180000       12.0110           0
       141 LPSA1    1        ECLIPA   H52R     HAL2     0.900000E-01   1.00800           0
       142 LPSA1    1        ECLIPA   H52S     HAL2     0.900000E-01   1.00800           0
       143 LPSA1    1        ECLIPA   C53      CTL1     0.170000       12.0110           0
       144 LPSA1    1        ECLIPA   H53R     HAL1     0.900000E-01   1.00800           0
       145 LPSA1    1        ECLIPA   O53      OSL     -0.490000       15.9994           0
       146 LPSA1    1        ECLIPA   C61      CL       0.900000       12.0110           0
       147 LPSA1    1        ECLIPA   O61      OBL     -0.630000       15.9994           0
       148 LPSA1    1        ECLIPA   C62      CTL2    -0.220000       12.0110           0
       149 LPSA1    1        ECLIPA   H62R     HAL2     0.900000E-01   1.00800           0
       150 LPSA1    1        ECLIPA   H62S     HAL2     0.900000E-01   1.00800           0
       151 LPSA1    1        ECLIPA   C63      CTL2    -0.180000       12.0110           0
       152 LPSA1    1        ECLIPA   H63R     HAL2     0.900000E-01   1.00800           0
       153 LPSA1    1        ECLIPA   H63S     HAL2     0.900000E-01   1.00800           0
       154 LPSA1    1        ECLIPA   C64      CTL2    -0.180000       12.0110           0
       155 LPSA1    1        ECLIPA   H64R     HAL2     0.900000E-01   1.00800           0
       156 LPSA1    1        ECLIPA   H64S     HAL2     0.900000E-01   1.00800           0
       157 LPSA1    1        ECLIPA   C65      CTL2    -0.180000       12.0110           0
       158 LPSA1    1        ECLIPA   H65R     HAL2     0.900000E-01   1.00800           0
       159 LPSA1    1        ECLIPA   H65S     HAL2     0.900000E-01   1.00800           0
       160 LPSA1    1        ECLIPA   C66      CTL2    -0.180000       12.0110           0
       161 LPSA1    1        ECLIPA   H66R     HAL2     0.900000E-01   1.00800           0
       162 LPSA1    1        ECLIPA   H66S     HAL2     0.900000E-01   1.00800           0
       163 LPSA1    1        ECLIPA   C67      CTL2    -0.180000       12.0110           0
       164 LPSA1    1        ECLIPA   H67R     HAL2     0.900000E-01   1.00800           0
       165 LPSA1    1        ECLIPA   H67S     HAL2     0.900000E-01   1.00800           0
       166 LPSA1    1        ECLIPA   C68      CTL2    -0.180000       12.0110           0
       167 LPSA1    1        ECLIPA   H68R     HAL2     0.900000E-01   1.00800           0
       168 LPSA1    1        ECLIPA   H68S     HAL2     0.900000E-01   1.00800           0
       169 LPSA1    1        ECLIPA   C69      CTL2    -0.180000       12.0110           0
       170 LPSA1    1        ECLIPA   H69R     HAL2     0.900000E-01   1.00800           0
       171 LPSA1    1        ECLIPA   H69S     HAL2     0.900000E-01   1.00800           0
       172 LPSA1    1        ECLIPA   C610     CTL2    -0.180000       12.0110           0
       173 LPSA1    1        ECLIPA   H610R    HAL2     0.900000E-01   1.00800           0
       174 LPSA1    1        ECLIPA   H610S    HAL2     0.900000E-01   1.00800           0
       175 LPSA1    1        ECLIPA   C611     CTL2    -0.180000       12.0110           0
       176 LPSA1    1        ECLIPA   H611R    HAL2     0.900000E-01   1.00800           0
       177 LPSA1    1        ECLIPA   H611S    HAL2     0.900000E-01   1.00800           0
       178 LPSA1    1        ECLIPA   C612     CTL3    -0.270000       12.0110           0
       179 LPSA1    1        ECLIPA   H612R    HAL3     0.900000E-01   1.00800           0
       180 LPSA1    1        ECLIPA   H612S    HAL3     0.900000E-01   1.00800           0
       181 LPSA1    1        ECLIPA   H612T    HAL3     0.900000E-01   1.00800           0
       182 LPSA1    1        ECLIPA   C54      CTL2    -0.180000       12.0110           0
       183 LPSA1    1        ECLIPA   H54R     HAL2     0.900000E-01   1.00800           0
       184 LPSA1    1        ECLIPA   H54S     HAL2     0.900000E-01   1.00800           0
       185 LPSA1    1        ECLIPA   C55      CTL2    -0.180000       12.0110           0
       186 LPSA1    1        ECLIPA   H55R     HAL2     0.900000E-01   1.00800           0
       187 LPSA1    1        ECLIPA   H55S     HAL2     0.900000E-01   1.00800           0
       188 LPSA1    1        ECLIPA   C56      CTL2    -0.180000       12.0110           0
       189 LPSA1    1        ECLIPA   H56R     HAL2     0.900000E-01   1.00800           0
       190 LPSA1    1        ECLIPA   H56S     HAL2     0.900000E-01   1.00800           0
       191 LPSA1    1        ECLIPA   C57      CTL2    -0.180000       12.0110           0
       192 LPSA1    1        ECLIPA   H57R     HAL2     0.900000E-01   1.00800           0
       193 LPSA1    1        ECLIPA   H57S     HAL2     0.900000E-01   1.00800           0
       194 LPSA1    1        ECLIPA   C58      CTL2    -0.180000       12.0110           0
       195 LPSA1    1        ECLIPA   H58R     HAL2     0.900000E-01   1.00800           0
       196 LPSA1    1        ECLIPA   H58S     HAL2     0.900000E-01   1.00800           0
       197 LPSA1    1        ECLIPA   C59      CTL2    -0.180000       12.0110           0
       198 LPSA1    1        ECLIPA   H59R     HAL2     0.900000E-01   1.00800           0
       199 LPSA1    1        ECLIPA   H59S     HAL2     0.900000E-01   1.00800           0
       200 LPSA1    1        ECLIPA   C510     CTL2    -0.180000       12.0110           0
       201 LPSA1    1        ECLIPA   H510R    HAL2     0.900000E-01   1.00800           0
       202 LPSA1    1        ECLIPA   H510S    HAL2     0.900000E-01   1.00800           0
       203 LPSA1    1        ECLIPA   C511     CTL2    -0.180000       12.0110           0
       204 LPSA1    1        ECLIPA   H511R    HAL2     0.900000E-01   1.00800           0
       205 LPSA1    1        ECLIPA   H511S    HAL2     0.900000E-01   1.00800           0
       206 LPSA1    1        ECLIPA   C512     CTL2    -0.180000       12.0110           0
       207 LPSA1    1        ECLIPA   H512R    HAL2     0.900000E-01   1.00800           0
       208 LPSA1    1        ECLIPA   H512S    HAL2     0.900000E-01   1.00800           0
       209 LPSA1    1        ECLIPA   C513     CTL2    -0.180000       12.0110           0
       210 LPSA1    1        ECLIPA   H513R    HAL2     0.900000E-01   1.00800           0
       211 LPSA1    1        ECLIPA   H513S    HAL2     0.900000E-01   1.00800           0
       212 LPSA1    1        ECLIPA   C514     CTL3    -0.270000       12.0110           0
       213 LPSA1    1        ECLIPA   H514R    HAL3     0.900000E-01   1.00800           0
       214 LPSA1    1        ECLIPA   H514S    HAL3     0.900000E-01   1.00800           0
       215 LPSA1    1        ECLIPA   H514T    HAL3     0.900000E-01   1.00800           0
       216 LPSA1    1        ECLIPA   C33      CTL1     0.140000       12.0110           0
       217 LPSA1    1        ECLIPA   H33R     HAL1     0.900000E-01   1.00800           0
       218 LPSA1    1        ECLIPA   O33      OH1     -0.660000       15.9994           0
       219 LPSA1    1        ECLIPA   HO33     H        0.430000       1.00800           0
       220 LPSA1    1        ECLIPA   C34      CTL2    -0.180000       12.0110           0
       221 LPSA1    1        ECLIPA   H34R     HAL2     0.900000E-01   1.00800           0
       222 LPSA1    1        ECLIPA   H34S     HAL2     0.900000E-01   1.00800           0
       223 LPSA1    1        ECLIPA   C35      CTL2    -0.180000       12.0110           0
       224 LPSA1    1        ECLIPA   H35R     HAL2     0.900000E-01   1.00800           0
       225 LPSA1    1        ECLIPA   H35S     HAL2     0.900000E-01   1.00800           0
       226 LPSA1    1        ECLIPA   C36      CTL2    -0.180000       12.0110           0
       227 LPSA1    1        ECLIPA   H36R     HAL2     0.900000E-01   1.00800           0
       228 LPSA1    1        ECLIPA   H36S     HAL2     0.900000E-01   1.00800           0
       229 LPSA1    1        ECLIPA   C37      CTL2    -0.180000       12.0110           0
       230 LPSA1    1        ECLIPA   H37R     HAL2     0.900000E-01   1.00800           0
       231 LPSA1    1        ECLIPA   H37S     HAL2     0.900000E-01   1.00800           0
       232 LPSA1    1        ECLIPA   C38      CTL2    -0.180000       12.0110           0
       233 LPSA1    1        ECLIPA   H38R     HAL2     0.900000E-01   1.00800           0
       234 LPSA1    1        ECLIPA   H38S     HAL2     0.900000E-01   1.00800           0
       235 LPSA1    1        ECLIPA   C39      CTL2    -0.180000       12.0110           0
       236 LPSA1    1        ECLIPA   H39R     HAL2     0.900000E-01   1.00800           0
       237 LPSA1    1        ECLIPA   H39S     HAL2     0.900000E-01   1.00800           0
       238 LPSA1    1        ECLIPA   C310     CTL2    -0.180000       12.0110           0
       239 LPSA1    1        ECLIPA   H310R    HAL2     0.900000E-01   1.00800           0
       240 LPSA1    1        ECLIPA   H310S    HAL2     0.900000E-01   1.00800           0
       241 LPSA1    1        ECLIPA   C311     CTL2    -0.180000       12.0110           0
       242 LPSA1    1        ECLIPA   H311R    HAL2     0.900000E-01   1.00800           0
       243 LPSA1    1        ECLIPA   H311S    HAL2     0.900000E-01   1.00800           0
       244 LPSA1    1        ECLIPA   C312     CTL2    -0.180000       12.0110           0
       245 LPSA1    1        ECLIPA   H312R    HAL2     0.900000E-01   1.00800           0
       246 LPSA1    1        ECLIPA   H312S    HAL2     0.900000E-01   1.00800           0
       247 LPSA1    1        ECLIPA   C313     CTL2    -0.180000       12.0110           0
       248 LPSA1    1        ECLIPA   H313R    HAL2     0.900000E-01   1.00800           0
       249 LPSA1    1        ECLIPA   H313S    HAL2     0.900000E-01   1.00800           0
       250 LPSA1    1        ECLIPA   C314     CTL3    -0.270000       12.0110           0
       251 LPSA1    1        ECLIPA   H314R    HAL3     0.900000E-01   1.00800           0
       252 LPSA1    1        ECLIPA   H314S    HAL3     0.900000E-01   1.00800           0
       253 LPSA1    1        ECLIPA   H314T    HAL3     0.900000E-01   1.00800           0
       254 LPSA1    1        ECLIPA   C11      CC2O1    0.550000       12.0110           0
       255 LPSA1    1        ECLIPA   O11      OC2D1   -0.550000       15.9994           0
       256 LPSA1    1        ECLIPA   C12      CTL2    -0.180000       12.0110           0
       257 LPSA1    1        ECLIPA   H12R     HAL2     0.900000E-01   1.00800           0
       258 LPSA1    1        ECLIPA   H12S     HAL2     0.900000E-01   1.00800           0
       259 LPSA1    1        ECLIPA   C13      CTL1     0.140000       12.0110           0
       260 LPSA1    1        ECLIPA   H13R     HAL1     0.900000E-01   1.00800           0
       261 LPSA1    1        ECLIPA   O13      OH1     -0.660000       15.9994           0
       262 LPSA1    1        ECLIPA   HO13     H        0.430000       1.00800           0
       263 LPSA1    1        ECLIPA   C14      CTL2    -0.180000       12.0110           0
       264 LPSA1    1        ECLIPA   H14R     HAL2     0.900000E-01   1.00800           0
       265 LPSA1    1        ECLIPA   H14S     HAL2     0.900000E-01   1.00800           0
       266 LPSA1    1        ECLIPA   C15      CTL2    -0.180000       12.0110           0
       267 LPSA1    1        ECLIPA   H15R     HAL2     0.900000E-01   1.00800           0
       268 LPSA1    1        ECLIPA   H15S     HAL2     0.900000E-01   1.00800           0
       269 LPSA1    1        ECLIPA   C16      CTL2    -0.180000       12.0110           0
       270 LPSA1    1        ECLIPA   H16R     HAL2     0.900000E-01   1.00800           0
       271 LPSA1    1        ECLIPA   H16S     HAL2     0.900000E-01   1.00800           0
       272 LPSA1    1        ECLIPA   C17      CTL2    -0.180000       12.0110           0
       273 LPSA1    1        ECLIPA   H17R     HAL2     0.900000E-01   1.00800           0
       274 LPSA1    1        ECLIPA   H17S     HAL2     0.900000E-01   1.00800           0
       275 LPSA1    1        ECLIPA   C18      CTL2    -0.180000       12.0110           0
       276 LPSA1    1        ECLIPA   H18R     HAL2     0.900000E-01   1.00800           0
       277 LPSA1    1        ECLIPA   H18S     HAL2     0.900000E-01   1.00800           0
       278 LPSA1    1        ECLIPA   C19      CTL2    -0.180000       12.0110           0
       279 LPSA1    1        ECLIPA   H19R     HAL2     0.900000E-01   1.00800           0
       280 LPSA1    1        ECLIPA   H19S     HAL2     0.900000E-01   1.00800           0
       281 LPSA1    1        ECLIPA   C110     CTL2    -0.180000       12.0110           0
       282 LPSA1    1        ECLIPA   H110R    HAL2     0.900000E-01   1.00800           0
       283 LPSA1    1        ECLIPA   H110S    HAL2     0.900000E-01   1.00800           0
       284 LPSA1    1        ECLIPA   C111     CTL2    -0.180000       12.0110           0
       285 LPSA1    1        ECLIPA   H111R    HAL2     0.900000E-01   1.00800           0
       286 LPSA1    1        ECLIPA   H111S    HAL2     0.900000E-01   1.00800           0
       287 LPSA1    1        ECLIPA   C112     CTL2    -0.180000       12.0110           0
       288 LPSA1    1        ECLIPA   H112R    HAL2     0.900000E-01   1.00800           0
       289 LPSA1    1        ECLIPA   H112S    HAL2     0.900000E-01   1.00800           0
       290 LPSA1    1        ECLIPA   C113     CTL2    -0.180000       12.0110           0
       291 LPSA1    1        ECLIPA   H113R    HAL2     0.900000E-01   1.00800           0
       292 LPSA1    1        ECLIPA   H113S    HAL2     0.900000E-01   1.00800           0
       293 LPSA1    1        ECLIPA   C114     CTL3    -0.270000       12.0110           0
       294 LPSA1    1        ECLIPA   H114R    HAL3     0.900000E-01   1.00800           0
       295 LPSA1    1        ECLIPA   H114S    HAL3     0.900000E-01   1.00800           0
       296 LPSA1    1        ECLIPA   H114T    HAL3     0.900000E-01   1.00800           0
       297 LPSA1    2        AKDO     C1       CC2O2    0.300000       12.0110           0
       298 LPSA1    2        AKDO     O11      OC2D2   -0.600000       15.9994           0
       299 LPSA1    2        AKDO     O12      OC2D2   -0.600000       15.9994           0
       300 LPSA1    2        AKDO     C2       CC3062   0.280000       12.0110           0
       301 LPSA1    2        AKDO     C6       CC3163   0.110000       12.0110           0
       302 LPSA1    2        AKDO     H6       HCA1     0.900000E-01   1.00800           0
       303 LPSA1    2        AKDO     O6       OC3C61  -0.400000       15.9994           0
       304 LPSA1    2        AKDO     C3       CC3261  -0.180000       12.0110           0
       305 LPSA1    2        AKDO     H31      HCA2     0.900000E-01   1.00800           0
       306 LPSA1    2        AKDO     H32      HCA2     0.900000E-01   1.00800           0
       307 LPSA1    2        AKDO     C4       CC3161   0.900000E-01   12.0110           0
       308 LPSA1    2        AKDO     H4       HCA1     0.900000E-01   1.00800           0
       309 LPSA1    2        AKDO     O4       OC301   -0.360000       15.9994           0
       310 LPSA1    2        AKDO     C5       CC3161   0.900000E-01   12.0110           0
       311 LPSA1    2        AKDO     H5       HCA1     0.900000E-01   1.00800           0
       312 LPSA1    2        AKDO     O5       OC301   -0.360000       15.9994           0
       313 LPSA1    2        AKDO     C7       CC312    0.140000       12.0110           0
       314 LPSA1    2        AKDO     H7       HCA1     0.900000E-01   1.00800           0
       315 LPSA1    2        AKDO     O7       OC311   -0.650000       15.9994           0
       316 LPSA1    2        AKDO     HO7      HCP1     0.420000       1.00800           0
       317 LPSA1    2        AKDO     C8       CC322    0.500000E-01   12.0110           0
       318 LPSA1    2        AKDO     H81      HCA2     0.900000E-01   1.00800           0
       319 LPSA1    2        AKDO     H82      HCA2     0.900000E-01   1.00800           0
       320 LPSA1    2        AKDO     O8       OC311   -0.650000       15.9994           0
       321 LPSA1    2        AKDO     HO8      HCP1     0.420000       1.00800           0
       322 LPSA1    3        AKDO     C1       CC2O2    0.300000       12.0110           0
       323 LPSA1    3        AKDO     O11      OC2D2   -0.600000       15.9994           0
       324 LPSA1    3        AKDO     O12      OC2D2   -0.600000       15.9994           0
       325 LPSA1    3        AKDO     C2       CC3062   0.280000       12.0110           0
       326 LPSA1    3        AKDO     C6       CC3163   0.110000       12.0110           0
       327 LPSA1    3        AKDO     H6       HCA1     0.900000E-01   1.00800           0
       328 LPSA1    3        AKDO     O6       OC3C61  -0.400000       15.9994           0
       329 LPSA1    3        AKDO     C3       CC3261  -0.180000       12.0110           0
       330 LPSA1    3        AKDO     H31      HCA2     0.900000E-01   1.00800           0
       331 LPSA1    3        AKDO     H32      HCA2     0.900000E-01   1.00800           0
       332 LPSA1    3        AKDO     C4       CC3161   0.140000       12.0110           0
       333 LPSA1    3        AKDO     H4       HCA1     0.900000E-01   1.00800           0
       334 LPSA1    3        AKDO     O4       OC311   -0.650000       15.9994           0
       335 LPSA1    3        AKDO     HO4      HCP1     0.420000       1.00800           0
       336 LPSA1    3        AKDO     C5       CC3161   0.140000       12.0110           0
       337 LPSA1    3        AKDO     H5       HCA1     0.900000E-01   1.00800           0
       338 LPSA1    3        AKDO     O5       OC311   -0.650000       15.9994           0
       339 LPSA1    3        AKDO     HO5      HCP1     0.420000       1.00800           0
       340 LPSA1    3        AKDO     C7       CC312    0.140000       12.0110           0
       341 LPSA1    3        AKDO     H7       HCA1     0.900000E-01   1.00800           0
       342 LPSA1    3        AKDO     O7       OC311   -0.650000       15.9994           0
       343 LPSA1    3        AKDO     HO7      HCP1     0.420000       1.00800           0
       344 LPSA1    3        AKDO     C8       CC322    0.500000E-01   12.0110           0
       345 LPSA1    3        AKDO     H81      HCA2     0.900000E-01   1.00800           0
       346 LPSA1    3        AKDO     H82      HCA2     0.900000E-01   1.00800           0
       347 LPSA1    3        AKDO     O8       OC311   -0.650000       15.9994           0
       348 LPSA1    3        AKDO     HO8      HCP1     0.420000       1.00800           0
       349 LPSA1    4        AHEP     C1       CC3162   0.290000       12.0110           0
       350 LPSA1    4        AHEP     H1       HCA1     0.900000E-01   1.00800           0
       351 LPSA1    4        AHEP     C5       CC3163   0.110000       12.0110           0
       352 LPSA1    4        AHEP     H5       HCA1     0.900000E-01   1.00800           0
       353 LPSA1    4        AHEP     O5       OC3C61  -0.400000       15.9994           0
       354 LPSA1    4        AHEP     C2       CC3161   0.140000       12.0110           0
       355 LPSA1    4        AHEP     H2       HCA1     0.900000E-01   1.00800           0
       356 LPSA1    4        AHEP     O2       OC311   -0.650000       15.9994           0
       357 LPSA1    4        AHEP     HO2      HCP1     0.420000       1.00800           0
       358 LPSA1    4        AHEP     C3       CC3161   0.900000E-01   12.0110           0
       359 LPSA1    4        AHEP     H3       HCA1     0.900000E-01   1.00800           0
       360 LPSA1    4        AHEP     O3       OC301   -0.360000       15.9994           0
       361 LPSA1    4        AHEP     C4       CC3161  -0.900000E-01   12.0110           0
       362 LPSA1    4        AHEP     H4       HCA1     0.900000E-01   1.00800           0
       363 LPSA1    4        AHEP     O4       OC30P   -0.400000       15.9994           0
       364 LPSA1    4        AHEP     P4       PC        1.10000       30.9740           0
       365 LPSA1    4        AHEP     OP42     OC2DP   -0.900000       15.9994           0
       366 LPSA1    4        AHEP     OP43     OC2DP   -0.900000       15.9994           0
       367 LPSA1    4        AHEP     OP44     OC2DP   -0.900000       15.9994           0
       368 LPSA1    4        AHEP     C6       CC312    0.140000       12.0110           0
       369 LPSA1    4        AHEP     H6       HCA1     0.900000E-01   1.00800           0
       370 LPSA1    4        AHEP     O6       OC311   -0.650000       15.9994           0
       371 LPSA1    4        AHEP     HO6      HCP1     0.420000       1.00800           0
       372 LPSA1    4        AHEP     C7       CC322    0.500000E-01   12.0110           0
       373 LPSA1    4        AHEP     H71      HCA2     0.900000E-01   1.00800           0
       374 LPSA1    4        AHEP     H72      HCA2     0.900000E-01   1.00800           0
       375 LPSA1    4        AHEP     O7       OC311   -0.650000       15.9994           0
       376 LPSA1    4        AHEP     HO7      HCP1     0.420000       1.00800           0
       377 LPSA1    5        AHEP     C1       CC3162   0.290000       12.0110           0
       378 LPSA1    5        AHEP     H1       HCA1     0.900000E-01   1.00800           0
       379 LPSA1    5        AHEP     C5       CC3163   0.110000       12.0110           0
       380 LPSA1    5        AHEP     H5       HCA1     0.900000E-01   1.00800           0
       381 LPSA1    5        AHEP     O5       OC3C61  -0.400000       15.9994           0
       382 LPSA1    5        AHEP     C2       CC3161   0.140000       12.0110           0
       383 LPSA1    5        AHEP     H2       HCA1     0.900000E-01   1.00800           0
       384 LPSA1    5        AHEP     O2       OC311   -0.650000       15.9994           0
       385 LPSA1    5        AHEP     HO2      HCP1     0.420000       1.00800           0
       386 LPSA1    5        AHEP     C3       CC3161   0.900000E-01   12.0110           0
       387 LPSA1    5        AHEP     H3       HCA1     0.900000E-01   1.00800           0
       388 LPSA1    5        AHEP     O3       OC301   -0.360000       15.9994           0
       389 LPSA1    5        AHEP     C4       CC3161  -0.900000E-01   12.0110           0
       390 LPSA1    5        AHEP     H4       HCA1     0.900000E-01   1.00800           0
       391 LPSA1    5        AHEP     O4       OC30P   -0.400000       15.9994           0
       392 LPSA1    5        AHEP     P4       PC        1.10000       30.9740           0
       393 LPSA1    5        AHEP     OP42     OC2DP   -0.900000       15.9994           0
       394 LPSA1    5        AHEP     OP43     OC2DP   -0.900000       15.9994           0
       395 LPSA1    5        AHEP     OP44     OC2DP   -0.900000       15.9994           0
       396 LPSA1    5        AHEP     C6       CC312    0.140000       12.0110           0
       397 LPSA1    5        AHEP     H6       HCA1     0.900000E-01   1.00800           0
       398 LPSA1    5        AHEP     O6       OC311   -0.650000       15.9994           0
       399 LPSA1    5        AHEP     HO6      HCP1     0.420000       1.00800           0
       400 LPSA1    5        AHEP     C7       CC322     0.00000       12.0110           0
       401 LPSA1    5        AHEP     H71      HCA2     0.900000E-01   1.00800           0
       402 LPSA1    5        AHEP     H72      HCA2     0.900000E-01   1.00800           0
       403 LPSA1    5        AHEP     O7       OC301   -0.360000       15.9994           0
       404 LPSA1    6        AHEP     C1       CC3162   0.290000       12.0110           0
       405 LPSA1    6        AHEP     H1       HCA1     0.900000E-01   1.00800           0
       406 LPSA1    6        AHEP     C5       CC3163   0.110000       12.0110           0
       407 LPSA1    6        AHEP     H5       HCA1     0.900000E-01   1.00800           0
       408 LPSA1    6        AHEP     O5       OC3C61  -0.400000       15.9994           0
       409 LPSA1    6        AHEP     C2       CC3161   0.140000       12.0110           0
       410 LPSA1    6        AHEP     H2       HCA1     0.900000E-01   1.00800           0
       411 LPSA1    6        AHEP     O2       OC311   -0.650000       15.9994           0
       412 LPSA1    6        AHEP     HO2      HCP1     0.420000       1.00800           0
       413 LPSA1    6        AHEP     C3       CC3161   0.140000       12.0110           0
       414 LPSA1    6        AHEP     H3       HCA1     0.900000E-01   1.00800           0
       415 LPSA1    6        AHEP     O3       OC311   -0.650000       15.9994           0
       416 LPSA1    6        AHEP     HO3      HCP1     0.420000       1.00800           0
       417 LPSA1    6        AHEP     C4       CC3161   0.140000       12.0110           0
       418 LPSA1    6        AHEP     H4       HCA1     0.900000E-01   1.00800           0
       419 LPSA1    6        AHEP     O4       OC311   -0.650000       15.9994           0
       420 LPSA1    6        AHEP     HO4      HCP1     0.420000       1.00800           0
       421 LPSA1    6        AHEP     C6       CC312    0.140000       12.0110           0
       422 LPSA1    6        AHEP     H6       HCA1     0.900000E-01   1.00800           0
       423 LPSA1    6        AHEP     O6       OC311   -0.650000       15.9994           0
       424 LPSA1    6        AHEP     HO6      HCP1     0.420000       1.00800           0
       425 LPSA1    6        AHEP     C7       CC322    0.500000E-01   12.0110           0
       426 LPSA1    6        AHEP     H71      HCA2     0.900000E-01   1.00800           0
       427 LPSA1    6        AHEP     H72      HCA2     0.900000E-01   1.00800           0
       428 LPSA1    6        AHEP     O7       OC311   -0.650000       15.9994           0
       429 LPSA1    6        AHEP     HO7      HCP1     0.420000       1.00800           0
       430 LPSA1    7        AGLC     C1       CC3162   0.290000       12.0110           0
       431 LPSA1    7        AGLC     H1       HCA1     0.900000E-01   1.00800           0
       432 LPSA1    7        AGLC     C5       CC3163   0.110000       12.0110           0
       433 LPSA1    7        AGLC     H5       HCA1     0.900000E-01   1.00800           0
       434 LPSA1    7        AGLC     O5       OC3C61  -0.400000       15.9994           0
       435 LPSA1    7        AGLC     C2       CC3161   0.140000       12.0110           0
       436 LPSA1    7        AGLC     H2       HCA1     0.900000E-01   1.00800           0
       437 LPSA1    7        AGLC     O2       OC311   -0.650000       15.9994           0
       438 LPSA1    7        AGLC     HO2      HCP1     0.420000       1.00800           0
       439 LPSA1    7        AGLC     C3       CC3161   0.900000E-01   12.0110           0
       440 LPSA1    7        AGLC     H3       HCA1     0.900000E-01   1.00800           0
       441 LPSA1    7        AGLC     O3       OC301   -0.360000       15.9994           0
       442 LPSA1    7        AGLC     C4       CC3161   0.140000       12.0110           0
       443 LPSA1    7        AGLC     H4       HCA1     0.900000E-01   1.00800           0
       444 LPSA1    7        AGLC     O4       OC311   -0.650000       15.9994           0
       445 LPSA1    7        AGLC     HO4      HCP1     0.420000       1.00800           0
       446 LPSA1    7        AGLC     C6       CC321    0.500000E-01   12.0110           0
       447 LPSA1    7        AGLC     H61      HCA2     0.900000E-01   1.00800           0
       448 LPSA1    7        AGLC     H62      HCA2     0.900000E-01   1.00800           0
       449 LPSA1    7        AGLC     O6       OC311   -0.650000       15.9994           0
       450 LPSA1    7        AGLC     HO6      HCP1     0.420000       1.00800           0
       451 LPSA1    8        AGLC     C1       CC3162   0.290000       12.0110           0
       452 LPSA1    8        AGLC     H1       HCA1     0.900000E-01   1.00800           0
       453 LPSA1    8        AGLC     C5       CC3163   0.110000       12.0110           0
       454 LPSA1    8        AGLC     H5       HCA1     0.900000E-01   1.00800           0
       455 LPSA1    8        AGLC     O5       OC3C61  -0.400000       15.9994           0
       456 LPSA1    8        AGLC     C2       CC3161   0.900000E-01   12.0110           0
       457 LPSA1    8        AGLC     H2       HCA1     0.900000E-01   1.00800           0
       458 LPSA1    8        AGLC     O2       OC301   -0.360000       15.9994           0
       459 LPSA1    8        AGLC     C3       CC3161   0.900000E-01   12.0110           0
       460 LPSA1    8        AGLC     H3       HCA1     0.900000E-01   1.00800           0
       461 LPSA1    8        AGLC     O3       OC301   -0.360000       15.9994           0
       462 LPSA1    8        AGLC     C4       CC3161   0.140000       12.0110           0
       463 LPSA1    8        AGLC     H4       HCA1     0.900000E-01   1.00800           0
       464 LPSA1    8        AGLC     O4       OC311   -0.650000       15.9994           0
       465 LPSA1    8        AGLC     HO4      HCP1     0.420000       1.00800           0
       466 LPSA1    8        AGLC     C6       CC321    0.500000E-01   12.0110           0
       467 LPSA1    8        AGLC     H61      HCA2     0.900000E-01   1.00800           0
       468 LPSA1    8        AGLC     H62      HCA2     0.900000E-01   1.00800           0
       469 LPSA1    8        AGLC     O6       OC311   -0.650000       15.9994           0
       470 LPSA1    8        AGLC     HO6      HCP1     0.420000       1.00800           0
       471 LPSA1    9        AGAL     C1       CC3162   0.290000       12.0110           0
       472 LPSA1    9        AGAL     H1       HCA1     0.900000E-01   1.00800           0
       473 LPSA1    9        AGAL     C5       CC3163   0.110000       12.0110           0
       474 LPSA1    9        AGAL     H5       HCA1     0.900000E-01   1.00800           0
       475 LPSA1    9        AGAL     O5       OC3C61  -0.400000       15.9994           0
       476 LPSA1    9        AGAL     C2       CC3161   0.900000E-01   12.0110           0
       477 LPSA1    9        AGAL     H2       HCA1     0.900000E-01   1.00800           0
       478 LPSA1    9        AGAL     O2       OC301   -0.360000       15.9994           0
       479 LPSA1    9        AGAL     C3       CC3161   0.140000       12.0110           0
       480 LPSA1    9        AGAL     H3       HCA1     0.900000E-01   1.00800           0
       481 LPSA1    9        AGAL     O3       OC311   -0.650000       15.9994           0
       482 LPSA1    9        AGAL     HO3      HCP1     0.420000       1.00800           0
       483 LPSA1    9        AGAL     C4       CC3161   0.140000       12.0110           0
       484 LPSA1    9        AGAL     H4       HCA1     0.900000E-01   1.00800           0
       485 LPSA1    9        AGAL     O4       OC311   -0.650000       15.9994           0
       486 LPSA1    9        AGAL     HO4      HCP1     0.420000       1.00800           0
       487 LPSA1    9        AGAL     C6       CC321    0.500000E-01   12.0110           0
       488 LPSA1    9        AGAL     H61      HCA2     0.900000E-01   1.00800           0
       489 LPSA1    9        AGAL     H62      HCA2     0.900000E-01   1.00800           0
       490 LPSA1    9        AGAL     O6       OC311   -0.650000       15.9994           0
       491 LPSA1    9        AGAL     HO6      HCP1     0.420000       1.00800           0
       492 LPSA1    10       AGAL     C1       CC3162   0.290000       12.0110           0
       493 LPSA1    10       AGAL     H1       HCA1     0.900000E-01   1.00800           0
       494 LPSA1    10       AGAL     C5       CC3163   0.110000       12.0110           0
       495 LPSA1    10       AGAL     H5       HCA1     0.900000E-01   1.00800           0
       496 LPSA1    10       AGAL     O5       OC3C61  -0.400000       15.9994           0
       497 LPSA1    10       AGAL     C2       CC3161   0.140000       12.0110           0
       498 LPSA1    10       AGAL     H2       HCA1     0.900000E-01   1.00800           0
       499 LPSA1    10       AGAL     O2       OC311   -0.650000       15.9994           0
       500 LPSA1    10       AGAL     HO2      HCP1     0.420000       1.00800           0
       501 LPSA1    10       AGAL     C3       CC3161   0.140000       12.0110           0
       502 LPSA1    10       AGAL     H3       HCA1     0.900000E-01   1.00800           0
       503 LPSA1    10       AGAL     O3       OC311   -0.650000       15.9994           0
       504 LPSA1    10       AGAL     HO3      HCP1     0.420000       1.00800           0
       505 LPSA1    10       AGAL     C4       CC3161   0.140000       12.0110           0
       506 LPSA1    10       AGAL     H4       HCA1     0.900000E-01   1.00800           0
       507 LPSA1    10       AGAL     O4       OC311   -0.650000       15.9994           0
       508 LPSA1    10       AGAL     HO4      HCP1     0.420000       1.00800           0
       509 LPSA1    10       AGAL     C6       CC321    0.500000E-01   12.0110           0
       510 LPSA1    10       AGAL     H61      HCA2     0.900000E-01   1.00800           0
       511 LPSA1    10       AGAL     H62      HCA2     0.900000E-01   1.00800           0
       512 LPSA1    10       AGAL     O6       OC311   -0.650000       15.9994           0
       513 LPSA1    10       AGAL     HO6      HCP1     0.420000       1.00800           0
       514 LPSA1    11       BGLC     C1       CC3162   0.290000       12.0110           0
       515 LPSA1    11       BGLC     H1       HCA1     0.900000E-01   1.00800           0
       516 LPSA1    11       BGLC     C5       CC3163   0.110000       12.0110           0
       517 LPSA1    11       BGLC     H5       HCA1     0.900000E-01   1.00800           0
       518 LPSA1    11       BGLC     O5       OC3C61  -0.400000       15.9994           0
       519 LPSA1    11       BGLC     C2       CC3161   0.140000       12.0110           0
       520 LPSA1    11       BGLC     H2       HCA1     0.900000E-01   1.00800           0
       521 LPSA1    11       BGLC     O2       OC311   -0.650000       15.9994           0
       522 LPSA1    11       BGLC     HO2      HCP1     0.420000       1.00800           0
       523 LPSA1    11       BGLC     C3       CC3161   0.900000E-01   12.0110           0
       524 LPSA1    11       BGLC     H3       HCA1     0.900000E-01   1.00800           0
       525 LPSA1    11       BGLC     O3       OC301   -0.360000       15.9994           0
       526 LPSA1    11       BGLC     C4       CC3161   0.140000       12.0110           0
       527 LPSA1    11       BGLC     H4       HCA1     0.900000E-01   1.00800           0
       528 LPSA1    11       BGLC     O4       OC311   -0.650000       15.9994           0
       529 LPSA1    11       BGLC     HO4      HCP1     0.420000       1.00800           0
       530 LPSA1    11       BGLC     C6       CC321    0.500000E-01   12.0110           0
       531 LPSA1    11       BGLC     H61      HCA2     0.900000E-01   1.00800           0
       532 LPSA1    11       BGLC     H62      HCA2     0.900000E-01   1.00800           0
       533 LPSA1    11       BGLC     O6       OC311   -0.650000       15.9994           0
       534 LPSA1    11       BGLC     HO6      HCP1     0.420000       1.00800           0
       535 LPSA1    12       BGLCNA   C1       CC3162   0.290000       12.0110           0
       536 LPSA1    12       BGLCNA   H1       HCA1     0.900000E-01   1.00800           0
       537 LPSA1    12       BGLCNA   C5       CC3163   0.110000       12.0110           0
       538 LPSA1    12       BGLCNA   H5       HCA1     0.900000E-01   1.00800           0
       539 LPSA1    12       BGLCNA   O5       OC3C61  -0.400000       15.9994           0
       540 LPSA1    12       BGLCNA   C2       CC3161   0.700000E-01   12.0110           0
       541 LPSA1    12       BGLCNA   H2       HCA1     0.900000E-01   1.00800           0
       542 LPSA1    12       BGLCNA   N        NC2D1   -0.470000       14.0070           0
       543 LPSA1    12       BGLCNA   HN       HCP1     0.310000       1.00800           0
       544 LPSA1    12       BGLCNA   C        CC2O1    0.510000       12.0110           0
       545 LPSA1    12       BGLCNA   O        OC2D1   -0.510000       15.9994           0
       546 LPSA1    12       BGLCNA   CT       CC331   -0.270000       12.0110           0
       547 LPSA1    12       BGLCNA   HT1      HCA3     0.900000E-01   1.00800           0
       548 LPSA1    12       BGLCNA   HT2      HCA3     0.900000E-01   1.00800           0
       549 LPSA1    12       BGLCNA   HT3      HCA3     0.900000E-01   1.00800           0
       550 LPSA1    12       BGLCNA   C3       CC3161   0.900000E-01   12.0110           0
       551 LPSA1    12       BGLCNA   H3       HCA1     0.900000E-01   1.00800           0
       552 LPSA1    12       BGLCNA   O3       OC301   -0.360000       15.9994           0
       553 LPSA1    12       BGLCNA   C4       CC3161   0.140000       12.0110           0
       554 LPSA1    12       BGLCNA   H4       HCA1     0.900000E-01   1.00800           0
       555 LPSA1    12       BGLCNA   O4       OC311   -0.650000       15.9994           0
       556 LPSA1    12       BGLCNA   HO4      HCP1     0.420000       1.00800           0
       557 LPSA1    12       BGLCNA   C6       CC321    0.500000E-01   12.0110           0
       558 LPSA1    12       BGLCNA   H61      HCA2     0.900000E-01   1.00800           0
       559 LPSA1    12       BGLCNA   H62      HCA2     0.900000E-01   1.00800           0
       560 LPSA1    12       BGLCNA   O6       OC311   -0.650000       15.9994           0
       561 LPSA1    12       BGLCNA   HO6      HCP1     0.420000       1.00800           0
       562 LPSA1    13       AGAL     C1       CC3162   0.290000       12.0110           0
       563 LPSA1    13       AGAL     H1       HCA1     0.900000E-01   1.00800           0
       564 LPSA1    13       AGAL     C5       CC3163   0.110000       12.0110           0
       565 LPSA1    13       AGAL     H5       HCA1     0.900000E-01   1.00800           0
       566 LPSA1    13       AGAL     O5       OC3C61  -0.400000       15.9994           0
       567 LPSA1    13       AGAL     C2       CC3161   0.900000E-01   12.0110           0
       568 LPSA1    13       AGAL     H2       HCA1     0.900000E-01   1.00800           0
       569 LPSA1    13       AGAL     O2       OC301   -0.360000       15.9994           0
       570 LPSA1    13       AGAL     C3       CC3161   0.140000       12.0110           0
       571 LPSA1    13       AGAL     H3       HCA1     0.900000E-01   1.00800           0
       572 LPSA1    13       AGAL     O3       OC311   -0.650000       15.9994           0
       573 LPSA1    13       AGAL     HO3      HCP1     0.420000       1.00800           0
       574 LPSA1    13       AGAL     C4       CC3161   0.140000       12.0110           0
       575 LPSA1    13       AGAL     H4       HCA1     0.900000E-01   1.00800           0
       576 LPSA1    13       AGAL     O4       OC311   -0.650000       15.9994           0
       577 LPSA1    13       AGAL     HO4      HCP1     0.420000       1.00800           0
       578 LPSA1    13       AGAL     C6       CC321    0.500000E-01   12.0110           0
       579 LPSA1    13       AGAL     H61      HCA2     0.900000E-01   1.00800           0
       580 LPSA1    13       AGAL     H62      HCA2     0.900000E-01   1.00800           0
       581 LPSA1    13       AGAL     O6       OC311   -0.650000       15.9994           0
       582 LPSA1    13       AGAL     HO6      HCP1     0.420000       1.00800           0
       583 LPSA1    14       ARHM     C1       CC3162   0.290000       12.0110           0
       584 LPSA1    14       ARHM     H1       HCA1     0.900000E-01   1.00800           0
       585 LPSA1    14       ARHM     C5       CC3163   0.110000       12.0110           0
       586 LPSA1    14       ARHM     H5       HCA1     0.900000E-01   1.00800           0
       587 LPSA1    14       ARHM     O5       OC3C61  -0.400000       15.9994           0
       588 LPSA1    14       ARHM     C2       CC3161   0.900000E-01   12.0110           0
       589 LPSA1    14       ARHM     H2       HCA1     0.900000E-01   1.00800           0
       590 LPSA1    14       ARHM     O2       OC301   -0.360000       15.9994           0
       591 LPSA1    14       ARHM     C3       CC3161   0.140000       12.0110           0
       592 LPSA1    14       ARHM     H3       HCA1     0.900000E-01   1.00800           0
       593 LPSA1    14       ARHM     O3       OC311   -0.650000       15.9994           0
       594 LPSA1    14       ARHM     HO3      HCP1     0.420000       1.00800           0
       595 LPSA1    14       ARHM     C4       CC3161   0.140000       12.0110           0
       596 LPSA1    14       ARHM     H4       HCA1     0.900000E-01   1.00800           0
       597 LPSA1    14       ARHM     O4       OC311   -0.650000       15.9994           0
       598 LPSA1    14       ARHM     HO4      HCP1     0.420000       1.00800           0
       599 LPSA1    14       ARHM     C6       CC331   -0.270000       12.0110           0
       600 LPSA1    14       ARHM     H61      HCA3     0.900000E-01   1.00800           0
       601 LPSA1    14       ARHM     H62      HCA3     0.900000E-01   1.00800           0
       602 LPSA1    14       ARHM     H63      HCA3     0.900000E-01   1.00800           0
       603 LPSA1    15       ARHM     C1       CC3162   0.290000       12.0110           0
       604 LPSA1    15       ARHM     H1       HCA1     0.900000E-01   1.00800           0
       605 LPSA1    15       ARHM     C5       CC3163   0.110000       12.0110           0
       606 LPSA1    15       ARHM     H5       HCA1     0.900000E-01   1.00800           0
       607 LPSA1    15       ARHM     O5       OC3C61  -0.400000       15.9994           0
       608 LPSA1    15       ARHM     C2       CC3161   0.900000E-01   12.0110           0
       609 LPSA1    15       ARHM     H2       HCA1     0.900000E-01   1.00800           0
       610 LPSA1    15       ARHM     O2       OC301   -0.360000       15.9994           0
       611 LPSA1    15       ARHM     C3       CC3161   0.900000E-01   12.0110           0
       612 LPSA1    15       ARHM     H3       HCA1     0.900000E-01   1.00800           0
       613 LPSA1    15       ARHM     O3       OC301   -0.360000       15.9994           0
       614 LPSA1    15       ARHM     C4       CC3161   0.140000       12.0110           0
       615 LPSA1    15       ARHM     H4       HCA1     0.900000E-01   1.00800           0
       616 LPSA1    15       ARHM     O4       OC311   -0.650000       15.9994           0
       617 LPSA1    15       ARHM     HO4      HCP1     0.420000       1.00800           0
       618 LPSA1    15       ARHM     C6       CC331   -0.270000       12.0110           0
       619 LPSA1    15       ARHM     H61      HCA3     0.900000E-01   1.00800           0
       620 LPSA1    15       ARHM     H62      HCA3     0.900000E-01   1.00800           0
       621 LPSA1    15       ARHM     H63      HCA3     0.900000E-01   1.00800           0
       622 LPSA1    16       BMANNA   C1       CC3162   0.290000       12.0110           0
       623 LPSA1    16       BMANNA   H1       HCA1     0.900000E-01   1.00800           0
       624 LPSA1    16       BMANNA   C5       CC3163   0.110000       12.0110           0
       625 LPSA1    16       BMANNA   H5       HCA1     0.900000E-01   1.00800           0
       626 LPSA1    16       BMANNA   O5       OC3C61  -0.400000       15.9994           0
       627 LPSA1    16       BMANNA   C2       CC3161   0.700000E-01   12.0110           0
       628 LPSA1    16       BMANNA   H2       HCA1     0.900000E-01   1.00800           0
       629 LPSA1    16       BMANNA   N        NC2D1   -0.470000       14.0070           0
       630 LPSA1    16       BMANNA   HN       HCP1     0.310000       1.00800           0
       631 LPSA1    16       BMANNA   C        CC2O1    0.510000       12.0110           0
       632 LPSA1    16       BMANNA   O        OC2D1   -0.510000       15.9994           0
       633 LPSA1    16       BMANNA   CT       CC331   -0.270000       12.0110           0
       634 LPSA1    16       BMANNA   HT1      HCA3     0.900000E-01   1.00800           0
       635 LPSA1    16       BMANNA   HT2      HCA3     0.900000E-01   1.00800           0
       636 LPSA1    16       BMANNA   HT3      HCA3     0.900000E-01   1.00800           0
       637 LPSA1    16       BMANNA   C3       CC3161   0.140000       12.0110           0
       638 LPSA1    16       BMANNA   H3       HCA1     0.900000E-01   1.00800           0
       639 LPSA1    16       BMANNA   O3       OC311   -0.650000       15.9994           0
       640 LPSA1    16       BMANNA   HO3      HCP1     0.420000       1.00800           0
       641 LPSA1    16       BMANNA   C4       CC3161   0.140000       12.0110           0
       642 LPSA1    16       BMANNA   H4       HCA1     0.900000E-01   1.00800           0
       643 LPSA1    16       BMANNA   O4       OC311   -0.650000       15.9994           0
       644 LPSA1    16       BMANNA   HO4      HCP1     0.420000       1.00800           0
       645 LPSA1    16       BMANNA   C6       CC321    0.500000E-01   12.0110           0
       646 LPSA1    16       BMANNA   H61      HCA2     0.900000E-01   1.00800           0
       647 LPSA1    16       BMANNA   H62      HCA2     0.900000E-01   1.00800           0
       648 LPSA1    16       BMANNA   O6       OC311   -0.650000       15.9994           0
       649 LPSA1    16       BMANNA   HO6      HCP1     0.420000       1.00800           0
       650 LPSA1    17       BGLCNA   C1       CC3162   0.290000       12.0110           0
       651 LPSA1    17       BGLCNA   H1       HCA1     0.900000E-01   1.00800           0
       652 LPSA1    17       BGLCNA   C5       CC3163   0.110000       12.0110           0
       653 LPSA1    17       BGLCNA   H5       HCA1     0.900000E-01   1.00800           0
       654 LPSA1    17       BGLCNA   O5       OC3C61  -0.400000       15.9994           0
       655 LPSA1    17       BGLCNA   C2       CC3161   0.700000E-01   12.0110           0
       656 LPSA1    17       BGLCNA   H2       HCA1     0.900000E-01   1.00800           0
       657 LPSA1    17       BGLCNA   N        NC2D1   -0.470000       14.0070           0
       658 LPSA1    17       BGLCNA   HN       HCP1     0.310000       1.00800           0
       659 LPSA1    17       BGLCNA   C        CC2O1    0.510000       12.0110           0
       660 LPSA1    17       BGLCNA   O        OC2D1   -0.510000       15.9994           0
       661 LPSA1    17       BGLCNA   CT       CC331   -0.270000       12.0110           0
       662 LPSA1    17       BGLCNA   HT1      HCA3     0.900000E-01   1.00800           0
       663 LPSA1    17       BGLCNA   HT2      HCA3     0.900000E-01   1.00800           0
       664 LPSA1    17       BGLCNA   HT3      HCA3     0.900000E-01   1.00800           0
       665 LPSA1    17       BGLCNA   C3       CC3161   0.900000E-01   12.0110           0
       666 LPSA1    17       BGLCNA   H3       HCA1     0.900000E-01   1.00800           0
       667 LPSA1    17       BGLCNA   O3       OC301   -0.360000       15.9994           0
       668 LPSA1    17       BGLCNA   C4       CC3161   0.140000       12.0110           0
       669 LPSA1    17       BGLCNA   H4       HCA1     0.900000E-01   1.00800           0
       670 LPSA1    17       BGLCNA   O4       OC311   -0.650000       15.9994           0
       671 LPSA1    17       BGLCNA   HO4      HCP1     0.420000       1.00800           0
       672 LPSA1    17       BGLCNA   C6       CC321    0.500000E-01   12.0110           0
       673 LPSA1    17       BGLCNA   H61      HCA2     0.900000E-01   1.00800           0
       674 LPSA1    17       BGLCNA   H62      HCA2     0.900000E-01   1.00800           0
       675 LPSA1    17       BGLCNA   O6       OC311   -0.650000       15.9994           0
       676 LPSA1    17       BGLCNA   HO6      HCP1     0.420000       1.00800           0
       677 LPSA1    18       AGAL     C1       CC3162   0.290000       12.0110           0
       678 LPSA1    18       AGAL     H1       HCA1     0.900000E-01   1.00800           0
       679 LPSA1    18       AGAL     C5       CC3163   0.110000       12.0110           0
       680 LPSA1    18       AGAL     H5       HCA1     0.900000E-01   1.00800           0
       681 LPSA1    18       AGAL     O5       OC3C61  -0.400000       15.9994           0
       682 LPSA1    18       AGAL     C2       CC3161   0.900000E-01   12.0110           0
       683 LPSA1    18       AGAL     H2       HCA1     0.900000E-01   1.00800           0
       684 LPSA1    18       AGAL     O2       OC301   -0.360000       15.9994           0
       685 LPSA1    18       AGAL     C3       CC3161   0.140000       12.0110           0
       686 LPSA1    18       AGAL     H3       HCA1     0.900000E-01   1.00800           0
       687 LPSA1    18       AGAL     O3       OC311   -0.650000       15.9994           0
       688 LPSA1    18       AGAL     HO3      HCP1     0.420000       1.00800           0
       689 LPSA1    18       AGAL     C4       CC3161   0.140000       12.0110           0
       690 LPSA1    18       AGAL     H4       HCA1     0.900000E-01   1.00800           0
       691 LPSA1    18       AGAL     O4       OC311   -0.650000       15.9994           0
       692 LPSA1    18       AGAL     HO4      HCP1     0.420000       1.00800           0
       693 LPSA1    18       AGAL     C6       CC321    0.500000E-01   12.0110           0
       694 LPSA1    18       AGAL     H61      HCA2     0.900000E-01   1.00800           0
       695 LPSA1    18       AGAL     H62      HCA2     0.900000E-01   1.00800           0
       696 LPSA1    18       AGAL     O6       OC311   -0.650000       15.9994           0
       697 LPSA1    18       AGAL     HO6      HCP1     0.420000       1.00800           0
       698 LPSA1    19       ARHM     C1       CC3162   0.290000       12.0110           0
       699 LPSA1    19       ARHM     H1       HCA1     0.900000E-01   1.00800           0
       700 LPSA1    19       ARHM     C5       CC3163   0.110000       12.0110           0
       701 LPSA1    19       ARHM     H5       HCA1     0.900000E-01   1.00800           0
       702 LPSA1    19       ARHM     O5       OC3C61  -0.400000       15.9994           0
       703 LPSA1    19       ARHM     C2       CC3161   0.900000E-01   12.0110           0
       704 LPSA1    19       ARHM     H2       HCA1     0.900000E-01   1.00800           0
       705 LPSA1    19       ARHM     O2       OC301   -0.360000       15.9994           0
       706 LPSA1    19       ARHM     C3       CC3161   0.140000       12.0110           0
       707 LPSA1    19       ARHM     H3       HCA1     0.900000E-01   1.00800           0
       708 LPSA1    19       ARHM     O3       OC311   -0.650000       15.9994           0
       709 LPSA1    19       ARHM     HO3      HCP1     0.420000       1.00800           0
       710 LPSA1    19       ARHM     C4       CC3161   0.140000       12.0110           0
       711 LPSA1    19       ARHM     H4       HCA1     0.900000E-01   1.00800           0
       712 LPSA1    19       ARHM     O4       OC311   -0.650000       15.9994           0
       713 LPSA1    19       ARHM     HO4      HCP1     0.420000       1.00800           0
       714 LPSA1    19       ARHM     C6       CC331   -0.270000       12.0110           0
       715 LPSA1    19       ARHM     H61      HCA3     0.900000E-01   1.00800           0
       716 LPSA1    19       ARHM     H62      HCA3     0.900000E-01   1.00800           0
       717 LPSA1    19       ARHM     H63      HCA3     0.900000E-01   1.00800           0
       718 LPSA1    20       ARHM     C1       CC3162   0.290000       12.0110           0
       719 LPSA1    20       ARHM     H1       HCA1     0.900000E-01   1.00800           0
       720 LPSA1    20       ARHM     C5       CC3163   0.110000       12.0110           0
       721 LPSA1    20       ARHM     H5       HCA1     0.900000E-01   1.00800           0
       722 LPSA1    20       ARHM     O5       OC3C61  -0.400000       15.9994           0
       723 LPSA1    20       ARHM     C2       CC3161   0.900000E-01   12.0110           0
       724 LPSA1    20       ARHM     H2       HCA1     0.900000E-01   1.00800           0
       725 LPSA1    20       ARHM     O2       OC301   -0.360000       15.9994           0
       726 LPSA1    20       ARHM     C3       CC3161   0.900000E-01   12.0110           0
       727 LPSA1    20       ARHM     H3       HCA1     0.900000E-01   1.00800           0
       728 LPSA1    20       ARHM     O3       OC301   -0.360000       15.9994           0
       729 LPSA1    20       ARHM     C4       CC3161   0.140000       12.0110           0
       730 LPSA1    20       ARHM     H4       HCA1     0.900000E-01   1.00800           0
       731 LPSA1    20       ARHM     O4       OC311   -0.650000       15.9994           0
       732 LPSA1    20       ARHM     HO4      HCP1     0.420000       1.00800           0
       733 LPSA1    20       ARHM     C6       CC331   -0.270000       12.0110           0
       734 LPSA1    20       ARHM     H61      HCA3     0.900000E-01   1.00800           0
       735 LPSA1    20       ARHM     H62      HCA3     0.900000E-01   1.00800           0
       736 LPSA1    20       ARHM     H63      HCA3     0.900000E-01   1.00800           0
       737 LPSA1    21       BMANNA   C1       CC3162   0.290000       12.0110           0
       738 LPSA1    21       BMANNA   H1       HCA1     0.900000E-01   1.00800           0
       739 LPSA1    21       BMANNA   C5       CC3163   0.110000       12.0110           0
       740 LPSA1    21       BMANNA   H5       HCA1     0.900000E-01   1.00800           0
       741 LPSA1    21       BMANNA   O5       OC3C61  -0.400000       15.9994           0
       742 LPSA1    21       BMANNA   C2       CC3161   0.700000E-01   12.0110           0
       743 LPSA1    21       BMANNA   H2       HCA1     0.900000E-01   1.00800           0
       744 LPSA1    21       BMANNA   N        NC2D1   -0.470000       14.0070           0
       745 LPSA1    21       BMANNA   HN       HCP1     0.310000       1.00800           0
       746 LPSA1    21       BMANNA   C        CC2O1    0.510000       12.0110           0
       747 LPSA1    21       BMANNA   O        OC2D1   -0.510000       15.9994           0
       748 LPSA1    21       BMANNA   CT       CC331   -0.270000       12.0110           0
       749 LPSA1    21       BMANNA   HT1      HCA3     0.900000E-01   1.00800           0
       750 LPSA1    21       BMANNA   HT2      HCA3     0.900000E-01   1.00800           0
       751 LPSA1    21       BMANNA   HT3      HCA3     0.900000E-01   1.00800           0
       752 LPSA1    21       BMANNA   C3       CC3161   0.140000       12.0110           0
       753 LPSA1    21       BMANNA   H3       HCA1     0.900000E-01   1.00800           0
       754 LPSA1    21       BMANNA   O3       OC311   -0.650000       15.9994           0
       755 LPSA1    21       BMANNA   HO3      HCP1     0.420000       1.00800           0
       756 LPSA1    21       BMANNA   C4       CC3161   0.140000       12.0110           0
       757 LPSA1    21       BMANNA   H4       HCA1     0.900000E-01   1.00800           0
       758 LPSA1    21       BMANNA   O4       OC311   -0.650000       15.9994           0
       759 LPSA1    21       BMANNA   HO4      HCP1     0.420000       1.00800           0
       760 LPSA1    21       BMANNA   C6       CC321    0.500000E-01   12.0110           0
       761 LPSA1    21       BMANNA   H61      HCA2     0.900000E-01   1.00800           0
       762 LPSA1    21       BMANNA   H62      HCA2     0.900000E-01   1.00800           0
       763 LPSA1    21       BMANNA   O6       OC311   -0.650000       15.9994           0
       764 LPSA1    21       BMANNA   HO6      HCP1     0.420000       1.00800           0
       765 LPSA1    22       BGLCNA   C1       CC3162   0.290000       12.0110           0
       766 LPSA1    22       BGLCNA   H1       HCA1     0.900000E-01   1.00800           0
       767 LPSA1    22       BGLCNA   C5       CC3163   0.110000       12.0110           0
       768 LPSA1    22       BGLCNA   H5       HCA1     0.900000E-01   1.00800           0
       769 LPSA1    22       BGLCNA   O5       OC3C61  -0.400000       15.9994           0
       770 LPSA1    22       BGLCNA   C2       CC3161   0.700000E-01   12.0110           0
       771 LPSA1    22       BGLCNA   H2       HCA1     0.900000E-01   1.00800           0
       772 LPSA1    22       BGLCNA   N        NC2D1   -0.470000       14.0070           0
       773 LPSA1    22       BGLCNA   HN       HCP1     0.310000       1.00800           0
       774 LPSA1    22       BGLCNA   C        CC2O1    0.510000       12.0110           0
       775 LPSA1    22       BGLCNA   O        OC2D1   -0.510000       15.9994           0
       776 LPSA1    22       BGLCNA   CT       CC331   -0.270000       12.0110           0
       777 LPSA1    22       BGLCNA   HT1      HCA3     0.900000E-01   1.00800           0
       778 LPSA1    22       BGLCNA   HT2      HCA3     0.900000E-01   1.00800           0
       779 LPSA1    22       BGLCNA   HT3      HCA3     0.900000E-01   1.00800           0
       780 LPSA1    22       BGLCNA   C3       CC3161   0.900000E-01   12.0110           0
       781 LPSA1    22       BGLCNA   H3       HCA1     0.900000E-01   1.00800           0
       782 LPSA1    22       BGLCNA   O3       OC301   -0.360000       15.9994           0
       783 LPSA1    22       BGLCNA   C4       CC3161   0.140000       12.0110           0
       784 LPSA1    22       BGLCNA   H4       HCA1     0.900000E-01   1.00800           0
       785 LPSA1    22       BGLCNA   O4       OC311   -0.650000       15.9994           0
       786 LPSA1    22       BGLCNA   HO4      HCP1     0.420000       1.00800           0
       787 LPSA1    22       BGLCNA   C6       CC321    0.500000E-01   12.0110           0
       788 LPSA1    22       BGLCNA   H61      HCA2     0.900000E-01   1.00800           0
       789 LPSA1    22       BGLCNA   H62      HCA2     0.900000E-01   1.00800           0
       790 LPSA1    22       BGLCNA   O6       OC311   -0.650000       15.9994           0
       791 LPSA1    22       BGLCNA   HO6      HCP1     0.420000       1.00800           0
       792 LPSA1    23       AGAL     C1       CC3162   0.290000       12.0110           0
       793 LPSA1    23       AGAL     H1       HCA1     0.900000E-01   1.00800           0
       794 LPSA1    23       AGAL     C5       CC3163   0.110000       12.0110           0
       795 LPSA1    23       AGAL     H5       HCA1     0.900000E-01   1.00800           0
       796 LPSA1    23       AGAL     O5       OC3C61  -0.400000       15.9994           0
       797 LPSA1    23       AGAL     C2       CC3161   0.900000E-01   12.0110           0
       798 LPSA1    23       AGAL     H2       HCA1     0.900000E-01   1.00800           0
       799 LPSA1    23       AGAL     O2       OC301   -0.360000       15.9994           0
       800 LPSA1    23       AGAL     C3       CC3161   0.140000       12.0110           0
       801 LPSA1    23       AGAL     H3       HCA1     0.900000E-01   1.00800           0
       802 LPSA1    23       AGAL     O3       OC311   -0.650000       15.9994           0
       803 LPSA1    23       AGAL     HO3      HCP1     0.420000       1.00800           0
       804 LPSA1    23       AGAL     C4       CC3161   0.140000       12.0110           0
       805 LPSA1    23       AGAL     H4       HCA1     0.900000E-01   1.00800           0
       806 LPSA1    23       AGAL     O4       OC311   -0.650000       15.9994           0
       807 LPSA1    23       AGAL     HO4      HCP1     0.420000       1.00800           0
       808 LPSA1    23       AGAL     C6       CC321    0.500000E-01   12.0110           0
       809 LPSA1    23       AGAL     H61      HCA2     0.900000E-01   1.00800           0
       810 LPSA1    23       AGAL     H62      HCA2     0.900000E-01   1.00800           0
       811 LPSA1    23       AGAL     O6       OC311   -0.650000       15.9994           0
       812 LPSA1    23       AGAL     HO6      HCP1     0.420000       1.00800           0
       813 LPSA1    24       ARHM     C1       CC3162   0.290000       12.0110           0
       814 LPSA1    24       ARHM     H1       HCA1     0.900000E-01   1.00800           0
       815 LPSA1    24       ARHM     C5       CC3163   0.110000       12.0110           0
       816 LPSA1    24       ARHM     H5       HCA1     0.900000E-01   1.00800           0
       817 LPSA1    24       ARHM     O5       OC3C61  -0.400000       15.9994           0
       818 LPSA1    24       ARHM     C2       CC3161   0.900000E-01   12.0110           0
       819 LPSA1    24       ARHM     H2       HCA1     0.900000E-01   1.00800           0
       820 LPSA1    24       ARHM     O2       OC301   -0.360000       15.9994           0
       821 LPSA1    24       ARHM     C3       CC3161   0.140000       12.0110           0
       822 LPSA1    24       ARHM     H3       HCA1     0.900000E-01   1.00800           0
       823 LPSA1    24       ARHM     O3       OC311   -0.650000       15.9994           0
       824 LPSA1    24       ARHM     HO3      HCP1     0.420000       1.00800           0
       825 LPSA1    24       ARHM     C4       CC3161   0.140000       12.0110           0
       826 LPSA1    24       ARHM     H4       HCA1     0.900000E-01   1.00800           0
       827 LPSA1    24       ARHM     O4       OC311   -0.650000       15.9994           0
       828 LPSA1    24       ARHM     HO4      HCP1     0.420000       1.00800           0
       829 LPSA1    24       ARHM     C6       CC331   -0.270000       12.0110           0
       830 LPSA1    24       ARHM     H61      HCA3     0.900000E-01   1.00800           0
       831 LPSA1    24       ARHM     H62      HCA3     0.900000E-01   1.00800           0
       832 LPSA1    24       ARHM     H63      HCA3     0.900000E-01   1.00800           0
       833 LPSA1    25       ARHM     C1       CC3162   0.290000       12.0110           0
       834 LPSA1    25       ARHM     H1       HCA1     0.900000E-01   1.00800           0
       835 LPSA1    25       ARHM     C5       CC3163   0.110000       12.0110           0
       836 LPSA1    25       ARHM     H5       HCA1     0.900000E-01   1.00800           0
       837 LPSA1    25       ARHM     O5       OC3C61  -0.400000       15.9994           0
       838 LPSA1    25       ARHM     C2       CC3161   0.900000E-01   12.0110           0
       839 LPSA1    25       ARHM     H2       HCA1     0.900000E-01   1.00800           0
       840 LPSA1    25       ARHM     O2       OC301   -0.360000       15.9994           0
       841 LPSA1    25       ARHM     C3       CC3161   0.900000E-01   12.0110           0
       842 LPSA1    25       ARHM     H3       HCA1     0.900000E-01   1.00800           0
       843 LPSA1    25       ARHM     O3       OC301   -0.360000       15.9994           0
       844 LPSA1    25       ARHM     C4       CC3161   0.140000       12.0110           0
       845 LPSA1    25       ARHM     H4       HCA1     0.900000E-01   1.00800           0
       846 LPSA1    25       ARHM     O4       OC311   -0.650000       15.9994           0
       847 LPSA1    25       ARHM     HO4      HCP1     0.420000       1.00800           0
       848 LPSA1    25       ARHM     C6       CC331   -0.270000       12.0110           0
       849 LPSA1    25       ARHM     H61      HCA3     0.900000E-01   1.00800           0
       850 LPSA1    25       ARHM     H62      HCA3     0.900000E-01   1.00800           0
       851 LPSA1    25       ARHM     H63      HCA3     0.900000E-01   1.00800           0
       852 LPSA1    26       BMANNA   C1       CC3162   0.290000       12.0110           0
       853 LPSA1    26       BMANNA   H1       HCA1     0.900000E-01   1.00800           0
       854 LPSA1    26       BMANNA   C5       CC3163   0.110000       12.0110           0
       855 LPSA1    26       BMANNA   H5       HCA1     0.900000E-01   1.00800           0
       856 LPSA1    26       BMANNA   O5       OC3C61  -0.400000       15.9994           0
       857 LPSA1    26       BMANNA   C2       CC3161   0.700000E-01   12.0110           0
       858 LPSA1    26       BMANNA   H2       HCA1     0.900000E-01   1.00800           0
       859 LPSA1    26       BMANNA   N        NC2D1   -0.470000       14.0070           0
       860 LPSA1    26       BMANNA   HN       HCP1     0.310000       1.00800           0
       861 LPSA1    26       BMANNA   C        CC2O1    0.510000       12.0110           0
       862 LPSA1    26       BMANNA   O        OC2D1   -0.510000       15.9994           0
       863 LPSA1    26       BMANNA   CT       CC331   -0.270000       12.0110           0
       864 LPSA1    26       BMANNA   HT1      HCA3     0.900000E-01   1.00800           0
       865 LPSA1    26       BMANNA   HT2      HCA3     0.900000E-01   1.00800           0
       866 LPSA1    26       BMANNA   HT3      HCA3     0.900000E-01   1.00800           0
       867 LPSA1    26       BMANNA   C3       CC3161   0.140000       12.0110           0
       868 LPSA1    26       BMANNA   H3       HCA1     0.900000E-01   1.00800           0
       869 LPSA1    26       BMANNA   O3       OC311   -0.650000       15.9994           0
       870 LPSA1    26       BMANNA   HO3      HCP1     0.420000       1.00800           0
       871 LPSA1    26       BMANNA   C4       CC3161   0.140000       12.0110           0
       872 LPSA1    26       BMANNA   H4       HCA1     0.900000E-01   1.00800           0
       873 LPSA1    26       BMANNA   O4       OC311   -0.650000       15.9994           0
       874 LPSA1    26       BMANNA   HO4      HCP1     0.420000       1.00800           0
       875 LPSA1    26       BMANNA   C6       CC321    0.500000E-01   12.0110           0
       876 LPSA1    26       BMANNA   H61      HCA2     0.900000E-01   1.00800           0
       877 LPSA1    26       BMANNA   H62      HCA2     0.900000E-01   1.00800           0
       878 LPSA1    26       BMANNA   O6       OC311   -0.650000       15.9994           0
       879 LPSA1    26       BMANNA   HO6      HCP1     0.420000       1.00800           0
       880 LPSA1    27       BGLCNA   C1       CC3162   0.290000       12.0110           0
       881 LPSA1    27       BGLCNA   H1       HCA1     0.900000E-01   1.00800           0
       882 LPSA1    27       BGLCNA   C5       CC3163   0.110000       12.0110           0
       883 LPSA1    27       BGLCNA   H5       HCA1     0.900000E-01   1.00800           0
       884 LPSA1    27       BGLCNA   O5       OC3C61  -0.400000       15.9994           0
       885 LPSA1    27       BGLCNA   C2       CC3161   0.700000E-01   12.0110           0
       886 LPSA1    27       BGLCNA   H2       HCA1     0.900000E-01   1.00800           0
       887 LPSA1    27       BGLCNA   N        NC2D1   -0.470000       14.0070           0
       888 LPSA1    27       BGLCNA   HN       HCP1     0.310000       1.00800           0
       889 LPSA1    27       BGLCNA   C        CC2O1    0.510000       12.0110           0
       890 LPSA1    27       BGLCNA   O        OC2D1   -0.510000       15.9994           0
       891 LPSA1    27       BGLCNA   CT       CC331   -0.270000       12.0110           0
       892 LPSA1    27       BGLCNA   HT1      HCA3     0.900000E-01   1.00800           0
       893 LPSA1    27       BGLCNA   HT2      HCA3     0.900000E-01   1.00800           0
       894 LPSA1    27       BGLCNA   HT3      HCA3     0.900000E-01   1.00800           0
       895 LPSA1    27       BGLCNA   C3       CC3161   0.900000E-01   12.0110           0
       896 LPSA1    27       BGLCNA   H3       HCA1     0.900000E-01   1.00800           0
       897 LPSA1    27       BGLCNA   O3       OC301   -0.360000       15.9994           0
       898 LPSA1    27       BGLCNA   C4       CC3161   0.140000       12.0110           0
       899 LPSA1    27       BGLCNA   H4       HCA1     0.900000E-01   1.00800           0
       900 LPSA1    27       BGLCNA   O4       OC311   -0.650000       15.9994           0
       901 LPSA1    27       BGLCNA   HO4      HCP1     0.420000       1.00800           0
       902 LPSA1    27       BGLCNA   C6       CC321    0.500000E-01   12.0110           0
       903 LPSA1    27       BGLCNA   H61      HCA2     0.900000E-01   1.00800           0
       904 LPSA1    27       BGLCNA   H62      HCA2     0.900000E-01   1.00800           0
       905 LPSA1    27       BGLCNA   O6       OC311   -0.650000       15.9994           0
       906 LPSA1    27       BGLCNA   HO6      HCP1     0.420000       1.00800           0
       907 LPSA1    28       AGAL     C1       CC3162   0.290000       12.0110           0
       908 LPSA1    28       AGAL     H1       HCA1     0.900000E-01   1.00800           0
       909 LPSA1    28       AGAL     C5       CC3163   0.110000       12.0110           0
       910 LPSA1    28       AGAL     H5       HCA1     0.900000E-01   1.00800           0
       911 LPSA1    28       AGAL     O5       OC3C61  -0.400000       15.9994           0
       912 LPSA1    28       AGAL     C2       CC3161   0.900000E-01   12.0110           0
       913 LPSA1    28       AGAL     H2       HCA1     0.900000E-01   1.00800           0
       914 LPSA1    28       AGAL     O2       OC301   -0.360000       15.9994           0
       915 LPSA1    28       AGAL     C3       CC3161   0.140000       12.0110           0
       916 LPSA1    28       AGAL     H3       HCA1     0.900000E-01   1.00800           0
       917 LPSA1    28       AGAL     O3       OC311   -0.650000       15.9994           0
       918 LPSA1    28       AGAL     HO3      HCP1     0.420000       1.00800           0
       919 LPSA1    28       AGAL     C4       CC3161   0.140000       12.0110           0
       920 LPSA1    28       AGAL     H4       HCA1     0.900000E-01   1.00800           0
       921 LPSA1    28       AGAL     O4       OC311   -0.650000       15.9994           0
       922 LPSA1    28       AGAL     HO4      HCP1     0.420000       1.00800           0
       923 LPSA1    28       AGAL     C6       CC321    0.500000E-01   12.0110           0
       924 LPSA1    28       AGAL     H61      HCA2     0.900000E-01   1.00800           0
       925 LPSA1    28       AGAL     H62      HCA2     0.900000E-01   1.00800           0
       926 LPSA1    28       AGAL     O6       OC311   -0.650000       15.9994           0
       927 LPSA1    28       AGAL     HO6      HCP1     0.420000       1.00800           0
       928 LPSA1    29       ARHM     C1       CC3162   0.290000       12.0110           0
       929 LPSA1    29       ARHM     H1       HCA1     0.900000E-01   1.00800           0
       930 LPSA1    29       ARHM     C5       CC3163   0.110000       12.0110           0
       931 LPSA1    29       ARHM     H5       HCA1     0.900000E-01   1.00800           0
       932 LPSA1    29       ARHM     O5       OC3C61  -0.400000       15.9994           0
       933 LPSA1    29       ARHM     C2       CC3161   0.900000E-01   12.0110           0
       934 LPSA1    29       ARHM     H2       HCA1     0.900000E-01   1.00800           0
       935 LPSA1    29       ARHM     O2       OC301   -0.360000       15.9994           0
       936 LPSA1    29       ARHM     C3       CC3161   0.140000       12.0110           0
       937 LPSA1    29       ARHM     H3       HCA1     0.900000E-01   1.00800           0
       938 LPSA1    29       ARHM     O3       OC311   -0.650000       15.9994           0
       939 LPSA1    29       ARHM     HO3      HCP1     0.420000       1.00800           0
       940 LPSA1    29       ARHM     C4       CC3161   0.140000       12.0110           0
       941 LPSA1    29       ARHM     H4       HCA1     0.900000E-01   1.00800           0
       942 LPSA1    29       ARHM     O4       OC311   -0.650000       15.9994           0
       943 LPSA1    29       ARHM     HO4      HCP1     0.420000       1.00800           0
       944 LPSA1    29       ARHM     C6       CC331   -0.270000       12.0110           0
       945 LPSA1    29       ARHM     H61      HCA3     0.900000E-01   1.00800           0
       946 LPSA1    29       ARHM     H62      HCA3     0.900000E-01   1.00800           0
       947 LPSA1    29       ARHM     H63      HCA3     0.900000E-01   1.00800           0
       948 LPSA1    30       ARHM     C1       CC3162   0.290000       12.0110           0
       949 LPSA1    30       ARHM     H1       HCA1     0.900000E-01   1.00800           0
       950 LPSA1    30       ARHM     C5       CC3163   0.110000       12.0110           0
       951 LPSA1    30       ARHM     H5       HCA1     0.900000E-01   1.00800           0
       952 LPSA1    30       ARHM     O5       OC3C61  -0.400000       15.9994           0
       953 LPSA1    30       ARHM     C2       CC3161   0.900000E-01   12.0110           0
       954 LPSA1    30       ARHM     H2       HCA1     0.900000E-01   1.00800           0
       955 LPSA1    30       ARHM     O2       OC301   -0.360000       15.9994           0
       956 LPSA1    30       ARHM     C3       CC3161   0.900000E-01   12.0110           0
       957 LPSA1    30       ARHM     H3       HCA1     0.900000E-01   1.00800           0
       958 LPSA1    30       ARHM     O3       OC301   -0.360000       15.9994           0
       959 LPSA1    30       ARHM     C4       CC3161   0.140000       12.0110           0
       960 LPSA1    30       ARHM     H4       HCA1     0.900000E-01   1.00800           0
       961 LPSA1    30       ARHM     O4       OC311   -0.650000       15.9994           0
       962 LPSA1    30       ARHM     HO4      HCP1     0.420000       1.00800           0
       963 LPSA1    30       ARHM     C6       CC331   -0.270000       12.0110           0
       964 LPSA1    30       ARHM     H61      HCA3     0.900000E-01   1.00800           0
       965 LPSA1    30       ARHM     H62      HCA3     0.900000E-01   1.00800           0
       966 LPSA1    30       ARHM     H63      HCA3     0.900000E-01   1.00800           0
       967 LPSA1    31       BMANNA   C1       CC3162   0.290000       12.0110           0
       968 LPSA1    31       BMANNA   H1       HCA1     0.900000E-01   1.00800           0
       969 LPSA1    31       BMANNA   C5       CC3163   0.110000       12.0110           0
       970 LPSA1    31       BMANNA   H5       HCA1     0.900000E-01   1.00800           0
       971 LPSA1    31       BMANNA   O5       OC3C61  -0.400000       15.9994           0
       972 LPSA1    31       BMANNA   C2       CC3161   0.700000E-01   12.0110           0
       973 LPSA1    31       BMANNA   H2       HCA1     0.900000E-01   1.00800           0
       974 LPSA1    31       BMANNA   N        NC2D1   -0.470000       14.0070           0
       975 LPSA1    31       BMANNA   HN       HCP1     0.310000       1.00800           0
       976 LPSA1    31       BMANNA   C        CC2O1    0.510000       12.0110           0
       977 LPSA1    31       BMANNA   O        OC2D1   -0.510000       15.9994           0
       978 LPSA1    31       BMANNA   CT       CC331   -0.270000       12.0110           0
       979 LPSA1    31       BMANNA   HT1      HCA3     0.900000E-01   1.00800           0
       980 LPSA1    31       BMANNA   HT2      HCA3     0.900000E-01   1.00800           0
       981 LPSA1    31       BMANNA   HT3      HCA3     0.900000E-01   1.00800           0
       982 LPSA1    31       BMANNA   C3       CC3161   0.140000       12.0110           0
       983 LPSA1    31       BMANNA   H3       HCA1     0.900000E-01   1.00800           0
       984 LPSA1    31       BMANNA   O3       OC311   -0.650000       15.9994           0
       985 LPSA1    31       BMANNA   HO3      HCP1     0.420000       1.00800           0
       986 LPSA1    31       BMANNA   C4       CC3161   0.140000       12.0110           0
       987 LPSA1    31       BMANNA   H4       HCA1     0.900000E-01   1.00800           0
       988 LPSA1    31       BMANNA   O4       OC311   -0.650000       15.9994           0
       989 LPSA1    31       BMANNA   HO4      HCP1     0.420000       1.00800           0
       990 LPSA1    31       BMANNA   C6       CC321    0.500000E-01   12.0110           0
       991 LPSA1    31       BMANNA   H61      HCA2     0.900000E-01   1.00800           0
       992 LPSA1    31       BMANNA   H62      HCA2     0.900000E-01   1.00800           0
       993 LPSA1    31       BMANNA   O6       OC311   -0.650000       15.9994           0
       994 LPSA1    31       BMANNA   HO6      HCP1     0.420000       1.00800           0
       995 LPSA1    32       BGLCNA   C1       CC3162   0.290000       12.0110           0
       996 LPSA1    32       BGLCNA   H1       HCA1     0.900000E-01   1.00800           0
       997 LPSA1    32       BGLCNA   C5       CC3163   0.110000       12.0110           0
       998 LPSA1    32       BGLCNA   H5       HCA1     0.900000E-01   1.00800           0
       999 LPSA1    32       BGLCNA   O5       OC3C61  -0.400000       15.9994           0
      1000 LPSA1    32       BGLCNA   C2       CC3161   0.700000E-01   12.0110           0
      1001 LPSA1    32       BGLCNA   H2       HCA1     0.900000E-01   1.00800           0
      1002 LPSA1    32       BGLCNA   N        NC2D1   -0.470000       14.0070           0
      1003 LPSA1    32       BGLCNA   HN       HCP1     0.310000       1.00800           0
      1004 LPSA1    32       BGLCNA   C        CC2O1    0.510000       12.0110           0
      1005 LPSA1    32       BGLCNA   O        OC2D1   -0.510000       15.9994           0
      1006 LPSA1    32       BGLCNA   CT       CC331   -0.270000       12.0110           0
      1007 LPSA1    32       BGLCNA   HT1      HCA3     0.900000E-01   1.00800           0
      1008 LPSA1    32       BGLCNA   HT2      HCA3     0.900000E-01   1.00800           0
      1009 LPSA1    32       BGLCNA   HT3      HCA3     0.900000E-01   1.00800           0
      1010 LPSA1    32       BGLCNA   C3       CC3161   0.900000E-01   12.0110           0
      1011 LPSA1    32       BGLCNA   H3       HCA1     0.900000E-01   1.00800           0
      1012 LPSA1    32       BGLCNA   O3       OC301   -0.360000       15.9994           0
      1013 LPSA1    32       BGLCNA   C4       CC3161   0.140000       12.0110           0
      1014 LPSA1    32       BGLCNA   H4       HCA1     0.900000E-01   1.00800           0
      1015 LPSA1    32       BGLCNA   O4       OC311   -0.650000       15.9994           0
      1016 LPSA1    32       BGLCNA   HO4      HCP1     0.420000       1.00800           0
      1017 LPSA1    32       BGLCNA   C6       CC321    0.500000E-01   12.0110           0
      1018 LPSA1    32       BGLCNA   H61      HCA2     0.900000E-01   1.00800           0
      1019 LPSA1    32       BGLCNA   H62      HCA2     0.900000E-01   1.00800           0
      1020 LPSA1    32       BGLCNA   O6       OC311   -0.650000       15.9994           0
      1021 LPSA1    32       BGLCNA   HO6      HCP1     0.420000       1.00800           0
      1022 LPSA1    33       AGAL     C1       CC3162   0.290000       12.0110           0
      1023 LPSA1    33       AGAL     H1       HCA1     0.900000E-01   1.00800           0
      1024 LPSA1    33       AGAL     C5       CC3163   0.110000       12.0110           0
      1025 LPSA1    33       AGAL     H5       HCA1     0.900000E-01   1.00800           0
      1026 LPSA1    33       AGAL     O5       OC3C61  -0.400000       15.9994           0
      1027 LPSA1    33       AGAL     C2       CC3161   0.900000E-01   12.0110           0
      1028 LPSA1    33       AGAL     H2       HCA1     0.900000E-01   1.00800           0
      1029 LPSA1    33       AGAL     O2       OC301   -0.360000       15.9994           0
      1030 LPSA1    33       AGAL     C3       CC3161   0.140000       12.0110           0
      1031 LPSA1    33       AGAL     H3       HCA1     0.900000E-01   1.00800           0
      1032 LPSA1    33       AGAL     O3       OC311   -0.650000       15.9994           0
      1033 LPSA1    33       AGAL     HO3      HCP1     0.420000       1.00800           0
      1034 LPSA1    33       AGAL     C4       CC3161   0.140000       12.0110           0
      1035 LPSA1    33       AGAL     H4       HCA1     0.900000E-01   1.00800           0
      1036 LPSA1    33       AGAL     O4       OC311   -0.650000       15.9994           0
      1037 LPSA1    33       AGAL     HO4      HCP1     0.420000       1.00800           0
      1038 LPSA1    33       AGAL     C6       CC321    0.500000E-01   12.0110           0
      1039 LPSA1    33       AGAL     H61      HCA2     0.900000E-01   1.00800           0
      1040 LPSA1    33       AGAL     H62      HCA2     0.900000E-01   1.00800           0
      1041 LPSA1    33       AGAL     O6       OC311   -0.650000       15.9994           0
      1042 LPSA1    33       AGAL     HO6      HCP1     0.420000       1.00800           0
      1043 LPSA1    34       ARHM     C1       CC3162   0.290000       12.0110           0
      1044 LPSA1    34       ARHM     H1       HCA1     0.900000E-01   1.00800           0
      1045 LPSA1    34       ARHM     C5       CC3163   0.110000       12.0110           0
      1046 LPSA1    34       ARHM     H5       HCA1     0.900000E-01   1.00800           0
      1047 LPSA1    34       ARHM     O5       OC3C61  -0.400000       15.9994           0
      1048 LPSA1    34       ARHM     C2       CC3161   0.900000E-01   12.0110           0
      1049 LPSA1    34       ARHM     H2       HCA1     0.900000E-01   1.00800           0
      1050 LPSA1    34       ARHM     O2       OC301   -0.360000       15.9994           0
      1051 LPSA1    34       ARHM     C3       CC3161   0.140000       12.0110           0
      1052 LPSA1    34       ARHM     H3       HCA1     0.900000E-01   1.00800           0
      1053 LPSA1    34       ARHM     O3       OC311   -0.650000       15.9994           0
      1054 LPSA1    34       ARHM     HO3      HCP1     0.420000       1.00800           0
      1055 LPSA1    34       ARHM     C4       CC3161   0.140000       12.0110           0
      1056 LPSA1    34       ARHM     H4       HCA1     0.900000E-01   1.00800           0
      1057 LPSA1    34       ARHM     O4       OC311   -0.650000       15.9994           0
      1058 LPSA1    34       ARHM     HO4      HCP1     0.420000       1.00800           0
      1059 LPSA1    34       ARHM     C6       CC331   -0.270000       12.0110           0
      1060 LPSA1    34       ARHM     H61      HCA3     0.900000E-01   1.00800           0
      1061 LPSA1    34       ARHM     H62      HCA3     0.900000E-01   1.00800           0
      1062 LPSA1    34       ARHM     H63      HCA3     0.900000E-01   1.00800           0
      1063 LPSA1    35       ARHM     C1       CC3162   0.290000       12.0110           0
      1064 LPSA1    35       ARHM     H1       HCA1     0.900000E-01   1.00800           0
      1065 LPSA1    35       ARHM     C5       CC3163   0.110000       12.0110           0
      1066 LPSA1    35       ARHM     H5       HCA1     0.900000E-01   1.00800           0
      1067 LPSA1    35       ARHM     O5       OC3C61  -0.400000       15.9994           0
      1068 LPSA1    35       ARHM     C2       CC3161   0.900000E-01   12.0110           0
      1069 LPSA1    35       ARHM     H2       HCA1     0.900000E-01   1.00800           0
      1070 LPSA1    35       ARHM     O2       OC301   -0.360000       15.9994           0
      1071 LPSA1    35       ARHM     C3       CC3161   0.140000       12.0110           0
      1072 LPSA1    35       ARHM     H3       HCA1     0.900000E-01   1.00800           0
      1073 LPSA1    35       ARHM     O3       OC311   -0.650000       15.9994           0
      1074 LPSA1    35       ARHM     HO3      HCP1     0.420000       1.00800           0
      1075 LPSA1    35       ARHM     C4       CC3161   0.140000       12.0110           0
      1076 LPSA1    35       ARHM     H4       HCA1     0.900000E-01   1.00800           0
      1077 LPSA1    35       ARHM     O4       OC311   -0.650000       15.9994           0
      1078 LPSA1    35       ARHM     HO4      HCP1     0.420000       1.00800           0
      1079 LPSA1    35       ARHM     C6       CC331   -0.270000       12.0110           0
      1080 LPSA1    35       ARHM     H61      HCA3     0.900000E-01   1.00800           0
      1081 LPSA1    35       ARHM     H62      HCA3     0.900000E-01   1.00800           0
      1082 LPSA1    35       ARHM     H63      HCA3     0.900000E-01   1.00800           0
      1083 LPSA1    36       BMANNA   C1       CC3162   0.290000       12.0110           0
      1084 LPSA1    36       BMANNA   H1       HCA1     0.900000E-01   1.00800           0
      1085 LPSA1    36       BMANNA   C5       CC3163   0.110000       12.0110           0
      1086 LPSA1    36       BMANNA   H5       HCA1     0.900000E-01   1.00800           0
      1087 LPSA1    36       BMANNA   O5       OC3C61  -0.400000       15.9994           0
      1088 LPSA1    36       BMANNA   C2       CC3161   0.700000E-01   12.0110           0
      1089 LPSA1    36       BMANNA   H2       HCA1     0.900000E-01   1.00800           0
      1090 LPSA1    36       BMANNA   N        NC2D1   -0.470000       14.0070           0
      1091 LPSA1    36       BMANNA   HN       HCP1     0.310000       1.00800           0
      1092 LPSA1    36       BMANNA   C        CC2O1    0.510000       12.0110           0
      1093 LPSA1    36       BMANNA   O        OC2D1   -0.510000       15.9994           0
      1094 LPSA1    36       BMANNA   CT       CC331   -0.270000       12.0110           0
      1095 LPSA1    36       BMANNA   HT1      HCA3     0.900000E-01   1.00800           0
      1096 LPSA1    36       BMANNA   HT2      HCA3     0.900000E-01   1.00800           0
      1097 LPSA1    36       BMANNA   HT3      HCA3     0.900000E-01   1.00800           0
      1098 LPSA1    36       BMANNA   C3       CC3161   0.140000       12.0110           0
      1099 LPSA1    36       BMANNA   H3       HCA1     0.900000E-01   1.00800           0
      1100 LPSA1    36       BMANNA   O3       OC311   -0.650000       15.9994           0
      1101 LPSA1    36       BMANNA   HO3      HCP1     0.420000       1.00800           0
      1102 LPSA1    36       BMANNA   C4       CC3161   0.140000       12.0110           0
      1103 LPSA1    36       BMANNA   H4       HCA1     0.900000E-01   1.00800           0
      1104 LPSA1    36       BMANNA   O4       OC311   -0.650000       15.9994           0
      1105 LPSA1    36       BMANNA   HO4      HCP1     0.420000       1.00800           0
      1106 LPSA1    36       BMANNA   C6       CC321    0.500000E-01   12.0110           0
      1107 LPSA1    36       BMANNA   H61      HCA2     0.900000E-01   1.00800           0
      1108 LPSA1    36       BMANNA   H62      HCA2     0.900000E-01   1.00800           0
      1109 LPSA1    36       BMANNA   O6       OC311   -0.650000       15.9994           0
      1110 LPSA1    36       BMANNA   HO6      HCP1     0.420000       1.00800           0
      1111 LPSA2    1        ECLIPA   HB6S     HCA2     0.900000E-01   1.00800           0
      1112 LPSA2    1        ECLIPA   OB6      OC301   -0.360000       15.9994           0
      1113 LPSA2    1        ECLIPA   CB6      CC321     0.00000       12.0110           0
      1114 LPSA2    1        ECLIPA   HB6R     HCA2     0.900000E-01   1.00800           0
      1115 LPSA2    1        ECLIPA   CB5      CC3163   0.110000       12.0110           0
      1116 LPSA2    1        ECLIPA   OB5      OC3C61  -0.400000       15.9994           0
      1117 LPSA2    1        ECLIPA   HB5      HCA1     0.900000E-01   1.00800           0
      1118 LPSA2    1        ECLIPA   CB1      CC3162   0.290000       12.0110           0
      1119 LPSA2    1        ECLIPA   HB1      HCA1     0.900000E-01   1.00800           0
      1120 LPSA2    1        ECLIPA   OA6      OC301   -0.360000       15.9994           0
      1121 LPSA2    1        ECLIPA   CA6      CC321     0.00000       12.0110           0
      1122 LPSA2    1        ECLIPA   HA6R     HCA2     0.900000E-01   1.00800           0
      1123 LPSA2    1        ECLIPA   HA6S     HCA2     0.900000E-01   1.00800           0
      1124 LPSA2    1        ECLIPA   CB4      CC3161  -0.900000E-01   12.0110           0
      1125 LPSA2    1        ECLIPA   HB4      HCA1     0.900000E-01   1.00800           0
      1126 LPSA2    1        ECLIPA   OB4      OC30P   -0.400000       15.9994           0
      1127 LPSA2    1        ECLIPA   PB       PC        1.10000       30.9740           0
      1128 LPSA2    1        ECLIPA   OPB4     OC2DP   -0.900000       15.9994           0
      1129 LPSA2    1        ECLIPA   OPB3     OC2DP   -0.900000       15.9994           0
      1130 LPSA2    1        ECLIPA   OPB2     OC2DP   -0.900000       15.9994           0
      1131 LPSA2    1        ECLIPA   CB3      CC3161   0.170000       12.0110           0
      1132 LPSA2    1        ECLIPA   OB3      OC301   -0.490000       15.9994           0
      1133 LPSA2    1        ECLIPA   HB3      HCA1     0.900000E-01   1.00800           0
      1134 LPSA2    1        ECLIPA   C71      CL       0.900000       12.0110           0
      1135 LPSA2    1        ECLIPA   O71      OBL     -0.630000       15.9994           0
      1136 LPSA2    1        ECLIPA   C72      CTL2    -0.220000       12.0110           0
      1137 LPSA2    1        ECLIPA   H72R     HAL2     0.900000E-01   1.00800           0
      1138 LPSA2    1        ECLIPA   H72S     HAL2     0.900000E-01   1.00800           0
      1139 LPSA2    1        ECLIPA   CB2      CC3161   0.700000E-01   12.0110           0
      1140 LPSA2    1        ECLIPA   HB2      HCA1     0.900000E-01   1.00800           0
      1141 LPSA2    1        ECLIPA   NB2      NC2D1   -0.470000       14.0070           0
      1142 LPSA2    1        ECLIPA   HNB2     HCP1     0.310000       1.00800           0
      1143 LPSA2    1        ECLIPA   CA4      CC3161   0.140000       12.0110           0
      1144 LPSA2    1        ECLIPA   HA4      HCA1     0.900000E-01   1.00800           0
      1145 LPSA2    1        ECLIPA   OA4      OC311   -0.650000       15.9994           0
      1146 LPSA2    1        ECLIPA   HOA4     HCP1     0.420000       1.00800           0
      1147 LPSA2    1        ECLIPA   CA5      CC3163   0.110000       12.0110           0
      1148 LPSA2    1        ECLIPA   HA5      HCA1     0.900000E-01   1.00800           0
      1149 LPSA2    1        ECLIPA   OA5      OC3C61  -0.400000       15.9994           0
      1150 LPSA2    1        ECLIPA   CA1      CC3162   0.110000       12.0110           0
      1151 LPSA2    1        ECLIPA   HA1      HCA1     0.900000E-01   1.00800           0
      1152 LPSA2    1        ECLIPA   OA1      OC30P   -0.400000       15.9994           0
      1153 LPSA2    1        ECLIPA   OPA2     OC2DP   -0.900000       15.9994           0
      1154 LPSA2    1        ECLIPA   OPA3     OC2DP   -0.900000       15.9994           0
      1155 LPSA2    1        ECLIPA   OPA4     OC2DP   -0.900000       15.9994           0
      1156 LPSA2    1        ECLIPA   PA       PC        1.10000       30.9740           0
      1157 LPSA2    1        ECLIPA   CA3      CC3161   0.170000       12.0110           0
      1158 LPSA2    1        ECLIPA   HA3      HCA1     0.900000E-01   1.00800           0
      1159 LPSA2    1        ECLIPA   OA3      OC301   -0.490000       15.9994           0
      1160 LPSA2    1        ECLIPA   C31      CL       0.900000       12.0110           0
      1161 LPSA2    1        ECLIPA   O31      OBL     -0.630000       15.9994           0
      1162 LPSA2    1        ECLIPA   C32      CTL2    -0.220000       12.0110           0
      1163 LPSA2    1        ECLIPA   H32R     HAL2     0.900000E-01   1.00800           0
      1164 LPSA2    1        ECLIPA   H32S     HAL2     0.900000E-01   1.00800           0
      1165 LPSA2    1        ECLIPA   CA2      CC3161   0.700000E-01   12.0110           0
      1166 LPSA2    1        ECLIPA   HA2      HCA1     0.900000E-01   1.00800           0
      1167 LPSA2    1        ECLIPA   NA2      NC2D1   -0.470000       14.0070           0
      1168 LPSA2    1        ECLIPA   HNA2     HCP1     0.310000       1.00800           0
      1169 LPSA2    1        ECLIPA   C73      CTL1     0.170000       12.0110           0
      1170 LPSA2    1        ECLIPA   H73R     HAL1     0.900000E-01   1.00800           0
      1171 LPSA2    1        ECLIPA   O73      OSL     -0.490000       15.9994           0
      1172 LPSA2    1        ECLIPA   C81      CL       0.900000       12.0110           0
      1173 LPSA2    1        ECLIPA   O81      OBL     -0.630000       15.9994           0
      1174 LPSA2    1        ECLIPA   C82      CTL2    -0.220000       12.0110           0
      1175 LPSA2    1        ECLIPA   H82R     HAL2     0.900000E-01   1.00800           0
      1176 LPSA2    1        ECLIPA   H82S     HAL2     0.900000E-01   1.00800           0
      1177 LPSA2    1        ECLIPA   C83      CTL2    -0.180000       12.0110           0
      1178 LPSA2    1        ECLIPA   H83R     HAL2     0.900000E-01   1.00800           0
      1179 LPSA2    1        ECLIPA   H83S     HAL2     0.900000E-01   1.00800           0
      1180 LPSA2    1        ECLIPA   C84      CTL2    -0.180000       12.0110           0
      1181 LPSA2    1        ECLIPA   H84R     HAL2     0.900000E-01   1.00800           0
      1182 LPSA2    1        ECLIPA   H84S     HAL2     0.900000E-01   1.00800           0
      1183 LPSA2    1        ECLIPA   C85      CTL2    -0.180000       12.0110           0
      1184 LPSA2    1        ECLIPA   H85R     HAL2     0.900000E-01   1.00800           0
      1185 LPSA2    1        ECLIPA   H85S     HAL2     0.900000E-01   1.00800           0
      1186 LPSA2    1        ECLIPA   C86      CTL2    -0.180000       12.0110           0
      1187 LPSA2    1        ECLIPA   H86R     HAL2     0.900000E-01   1.00800           0
      1188 LPSA2    1        ECLIPA   H86S     HAL2     0.900000E-01   1.00800           0
      1189 LPSA2    1        ECLIPA   C87      CTL2    -0.180000       12.0110           0
      1190 LPSA2    1        ECLIPA   H87R     HAL2     0.900000E-01   1.00800           0
      1191 LPSA2    1        ECLIPA   H87S     HAL2     0.900000E-01   1.00800           0
      1192 LPSA2    1        ECLIPA   C88      CTL2    -0.180000       12.0110           0
      1193 LPSA2    1        ECLIPA   H88R     HAL2     0.900000E-01   1.00800           0
      1194 LPSA2    1        ECLIPA   H88S     HAL2     0.900000E-01   1.00800           0
      1195 LPSA2    1        ECLIPA   C89      CTL2    -0.180000       12.0110           0
      1196 LPSA2    1        ECLIPA   H89R     HAL2     0.900000E-01   1.00800           0
      1197 LPSA2    1        ECLIPA   H89S     HAL2     0.900000E-01   1.00800           0
      1198 LPSA2    1        ECLIPA   C810     CTL2    -0.180000       12.0110           0
      1199 LPSA2    1        ECLIPA   H810R    HAL2     0.900000E-01   1.00800           0
      1200 LPSA2    1        ECLIPA   H810S    HAL2     0.900000E-01   1.00800           0
      1201 LPSA2    1        ECLIPA   C811     CTL2    -0.180000       12.0110           0
      1202 LPSA2    1        ECLIPA   H811R    HAL2     0.900000E-01   1.00800           0
      1203 LPSA2    1        ECLIPA   H811S    HAL2     0.900000E-01   1.00800           0
      1204 LPSA2    1        ECLIPA   C812     CTL2    -0.180000       12.0110           0
      1205 LPSA2    1        ECLIPA   H812R    HAL2     0.900000E-01   1.00800           0
      1206 LPSA2    1        ECLIPA   H812S    HAL2     0.900000E-01   1.00800           0
      1207 LPSA2    1        ECLIPA   C813     CTL2    -0.180000       12.0110           0
      1208 LPSA2    1        ECLIPA   H813R    HAL2     0.900000E-01   1.00800           0
      1209 LPSA2    1        ECLIPA   H813S    HAL2     0.900000E-01   1.00800           0
      1210 LPSA2    1        ECLIPA   C814     CTL3    -0.270000       12.0110           0
      1211 LPSA2    1        ECLIPA   H814R    HAL3     0.900000E-01   1.00800           0
      1212 LPSA2    1        ECLIPA   H814S    HAL3     0.900000E-01   1.00800           0
      1213 LPSA2    1        ECLIPA   H814T    HAL3     0.900000E-01   1.00800           0
      1214 LPSA2    1        ECLIPA   C74      CTL2    -0.180000       12.0110           0
      1215 LPSA2    1        ECLIPA   H74R     HAL2     0.900000E-01   1.00800           0
      1216 LPSA2    1        ECLIPA   H74S     HAL2     0.900000E-01   1.00800           0
      1217 LPSA2    1        ECLIPA   C75      CTL2    -0.180000       12.0110           0
      1218 LPSA2    1        ECLIPA   H75R     HAL2     0.900000E-01   1.00800           0
      1219 LPSA2    1        ECLIPA   H75S     HAL2     0.900000E-01   1.00800           0
      1220 LPSA2    1        ECLIPA   C76      CTL2    -0.180000       12.0110           0
      1221 LPSA2    1        ECLIPA   H76R     HAL2     0.900000E-01   1.00800           0
      1222 LPSA2    1        ECLIPA   H76S     HAL2     0.900000E-01   1.00800           0
      1223 LPSA2    1        ECLIPA   C77      CTL2    -0.180000       12.0110           0
      1224 LPSA2    1        ECLIPA   H77R     HAL2     0.900000E-01   1.00800           0
      1225 LPSA2    1        ECLIPA   H77S     HAL2     0.900000E-01   1.00800           0
      1226 LPSA2    1        ECLIPA   C78      CTL2    -0.180000       12.0110           0
      1227 LPSA2    1        ECLIPA   H78R     HAL2     0.900000E-01   1.00800           0
      1228 LPSA2    1        ECLIPA   H78S     HAL2     0.900000E-01   1.00800           0
      1229 LPSA2    1        ECLIPA   C79      CTL2    -0.180000       12.0110           0
      1230 LPSA2    1        ECLIPA   H79R     HAL2     0.900000E-01   1.00800           0
      1231 LPSA2    1        ECLIPA   H79S     HAL2     0.900000E-01   1.00800           0
      1232 LPSA2    1        ECLIPA   C710     CTL2    -0.180000       12.0110           0
      1233 LPSA2    1        ECLIPA   H710R    HAL2     0.900000E-01   1.00800           0
      1234 LPSA2    1        ECLIPA   H710S    HAL2     0.900000E-01   1.00800           0
      1235 LPSA2    1        ECLIPA   C711     CTL2    -0.180000       12.0110           0
      1236 LPSA2    1        ECLIPA   H711R    HAL2     0.900000E-01   1.00800           0
      1237 LPSA2    1        ECLIPA   H711S    HAL2     0.900000E-01   1.00800           0
      1238 LPSA2    1        ECLIPA   C712     CTL2    -0.180000       12.0110           0
      1239 LPSA2    1        ECLIPA   H712R    HAL2     0.900000E-01   1.00800           0
      1240 LPSA2    1        ECLIPA   H712S    HAL2     0.900000E-01   1.00800           0
      1241 LPSA2    1        ECLIPA   C713     CTL2    -0.180000       12.0110           0
      1242 LPSA2    1        ECLIPA   H713R    HAL2     0.900000E-01   1.00800           0
      1243 LPSA2    1        ECLIPA   H713S    HAL2     0.900000E-01   1.00800           0
      1244 LPSA2    1        ECLIPA   C714     CTL3    -0.270000       12.0110           0
      1245 LPSA2    1        ECLIPA   H714R    HAL3     0.900000E-01   1.00800           0
      1246 LPSA2    1        ECLIPA   H714S    HAL3     0.900000E-01   1.00800           0
      1247 LPSA2    1        ECLIPA   H714T    HAL3     0.900000E-01   1.00800           0
      1248 LPSA2    1        ECLIPA   C51      CC2O1    0.550000       12.0110           0
      1249 LPSA2    1        ECLIPA   O51      OC2D1   -0.550000       15.9994           0
      1250 LPSA2    1        ECLIPA   C52      CTL2    -0.180000       12.0110           0
      1251 LPSA2    1        ECLIPA   H52R     HAL2     0.900000E-01   1.00800           0
      1252 LPSA2    1        ECLIPA   H52S     HAL2     0.900000E-01   1.00800           0
      1253 LPSA2    1        ECLIPA   C53      CTL1     0.170000       12.0110           0
      1254 LPSA2    1        ECLIPA   H53R     HAL1     0.900000E-01   1.00800           0
      1255 LPSA2    1        ECLIPA   O53      OSL     -0.490000       15.9994           0
      1256 LPSA2    1        ECLIPA   C61      CL       0.900000       12.0110           0
      1257 LPSA2    1        ECLIPA   O61      OBL     -0.630000       15.9994           0
      1258 LPSA2    1        ECLIPA   C62      CTL2    -0.220000       12.0110           0
      1259 LPSA2    1        ECLIPA   H62R     HAL2     0.900000E-01   1.00800           0
      1260 LPSA2    1        ECLIPA   H62S     HAL2     0.900000E-01   1.00800           0
      1261 LPSA2    1        ECLIPA   C63      CTL2    -0.180000       12.0110           0
      1262 LPSA2    1        ECLIPA   H63R     HAL2     0.900000E-01   1.00800           0
      1263 LPSA2    1        ECLIPA   H63S     HAL2     0.900000E-01   1.00800           0
      1264 LPSA2    1        ECLIPA   C64      CTL2    -0.180000       12.0110           0
      1265 LPSA2    1        ECLIPA   H64R     HAL2     0.900000E-01   1.00800           0
      1266 LPSA2    1        ECLIPA   H64S     HAL2     0.900000E-01   1.00800           0
      1267 LPSA2    1        ECLIPA   C65      CTL2    -0.180000       12.0110           0
      1268 LPSA2    1        ECLIPA   H65R     HAL2     0.900000E-01   1.00800           0
      1269 LPSA2    1        ECLIPA   H65S     HAL2     0.900000E-01   1.00800           0
      1270 LPSA2    1        ECLIPA   C66      CTL2    -0.180000       12.0110           0
      1271 LPSA2    1        ECLIPA   H66R     HAL2     0.900000E-01   1.00800           0
      1272 LPSA2    1        ECLIPA   H66S     HAL2     0.900000E-01   1.00800           0
      1273 LPSA2    1        ECLIPA   C67      CTL2    -0.180000       12.0110           0
      1274 LPSA2    1        ECLIPA   H67R     HAL2     0.900000E-01   1.00800           0
      1275 LPSA2    1        ECLIPA   H67S     HAL2     0.900000E-01   1.00800           0
      1276 LPSA2    1        ECLIPA   C68      CTL2    -0.180000       12.0110           0
      1277 LPSA2    1        ECLIPA   H68R     HAL2     0.900000E-01   1.00800           0
      1278 LPSA2    1        ECLIPA   H68S     HAL2     0.900000E-01   1.00800           0
      1279 LPSA2    1        ECLIPA   C69      CTL2    -0.180000       12.0110           0
      1280 LPSA2    1        ECLIPA   H69R     HAL2     0.900000E-01   1.00800           0
      1281 LPSA2    1        ECLIPA   H69S     HAL2     0.900000E-01   1.00800           0
      1282 LPSA2    1        ECLIPA   C610     CTL2    -0.180000       12.0110           0
      1283 LPSA2    1        ECLIPA   H610R    HAL2     0.900000E-01   1.00800           0
      1284 LPSA2    1        ECLIPA   H610S    HAL2     0.900000E-01   1.00800           0
      1285 LPSA2    1        ECLIPA   C611     CTL2    -0.180000       12.0110           0
      1286 LPSA2    1        ECLIPA   H611R    HAL2     0.900000E-01   1.00800           0
      1287 LPSA2    1        ECLIPA   H611S    HAL2     0.900000E-01   1.00800           0
      1288 LPSA2    1        ECLIPA   C612     CTL3    -0.270000       12.0110           0
      1289 LPSA2    1        ECLIPA   H612R    HAL3     0.900000E-01   1.00800           0
      1290 LPSA2    1        ECLIPA   H612S    HAL3     0.900000E-01   1.00800           0
      1291 LPSA2    1        ECLIPA   H612T    HAL3     0.900000E-01   1.00800           0
      1292 LPSA2    1        ECLIPA   C54      CTL2    -0.180000       12.0110           0
      1293 LPSA2    1        ECLIPA   H54R     HAL2     0.900000E-01   1.00800           0
      1294 LPSA2    1        ECLIPA   H54S     HAL2     0.900000E-01   1.00800           0
      1295 LPSA2    1        ECLIPA   C55      CTL2    -0.180000       12.0110           0
      1296 LPSA2    1        ECLIPA   H55R     HAL2     0.900000E-01   1.00800           0
      1297 LPSA2    1        ECLIPA   H55S     HAL2     0.900000E-01   1.00800           0
      1298 LPSA2    1        ECLIPA   C56      CTL2    -0.180000       12.0110           0
      1299 LPSA2    1        ECLIPA   H56R     HAL2     0.900000E-01   1.00800           0
      1300 LPSA2    1        ECLIPA   H56S     HAL2     0.900000E-01   1.00800           0
      1301 LPSA2    1        ECLIPA   C57      CTL2    -0.180000       12.0110           0
      1302 LPSA2    1        ECLIPA   H57R     HAL2     0.900000E-01   1.00800           0
      1303 LPSA2    1        ECLIPA   H57S     HAL2     0.900000E-01   1.00800           0
      1304 LPSA2    1        ECLIPA   C58      CTL2    -0.180000       12.0110           0
      1305 LPSA2    1        ECLIPA   H58R     HAL2     0.900000E-01   1.00800           0
      1306 LPSA2    1        ECLIPA   H58S     HAL2     0.900000E-01   1.00800           0
      1307 LPSA2    1        ECLIPA   C59      CTL2    -0.180000       12.0110           0
      1308 LPSA2    1        ECLIPA   H59R     HAL2     0.900000E-01   1.00800           0
      1309 LPSA2    1        ECLIPA   H59S     HAL2     0.900000E-01   1.00800           0
      1310 LPSA2    1        ECLIPA   C510     CTL2    -0.180000       12.0110           0
      1311 LPSA2    1        ECLIPA   H510R    HAL2     0.900000E-01   1.00800           0
      1312 LPSA2    1        ECLIPA   H510S    HAL2     0.900000E-01   1.00800           0
      1313 LPSA2    1        ECLIPA   C511     CTL2    -0.180000       12.0110           0
      1314 LPSA2    1        ECLIPA   H511R    HAL2     0.900000E-01   1.00800           0
      1315 LPSA2    1        ECLIPA   H511S    HAL2     0.900000E-01   1.00800           0
      1316 LPSA2    1        ECLIPA   C512     CTL2    -0.180000       12.0110           0
      1317 LPSA2    1        ECLIPA   H512R    HAL2     0.900000E-01   1.00800           0
      1318 LPSA2    1        ECLIPA   H512S    HAL2     0.900000E-01   1.00800           0
      1319 LPSA2    1        ECLIPA   C513     CTL2    -0.180000       12.0110           0
      1320 LPSA2    1        ECLIPA   H513R    HAL2     0.900000E-01   1.00800           0
      1321 LPSA2    1        ECLIPA   H513S    HAL2     0.900000E-01   1.00800           0
      1322 LPSA2    1        ECLIPA   C514     CTL3    -0.270000       12.0110           0
      1323 LPSA2    1        ECLIPA   H514R    HAL3     0.900000E-01   1.00800           0
      1324 LPSA2    1        ECLIPA   H514S    HAL3     0.900000E-01   1.00800           0
      1325 LPSA2    1        ECLIPA   H514T    HAL3     0.900000E-01   1.00800           0
      1326 LPSA2    1        ECLIPA   C33      CTL1     0.140000       12.0110           0
      1327 LPSA2    1        ECLIPA   H33R     HAL1     0.900000E-01   1.00800           0
      1328 LPSA2    1        ECLIPA   O33      OH1     -0.660000       15.9994           0
      1329 LPSA2    1        ECLIPA   HO33     H        0.430000       1.00800           0
      1330 LPSA2    1        ECLIPA   C34      CTL2    -0.180000       12.0110           0
      1331 LPSA2    1        ECLIPA   H34R     HAL2     0.900000E-01   1.00800           0
      1332 LPSA2    1        ECLIPA   H34S     HAL2     0.900000E-01   1.00800           0
      1333 LPSA2    1        ECLIPA   C35      CTL2    -0.180000       12.0110           0
      1334 LPSA2    1        ECLIPA   H35R     HAL2     0.900000E-01   1.00800           0
      1335 LPSA2    1        ECLIPA   H35S     HAL2     0.900000E-01   1.00800           0
      1336 LPSA2    1        ECLIPA   C36      CTL2    -0.180000       12.0110           0
      1337 LPSA2    1        ECLIPA   H36R     HAL2     0.900000E-01   1.00800           0
      1338 LPSA2    1        ECLIPA   H36S     HAL2     0.900000E-01   1.00800           0
      1339 LPSA2    1        ECLIPA   C37      CTL2    -0.180000       12.0110           0
      1340 LPSA2    1        ECLIPA   H37R     HAL2     0.900000E-01   1.00800           0
      1341 LPSA2    1        ECLIPA   H37S     HAL2     0.900000E-01   1.00800           0
      1342 LPSA2    1        ECLIPA   C38      CTL2    -0.180000       12.0110           0
      1343 LPSA2    1        ECLIPA   H38R     HAL2     0.900000E-01   1.00800           0
      1344 LPSA2    1        ECLIPA   H38S     HAL2     0.900000E-01   1.00800           0
      1345 LPSA2    1        ECLIPA   C39      CTL2    -0.180000       12.0110           0
      1346 LPSA2    1        ECLIPA   H39R     HAL2     0.900000E-01   1.00800           0
      1347 LPSA2    1        ECLIPA   H39S     HAL2     0.900000E-01   1.00800           0
      1348 LPSA2    1        ECLIPA   C310     CTL2    -0.180000       12.0110           0
      1349 LPSA2    1        ECLIPA   H310R    HAL2     0.900000E-01   1.00800           0
      1350 LPSA2    1        ECLIPA   H310S    HAL2     0.900000E-01   1.00800           0
      1351 LPSA2    1        ECLIPA   C311     CTL2    -0.180000       12.0110           0
      1352 LPSA2    1        ECLIPA   H311R    HAL2     0.900000E-01   1.00800           0
      1353 LPSA2    1        ECLIPA   H311S    HAL2     0.900000E-01   1.00800           0
      1354 LPSA2    1        ECLIPA   C312     CTL2    -0.180000       12.0110           0
      1355 LPSA2    1        ECLIPA   H312R    HAL2     0.900000E-01   1.00800           0
      1356 LPSA2    1        ECLIPA   H312S    HAL2     0.900000E-01   1.00800           0
      1357 LPSA2    1        ECLIPA   C313     CTL2    -0.180000       12.0110           0
      1358 LPSA2    1        ECLIPA   H313R    HAL2     0.900000E-01   1.00800           0
      1359 LPSA2    1        ECLIPA   H313S    HAL2     0.900000E-01   1.00800           0
      1360 LPSA2    1        ECLIPA   C314     CTL3    -0.270000       12.0110           0
      1361 LPSA2    1        ECLIPA   H314R    HAL3     0.900000E-01   1.00800           0
      1362 LPSA2    1        ECLIPA   H314S    HAL3     0.900000E-01   1.00800           0
      1363 LPSA2    1        ECLIPA   H314T    HAL3     0.900000E-01   1.00800           0
      1364 LPSA2    1        ECLIPA   C11      CC2O1    0.550000       12.0110           0
      1365 LPSA2    1        ECLIPA   O11      OC2D1   -0.550000       15.9994           0
      1366 LPSA2    1        ECLIPA   C12      CTL2    -0.180000       12.0110           0
      1367 LPSA2    1        ECLIPA   H12R     HAL2     0.900000E-01   1.00800           0
      1368 LPSA2    1        ECLIPA   H12S     HAL2     0.900000E-01   1.00800           0
      1369 LPSA2    1        ECLIPA   C13      CTL1     0.140000       12.0110           0
      1370 LPSA2    1        ECLIPA   H13R     HAL1     0.900000E-01   1.00800           0
      1371 LPSA2    1        ECLIPA   O13      OH1     -0.660000       15.9994           0
      1372 LPSA2    1        ECLIPA   HO13     H        0.430000       1.00800           0
      1373 LPSA2    1        ECLIPA   C14      CTL2    -0.180000       12.0110           0
      1374 LPSA2    1        ECLIPA   H14R     HAL2     0.900000E-01   1.00800           0
      1375 LPSA2    1        ECLIPA   H14S     HAL2     0.900000E-01   1.00800           0
      1376 LPSA2    1        ECLIPA   C15      CTL2    -0.180000       12.0110           0
      1377 LPSA2    1        ECLIPA   H15R     HAL2     0.900000E-01   1.00800           0
      1378 LPSA2    1        ECLIPA   H15S     HAL2     0.900000E-01   1.00800           0
      1379 LPSA2    1        ECLIPA   C16      CTL2    -0.180000       12.0110           0
      1380 LPSA2    1        ECLIPA   H16R     HAL2     0.900000E-01   1.00800           0
      1381 LPSA2    1        ECLIPA   H16S     HAL2     0.900000E-01   1.00800           0
      1382 LPSA2    1        ECLIPA   C17      CTL2    -0.180000       12.0110           0
      1383 LPSA2    1        ECLIPA   H17R     HAL2     0.900000E-01   1.00800           0
      1384 LPSA2    1        ECLIPA   H17S     HAL2     0.900000E-01   1.00800           0
      1385 LPSA2    1        ECLIPA   C18      CTL2    -0.180000       12.0110           0
      1386 LPSA2    1        ECLIPA   H18R     HAL2     0.900000E-01   1.00800           0
      1387 LPSA2    1        ECLIPA   H18S     HAL2     0.900000E-01   1.00800           0
      1388 LPSA2    1        ECLIPA   C19      CTL2    -0.180000       12.0110           0
      1389 LPSA2    1        ECLIPA   H19R     HAL2     0.900000E-01   1.00800           0
      1390 LPSA2    1        ECLIPA   H19S     HAL2     0.900000E-01   1.00800           0
      1391 LPSA2    1        ECLIPA   C110     CTL2    -0.180000       12.0110           0
      1392 LPSA2    1        ECLIPA   H110R    HAL2     0.900000E-01   1.00800           0
      1393 LPSA2    1        ECLIPA   H110S    HAL2     0.900000E-01   1.00800           0
      1394 LPSA2    1        ECLIPA   C111     CTL2    -0.180000       12.0110           0
      1395 LPSA2    1        ECLIPA   H111R    HAL2     0.900000E-01   1.00800           0
      1396 LPSA2    1        ECLIPA   H111S    HAL2     0.900000E-01   1.00800           0
      1397 LPSA2    1        ECLIPA   C112     CTL2    -0.180000       12.0110           0
      1398 LPSA2    1        ECLIPA   H112R    HAL2     0.900000E-01   1.00800           0
      1399 LPSA2    1        ECLIPA   H112S    HAL2     0.900000E-01   1.00800           0
      1400 LPSA2    1        ECLIPA   C113     CTL2    -0.180000       12.0110           0
      1401 LPSA2    1        ECLIPA   H113R    HAL2     0.900000E-01   1.00800           0
      1402 LPSA2    1        ECLIPA   H113S    HAL2     0.900000E-01   1.00800           0
      1403 LPSA2    1        ECLIPA   C114     CTL3    -0.270000       12.0110           0
      1404 LPSA2    1        ECLIPA   H114R    HAL3     0.900000E-01   1.00800           0
      1405 LPSA2    1        ECLIPA   H114S    HAL3     0.900000E-01   1.00800           0
      1406 LPSA2    1        ECLIPA   H114T    HAL3     0.900000E-01   1.00800           0
      1407 LPSA2    2        AKDO     C1       CC2O2    0.300000       12.0110           0
      1408 LPSA2    2        AKDO     O11      OC2D2   -0.600000       15.9994           0
      1409 LPSA2    2        AKDO     O12      OC2D2   -0.600000       15.9994           0
      1410 LPSA2    2        AKDO     C2       CC3062   0.280000       12.0110           0
      1411 LPSA2    2        AKDO     C6       CC3163   0.110000       12.0110           0
      1412 LPSA2    2        AKDO     H6       HCA1     0.900000E-01   1.00800           0
      1413 LPSA2    2        AKDO     O6       OC3C61  -0.400000       15.9994           0
      1414 LPSA2    2        AKDO     C3       CC3261  -0.180000       12.0110           0
      1415 LPSA2    2        AKDO     H31      HCA2     0.900000E-01   1.00800           0
      1416 LPSA2    2        AKDO     H32      HCA2     0.900000E-01   1.00800           0
      1417 LPSA2    2        AKDO     C4       CC3161   0.900000E-01   12.0110           0
      1418 LPSA2    2        AKDO     H4       HCA1     0.900000E-01   1.00800           0
      1419 LPSA2    2        AKDO     O4       OC301   -0.360000       15.9994           0
      1420 LPSA2    2        AKDO     C5       CC3161   0.900000E-01   12.0110           0
      1421 LPSA2    2        AKDO     H5       HCA1     0.900000E-01   1.00800           0
      1422 LPSA2    2        AKDO     O5       OC301   -0.360000       15.9994           0
      1423 LPSA2    2        AKDO     C7       CC312    0.140000       12.0110           0
      1424 LPSA2    2        AKDO     H7       HCA1     0.900000E-01   1.00800           0
      1425 LPSA2    2        AKDO     O7       OC311   -0.650000       15.9994           0
      1426 LPSA2    2        AKDO     HO7      HCP1     0.420000       1.00800           0
      1427 LPSA2    2        AKDO     C8       CC322    0.500000E-01   12.0110           0
      1428 LPSA2    2        AKDO     H81      HCA2     0.900000E-01   1.00800           0
      1429 LPSA2    2        AKDO     H82      HCA2     0.900000E-01   1.00800           0
      1430 LPSA2    2        AKDO     O8       OC311   -0.650000       15.9994           0
      1431 LPSA2    2        AKDO     HO8      HCP1     0.420000       1.00800           0
      1432 LPSA2    3        AKDO     C1       CC2O2    0.300000       12.0110           0
      1433 LPSA2    3        AKDO     O11      OC2D2   -0.600000       15.9994           0
      1434 LPSA2    3        AKDO     O12      OC2D2   -0.600000       15.9994           0
      1435 LPSA2    3        AKDO     C2       CC3062   0.280000       12.0110           0
      1436 LPSA2    3        AKDO     C6       CC3163   0.110000       12.0110           0
      1437 LPSA2    3        AKDO     H6       HCA1     0.900000E-01   1.00800           0
      1438 LPSA2    3        AKDO     O6       OC3C61  -0.400000       15.9994           0
      1439 LPSA2    3        AKDO     C3       CC3261  -0.180000       12.0110           0
      1440 LPSA2    3        AKDO     H31      HCA2     0.900000E-01   1.00800           0
      1441 LPSA2    3        AKDO     H32      HCA2     0.900000E-01   1.00800           0
      1442 LPSA2    3        AKDO     C4       CC3161   0.140000       12.0110           0
      1443 LPSA2    3        AKDO     H4       HCA1     0.900000E-01   1.00800           0
      1444 LPSA2    3        AKDO     O4       OC311   -0.650000       15.9994           0
      1445 LPSA2    3        AKDO     HO4      HCP1     0.420000       1.00800           0
      1446 LPSA2    3        AKDO     C5       CC3161   0.140000       12.0110           0
      1447 LPSA2    3        AKDO     H5       HCA1     0.900000E-01   1.00800           0
      1448 LPSA2    3        AKDO     O5       OC311   -0.650000       15.9994           0
      1449 LPSA2    3        AKDO     HO5      HCP1     0.420000       1.00800           0
      1450 LPSA2    3        AKDO     C7       CC312    0.140000       12.0110           0
      1451 LPSA2    3        AKDO     H7       HCA1     0.900000E-01   1.00800           0
      1452 LPSA2    3        AKDO     O7       OC311   -0.650000       15.9994           0
      1453 LPSA2    3        AKDO     HO7      HCP1     0.420000       1.00800           0
      1454 LPSA2    3        AKDO     C8       CC322    0.500000E-01   12.0110           0
      1455 LPSA2    3        AKDO     H81      HCA2     0.900000E-01   1.00800           0
      1456 LPSA2    3        AKDO     H82      HCA2     0.900000E-01   1.00800           0
      1457 LPSA2    3        AKDO     O8       OC311   -0.650000       15.9994           0
      1458 LPSA2    3        AKDO     HO8      HCP1     0.420000       1.00800           0
      1459 LPSA2    4        AHEP     C1       CC3162   0.290000       12.0110           0
      1460 LPSA2    4        AHEP     H1       HCA1     0.900000E-01   1.00800           0
      1461 LPSA2    4        AHEP     C5       CC3163   0.110000       12.0110           0
      1462 LPSA2    4        AHEP     H5       HCA1     0.900000E-01   1.00800           0
      1463 LPSA2    4        AHEP     O5       OC3C61  -0.400000       15.9994           0
      1464 LPSA2    4        AHEP     C2       CC3161   0.140000       12.0110           0
      1465 LPSA2    4        AHEP     H2       HCA1     0.900000E-01   1.00800           0
      1466 LPSA2    4        AHEP     O2       OC311   -0.650000       15.9994           0
      1467 LPSA2    4        AHEP     HO2      HCP1     0.420000       1.00800           0
      1468 LPSA2    4        AHEP     C3       CC3161   0.900000E-01   12.0110           0
      1469 LPSA2    4        AHEP     H3       HCA1     0.900000E-01   1.00800           0
      1470 LPSA2    4        AHEP     O3       OC301   -0.360000       15.9994           0
      1471 LPSA2    4        AHEP     C4       CC3161  -0.900000E-01   12.0110           0
      1472 LPSA2    4        AHEP     H4       HCA1     0.900000E-01   1.00800           0
      1473 LPSA2    4        AHEP     O4       OC30P   -0.400000       15.9994           0
      1474 LPSA2    4        AHEP     P4       PC        1.10000       30.9740           0
      1475 LPSA2    4        AHEP     OP42     OC2DP   -0.900000       15.9994           0
      1476 LPSA2    4        AHEP     OP43     OC2DP   -0.900000       15.9994           0
      1477 LPSA2    4        AHEP     OP44     OC2DP   -0.900000       15.9994           0
      1478 LPSA2    4        AHEP     C6       CC312    0.140000       12.0110           0
      1479 LPSA2    4        AHEP     H6       HCA1     0.900000E-01   1.00800           0
      1480 LPSA2    4        AHEP     O6       OC311   -0.650000       15.9994           0
      1481 LPSA2    4        AHEP     HO6      HCP1     0.420000       1.00800           0
      1482 LPSA2    4        AHEP     C7       CC322    0.500000E-01   12.0110           0
      1483 LPSA2    4        AHEP     H71      HCA2     0.900000E-01   1.00800           0
      1484 LPSA2    4        AHEP     H72      HCA2     0.900000E-01   1.00800           0
      1485 LPSA2    4        AHEP     O7       OC311   -0.650000       15.9994           0
      1486 LPSA2    4        AHEP     HO7      HCP1     0.420000       1.00800           0
      1487 LPSA2    5        AHEP     C1       CC3162   0.290000       12.0110           0
      1488 LPSA2    5        AHEP     H1       HCA1     0.900000E-01   1.00800           0
      1489 LPSA2    5        AHEP     C5       CC3163   0.110000       12.0110           0
      1490 LPSA2    5        AHEP     H5       HCA1     0.900000E-01   1.00800           0
      1491 LPSA2    5        AHEP     O5       OC3C61  -0.400000       15.9994           0
      1492 LPSA2    5        AHEP     C2       CC3161   0.140000       12.0110           0
      1493 LPSA2    5        AHEP     H2       HCA1     0.900000E-01   1.00800           0
      1494 LPSA2    5        AHEP     O2       OC311   -0.650000       15.9994           0
      1495 LPSA2    5        AHEP     HO2      HCP1     0.420000       1.00800           0
      1496 LPSA2    5        AHEP     C3       CC3161   0.900000E-01   12.0110           0
      1497 LPSA2    5        AHEP     H3       HCA1     0.900000E-01   1.00800           0
      1498 LPSA2    5        AHEP     O3       OC301   -0.360000       15.9994           0
      1499 LPSA2    5        AHEP     C4       CC3161  -0.900000E-01   12.0110           0
      1500 LPSA2    5        AHEP     H4       HCA1     0.900000E-01   1.00800           0
      1501 LPSA2    5        AHEP     O4       OC30P   -0.400000       15.9994           0
      1502 LPSA2    5        AHEP     P4       PC        1.10000       30.9740           0
      1503 LPSA2    5        AHEP     OP42     OC2DP   -0.900000       15.9994           0
      1504 LPSA2    5        AHEP     OP43     OC2DP   -0.900000       15.9994           0
      1505 LPSA2    5        AHEP     OP44     OC2DP   -0.900000       15.9994           0
      1506 LPSA2    5        AHEP     C6       CC312    0.140000       12.0110           0
      1507 LPSA2    5        AHEP     H6       HCA1     0.900000E-01   1.00800           0
      1508 LPSA2    5        AHEP     O6       OC311   -0.650000       15.9994           0
      1509 LPSA2    5        AHEP     HO6      HCP1     0.420000       1.00800           0
      1510 LPSA2    5        AHEP     C7       CC322     0.00000       12.0110           0
      1511 LPSA2    5        AHEP     H71      HCA2     0.900000E-01   1.00800           0
      1512 LPSA2    5        AHEP     H72      HCA2     0.900000E-01   1.00800           0
      1513 LPSA2    5        AHEP     O7       OC301   -0.360000       15.9994           0
      1514 LPSA2    6        AHEP     C1       CC3162   0.290000       12.0110           0
      1515 LPSA2    6        AHEP     H1       HCA1     0.900000E-01   1.00800           0
      1516 LPSA2    6        AHEP     C5       CC3163   0.110000       12.0110           0
      1517 LPSA2    6        AHEP     H5       HCA1     0.900000E-01   1.00800           0
      1518 LPSA2    6        AHEP     O5       OC3C61  -0.400000       15.9994           0
      1519 LPSA2    6        AHEP     C2       CC3161   0.140000       12.0110           0
      1520 LPSA2    6        AHEP     H2       HCA1     0.900000E-01   1.00800           0
      1521 LPSA2    6        AHEP     O2       OC311   -0.650000       15.9994           0
      1522 LPSA2    6        AHEP     HO2      HCP1     0.420000       1.00800           0
      1523 LPSA2    6        AHEP     C3       CC3161   0.140000       12.0110           0
      1524 LPSA2    6        AHEP     H3       HCA1     0.900000E-01   1.00800           0
      1525 LPSA2    6        AHEP     O3       OC311   -0.650000       15.9994           0
      1526 LPSA2    6        AHEP     HO3      HCP1     0.420000       1.00800           0
      1527 LPSA2    6        AHEP     C4       CC3161   0.140000       12.0110           0
      1528 LPSA2    6        AHEP     H4       HCA1     0.900000E-01   1.00800           0
      1529 LPSA2    6        AHEP     O4       OC311   -0.650000       15.9994           0
      1530 LPSA2    6        AHEP     HO4      HCP1     0.420000       1.00800           0
      1531 LPSA2    6        AHEP     C6       CC312    0.140000       12.0110           0
      1532 LPSA2    6        AHEP     H6       HCA1     0.900000E-01   1.00800           0
      1533 LPSA2    6        AHEP     O6       OC311   -0.650000       15.9994           0
      1534 LPSA2    6        AHEP     HO6      HCP1     0.420000       1.00800           0
      1535 LPSA2    6        AHEP     C7       CC322    0.500000E-01   12.0110           0
      1536 LPSA2    6        AHEP     H71      HCA2     0.900000E-01   1.00800           0
      1537 LPSA2    6        AHEP     H72      HCA2     0.900000E-01   1.00800           0
      1538 LPSA2    6        AHEP     O7       OC311   -0.650000       15.9994           0
      1539 LPSA2    6        AHEP     HO7      HCP1     0.420000       1.00800           0
      1540 LPSA2    7        AGLC     C1       CC3162   0.290000       12.0110           0
      1541 LPSA2    7        AGLC     H1       HCA1     0.900000E-01   1.00800           0
      1542 LPSA2    7        AGLC     C5       CC3163   0.110000       12.0110           0
      1543 LPSA2    7        AGLC     H5       HCA1     0.900000E-01   1.00800           0
      1544 LPSA2    7        AGLC     O5       OC3C61  -0.400000       15.9994           0
      1545 LPSA2    7        AGLC     C2       CC3161   0.140000       12.0110           0
      1546 LPSA2    7        AGLC     H2       HCA1     0.900000E-01   1.00800           0
      1547 LPSA2    7        AGLC     O2       OC311   -0.650000       15.9994           0
      1548 LPSA2    7        AGLC     HO2      HCP1     0.420000       1.00800           0
      1549 LPSA2    7        AGLC     C3       CC3161   0.900000E-01   12.0110           0
      1550 LPSA2    7        AGLC     H3       HCA1     0.900000E-01   1.00800           0
      1551 LPSA2    7        AGLC     O3       OC301   -0.360000       15.9994           0
      1552 LPSA2    7        AGLC     C4       CC3161   0.140000       12.0110           0
      1553 LPSA2    7        AGLC     H4       HCA1     0.900000E-01   1.00800           0
      1554 LPSA2    7        AGLC     O4       OC311   -0.650000       15.9994           0
      1555 LPSA2    7        AGLC     HO4      HCP1     0.420000       1.00800           0
      1556 LPSA2    7        AGLC     C6       CC321    0.500000E-01   12.0110           0
      1557 LPSA2    7        AGLC     H61      HCA2     0.900000E-01   1.00800           0
      1558 LPSA2    7        AGLC     H62      HCA2     0.900000E-01   1.00800           0
      1559 LPSA2    7        AGLC     O6       OC311   -0.650000       15.9994           0
      1560 LPSA2    7        AGLC     HO6      HCP1     0.420000       1.00800           0
      1561 LPSA2    8        AGLC     C1       CC3162   0.290000       12.0110           0
      1562 LPSA2    8        AGLC     H1       HCA1     0.900000E-01   1.00800           0
      1563 LPSA2    8        AGLC     C5       CC3163   0.110000       12.0110           0
      1564 LPSA2    8        AGLC     H5       HCA1     0.900000E-01   1.00800           0
      1565 LPSA2    8        AGLC     O5       OC3C61  -0.400000       15.9994           0
      1566 LPSA2    8        AGLC     C2       CC3161   0.900000E-01   12.0110           0
      1567 LPSA2    8        AGLC     H2       HCA1     0.900000E-01   1.00800           0
      1568 LPSA2    8        AGLC     O2       OC301   -0.360000       15.9994           0
      1569 LPSA2    8        AGLC     C3       CC3161   0.900000E-01   12.0110           0
      1570 LPSA2    8        AGLC     H3       HCA1     0.900000E-01   1.00800           0
      1571 LPSA2    8        AGLC     O3       OC301   -0.360000       15.9994           0
      1572 LPSA2    8        AGLC     C4       CC3161   0.140000       12.0110           0
      1573 LPSA2    8        AGLC     H4       HCA1     0.900000E-01   1.00800           0
      1574 LPSA2    8        AGLC     O4       OC311   -0.650000       15.9994           0
      1575 LPSA2    8        AGLC     HO4      HCP1     0.420000       1.00800           0
      1576 LPSA2    8        AGLC     C6       CC321    0.500000E-01   12.0110           0
      1577 LPSA2    8        AGLC     H61      HCA2     0.900000E-01   1.00800           0
      1578 LPSA2    8        AGLC     H62      HCA2     0.900000E-01   1.00800           0
      1579 LPSA2    8        AGLC     O6       OC311   -0.650000       15.9994           0
      1580 LPSA2    8        AGLC     HO6      HCP1     0.420000       1.00800           0
      1581 LPSA2    9        AGAL     C1       CC3162   0.290000       12.0110           0
      1582 LPSA2    9        AGAL     H1       HCA1     0.900000E-01   1.00800           0
      1583 LPSA2    9        AGAL     C5       CC3163   0.110000       12.0110           0
      1584 LPSA2    9        AGAL     H5       HCA1     0.900000E-01   1.00800           0
      1585 LPSA2    9        AGAL     O5       OC3C61  -0.400000       15.9994           0
      1586 LPSA2    9        AGAL     C2       CC3161   0.900000E-01   12.0110           0
      1587 LPSA2    9        AGAL     H2       HCA1     0.900000E-01   1.00800           0
      1588 LPSA2    9        AGAL     O2       OC301   -0.360000       15.9994           0
      1589 LPSA2    9        AGAL     C3       CC3161   0.140000       12.0110           0
      1590 LPSA2    9        AGAL     H3       HCA1     0.900000E-01   1.00800           0
      1591 LPSA2    9        AGAL     O3       OC311   -0.650000       15.9994           0
      1592 LPSA2    9        AGAL     HO3      HCP1     0.420000       1.00800           0
      1593 LPSA2    9        AGAL     C4       CC3161   0.140000       12.0110           0
      1594 LPSA2    9        AGAL     H4       HCA1     0.900000E-01   1.00800           0
      1595 LPSA2    9        AGAL     O4       OC311   -0.650000       15.9994           0
      1596 LPSA2    9        AGAL     HO4      HCP1     0.420000       1.00800           0
      1597 LPSA2    9        AGAL     C6       CC321    0.500000E-01   12.0110           0
      1598 LPSA2    9        AGAL     H61      HCA2     0.900000E-01   1.00800           0
      1599 LPSA2    9        AGAL     H62      HCA2     0.900000E-01   1.00800           0
      1600 LPSA2    9        AGAL     O6       OC311   -0.650000       15.9994           0
      1601 LPSA2    9        AGAL     HO6      HCP1     0.420000       1.00800           0
      1602 LPSA2    10       AGAL     C1       CC3162   0.290000       12.0110           0
      1603 LPSA2    10       AGAL     H1       HCA1     0.900000E-01   1.00800           0
      1604 LPSA2    10       AGAL     C5       CC3163   0.110000       12.0110           0
      1605 LPSA2    10       AGAL     H5       HCA1     0.900000E-01   1.00800           0
      1606 LPSA2    10       AGAL     O5       OC3C61  -0.400000       15.9994           0
      1607 LPSA2    10       AGAL     C2       CC3161   0.140000       12.0110           0
      1608 LPSA2    10       AGAL     H2       HCA1     0.900000E-01   1.00800           0
      1609 LPSA2    10       AGAL     O2       OC311   -0.650000       15.9994           0
      1610 LPSA2    10       AGAL     HO2      HCP1     0.420000       1.00800           0
      1611 LPSA2    10       AGAL     C3       CC3161   0.140000       12.0110           0
      1612 LPSA2    10       AGAL     H3       HCA1     0.900000E-01   1.00800           0
      1613 LPSA2    10       AGAL     O3       OC311   -0.650000       15.9994           0
      1614 LPSA2    10       AGAL     HO3      HCP1     0.420000       1.00800           0
      1615 LPSA2    10       AGAL     C4       CC3161   0.140000       12.0110           0
      1616 LPSA2    10       AGAL     H4       HCA1     0.900000E-01   1.00800           0
      1617 LPSA2    10       AGAL     O4       OC311   -0.650000       15.9994           0
      1618 LPSA2    10       AGAL     HO4      HCP1     0.420000       1.00800           0
      1619 LPSA2    10       AGAL     C6       CC321    0.500000E-01   12.0110           0
      1620 LPSA2    10       AGAL     H61      HCA2     0.900000E-01   1.00800           0
      1621 LPSA2    10       AGAL     H62      HCA2     0.900000E-01   1.00800           0
      1622 LPSA2    10       AGAL     O6       OC311   -0.650000       15.9994           0
      1623 LPSA2    10       AGAL     HO6      HCP1     0.420000       1.00800           0
      1624 LPSA2    11       BGLC     C1       CC3162   0.290000       12.0110           0
      1625 LPSA2    11       BGLC     H1       HCA1     0.900000E-01   1.00800           0
      1626 LPSA2    11       BGLC     C5       CC3163   0.110000       12.0110           0
      1627 LPSA2    11       BGLC     H5       HCA1     0.900000E-01   1.00800           0
      1628 LPSA2    11       BGLC     O5       OC3C61  -0.400000       15.9994           0
      1629 LPSA2    11       BGLC     C2       CC3161   0.140000       12.0110           0
      1630 LPSA2    11       BGLC     H2       HCA1     0.900000E-01   1.00800           0
      1631 LPSA2    11       BGLC     O2       OC311   -0.650000       15.9994           0
      1632 LPSA2    11       BGLC     HO2      HCP1     0.420000       1.00800           0
      1633 LPSA2    11       BGLC     C3       CC3161   0.900000E-01   12.0110           0
      1634 LPSA2    11       BGLC     H3       HCA1     0.900000E-01   1.00800           0
      1635 LPSA2    11       BGLC     O3       OC301   -0.360000       15.9994           0
      1636 LPSA2    11       BGLC     C4       CC3161   0.140000       12.0110           0
      1637 LPSA2    11       BGLC     H4       HCA1     0.900000E-01   1.00800           0
      1638 LPSA2    11       BGLC     O4       OC311   -0.650000       15.9994           0
      1639 LPSA2    11       BGLC     HO4      HCP1     0.420000       1.00800           0
      1640 LPSA2    11       BGLC     C6       CC321    0.500000E-01   12.0110           0
      1641 LPSA2    11       BGLC     H61      HCA2     0.900000E-01   1.00800           0
      1642 LPSA2    11       BGLC     H62      HCA2     0.900000E-01   1.00800           0
      1643 LPSA2    11       BGLC     O6       OC311   -0.650000       15.9994           0
      1644 LPSA2    11       BGLC     HO6      HCP1     0.420000       1.00800           0
      1645 LPSA2    12       BGLCNA   C1       CC3162   0.290000       12.0110           0
      1646 LPSA2    12       BGLCNA   H1       HCA1     0.900000E-01   1.00800           0
      1647 LPSA2    12       BGLCNA   C5       CC3163   0.110000       12.0110           0
      1648 LPSA2    12       BGLCNA   H5       HCA1     0.900000E-01   1.00800           0
      1649 LPSA2    12       BGLCNA   O5       OC3C61  -0.400000       15.9994           0
      1650 LPSA2    12       BGLCNA   C2       CC3161   0.700000E-01   12.0110           0
      1651 LPSA2    12       BGLCNA   H2       HCA1     0.900000E-01   1.00800           0
      1652 LPSA2    12       BGLCNA   N        NC2D1   -0.470000       14.0070           0
      1653 LPSA2    12       BGLCNA   HN       HCP1     0.310000       1.00800           0
      1654 LPSA2    12       BGLCNA   C        CC2O1    0.510000       12.0110           0
      1655 LPSA2    12       BGLCNA   O        OC2D1   -0.510000       15.9994           0
      1656 LPSA2    12       BGLCNA   CT       CC331   -0.270000       12.0110           0
      1657 LPSA2    12       BGLCNA   HT1      HCA3     0.900000E-01   1.00800           0
      1658 LPSA2    12       BGLCNA   HT2      HCA3     0.900000E-01   1.00800           0
      1659 LPSA2    12       BGLCNA   HT3      HCA3     0.900000E-01   1.00800           0
      1660 LPSA2    12       BGLCNA   C3       CC3161   0.900000E-01   12.0110           0
      1661 LPSA2    12       BGLCNA   H3       HCA1     0.900000E-01   1.00800           0
      1662 LPSA2    12       BGLCNA   O3       OC301   -0.360000       15.9994           0
      1663 LPSA2    12       BGLCNA   C4       CC3161   0.140000       12.0110           0
      1664 LPSA2    12       BGLCNA   H4       HCA1     0.900000E-01   1.00800           0
      1665 LPSA2    12       BGLCNA   O4       OC311   -0.650000       15.9994           0
      1666 LPSA2    12       BGLCNA   HO4      HCP1     0.420000       1.00800           0
      1667 LPSA2    12       BGLCNA   C6       CC321    0.500000E-01   12.0110           0
      1668 LPSA2    12       BGLCNA   H61      HCA2     0.900000E-01   1.00800           0
      1669 LPSA2    12       BGLCNA   H62      HCA2     0.900000E-01   1.00800           0
      1670 LPSA2    12       BGLCNA   O6       OC311   -0.650000       15.9994           0
      1671 LPSA2    12       BGLCNA   HO6      HCP1     0.420000       1.00800           0
      1672 LPSA2    13       AGAL     C1       CC3162   0.290000       12.0110           0
      1673 LPSA2    13       AGAL     H1       HCA1     0.900000E-01   1.00800           0
      1674 LPSA2    13       AGAL     C5       CC3163   0.110000       12.0110           0
      1675 LPSA2    13       AGAL     H5       HCA1     0.900000E-01   1.00800           0
      1676 LPSA2    13       AGAL     O5       OC3C61  -0.400000       15.9994           0
      1677 LPSA2    13       AGAL     C2       CC3161   0.900000E-01   12.0110           0
      1678 LPSA2    13       AGAL     H2       HCA1     0.900000E-01   1.00800           0
      1679 LPSA2    13       AGAL     O2       OC301   -0.360000       15.9994           0
      1680 LPSA2    13       AGAL     C3       CC3161   0.140000       12.0110           0
      1681 LPSA2    13       AGAL     H3       HCA1     0.900000E-01   1.00800           0
      1682 LPSA2    13       AGAL     O3       OC311   -0.650000       15.9994           0
      1683 LPSA2    13       AGAL     HO3      HCP1     0.420000       1.00800           0
      1684 LPSA2    13       AGAL     C4       CC3161   0.140000       12.0110           0
      1685 LPSA2    13       AGAL     H4       HCA1     0.900000E-01   1.00800           0
      1686 LPSA2    13       AGAL     O4       OC311   -0.650000       15.9994           0
      1687 LPSA2    13       AGAL     HO4      HCP1     0.420000       1.00800           0
      1688 LPSA2    13       AGAL     C6       CC321    0.500000E-01   12.0110           0
      1689 LPSA2    13       AGAL     H61      HCA2     0.900000E-01   1.00800           0
      1690 LPSA2    13       AGAL     H62      HCA2     0.900000E-01   1.00800           0
      1691 LPSA2    13       AGAL     O6       OC311   -0.650000       15.9994           0
      1692 LPSA2    13       AGAL     HO6      HCP1     0.420000       1.00800           0
      1693 LPSA2    14       ARHM     C1       CC3162   0.290000       12.0110           0
      1694 LPSA2    14       ARHM     H1       HCA1     0.900000E-01   1.00800           0
      1695 LPSA2    14       ARHM     C5       CC3163   0.110000       12.0110           0
      1696 LPSA2    14       ARHM     H5       HCA1     0.900000E-01   1.00800           0
      1697 LPSA2    14       ARHM     O5       OC3C61  -0.400000       15.9994           0
      1698 LPSA2    14       ARHM     C2       CC3161   0.900000E-01   12.0110           0
      1699 LPSA2    14       ARHM     H2       HCA1     0.900000E-01   1.00800           0
      1700 LPSA2    14       ARHM     O2       OC301   -0.360000       15.9994           0
      1701 LPSA2    14       ARHM     C3       CC3161   0.140000       12.0110           0
      1702 LPSA2    14       ARHM     H3       HCA1     0.900000E-01   1.00800           0
      1703 LPSA2    14       ARHM     O3       OC311   -0.650000       15.9994           0
      1704 LPSA2    14       ARHM     HO3      HCP1     0.420000       1.00800           0
      1705 LPSA2    14       ARHM     C4       CC3161   0.140000       12.0110           0
      1706 LPSA2    14       ARHM     H4       HCA1     0.900000E-01   1.00800           0
      1707 LPSA2    14       ARHM     O4       OC311   -0.650000       15.9994           0
      1708 LPSA2    14       ARHM     HO4      HCP1     0.420000       1.00800           0
      1709 LPSA2    14       ARHM     C6       CC331   -0.270000       12.0110           0
      1710 LPSA2    14       ARHM     H61      HCA3     0.900000E-01   1.00800           0
      1711 LPSA2    14       ARHM     H62      HCA3     0.900000E-01   1.00800           0
      1712 LPSA2    14       ARHM     H63      HCA3     0.900000E-01   1.00800           0
      1713 LPSA2    15       ARHM     C1       CC3162   0.290000       12.0110           0
      1714 LPSA2    15       ARHM     H1       HCA1     0.900000E-01   1.00800           0
      1715 LPSA2    15       ARHM     C5       CC3163   0.110000       12.0110           0
      1716 LPSA2    15       ARHM     H5       HCA1     0.900000E-01   1.00800           0
      1717 LPSA2    15       ARHM     O5       OC3C61  -0.400000       15.9994           0
      1718 LPSA2    15       ARHM     C2       CC3161   0.900000E-01   12.0110           0
      1719 LPSA2    15       ARHM     H2       HCA1     0.900000E-01   1.00800           0
      1720 LPSA2    15       ARHM     O2       OC301   -0.360000       15.9994           0
      1721 LPSA2    15       ARHM     C3       CC3161   0.900000E-01   12.0110           0
      1722 LPSA2    15       ARHM     H3       HCA1     0.900000E-01   1.00800           0
      1723 LPSA2    15       ARHM     O3       OC301   -0.360000       15.9994           0
      1724 LPSA2    15       ARHM     C4       CC3161   0.140000       12.0110           0
      1725 LPSA2    15       ARHM     H4       HCA1     0.900000E-01   1.00800           0
      1726 LPSA2    15       ARHM     O4       OC311   -0.650000       15.9994           0
      1727 LPSA2    15       ARHM     HO4      HCP1     0.420000       1.00800           0
      1728 LPSA2    15       ARHM     C6       CC331   -0.270000       12.0110           0
      1729 LPSA2    15       ARHM     H61      HCA3     0.900000E-01   1.00800           0
      1730 LPSA2    15       ARHM     H62      HCA3     0.900000E-01   1.00800           0
      1731 LPSA2    15       ARHM     H63      HCA3     0.900000E-01   1.00800           0
      1732 LPSA2    16       BMANNA   C1       CC3162   0.290000       12.0110           0
      1733 LPSA2    16       BMANNA   H1       HCA1     0.900000E-01   1.00800           0
      1734 LPSA2    16       BMANNA   C5       CC3163   0.110000       12.0110           0
      1735 LPSA2    16       BMANNA   H5       HCA1     0.900000E-01   1.00800           0
      1736 LPSA2    16       BMANNA   O5       OC3C61  -0.400000       15.9994           0
      1737 LPSA2    16       BMANNA   C2       CC3161   0.700000E-01   12.0110           0
      1738 LPSA2    16       BMANNA   H2       HCA1     0.900000E-01   1.00800           0
      1739 LPSA2    16       BMANNA   N        NC2D1   -0.470000       14.0070           0
      1740 LPSA2    16       BMANNA   HN       HCP1     0.310000       1.00800           0
      1741 LPSA2    16       BMANNA   C        CC2O1    0.510000       12.0110           0
      1742 LPSA2    16       BMANNA   O        OC2D1   -0.510000       15.9994           0
      1743 LPSA2    16       BMANNA   CT       CC331   -0.270000       12.0110           0
      1744 LPSA2    16       BMANNA   HT1      HCA3     0.900000E-01   1.00800           0
      1745 LPSA2    16       BMANNA   HT2      HCA3     0.900000E-01   1.00800           0
      1746 LPSA2    16       BMANNA   HT3      HCA3     0.900000E-01   1.00800           0
      1747 LPSA2    16       BMANNA   C3       CC3161   0.140000       12.0110           0
      1748 LPSA2    16       BMANNA   H3       HCA1     0.900000E-01   1.00800           0
      1749 LPSA2    16       BMANNA   O3       OC311   -0.650000       15.9994           0
      1750 LPSA2    16       BMANNA   HO3      HCP1     0.420000       1.00800           0
      1751 LPSA2    16       BMANNA   C4       CC3161   0.140000       12.0110           0
      1752 LPSA2    16       BMANNA   H4       HCA1     0.900000E-01   1.00800           0
      1753 LPSA2    16       BMANNA   O4       OC311   -0.650000       15.9994           0
      1754 LPSA2    16       BMANNA   HO4      HCP1     0.420000       1.00800           0
      1755 LPSA2    16       BMANNA   C6       CC321    0.500000E-01   12.0110           0
      1756 LPSA2    16       BMANNA   H61      HCA2     0.900000E-01   1.00800           0
      1757 LPSA2    16       BMANNA   H62      HCA2     0.900000E-01   1.00800           0
      1758 LPSA2    16       BMANNA   O6       OC311   -0.650000       15.9994           0
      1759 LPSA2    16       BMANNA   HO6      HCP1     0.420000       1.00800           0
      1760 LPSA2    17       BGLCNA   C1       CC3162   0.290000       12.0110           0
      1761 LPSA2    17       BGLCNA   H1       HCA1     0.900000E-01   1.00800           0
      1762 LPSA2    17       BGLCNA   C5       CC3163   0.110000       12.0110           0
      1763 LPSA2    17       BGLCNA   H5       HCA1     0.900000E-01   1.00800           0
      1764 LPSA2    17       BGLCNA   O5       OC3C61  -0.400000       15.9994           0
      1765 LPSA2    17       BGLCNA   C2       CC3161   0.700000E-01   12.0110           0
      1766 LPSA2    17       BGLCNA   H2       HCA1     0.900000E-01   1.00800           0
      1767 LPSA2    17       BGLCNA   N        NC2D1   -0.470000       14.0070           0
      1768 LPSA2    17       BGLCNA   HN       HCP1     0.310000       1.00800           0
      1769 LPSA2    17       BGLCNA   C        CC2O1    0.510000       12.0110           0
      1770 LPSA2    17       BGLCNA   O        OC2D1   -0.510000       15.9994           0
      1771 LPSA2    17       BGLCNA   CT       CC331   -0.270000       12.0110           0
      1772 LPSA2    17       BGLCNA   HT1      HCA3     0.900000E-01   1.00800           0
      1773 LPSA2    17       BGLCNA   HT2      HCA3     0.900000E-01   1.00800           0
      1774 LPSA2    17       BGLCNA   HT3      HCA3     0.900000E-01   1.00800           0
      1775 LPSA2    17       BGLCNA   C3       CC3161   0.900000E-01   12.0110           0
      1776 LPSA2    17       BGLCNA   H3       HCA1     0.900000E-01   1.00800           0
      1777 LPSA2    17       BGLCNA   O3       OC301   -0.360000       15.9994           0
      1778 LPSA2    17       BGLCNA   C4       CC3161   0.140000       12.0110           0
      1779 LPSA2    17       BGLCNA   H4       HCA1     0.900000E-01   1.00800           0
      1780 LPSA2    17       BGLCNA   O4       OC311   -0.650000       15.9994           0
      1781 LPSA2    17       BGLCNA   HO4      HCP1     0.420000       1.00800           0
      1782 LPSA2    17       BGLCNA   C6       CC321    0.500000E-01   12.0110           0
      1783 LPSA2    17       BGLCNA   H61      HCA2     0.900000E-01   1.00800           0
      1784 LPSA2    17       BGLCNA   H62      HCA2     0.900000E-01   1.00800           0
      1785 LPSA2    17       BGLCNA   O6       OC311   -0.650000       15.9994           0
      1786 LPSA2    17       BGLCNA   HO6      HCP1     0.420000       1.00800           0
      1787 LPSA2    18       AGAL     C1       CC3162   0.290000       12.0110           0
      1788 LPSA2    18       AGAL     H1       HCA1     0.900000E-01   1.00800           0
      1789 LPSA2    18       AGAL     C5       CC3163   0.110000       12.0110           0
      1790 LPSA2    18       AGAL     H5       HCA1     0.900000E-01   1.00800           0
      1791 LPSA2    18       AGAL     O5       OC3C61  -0.400000       15.9994           0
      1792 LPSA2    18       AGAL     C2       CC3161   0.900000E-01   12.0110           0
      1793 LPSA2    18       AGAL     H2       HCA1     0.900000E-01   1.00800           0
      1794 LPSA2    18       AGAL     O2       OC301   -0.360000       15.9994           0
      1795 LPSA2    18       AGAL     C3       CC3161   0.140000       12.0110           0
      1796 LPSA2    18       AGAL     H3       HCA1     0.900000E-01   1.00800           0
      1797 LPSA2    18       AGAL     O3       OC311   -0.650000       15.9994           0
      1798 LPSA2    18       AGAL     HO3      HCP1     0.420000       1.00800           0
      1799 LPSA2    18       AGAL     C4       CC3161   0.140000       12.0110           0
      1800 LPSA2    18       AGAL     H4       HCA1     0.900000E-01   1.00800           0
      1801 LPSA2    18       AGAL     O4       OC311   -0.650000       15.9994           0
      1802 LPSA2    18       AGAL     HO4      HCP1     0.420000       1.00800           0
      1803 LPSA2    18       AGAL     C6       CC321    0.500000E-01   12.0110           0
      1804 LPSA2    18       AGAL     H61      HCA2     0.900000E-01   1.00800           0
      1805 LPSA2    18       AGAL     H62      HCA2     0.900000E-01   1.00800           0
      1806 LPSA2    18       AGAL     O6       OC311   -0.650000       15.9994           0
      1807 LPSA2    18       AGAL     HO6      HCP1     0.420000       1.00800           0
      1808 LPSA2    19       ARHM     C1       CC3162   0.290000       12.0110           0
      1809 LPSA2    19       ARHM     H1       HCA1     0.900000E-01   1.00800           0
      1810 LPSA2    19       ARHM     C5       CC3163   0.110000       12.0110           0
      1811 LPSA2    19       ARHM     H5       HCA1     0.900000E-01   1.00800           0
      1812 LPSA2    19       ARHM     O5       OC3C61  -0.400000       15.9994           0
      1813 LPSA2    19       ARHM     C2       CC3161   0.900000E-01   12.0110           0
      1814 LPSA2    19       ARHM     H2       HCA1     0.900000E-01   1.00800           0
      1815 LPSA2    19       ARHM     O2       OC301   -0.360000       15.9994           0
      1816 LPSA2    19       ARHM     C3       CC3161   0.140000       12.0110           0
      1817 LPSA2    19       ARHM     H3       HCA1     0.900000E-01   1.00800           0
      1818 LPSA2    19       ARHM     O3       OC311   -0.650000       15.9994           0
      1819 LPSA2    19       ARHM     HO3      HCP1     0.420000       1.00800           0
      1820 LPSA2    19       ARHM     C4       CC3161   0.140000       12.0110           0
      1821 LPSA2    19       ARHM     H4       HCA1     0.900000E-01   1.00800           0
      1822 LPSA2    19       ARHM     O4       OC311   -0.650000       15.9994           0
      1823 LPSA2    19       ARHM     HO4      HCP1     0.420000       1.00800           0
      1824 LPSA2    19       ARHM     C6       CC331   -0.270000       12.0110           0
      1825 LPSA2    19       ARHM     H61      HCA3     0.900000E-01   1.00800           0
      1826 LPSA2    19       ARHM     H62      HCA3     0.900000E-01   1.00800           0
      1827 LPSA2    19       ARHM     H63      HCA3     0.900000E-01   1.00800           0
      1828 LPSA2    20       ARHM     C1       CC3162   0.290000       12.0110           0
      1829 LPSA2    20       ARHM     H1       HCA1     0.900000E-01   1.00800           0
      1830 LPSA2    20       ARHM     C5       CC3163   0.110000       12.0110           0
      1831 LPSA2    20       ARHM     H5       HCA1     0.900000E-01   1.00800           0
      1832 LPSA2    20       ARHM     O5       OC3C61  -0.400000       15.9994           0
      1833 LPSA2    20       ARHM     C2       CC3161   0.900000E-01   12.0110           0
      1834 LPSA2    20       ARHM     H2       HCA1     0.900000E-01   1.00800           0
      1835 LPSA2    20       ARHM     O2       OC301   -0.360000       15.9994           0
      1836 LPSA2    20       ARHM     C3       CC3161   0.900000E-01   12.0110           0
      1837 LPSA2    20       ARHM     H3       HCA1     0.900000E-01   1.00800           0
      1838 LPSA2    20       ARHM     O3       OC301   -0.360000       15.9994           0
      1839 LPSA2    20       ARHM     C4       CC3161   0.140000       12.0110           0
      1840 LPSA2    20       ARHM     H4       HCA1     0.900000E-01   1.00800           0
      1841 LPSA2    20       ARHM     O4       OC311   -0.650000       15.9994           0
      1842 LPSA2    20       ARHM     HO4      HCP1     0.420000       1.00800           0
      1843 LPSA2    20       ARHM     C6       CC331   -0.270000       12.0110           0
      1844 LPSA2    20       ARHM     H61      HCA3     0.900000E-01   1.00800           0
      1845 LPSA2    20       ARHM     H62      HCA3     0.900000E-01   1.00800           0
      1846 LPSA2    20       ARHM     H63      HCA3     0.900000E-01   1.00800           0
      1847 LPSA2    21       BMANNA   C1       CC3162   0.290000       12.0110           0
      1848 LPSA2    21       BMANNA   H1       HCA1     0.900000E-01   1.00800           0
      1849 LPSA2    21       BMANNA   C5       CC3163   0.110000       12.0110           0
      1850 LPSA2    21       BMANNA   H5       HCA1     0.900000E-01   1.00800           0
      1851 LPSA2    21       BMANNA   O5       OC3C61  -0.400000       15.9994           0
      1852 LPSA2    21       BMANNA   C2       CC3161   0.700000E-01   12.0110           0
      1853 LPSA2    21       BMANNA   H2       HCA1     0.900000E-01   1.00800           0
      1854 LPSA2    21       BMANNA   N        NC2D1   -0.470000       14.0070           0
      1855 LPSA2    21       BMANNA   HN       HCP1     0.310000       1.00800           0
      1856 LPSA2    21       BMANNA   C        CC2O1    0.510000       12.0110           0
      1857 LPSA2    21       BMANNA   O        OC2D1   -0.510000       15.9994           0
      1858 LPSA2    21       BMANNA   CT       CC331   -0.270000       12.0110           0
      1859 LPSA2    21       BMANNA   HT1      HCA3     0.900000E-01   1.00800           0
      1860 LPSA2    21       BMANNA   HT2      HCA3     0.900000E-01   1.00800           0
      1861 LPSA2    21       BMANNA   HT3      HCA3     0.900000E-01   1.00800           0
      1862 LPSA2    21       BMANNA   C3       CC3161   0.140000       12.0110           0
      1863 LPSA2    21       BMANNA   H3       HCA1     0.900000E-01   1.00800           0
      1864 LPSA2    21       BMANNA   O3       OC311   -0.650000       15.9994           0
      1865 LPSA2    21       BMANNA   HO3      HCP1     0.420000       1.00800           0
      1866 LPSA2    21       BMANNA   C4       CC3161   0.140000       12.0110           0
      1867 LPSA2    21       BMANNA   H4       HCA1     0.900000E-01   1.00800           0
      1868 LPSA2    21       BMANNA   O4       OC311   -0.650000       15.9994           0
      1869 LPSA2    21       BMANNA   HO4      HCP1     0.420000       1.00800           0
      1870 LPSA2    21       BMANNA   C6       CC321    0.500000E-01   12.0110           0
      1871 LPSA2    21       BMANNA   H61      HCA2     0.900000E-01   1.00800           0
      1872 LPSA2    21       BMANNA   H62      HCA2     0.900000E-01   1.00800           0
      1873 LPSA2    21       BMANNA   O6       OC311   -0.650000       15.9994           0
      1874 LPSA2    21       BMANNA   HO6      HCP1     0.420000       1.00800           0
      1875 LPSA2    22       BGLCNA   C1       CC3162   0.290000       12.0110           0
      1876 LPSA2    22       BGLCNA   H1       HCA1     0.900000E-01   1.00800           0
      1877 LPSA2    22       BGLCNA   C5       CC3163   0.110000       12.0110           0
      1878 LPSA2    22       BGLCNA   H5       HCA1     0.900000E-01   1.00800           0
      1879 LPSA2    22       BGLCNA   O5       OC3C61  -0.400000       15.9994           0
      1880 LPSA2    22       BGLCNA   C2       CC3161   0.700000E-01   12.0110           0
      1881 LPSA2    22       BGLCNA   H2       HCA1     0.900000E-01   1.00800           0
      1882 LPSA2    22       BGLCNA   N        NC2D1   -0.470000       14.0070           0
      1883 LPSA2    22       BGLCNA   HN       HCP1     0.310000       1.00800           0
      1884 LPSA2    22       BGLCNA   C        CC2O1    0.510000       12.0110           0
      1885 LPSA2    22       BGLCNA   O        OC2D1   -0.510000       15.9994           0
      1886 LPSA2    22       BGLCNA   CT       CC331   -0.270000       12.0110           0
      1887 LPSA2    22       BGLCNA   HT1      HCA3     0.900000E-01   1.00800           0
      1888 LPSA2    22       BGLCNA   HT2      HCA3     0.900000E-01   1.00800           0
      1889 LPSA2    22       BGLCNA   HT3      HCA3     0.900000E-01   1.00800           0
      1890 LPSA2    22       BGLCNA   C3       CC3161   0.900000E-01   12.0110           0
      1891 LPSA2    22       BGLCNA   H3       HCA1     0.900000E-01   1.00800           0
      1892 LPSA2    22       BGLCNA   O3       OC301   -0.360000       15.9994           0
      1893 LPSA2    22       BGLCNA   C4       CC3161   0.140000       12.0110           0
      1894 LPSA2    22       BGLCNA   H4       HCA1     0.900000E-01   1.00800           0
      1895 LPSA2    22       BGLCNA   O4       OC311   -0.650000       15.9994           0
      1896 LPSA2    22       BGLCNA   HO4      HCP1     0.420000       1.00800           0
      1897 LPSA2    22       BGLCNA   C6       CC321    0.500000E-01   12.0110           0
      1898 LPSA2    22       BGLCNA   H61      HCA2     0.900000E-01   1.00800           0
      1899 LPSA2    22       BGLCNA   H62      HCA2     0.900000E-01   1.00800           0
      1900 LPSA2    22       BGLCNA   O6       OC311   -0.650000       15.9994           0
      1901 LPSA2    22       BGLCNA   HO6      HCP1     0.420000       1.00800           0
      1902 LPSA2    23       AGAL     C1       CC3162   0.290000       12.0110           0
      1903 LPSA2    23       AGAL     H1       HCA1     0.900000E-01   1.00800           0
      1904 LPSA2    23       AGAL     C5       CC3163   0.110000       12.0110           0
      1905 LPSA2    23       AGAL     H5       HCA1     0.900000E-01   1.00800           0
      1906 LPSA2    23       AGAL     O5       OC3C61  -0.400000       15.9994           0
      1907 LPSA2    23       AGAL     C2       CC3161   0.900000E-01   12.0110           0
      1908 LPSA2    23       AGAL     H2       HCA1     0.900000E-01   1.00800           0
      1909 LPSA2    23       AGAL     O2       OC301   -0.360000       15.9994           0
      1910 LPSA2    23       AGAL     C3       CC3161   0.140000       12.0110           0
      1911 LPSA2    23       AGAL     H3       HCA1     0.900000E-01   1.00800           0
      1912 LPSA2    23       AGAL     O3       OC311   -0.650000       15.9994           0
      1913 LPSA2    23       AGAL     HO3      HCP1     0.420000       1.00800           0
      1914 LPSA2    23       AGAL     C4       CC3161   0.140000       12.0110           0
      1915 LPSA2    23       AGAL     H4       HCA1     0.900000E-01   1.00800           0
      1916 LPSA2    23       AGAL     O4       OC311   -0.650000       15.9994           0
      1917 LPSA2    23       AGAL     HO4      HCP1     0.420000       1.00800           0
      1918 LPSA2    23       AGAL     C6       CC321    0.500000E-01   12.0110           0
      1919 LPSA2    23       AGAL     H61      HCA2     0.900000E-01   1.00800           0
      1920 LPSA2    23       AGAL     H62      HCA2     0.900000E-01   1.00800           0
      1921 LPSA2    23       AGAL     O6       OC311   -0.650000       15.9994           0
      1922 LPSA2    23       AGAL     HO6      HCP1     0.420000       1.00800           0
      1923 LPSA2    24       ARHM     C1       CC3162   0.290000       12.0110           0
      1924 LPSA2    24       ARHM     H1       HCA1     0.900000E-01   1.00800           0
      1925 LPSA2    24       ARHM     C5       CC3163   0.110000       12.0110           0
      1926 LPSA2    24       ARHM     H5       HCA1     0.900000E-01   1.00800           0
      1927 LPSA2    24       ARHM     O5       OC3C61  -0.400000       15.9994           0
      1928 LPSA2    24       ARHM     C2       CC3161   0.900000E-01   12.0110           0
      1929 LPSA2    24       ARHM     H2       HCA1     0.900000E-01   1.00800           0
      1930 LPSA2    24       ARHM     O2       OC301   -0.360000       15.9994           0
      1931 LPSA2    24       ARHM     C3       CC3161   0.140000       12.0110           0
      1932 LPSA2    24       ARHM     H3       HCA1     0.900000E-01   1.00800           0
      1933 LPSA2    24       ARHM     O3       OC311   -0.650000       15.9994           0
      1934 LPSA2    24       ARHM     HO3      HCP1     0.420000       1.00800           0
      1935 LPSA2    24       ARHM     C4       CC3161   0.140000       12.0110           0
      1936 LPSA2    24       ARHM     H4       HCA1     0.900000E-01   1.00800           0
      1937 LPSA2    24       ARHM     O4       OC311   -0.650000       15.9994           0
      1938 LPSA2    24       ARHM     HO4      HCP1     0.420000       1.00800           0
      1939 LPSA2    24       ARHM     C6       CC331   -0.270000       12.0110           0
      1940 LPSA2    24       ARHM     H61      HCA3     0.900000E-01   1.00800           0
      1941 LPSA2    24       ARHM     H62      HCA3     0.900000E-01   1.00800           0
      1942 LPSA2    24       ARHM     H63      HCA3     0.900000E-01   1.00800           0
      1943 LPSA2    25       ARHM     C1       CC3162   0.290000       12.0110           0
      1944 LPSA2    25       ARHM     H1       HCA1     0.900000E-01   1.00800           0
      1945 LPSA2    25       ARHM     C5       CC3163   0.110000       12.0110           0
      1946 LPSA2    25       ARHM     H5       HCA1     0.900000E-01   1.00800           0
      1947 LPSA2    25       ARHM     O5       OC3C61  -0.400000       15.9994           0
      1948 LPSA2    25       ARHM     C2       CC3161   0.900000E-01   12.0110           0
      1949 LPSA2    25       ARHM     H2       HCA1     0.900000E-01   1.00800           0
      1950 LPSA2    25       ARHM     O2       OC301   -0.360000       15.9994           0
      1951 LPSA2    25       ARHM     C3       CC3161   0.900000E-01   12.0110           0
      1952 LPSA2    25       ARHM     H3       HCA1     0.900000E-01   1.00800           0
      1953 LPSA2    25       ARHM     O3       OC301   -0.360000       15.9994           0
      1954 LPSA2    25       ARHM     C4       CC3161   0.140000       12.0110           0
      1955 LPSA2    25       ARHM     H4       HCA1     0.900000E-01   1.00800           0
      1956 LPSA2    25       ARHM     O4       OC311   -0.650000       15.9994           0
      1957 LPSA2    25       ARHM     HO4      HCP1     0.420000       1.00800           0
      1958 LPSA2    25       ARHM     C6       CC331   -0.270000       12.0110           0
      1959 LPSA2    25       ARHM     H61      HCA3     0.900000E-01   1.00800           0
      1960 LPSA2    25       ARHM     H62      HCA3     0.900000E-01   1.00800           0
      1961 LPSA2    25       ARHM     H63      HCA3     0.900000E-01   1.00800           0
      1962 LPSA2    26       BMANNA   C1       CC3162   0.290000       12.0110           0
      1963 LPSA2    26       BMANNA   H1       HCA1     0.900000E-01   1.00800           0
      1964 LPSA2    26       BMANNA   C5       CC3163   0.110000       12.0110           0
      1965 LPSA2    26       BMANNA   H5       HCA1     0.900000E-01   1.00800           0
      1966 LPSA2    26       BMANNA   O5       OC3C61  -0.400000       15.9994           0
      1967 LPSA2    26       BMANNA   C2       CC3161   0.700000E-01   12.0110           0
      1968 LPSA2    26       BMANNA   H2       HCA1     0.900000E-01   1.00800           0
      1969 LPSA2    26       BMANNA   N        NC2D1   -0.470000       14.0070           0
      1970 LPSA2    26       BMANNA   HN       HCP1     0.310000       1.00800           0
      1971 LPSA2    26       BMANNA   C        CC2O1    0.510000       12.0110           0
      1972 LPSA2    26       BMANNA   O        OC2D1   -0.510000       15.9994           0
      1973 LPSA2    26       BMANNA   CT       CC331   -0.270000       12.0110           0
      1974 LPSA2    26       BMANNA   HT1      HCA3     0.900000E-01   1.00800           0
      1975 LPSA2    26       BMANNA   HT2      HCA3     0.900000E-01   1.00800           0
      1976 LPSA2    26       BMANNA   HT3      HCA3     0.900000E-01   1.00800           0
      1977 LPSA2    26       BMANNA   C3       CC3161   0.140000       12.0110           0
      1978 LPSA2    26       BMANNA   H3       HCA1     0.900000E-01   1.00800           0
      1979 LPSA2    26       BMANNA   O3       OC311   -0.650000       15.9994           0
      1980 LPSA2    26       BMANNA   HO3      HCP1     0.420000       1.00800           0
      1981 LPSA2    26       BMANNA   C4       CC3161   0.140000       12.0110           0
      1982 LPSA2    26       BMANNA   H4       HCA1     0.900000E-01   1.00800           0
      1983 LPSA2    26       BMANNA   O4       OC311   -0.650000       15.9994           0
      1984 LPSA2    26       BMANNA   HO4      HCP1     0.420000       1.00800           0
      1985 LPSA2    26       BMANNA   C6       CC321    0.500000E-01   12.0110           0
      1986 LPSA2    26       BMANNA   H61      HCA2     0.900000E-01   1.00800           0
      1987 LPSA2    26       BMANNA   H62      HCA2     0.900000E-01   1.00800           0
      1988 LPSA2    26       BMANNA   O6       OC311   -0.650000       15.9994           0
      1989 LPSA2    26       BMANNA   HO6      HCP1     0.420000       1.00800           0
      1990 LPSA2    27       BGLCNA   C1       CC3162   0.290000       12.0110           0
      1991 LPSA2    27       BGLCNA   H1       HCA1     0.900000E-01   1.00800           0
      1992 LPSA2    27       BGLCNA   C5       CC3163   0.110000       12.0110           0
      1993 LPSA2    27       BGLCNA   H5       HCA1     0.900000E-01   1.00800           0
      1994 LPSA2    27       BGLCNA   O5       OC3C61  -0.400000       15.9994           0
      1995 LPSA2    27       BGLCNA   C2       CC3161   0.700000E-01   12.0110           0
      1996 LPSA2    27       BGLCNA   H2       HCA1     0.900000E-01   1.00800           0
      1997 LPSA2    27       BGLCNA   N        NC2D1   -0.470000       14.0070           0
      1998 LPSA2    27       BGLCNA   HN       HCP1     0.310000       1.00800           0
      1999 LPSA2    27       BGLCNA   C        CC2O1    0.510000       12.0110           0
      2000 LPSA2    27       BGLCNA   O        OC2D1   -0.510000       15.9994           0
      2001 LPSA2    27       BGLCNA   CT       CC331   -0.270000       12.0110           0
      2002 LPSA2    27       BGLCNA   HT1      HCA3     0.900000E-01   1.00800           0
      2003 LPSA2    27       BGLCNA   HT2      HCA3     0.900000E-01   1.00800           0
      2004 LPSA2    27       BGLCNA   HT3      HCA3     0.900000E-01   1.00800           0
      2005 LPSA2    27       BGLCNA   C3       CC3161   0.900000E-01   12.0110           0
      2006 LPSA2    27       BGLCNA   H3       HCA1     0.900000E-01   1.00800           0
      2007 LPSA2    27       BGLCNA   O3       OC301   -0.360000       15.9994           0
      2008 LPSA2    27       BGLCNA   C4       CC3161   0.140000       12.0110           0
      2009 LPSA2    27       BGLCNA   H4       HCA1     0.900000E-01   1.00800           0
      2010 LPSA2    27       BGLCNA   O4       OC311   -0.650000       15.9994           0
      2011 LPSA2    27       BGLCNA   HO4      HCP1     0.420000       1.00800           0
      2012 LPSA2    27       BGLCNA   C6       CC321    0.500000E-01   12.0110           0
      2013 LPSA2    27       BGLCNA   H61      HCA2     0.900000E-01   1.00800           0
      2014 LPSA2    27       BGLCNA   H62      HCA2     0.900000E-01   1.00800           0
      2015 LPSA2    27       BGLCNA   O6       OC311   -0.650000       15.9994           0
      2016 LPSA2    27       BGLCNA   HO6      HCP1     0.420000       1.00800           0
      2017 LPSA2    28       AGAL     C1       CC3162   0.290000       12.0110           0
      2018 LPSA2    28       AGAL     H1       HCA1     0.900000E-01   1.00800           0
      2019 LPSA2    28       AGAL     C5       CC3163   0.110000       12.0110           0
      2020 LPSA2    28       AGAL     H5       HCA1     0.900000E-01   1.00800           0
      2021 LPSA2    28       AGAL     O5       OC3C61  -0.400000       15.9994           0
      2022 LPSA2    28       AGAL     C2       CC3161   0.900000E-01   12.0110           0
      2023 LPSA2    28       AGAL     H2       HCA1     0.900000E-01   1.00800           0
      2024 LPSA2    28       AGAL     O2       OC301   -0.360000       15.9994           0
      2025 LPSA2    28       AGAL     C3       CC3161   0.140000       12.0110           0
      2026 LPSA2    28       AGAL     H3       HCA1     0.900000E-01   1.00800           0
      2027 LPSA2    28       AGAL     O3       OC311   -0.650000       15.9994           0
      2028 LPSA2    28       AGAL     HO3      HCP1     0.420000       1.00800           0
      2029 LPSA2    28       AGAL     C4       CC3161   0.140000       12.0110           0
      2030 LPSA2    28       AGAL     H4       HCA1     0.900000E-01   1.00800           0
      2031 LPSA2    28       AGAL     O4       OC311   -0.650000       15.9994           0
      2032 LPSA2    28       AGAL     HO4      HCP1     0.420000       1.00800           0
      2033 LPSA2    28       AGAL     C6       CC321    0.500000E-01   12.0110           0
      2034 LPSA2    28       AGAL     H61      HCA2     0.900000E-01   1.00800           0
      2035 LPSA2    28       AGAL     H62      HCA2     0.900000E-01   1.00800           0
      2036 LPSA2    28       AGAL     O6       OC311   -0.650000       15.9994           0
      2037 LPSA2    28       AGAL     HO6      HCP1     0.420000       1.00800           0
      2038 LPSA2    29       ARHM     C1       CC3162   0.290000       12.0110           0
      2039 LPSA2    29       ARHM     H1       HCA1     0.900000E-01   1.00800           0
      2040 LPSA2    29       ARHM     C5       CC3163   0.110000       12.0110           0
      2041 LPSA2    29       ARHM     H5       HCA1     0.900000E-01   1.00800           0
      2042 LPSA2    29       ARHM     O5       OC3C61  -0.400000       15.9994           0
      2043 LPSA2    29       ARHM     C2       CC3161   0.900000E-01   12.0110           0
      2044 LPSA2    29       ARHM     H2       HCA1     0.900000E-01   1.00800           0
      2045 LPSA2    29       ARHM     O2       OC301   -0.360000       15.9994           0
      2046 LPSA2    29       ARHM     C3       CC3161   0.140000       12.0110           0
      2047 LPSA2    29       ARHM     H3       HCA1     0.900000E-01   1.00800           0
      2048 LPSA2    29       ARHM     O3       OC311   -0.650000       15.9994           0
      2049 LPSA2    29       ARHM     HO3      HCP1     0.420000       1.00800           0
      2050 LPSA2    29       ARHM     C4       CC3161   0.140000       12.0110           0
      2051 LPSA2    29       ARHM     H4       HCA1     0.900000E-01   1.00800           0
      2052 LPSA2    29       ARHM     O4       OC311   -0.650000       15.9994           0
      2053 LPSA2    29       ARHM     HO4      HCP1     0.420000       1.00800           0
      2054 LPSA2    29       ARHM     C6       CC331   -0.270000       12.0110           0
      2055 LPSA2    29       ARHM     H61      HCA3     0.900000E-01   1.00800           0
      2056 LPSA2    29       ARHM     H62      HCA3     0.900000E-01   1.00800           0
      2057 LPSA2    29       ARHM     H63      HCA3     0.900000E-01   1.00800           0
      2058 LPSA2    30       ARHM     C1       CC3162   0.290000       12.0110           0
      2059 LPSA2    30       ARHM     H1       HCA1     0.900000E-01   1.00800           0
      2060 LPSA2    30       ARHM     C5       CC3163   0.110000       12.0110           0
      2061 LPSA2    30       ARHM     H5       HCA1     0.900000E-01   1.00800           0
      2062 LPSA2    30       ARHM     O5       OC3C61  -0.400000       15.9994           0
      2063 LPSA2    30       ARHM     C2       CC3161   0.900000E-01   12.0110           0
      2064 LPSA2    30       ARHM     H2       HCA1     0.900000E-01   1.00800           0
      2065 LPSA2    30       ARHM     O2       OC301   -0.360000       15.9994           0
      2066 LPSA2    30       ARHM     C3       CC3161   0.900000E-01   12.0110           0
      2067 LPSA2    30       ARHM     H3       HCA1     0.900000E-01   1.00800           0
      2068 LPSA2    30       ARHM     O3       OC301   -0.360000       15.9994           0
      2069 LPSA2    30       ARHM     C4       CC3161   0.140000       12.0110           0
      2070 LPSA2    30       ARHM     H4       HCA1     0.900000E-01   1.00800           0
      2071 LPSA2    30       ARHM     O4       OC311   -0.650000       15.9994           0
      2072 LPSA2    30       ARHM     HO4      HCP1     0.420000       1.00800           0
      2073 LPSA2    30       ARHM     C6       CC331   -0.270000       12.0110           0
      2074 LPSA2    30       ARHM     H61      HCA3     0.900000E-01   1.00800           0
      2075 LPSA2    30       ARHM     H62      HCA3     0.900000E-01   1.00800           0
      2076 LPSA2    30       ARHM     H63      HCA3     0.900000E-01   1.00800           0
      2077 LPSA2    31       BMANNA   C1       CC3162   0.290000       12.0110           0
      2078 LPSA2    31       BMANNA   H1       HCA1     0.900000E-01   1.00800           0
      2079 LPSA2    31       BMANNA   C5       CC3163   0.110000       12.0110           0
      2080 LPSA2    31       BMANNA   H5       HCA1     0.900000E-01   1.00800           0
      2081 LPSA2    31       BMANNA   O5       OC3C61  -0.400000       15.9994           0
      2082 LPSA2    31       BMANNA   C2       CC3161   0.700000E-01   12.0110           0
      2083 LPSA2    31       BMANNA   H2       HCA1     0.900000E-01   1.00800           0
      2084 LPSA2    31       BMANNA   N        NC2D1   -0.470000       14.0070           0
      2085 LPSA2    31       BMANNA   HN       HCP1     0.310000       1.00800           0
      2086 LPSA2    31       BMANNA   C        CC2O1    0.510000       12.0110           0
      2087 LPSA2    31       BMANNA   O        OC2D1   -0.510000       15.9994           0
      2088 LPSA2    31       BMANNA   CT       CC331   -0.270000       12.0110           0
      2089 LPSA2    31       BMANNA   HT1      HCA3     0.900000E-01   1.00800           0
      2090 LPSA2    31       BMANNA   HT2      HCA3     0.900000E-01   1.00800           0
      2091 LPSA2    31       BMANNA   HT3      HCA3     0.900000E-01   1.00800           0
      2092 LPSA2    31       BMANNA   C3       CC3161   0.140000       12.0110           0
      2093 LPSA2    31       BMANNA   H3       HCA1     0.900000E-01   1.00800           0
      2094 LPSA2    31       BMANNA   O3       OC311   -0.650000       15.9994           0
      2095 LPSA2    31       BMANNA   HO3      HCP1     0.420000       1.00800           0
      2096 LPSA2    31       BMANNA   C4       CC3161   0.140000       12.0110           0
      2097 LPSA2    31       BMANNA   H4       HCA1     0.900000E-01   1.00800           0
      2098 LPSA2    31       BMANNA   O4       OC311   -0.650000       15.9994           0
      2099 LPSA2    31       BMANNA   HO4      HCP1     0.420000       1.00800           0
      2100 LPSA2    31       BMANNA   C6       CC321    0.500000E-01   12.0110           0
      2101 LPSA2    31       BMANNA   H61      HCA2     0.900000E-01   1.00800           0
      2102 LPSA2    31       BMANNA   H62      HCA2     0.900000E-01   1.00800           0
      2103 LPSA2    31       BMANNA   O6       OC311   -0.650000       15.9994           0
      2104 LPSA2    31       BMANNA   HO6      HCP1     0.420000       1.00800           0
      2105 LPSA2    32       BGLCNA   C1       CC3162   0.290000       12.0110           0
      2106 LPSA2    32       BGLCNA   H1       HCA1     0.900000E-01   1.00800           0
      2107 LPSA2    32       BGLCNA   C5       CC3163   0.110000       12.0110           0
      2108 LPSA2    32       BGLCNA   H5       HCA1     0.900000E-01   1.00800           0
      2109 LPSA2    32       BGLCNA   O5       OC3C61  -0.400000       15.9994           0
      2110 LPSA2    32       BGLCNA   C2       CC3161   0.700000E-01   12.0110           0
      2111 LPSA2    32       BGLCNA   H2       HCA1     0.900000E-01   1.00800           0
      2112 LPSA2    32       BGLCNA   N        NC2D1   -0.470000       14.0070           0
      2113 LPSA2    32       BGLCNA   HN       HCP1     0.310000       1.00800           0
      2114 LPSA2    32       BGLCNA   C        CC2O1    0.510000       12.0110           0
      2115 LPSA2    32       BGLCNA   O        OC2D1   -0.510000       15.9994           0
      2116 LPSA2    32       BGLCNA   CT       CC331   -0.270000       12.0110           0
      2117 LPSA2    32       BGLCNA   HT1      HCA3     0.900000E-01   1.00800           0
      2118 LPSA2    32       BGLCNA   HT2      HCA3     0.900000E-01   1.00800           0
      2119 LPSA2    32       BGLCNA   HT3      HCA3     0.900000E-01   1.00800           0
      2120 LPSA2    32       BGLCNA   C3       CC3161   0.900000E-01   12.0110           0
      2121 LPSA2    32       BGLCNA   H3       HCA1     0.900000E-01   1.00800           0
      2122 LPSA2    32       BGLCNA   O3       OC301   -0.360000       15.9994           0
      2123 LPSA2    32       BGLCNA   C4       CC3161   0.140000       12.0110           0
      2124 LPSA2    32       BGLCNA   H4       HCA1     0.900000E-01   1.00800           0
      2125 LPSA2    32       BGLCNA   O4       OC311   -0.650000       15.9994           0
      2126 LPSA2    32       BGLCNA   HO4      HCP1     0.420000       1.00800           0
      2127 LPSA2    32       BGLCNA   C6       CC321    0.500000E-01   12.0110           0
      2128 LPSA2    32       BGLCNA   H61      HCA2     0.900000E-01   1.00800           0
      2129 LPSA2    32       BGLCNA   H62      HCA2     0.900000E-01   1.00800           0
      2130 LPSA2    32       BGLCNA   O6       OC311   -0.650000       15.9994           0
      2131 LPSA2    32       BGLCNA   HO6      HCP1     0.420000       1.00800           0
      2132 LPSA2    33       AGAL     C1       CC3162   0.290000       12.0110           0
      2133 LPSA2    33       AGAL     H1       HCA1     0.900000E-01   1.00800           0
      2134 LPSA2    33       AGAL     C5       CC3163   0.110000       12.0110           0
      2135 LPSA2    33       AGAL     H5       HCA1     0.900000E-01   1.00800           0
      2136 LPSA2    33       AGAL     O5       OC3C61  -0.400000       15.9994           0
      2137 LPSA2    33       AGAL     C2       CC3161   0.900000E-01   12.0110           0
      2138 LPSA2    33       AGAL     H2       HCA1     0.900000E-01   1.00800           0
      2139 LPSA2    33       AGAL     O2       OC301   -0.360000       15.9994           0
      2140 LPSA2    33       AGAL     C3       CC3161   0.140000       12.0110           0
      2141 LPSA2    33       AGAL     H3       HCA1     0.900000E-01   1.00800           0
      2142 LPSA2    33       AGAL     O3       OC311   -0.650000       15.9994           0
      2143 LPSA2    33       AGAL     HO3      HCP1     0.420000       1.00800           0
      2144 LPSA2    33       AGAL     C4       CC3161   0.140000       12.0110           0
      2145 LPSA2    33       AGAL     H4       HCA1     0.900000E-01   1.00800           0
      2146 LPSA2    33       AGAL     O4       OC311   -0.650000       15.9994           0
      2147 LPSA2    33       AGAL     HO4      HCP1     0.420000       1.00800           0
      2148 LPSA2    33       AGAL     C6       CC321    0.500000E-01   12.0110           0
      2149 LPSA2    33       AGAL     H61      HCA2     0.900000E-01   1.00800           0
      2150 LPSA2    33       AGAL     H62      HCA2     0.900000E-01   1.00800           0
      2151 LPSA2    33       AGAL     O6       OC311   -0.650000       15.9994           0
      2152 LPSA2    33       AGAL     HO6      HCP1     0.420000       1.00800           0
      2153 LPSA2    34       ARHM     C1       CC3162   0.290000       12.0110           0
      2154 LPSA2    34       ARHM     H1       HCA1     0.900000E-01   1.00800           0
      2155 LPSA2    34       ARHM     C5       CC3163   0.110000       12.0110           0
      2156 LPSA2    34       ARHM     H5       HCA1     0.900000E-01   1.00800           0
      2157 LPSA2    34       ARHM     O5       OC3C61  -0.400000       15.9994           0
      2158 LPSA2    34       ARHM     C2       CC3161   0.900000E-01   12.0110           0
      2159 LPSA2    34       ARHM     H2       HCA1     0.900000E-01   1.00800           0
      2160 LPSA2    34       ARHM     O2       OC301   -0.360000       15.9994           0
      2161 LPSA2    34       ARHM     C3       CC3161   0.140000       12.0110           0
      2162 LPSA2    34       ARHM     H3       HCA1     0.900000E-01   1.00800           0
      2163 LPSA2    34       ARHM     O3       OC311   -0.650000       15.9994           0
      2164 LPSA2    34       ARHM     HO3      HCP1     0.420000       1.00800           0
      2165 LPSA2    34       ARHM     C4       CC3161   0.140000       12.0110           0
      2166 LPSA2    34       ARHM     H4       HCA1     0.900000E-01   1.00800           0
      2167 LPSA2    34       ARHM     O4       OC311   -0.650000       15.9994           0
      2168 LPSA2    34       ARHM     HO4      HCP1     0.420000       1.00800           0
      2169 LPSA2    34       ARHM     C6       CC331   -0.270000       12.0110           0
      2170 LPSA2    34       ARHM     H61      HCA3     0.900000E-01   1.00800           0
      2171 LPSA2    34       ARHM     H62      HCA3     0.900000E-01   1.00800           0
      2172 LPSA2    34       ARHM     H63      HCA3     0.900000E-01   1.00800           0
      2173 LPSA2    35       ARHM     C1       CC3162   0.290000       12.0110           0
      2174 LPSA2    35       ARHM     H1       HCA1     0.900000E-01   1.00800           0
      2175 LPSA2    35       ARHM     C5       CC3163   0.110000       12.0110           0
      2176 LPSA2    35       ARHM     H5       HCA1     0.900000E-01   1.00800           0
      2177 LPSA2    35       ARHM     O5       OC3C61  -0.400000       15.9994           0
      2178 LPSA2    35       ARHM     C2       CC3161   0.900000E-01   12.0110           0
      2179 LPSA2    35       ARHM     H2       HCA1     0.900000E-01   1.00800           0
      2180 LPSA2    35       ARHM     O2       OC301   -0.360000       15.9994           0
      2181 LPSA2    35       ARHM     C3       CC3161   0.140000       12.0110           0
      2182 LPSA2    35       ARHM     H3       HCA1     0.900000E-01   1.00800           0
      2183 LPSA2    35       ARHM     O3       OC311   -0.650000       15.9994           0
      2184 LPSA2    35       ARHM     HO3      HCP1     0.420000       1.00800           0
      2185 LPSA2    35       ARHM     C4       CC3161   0.140000       12.0110           0
      2186 LPSA2    35       ARHM     H4       HCA1     0.900000E-01   1.00800           0
      2187 LPSA2    35       ARHM     O4       OC311   -0.650000       15.9994           0
      2188 LPSA2    35       ARHM     HO4      HCP1     0.420000       1.00800           0
      2189 LPSA2    35       ARHM     C6       CC331   -0.270000       12.0110           0
      2190 LPSA2    35       ARHM     H61      HCA3     0.900000E-01   1.00800           0
      2191 LPSA2    35       ARHM     H62      HCA3     0.900000E-01   1.00800           0
      2192 LPSA2    35       ARHM     H63      HCA3     0.900000E-01   1.00800           0
      2193 LPSA2    36       BMANNA   C1       CC3162   0.290000       12.0110           0
      2194 LPSA2    36       BMANNA   H1       HCA1     0.900000E-01   1.00800           0
      2195 LPSA2    36       BMANNA   C5       CC3163   0.110000       12.0110           0
      2196 LPSA2    36       BMANNA   H5       HCA1     0.900000E-01   1.00800           0
      2197 LPSA2    36       BMANNA   O5       OC3C61  -0.400000       15.9994           0
      2198 LPSA2    36       BMANNA   C2       CC3161   0.700000E-01   12.0110           0
      2199 LPSA2    36       BMANNA   H2       HCA1     0.900000E-01   1.00800           0
      2200 LPSA2    36       BMANNA   N        NC2D1   -0.470000       14.0070           0
      2201 LPSA2    36       BMANNA   HN       HCP1     0.310000       1.00800           0
      2202 LPSA2    36       BMANNA   C        CC2O1    0.510000       12.0110           0
      2203 LPSA2    36       BMANNA   O        OC2D1   -0.510000       15.9994           0
      2204 LPSA2    36       BMANNA   CT       CC331   -0.270000       12.0110           0
      2205 LPSA2    36       BMANNA   HT1      HCA3     0.900000E-01   1.00800           0
      2206 LPSA2    36       BMANNA   HT2      HCA3     0.900000E-01   1.00800           0
      2207 LPSA2    36       BMANNA   HT3      HCA3     0.900000E-01   1.00800           0
      2208 LPSA2    36       BMANNA   C3       CC3161   0.140000       12.0110           0
      2209 LPSA2    36       BMANNA   H3       HCA1     0.900000E-01   1.00800           0
      2210 LPSA2    36       BMANNA   O3       OC311   -0.650000       15.9994           0
      2211 LPSA2    36       BMANNA   HO3      HCP1     0.420000       1.00800           0
      2212 LPSA2    36       BMANNA   C4       CC3161   0.140000       12.0110           0
      2213 LPSA2    36       BMANNA   H4       HCA1     0.900000E-01   1.00800           0
      2214 LPSA2    36       BMANNA   O4       OC311   -0.650000       15.9994           0
      2215 LPSA2    36       BMANNA   HO4      HCP1     0.420000       1.00800           0
      2216 LPSA2    36       BMANNA   C6       CC321    0.500000E-01   12.0110           0
      2217 LPSA2    36       BMANNA   H61      HCA2     0.900000E-01   1.00800           0
      2218 LPSA2    36       BMANNA   H62      HCA2     0.900000E-01   1.00800           0
      2219 LPSA2    36       BMANNA   O6       OC311   -0.650000       15.9994           0
      2220 LPSA2    36       BMANNA   HO6      HCP1     0.420000       1.00800           0
      2221 LPSA3    1        ECLIPA   HB6S     HCA2     0.900000E-01   1.00800           0
      2222 LPSA3    1        ECLIPA   OB6      OC301   -0.360000       15.9994           0
      2223 LPSA3    1        ECLIPA   CB6      CC321     0.00000       12.0110           0
      2224 LPSA3    1        ECLIPA   HB6R     HCA2     0.900000E-01   1.00800           0
      2225 LPSA3    1        ECLIPA   CB5      CC3163   0.110000       12.0110           0
      2226 LPSA3    1        ECLIPA   OB5      OC3C61  -0.400000       15.9994           0
      2227 LPSA3    1        ECLIPA   HB5      HCA1     0.900000E-01   1.00800           0
      2228 LPSA3    1        ECLIPA   CB1      CC3162   0.290000       12.0110           0
      2229 LPSA3    1        ECLIPA   HB1      HCA1     0.900000E-01   1.00800           0
      2230 LPSA3    1        ECLIPA   OA6      OC301   -0.360000       15.9994           0
      2231 LPSA3    1        ECLIPA   CA6      CC321     0.00000       12.0110           0
      2232 LPSA3    1        ECLIPA   HA6R     HCA2     0.900000E-01   1.00800           0
      2233 LPSA3    1        ECLIPA   HA6S     HCA2     0.900000E-01   1.00800           0
      2234 LPSA3    1        ECLIPA   CB4      CC3161  -0.900000E-01   12.0110           0
      2235 LPSA3    1        ECLIPA   HB4      HCA1     0.900000E-01   1.00800           0
      2236 LPSA3    1        ECLIPA   OB4      OC30P   -0.400000       15.9994           0
      2237 LPSA3    1        ECLIPA   PB       PC        1.10000       30.9740           0
      2238 LPSA3    1        ECLIPA   OPB4     OC2DP   -0.900000       15.9994           0
      2239 LPSA3    1        ECLIPA   OPB3     OC2DP   -0.900000       15.9994           0
      2240 LPSA3    1        ECLIPA   OPB2     OC2DP   -0.900000       15.9994           0
      2241 LPSA3    1        ECLIPA   CB3      CC3161   0.170000       12.0110           0
      2242 LPSA3    1        ECLIPA   OB3      OC301   -0.490000       15.9994           0
      2243 LPSA3    1        ECLIPA   HB3      HCA1     0.900000E-01   1.00800           0
      2244 LPSA3    1        ECLIPA   C71      CL       0.900000       12.0110           0
      2245 LPSA3    1        ECLIPA   O71      OBL     -0.630000       15.9994           0
      2246 LPSA3    1        ECLIPA   C72      CTL2    -0.220000       12.0110           0
      2247 LPSA3    1        ECLIPA   H72R     HAL2     0.900000E-01   1.00800           0
      2248 LPSA3    1        ECLIPA   H72S     HAL2     0.900000E-01   1.00800           0
      2249 LPSA3    1        ECLIPA   CB2      CC3161   0.700000E-01   12.0110           0
      2250 LPSA3    1        ECLIPA   HB2      HCA1     0.900000E-01   1.00800           0
      2251 LPSA3    1        ECLIPA   NB2      NC2D1   -0.470000       14.0070           0
      2252 LPSA3    1        ECLIPA   HNB2     HCP1     0.310000       1.00800           0
      2253 LPSA3    1        ECLIPA   CA4      CC3161   0.140000       12.0110           0
      2254 LPSA3    1        ECLIPA   HA4      HCA1     0.900000E-01   1.00800           0
      2255 LPSA3    1        ECLIPA   OA4      OC311   -0.650000       15.9994           0
      2256 LPSA3    1        ECLIPA   HOA4     HCP1     0.420000       1.00800           0
      2257 LPSA3    1        ECLIPA   CA5      CC3163   0.110000       12.0110           0
      2258 LPSA3    1        ECLIPA   HA5      HCA1     0.900000E-01   1.00800           0
      2259 LPSA3    1        ECLIPA   OA5      OC3C61  -0.400000       15.9994           0
      2260 LPSA3    1        ECLIPA   CA1      CC3162   0.110000       12.0110           0
      2261 LPSA3    1        ECLIPA   HA1      HCA1     0.900000E-01   1.00800           0
      2262 LPSA3    1        ECLIPA   OA1      OC30P   -0.400000       15.9994           0
      2263 LPSA3    1        ECLIPA   OPA2     OC2DP   -0.900000       15.9994           0
      2264 LPSA3    1        ECLIPA   OPA3     OC2DP   -0.900000       15.9994           0
      2265 LPSA3    1        ECLIPA   OPA4     OC2DP   -0.900000       15.9994           0
      2266 LPSA3    1        ECLIPA   PA       PC        1.10000       30.9740           0
      2267 LPSA3    1        ECLIPA   CA3      CC3161   0.170000       12.0110           0
      2268 LPSA3    1        ECLIPA   HA3      HCA1     0.900000E-01   1.00800           0
      2269 LPSA3    1        ECLIPA   OA3      OC301   -0.490000       15.9994           0
      2270 LPSA3    1        ECLIPA   C31      CL       0.900000       12.0110           0
      2271 LPSA3    1        ECLIPA   O31      OBL     -0.630000       15.9994           0
      2272 LPSA3    1        ECLIPA   C32      CTL2    -0.220000       12.0110           0
      2273 LPSA3    1        ECLIPA   H32R     HAL2     0.900000E-01   1.00800           0
      2274 LPSA3    1        ECLIPA   H32S     HAL2     0.900000E-01   1.00800           0
      2275 LPSA3    1        ECLIPA   CA2      CC3161   0.700000E-01   12.0110           0
      2276 LPSA3    1        ECLIPA   HA2      HCA1     0.900000E-01   1.00800           0
      2277 LPSA3    1        ECLIPA   NA2      NC2D1   -0.470000       14.0070           0
      2278 LPSA3    1        ECLIPA   HNA2     HCP1     0.310000       1.00800           0
      2279 LPSA3    1        ECLIPA   C73      CTL1     0.170000       12.0110           0
      2280 LPSA3    1        ECLIPA   H73R     HAL1     0.900000E-01   1.00800           0
      2281 LPSA3    1        ECLIPA   O73      OSL     -0.490000       15.9994           0
      2282 LPSA3    1        ECLIPA   C81      CL       0.900000       12.0110           0
      2283 LPSA3    1        ECLIPA   O81      OBL     -0.630000       15.9994           0
      2284 LPSA3    1        ECLIPA   C82      CTL2    -0.220000       12.0110           0
      2285 LPSA3    1        ECLIPA   H82R     HAL2     0.900000E-01   1.00800           0
      2286 LPSA3    1        ECLIPA   H82S     HAL2     0.900000E-01   1.00800           0
      2287 LPSA3    1        ECLIPA   C83      CTL2    -0.180000       12.0110           0
      2288 LPSA3    1        ECLIPA   H83R     HAL2     0.900000E-01   1.00800           0
      2289 LPSA3    1        ECLIPA   H83S     HAL2     0.900000E-01   1.00800           0
      2290 LPSA3    1        ECLIPA   C84      CTL2    -0.180000       12.0110           0
      2291 LPSA3    1        ECLIPA   H84R     HAL2     0.900000E-01   1.00800           0
      2292 LPSA3    1        ECLIPA   H84S     HAL2     0.900000E-01   1.00800           0
      2293 LPSA3    1        ECLIPA   C85      CTL2    -0.180000       12.0110           0
      2294 LPSA3    1        ECLIPA   H85R     HAL2     0.900000E-01   1.00800           0
      2295 LPSA3    1        ECLIPA   H85S     HAL2     0.900000E-01   1.00800           0
      2296 LPSA3    1        ECLIPA   C86      CTL2    -0.180000       12.0110           0
      2297 LPSA3    1        ECLIPA   H86R     HAL2     0.900000E-01   1.00800           0
      2298 LPSA3    1        ECLIPA   H86S     HAL2     0.900000E-01   1.00800           0
      2299 LPSA3    1        ECLIPA   C87      CTL2    -0.180000       12.0110           0
      2300 LPSA3    1        ECLIPA   H87R     HAL2     0.900000E-01   1.00800           0
      2301 LPSA3    1        ECLIPA   H87S     HAL2     0.900000E-01   1.00800           0
      2302 LPSA3    1        ECLIPA   C88      CTL2    -0.180000       12.0110           0
      2303 LPSA3    1        ECLIPA   H88R     HAL2     0.900000E-01   1.00800           0
      2304 LPSA3    1        ECLIPA   H88S     HAL2     0.900000E-01   1.00800           0
      2305 LPSA3    1        ECLIPA   C89      CTL2    -0.180000       12.0110           0
      2306 LPSA3    1        ECLIPA   H89R     HAL2     0.900000E-01   1.00800           0
      2307 LPSA3    1        ECLIPA   H89S     HAL2     0.900000E-01   1.00800           0
      2308 LPSA3    1        ECLIPA   C810     CTL2    -0.180000       12.0110           0
      2309 LPSA3    1        ECLIPA   H810R    HAL2     0.900000E-01   1.00800           0
      2310 LPSA3    1        ECLIPA   H810S    HAL2     0.900000E-01   1.00800           0
      2311 LPSA3    1        ECLIPA   C811     CTL2    -0.180000       12.0110           0
      2312 LPSA3    1        ECLIPA   H811R    HAL2     0.900000E-01   1.00800           0
      2313 LPSA3    1        ECLIPA   H811S    HAL2     0.900000E-01   1.00800           0
      2314 LPSA3    1        ECLIPA   C812     CTL2    -0.180000       12.0110           0
      2315 LPSA3    1        ECLIPA   H812R    HAL2     0.900000E-01   1.00800           0
      2316 LPSA3    1        ECLIPA   H812S    HAL2     0.900000E-01   1.00800           0
      2317 LPSA3    1        ECLIPA   C813     CTL2    -0.180000       12.0110           0
      2318 LPSA3    1        ECLIPA   H813R    HAL2     0.900000E-01   1.00800           0
      2319 LPSA3    1        ECLIPA   H813S    HAL2     0.900000E-01   1.00800           0
      2320 LPSA3    1        ECLIPA   C814     CTL3    -0.270000       12.0110           0
      2321 LPSA3    1        ECLIPA   H814R    HAL3     0.900000E-01   1.00800           0
      2322 LPSA3    1        ECLIPA   H814S    HAL3     0.900000E-01   1.00800           0
      2323 LPSA3    1        ECLIPA   H814T    HAL3     0.900000E-01   1.00800           0
      2324 LPSA3    1        ECLIPA   C74      CTL2    -0.180000       12.0110           0
      2325 LPSA3    1        ECLIPA   H74R     HAL2     0.900000E-01   1.00800           0
      2326 LPSA3    1        ECLIPA   H74S     HAL2     0.900000E-01   1.00800           0
      2327 LPSA3    1        ECLIPA   C75      CTL2    -0.180000       12.0110           0
      2328 LPSA3    1        ECLIPA   H75R     HAL2     0.900000E-01   1.00800           0
      2329 LPSA3    1        ECLIPA   H75S     HAL2     0.900000E-01   1.00800           0
      2330 LPSA3    1        ECLIPA   C76      CTL2    -0.180000       12.0110           0
      2331 LPSA3    1        ECLIPA   H76R     HAL2     0.900000E-01   1.00800           0
      2332 LPSA3    1        ECLIPA   H76S     HAL2     0.900000E-01   1.00800           0
      2333 LPSA3    1        ECLIPA   C77      CTL2    -0.180000       12.0110           0
      2334 LPSA3    1        ECLIPA   H77R     HAL2     0.900000E-01   1.00800           0
      2335 LPSA3    1        ECLIPA   H77S     HAL2     0.900000E-01   1.00800           0
      2336 LPSA3    1        ECLIPA   C78      CTL2    -0.180000       12.0110           0
      2337 LPSA3    1        ECLIPA   H78R     HAL2     0.900000E-01   1.00800           0
      2338 LPSA3    1        ECLIPA   H78S     HAL2     0.900000E-01   1.00800           0
      2339 LPSA3    1        ECLIPA   C79      CTL2    -0.180000       12.0110           0
      2340 LPSA3    1        ECLIPA   H79R     HAL2     0.900000E-01   1.00800           0
      2341 LPSA3    1        ECLIPA   H79S     HAL2     0.900000E-01   1.00800           0
      2342 LPSA3    1        ECLIPA   C710     CTL2    -0.180000       12.0110           0
      2343 LPSA3    1        ECLIPA   H710R    HAL2     0.900000E-01   1.00800           0
      2344 LPSA3    1        ECLIPA   H710S    HAL2     0.900000E-01   1.00800           0
      2345 LPSA3    1        ECLIPA   C711     CTL2    -0.180000       12.0110           0
      2346 LPSA3    1        ECLIPA   H711R    HAL2     0.900000E-01   1.00800           0
      2347 LPSA3    1        ECLIPA   H711S    HAL2     0.900000E-01   1.00800           0
      2348 LPSA3    1        ECLIPA   C712     CTL2    -0.180000       12.0110           0
      2349 LPSA3    1        ECLIPA   H712R    HAL2     0.900000E-01   1.00800           0
      2350 LPSA3    1        ECLIPA   H712S    HAL2     0.900000E-01   1.00800           0
      2351 LPSA3    1        ECLIPA   C713     CTL2    -0.180000       12.0110           0
      2352 LPSA3    1        ECLIPA   H713R    HAL2     0.900000E-01   1.00800           0
      2353 LPSA3    1        ECLIPA   H713S    HAL2     0.900000E-01   1.00800           0
      2354 LPSA3    1        ECLIPA   C714     CTL3    -0.270000       12.0110           0
      2355 LPSA3    1        ECLIPA   H714R    HAL3     0.900000E-01   1.00800           0
      2356 LPSA3    1        ECLIPA   H714S    HAL3     0.900000E-01   1.00800           0
      2357 LPSA3    1        ECLIPA   H714T    HAL3     0.900000E-01   1.00800           0
      2358 LPSA3    1        ECLIPA   C51      CC2O1    0.550000       12.0110           0
      2359 LPSA3    1        ECLIPA   O51      OC2D1   -0.550000       15.9994           0
      2360 LPSA3    1        ECLIPA   C52      CTL2    -0.180000       12.0110           0
      2361 LPSA3    1        ECLIPA   H52R     HAL2     0.900000E-01   1.00800           0
      2362 LPSA3    1        ECLIPA   H52S     HAL2     0.900000E-01   1.00800           0
      2363 LPSA3    1        ECLIPA   C53      CTL1     0.170000       12.0110           0
      2364 LPSA3    1        ECLIPA   H53R     HAL1     0.900000E-01   1.00800           0
      2365 LPSA3    1        ECLIPA   O53      OSL     -0.490000       15.9994           0
      2366 LPSA3    1        ECLIPA   C61      CL       0.900000       12.0110           0
      2367 LPSA3    1        ECLIPA   O61      OBL     -0.630000       15.9994           0
      2368 LPSA3    1        ECLIPA   C62      CTL2    -0.220000       12.0110           0
      2369 LPSA3    1        ECLIPA   H62R     HAL2     0.900000E-01   1.00800           0
      2370 LPSA3    1        ECLIPA   H62S     HAL2     0.900000E-01   1.00800           0
      2371 LPSA3    1        ECLIPA   C63      CTL2    -0.180000       12.0110           0
      2372 LPSA3    1        ECLIPA   H63R     HAL2     0.900000E-01   1.00800           0
      2373 LPSA3    1        ECLIPA   H63S     HAL2     0.900000E-01   1.00800           0
      2374 LPSA3    1        ECLIPA   C64      CTL2    -0.180000       12.0110           0
      2375 LPSA3    1        ECLIPA   H64R     HAL2     0.900000E-01   1.00800           0
      2376 LPSA3    1        ECLIPA   H64S     HAL2     0.900000E-01   1.00800           0
      2377 LPSA3    1        ECLIPA   C65      CTL2    -0.180000       12.0110           0
      2378 LPSA3    1        ECLIPA   H65R     HAL2     0.900000E-01   1.00800           0
      2379 LPSA3    1        ECLIPA   H65S     HAL2     0.900000E-01   1.00800           0
      2380 LPSA3    1        ECLIPA   C66      CTL2    -0.180000       12.0110           0
      2381 LPSA3    1        ECLIPA   H66R     HAL2     0.900000E-01   1.00800           0
      2382 LPSA3    1        ECLIPA   H66S     HAL2     0.900000E-01   1.00800           0
      2383 LPSA3    1        ECLIPA   C67      CTL2    -0.180000       12.0110           0
      2384 LPSA3    1        ECLIPA   H67R     HAL2     0.900000E-01   1.00800           0
      2385 LPSA3    1        ECLIPA   H67S     HAL2     0.900000E-01   1.00800           0
      2386 LPSA3    1        ECLIPA   C68      CTL2    -0.180000       12.0110           0
      2387 LPSA3    1        ECLIPA   H68R     HAL2     0.900000E-01   1.00800           0
      2388 LPSA3    1        ECLIPA   H68S     HAL2     0.900000E-01   1.00800           0
      2389 LPSA3    1        ECLIPA   C69      CTL2    -0.180000       12.0110           0
      2390 LPSA3    1        ECLIPA   H69R     HAL2     0.900000E-01   1.00800           0
      2391 LPSA3    1        ECLIPA   H69S     HAL2     0.900000E-01   1.00800           0
      2392 LPSA3    1        ECLIPA   C610     CTL2    -0.180000       12.0110           0
      2393 LPSA3    1        ECLIPA   H610R    HAL2     0.900000E-01   1.00800           0
      2394 LPSA3    1        ECLIPA   H610S    HAL2     0.900000E-01   1.00800           0
      2395 LPSA3    1        ECLIPA   C611     CTL2    -0.180000       12.0110           0
      2396 LPSA3    1        ECLIPA   H611R    HAL2     0.900000E-01   1.00800           0
      2397 LPSA3    1        ECLIPA   H611S    HAL2     0.900000E-01   1.00800           0
      2398 LPSA3    1        ECLIPA   C612     CTL3    -0.270000       12.0110           0
      2399 LPSA3    1        ECLIPA   H612R    HAL3     0.900000E-01   1.00800           0
      2400 LPSA3    1        ECLIPA   H612S    HAL3     0.900000E-01   1.00800           0
      2401 LPSA3    1        ECLIPA   H612T    HAL3     0.900000E-01   1.00800           0
      2402 LPSA3    1        ECLIPA   C54      CTL2    -0.180000       12.0110           0
      2403 LPSA3    1        ECLIPA   H54R     HAL2     0.900000E-01   1.00800           0
      2404 LPSA3    1        ECLIPA   H54S     HAL2     0.900000E-01   1.00800           0
      2405 LPSA3    1        ECLIPA   C55      CTL2    -0.180000       12.0110           0
      2406 LPSA3    1        ECLIPA   H55R     HAL2     0.900000E-01   1.00800           0
      2407 LPSA3    1        ECLIPA   H55S     HAL2     0.900000E-01   1.00800           0
      2408 LPSA3    1        ECLIPA   C56      CTL2    -0.180000       12.0110           0
      2409 LPSA3    1        ECLIPA   H56R     HAL2     0.900000E-01   1.00800           0
      2410 LPSA3    1        ECLIPA   H56S     HAL2     0.900000E-01   1.00800           0
      2411 LPSA3    1        ECLIPA   C57      CTL2    -0.180000       12.0110           0
      2412 LPSA3    1        ECLIPA   H57R     HAL2     0.900000E-01   1.00800           0
      2413 LPSA3    1        ECLIPA   H57S     HAL2     0.900000E-01   1.00800           0
      2414 LPSA3    1        ECLIPA   C58      CTL2    -0.180000       12.0110           0
      2415 LPSA3    1        ECLIPA   H58R     HAL2     0.900000E-01   1.00800           0
      2416 LPSA3    1        ECLIPA   H58S     HAL2     0.900000E-01   1.00800           0
      2417 LPSA3    1        ECLIPA   C59      CTL2    -0.180000       12.0110           0
      2418 LPSA3    1        ECLIPA   H59R     HAL2     0.900000E-01   1.00800           0
      2419 LPSA3    1        ECLIPA   H59S     HAL2     0.900000E-01   1.00800           0
      2420 LPSA3    1        ECLIPA   C510     CTL2    -0.180000       12.0110           0
      2421 LPSA3    1        ECLIPA   H510R    HAL2     0.900000E-01   1.00800           0
      2422 LPSA3    1        ECLIPA   H510S    HAL2     0.900000E-01   1.00800           0
      2423 LPSA3    1        ECLIPA   C511     CTL2    -0.180000       12.0110           0
      2424 LPSA3    1        ECLIPA   H511R    HAL2     0.900000E-01   1.00800           0
      2425 LPSA3    1        ECLIPA   H511S    HAL2     0.900000E-01   1.00800           0
      2426 LPSA3    1        ECLIPA   C512     CTL2    -0.180000       12.0110           0
      2427 LPSA3    1        ECLIPA   H512R    HAL2     0.900000E-01   1.00800           0
      2428 LPSA3    1        ECLIPA   H512S    HAL2     0.900000E-01   1.00800           0
      2429 LPSA3    1        ECLIPA   C513     CTL2    -0.180000       12.0110           0
      2430 LPSA3    1        ECLIPA   H513R    HAL2     0.900000E-01   1.00800           0
      2431 LPSA3    1        ECLIPA   H513S    HAL2     0.900000E-01   1.00800           0
      2432 LPSA3    1        ECLIPA   C514     CTL3    -0.270000       12.0110           0
      2433 LPSA3    1        ECLIPA   H514R    HAL3     0.900000E-01   1.00800           0
      2434 LPSA3    1        ECLIPA   H514S    HAL3     0.900000E-01   1.00800           0
      2435 LPSA3    1        ECLIPA   H514T    HAL3     0.900000E-01   1.00800           0
      2436 LPSA3    1        ECLIPA   C33      CTL1     0.140000       12.0110           0
      2437 LPSA3    1        ECLIPA   H33R     HAL1     0.900000E-01   1.00800           0
      2438 LPSA3    1        ECLIPA   O33      OH1     -0.660000       15.9994           0
      2439 LPSA3    1        ECLIPA   HO33     H        0.430000       1.00800           0
      2440 LPSA3    1        ECLIPA   C34      CTL2    -0.180000       12.0110           0
      2441 LPSA3    1        ECLIPA   H34R     HAL2     0.900000E-01   1.00800           0
      2442 LPSA3    1        ECLIPA   H34S     HAL2     0.900000E-01   1.00800           0
      2443 LPSA3    1        ECLIPA   C35      CTL2    -0.180000       12.0110           0
      2444 LPSA3    1        ECLIPA   H35R     HAL2     0.900000E-01   1.00800           0
      2445 LPSA3    1        ECLIPA   H35S     HAL2     0.900000E-01   1.00800           0
      2446 LPSA3    1        ECLIPA   C36      CTL2    -0.180000       12.0110           0
      2447 LPSA3    1        ECLIPA   H36R     HAL2     0.900000E-01   1.00800           0
      2448 LPSA3    1        ECLIPA   H36S     HAL2     0.900000E-01   1.00800           0
      2449 LPSA3    1        ECLIPA   C37      CTL2    -0.180000       12.0110           0
      2450 LPSA3    1        ECLIPA   H37R     HAL2     0.900000E-01   1.00800           0
      2451 LPSA3    1        ECLIPA   H37S     HAL2     0.900000E-01   1.00800           0
      2452 LPSA3    1        ECLIPA   C38      CTL2    -0.180000       12.0110           0
      2453 LPSA3    1        ECLIPA   H38R     HAL2     0.900000E-01   1.00800           0
      2454 LPSA3    1        ECLIPA   H38S     HAL2     0.900000E-01   1.00800           0
      2455 LPSA3    1        ECLIPA   C39      CTL2    -0.180000       12.0110           0
      2456 LPSA3    1        ECLIPA   H39R     HAL2     0.900000E-01   1.00800           0
      2457 LPSA3    1        ECLIPA   H39S     HAL2     0.900000E-01   1.00800           0
      2458 LPSA3    1        ECLIPA   C310     CTL2    -0.180000       12.0110           0
      2459 LPSA3    1        ECLIPA   H310R    HAL2     0.900000E-01   1.00800           0
      2460 LPSA3    1        ECLIPA   H310S    HAL2     0.900000E-01   1.00800           0
      2461 LPSA3    1        ECLIPA   C311     CTL2    -0.180000       12.0110           0
      2462 LPSA3    1        ECLIPA   H311R    HAL2     0.900000E-01   1.00800           0
      2463 LPSA3    1        ECLIPA   H311S    HAL2     0.900000E-01   1.00800           0
      2464 LPSA3    1        ECLIPA   C312     CTL2    -0.180000       12.0110           0
      2465 LPSA3    1        ECLIPA   H312R    HAL2     0.900000E-01   1.00800           0
      2466 LPSA3    1        ECLIPA   H312S    HAL2     0.900000E-01   1.00800           0
      2467 LPSA3    1        ECLIPA   C313     CTL2    -0.180000       12.0110           0
      2468 LPSA3    1        ECLIPA   H313R    HAL2     0.900000E-01   1.00800           0
      2469 LPSA3    1        ECLIPA   H313S    HAL2     0.900000E-01   1.00800           0
      2470 LPSA3    1        ECLIPA   C314     CTL3    -0.270000       12.0110           0
      2471 LPSA3    1        ECLIPA   H314R    HAL3     0.900000E-01   1.00800           0
      2472 LPSA3    1        ECLIPA   H314S    HAL3     0.900000E-01   1.00800           0
      2473 LPSA3    1        ECLIPA   H314T    HAL3     0.900000E-01   1.00800           0
      2474 LPSA3    1        ECLIPA   C11      CC2O1    0.550000       12.0110           0
      2475 LPSA3    1        ECLIPA   O11      OC2D1   -0.550000       15.9994           0
      2476 LPSA3    1        ECLIPA   C12      CTL2    -0.180000       12.0110           0
      2477 LPSA3    1        ECLIPA   H12R     HAL2     0.900000E-01   1.00800           0
      2478 LPSA3    1        ECLIPA   H12S     HAL2     0.900000E-01   1.00800           0
      2479 LPSA3    1        ECLIPA   C13      CTL1     0.140000       12.0110           0
      2480 LPSA3    1        ECLIPA   H13R     HAL1     0.900000E-01   1.00800           0
      2481 LPSA3    1        ECLIPA   O13      OH1     -0.660000       15.9994           0
      2482 LPSA3    1        ECLIPA   HO13     H        0.430000       1.00800           0
      2483 LPSA3    1        ECLIPA   C14      CTL2    -0.180000       12.0110           0
      2484 LPSA3    1        ECLIPA   H14R     HAL2     0.900000E-01   1.00800           0
      2485 LPSA3    1        ECLIPA   H14S     HAL2     0.900000E-01   1.00800           0
      2486 LPSA3    1        ECLIPA   C15      CTL2    -0.180000       12.0110           0
      2487 LPSA3    1        ECLIPA   H15R     HAL2     0.900000E-01   1.00800           0
      2488 LPSA3    1        ECLIPA   H15S     HAL2     0.900000E-01   1.00800           0
      2489 LPSA3    1        ECLIPA   C16      CTL2    -0.180000       12.0110           0
      2490 LPSA3    1        ECLIPA   H16R     HAL2     0.900000E-01   1.00800           0
      2491 LPSA3    1        ECLIPA   H16S     HAL2     0.900000E-01   1.00800           0
      2492 LPSA3    1        ECLIPA   C17      CTL2    -0.180000       12.0110           0
      2493 LPSA3    1        ECLIPA   H17R     HAL2     0.900000E-01   1.00800           0
      2494 LPSA3    1        ECLIPA   H17S     HAL2     0.900000E-01   1.00800           0
      2495 LPSA3    1        ECLIPA   C18      CTL2    -0.180000       12.0110           0
      2496 LPSA3    1        ECLIPA   H18R     HAL2     0.900000E-01   1.00800           0
      2497 LPSA3    1        ECLIPA   H18S     HAL2     0.900000E-01   1.00800           0
      2498 LPSA3    1        ECLIPA   C19      CTL2    -0.180000       12.0110           0
      2499 LPSA3    1        ECLIPA   H19R     HAL2     0.900000E-01   1.00800           0
      2500 LPSA3    1        ECLIPA   H19S     HAL2     0.900000E-01   1.00800           0
      2501 LPSA3    1        ECLIPA   C110     CTL2    -0.180000       12.0110           0
      2502 LPSA3    1        ECLIPA   H110R    HAL2     0.900000E-01   1.00800           0
      2503 LPSA3    1        ECLIPA   H110S    HAL2     0.900000E-01   1.00800           0
      2504 LPSA3    1        ECLIPA   C111     CTL2    -0.180000       12.0110           0
      2505 LPSA3    1        ECLIPA   H111R    HAL2     0.900000E-01   1.00800           0
      2506 LPSA3    1        ECLIPA   H111S    HAL2     0.900000E-01   1.00800           0
      2507 LPSA3    1        ECLIPA   C112     CTL2    -0.180000       12.0110           0
      2508 LPSA3    1        ECLIPA   H112R    HAL2     0.900000E-01   1.00800           0
      2509 LPSA3    1        ECLIPA   H112S    HAL2     0.900000E-01   1.00800           0
      2510 LPSA3    1        ECLIPA   C113     CTL2    -0.180000       12.0110           0
      2511 LPSA3    1        ECLIPA   H113R    HAL2     0.900000E-01   1.00800           0
      2512 LPSA3    1        ECLIPA   H113S    HAL2     0.900000E-01   1.00800           0
      2513 LPSA3    1        ECLIPA   C114     CTL3    -0.270000       12.0110           0
      2514 LPSA3    1        ECLIPA   H114R    HAL3     0.900000E-01   1.00800           0
      2515 LPSA3    1        ECLIPA   H114S    HAL3     0.900000E-01   1.00800           0
      2516 LPSA3    1        ECLIPA   H114T    HAL3     0.900000E-01   1.00800           0
      2517 LPSA3    2        AKDO     C1       CC2O2    0.300000       12.0110           0
      2518 LPSA3    2        AKDO     O11      OC2D2   -0.600000       15.9994           0
      2519 LPSA3    2        AKDO     O12      OC2D2   -0.600000       15.9994           0
      2520 LPSA3    2        AKDO     C2       CC3062   0.280000       12.0110           0
      2521 LPSA3    2        AKDO     C6       CC3163   0.110000       12.0110           0
      2522 LPSA3    2        AKDO     H6       HCA1     0.900000E-01   1.00800           0
      2523 LPSA3    2        AKDO     O6       OC3C61  -0.400000       15.9994           0
      2524 LPSA3    2        AKDO     C3       CC3261  -0.180000       12.0110           0
      2525 LPSA3    2        AKDO     H31      HCA2     0.900000E-01   1.00800           0
      2526 LPSA3    2        AKDO     H32      HCA2     0.900000E-01   1.00800           0
      2527 LPSA3    2        AKDO     C4       CC3161   0.900000E-01   12.0110           0
      2528 LPSA3    2        AKDO     H4       HCA1     0.900000E-01   1.00800           0
      2529 LPSA3    2        AKDO     O4       OC301   -0.360000       15.9994           0
      2530 LPSA3    2        AKDO     C5       CC3161   0.900000E-01   12.0110           0
      2531 LPSA3    2        AKDO     H5       HCA1     0.900000E-01   1.00800           0
      2532 LPSA3    2        AKDO     O5       OC301   -0.360000       15.9994           0
      2533 LPSA3    2        AKDO     C7       CC312    0.140000       12.0110           0
      2534 LPSA3    2        AKDO     H7       HCA1     0.900000E-01   1.00800           0
      2535 LPSA3    2        AKDO     O7       OC311   -0.650000       15.9994           0
      2536 LPSA3    2        AKDO     HO7      HCP1     0.420000       1.00800           0
      2537 LPSA3    2        AKDO     C8       CC322    0.500000E-01   12.0110           0
      2538 LPSA3    2        AKDO     H81      HCA2     0.900000E-01   1.00800           0
      2539 LPSA3    2        AKDO     H82      HCA2     0.900000E-01   1.00800           0
      2540 LPSA3    2        AKDO     O8       OC311   -0.650000       15.9994           0
      2541 LPSA3    2        AKDO     HO8      HCP1     0.420000       1.00800           0
      2542 LPSA3    3        AKDO     C1       CC2O2    0.300000       12.0110           0
      2543 LPSA3    3        AKDO     O11      OC2D2   -0.600000       15.9994           0
      2544 LPSA3    3        AKDO     O12      OC2D2   -0.600000       15.9994           0
      2545 LPSA3    3        AKDO     C2       CC3062   0.280000       12.0110           0
      2546 LPSA3    3        AKDO     C6       CC3163   0.110000       12.0110           0
      2547 LPSA3    3        AKDO     H6       HCA1     0.900000E-01   1.00800           0
      2548 LPSA3    3        AKDO     O6       OC3C61  -0.400000       15.9994           0
      2549 LPSA3    3        AKDO     C3       CC3261  -0.180000       12.0110           0
      2550 LPSA3    3        AKDO     H31      HCA2     0.900000E-01   1.00800           0
      2551 LPSA3    3        AKDO     H32      HCA2     0.900000E-01   1.00800           0
      2552 LPSA3    3        AKDO     C4       CC3161   0.140000       12.0110           0
      2553 LPSA3    3        AKDO     H4       HCA1     0.900000E-01   1.00800           0
      2554 LPSA3    3        AKDO     O4       OC311   -0.650000       15.9994           0
      2555 LPSA3    3        AKDO     HO4      HCP1     0.420000       1.00800           0
      2556 LPSA3    3        AKDO     C5       CC3161   0.140000       12.0110           0
      2557 LPSA3    3        AKDO     H5       HCA1     0.900000E-01   1.00800           0
      2558 LPSA3    3        AKDO     O5       OC311   -0.650000       15.9994           0
      2559 LPSA3    3        AKDO     HO5      HCP1     0.420000       1.00800           0
      2560 LPSA3    3        AKDO     C7       CC312    0.140000       12.0110           0
      2561 LPSA3    3        AKDO     H7       HCA1     0.900000E-01   1.00800           0
      2562 LPSA3    3        AKDO     O7       OC311   -0.650000       15.9994           0
      2563 LPSA3    3        AKDO     HO7      HCP1     0.420000       1.00800           0
      2564 LPSA3    3        AKDO     C8       CC322    0.500000E-01   12.0110           0
      2565 LPSA3    3        AKDO     H81      HCA2     0.900000E-01   1.00800           0
      2566 LPSA3    3        AKDO     H82      HCA2     0.900000E-01   1.00800           0
      2567 LPSA3    3        AKDO     O8       OC311   -0.650000       15.9994           0
      2568 LPSA3    3        AKDO     HO8      HCP1     0.420000       1.00800           0
      2569 LPSA3    4        AHEP     C1       CC3162   0.290000       12.0110           0
      2570 LPSA3    4        AHEP     H1       HCA1     0.900000E-01   1.00800           0
      2571 LPSA3    4        AHEP     C5       CC3163   0.110000       12.0110           0
      2572 LPSA3    4        AHEP     H5       HCA1     0.900000E-01   1.00800           0
      2573 LPSA3    4        AHEP     O5       OC3C61  -0.400000       15.9994           0
      2574 LPSA3    4        AHEP     C2       CC3161   0.140000       12.0110           0
      2575 LPSA3    4        AHEP     H2       HCA1     0.900000E-01   1.00800           0
      2576 LPSA3    4        AHEP     O2       OC311   -0.650000       15.9994           0
      2577 LPSA3    4        AHEP     HO2      HCP1     0.420000       1.00800           0
      2578 LPSA3    4        AHEP     C3       CC3161   0.900000E-01   12.0110           0
      2579 LPSA3    4        AHEP     H3       HCA1     0.900000E-01   1.00800           0
      2580 LPSA3    4        AHEP     O3       OC301   -0.360000       15.9994           0
      2581 LPSA3    4        AHEP     C4       CC3161  -0.900000E-01   12.0110           0
      2582 LPSA3    4        AHEP     H4       HCA1     0.900000E-01   1.00800           0
      2583 LPSA3    4        AHEP     O4       OC30P   -0.400000       15.9994           0
      2584 LPSA3    4        AHEP     P4       PC        1.10000       30.9740           0
      2585 LPSA3    4        AHEP     OP42     OC2DP   -0.900000       15.9994           0
      2586 LPSA3    4        AHEP     OP43     OC2DP   -0.900000       15.9994           0
      2587 LPSA3    4        AHEP     OP44     OC2DP   -0.900000       15.9994           0
      2588 LPSA3    4        AHEP     C6       CC312    0.140000       12.0110           0
      2589 LPSA3    4        AHEP     H6       HCA1     0.900000E-01   1.00800           0
      2590 LPSA3    4        AHEP     O6       OC311   -0.650000       15.9994           0
      2591 LPSA3    4        AHEP     HO6      HCP1     0.420000       1.00800           0
      2592 LPSA3    4        AHEP     C7       CC322    0.500000E-01   12.0110           0
      2593 LPSA3    4        AHEP     H71      HCA2     0.900000E-01   1.00800           0
      2594 LPSA3    4        AHEP     H72      HCA2     0.900000E-01   1.00800           0
      2595 LPSA3    4        AHEP     O7       OC311   -0.650000       15.9994           0
      2596 LPSA3    4        AHEP     HO7      HCP1     0.420000       1.00800           0
      2597 LPSA3    5        AHEP     C1       CC3162   0.290000       12.0110           0
      2598 LPSA3    5        AHEP     H1       HCA1     0.900000E-01   1.00800           0
      2599 LPSA3    5        AHEP     C5       CC3163   0.110000       12.0110           0
      2600 LPSA3    5        AHEP     H5       HCA1     0.900000E-01   1.00800           0
      2601 LPSA3    5        AHEP     O5       OC3C61  -0.400000       15.9994           0
      2602 LPSA3    5        AHEP     C2       CC3161   0.140000       12.0110           0
      2603 LPSA3    5        AHEP     H2       HCA1     0.900000E-01   1.00800           0
      2604 LPSA3    5        AHEP     O2       OC311   -0.650000       15.9994           0
      2605 LPSA3    5        AHEP     HO2      HCP1     0.420000       1.00800           0
      2606 LPSA3    5        AHEP     C3       CC3161   0.900000E-01   12.0110           0
      2607 LPSA3    5        AHEP     H3       HCA1     0.900000E-01   1.00800           0
      2608 LPSA3    5        AHEP     O3       OC301   -0.360000       15.9994           0
      2609 LPSA3    5        AHEP     C4       CC3161  -0.900000E-01   12.0110           0
      2610 LPSA3    5        AHEP     H4       HCA1     0.900000E-01   1.00800           0
      2611 LPSA3    5        AHEP     O4       OC30P   -0.400000       15.9994           0
      2612 LPSA3    5        AHEP     P4       PC        1.10000       30.9740           0
      2613 LPSA3    5        AHEP     OP42     OC2DP   -0.900000       15.9994           0
      2614 LPSA3    5        AHEP     OP43     OC2DP   -0.900000       15.9994           0
      2615 LPSA3    5        AHEP     OP44     OC2DP   -0.900000       15.9994           0
      2616 LPSA3    5        AHEP     C6       CC312    0.140000       12.0110           0
      2617 LPSA3    5        AHEP     H6       HCA1     0.900000E-01   1.00800           0
      2618 LPSA3    5        AHEP     O6       OC311   -0.650000       15.9994           0
      2619 LPSA3    5        AHEP     HO6      HCP1     0.420000       1.00800           0
      2620 LPSA3    5        AHEP     C7       CC322     0.00000       12.0110           0
      2621 LPSA3    5        AHEP     H71      HCA2     0.900000E-01   1.00800           0
      2622 LPSA3    5        AHEP     H72      HCA2     0.900000E-01   1.00800           0
      2623 LPSA3    5        AHEP     O7       OC301   -0.360000       15.9994           0
      2624 LPSA3    6        AHEP     C1       CC3162   0.290000       12.0110           0
      2625 LPSA3    6        AHEP     H1       HCA1     0.900000E-01   1.00800           0
      2626 LPSA3    6        AHEP     C5       CC3163   0.110000       12.0110           0
      2627 LPSA3    6        AHEP     H5       HCA1     0.900000E-01   1.00800           0
      2628 LPSA3    6        AHEP     O5       OC3C61  -0.400000       15.9994           0
      2629 LPSA3    6        AHEP     C2       CC3161   0.140000       12.0110           0
      2630 LPSA3    6        AHEP     H2       HCA1     0.900000E-01   1.00800           0
      2631 LPSA3    6        AHEP     O2       OC311   -0.650000       15.9994           0
      2632 LPSA3    6        AHEP     HO2      HCP1     0.420000       1.00800           0
      2633 LPSA3    6        AHEP     C3       CC3161   0.140000       12.0110           0
      2634 LPSA3    6        AHEP     H3       HCA1     0.900000E-01   1.00800           0
      2635 LPSA3    6        AHEP     O3       OC311   -0.650000       15.9994           0
      2636 LPSA3    6        AHEP     HO3      HCP1     0.420000       1.00800           0
      2637 LPSA3    6        AHEP     C4       CC3161   0.140000       12.0110           0
      2638 LPSA3    6        AHEP     H4       HCA1     0.900000E-01   1.00800           0
      2639 LPSA3    6        AHEP     O4       OC311   -0.650000       15.9994           0
      2640 LPSA3    6        AHEP     HO4      HCP1     0.420000       1.00800           0
      2641 LPSA3    6        AHEP     C6       CC312    0.140000       12.0110           0
      2642 LPSA3    6        AHEP     H6       HCA1     0.900000E-01   1.00800           0
      2643 LPSA3    6        AHEP     O6       OC311   -0.650000       15.9994           0
      2644 LPSA3    6        AHEP     HO6      HCP1     0.420000       1.00800           0
      2645 LPSA3    6        AHEP     C7       CC322    0.500000E-01   12.0110           0
      2646 LPSA3    6        AHEP     H71      HCA2     0.900000E-01   1.00800           0
      2647 LPSA3    6        AHEP     H72      HCA2     0.900000E-01   1.00800           0
      2648 LPSA3    6        AHEP     O7       OC311   -0.650000       15.9994           0
      2649 LPSA3    6        AHEP     HO7      HCP1     0.420000       1.00800           0
      2650 LPSA3    7        AGLC     C1       CC3162   0.290000       12.0110           0
      2651 LPSA3    7        AGLC     H1       HCA1     0.900000E-01   1.00800           0
      2652 LPSA3    7        AGLC     C5       CC3163   0.110000       12.0110           0
      2653 LPSA3    7        AGLC     H5       HCA1     0.900000E-01   1.00800           0
      2654 LPSA3    7        AGLC     O5       OC3C61  -0.400000       15.9994           0
      2655 LPSA3    7        AGLC     C2       CC3161   0.140000       12.0110           0
      2656 LPSA3    7        AGLC     H2       HCA1     0.900000E-01   1.00800           0
      2657 LPSA3    7        AGLC     O2       OC311   -0.650000       15.9994           0
      2658 LPSA3    7        AGLC     HO2      HCP1     0.420000       1.00800           0
      2659 LPSA3    7        AGLC     C3       CC3161   0.900000E-01   12.0110           0
      2660 LPSA3    7        AGLC     H3       HCA1     0.900000E-01   1.00800           0
      2661 LPSA3    7        AGLC     O3       OC301   -0.360000       15.9994           0
      2662 LPSA3    7        AGLC     C4       CC3161   0.140000       12.0110           0
      2663 LPSA3    7        AGLC     H4       HCA1     0.900000E-01   1.00800           0
      2664 LPSA3    7        AGLC     O4       OC311   -0.650000       15.9994           0
      2665 LPSA3    7        AGLC     HO4      HCP1     0.420000       1.00800           0
      2666 LPSA3    7        AGLC     C6       CC321    0.500000E-01   12.0110           0
      2667 LPSA3    7        AGLC     H61      HCA2     0.900000E-01   1.00800           0
      2668 LPSA3    7        AGLC     H62      HCA2     0.900000E-01   1.00800           0
      2669 LPSA3    7        AGLC     O6       OC311   -0.650000       15.9994           0
      2670 LPSA3    7        AGLC     HO6      HCP1     0.420000       1.00800           0
      2671 LPSA3    8        AGLC     C1       CC3162   0.290000       12.0110           0
      2672 LPSA3    8        AGLC     H1       HCA1     0.900000E-01   1.00800           0
      2673 LPSA3    8        AGLC     C5       CC3163   0.110000       12.0110           0
      2674 LPSA3    8        AGLC     H5       HCA1     0.900000E-01   1.00800           0
      2675 LPSA3    8        AGLC     O5       OC3C61  -0.400000       15.9994           0
      2676 LPSA3    8        AGLC     C2       CC3161   0.900000E-01   12.0110           0
      2677 LPSA3    8        AGLC     H2       HCA1     0.900000E-01   1.00800           0
      2678 LPSA3    8        AGLC     O2       OC301   -0.360000       15.9994           0
      2679 LPSA3    8        AGLC     C3       CC3161   0.900000E-01   12.0110           0
      2680 LPSA3    8        AGLC     H3       HCA1     0.900000E-01   1.00800           0
      2681 LPSA3    8        AGLC     O3       OC301   -0.360000       15.9994           0
      2682 LPSA3    8        AGLC     C4       CC3161   0.140000       12.0110           0
      2683 LPSA3    8        AGLC     H4       HCA1     0.900000E-01   1.00800           0
      2684 LPSA3    8        AGLC     O4       OC311   -0.650000       15.9994           0
      2685 LPSA3    8        AGLC     HO4      HCP1     0.420000       1.00800           0
      2686 LPSA3    8        AGLC     C6       CC321    0.500000E-01   12.0110           0
      2687 LPSA3    8        AGLC     H61      HCA2     0.900000E-01   1.00800           0
      2688 LPSA3    8        AGLC     H62      HCA2     0.900000E-01   1.00800           0
      2689 LPSA3    8        AGLC     O6       OC311   -0.650000       15.9994           0
      2690 LPSA3    8        AGLC     HO6      HCP1     0.420000       1.00800           0
      2691 LPSA3    9        AGAL     C1       CC3162   0.290000       12.0110           0
      2692 LPSA3    9        AGAL     H1       HCA1     0.900000E-01   1.00800           0
      2693 LPSA3    9        AGAL     C5       CC3163   0.110000       12.0110           0
      2694 LPSA3    9        AGAL     H5       HCA1     0.900000E-01   1.00800           0
      2695 LPSA3    9        AGAL     O5       OC3C61  -0.400000       15.9994           0
      2696 LPSA3    9        AGAL     C2       CC3161   0.900000E-01   12.0110           0
      2697 LPSA3    9        AGAL     H2       HCA1     0.900000E-01   1.00800           0
      2698 LPSA3    9        AGAL     O2       OC301   -0.360000       15.9994           0
      2699 LPSA3    9        AGAL     C3       CC3161   0.140000       12.0110           0
      2700 LPSA3    9        AGAL     H3       HCA1     0.900000E-01   1.00800           0
      2701 LPSA3    9        AGAL     O3       OC311   -0.650000       15.9994           0
      2702 LPSA3    9        AGAL     HO3      HCP1     0.420000       1.00800           0
      2703 LPSA3    9        AGAL     C4       CC3161   0.140000       12.0110           0
      2704 LPSA3    9        AGAL     H4       HCA1     0.900000E-01   1.00800           0
      2705 LPSA3    9        AGAL     O4       OC311   -0.650000       15.9994           0
      2706 LPSA3    9        AGAL     HO4      HCP1     0.420000       1.00800           0
      2707 LPSA3    9        AGAL     C6       CC321    0.500000E-01   12.0110           0
      2708 LPSA3    9        AGAL     H61      HCA2     0.900000E-01   1.00800           0
      2709 LPSA3    9        AGAL     H62      HCA2     0.900000E-01   1.00800           0
      2710 LPSA3    9        AGAL     O6       OC311   -0.650000       15.9994           0
      2711 LPSA3    9        AGAL     HO6      HCP1     0.420000       1.00800           0
      2712 LPSA3    10       AGAL     C1       CC3162   0.290000       12.0110           0
      2713 LPSA3    10       AGAL     H1       HCA1     0.900000E-01   1.00800           0
      2714 LPSA3    10       AGAL     C5       CC3163   0.110000       12.0110           0
      2715 LPSA3    10       AGAL     H5       HCA1     0.900000E-01   1.00800           0
      2716 LPSA3    10       AGAL     O5       OC3C61  -0.400000       15.9994           0
      2717 LPSA3    10       AGAL     C2       CC3161   0.140000       12.0110           0
      2718 LPSA3    10       AGAL     H2       HCA1     0.900000E-01   1.00800           0
      2719 LPSA3    10       AGAL     O2       OC311   -0.650000       15.9994           0
      2720 LPSA3    10       AGAL     HO2      HCP1     0.420000       1.00800           0
      2721 LPSA3    10       AGAL     C3       CC3161   0.140000       12.0110           0
      2722 LPSA3    10       AGAL     H3       HCA1     0.900000E-01   1.00800           0
      2723 LPSA3    10       AGAL     O3       OC311   -0.650000       15.9994           0
      2724 LPSA3    10       AGAL     HO3      HCP1     0.420000       1.00800           0
      2725 LPSA3    10       AGAL     C4       CC3161   0.140000       12.0110           0
      2726 LPSA3    10       AGAL     H4       HCA1     0.900000E-01   1.00800           0
      2727 LPSA3    10       AGAL     O4       OC311   -0.650000       15.9994           0
      2728 LPSA3    10       AGAL     HO4      HCP1     0.420000       1.00800           0
      2729 LPSA3    10       AGAL     C6       CC321    0.500000E-01   12.0110           0
      2730 LPSA3    10       AGAL     H61      HCA2     0.900000E-01   1.00800           0
      2731 LPSA3    10       AGAL     H62      HCA2     0.900000E-01   1.00800           0
      2732 LPSA3    10       AGAL     O6       OC311   -0.650000       15.9994           0
      2733 LPSA3    10       AGAL     HO6      HCP1     0.420000       1.00800           0
      2734 LPSA3    11       BGLC     C1       CC3162   0.290000       12.0110           0
      2735 LPSA3    11       BGLC     H1       HCA1     0.900000E-01   1.00800           0
      2736 LPSA3    11       BGLC     C5       CC3163   0.110000       12.0110           0
      2737 LPSA3    11       BGLC     H5       HCA1     0.900000E-01   1.00800           0
      2738 LPSA3    11       BGLC     O5       OC3C61  -0.400000       15.9994           0
      2739 LPSA3    11       BGLC     C2       CC3161   0.140000       12.0110           0
      2740 LPSA3    11       BGLC     H2       HCA1     0.900000E-01   1.00800           0
      2741 LPSA3    11       BGLC     O2       OC311   -0.650000       15.9994           0
      2742 LPSA3    11       BGLC     HO2      HCP1     0.420000       1.00800           0
      2743 LPSA3    11       BGLC     C3       CC3161   0.900000E-01   12.0110           0
      2744 LPSA3    11       BGLC     H3       HCA1     0.900000E-01   1.00800           0
      2745 LPSA3    11       BGLC     O3       OC301   -0.360000       15.9994           0
      2746 LPSA3    11       BGLC     C4       CC3161   0.140000       12.0110           0
      2747 LPSA3    11       BGLC     H4       HCA1     0.900000E-01   1.00800           0
      2748 LPSA3    11       BGLC     O4       OC311   -0.650000       15.9994           0
      2749 LPSA3    11       BGLC     HO4      HCP1     0.420000       1.00800           0
      2750 LPSA3    11       BGLC     C6       CC321    0.500000E-01   12.0110           0
      2751 LPSA3    11       BGLC     H61      HCA2     0.900000E-01   1.00800           0
      2752 LPSA3    11       BGLC     H62      HCA2     0.900000E-01   1.00800           0
      2753 LPSA3    11       BGLC     O6       OC311   -0.650000       15.9994           0
      2754 LPSA3    11       BGLC     HO6      HCP1     0.420000       1.00800           0
      2755 LPSA3    12       BGLCNA   C1       CC3162   0.290000       12.0110           0
      2756 LPSA3    12       BGLCNA   H1       HCA1     0.900000E-01   1.00800           0
      2757 LPSA3    12       BGLCNA   C5       CC3163   0.110000       12.0110           0
      2758 LPSA3    12       BGLCNA   H5       HCA1     0.900000E-01   1.00800           0
      2759 LPSA3    12       BGLCNA   O5       OC3C61  -0.400000       15.9994           0
      2760 LPSA3    12       BGLCNA   C2       CC3161   0.700000E-01   12.0110           0
      2761 LPSA3    12       BGLCNA   H2       HCA1     0.900000E-01   1.00800           0
      2762 LPSA3    12       BGLCNA   N        NC2D1   -0.470000       14.0070           0
      2763 LPSA3    12       BGLCNA   HN       HCP1     0.310000       1.00800           0
      2764 LPSA3    12       BGLCNA   C        CC2O1    0.510000       12.0110           0
      2765 LPSA3    12       BGLCNA   O        OC2D1   -0.510000       15.9994           0
      2766 LPSA3    12       BGLCNA   CT       CC331   -0.270000       12.0110           0
      2767 LPSA3    12       BGLCNA   HT1      HCA3     0.900000E-01   1.00800           0
      2768 LPSA3    12       BGLCNA   HT2      HCA3     0.900000E-01   1.00800           0
      2769 LPSA3    12       BGLCNA   HT3      HCA3     0.900000E-01   1.00800           0
      2770 LPSA3    12       BGLCNA   C3       CC3161   0.900000E-01   12.0110           0
      2771 LPSA3    12       BGLCNA   H3       HCA1     0.900000E-01   1.00800           0
      2772 LPSA3    12       BGLCNA   O3       OC301   -0.360000       15.9994           0
      2773 LPSA3    12       BGLCNA   C4       CC3161   0.140000       12.0110           0
      2774 LPSA3    12       BGLCNA   H4       HCA1     0.900000E-01   1.00800           0
      2775 LPSA3    12       BGLCNA   O4       OC311   -0.650000       15.9994           0
      2776 LPSA3    12       BGLCNA   HO4      HCP1     0.420000       1.00800           0
      2777 LPSA3    12       BGLCNA   C6       CC321    0.500000E-01   12.0110           0
      2778 LPSA3    12       BGLCNA   H61      HCA2     0.900000E-01   1.00800           0
      2779 LPSA3    12       BGLCNA   H62      HCA2     0.900000E-01   1.00800           0
      2780 LPSA3    12       BGLCNA   O6       OC311   -0.650000       15.9994           0
      2781 LPSA3    12       BGLCNA   HO6      HCP1     0.420000       1.00800           0
      2782 LPSA3    13       AGAL     C1       CC3162   0.290000       12.0110           0
      2783 LPSA3    13       AGAL     H1       HCA1     0.900000E-01   1.00800           0
      2784 LPSA3    13       AGAL     C5       CC3163   0.110000       12.0110           0
      2785 LPSA3    13       AGAL     H5       HCA1     0.900000E-01   1.00800           0
      2786 LPSA3    13       AGAL     O5       OC3C61  -0.400000       15.9994           0
      2787 LPSA3    13       AGAL     C2       CC3161   0.900000E-01   12.0110           0
      2788 LPSA3    13       AGAL     H2       HCA1     0.900000E-01   1.00800           0
      2789 LPSA3    13       AGAL     O2       OC301   -0.360000       15.9994           0
      2790 LPSA3    13       AGAL     C3       CC3161   0.140000       12.0110           0
      2791 LPSA3    13       AGAL     H3       HCA1     0.900000E-01   1.00800           0
      2792 LPSA3    13       AGAL     O3       OC311   -0.650000       15.9994           0
      2793 LPSA3    13       AGAL     HO3      HCP1     0.420000       1.00800           0
      2794 LPSA3    13       AGAL     C4       CC3161   0.140000       12.0110           0
      2795 LPSA3    13       AGAL     H4       HCA1     0.900000E-01   1.00800           0
      2796 LPSA3    13       AGAL     O4       OC311   -0.650000       15.9994           0
      2797 LPSA3    13       AGAL     HO4      HCP1     0.420000       1.00800           0
      2798 LPSA3    13       AGAL     C6       CC321    0.500000E-01   12.0110           0
      2799 LPSA3    13       AGAL     H61      HCA2     0.900000E-01   1.00800           0
      2800 LPSA3    13       AGAL     H62      HCA2     0.900000E-01   1.00800           0
      2801 LPSA3    13       AGAL     O6       OC311   -0.650000       15.9994           0
      2802 LPSA3    13       AGAL     HO6      HCP1     0.420000       1.00800           0
      2803 LPSA3    14       ARHM     C1       CC3162   0.290000       12.0110           0
      2804 LPSA3    14       ARHM     H1       HCA1     0.900000E-01   1.00800           0
      2805 LPSA3    14       ARHM     C5       CC3163   0.110000       12.0110           0
      2806 LPSA3    14       ARHM     H5       HCA1     0.900000E-01   1.00800           0
      2807 LPSA3    14       ARHM     O5       OC3C61  -0.400000       15.9994           0
      2808 LPSA3    14       ARHM     C2       CC3161   0.900000E-01   12.0110           0
      2809 LPSA3    14       ARHM     H2       HCA1     0.900000E-01   1.00800           0
      2810 LPSA3    14       ARHM     O2       OC301   -0.360000       15.9994           0
      2811 LPSA3    14       ARHM     C3       CC3161   0.140000       12.0110           0
      2812 LPSA3    14       ARHM     H3       HCA1     0.900000E-01   1.00800           0
      2813 LPSA3    14       ARHM     O3       OC311   -0.650000       15.9994           0
      2814 LPSA3    14       ARHM     HO3      HCP1     0.420000       1.00800           0
      2815 LPSA3    14       ARHM     C4       CC3161   0.140000       12.0110           0
      2816 LPSA3    14       ARHM     H4       HCA1     0.900000E-01   1.00800           0
      2817 LPSA3    14       ARHM     O4       OC311   -0.650000       15.9994           0
      2818 LPSA3    14       ARHM     HO4      HCP1     0.420000       1.00800           0
      2819 LPSA3    14       ARHM     C6       CC331   -0.270000       12.0110           0
      2820 LPSA3    14       ARHM     H61      HCA3     0.900000E-01   1.00800           0
      2821 LPSA3    14       ARHM     H62      HCA3     0.900000E-01   1.00800           0
      2822 LPSA3    14       ARHM     H63      HCA3     0.900000E-01   1.00800           0
      2823 LPSA3    15       ARHM     C1       CC3162   0.290000       12.0110           0
      2824 LPSA3    15       ARHM     H1       HCA1     0.900000E-01   1.00800           0
      2825 LPSA3    15       ARHM     C5       CC3163   0.110000       12.0110           0
      2826 LPSA3    15       ARHM     H5       HCA1     0.900000E-01   1.00800           0
      2827 LPSA3    15       ARHM     O5       OC3C61  -0.400000       15.9994           0
      2828 LPSA3    15       ARHM     C2       CC3161   0.900000E-01   12.0110           0
      2829 LPSA3    15       ARHM     H2       HCA1     0.900000E-01   1.00800           0
      2830 LPSA3    15       ARHM     O2       OC301   -0.360000       15.9994           0
      2831 LPSA3    15       ARHM     C3       CC3161   0.900000E-01   12.0110           0
      2832 LPSA3    15       ARHM     H3       HCA1     0.900000E-01   1.00800           0
      2833 LPSA3    15       ARHM     O3       OC301   -0.360000       15.9994           0
      2834 LPSA3    15       ARHM     C4       CC3161   0.140000       12.0110           0
      2835 LPSA3    15       ARHM     H4       HCA1     0.900000E-01   1.00800           0
      2836 LPSA3    15       ARHM     O4       OC311   -0.650000       15.9994           0
      2837 LPSA3    15       ARHM     HO4      HCP1     0.420000       1.00800           0
      2838 LPSA3    15       ARHM     C6       CC331   -0.270000       12.0110           0
      2839 LPSA3    15       ARHM     H61      HCA3     0.900000E-01   1.00800           0
      2840 LPSA3    15       ARHM     H62      HCA3     0.900000E-01   1.00800           0
      2841 LPSA3    15       ARHM     H63      HCA3     0.900000E-01   1.00800           0
      2842 LPSA3    16       BMANNA   C1       CC3162   0.290000       12.0110           0
      2843 LPSA3    16       BMANNA   H1       HCA1     0.900000E-01   1.00800           0
      2844 LPSA3    16       BMANNA   C5       CC3163   0.110000       12.0110           0
      2845 LPSA3    16       BMANNA   H5       HCA1     0.900000E-01   1.00800           0
      2846 LPSA3    16       BMANNA   O5       OC3C61  -0.400000       15.9994           0
      2847 LPSA3    16       BMANNA   C2       CC3161   0.700000E-01   12.0110           0
      2848 LPSA3    16       BMANNA   H2       HCA1     0.900000E-01   1.00800           0
      2849 LPSA3    16       BMANNA   N        NC2D1   -0.470000       14.0070           0
      2850 LPSA3    16       BMANNA   HN       HCP1     0.310000       1.00800           0
      2851 LPSA3    16       BMANNA   C        CC2O1    0.510000       12.0110           0
      2852 LPSA3    16       BMANNA   O        OC2D1   -0.510000       15.9994           0
      2853 LPSA3    16       BMANNA   CT       CC331   -0.270000       12.0110           0
      2854 LPSA3    16       BMANNA   HT1      HCA3     0.900000E-01   1.00800           0
      2855 LPSA3    16       BMANNA   HT2      HCA3     0.900000E-01   1.00800           0
      2856 LPSA3    16       BMANNA   HT3      HCA3     0.900000E-01   1.00800           0
      2857 LPSA3    16       BMANNA   C3       CC3161   0.140000       12.0110           0
      2858 LPSA3    16       BMANNA   H3       HCA1     0.900000E-01   1.00800           0
      2859 LPSA3    16       BMANNA   O3       OC311   -0.650000       15.9994           0
      2860 LPSA3    16       BMANNA   HO3      HCP1     0.420000       1.00800           0
      2861 LPSA3    16       BMANNA   C4       CC3161   0.140000       12.0110           0
      2862 LPSA3    16       BMANNA   H4       HCA1     0.900000E-01   1.00800           0
      2863 LPSA3    16       BMANNA   O4       OC311   -0.650000       15.9994           0
      2864 LPSA3    16       BMANNA   HO4      HCP1     0.420000       1.00800           0
      2865 LPSA3    16       BMANNA   C6       CC321    0.500000E-01   12.0110           0
      2866 LPSA3    16       BMANNA   H61      HCA2     0.900000E-01   1.00800           0
      2867 LPSA3    16       BMANNA   H62      HCA2     0.900000E-01   1.00800           0
      2868 LPSA3    16       BMANNA   O6       OC311   -0.650000       15.9994           0
      2869 LPSA3    16       BMANNA   HO6      HCP1     0.420000       1.00800           0
      2870 LPSA3    17       BGLCNA   C1       CC3162   0.290000       12.0110           0
      2871 LPSA3    17       BGLCNA   H1       HCA1     0.900000E-01   1.00800           0
      2872 LPSA3    17       BGLCNA   C5       CC3163   0.110000       12.0110           0
      2873 LPSA3    17       BGLCNA   H5       HCA1     0.900000E-01   1.00800           0
      2874 LPSA3    17       BGLCNA   O5       OC3C61  -0.400000       15.9994           0
      2875 LPSA3    17       BGLCNA   C2       CC3161   0.700000E-01   12.0110           0
      2876 LPSA3    17       BGLCNA   H2       HCA1     0.900000E-01   1.00800           0
      2877 LPSA3    17       BGLCNA   N        NC2D1   -0.470000       14.0070           0
      2878 LPSA3    17       BGLCNA   HN       HCP1     0.310000       1.00800           0
      2879 LPSA3    17       BGLCNA   C        CC2O1    0.510000       12.0110           0
      2880 LPSA3    17       BGLCNA   O        OC2D1   -0.510000       15.9994           0
      2881 LPSA3    17       BGLCNA   CT       CC331   -0.270000       12.0110           0
      2882 LPSA3    17       BGLCNA   HT1      HCA3     0.900000E-01   1.00800           0
      2883 LPSA3    17       BGLCNA   HT2      HCA3     0.900000E-01   1.00800           0
      2884 LPSA3    17       BGLCNA   HT3      HCA3     0.900000E-01   1.00800           0
      2885 LPSA3    17       BGLCNA   C3       CC3161   0.900000E-01   12.0110           0
      2886 LPSA3    17       BGLCNA   H3       HCA1     0.900000E-01   1.00800           0
      2887 LPSA3    17       BGLCNA   O3       OC301   -0.360000       15.9994           0
      2888 LPSA3    17       BGLCNA   C4       CC3161   0.140000       12.0110           0
      2889 LPSA3    17       BGLCNA   H4       HCA1     0.900000E-01   1.00800           0
      2890 LPSA3    17       BGLCNA   O4       OC311   -0.650000       15.9994           0
      2891 LPSA3    17       BGLCNA   HO4      HCP1     0.420000       1.00800           0
      2892 LPSA3    17       BGLCNA   C6       CC321    0.500000E-01   12.0110           0
      2893 LPSA3    17       BGLCNA   H61      HCA2     0.900000E-01   1.00800           0
      2894 LPSA3    17       BGLCNA   H62      HCA2     0.900000E-01   1.00800           0
      2895 LPSA3    17       BGLCNA   O6       OC311   -0.650000       15.9994           0
      2896 LPSA3    17       BGLCNA   HO6      HCP1     0.420000       1.00800           0
      2897 LPSA3    18       AGAL     C1       CC3162   0.290000       12.0110           0
      2898 LPSA3    18       AGAL     H1       HCA1     0.900000E-01   1.00800           0
      2899 LPSA3    18       AGAL     C5       CC3163   0.110000       12.0110           0
      2900 LPSA3    18       AGAL     H5       HCA1     0.900000E-01   1.00800           0
      2901 LPSA3    18       AGAL     O5       OC3C61  -0.400000       15.9994           0
      2902 LPSA3    18       AGAL     C2       CC3161   0.900000E-01   12.0110           0
      2903 LPSA3    18       AGAL     H2       HCA1     0.900000E-01   1.00800           0
      2904 LPSA3    18       AGAL     O2       OC301   -0.360000       15.9994           0
      2905 LPSA3    18       AGAL     C3       CC3161   0.140000       12.0110           0
      2906 LPSA3    18       AGAL     H3       HCA1     0.900000E-01   1.00800           0
      2907 LPSA3    18       AGAL     O3       OC311   -0.650000       15.9994           0
      2908 LPSA3    18       AGAL     HO3      HCP1     0.420000       1.00800           0
      2909 LPSA3    18       AGAL     C4       CC3161   0.140000       12.0110           0
      2910 LPSA3    18       AGAL     H4       HCA1     0.900000E-01   1.00800           0
      2911 LPSA3    18       AGAL     O4       OC311   -0.650000       15.9994           0
      2912 LPSA3    18       AGAL     HO4      HCP1     0.420000       1.00800           0
      2913 LPSA3    18       AGAL     C6       CC321    0.500000E-01   12.0110           0
      2914 LPSA3    18       AGAL     H61      HCA2     0.900000E-01   1.00800           0
      2915 LPSA3    18       AGAL     H62      HCA2     0.900000E-01   1.00800           0
      2916 LPSA3    18       AGAL     O6       OC311   -0.650000       15.9994           0
      2917 LPSA3    18       AGAL     HO6      HCP1     0.420000       1.00800           0
      2918 LPSA3    19       ARHM     C1       CC3162   0.290000       12.0110           0
      2919 LPSA3    19       ARHM     H1       HCA1     0.900000E-01   1.00800           0
      2920 LPSA3    19       ARHM     C5       CC3163   0.110000       12.0110           0
      2921 LPSA3    19       ARHM     H5       HCA1     0.900000E-01   1.00800           0
      2922 LPSA3    19       ARHM     O5       OC3C61  -0.400000       15.9994           0
      2923 LPSA3    19       ARHM     C2       CC3161   0.900000E-01   12.0110           0
      2924 LPSA3    19       ARHM     H2       HCA1     0.900000E-01   1.00800           0
      2925 LPSA3    19       ARHM     O2       OC301   -0.360000       15.9994           0
      2926 LPSA3    19       ARHM     C3       CC3161   0.140000       12.0110           0
      2927 LPSA3    19       ARHM     H3       HCA1     0.900000E-01   1.00800           0
      2928 LPSA3    19       ARHM     O3       OC311   -0.650000       15.9994           0
      2929 LPSA3    19       ARHM     HO3      HCP1     0.420000       1.00800           0
      2930 LPSA3    19       ARHM     C4       CC3161   0.140000       12.0110           0
      2931 LPSA3    19       ARHM     H4       HCA1     0.900000E-01   1.00800           0
      2932 LPSA3    19       ARHM     O4       OC311   -0.650000       15.9994           0
      2933 LPSA3    19       ARHM     HO4      HCP1     0.420000       1.00800           0
      2934 LPSA3    19       ARHM     C6       CC331   -0.270000       12.0110           0
      2935 LPSA3    19       ARHM     H61      HCA3     0.900000E-01   1.00800           0
      2936 LPSA3    19       ARHM     H62      HCA3     0.900000E-01   1.00800           0
      2937 LPSA3    19       ARHM     H63      HCA3     0.900000E-01   1.00800           0
      2938 LPSA3    20       ARHM     C1       CC3162   0.290000       12.0110           0
      2939 LPSA3    20       ARHM     H1       HCA1     0.900000E-01   1.00800           0
      2940 LPSA3    20       ARHM     C5       CC3163   0.110000       12.0110           0
      2941 LPSA3    20       ARHM     H5       HCA1     0.900000E-01   1.00800           0
      2942 LPSA3    20       ARHM     O5       OC3C61  -0.400000       15.9994           0
      2943 LPSA3    20       ARHM     C2       CC3161   0.900000E-01   12.0110           0
      2944 LPSA3    20       ARHM     H2       HCA1     0.900000E-01   1.00800           0
      2945 LPSA3    20       ARHM     O2       OC301   -0.360000       15.9994           0
      2946 LPSA3    20       ARHM     C3       CC3161   0.900000E-01   12.0110           0
      2947 LPSA3    20       ARHM     H3       HCA1     0.900000E-01   1.00800           0
      2948 LPSA3    20       ARHM     O3       OC301   -0.360000       15.9994           0
      2949 LPSA3    20       ARHM     C4       CC3161   0.140000       12.0110           0
      2950 LPSA3    20       ARHM     H4       HCA1     0.900000E-01   1.00800           0
      2951 LPSA3    20       ARHM     O4       OC311   -0.650000       15.9994           0
      2952 LPSA3    20       ARHM     HO4      HCP1     0.420000       1.00800           0
      2953 LPSA3    20       ARHM     C6       CC331   -0.270000       12.0110           0
      2954 LPSA3    20       ARHM     H61      HCA3     0.900000E-01   1.00800           0
      2955 LPSA3    20       ARHM     H62      HCA3     0.900000E-01   1.00800           0
      2956 LPSA3    20       ARHM     H63      HCA3     0.900000E-01   1.00800           0
      2957 LPSA3    21       BMANNA   C1       CC3162   0.290000       12.0110           0
      2958 LPSA3    21       BMANNA   H1       HCA1     0.900000E-01   1.00800           0
      2959 LPSA3    21       BMANNA   C5       CC3163   0.110000       12.0110           0
      2960 LPSA3    21       BMANNA   H5       HCA1     0.900000E-01   1.00800           0
      2961 LPSA3    21       BMANNA   O5       OC3C61  -0.400000       15.9994           0
      2962 LPSA3    21       BMANNA   C2       CC3161   0.700000E-01   12.0110           0
      2963 LPSA3    21       BMANNA   H2       HCA1     0.900000E-01   1.00800           0
      2964 LPSA3    21       BMANNA   N        NC2D1   -0.470000       14.0070           0
      2965 LPSA3    21       BMANNA   HN       HCP1     0.310000       1.00800           0
      2966 LPSA3    21       BMANNA   C        CC2O1    0.510000       12.0110           0
      2967 LPSA3    21       BMANNA   O        OC2D1   -0.510000       15.9994           0
      2968 LPSA3    21       BMANNA   CT       CC331   -0.270000       12.0110           0
      2969 LPSA3    21       BMANNA   HT1      HCA3     0.900000E-01   1.00800           0
      2970 LPSA3    21       BMANNA   HT2      HCA3     0.900000E-01   1.00800           0
      2971 LPSA3    21       BMANNA   HT3      HCA3     0.900000E-01   1.00800           0
      2972 LPSA3    21       BMANNA   C3       CC3161   0.140000       12.0110           0
      2973 LPSA3    21       BMANNA   H3       HCA1     0.900000E-01   1.00800           0
      2974 LPSA3    21       BMANNA   O3       OC311   -0.650000       15.9994           0
      2975 LPSA3    21       BMANNA   HO3      HCP1     0.420000       1.00800           0
      2976 LPSA3    21       BMANNA   C4       CC3161   0.140000       12.0110           0
      2977 LPSA3    21       BMANNA   H4       HCA1     0.900000E-01   1.00800           0
      2978 LPSA3    21       BMANNA   O4       OC311   -0.650000       15.9994           0
      2979 LPSA3    21       BMANNA   HO4      HCP1     0.420000       1.00800           0
      2980 LPSA3    21       BMANNA   C6       CC321    0.500000E-01   12.0110           0
      2981 LPSA3    21       BMANNA   H61      HCA2     0.900000E-01   1.00800           0
      2982 LPSA3    21       BMANNA   H62      HCA2     0.900000E-01   1.00800           0
      2983 LPSA3    21       BMANNA   O6       OC311   -0.650000       15.9994           0
      2984 LPSA3    21       BMANNA   HO6      HCP1     0.420000       1.00800           0
      2985 LPSA3    22       BGLCNA   C1       CC3162   0.290000       12.0110           0
      2986 LPSA3    22       BGLCNA   H1       HCA1     0.900000E-01   1.00800           0
      2987 LPSA3    22       BGLCNA   C5       CC3163   0.110000       12.0110           0
      2988 LPSA3    22       BGLCNA   H5       HCA1     0.900000E-01   1.00800           0
      2989 LPSA3    22       BGLCNA   O5       OC3C61  -0.400000       15.9994           0
      2990 LPSA3    22       BGLCNA   C2       CC3161   0.700000E-01   12.0110           0
      2991 LPSA3    22       BGLCNA   H2       HCA1     0.900000E-01   1.00800           0
      2992 LPSA3    22       BGLCNA   N        NC2D1   -0.470000       14.0070           0
      2993 LPSA3    22       BGLCNA   HN       HCP1     0.310000       1.00800           0
      2994 LPSA3    22       BGLCNA   C        CC2O1    0.510000       12.0110           0
      2995 LPSA3    22       BGLCNA   O        OC2D1   -0.510000       15.9994           0
      2996 LPSA3    22       BGLCNA   CT       CC331   -0.270000       12.0110           0
      2997 LPSA3    22       BGLCNA   HT1      HCA3     0.900000E-01   1.00800           0
      2998 LPSA3    22       BGLCNA   HT2      HCA3     0.900000E-01   1.00800           0
      2999 LPSA3    22       BGLCNA   HT3      HCA3     0.900000E-01   1.00800           0
      3000 LPSA3    22       BGLCNA   C3       CC3161   0.900000E-01   12.0110           0
      3001 LPSA3    22       BGLCNA   H3       HCA1     0.900000E-01   1.00800           0
      3002 LPSA3    22       BGLCNA   O3       OC301   -0.360000       15.9994           0
      3003 LPSA3    22       BGLCNA   C4       CC3161   0.140000       12.0110           0
      3004 LPSA3    22       BGLCNA   H4       HCA1     0.900000E-01   1.00800           0
      3005 LPSA3    22       BGLCNA   O4       OC311   -0.650000       15.9994           0
      3006 LPSA3    22       BGLCNA   HO4      HCP1     0.420000       1.00800           0
      3007 LPSA3    22       BGLCNA   C6       CC321    0.500000E-01   12.0110           0
      3008 LPSA3    22       BGLCNA   H61      HCA2     0.900000E-01   1.00800           0
      3009 LPSA3    22       BGLCNA   H62      HCA2     0.900000E-01   1.00800           0
      3010 LPSA3    22       BGLCNA   O6       OC311   -0.650000       15.9994           0
      3011 LPSA3    22       BGLCNA   HO6      HCP1     0.420000       1.00800           0
      3012 LPSA3    23       AGAL     C1       CC3162   0.290000       12.0110           0
      3013 LPSA3    23       AGAL     H1       HCA1     0.900000E-01   1.00800           0
      3014 LPSA3    23       AGAL     C5       CC3163   0.110000       12.0110           0
      3015 LPSA3    23       AGAL     H5       HCA1     0.900000E-01   1.00800           0
      3016 LPSA3    23       AGAL     O5       OC3C61  -0.400000       15.9994           0
      3017 LPSA3    23       AGAL     C2       CC3161   0.900000E-01   12.0110           0
      3018 LPSA3    23       AGAL     H2       HCA1     0.900000E-01   1.00800           0
      3019 LPSA3    23       AGAL     O2       OC301   -0.360000       15.9994           0
      3020 LPSA3    23       AGAL     C3       CC3161   0.140000       12.0110           0
      3021 LPSA3    23       AGAL     H3       HCA1     0.900000E-01   1.00800           0
      3022 LPSA3    23       AGAL     O3       OC311   -0.650000       15.9994           0
      3023 LPSA3    23       AGAL     HO3      HCP1     0.420000       1.00800           0
      3024 LPSA3    23       AGAL     C4       CC3161   0.140000       12.0110           0
      3025 LPSA3    23       AGAL     H4       HCA1     0.900000E-01   1.00800           0
      3026 LPSA3    23       AGAL     O4       OC311   -0.650000       15.9994           0
      3027 LPSA3    23       AGAL     HO4      HCP1     0.420000       1.00800           0
      3028 LPSA3    23       AGAL     C6       CC321    0.500000E-01   12.0110           0
      3029 LPSA3    23       AGAL     H61      HCA2     0.900000E-01   1.00800           0
      3030 LPSA3    23       AGAL     H62      HCA2     0.900000E-01   1.00800           0
      3031 LPSA3    23       AGAL     O6       OC311   -0.650000       15.9994           0
      3032 LPSA3    23       AGAL     HO6      HCP1     0.420000       1.00800           0
      3033 LPSA3    24       ARHM     C1       CC3162   0.290000       12.0110           0
      3034 LPSA3    24       ARHM     H1       HCA1     0.900000E-01   1.00800           0
      3035 LPSA3    24       ARHM     C5       CC3163   0.110000       12.0110           0
      3036 LPSA3    24       ARHM     H5       HCA1     0.900000E-01   1.00800           0
      3037 LPSA3    24       ARHM     O5       OC3C61  -0.400000       15.9994           0
      3038 LPSA3    24       ARHM     C2       CC3161   0.900000E-01   12.0110           0
      3039 LPSA3    24       ARHM     H2       HCA1     0.900000E-01   1.00800           0
      3040 LPSA3    24       ARHM     O2       OC301   -0.360000       15.9994           0
      3041 LPSA3    24       ARHM     C3       CC3161   0.140000       12.0110           0
      3042 LPSA3    24       ARHM     H3       HCA1     0.900000E-01   1.00800           0
      3043 LPSA3    24       ARHM     O3       OC311   -0.650000       15.9994           0
      3044 LPSA3    24       ARHM     HO3      HCP1     0.420000       1.00800           0
      3045 LPSA3    24       ARHM     C4       CC3161   0.140000       12.0110           0
      3046 LPSA3    24       ARHM     H4       HCA1     0.900000E-01   1.00800           0
      3047 LPSA3    24       ARHM     O4       OC311   -0.650000       15.9994           0
      3048 LPSA3    24       ARHM     HO4      HCP1     0.420000       1.00800           0
      3049 LPSA3    24       ARHM     C6       CC331   -0.270000       12.0110           0
      3050 LPSA3    24       ARHM     H61      HCA3     0.900000E-01   1.00800           0
      3051 LPSA3    24       ARHM     H62      HCA3     0.900000E-01   1.00800           0
      3052 LPSA3    24       ARHM     H63      HCA3     0.900000E-01   1.00800           0
      3053 LPSA3    25       ARHM     C1       CC3162   0.290000       12.0110           0
      3054 LPSA3    25       ARHM     H1       HCA1     0.900000E-01   1.00800           0
      3055 LPSA3    25       ARHM     C5       CC3163   0.110000       12.0110           0
      3056 LPSA3    25       ARHM     H5       HCA1     0.900000E-01   1.00800           0
      3057 LPSA3    25       ARHM     O5       OC3C61  -0.400000       15.9994           0
      3058 LPSA3    25       ARHM     C2       CC3161   0.900000E-01   12.0110           0
      3059 LPSA3    25       ARHM     H2       HCA1     0.900000E-01   1.00800           0
      3060 LPSA3    25       ARHM     O2       OC301   -0.360000       15.9994           0
      3061 LPSA3    25       ARHM     C3       CC3161   0.900000E-01   12.0110           0
      3062 LPSA3    25       ARHM     H3       HCA1     0.900000E-01   1.00800           0
      3063 LPSA3    25       ARHM     O3       OC301   -0.360000       15.9994           0
      3064 LPSA3    25       ARHM     C4       CC3161   0.140000       12.0110           0
      3065 LPSA3    25       ARHM     H4       HCA1     0.900000E-01   1.00800           0
      3066 LPSA3    25       ARHM     O4       OC311   -0.650000       15.9994           0
      3067 LPSA3    25       ARHM     HO4      HCP1     0.420000       1.00800           0
      3068 LPSA3    25       ARHM     C6       CC331   -0.270000       12.0110           0
      3069 LPSA3    25       ARHM     H61      HCA3     0.900000E-01   1.00800           0
      3070 LPSA3    25       ARHM     H62      HCA3     0.900000E-01   1.00800           0
      3071 LPSA3    25       ARHM     H63      HCA3     0.900000E-01   1.00800           0
      3072 LPSA3    26       BMANNA   C1       CC3162   0.290000       12.0110           0
      3073 LPSA3    26       BMANNA   H1       HCA1     0.900000E-01   1.00800           0
      3074 LPSA3    26       BMANNA   C5       CC3163   0.110000       12.0110           0
      3075 LPSA3    26       BMANNA   H5       HCA1     0.900000E-01   1.00800           0
      3076 LPSA3    26       BMANNA   O5       OC3C61  -0.400000       15.9994           0
      3077 LPSA3    26       BMANNA   C2       CC3161   0.700000E-01   12.0110           0
      3078 LPSA3    26       BMANNA   H2       HCA1     0.900000E-01   1.00800           0
      3079 LPSA3    26       BMANNA   N        NC2D1   -0.470000       14.0070           0
      3080 LPSA3    26       BMANNA   HN       HCP1     0.310000       1.00800           0
      3081 LPSA3    26       BMANNA   C        CC2O1    0.510000       12.0110           0
      3082 LPSA3    26       BMANNA   O        OC2D1   -0.510000       15.9994           0
      3083 LPSA3    26       BMANNA   CT       CC331   -0.270000       12.0110           0
      3084 LPSA3    26       BMANNA   HT1      HCA3     0.900000E-01   1.00800           0
      3085 LPSA3    26       BMANNA   HT2      HCA3     0.900000E-01   1.00800           0
      3086 LPSA3    26       BMANNA   HT3      HCA3     0.900000E-01   1.00800           0
      3087 LPSA3    26       BMANNA   C3       CC3161   0.140000       12.0110           0
      3088 LPSA3    26       BMANNA   H3       HCA1     0.900000E-01   1.00800           0
      3089 LPSA3    26       BMANNA   O3       OC311   -0.650000       15.9994           0
      3090 LPSA3    26       BMANNA   HO3      HCP1     0.420000       1.00800           0
      3091 LPSA3    26       BMANNA   C4       CC3161   0.140000       12.0110           0
      3092 LPSA3    26       BMANNA   H4       HCA1     0.900000E-01   1.00800           0
      3093 LPSA3    26       BMANNA   O4       OC311   -0.650000       15.9994           0
      3094 LPSA3    26       BMANNA   HO4      HCP1     0.420000       1.00800           0
      3095 LPSA3    26       BMANNA   C6       CC321    0.500000E-01   12.0110           0
      3096 LPSA3    26       BMANNA   H61      HCA2     0.900000E-01   1.00800           0
      3097 LPSA3    26       BMANNA   H62      HCA2     0.900000E-01   1.00800           0
      3098 LPSA3    26       BMANNA   O6       OC311   -0.650000       15.9994           0
      3099 LPSA3    26       BMANNA   HO6      HCP1     0.420000       1.00800           0
      3100 LPSA3    27       BGLCNA   C1       CC3162   0.290000       12.0110           0
      3101 LPSA3    27       BGLCNA   H1       HCA1     0.900000E-01   1.00800           0
      3102 LPSA3    27       BGLCNA   C5       CC3163   0.110000       12.0110           0
      3103 LPSA3    27       BGLCNA   H5       HCA1     0.900000E-01   1.00800           0
      3104 LPSA3    27       BGLCNA   O5       OC3C61  -0.400000       15.9994           0
      3105 LPSA3    27       BGLCNA   C2       CC3161   0.700000E-01   12.0110           0
      3106 LPSA3    27       BGLCNA   H2       HCA1     0.900000E-01   1.00800           0
      3107 LPSA3    27       BGLCNA   N        NC2D1   -0.470000       14.0070           0
      3108 LPSA3    27       BGLCNA   HN       HCP1     0.310000       1.00800           0
      3109 LPSA3    27       BGLCNA   C        CC2O1    0.510000       12.0110           0
      3110 LPSA3    27       BGLCNA   O        OC2D1   -0.510000       15.9994           0
      3111 LPSA3    27       BGLCNA   CT       CC331   -0.270000       12.0110           0
      3112 LPSA3    27       BGLCNA   HT1      HCA3     0.900000E-01   1.00800           0
      3113 LPSA3    27       BGLCNA   HT2      HCA3     0.900000E-01   1.00800           0
      3114 LPSA3    27       BGLCNA   HT3      HCA3     0.900000E-01   1.00800           0
      3115 LPSA3    27       BGLCNA   C3       CC3161   0.900000E-01   12.0110           0
      3116 LPSA3    27       BGLCNA   H3       HCA1     0.900000E-01   1.00800           0
      3117 LPSA3    27       BGLCNA   O3       OC301   -0.360000       15.9994           0
      3118 LPSA3    27       BGLCNA   C4       CC3161   0.140000       12.0110           0
      3119 LPSA3    27       BGLCNA   H4       HCA1     0.900000E-01   1.00800           0
      3120 LPSA3    27       BGLCNA   O4       OC311   -0.650000       15.9994           0
      3121 LPSA3    27       BGLCNA   HO4      HCP1     0.420000       1.00800           0
      3122 LPSA3    27       BGLCNA   C6       CC321    0.500000E-01   12.0110           0
      3123 LPSA3    27       BGLCNA   H61      HCA2     0.900000E-01   1.00800           0
      3124 LPSA3    27       BGLCNA   H62      HCA2     0.900000E-01   1.00800           0
      3125 LPSA3    27       BGLCNA   O6       OC311   -0.650000       15.9994           0
      3126 LPSA3    27       BGLCNA   HO6      HCP1     0.420000       1.00800           0
      3127 LPSA3    28       AGAL     C1       CC3162   0.290000       12.0110           0
      3128 LPSA3    28       AGAL     H1       HCA1     0.900000E-01   1.00800           0
      3129 LPSA3    28       AGAL     C5       CC3163   0.110000       12.0110           0
      3130 LPSA3    28       AGAL     H5       HCA1     0.900000E-01   1.00800           0
      3131 LPSA3    28       AGAL     O5       OC3C61  -0.400000       15.9994           0
      3132 LPSA3    28       AGAL     C2       CC3161   0.900000E-01   12.0110           0
      3133 LPSA3    28       AGAL     H2       HCA1     0.900000E-01   1.00800           0
      3134 LPSA3    28       AGAL     O2       OC301   -0.360000       15.9994           0
      3135 LPSA3    28       AGAL     C3       CC3161   0.140000       12.0110           0
      3136 LPSA3    28       AGAL     H3       HCA1     0.900000E-01   1.00800           0
      3137 LPSA3    28       AGAL     O3       OC311   -0.650000       15.9994           0
      3138 LPSA3    28       AGAL     HO3      HCP1     0.420000       1.00800           0
      3139 LPSA3    28       AGAL     C4       CC3161   0.140000       12.0110           0
      3140 LPSA3    28       AGAL     H4       HCA1     0.900000E-01   1.00800           0
      3141 LPSA3    28       AGAL     O4       OC311   -0.650000       15.9994           0
      3142 LPSA3    28       AGAL     HO4      HCP1     0.420000       1.00800           0
      3143 LPSA3    28       AGAL     C6       CC321    0.500000E-01   12.0110           0
      3144 LPSA3    28       AGAL     H61      HCA2     0.900000E-01   1.00800           0
      3145 LPSA3    28       AGAL     H62      HCA2     0.900000E-01   1.00800           0
      3146 LPSA3    28       AGAL     O6       OC311   -0.650000       15.9994           0
      3147 LPSA3    28       AGAL     HO6      HCP1     0.420000       1.00800           0
      3148 LPSA3    29       ARHM     C1       CC3162   0.290000       12.0110           0
      3149 LPSA3    29       ARHM     H1       HCA1     0.900000E-01   1.00800           0
      3150 LPSA3    29       ARHM     C5       CC3163   0.110000       12.0110           0
      3151 LPSA3    29       ARHM     H5       HCA1     0.900000E-01   1.00800           0
      3152 LPSA3    29       ARHM     O5       OC3C61  -0.400000       15.9994           0
      3153 LPSA3    29       ARHM     C2       CC3161   0.900000E-01   12.0110           0
      3154 LPSA3    29       ARHM     H2       HCA1     0.900000E-01   1.00800           0
      3155 LPSA3    29       ARHM     O2       OC301   -0.360000       15.9994           0
      3156 LPSA3    29       ARHM     C3       CC3161   0.140000       12.0110           0
      3157 LPSA3    29       ARHM     H3       HCA1     0.900000E-01   1.00800           0
      3158 LPSA3    29       ARHM     O3       OC311   -0.650000       15.9994           0
      3159 LPSA3    29       ARHM     HO3      HCP1     0.420000       1.00800           0
      3160 LPSA3    29       ARHM     C4       CC3161   0.140000       12.0110           0
      3161 LPSA3    29       ARHM     H4       HCA1     0.900000E-01   1.00800           0
      3162 LPSA3    29       ARHM     O4       OC311   -0.650000       15.9994           0
      3163 LPSA3    29       ARHM     HO4      HCP1     0.420000       1.00800           0
      3164 LPSA3    29       ARHM     C6       CC331   -0.270000       12.0110           0
      3165 LPSA3    29       ARHM     H61      HCA3     0.900000E-01   1.00800           0
      3166 LPSA3    29       ARHM     H62      HCA3     0.900000E-01   1.00800           0
      3167 LPSA3    29       ARHM     H63      HCA3     0.900000E-01   1.00800           0
      3168 LPSA3    30       ARHM     C1       CC3162   0.290000       12.0110           0
      3169 LPSA3    30       ARHM     H1       HCA1     0.900000E-01   1.00800           0
      3170 LPSA3    30       ARHM     C5       CC3163   0.110000       12.0110           0
      3171 LPSA3    30       ARHM     H5       HCA1     0.900000E-01   1.00800           0
      3172 LPSA3    30       ARHM     O5       OC3C61  -0.400000       15.9994           0
      3173 LPSA3    30       ARHM     C2       CC3161   0.900000E-01   12.0110           0
      3174 LPSA3    30       ARHM     H2       HCA1     0.900000E-01   1.00800           0
      3175 LPSA3    30       ARHM     O2       OC301   -0.360000       15.9994           0
      3176 LPSA3    30       ARHM     C3       CC3161   0.900000E-01   12.0110           0
      3177 LPSA3    30       ARHM     H3       HCA1     0.900000E-01   1.00800           0
      3178 LPSA3    30       ARHM     O3       OC301   -0.360000       15.9994           0
      3179 LPSA3    30       ARHM     C4       CC3161   0.140000       12.0110           0
      3180 LPSA3    30       ARHM     H4       HCA1     0.900000E-01   1.00800           0
      3181 LPSA3    30       ARHM     O4       OC311   -0.650000       15.9994           0
      3182 LPSA3    30       ARHM     HO4      HCP1     0.420000       1.00800           0
      3183 LPSA3    30       ARHM     C6       CC331   -0.270000       12.0110           0
      3184 LPSA3    30       ARHM     H61      HCA3     0.900000E-01   1.00800           0
      3185 LPSA3    30       ARHM     H62      HCA3     0.900000E-01   1.00800           0
      3186 LPSA3    30       ARHM     H63      HCA3     0.900000E-01   1.00800           0
      3187 LPSA3    31       BMANNA   C1       CC3162   0.290000       12.0110           0
      3188 LPSA3    31       BMANNA   H1       HCA1     0.900000E-01   1.00800           0
      3189 LPSA3    31       BMANNA   C5       CC3163   0.110000       12.0110           0
      3190 LPSA3    31       BMANNA   H5       HCA1     0.900000E-01   1.00800           0
      3191 LPSA3    31       BMANNA   O5       OC3C61  -0.400000       15.9994           0
      3192 LPSA3    31       BMANNA   C2       CC3161   0.700000E-01   12.0110           0
      3193 LPSA3    31       BMANNA   H2       HCA1     0.900000E-01   1.00800           0
      3194 LPSA3    31       BMANNA   N        NC2D1   -0.470000       14.0070           0
      3195 LPSA3    31       BMANNA   HN       HCP1     0.310000       1.00800           0
      3196 LPSA3    31       BMANNA   C        CC2O1    0.510000       12.0110           0
      3197 LPSA3    31       BMANNA   O        OC2D1   -0.510000       15.9994           0
      3198 LPSA3    31       BMANNA   CT       CC331   -0.270000       12.0110           0
      3199 LPSA3    31       BMANNA   HT1      HCA3     0.900000E-01   1.00800           0
      3200 LPSA3    31       BMANNA   HT2      HCA3     0.900000E-01   1.00800           0
      3201 LPSA3    31       BMANNA   HT3      HCA3     0.900000E-01   1.00800           0
      3202 LPSA3    31       BMANNA   C3       CC3161   0.140000       12.0110           0
      3203 LPSA3    31       BMANNA   H3       HCA1     0.900000E-01   1.00800           0
      3204 LPSA3    31       BMANNA   O3       OC311   -0.650000       15.9994           0
      3205 LPSA3    31       BMANNA   HO3      HCP1     0.420000       1.00800           0
      3206 LPSA3    31       BMANNA   C4       CC3161   0.140000       12.0110           0
      3207 LPSA3    31       BMANNA   H4       HCA1     0.900000E-01   1.00800           0
      3208 LPSA3    31       BMANNA   O4       OC311   -0.650000       15.9994           0
      3209 LPSA3    31       BMANNA   HO4      HCP1     0.420000       1.00800           0
      3210 LPSA3    31       BMANNA   C6       CC321    0.500000E-01   12.0110           0
      3211 LPSA3    31       BMANNA   H61      HCA2     0.900000E-01   1.00800           0
      3212 LPSA3    31       BMANNA   H62      HCA2     0.900000E-01   1.00800           0
      3213 LPSA3    31       BMANNA   O6       OC311   -0.650000       15.9994           0
      3214 LPSA3    31       BMANNA   HO6      HCP1     0.420000       1.00800           0
      3215 LPSA3    32       BGLCNA   C1       CC3162   0.290000       12.0110           0
      3216 LPSA3    32       BGLCNA   H1       HCA1     0.900000E-01   1.00800           0
      3217 LPSA3    32       BGLCNA   C5       CC3163   0.110000       12.0110           0
      3218 LPSA3    32       BGLCNA   H5       HCA1     0.900000E-01   1.00800           0
      3219 LPSA3    32       BGLCNA   O5       OC3C61  -0.400000       15.9994           0
      3220 LPSA3    32       BGLCNA   C2       CC3161   0.700000E-01   12.0110           0
      3221 LPSA3    32       BGLCNA   H2       HCA1     0.900000E-01   1.00800           0
      3222 LPSA3    32       BGLCNA   N        NC2D1   -0.470000       14.0070           0
      3223 LPSA3    32       BGLCNA   HN       HCP1     0.310000       1.00800           0
      3224 LPSA3    32       BGLCNA   C        CC2O1    0.510000       12.0110           0
      3225 LPSA3    32       BGLCNA   O        OC2D1   -0.510000       15.9994           0
      3226 LPSA3    32       BGLCNA   CT       CC331   -0.270000       12.0110           0
      3227 LPSA3    32       BGLCNA   HT1      HCA3     0.900000E-01   1.00800           0
      3228 LPSA3    32       BGLCNA   HT2      HCA3     0.900000E-01   1.00800           0
      3229 LPSA3    32       BGLCNA   HT3      HCA3     0.900000E-01   1.00800           0
      3230 LPSA3    32       BGLCNA   C3       CC3161   0.900000E-01   12.0110           0
      3231 LPSA3    32       BGLCNA   H3       HCA1     0.900000E-01   1.00800           0
      3232 LPSA3    32       BGLCNA   O3       OC301   -0.360000       15.9994           0
      3233 LPSA3    32       BGLCNA   C4       CC3161   0.140000       12.0110           0
      3234 LPSA3    32       BGLCNA   H4       HCA1     0.900000E-01   1.00800           0
      3235 LPSA3    32       BGLCNA   O4       OC311   -0.650000       15.9994           0
      3236 LPSA3    32       BGLCNA   HO4      HCP1     0.420000       1.00800           0
      3237 LPSA3    32       BGLCNA   C6       CC321    0.500000E-01   12.0110           0
      3238 LPSA3    32       BGLCNA   H61      HCA2     0.900000E-01   1.00800           0
      3239 LPSA3    32       BGLCNA   H62      HCA2     0.900000E-01   1.00800           0
      3240 LPSA3    32       BGLCNA   O6       OC311   -0.650000       15.9994           0
      3241 LPSA3    32       BGLCNA   HO6      HCP1     0.420000       1.00800           0
      3242 LPSA3    33       AGAL     C1       CC3162   0.290000       12.0110           0
      3243 LPSA3    33       AGAL     H1       HCA1     0.900000E-01   1.00800           0
      3244 LPSA3    33       AGAL     C5       CC3163   0.110000       12.0110           0
      3245 LPSA3    33       AGAL     H5       HCA1     0.900000E-01   1.00800           0
      3246 LPSA3    33       AGAL     O5       OC3C61  -0.400000       15.9994           0
      3247 LPSA3    33       AGAL     C2       CC3161   0.900000E-01   12.0110           0
      3248 LPSA3    33       AGAL     H2       HCA1     0.900000E-01   1.00800           0
      3249 LPSA3    33       AGAL     O2       OC301   -0.360000       15.9994           0
      3250 LPSA3    33       AGAL     C3       CC3161   0.140000       12.0110           0
      3251 LPSA3    33       AGAL     H3       HCA1     0.900000E-01   1.00800           0
      3252 LPSA3    33       AGAL     O3       OC311   -0.650000       15.9994           0
      3253 LPSA3    33       AGAL     HO3      HCP1     0.420000       1.00800           0
      3254 LPSA3    33       AGAL     C4       CC3161   0.140000       12.0110           0
      3255 LPSA3    33       AGAL     H4       HCA1     0.900000E-01   1.00800           0
      3256 LPSA3    33       AGAL     O4       OC311   -0.650000       15.9994           0
      3257 LPSA3    33       AGAL     HO4      HCP1     0.420000       1.00800           0
      3258 LPSA3    33       AGAL     C6       CC321    0.500000E-01   12.0110           0
      3259 LPSA3    33       AGAL     H61      HCA2     0.900000E-01   1.00800           0
      3260 LPSA3    33       AGAL     H62      HCA2     0.900000E-01   1.00800           0
      3261 LPSA3    33       AGAL     O6       OC311   -0.650000       15.9994           0
      3262 LPSA3    33       AGAL     HO6      HCP1     0.420000       1.00800           0
      3263 LPSA3    34       ARHM     C1       CC3162   0.290000       12.0110           0
      3264 LPSA3    34       ARHM     H1       HCA1     0.900000E-01   1.00800           0
      3265 LPSA3    34       ARHM     C5       CC3163   0.110000       12.0110           0
      3266 LPSA3    34       ARHM     H5       HCA1     0.900000E-01   1.00800           0
      3267 LPSA3    34       ARHM     O5       OC3C61  -0.400000       15.9994           0
      3268 LPSA3    34       ARHM     C2       CC3161   0.900000E-01   12.0110           0
      3269 LPSA3    34       ARHM     H2       HCA1     0.900000E-01   1.00800           0
      3270 LPSA3    34       ARHM     O2       OC301   -0.360000       15.9994           0
      3271 LPSA3    34       ARHM     C3       CC3161   0.140000       12.0110           0
      3272 LPSA3    34       ARHM     H3       HCA1     0.900000E-01   1.00800           0
      3273 LPSA3    34       ARHM     O3       OC311   -0.650000       15.9994           0
      3274 LPSA3    34       ARHM     HO3      HCP1     0.420000       1.00800           0
      3275 LPSA3    34       ARHM     C4       CC3161   0.140000       12.0110           0
      3276 LPSA3    34       ARHM     H4       HCA1     0.900000E-01   1.00800           0
      3277 LPSA3    34       ARHM     O4       OC311   -0.650000       15.9994           0
      3278 LPSA3    34       ARHM     HO4      HCP1     0.420000       1.00800           0
      3279 LPSA3    34       ARHM     C6       CC331   -0.270000       12.0110           0
      3280 LPSA3    34       ARHM     H61      HCA3     0.900000E-01   1.00800           0
      3281 LPSA3    34       ARHM     H62      HCA3     0.900000E-01   1.00800           0
      3282 LPSA3    34       ARHM     H63      HCA3     0.900000E-01   1.00800           0
      3283 LPSA3    35       ARHM     C1       CC3162   0.290000       12.0110           0
      3284 LPSA3    35       ARHM     H1       HCA1     0.900000E-01   1.00800           0
      3285 LPSA3    35       ARHM     C5       CC3163   0.110000       12.0110           0
      3286 LPSA3    35       ARHM     H5       HCA1     0.900000E-01   1.00800           0
      3287 LPSA3    35       ARHM     O5       OC3C61  -0.400000       15.9994           0
      3288 LPSA3    35       ARHM     C2       CC3161   0.900000E-01   12.0110           0
      3289 LPSA3    35       ARHM     H2       HCA1     0.900000E-01   1.00800           0
      3290 LPSA3    35       ARHM     O2       OC301   -0.360000       15.9994           0
      3291 LPSA3    35       ARHM     C3       CC3161   0.140000       12.0110           0
      3292 LPSA3    35       ARHM     H3       HCA1     0.900000E-01   1.00800           0
      3293 LPSA3    35       ARHM     O3       OC311   -0.650000       15.9994           0
      3294 LPSA3    35       ARHM     HO3      HCP1     0.420000       1.00800           0
      3295 LPSA3    35       ARHM     C4       CC3161   0.140000       12.0110           0
      3296 LPSA3    35       ARHM     H4       HCA1     0.900000E-01   1.00800           0
      3297 LPSA3    35       ARHM     O4       OC311   -0.650000       15.9994           0
      3298 LPSA3    35       ARHM     HO4      HCP1     0.420000       1.00800           0
      3299 LPSA3    35       ARHM     C6       CC331   -0.270000       12.0110           0
      3300 LPSA3    35       ARHM     H61      HCA3     0.900000E-01   1.00800           0
      3301 LPSA3    35       ARHM     H62      HCA3     0.900000E-01   1.00800           0
      3302 LPSA3    35       ARHM     H63      HCA3     0.900000E-01   1.00800           0
      3303 LPSA3    36       BMANNA   C1       CC3162   0.290000       12.0110           0
      3304 LPSA3    36       BMANNA   H1       HCA1     0.900000E-01   1.00800           0
      3305 LPSA3    36       BMANNA   C5       CC3163   0.110000       12.0110           0
      3306 LPSA3    36       BMANNA   H5       HCA1     0.900000E-01   1.00800           0
      3307 LPSA3    36       BMANNA   O5       OC3C61  -0.400000       15.9994           0
      3308 LPSA3    36       BMANNA   C2       CC3161   0.700000E-01   12.0110           0
      3309 LPSA3    36       BMANNA   H2       HCA1     0.900000E-01   1.00800           0
      3310 LPSA3    36       BMANNA   N        NC2D1   -0.470000       14.0070           0
      3311 LPSA3    36       BMANNA   HN       HCP1     0.310000       1.00800           0
      3312 LPSA3    36       BMANNA   C        CC2O1    0.510000       12.0110           0
      3313 LPSA3    36       BMANNA   O        OC2D1   -0.510000       15.9994           0
      3314 LPSA3    36       BMANNA   CT       CC331   -0.270000       12.0110           0
      3315 LPSA3    36       BMANNA   HT1      HCA3     0.900000E-01   1.00800           0
      3316 LPSA3    36       BMANNA   HT2      HCA3     0.900000E-01   1.00800           0
      3317 LPSA3    36       BMANNA   HT3      HCA3     0.900000E-01   1.00800           0
      3318 LPSA3    36       BMANNA   C3       CC3161   0.140000       12.0110           0
      3319 LPSA3    36       BMANNA   H3       HCA1     0.900000E-01   1.00800           0
      3320 LPSA3    36       BMANNA   O3       OC311   -0.650000       15.9994           0
      3321 LPSA3    36       BMANNA   HO3      HCP1     0.420000       1.00800           0
      3322 LPSA3    36       BMANNA   C4       CC3161   0.140000       12.0110           0
      3323 LPSA3    36       BMANNA   H4       HCA1     0.900000E-01   1.00800           0
      3324 LPSA3    36       BMANNA   O4       OC311   -0.650000       15.9994           0
      3325 LPSA3    36       BMANNA   HO4      HCP1     0.420000       1.00800           0
      3326 LPSA3    36       BMANNA   C6       CC321    0.500000E-01   12.0110           0
      3327 LPSA3    36       BMANNA   H61      HCA2     0.900000E-01   1.00800           0
      3328 LPSA3    36       BMANNA   H62      HCA2     0.900000E-01   1.00800           0
      3329 LPSA3    36       BMANNA   O6       OC311   -0.650000       15.9994           0
      3330 LPSA3    36       BMANNA   HO6      HCP1     0.420000       1.00800           0
      3331 LPSA4    1        ECLIPA   HB6S     HCA2     0.900000E-01   1.00800           0
      3332 LPSA4    1        ECLIPA   OB6      OC301   -0.360000       15.9994           0
      3333 LPSA4    1        ECLIPA   CB6      CC321     0.00000       12.0110           0
      3334 LPSA4    1        ECLIPA   HB6R     HCA2     0.900000E-01   1.00800           0
      3335 LPSA4    1        ECLIPA   CB5      CC3163   0.110000       12.0110           0
      3336 LPSA4    1        ECLIPA   OB5      OC3C61  -0.400000       15.9994           0
      3337 LPSA4    1        ECLIPA   HB5      HCA1     0.900000E-01   1.00800           0
      3338 LPSA4    1        ECLIPA   CB1      CC3162   0.290000       12.0110           0
      3339 LPSA4    1        ECLIPA   HB1      HCA1     0.900000E-01   1.00800           0
      3340 LPSA4    1        ECLIPA   OA6      OC301   -0.360000       15.9994           0
      3341 LPSA4    1        ECLIPA   CA6      CC321     0.00000       12.0110           0
      3342 LPSA4    1        ECLIPA   HA6R     HCA2     0.900000E-01   1.00800           0
      3343 LPSA4    1        ECLIPA   HA6S     HCA2     0.900000E-01   1.00800           0
      3344 LPSA4    1        ECLIPA   CB4      CC3161  -0.900000E-01   12.0110           0
      3345 LPSA4    1        ECLIPA   HB4      HCA1     0.900000E-01   1.00800           0
      3346 LPSA4    1        ECLIPA   OB4      OC30P   -0.400000       15.9994           0
      3347 LPSA4    1        ECLIPA   PB       PC        1.10000       30.9740           0
      3348 LPSA4    1        ECLIPA   OPB4     OC2DP   -0.900000       15.9994           0
      3349 LPSA4    1        ECLIPA   OPB3     OC2DP   -0.900000       15.9994           0
      3350 LPSA4    1        ECLIPA   OPB2     OC2DP   -0.900000       15.9994           0
      3351 LPSA4    1        ECLIPA   CB3      CC3161   0.170000       12.0110           0
      3352 LPSA4    1        ECLIPA   OB3      OC301   -0.490000       15.9994           0
      3353 LPSA4    1        ECLIPA   HB3      HCA1     0.900000E-01   1.00800           0
      3354 LPSA4    1        ECLIPA   C71      CL       0.900000       12.0110           0
      3355 LPSA4    1        ECLIPA   O71      OBL     -0.630000       15.9994           0
      3356 LPSA4    1        ECLIPA   C72      CTL2    -0.220000       12.0110           0
      3357 LPSA4    1        ECLIPA   H72R     HAL2     0.900000E-01   1.00800           0
      3358 LPSA4    1        ECLIPA   H72S     HAL2     0.900000E-01   1.00800           0
      3359 LPSA4    1        ECLIPA   CB2      CC3161   0.700000E-01   12.0110           0
      3360 LPSA4    1        ECLIPA   HB2      HCA1     0.900000E-01   1.00800           0
      3361 LPSA4    1        ECLIPA   NB2      NC2D1   -0.470000       14.0070           0
      3362 LPSA4    1        ECLIPA   HNB2     HCP1     0.310000       1.00800           0
      3363 LPSA4    1        ECLIPA   CA4      CC3161   0.140000       12.0110           0
      3364 LPSA4    1        ECLIPA   HA4      HCA1     0.900000E-01   1.00800           0
      3365 LPSA4    1        ECLIPA   OA4      OC311   -0.650000       15.9994           0
      3366 LPSA4    1        ECLIPA   HOA4     HCP1     0.420000       1.00800           0
      3367 LPSA4    1        ECLIPA   CA5      CC3163   0.110000       12.0110           0
      3368 LPSA4    1        ECLIPA   HA5      HCA1     0.900000E-01   1.00800           0
      3369 LPSA4    1        ECLIPA   OA5      OC3C61  -0.400000       15.9994           0
      3370 LPSA4    1        ECLIPA   CA1      CC3162   0.110000       12.0110           0
      3371 LPSA4    1        ECLIPA   HA1      HCA1     0.900000E-01   1.00800           0
      3372 LPSA4    1        ECLIPA   OA1      OC30P   -0.400000       15.9994           0
      3373 LPSA4    1        ECLIPA   OPA2     OC2DP   -0.900000       15.9994           0
      3374 LPSA4    1        ECLIPA   OPA3     OC2DP   -0.900000       15.9994           0
      3375 LPSA4    1        ECLIPA   OPA4     OC2DP   -0.900000       15.9994           0
      3376 LPSA4    1        ECLIPA   PA       PC        1.10000       30.9740           0
      3377 LPSA4    1        ECLIPA   CA3      CC3161   0.170000       12.0110           0
      3378 LPSA4    1        ECLIPA   HA3      HCA1     0.900000E-01   1.00800           0
      3379 LPSA4    1        ECLIPA   OA3      OC301   -0.490000       15.9994           0
      3380 LPSA4    1        ECLIPA   C31      CL       0.900000       12.0110           0
      3381 LPSA4    1        ECLIPA   O31      OBL     -0.630000       15.9994           0
      3382 LPSA4    1        ECLIPA   C32      CTL2    -0.220000       12.0110           0
      3383 LPSA4    1        ECLIPA   H32R     HAL2     0.900000E-01   1.00800           0
      3384 LPSA4    1        ECLIPA   H32S     HAL2     0.900000E-01   1.00800           0
      3385 LPSA4    1        ECLIPA   CA2      CC3161   0.700000E-01   12.0110           0
      3386 LPSA4    1        ECLIPA   HA2      HCA1     0.900000E-01   1.00800           0
      3387 LPSA4    1        ECLIPA   NA2      NC2D1   -0.470000       14.0070           0
      3388 LPSA4    1        ECLIPA   HNA2     HCP1     0.310000       1.00800           0
      3389 LPSA4    1        ECLIPA   C73      CTL1     0.170000       12.0110           0
      3390 LPSA4    1        ECLIPA   H73R     HAL1     0.900000E-01   1.00800           0
      3391 LPSA4    1        ECLIPA   O73      OSL     -0.490000       15.9994           0
      3392 LPSA4    1        ECLIPA   C81      CL       0.900000       12.0110           0
      3393 LPSA4    1        ECLIPA   O81      OBL     -0.630000       15.9994           0
      3394 LPSA4    1        ECLIPA   C82      CTL2    -0.220000       12.0110           0
      3395 LPSA4    1        ECLIPA   H82R     HAL2     0.900000E-01   1.00800           0
      3396 LPSA4    1        ECLIPA   H82S     HAL2     0.900000E-01   1.00800           0
      3397 LPSA4    1        ECLIPA   C83      CTL2    -0.180000       12.0110           0
      3398 LPSA4    1        ECLIPA   H83R     HAL2     0.900000E-01   1.00800           0
      3399 LPSA4    1        ECLIPA   H83S     HAL2     0.900000E-01   1.00800           0
      3400 LPSA4    1        ECLIPA   C84      CTL2    -0.180000       12.0110           0
      3401 LPSA4    1        ECLIPA   H84R     HAL2     0.900000E-01   1.00800           0
      3402 LPSA4    1        ECLIPA   H84S     HAL2     0.900000E-01   1.00800           0
      3403 LPSA4    1        ECLIPA   C85      CTL2    -0.180000       12.0110           0
      3404 LPSA4    1        ECLIPA   H85R     HAL2     0.900000E-01   1.00800           0
      3405 LPSA4    1        ECLIPA   H85S     HAL2     0.900000E-01   1.00800           0
      3406 LPSA4    1        ECLIPA   C86      CTL2    -0.180000       12.0110           0
      3407 LPSA4    1        ECLIPA   H86R     HAL2     0.900000E-01   1.00800           0
      3408 LPSA4    1        ECLIPA   H86S     HAL2     0.900000E-01   1.00800           0
      3409 LPSA4    1        ECLIPA   C87      CTL2    -0.180000       12.0110           0
      3410 LPSA4    1        ECLIPA   H87R     HAL2     0.900000E-01   1.00800           0
      3411 LPSA4    1        ECLIPA   H87S     HAL2     0.900000E-01   1.00800           0
      3412 LPSA4    1        ECLIPA   C88      CTL2    -0.180000       12.0110           0
      3413 LPSA4    1        ECLIPA   H88R     HAL2     0.900000E-01   1.00800           0
      3414 LPSA4    1        ECLIPA   H88S     HAL2     0.900000E-01   1.00800           0
      3415 LPSA4    1        ECLIPA   C89      CTL2    -0.180000       12.0110           0
      3416 LPSA4    1        ECLIPA   H89R     HAL2     0.900000E-01   1.00800           0
      3417 LPSA4    1        ECLIPA   H89S     HAL2     0.900000E-01   1.00800           0
      3418 LPSA4    1        ECLIPA   C810     CTL2    -0.180000       12.0110           0
      3419 LPSA4    1        ECLIPA   H810R    HAL2     0.900000E-01   1.00800           0
      3420 LPSA4    1        ECLIPA   H810S    HAL2     0.900000E-01   1.00800           0
      3421 LPSA4    1        ECLIPA   C811     CTL2    -0.180000       12.0110           0
      3422 LPSA4    1        ECLIPA   H811R    HAL2     0.900000E-01   1.00800           0
      3423 LPSA4    1        ECLIPA   H811S    HAL2     0.900000E-01   1.00800           0
      3424 LPSA4    1        ECLIPA   C812     CTL2    -0.180000       12.0110           0
      3425 LPSA4    1        ECLIPA   H812R    HAL2     0.900000E-01   1.00800           0
      3426 LPSA4    1        ECLIPA   H812S    HAL2     0.900000E-01   1.00800           0
      3427 LPSA4    1        ECLIPA   C813     CTL2    -0.180000       12.0110           0
      3428 LPSA4    1        ECLIPA   H813R    HAL2     0.900000E-01   1.00800           0
      3429 LPSA4    1        ECLIPA   H813S    HAL2     0.900000E-01   1.00800           0
      3430 LPSA4    1        ECLIPA   C814     CTL3    -0.270000       12.0110           0
      3431 LPSA4    1        ECLIPA   H814R    HAL3     0.900000E-01   1.00800           0
      3432 LPSA4    1        ECLIPA   H814S    HAL3     0.900000E-01   1.00800           0
      3433 LPSA4    1        ECLIPA   H814T    HAL3     0.900000E-01   1.00800           0
      3434 LPSA4    1        ECLIPA   C74      CTL2    -0.180000       12.0110           0
      3435 LPSA4    1        ECLIPA   H74R     HAL2     0.900000E-01   1.00800           0
      3436 LPSA4    1        ECLIPA   H74S     HAL2     0.900000E-01   1.00800           0
      3437 LPSA4    1        ECLIPA   C75      CTL2    -0.180000       12.0110           0
      3438 LPSA4    1        ECLIPA   H75R     HAL2     0.900000E-01   1.00800           0
      3439 LPSA4    1        ECLIPA   H75S     HAL2     0.900000E-01   1.00800           0
      3440 LPSA4    1        ECLIPA   C76      CTL2    -0.180000       12.0110           0
      3441 LPSA4    1        ECLIPA   H76R     HAL2     0.900000E-01   1.00800           0
      3442 LPSA4    1        ECLIPA   H76S     HAL2     0.900000E-01   1.00800           0
      3443 LPSA4    1        ECLIPA   C77      CTL2    -0.180000       12.0110           0
      3444 LPSA4    1        ECLIPA   H77R     HAL2     0.900000E-01   1.00800           0
      3445 LPSA4    1        ECLIPA   H77S     HAL2     0.900000E-01   1.00800           0
      3446 LPSA4    1        ECLIPA   C78      CTL2    -0.180000       12.0110           0
      3447 LPSA4    1        ECLIPA   H78R     HAL2     0.900000E-01   1.00800           0
      3448 LPSA4    1        ECLIPA   H78S     HAL2     0.900000E-01   1.00800           0
      3449 LPSA4    1        ECLIPA   C79      CTL2    -0.180000       12.0110           0
      3450 LPSA4    1        ECLIPA   H79R     HAL2     0.900000E-01   1.00800           0
      3451 LPSA4    1        ECLIPA   H79S     HAL2     0.900000E-01   1.00800           0
      3452 LPSA4    1        ECLIPA   C710     CTL2    -0.180000       12.0110           0
      3453 LPSA4    1        ECLIPA   H710R    HAL2     0.900000E-01   1.00800           0
      3454 LPSA4    1        ECLIPA   H710S    HAL2     0.900000E-01   1.00800           0
      3455 LPSA4    1        ECLIPA   C711     CTL2    -0.180000       12.0110           0
      3456 LPSA4    1        ECLIPA   H711R    HAL2     0.900000E-01   1.00800           0
      3457 LPSA4    1        ECLIPA   H711S    HAL2     0.900000E-01   1.00800           0
      3458 LPSA4    1        ECLIPA   C712     CTL2    -0.180000       12.0110           0
      3459 LPSA4    1        ECLIPA   H712R    HAL2     0.900000E-01   1.00800           0
      3460 LPSA4    1        ECLIPA   H712S    HAL2     0.900000E-01   1.00800           0
      3461 LPSA4    1        ECLIPA   C713     CTL2    -0.180000       12.0110           0
      3462 LPSA4    1        ECLIPA   H713R    HAL2     0.900000E-01   1.00800           0
      3463 LPSA4    1        ECLIPA   H713S    HAL2     0.900000E-01   1.00800           0
      3464 LPSA4    1        ECLIPA   C714     CTL3    -0.270000       12.0110           0
      3465 LPSA4    1        ECLIPA   H714R    HAL3     0.900000E-01   1.00800           0
      3466 LPSA4    1        ECLIPA   H714S    HAL3     0.900000E-01   1.00800           0
      3467 LPSA4    1        ECLIPA   H714T    HAL3     0.900000E-01   1.00800           0
      3468 LPSA4    1        ECLIPA   C51      CC2O1    0.550000       12.0110           0
      3469 LPSA4    1        ECLIPA   O51      OC2D1   -0.550000       15.9994           0
      3470 LPSA4    1        ECLIPA   C52      CTL2    -0.180000       12.0110           0
      3471 LPSA4    1        ECLIPA   H52R     HAL2     0.900000E-01   1.00800           0
      3472 LPSA4    1        ECLIPA   H52S     HAL2     0.900000E-01   1.00800           0
      3473 LPSA4    1        ECLIPA   C53      CTL1     0.170000       12.0110           0
      3474 LPSA4    1        ECLIPA   H53R     HAL1     0.900000E-01   1.00800           0
      3475 LPSA4    1        ECLIPA   O53      OSL     -0.490000       15.9994           0
      3476 LPSA4    1        ECLIPA   C61      CL       0.900000       12.0110           0
      3477 LPSA4    1        ECLIPA   O61      OBL     -0.630000       15.9994           0
      3478 LPSA4    1        ECLIPA   C62      CTL2    -0.220000       12.0110           0
      3479 LPSA4    1        ECLIPA   H62R     HAL2     0.900000E-01   1.00800           0
      3480 LPSA4    1        ECLIPA   H62S     HAL2     0.900000E-01   1.00800           0
      3481 LPSA4    1        ECLIPA   C63      CTL2    -0.180000       12.0110           0
      3482 LPSA4    1        ECLIPA   H63R     HAL2     0.900000E-01   1.00800           0
      3483 LPSA4    1        ECLIPA   H63S     HAL2     0.900000E-01   1.00800           0
      3484 LPSA4    1        ECLIPA   C64      CTL2    -0.180000       12.0110           0
      3485 LPSA4    1        ECLIPA   H64R     HAL2     0.900000E-01   1.00800           0
      3486 LPSA4    1        ECLIPA   H64S     HAL2     0.900000E-01   1.00800           0
      3487 LPSA4    1        ECLIPA   C65      CTL2    -0.180000       12.0110           0
      3488 LPSA4    1        ECLIPA   H65R     HAL2     0.900000E-01   1.00800           0
      3489 LPSA4    1        ECLIPA   H65S     HAL2     0.900000E-01   1.00800           0
      3490 LPSA4    1        ECLIPA   C66      CTL2    -0.180000       12.0110           0
      3491 LPSA4    1        ECLIPA   H66R     HAL2     0.900000E-01   1.00800           0
      3492 LPSA4    1        ECLIPA   H66S     HAL2     0.900000E-01   1.00800           0
      3493 LPSA4    1        ECLIPA   C67      CTL2    -0.180000       12.0110           0
      3494 LPSA4    1        ECLIPA   H67R     HAL2     0.900000E-01   1.00800           0
      3495 LPSA4    1        ECLIPA   H67S     HAL2     0.900000E-01   1.00800           0
      3496 LPSA4    1        ECLIPA   C68      CTL2    -0.180000       12.0110           0
      3497 LPSA4    1        ECLIPA   H68R     HAL2     0.900000E-01   1.00800           0
      3498 LPSA4    1        ECLIPA   H68S     HAL2     0.900000E-01   1.00800           0
      3499 LPSA4    1        ECLIPA   C69      CTL2    -0.180000       12.0110           0
      3500 LPSA4    1        ECLIPA   H69R     HAL2     0.900000E-01   1.00800           0
      3501 LPSA4    1        ECLIPA   H69S     HAL2     0.900000E-01   1.00800           0
      3502 LPSA4    1        ECLIPA   C610     CTL2    -0.180000       12.0110           0
      3503 LPSA4    1        ECLIPA   H610R    HAL2     0.900000E-01   1.00800           0
      3504 LPSA4    1        ECLIPA   H610S    HAL2     0.900000E-01   1.00800           0
      3505 LPSA4    1        ECLIPA   C611     CTL2    -0.180000       12.0110           0
      3506 LPSA4    1        ECLIPA   H611R    HAL2     0.900000E-01   1.00800           0
      3507 LPSA4    1        ECLIPA   H611S    HAL2     0.900000E-01   1.00800           0
      3508 LPSA4    1        ECLIPA   C612     CTL3    -0.270000       12.0110           0
      3509 LPSA4    1        ECLIPA   H612R    HAL3     0.900000E-01   1.00800           0
      3510 LPSA4    1        ECLIPA   H612S    HAL3     0.900000E-01   1.00800           0
      3511 LPSA4    1        ECLIPA   H612T    HAL3     0.900000E-01   1.00800           0
      3512 LPSA4    1        ECLIPA   C54      CTL2    -0.180000       12.0110           0
      3513 LPSA4    1        ECLIPA   H54R     HAL2     0.900000E-01   1.00800           0
      3514 LPSA4    1        ECLIPA   H54S     HAL2     0.900000E-01   1.00800           0
      3515 LPSA4    1        ECLIPA   C55      CTL2    -0.180000       12.0110           0
      3516 LPSA4    1        ECLIPA   H55R     HAL2     0.900000E-01   1.00800           0
      3517 LPSA4    1        ECLIPA   H55S     HAL2     0.900000E-01   1.00800           0
      3518 LPSA4    1        ECLIPA   C56      CTL2    -0.180000       12.0110           0
      3519 LPSA4    1        ECLIPA   H56R     HAL2     0.900000E-01   1.00800           0
      3520 LPSA4    1        ECLIPA   H56S     HAL2     0.900000E-01   1.00800           0
      3521 LPSA4    1        ECLIPA   C57      CTL2    -0.180000       12.0110           0
      3522 LPSA4    1        ECLIPA   H57R     HAL2     0.900000E-01   1.00800           0
      3523 LPSA4    1        ECLIPA   H57S     HAL2     0.900000E-01   1.00800           0
      3524 LPSA4    1        ECLIPA   C58      CTL2    -0.180000       12.0110           0
      3525 LPSA4    1        ECLIPA   H58R     HAL2     0.900000E-01   1.00800           0
      3526 LPSA4    1        ECLIPA   H58S     HAL2     0.900000E-01   1.00800           0
      3527 LPSA4    1        ECLIPA   C59      CTL2    -0.180000       12.0110           0
      3528 LPSA4    1        ECLIPA   H59R     HAL2     0.900000E-01   1.00800           0
      3529 LPSA4    1        ECLIPA   H59S     HAL2     0.900000E-01   1.00800           0
      3530 LPSA4    1        ECLIPA   C510     CTL2    -0.180000       12.0110           0
      3531 LPSA4    1        ECLIPA   H510R    HAL2     0.900000E-01   1.00800           0
      3532 LPSA4    1        ECLIPA   H510S    HAL2     0.900000E-01   1.00800           0
      3533 LPSA4    1        ECLIPA   C511     CTL2    -0.180000       12.0110           0
      3534 LPSA4    1        ECLIPA   H511R    HAL2     0.900000E-01   1.00800           0
      3535 LPSA4    1        ECLIPA   H511S    HAL2     0.900000E-01   1.00800           0
      3536 LPSA4    1        ECLIPA   C512     CTL2    -0.180000       12.0110           0
      3537 LPSA4    1        ECLIPA   H512R    HAL2     0.900000E-01   1.00800           0
      3538 LPSA4    1        ECLIPA   H512S    HAL2     0.900000E-01   1.00800           0
      3539 LPSA4    1        ECLIPA   C513     CTL2    -0.180000       12.0110           0
      3540 LPSA4    1        ECLIPA   H513R    HAL2     0.900000E-01   1.00800           0
      3541 LPSA4    1        ECLIPA   H513S    HAL2     0.900000E-01   1.00800           0
      3542 LPSA4    1        ECLIPA   C514     CTL3    -0.270000       12.0110           0
      3543 LPSA4    1        ECLIPA   H514R    HAL3     0.900000E-01   1.00800           0
      3544 LPSA4    1        ECLIPA   H514S    HAL3     0.900000E-01   1.00800           0
      3545 LPSA4    1        ECLIPA   H514T    HAL3     0.900000E-01   1.00800           0
      3546 LPSA4    1        ECLIPA   C33      CTL1     0.140000       12.0110           0
      3547 LPSA4    1        ECLIPA   H33R     HAL1     0.900000E-01   1.00800           0
      3548 LPSA4    1        ECLIPA   O33      OH1     -0.660000       15.9994           0
      3549 LPSA4    1        ECLIPA   HO33     H        0.430000       1.00800           0
      3550 LPSA4    1        ECLIPA   C34      CTL2    -0.180000       12.0110           0
      3551 LPSA4    1        ECLIPA   H34R     HAL2     0.900000E-01   1.00800           0
      3552 LPSA4    1        ECLIPA   H34S     HAL2     0.900000E-01   1.00800           0
      3553 LPSA4    1        ECLIPA   C35      CTL2    -0.180000       12.0110           0
      3554 LPSA4    1        ECLIPA   H35R     HAL2     0.900000E-01   1.00800           0
      3555 LPSA4    1        ECLIPA   H35S     HAL2     0.900000E-01   1.00800           0
      3556 LPSA4    1        ECLIPA   C36      CTL2    -0.180000       12.0110           0
      3557 LPSA4    1        ECLIPA   H36R     HAL2     0.900000E-01   1.00800           0
      3558 LPSA4    1        ECLIPA   H36S     HAL2     0.900000E-01   1.00800           0
      3559 LPSA4    1        ECLIPA   C37      CTL2    -0.180000       12.0110           0
      3560 LPSA4    1        ECLIPA   H37R     HAL2     0.900000E-01   1.00800           0
      3561 LPSA4    1        ECLIPA   H37S     HAL2     0.900000E-01   1.00800           0
      3562 LPSA4    1        ECLIPA   C38      CTL2    -0.180000       12.0110           0
      3563 LPSA4    1        ECLIPA   H38R     HAL2     0.900000E-01   1.00800           0
      3564 LPSA4    1        ECLIPA   H38S     HAL2     0.900000E-01   1.00800           0
      3565 LPSA4    1        ECLIPA   C39      CTL2    -0.180000       12.0110           0
      3566 LPSA4    1        ECLIPA   H39R     HAL2     0.900000E-01   1.00800           0
      3567 LPSA4    1        ECLIPA   H39S     HAL2     0.900000E-01   1.00800           0
      3568 LPSA4    1        ECLIPA   C310     CTL2    -0.180000       12.0110           0
      3569 LPSA4    1        ECLIPA   H310R    HAL2     0.900000E-01   1.00800           0
      3570 LPSA4    1        ECLIPA   H310S    HAL2     0.900000E-01   1.00800           0
      3571 LPSA4    1        ECLIPA   C311     CTL2    -0.180000       12.0110           0
      3572 LPSA4    1        ECLIPA   H311R    HAL2     0.900000E-01   1.00800           0
      3573 LPSA4    1        ECLIPA   H311S    HAL2     0.900000E-01   1.00800           0
      3574 LPSA4    1        ECLIPA   C312     CTL2    -0.180000       12.0110           0
      3575 LPSA4    1        ECLIPA   H312R    HAL2     0.900000E-01   1.00800           0
      3576 LPSA4    1        ECLIPA   H312S    HAL2     0.900000E-01   1.00800           0
      3577 LPSA4    1        ECLIPA   C313     CTL2    -0.180000       12.0110           0
      3578 LPSA4    1        ECLIPA   H313R    HAL2     0.900000E-01   1.00800           0
      3579 LPSA4    1        ECLIPA   H313S    HAL2     0.900000E-01   1.00800           0
      3580 LPSA4    1        ECLIPA   C314     CTL3    -0.270000       12.0110           0
      3581 LPSA4    1        ECLIPA   H314R    HAL3     0.900000E-01   1.00800           0
      3582 LPSA4    1        ECLIPA   H314S    HAL3     0.900000E-01   1.00800           0
      3583 LPSA4    1        ECLIPA   H314T    HAL3     0.900000E-01   1.00800           0
      3584 LPSA4    1        ECLIPA   C11      CC2O1    0.550000       12.0110           0
      3585 LPSA4    1        ECLIPA   O11      OC2D1   -0.550000       15.9994           0
      3586 LPSA4    1        ECLIPA   C12      CTL2    -0.180000       12.0110           0
      3587 LPSA4    1        ECLIPA   H12R     HAL2     0.900000E-01   1.00800           0
      3588 LPSA4    1        ECLIPA   H12S     HAL2     0.900000E-01   1.00800           0
      3589 LPSA4    1        ECLIPA   C13      CTL1     0.140000       12.0110           0
      3590 LPSA4    1        ECLIPA   H13R     HAL1     0.900000E-01   1.00800           0
      3591 LPSA4    1        ECLIPA   O13      OH1     -0.660000       15.9994           0
      3592 LPSA4    1        ECLIPA   HO13     H        0.430000       1.00800           0
      3593 LPSA4    1        ECLIPA   C14      CTL2    -0.180000       12.0110           0
      3594 LPSA4    1        ECLIPA   H14R     HAL2     0.900000E-01   1.00800           0
      3595 LPSA4    1        ECLIPA   H14S     HAL2     0.900000E-01   1.00800           0
      3596 LPSA4    1        ECLIPA   C15      CTL2    -0.180000       12.0110           0
      3597 LPSA4    1        ECLIPA   H15R     HAL2     0.900000E-01   1.00800           0
      3598 LPSA4    1        ECLIPA   H15S     HAL2     0.900000E-01   1.00800           0
      3599 LPSA4    1        ECLIPA   C16      CTL2    -0.180000       12.0110           0
      3600 LPSA4    1        ECLIPA   H16R     HAL2     0.900000E-01   1.00800           0
      3601 LPSA4    1        ECLIPA   H16S     HAL2     0.900000E-01   1.00800           0
      3602 LPSA4    1        ECLIPA   C17      CTL2    -0.180000       12.0110           0
      3603 LPSA4    1        ECLIPA   H17R     HAL2     0.900000E-01   1.00800           0
      3604 LPSA4    1        ECLIPA   H17S     HAL2     0.900000E-01   1.00800           0
      3605 LPSA4    1        ECLIPA   C18      CTL2    -0.180000       12.0110           0
      3606 LPSA4    1        ECLIPA   H18R     HAL2     0.900000E-01   1.00800           0
      3607 LPSA4    1        ECLIPA   H18S     HAL2     0.900000E-01   1.00800           0
      3608 LPSA4    1        ECLIPA   C19      CTL2    -0.180000       12.0110           0
      3609 LPSA4    1        ECLIPA   H19R     HAL2     0.900000E-01   1.00800           0
      3610 LPSA4    1        ECLIPA   H19S     HAL2     0.900000E-01   1.00800           0
      3611 LPSA4    1        ECLIPA   C110     CTL2    -0.180000       12.0110           0
      3612 LPSA4    1        ECLIPA   H110R    HAL2     0.900000E-01   1.00800           0
      3613 LPSA4    1        ECLIPA   H110S    HAL2     0.900000E-01   1.00800           0
      3614 LPSA4    1        ECLIPA   C111     CTL2    -0.180000       12.0110           0
      3615 LPSA4    1        ECLIPA   H111R    HAL2     0.900000E-01   1.00800           0
      3616 LPSA4    1        ECLIPA   H111S    HAL2     0.900000E-01   1.00800           0
      3617 LPSA4    1        ECLIPA   C112     CTL2    -0.180000       12.0110           0
      3618 LPSA4    1        ECLIPA   H112R    HAL2     0.900000E-01   1.00800           0
      3619 LPSA4    1        ECLIPA   H112S    HAL2     0.900000E-01   1.00800           0
      3620 LPSA4    1        ECLIPA   C113     CTL2    -0.180000       12.0110           0
      3621 LPSA4    1        ECLIPA   H113R    HAL2     0.900000E-01   1.00800           0
      3622 LPSA4    1        ECLIPA   H113S    HAL2     0.900000E-01   1.00800           0
      3623 LPSA4    1        ECLIPA   C114     CTL3    -0.270000       12.0110           0
      3624 LPSA4    1        ECLIPA   H114R    HAL3     0.900000E-01   1.00800           0
      3625 LPSA4    1        ECLIPA   H114S    HAL3     0.900000E-01   1.00800           0
      3626 LPSA4    1        ECLIPA   H114T    HAL3     0.900000E-01   1.00800           0
      3627 LPSA4    2        AKDO     C1       CC2O2    0.300000       12.0110           0
      3628 LPSA4    2        AKDO     O11      OC2D2   -0.600000       15.9994           0
      3629 LPSA4    2        AKDO     O12      OC2D2   -0.600000       15.9994           0
      3630 LPSA4    2        AKDO     C2       CC3062   0.280000       12.0110           0
      3631 LPSA4    2        AKDO     C6       CC3163   0.110000       12.0110           0
      3632 LPSA4    2        AKDO     H6       HCA1     0.900000E-01   1.00800           0
      3633 LPSA4    2        AKDO     O6       OC3C61  -0.400000       15.9994           0
      3634 LPSA4    2        AKDO     C3       CC3261  -0.180000       12.0110           0
      3635 LPSA4    2        AKDO     H31      HCA2     0.900000E-01   1.00800           0
      3636 LPSA4    2        AKDO     H32      HCA2     0.900000E-01   1.00800           0
      3637 LPSA4    2        AKDO     C4       CC3161   0.900000E-01   12.0110           0
      3638 LPSA4    2        AKDO     H4       HCA1     0.900000E-01   1.00800           0
      3639 LPSA4    2        AKDO     O4       OC301   -0.360000       15.9994           0
      3640 LPSA4    2        AKDO     C5       CC3161   0.900000E-01   12.0110           0
      3641 LPSA4    2        AKDO     H5       HCA1     0.900000E-01   1.00800           0
      3642 LPSA4    2        AKDO     O5       OC301   -0.360000       15.9994           0
      3643 LPSA4    2        AKDO     C7       CC312    0.140000       12.0110           0
      3644 LPSA4    2        AKDO     H7       HCA1     0.900000E-01   1.00800           0
      3645 LPSA4    2        AKDO     O7       OC311   -0.650000       15.9994           0
      3646 LPSA4    2        AKDO     HO7      HCP1     0.420000       1.00800           0
      3647 LPSA4    2        AKDO     C8       CC322    0.500000E-01   12.0110           0
      3648 LPSA4    2        AKDO     H81      HCA2     0.900000E-01   1.00800           0
      3649 LPSA4    2        AKDO     H82      HCA2     0.900000E-01   1.00800           0
      3650 LPSA4    2        AKDO     O8       OC311   -0.650000       15.9994           0
      3651 LPSA4    2        AKDO     HO8      HCP1     0.420000       1.00800           0
      3652 LPSA4    3        AKDO     C1       CC2O2    0.300000       12.0110           0
      3653 LPSA4    3        AKDO     O11      OC2D2   -0.600000       15.9994           0
      3654 LPSA4    3        AKDO     O12      OC2D2   -0.600000       15.9994           0
      3655 LPSA4    3        AKDO     C2       CC3062   0.280000       12.0110           0
      3656 LPSA4    3        AKDO     C6       CC3163   0.110000       12.0110           0
      3657 LPSA4    3        AKDO     H6       HCA1     0.900000E-01   1.00800           0
      3658 LPSA4    3        AKDO     O6       OC3C61  -0.400000       15.9994           0
      3659 LPSA4    3        AKDO     C3       CC3261  -0.180000       12.0110           0
      3660 LPSA4    3        AKDO     H31      HCA2     0.900000E-01   1.00800           0
      3661 LPSA4    3        AKDO     H32      HCA2     0.900000E-01   1.00800           0
      3662 LPSA4    3        AKDO     C4       CC3161   0.140000       12.0110           0
      3663 LPSA4    3        AKDO     H4       HCA1     0.900000E-01   1.00800           0
      3664 LPSA4    3        AKDO     O4       OC311   -0.650000       15.9994           0
      3665 LPSA4    3        AKDO     HO4      HCP1     0.420000       1.00800           0
      3666 LPSA4    3        AKDO     C5       CC3161   0.140000       12.0110           0
      3667 LPSA4    3        AKDO     H5       HCA1     0.900000E-01   1.00800           0
      3668 LPSA4    3        AKDO     O5       OC311   -0.650000       15.9994           0
      3669 LPSA4    3        AKDO     HO5      HCP1     0.420000       1.00800           0
      3670 LPSA4    3        AKDO     C7       CC312    0.140000       12.0110           0
      3671 LPSA4    3        AKDO     H7       HCA1     0.900000E-01   1.00800           0
      3672 LPSA4    3        AKDO     O7       OC311   -0.650000       15.9994           0
      3673 LPSA4    3        AKDO     HO7      HCP1     0.420000       1.00800           0
      3674 LPSA4    3        AKDO     C8       CC322    0.500000E-01   12.0110           0
      3675 LPSA4    3        AKDO     H81      HCA2     0.900000E-01   1.00800           0
      3676 LPSA4    3        AKDO     H82      HCA2     0.900000E-01   1.00800           0
      3677 LPSA4    3        AKDO     O8       OC311   -0.650000       15.9994           0
      3678 LPSA4    3        AKDO     HO8      HCP1     0.420000       1.00800           0
      3679 LPSA4    4        AHEP     C1       CC3162   0.290000       12.0110           0
      3680 LPSA4    4        AHEP     H1       HCA1     0.900000E-01   1.00800           0
      3681 LPSA4    4        AHEP     C5       CC3163   0.110000       12.0110           0
      3682 LPSA4    4        AHEP     H5       HCA1     0.900000E-01   1.00800           0
      3683 LPSA4    4        AHEP     O5       OC3C61  -0.400000       15.9994           0
      3684 LPSA4    4        AHEP     C2       CC3161   0.140000       12.0110           0
      3685 LPSA4    4        AHEP     H2       HCA1     0.900000E-01   1.00800           0
      3686 LPSA4    4        AHEP     O2       OC311   -0.650000       15.9994           0
      3687 LPSA4    4        AHEP     HO2      HCP1     0.420000       1.00800           0
      3688 LPSA4    4        AHEP     C3       CC3161   0.900000E-01   12.0110           0
      3689 LPSA4    4        AHEP     H3       HCA1     0.900000E-01   1.00800           0
      3690 LPSA4    4        AHEP     O3       OC301   -0.360000       15.9994           0
      3691 LPSA4    4        AHEP     C4       CC3161  -0.900000E-01   12.0110           0
      3692 LPSA4    4        AHEP     H4       HCA1     0.900000E-01   1.00800           0
      3693 LPSA4    4        AHEP     O4       OC30P   -0.400000       15.9994           0
      3694 LPSA4    4        AHEP     P4       PC        1.10000       30.9740           0
      3695 LPSA4    4        AHEP     OP42     OC2DP   -0.900000       15.9994           0
      3696 LPSA4    4        AHEP     OP43     OC2DP   -0.900000       15.9994           0
      3697 LPSA4    4        AHEP     OP44     OC2DP   -0.900000       15.9994           0
      3698 LPSA4    4        AHEP     C6       CC312    0.140000       12.0110           0
      3699 LPSA4    4        AHEP     H6       HCA1     0.900000E-01   1.00800           0
      3700 LPSA4    4        AHEP     O6       OC311   -0.650000       15.9994           0
      3701 LPSA4    4        AHEP     HO6      HCP1     0.420000       1.00800           0
      3702 LPSA4    4        AHEP     C7       CC322    0.500000E-01   12.0110           0
      3703 LPSA4    4        AHEP     H71      HCA2     0.900000E-01   1.00800           0
      3704 LPSA4    4        AHEP     H72      HCA2     0.900000E-01   1.00800           0
      3705 LPSA4    4        AHEP     O7       OC311   -0.650000       15.9994           0
      3706 LPSA4    4        AHEP     HO7      HCP1     0.420000       1.00800           0
      3707 LPSA4    5        AHEP     C1       CC3162   0.290000       12.0110           0
      3708 LPSA4    5        AHEP     H1       HCA1     0.900000E-01   1.00800           0
      3709 LPSA4    5        AHEP     C5       CC3163   0.110000       12.0110           0
      3710 LPSA4    5        AHEP     H5       HCA1     0.900000E-01   1.00800           0
      3711 LPSA4    5        AHEP     O5       OC3C61  -0.400000       15.9994           0
      3712 LPSA4    5        AHEP     C2       CC3161   0.140000       12.0110           0
      3713 LPSA4    5        AHEP     H2       HCA1     0.900000E-01   1.00800           0
      3714 LPSA4    5        AHEP     O2       OC311   -0.650000       15.9994           0
      3715 LPSA4    5        AHEP     HO2      HCP1     0.420000       1.00800           0
      3716 LPSA4    5        AHEP     C3       CC3161   0.900000E-01   12.0110           0
      3717 LPSA4    5        AHEP     H3       HCA1     0.900000E-01   1.00800           0
      3718 LPSA4    5        AHEP     O3       OC301   -0.360000       15.9994           0
      3719 LPSA4    5        AHEP     C4       CC3161  -0.900000E-01   12.0110           0
      3720 LPSA4    5        AHEP     H4       HCA1     0.900000E-01   1.00800           0
      3721 LPSA4    5        AHEP     O4       OC30P   -0.400000       15.9994           0
      3722 LPSA4    5        AHEP     P4       PC        1.10000       30.9740           0
      3723 LPSA4    5        AHEP     OP42     OC2DP   -0.900000       15.9994           0
      3724 LPSA4    5        AHEP     OP43     OC2DP   -0.900000       15.9994           0
      3725 LPSA4    5        AHEP     OP44     OC2DP   -0.900000       15.9994           0
      3726 LPSA4    5        AHEP     C6       CC312    0.140000       12.0110           0
      3727 LPSA4    5        AHEP     H6       HCA1     0.900000E-01   1.00800           0
      3728 LPSA4    5        AHEP     O6       OC311   -0.650000       15.9994           0
      3729 LPSA4    5        AHEP     HO6      HCP1     0.420000       1.00800           0
      3730 LPSA4    5        AHEP     C7       CC322     0.00000       12.0110           0
      3731 LPSA4    5        AHEP     H71      HCA2     0.900000E-01   1.00800           0
      3732 LPSA4    5        AHEP     H72      HCA2     0.900000E-01   1.00800           0
      3733 LPSA4    5        AHEP     O7       OC301   -0.360000       15.9994           0
      3734 LPSA4    6        AHEP     C1       CC3162   0.290000       12.0110           0
      3735 LPSA4    6        AHEP     H1       HCA1     0.900000E-01   1.00800           0
      3736 LPSA4    6        AHEP     C5       CC3163   0.110000       12.0110           0
      3737 LPSA4    6        AHEP     H5       HCA1     0.900000E-01   1.00800           0
      3738 LPSA4    6        AHEP     O5       OC3C61  -0.400000       15.9994           0
      3739 LPSA4    6        AHEP     C2       CC3161   0.140000       12.0110           0
      3740 LPSA4    6        AHEP     H2       HCA1     0.900000E-01   1.00800           0
      3741 LPSA4    6        AHEP     O2       OC311   -0.650000       15.9994           0
      3742 LPSA4    6        AHEP     HO2      HCP1     0.420000       1.00800           0
      3743 LPSA4    6        AHEP     C3       CC3161   0.140000       12.0110           0
      3744 LPSA4    6        AHEP     H3       HCA1     0.900000E-01   1.00800           0
      3745 LPSA4    6        AHEP     O3       OC311   -0.650000       15.9994           0
      3746 LPSA4    6        AHEP     HO3      HCP1     0.420000       1.00800           0
      3747 LPSA4    6        AHEP     C4       CC3161   0.140000       12.0110           0
      3748 LPSA4    6        AHEP     H4       HCA1     0.900000E-01   1.00800           0
      3749 LPSA4    6        AHEP     O4       OC311   -0.650000       15.9994           0
      3750 LPSA4    6        AHEP     HO4      HCP1     0.420000       1.00800           0
      3751 LPSA4    6        AHEP     C6       CC312    0.140000       12.0110           0
      3752 LPSA4    6        AHEP     H6       HCA1     0.900000E-01   1.00800           0
      3753 LPSA4    6        AHEP     O6       OC311   -0.650000       15.9994           0
      3754 LPSA4    6        AHEP     HO6      HCP1     0.420000       1.00800           0
      3755 LPSA4    6        AHEP     C7       CC322    0.500000E-01   12.0110           0
      3756 LPSA4    6        AHEP     H71      HCA2     0.900000E-01   1.00800           0
      3757 LPSA4    6        AHEP     H72      HCA2     0.900000E-01   1.00800           0
      3758 LPSA4    6        AHEP     O7       OC311   -0.650000       15.9994           0
      3759 LPSA4    6        AHEP     HO7      HCP1     0.420000       1.00800           0
      3760 LPSA4    7        AGLC     C1       CC3162   0.290000       12.0110           0
      3761 LPSA4    7        AGLC     H1       HCA1     0.900000E-01   1.00800           0
      3762 LPSA4    7        AGLC     C5       CC3163   0.110000       12.0110           0
      3763 LPSA4    7        AGLC     H5       HCA1     0.900000E-01   1.00800           0
      3764 LPSA4    7        AGLC     O5       OC3C61  -0.400000       15.9994           0
      3765 LPSA4    7        AGLC     C2       CC3161   0.140000       12.0110           0
      3766 LPSA4    7        AGLC     H2       HCA1     0.900000E-01   1.00800           0
      3767 LPSA4    7        AGLC     O2       OC311   -0.650000       15.9994           0
      3768 LPSA4    7        AGLC     HO2      HCP1     0.420000       1.00800           0
      3769 LPSA4    7        AGLC     C3       CC3161   0.900000E-01   12.0110           0
      3770 LPSA4    7        AGLC     H3       HCA1     0.900000E-01   1.00800           0
      3771 LPSA4    7        AGLC     O3       OC301   -0.360000       15.9994           0
      3772 LPSA4    7        AGLC     C4       CC3161   0.140000       12.0110           0
      3773 LPSA4    7        AGLC     H4       HCA1     0.900000E-01   1.00800           0
      3774 LPSA4    7        AGLC     O4       OC311   -0.650000       15.9994           0
      3775 LPSA4    7        AGLC     HO4      HCP1     0.420000       1.00800           0
      3776 LPSA4    7        AGLC     C6       CC321    0.500000E-01   12.0110           0
      3777 LPSA4    7        AGLC     H61      HCA2     0.900000E-01   1.00800           0
      3778 LPSA4    7        AGLC     H62      HCA2     0.900000E-01   1.00800           0
      3779 LPSA4    7        AGLC     O6       OC311   -0.650000       15.9994           0
      3780 LPSA4    7        AGLC     HO6      HCP1     0.420000       1.00800           0
      3781 LPSA4    8        AGLC     C1       CC3162   0.290000       12.0110           0
      3782 LPSA4    8        AGLC     H1       HCA1     0.900000E-01   1.00800           0
      3783 LPSA4    8        AGLC     C5       CC3163   0.110000       12.0110           0
      3784 LPSA4    8        AGLC     H5       HCA1     0.900000E-01   1.00800           0
      3785 LPSA4    8        AGLC     O5       OC3C61  -0.400000       15.9994           0
      3786 LPSA4    8        AGLC     C2       CC3161   0.900000E-01   12.0110           0
      3787 LPSA4    8        AGLC     H2       HCA1     0.900000E-01   1.00800           0
      3788 LPSA4    8        AGLC     O2       OC301   -0.360000       15.9994           0
      3789 LPSA4    8        AGLC     C3       CC3161   0.900000E-01   12.0110           0
      3790 LPSA4    8        AGLC     H3       HCA1     0.900000E-01   1.00800           0
      3791 LPSA4    8        AGLC     O3       OC301   -0.360000       15.9994           0
      3792 LPSA4    8        AGLC     C4       CC3161   0.140000       12.0110           0
      3793 LPSA4    8        AGLC     H4       HCA1     0.900000E-01   1.00800           0
      3794 LPSA4    8        AGLC     O4       OC311   -0.650000       15.9994           0
      3795 LPSA4    8        AGLC     HO4      HCP1     0.420000       1.00800           0
      3796 LPSA4    8        AGLC     C6       CC321    0.500000E-01   12.0110           0
      3797 LPSA4    8        AGLC     H61      HCA2     0.900000E-01   1.00800           0
      3798 LPSA4    8        AGLC     H62      HCA2     0.900000E-01   1.00800           0
      3799 LPSA4    8        AGLC     O6       OC311   -0.650000       15.9994           0
      3800 LPSA4    8        AGLC     HO6      HCP1     0.420000       1.00800           0
      3801 LPSA4    9        AGAL     C1       CC3162   0.290000       12.0110           0
      3802 LPSA4    9        AGAL     H1       HCA1     0.900000E-01   1.00800           0
      3803 LPSA4    9        AGAL     C5       CC3163   0.110000       12.0110           0
      3804 LPSA4    9        AGAL     H5       HCA1     0.900000E-01   1.00800           0
      3805 LPSA4    9        AGAL     O5       OC3C61  -0.400000       15.9994           0
      3806 LPSA4    9        AGAL     C2       CC3161   0.900000E-01   12.0110           0
      3807 LPSA4    9        AGAL     H2       HCA1     0.900000E-01   1.00800           0
      3808 LPSA4    9        AGAL     O2       OC301   -0.360000       15.9994           0
      3809 LPSA4    9        AGAL     C3       CC3161   0.140000       12.0110           0
      3810 LPSA4    9        AGAL     H3       HCA1     0.900000E-01   1.00800           0
      3811 LPSA4    9        AGAL     O3       OC311   -0.650000       15.9994           0
      3812 LPSA4    9        AGAL     HO3      HCP1     0.420000       1.00800           0
      3813 LPSA4    9        AGAL     C4       CC3161   0.140000       12.0110           0
      3814 LPSA4    9        AGAL     H4       HCA1     0.900000E-01   1.00800           0
      3815 LPSA4    9        AGAL     O4       OC311   -0.650000       15.9994           0
      3816 LPSA4    9        AGAL     HO4      HCP1     0.420000       1.00800           0
      3817 LPSA4    9        AGAL     C6       CC321    0.500000E-01   12.0110           0
      3818 LPSA4    9        AGAL     H61      HCA2     0.900000E-01   1.00800           0
      3819 LPSA4    9        AGAL     H62      HCA2     0.900000E-01   1.00800           0
      3820 LPSA4    9        AGAL     O6       OC311   -0.650000       15.9994           0
      3821 LPSA4    9        AGAL     HO6      HCP1     0.420000       1.00800           0
      3822 LPSA4    10       AGAL     C1       CC3162   0.290000       12.0110           0
      3823 LPSA4    10       AGAL     H1       HCA1     0.900000E-01   1.00800           0
      3824 LPSA4    10       AGAL     C5       CC3163   0.110000       12.0110           0
      3825 LPSA4    10       AGAL     H5       HCA1     0.900000E-01   1.00800           0
      3826 LPSA4    10       AGAL     O5       OC3C61  -0.400000       15.9994           0
      3827 LPSA4    10       AGAL     C2       CC3161   0.140000       12.0110           0
      3828 LPSA4    10       AGAL     H2       HCA1     0.900000E-01   1.00800           0
      3829 LPSA4    10       AGAL     O2       OC311   -0.650000       15.9994           0
      3830 LPSA4    10       AGAL     HO2      HCP1     0.420000       1.00800           0
      3831 LPSA4    10       AGAL     C3       CC3161   0.140000       12.0110           0
      3832 LPSA4    10       AGAL     H3       HCA1     0.900000E-01   1.00800           0
      3833 LPSA4    10       AGAL     O3       OC311   -0.650000       15.9994           0
      3834 LPSA4    10       AGAL     HO3      HCP1     0.420000       1.00800           0
      3835 LPSA4    10       AGAL     C4       CC3161   0.140000       12.0110           0
      3836 LPSA4    10       AGAL     H4       HCA1     0.900000E-01   1.00800           0
      3837 LPSA4    10       AGAL     O4       OC311   -0.650000       15.9994           0
      3838 LPSA4    10       AGAL     HO4      HCP1     0.420000       1.00800           0
      3839 LPSA4    10       AGAL     C6       CC321    0.500000E-01   12.0110           0
      3840 LPSA4    10       AGAL     H61      HCA2     0.900000E-01   1.00800           0
      3841 LPSA4    10       AGAL     H62      HCA2     0.900000E-01   1.00800           0
      3842 LPSA4    10       AGAL     O6       OC311   -0.650000       15.9994           0
      3843 LPSA4    10       AGAL     HO6      HCP1     0.420000       1.00800           0
      3844 LPSA4    11       BGLC     C1       CC3162   0.290000       12.0110           0
      3845 LPSA4    11       BGLC     H1       HCA1     0.900000E-01   1.00800           0
      3846 LPSA4    11       BGLC     C5       CC3163   0.110000       12.0110           0
      3847 LPSA4    11       BGLC     H5       HCA1     0.900000E-01   1.00800           0
      3848 LPSA4    11       BGLC     O5       OC3C61  -0.400000       15.9994           0
      3849 LPSA4    11       BGLC     C2       CC3161   0.140000       12.0110           0
      3850 LPSA4    11       BGLC     H2       HCA1     0.900000E-01   1.00800           0
      3851 LPSA4    11       BGLC     O2       OC311   -0.650000       15.9994           0
      3852 LPSA4    11       BGLC     HO2      HCP1     0.420000       1.00800           0
      3853 LPSA4    11       BGLC     C3       CC3161   0.900000E-01   12.0110           0
      3854 LPSA4    11       BGLC     H3       HCA1     0.900000E-01   1.00800           0
      3855 LPSA4    11       BGLC     O3       OC301   -0.360000       15.9994           0
      3856 LPSA4    11       BGLC     C4       CC3161   0.140000       12.0110           0
      3857 LPSA4    11       BGLC     H4       HCA1     0.900000E-01   1.00800           0
      3858 LPSA4    11       BGLC     O4       OC311   -0.650000       15.9994           0
      3859 LPSA4    11       BGLC     HO4      HCP1     0.420000       1.00800           0
      3860 LPSA4    11       BGLC     C6       CC321    0.500000E-01   12.0110           0
      3861 LPSA4    11       BGLC     H61      HCA2     0.900000E-01   1.00800           0
      3862 LPSA4    11       BGLC     H62      HCA2     0.900000E-01   1.00800           0
      3863 LPSA4    11       BGLC     O6       OC311   -0.650000       15.9994           0
      3864 LPSA4    11       BGLC     HO6      HCP1     0.420000       1.00800           0
      3865 LPSA4    12       BGLCNA   C1       CC3162   0.290000       12.0110           0
      3866 LPSA4    12       BGLCNA   H1       HCA1     0.900000E-01   1.00800           0
      3867 LPSA4    12       BGLCNA   C5       CC3163   0.110000       12.0110           0
      3868 LPSA4    12       BGLCNA   H5       HCA1     0.900000E-01   1.00800           0
      3869 LPSA4    12       BGLCNA   O5       OC3C61  -0.400000       15.9994           0
      3870 LPSA4    12       BGLCNA   C2       CC3161   0.700000E-01   12.0110           0
      3871 LPSA4    12       BGLCNA   H2       HCA1     0.900000E-01   1.00800           0
      3872 LPSA4    12       BGLCNA   N        NC2D1   -0.470000       14.0070           0
      3873 LPSA4    12       BGLCNA   HN       HCP1     0.310000       1.00800           0
      3874 LPSA4    12       BGLCNA   C        CC2O1    0.510000       12.0110           0
      3875 LPSA4    12       BGLCNA   O        OC2D1   -0.510000       15.9994           0
      3876 LPSA4    12       BGLCNA   CT       CC331   -0.270000       12.0110           0
      3877 LPSA4    12       BGLCNA   HT1      HCA3     0.900000E-01   1.00800           0
      3878 LPSA4    12       BGLCNA   HT2      HCA3     0.900000E-01   1.00800           0
      3879 LPSA4    12       BGLCNA   HT3      HCA3     0.900000E-01   1.00800           0
      3880 LPSA4    12       BGLCNA   C3       CC3161   0.900000E-01   12.0110           0
      3881 LPSA4    12       BGLCNA   H3       HCA1     0.900000E-01   1.00800           0
      3882 LPSA4    12       BGLCNA   O3       OC301   -0.360000       15.9994           0
      3883 LPSA4    12       BGLCNA   C4       CC3161   0.140000       12.0110           0
      3884 LPSA4    12       BGLCNA   H4       HCA1     0.900000E-01   1.00800           0
      3885 LPSA4    12       BGLCNA   O4       OC311   -0.650000       15.9994           0
      3886 LPSA4    12       BGLCNA   HO4      HCP1     0.420000       1.00800           0
      3887 LPSA4    12       BGLCNA   C6       CC321    0.500000E-01   12.0110           0
      3888 LPSA4    12       BGLCNA   H61      HCA2     0.900000E-01   1.00800           0
      3889 LPSA4    12       BGLCNA   H62      HCA2     0.900000E-01   1.00800           0
      3890 LPSA4    12       BGLCNA   O6       OC311   -0.650000       15.9994           0
      3891 LPSA4    12       BGLCNA   HO6      HCP1     0.420000       1.00800           0
      3892 LPSA4    13       AGAL     C1       CC3162   0.290000       12.0110           0
      3893 LPSA4    13       AGAL     H1       HCA1     0.900000E-01   1.00800           0
      3894 LPSA4    13       AGAL     C5       CC3163   0.110000       12.0110           0
      3895 LPSA4    13       AGAL     H5       HCA1     0.900000E-01   1.00800           0
      3896 LPSA4    13       AGAL     O5       OC3C61  -0.400000       15.9994           0
      3897 LPSA4    13       AGAL     C2       CC3161   0.900000E-01   12.0110           0
      3898 LPSA4    13       AGAL     H2       HCA1     0.900000E-01   1.00800           0
      3899 LPSA4    13       AGAL     O2       OC301   -0.360000       15.9994           0
      3900 LPSA4    13       AGAL     C3       CC3161   0.140000       12.0110           0
      3901 LPSA4    13       AGAL     H3       HCA1     0.900000E-01   1.00800           0
      3902 LPSA4    13       AGAL     O3       OC311   -0.650000       15.9994           0
      3903 LPSA4    13       AGAL     HO3      HCP1     0.420000       1.00800           0
      3904 LPSA4    13       AGAL     C4       CC3161   0.140000       12.0110           0
      3905 LPSA4    13       AGAL     H4       HCA1     0.900000E-01   1.00800           0
      3906 LPSA4    13       AGAL     O4       OC311   -0.650000       15.9994           0
      3907 LPSA4    13       AGAL     HO4      HCP1     0.420000       1.00800           0
      3908 LPSA4    13       AGAL     C6       CC321    0.500000E-01   12.0110           0
      3909 LPSA4    13       AGAL     H61      HCA2     0.900000E-01   1.00800           0
      3910 LPSA4    13       AGAL     H62      HCA2     0.900000E-01   1.00800           0
      3911 LPSA4    13       AGAL     O6       OC311   -0.650000       15.9994           0
      3912 LPSA4    13       AGAL     HO6      HCP1     0.420000       1.00800           0
      3913 LPSA4    14       ARHM     C1       CC3162   0.290000       12.0110           0
      3914 LPSA4    14       ARHM     H1       HCA1     0.900000E-01   1.00800           0
      3915 LPSA4    14       ARHM     C5       CC3163   0.110000       12.0110           0
      3916 LPSA4    14       ARHM     H5       HCA1     0.900000E-01   1.00800           0
      3917 LPSA4    14       ARHM     O5       OC3C61  -0.400000       15.9994           0
      3918 LPSA4    14       ARHM     C2       CC3161   0.900000E-01   12.0110           0
      3919 LPSA4    14       ARHM     H2       HCA1     0.900000E-01   1.00800           0
      3920 LPSA4    14       ARHM     O2       OC301   -0.360000       15.9994           0
      3921 LPSA4    14       ARHM     C3       CC3161   0.140000       12.0110           0
      3922 LPSA4    14       ARHM     H3       HCA1     0.900000E-01   1.00800           0
      3923 LPSA4    14       ARHM     O3       OC311   -0.650000       15.9994           0
      3924 LPSA4    14       ARHM     HO3      HCP1     0.420000       1.00800           0
      3925 LPSA4    14       ARHM     C4       CC3161   0.140000       12.0110           0
      3926 LPSA4    14       ARHM     H4       HCA1     0.900000E-01   1.00800           0
      3927 LPSA4    14       ARHM     O4       OC311   -0.650000       15.9994           0
      3928 LPSA4    14       ARHM     HO4      HCP1     0.420000       1.00800           0
      3929 LPSA4    14       ARHM     C6       CC331   -0.270000       12.0110           0
      3930 LPSA4    14       ARHM     H61      HCA3     0.900000E-01   1.00800           0
      3931 LPSA4    14       ARHM     H62      HCA3     0.900000E-01   1.00800           0
      3932 LPSA4    14       ARHM     H63      HCA3     0.900000E-01   1.00800           0
      3933 LPSA4    15       ARHM     C1       CC3162   0.290000       12.0110           0
      3934 LPSA4    15       ARHM     H1       HCA1     0.900000E-01   1.00800           0
      3935 LPSA4    15       ARHM     C5       CC3163   0.110000       12.0110           0
      3936 LPSA4    15       ARHM     H5       HCA1     0.900000E-01   1.00800           0
      3937 LPSA4    15       ARHM     O5       OC3C61  -0.400000       15.9994           0
      3938 LPSA4    15       ARHM     C2       CC3161   0.900000E-01   12.0110           0
      3939 LPSA4    15       ARHM     H2       HCA1     0.900000E-01   1.00800           0
      3940 LPSA4    15       ARHM     O2       OC301   -0.360000       15.9994           0
      3941 LPSA4    15       ARHM     C3       CC3161   0.900000E-01   12.0110           0
      3942 LPSA4    15       ARHM     H3       HCA1     0.900000E-01   1.00800           0
      3943 LPSA4    15       ARHM     O3       OC301   -0.360000       15.9994           0
      3944 LPSA4    15       ARHM     C4       CC3161   0.140000       12.0110           0
      3945 LPSA4    15       ARHM     H4       HCA1     0.900000E-01   1.00800           0
      3946 LPSA4    15       ARHM     O4       OC311   -0.650000       15.9994           0
      3947 LPSA4    15       ARHM     HO4      HCP1     0.420000       1.00800           0
      3948 LPSA4    15       ARHM     C6       CC331   -0.270000       12.0110           0
      3949 LPSA4    15       ARHM     H61      HCA3     0.900000E-01   1.00800           0
      3950 LPSA4    15       ARHM     H62      HCA3     0.900000E-01   1.00800           0
      3951 LPSA4    15       ARHM     H63      HCA3     0.900000E-01   1.00800           0
      3952 LPSA4    16       BMANNA   C1       CC3162   0.290000       12.0110           0
      3953 LPSA4    16       BMANNA   H1       HCA1     0.900000E-01   1.00800           0
      3954 LPSA4    16       BMANNA   C5       CC3163   0.110000       12.0110           0
      3955 LPSA4    16       BMANNA   H5       HCA1     0.900000E-01   1.00800           0
      3956 LPSA4    16       BMANNA   O5       OC3C61  -0.400000       15.9994           0
      3957 LPSA4    16       BMANNA   C2       CC3161   0.700000E-01   12.0110           0
      3958 LPSA4    16       BMANNA   H2       HCA1     0.900000E-01   1.00800           0
      3959 LPSA4    16       BMANNA   N        NC2D1   -0.470000       14.0070           0
      3960 LPSA4    16       BMANNA   HN       HCP1     0.310000       1.00800           0
      3961 LPSA4    16       BMANNA   C        CC2O1    0.510000       12.0110           0
      3962 LPSA4    16       BMANNA   O        OC2D1   -0.510000       15.9994           0
      3963 LPSA4    16       BMANNA   CT       CC331   -0.270000       12.0110           0
      3964 LPSA4    16       BMANNA   HT1      HCA3     0.900000E-01   1.00800           0
      3965 LPSA4    16       BMANNA   HT2      HCA3     0.900000E-01   1.00800           0
      3966 LPSA4    16       BMANNA   HT3      HCA3     0.900000E-01   1.00800           0
      3967 LPSA4    16       BMANNA   C3       CC3161   0.140000       12.0110           0
      3968 LPSA4    16       BMANNA   H3       HCA1     0.900000E-01   1.00800           0
      3969 LPSA4    16       BMANNA   O3       OC311   -0.650000       15.9994           0
      3970 LPSA4    16       BMANNA   HO3      HCP1     0.420000       1.00800           0
      3971 LPSA4    16       BMANNA   C4       CC3161   0.140000       12.0110           0
      3972 LPSA4    16       BMANNA   H4       HCA1     0.900000E-01   1.00800           0
      3973 LPSA4    16       BMANNA   O4       OC311   -0.650000       15.9994           0
      3974 LPSA4    16       BMANNA   HO4      HCP1     0.420000       1.00800           0
      3975 LPSA4    16       BMANNA   C6       CC321    0.500000E-01   12.0110           0
      3976 LPSA4    16       BMANNA   H61      HCA2     0.900000E-01   1.00800           0
      3977 LPSA4    16       BMANNA   H62      HCA2     0.900000E-01   1.00800           0
      3978 LPSA4    16       BMANNA   O6       OC311   -0.650000       15.9994           0
      3979 LPSA4    16       BMANNA   HO6      HCP1     0.420000       1.00800           0
      3980 LPSA4    17       BGLCNA   C1       CC3162   0.290000       12.0110           0
      3981 LPSA4    17       BGLCNA   H1       HCA1     0.900000E-01   1.00800           0
      3982 LPSA4    17       BGLCNA   C5       CC3163   0.110000       12.0110           0
      3983 LPSA4    17       BGLCNA   H5       HCA1     0.900000E-01   1.00800           0
      3984 LPSA4    17       BGLCNA   O5       OC3C61  -0.400000       15.9994           0
      3985 LPSA4    17       BGLCNA   C2       CC3161   0.700000E-01   12.0110           0
      3986 LPSA4    17       BGLCNA   H2       HCA1     0.900000E-01   1.00800           0
      3987 LPSA4    17       BGLCNA   N        NC2D1   -0.470000       14.0070           0
      3988 LPSA4    17       BGLCNA   HN       HCP1     0.310000       1.00800           0
      3989 LPSA4    17       BGLCNA   C        CC2O1    0.510000       12.0110           0
      3990 LPSA4    17       BGLCNA   O        OC2D1   -0.510000       15.9994           0
      3991 LPSA4    17       BGLCNA   CT       CC331   -0.270000       12.0110           0
      3992 LPSA4    17       BGLCNA   HT1      HCA3     0.900000E-01   1.00800           0
      3993 LPSA4    17       BGLCNA   HT2      HCA3     0.900000E-01   1.00800           0
      3994 LPSA4    17       BGLCNA   HT3      HCA3     0.900000E-01   1.00800           0
      3995 LPSA4    17       BGLCNA   C3       CC3161   0.900000E-01   12.0110           0
      3996 LPSA4    17       BGLCNA   H3       HCA1     0.900000E-01   1.00800           0
      3997 LPSA4    17       BGLCNA   O3       OC301   -0.360000       15.9994           0
      3998 LPSA4    17       BGLCNA   C4       CC3161   0.140000       12.0110           0
      3999 LPSA4    17       BGLCNA   H4       HCA1     0.900000E-01   1.00800           0
      4000 LPSA4    17       BGLCNA   O4       OC311   -0.650000       15.9994           0
      4001 LPSA4    17       BGLCNA   HO4      HCP1     0.420000       1.00800           0
      4002 LPSA4    17       BGLCNA   C6       CC321    0.500000E-01   12.0110           0
      4003 LPSA4    17       BGLCNA   H61      HCA2     0.900000E-01   1.00800           0
      4004 LPSA4    17       BGLCNA   H62      HCA2     0.900000E-01   1.00800           0
      4005 LPSA4    17       BGLCNA   O6       OC311   -0.650000       15.9994           0
      4006 LPSA4    17       BGLCNA   HO6      HCP1     0.420000       1.00800           0
      4007 LPSA4    18       AGAL     C1       CC3162   0.290000       12.0110           0
      4008 LPSA4    18       AGAL     H1       HCA1     0.900000E-01   1.00800           0
      4009 LPSA4    18       AGAL     C5       CC3163   0.110000       12.0110           0
      4010 LPSA4    18       AGAL     H5       HCA1     0.900000E-01   1.00800           0
      4011 LPSA4    18       AGAL     O5       OC3C61  -0.400000       15.9994           0
      4012 LPSA4    18       AGAL     C2       CC3161   0.900000E-01   12.0110           0
      4013 LPSA4    18       AGAL     H2       HCA1     0.900000E-01   1.00800           0
      4014 LPSA4    18       AGAL     O2       OC301   -0.360000       15.9994           0
      4015 LPSA4    18       AGAL     C3       CC3161   0.140000       12.0110           0
      4016 LPSA4    18       AGAL     H3       HCA1     0.900000E-01   1.00800           0
      4017 LPSA4    18       AGAL     O3       OC311   -0.650000       15.9994           0
      4018 LPSA4    18       AGAL     HO3      HCP1     0.420000       1.00800           0
      4019 LPSA4    18       AGAL     C4       CC3161   0.140000       12.0110           0
      4020 LPSA4    18       AGAL     H4       HCA1     0.900000E-01   1.00800           0
      4021 LPSA4    18       AGAL     O4       OC311   -0.650000       15.9994           0
      4022 LPSA4    18       AGAL     HO4      HCP1     0.420000       1.00800           0
      4023 LPSA4    18       AGAL     C6       CC321    0.500000E-01   12.0110           0
      4024 LPSA4    18       AGAL     H61      HCA2     0.900000E-01   1.00800           0
      4025 LPSA4    18       AGAL     H62      HCA2     0.900000E-01   1.00800           0
      4026 LPSA4    18       AGAL     O6       OC311   -0.650000       15.9994           0
      4027 LPSA4    18       AGAL     HO6      HCP1     0.420000       1.00800           0
      4028 LPSA4    19       ARHM     C1       CC3162   0.290000       12.0110           0
      4029 LPSA4    19       ARHM     H1       HCA1     0.900000E-01   1.00800           0
      4030 LPSA4    19       ARHM     C5       CC3163   0.110000       12.0110           0
      4031 LPSA4    19       ARHM     H5       HCA1     0.900000E-01   1.00800           0
      4032 LPSA4    19       ARHM     O5       OC3C61  -0.400000       15.9994           0
      4033 LPSA4    19       ARHM     C2       CC3161   0.900000E-01   12.0110           0
      4034 LPSA4    19       ARHM     H2       HCA1     0.900000E-01   1.00800           0
      4035 LPSA4    19       ARHM     O2       OC301   -0.360000       15.9994           0
      4036 LPSA4    19       ARHM     C3       CC3161   0.140000       12.0110           0
      4037 LPSA4    19       ARHM     H3       HCA1     0.900000E-01   1.00800           0
      4038 LPSA4    19       ARHM     O3       OC311   -0.650000       15.9994           0
      4039 LPSA4    19       ARHM     HO3      HCP1     0.420000       1.00800           0
      4040 LPSA4    19       ARHM     C4       CC3161   0.140000       12.0110           0
      4041 LPSA4    19       ARHM     H4       HCA1     0.900000E-01   1.00800           0
      4042 LPSA4    19       ARHM     O4       OC311   -0.650000       15.9994           0
      4043 LPSA4    19       ARHM     HO4      HCP1     0.420000       1.00800           0
      4044 LPSA4    19       ARHM     C6       CC331   -0.270000       12.0110           0
      4045 LPSA4    19       ARHM     H61      HCA3     0.900000E-01   1.00800           0
      4046 LPSA4    19       ARHM     H62      HCA3     0.900000E-01   1.00800           0
      4047 LPSA4    19       ARHM     H63      HCA3     0.900000E-01   1.00800           0
      4048 LPSA4    20       ARHM     C1       CC3162   0.290000       12.0110           0
      4049 LPSA4    20       ARHM     H1       HCA1     0.900000E-01   1.00800           0
      4050 LPSA4    20       ARHM     C5       CC3163   0.110000       12.0110           0
      4051 LPSA4    20       ARHM     H5       HCA1     0.900000E-01   1.00800           0
      4052 LPSA4    20       ARHM     O5       OC3C61  -0.400000       15.9994           0
      4053 LPSA4    20       ARHM     C2       CC3161   0.900000E-01   12.0110           0
      4054 LPSA4    20       ARHM     H2       HCA1     0.900000E-01   1.00800           0
      4055 LPSA4    20       ARHM     O2       OC301   -0.360000       15.9994           0
      4056 LPSA4    20       ARHM     C3       CC3161   0.900000E-01   12.0110           0
      4057 LPSA4    20       ARHM     H3       HCA1     0.900000E-01   1.00800           0
      4058 LPSA4    20       ARHM     O3       OC301   -0.360000       15.9994           0
      4059 LPSA4    20       ARHM     C4       CC3161   0.140000       12.0110           0
      4060 LPSA4    20       ARHM     H4       HCA1     0.900000E-01   1.00800           0
      4061 LPSA4    20       ARHM     O4       OC311   -0.650000       15.9994           0
      4062 LPSA4    20       ARHM     HO4      HCP1     0.420000       1.00800           0
      4063 LPSA4    20       ARHM     C6       CC331   -0.270000       12.0110           0
      4064 LPSA4    20       ARHM     H61      HCA3     0.900000E-01   1.00800           0
      4065 LPSA4    20       ARHM     H62      HCA3     0.900000E-01   1.00800           0
      4066 LPSA4    20       ARHM     H63      HCA3     0.900000E-01   1.00800           0
      4067 LPSA4    21       BMANNA   C1       CC3162   0.290000       12.0110           0
      4068 LPSA4    21       BMANNA   H1       HCA1     0.900000E-01   1.00800           0
      4069 LPSA4    21       BMANNA   C5       CC3163   0.110000       12.0110           0
      4070 LPSA4    21       BMANNA   H5       HCA1     0.900000E-01   1.00800           0
      4071 LPSA4    21       BMANNA   O5       OC3C61  -0.400000       15.9994           0
      4072 LPSA4    21       BMANNA   C2       CC3161   0.700000E-01   12.0110           0
      4073 LPSA4    21       BMANNA   H2       HCA1     0.900000E-01   1.00800           0
      4074 LPSA4    21       BMANNA   N        NC2D1   -0.470000       14.0070           0
      4075 LPSA4    21       BMANNA   HN       HCP1     0.310000       1.00800           0
      4076 LPSA4    21       BMANNA   C        CC2O1    0.510000       12.0110           0
      4077 LPSA4    21       BMANNA   O        OC2D1   -0.510000       15.9994           0
      4078 LPSA4    21       BMANNA   CT       CC331   -0.270000       12.0110           0
      4079 LPSA4    21       BMANNA   HT1      HCA3     0.900000E-01   1.00800           0
      4080 LPSA4    21       BMANNA   HT2      HCA3     0.900000E-01   1.00800           0
      4081 LPSA4    21       BMANNA   HT3      HCA3     0.900000E-01   1.00800           0
      4082 LPSA4    21       BMANNA   C3       CC3161   0.140000       12.0110           0
      4083 LPSA4    21       BMANNA   H3       HCA1     0.900000E-01   1.00800           0
      4084 LPSA4    21       BMANNA   O3       OC311   -0.650000       15.9994           0
      4085 LPSA4    21       BMANNA   HO3      HCP1     0.420000       1.00800           0
      4086 LPSA4    21       BMANNA   C4       CC3161   0.140000       12.0110           0
      4087 LPSA4    21       BMANNA   H4       HCA1     0.900000E-01   1.00800           0
      4088 LPSA4    21       BMANNA   O4       OC311   -0.650000       15.9994           0
      4089 LPSA4    21       BMANNA   HO4      HCP1     0.420000       1.00800           0
      4090 LPSA4    21       BMANNA   C6       CC321    0.500000E-01   12.0110           0
      4091 LPSA4    21       BMANNA   H61      HCA2     0.900000E-01   1.00800           0
      4092 LPSA4    21       BMANNA   H62      HCA2     0.900000E-01   1.00800           0
      4093 LPSA4    21       BMANNA   O6       OC311   -0.650000       15.9994           0
      4094 LPSA4    21       BMANNA   HO6      HCP1     0.420000       1.00800           0
      4095 LPSA4    22       BGLCNA   C1       CC3162   0.290000       12.0110           0
      4096 LPSA4    22       BGLCNA   H1       HCA1     0.900000E-01   1.00800           0
      4097 LPSA4    22       BGLCNA   C5       CC3163   0.110000       12.0110           0
      4098 LPSA4    22       BGLCNA   H5       HCA1     0.900000E-01   1.00800           0
      4099 LPSA4    22       BGLCNA   O5       OC3C61  -0.400000       15.9994           0
      4100 LPSA4    22       BGLCNA   C2       CC3161   0.700000E-01   12.0110           0
      4101 LPSA4    22       BGLCNA   H2       HCA1     0.900000E-01   1.00800           0
      4102 LPSA4    22       BGLCNA   N        NC2D1   -0.470000       14.0070           0
      4103 LPSA4    22       BGLCNA   HN       HCP1     0.310000       1.00800           0
      4104 LPSA4    22       BGLCNA   C        CC2O1    0.510000       12.0110           0
      4105 LPSA4    22       BGLCNA   O        OC2D1   -0.510000       15.9994           0
      4106 LPSA4    22       BGLCNA   CT       CC331   -0.270000       12.0110           0
      4107 LPSA4    22       BGLCNA   HT1      HCA3     0.900000E-01   1.00800           0
      4108 LPSA4    22       BGLCNA   HT2      HCA3     0.900000E-01   1.00800           0
      4109 LPSA4    22       BGLCNA   HT3      HCA3     0.900000E-01   1.00800           0
      4110 LPSA4    22       BGLCNA   C3       CC3161   0.900000E-01   12.0110           0
      4111 LPSA4    22       BGLCNA   H3       HCA1     0.900000E-01   1.00800           0
      4112 LPSA4    22       BGLCNA   O3       OC301   -0.360000       15.9994           0
      4113 LPSA4    22       BGLCNA   C4       CC3161   0.140000       12.0110           0
      4114 LPSA4    22       BGLCNA   H4       HCA1     0.900000E-01   1.00800           0
      4115 LPSA4    22       BGLCNA   O4       OC311   -0.650000       15.9994           0
      4116 LPSA4    22       BGLCNA   HO4      HCP1     0.420000       1.00800           0
      4117 LPSA4    22       BGLCNA   C6       CC321    0.500000E-01   12.0110           0
      4118 LPSA4    22       BGLCNA   H61      HCA2     0.900000E-01   1.00800           0
      4119 LPSA4    22       BGLCNA   H62      HCA2     0.900000E-01   1.00800           0
      4120 LPSA4    22       BGLCNA   O6       OC311   -0.650000       15.9994           0
      4121 LPSA4    22       BGLCNA   HO6      HCP1     0.420000       1.00800           0
      4122 LPSA4    23       AGAL     C1       CC3162   0.290000       12.0110           0
      4123 LPSA4    23       AGAL     H1       HCA1     0.900000E-01   1.00800           0
      4124 LPSA4    23       AGAL     C5       CC3163   0.110000       12.0110           0
      4125 LPSA4    23       AGAL     H5       HCA1     0.900000E-01   1.00800           0
      4126 LPSA4    23       AGAL     O5       OC3C61  -0.400000       15.9994           0
      4127 LPSA4    23       AGAL     C2       CC3161   0.900000E-01   12.0110           0
      4128 LPSA4    23       AGAL     H2       HCA1     0.900000E-01   1.00800           0
      4129 LPSA4    23       AGAL     O2       OC301   -0.360000       15.9994           0
      4130 LPSA4    23       AGAL     C3       CC3161   0.140000       12.0110           0
      4131 LPSA4    23       AGAL     H3       HCA1     0.900000E-01   1.00800           0
      4132 LPSA4    23       AGAL     O3       OC311   -0.650000       15.9994           0
      4133 LPSA4    23       AGAL     HO3      HCP1     0.420000       1.00800           0
      4134 LPSA4    23       AGAL     C4       CC3161   0.140000       12.0110           0
      4135 LPSA4    23       AGAL     H4       HCA1     0.900000E-01   1.00800           0
      4136 LPSA4    23       AGAL     O4       OC311   -0.650000       15.9994           0
      4137 LPSA4    23       AGAL     HO4      HCP1     0.420000       1.00800           0
      4138 LPSA4    23       AGAL     C6       CC321    0.500000E-01   12.0110           0
      4139 LPSA4    23       AGAL     H61      HCA2     0.900000E-01   1.00800           0
      4140 LPSA4    23       AGAL     H62      HCA2     0.900000E-01   1.00800           0
      4141 LPSA4    23       AGAL     O6       OC311   -0.650000       15.9994           0
      4142 LPSA4    23       AGAL     HO6      HCP1     0.420000       1.00800           0
      4143 LPSA4    24       ARHM     C1       CC3162   0.290000       12.0110           0
      4144 LPSA4    24       ARHM     H1       HCA1     0.900000E-01   1.00800           0
      4145 LPSA4    24       ARHM     C5       CC3163   0.110000       12.0110           0
      4146 LPSA4    24       ARHM     H5       HCA1     0.900000E-01   1.00800           0
      4147 LPSA4    24       ARHM     O5       OC3C61  -0.400000       15.9994           0
      4148 LPSA4    24       ARHM     C2       CC3161   0.900000E-01   12.0110           0
      4149 LPSA4    24       ARHM     H2       HCA1     0.900000E-01   1.00800           0
      4150 LPSA4    24       ARHM     O2       OC301   -0.360000       15.9994           0
      4151 LPSA4    24       ARHM     C3       CC3161   0.140000       12.0110           0
      4152 LPSA4    24       ARHM     H3       HCA1     0.900000E-01   1.00800           0
      4153 LPSA4    24       ARHM     O3       OC311   -0.650000       15.9994           0
      4154 LPSA4    24       ARHM     HO3      HCP1     0.420000       1.00800           0
      4155 LPSA4    24       ARHM     C4       CC3161   0.140000       12.0110           0
      4156 LPSA4    24       ARHM     H4       HCA1     0.900000E-01   1.00800           0
      4157 LPSA4    24       ARHM     O4       OC311   -0.650000       15.9994           0
      4158 LPSA4    24       ARHM     HO4      HCP1     0.420000       1.00800           0
      4159 LPSA4    24       ARHM     C6       CC331   -0.270000       12.0110           0
      4160 LPSA4    24       ARHM     H61      HCA3     0.900000E-01   1.00800           0
      4161 LPSA4    24       ARHM     H62      HCA3     0.900000E-01   1.00800           0
      4162 LPSA4    24       ARHM     H63      HCA3     0.900000E-01   1.00800           0
      4163 LPSA4    25       ARHM     C1       CC3162   0.290000       12.0110           0
      4164 LPSA4    25       ARHM     H1       HCA1     0.900000E-01   1.00800           0
      4165 LPSA4    25       ARHM     C5       CC3163   0.110000       12.0110           0
      4166 LPSA4    25       ARHM     H5       HCA1     0.900000E-01   1.00800           0
      4167 LPSA4    25       ARHM     O5       OC3C61  -0.400000       15.9994           0
      4168 LPSA4    25       ARHM     C2       CC3161   0.900000E-01   12.0110           0
      4169 LPSA4    25       ARHM     H2       HCA1     0.900000E-01   1.00800           0
      4170 LPSA4    25       ARHM     O2       OC301   -0.360000       15.9994           0
      4171 LPSA4    25       ARHM     C3       CC3161   0.900000E-01   12.0110           0
      4172 LPSA4    25       ARHM     H3       HCA1     0.900000E-01   1.00800           0
      4173 LPSA4    25       ARHM     O3       OC301   -0.360000       15.9994           0
      4174 LPSA4    25       ARHM     C4       CC3161   0.140000       12.0110           0
      4175 LPSA4    25       ARHM     H4       HCA1     0.900000E-01   1.00800           0
      4176 LPSA4    25       ARHM     O4       OC311   -0.650000       15.9994           0
      4177 LPSA4    25       ARHM     HO4      HCP1     0.420000       1.00800           0
      4178 LPSA4    25       ARHM     C6       CC331   -0.270000       12.0110           0
      4179 LPSA4    25       ARHM     H61      HCA3     0.900000E-01   1.00800           0
      4180 LPSA4    25       ARHM     H62      HCA3     0.900000E-01   1.00800           0
      4181 LPSA4    25       ARHM     H63      HCA3     0.900000E-01   1.00800           0
      4182 LPSA4    26       BMANNA   C1       CC3162   0.290000       12.0110           0
      4183 LPSA4    26       BMANNA   H1       HCA1     0.900000E-01   1.00800           0
      4184 LPSA4    26       BMANNA   C5       CC3163   0.110000       12.0110           0
      4185 LPSA4    26       BMANNA   H5       HCA1     0.900000E-01   1.00800           0
      4186 LPSA4    26       BMANNA   O5       OC3C61  -0.400000       15.9994           0
      4187 LPSA4    26       BMANNA   C2       CC3161   0.700000E-01   12.0110           0
      4188 LPSA4    26       BMANNA   H2       HCA1     0.900000E-01   1.00800           0
      4189 LPSA4    26       BMANNA   N        NC2D1   -0.470000       14.0070           0
      4190 LPSA4    26       BMANNA   HN       HCP1     0.310000       1.00800           0
      4191 LPSA4    26       BMANNA   C        CC2O1    0.510000       12.0110           0
      4192 LPSA4    26       BMANNA   O        OC2D1   -0.510000       15.9994           0
      4193 LPSA4    26       BMANNA   CT       CC331   -0.270000       12.0110           0
      4194 LPSA4    26       BMANNA   HT1      HCA3     0.900000E-01   1.00800           0
      4195 LPSA4    26       BMANNA   HT2      HCA3     0.900000E-01   1.00800           0
      4196 LPSA4    26       BMANNA   HT3      HCA3     0.900000E-01   1.00800           0
      4197 LPSA4    26       BMANNA   C3       CC3161   0.140000       12.0110           0
      4198 LPSA4    26       BMANNA   H3       HCA1     0.900000E-01   1.00800           0
      4199 LPSA4    26       BMANNA   O3       OC311   -0.650000       15.9994           0
      4200 LPSA4    26       BMANNA   HO3      HCP1     0.420000       1.00800           0
      4201 LPSA4    26       BMANNA   C4       CC3161   0.140000       12.0110           0
      4202 LPSA4    26       BMANNA   H4       HCA1     0.900000E-01   1.00800           0
      4203 LPSA4    26       BMANNA   O4       OC311   -0.650000       15.9994           0
      4204 LPSA4    26       BMANNA   HO4      HCP1     0.420000       1.00800           0
      4205 LPSA4    26       BMANNA   C6       CC321    0.500000E-01   12.0110           0
      4206 LPSA4    26       BMANNA   H61      HCA2     0.900000E-01   1.00800           0
      4207 LPSA4    26       BMANNA   H62      HCA2     0.900000E-01   1.00800           0
      4208 LPSA4    26       BMANNA   O6       OC311   -0.650000       15.9994           0
      4209 LPSA4    26       BMANNA   HO6      HCP1     0.420000       1.00800           0
      4210 LPSA4    27       BGLCNA   C1       CC3162   0.290000       12.0110           0
      4211 LPSA4    27       BGLCNA   H1       HCA1     0.900000E-01   1.00800           0
      4212 LPSA4    27       BGLCNA   C5       CC3163   0.110000       12.0110           0
      4213 LPSA4    27       BGLCNA   H5       HCA1     0.900000E-01   1.00800           0
      4214 LPSA4    27       BGLCNA   O5       OC3C61  -0.400000       15.9994           0
      4215 LPSA4    27       BGLCNA   C2       CC3161   0.700000E-01   12.0110           0
      4216 LPSA4    27       BGLCNA   H2       HCA1     0.900000E-01   1.00800           0
      4217 LPSA4    27       BGLCNA   N        NC2D1   -0.470000       14.0070           0
      4218 LPSA4    27       BGLCNA   HN       HCP1     0.310000       1.00800           0
      4219 LPSA4    27       BGLCNA   C        CC2O1    0.510000       12.0110           0
      4220 LPSA4    27       BGLCNA   O        OC2D1   -0.510000       15.9994           0
      4221 LPSA4    27       BGLCNA   CT       CC331   -0.270000       12.0110           0
      4222 LPSA4    27       BGLCNA   HT1      HCA3     0.900000E-01   1.00800           0
      4223 LPSA4    27       BGLCNA   HT2      HCA3     0.900000E-01   1.00800           0
      4224 LPSA4    27       BGLCNA   HT3      HCA3     0.900000E-01   1.00800           0
      4225 LPSA4    27       BGLCNA   C3       CC3161   0.900000E-01   12.0110           0
      4226 LPSA4    27       BGLCNA   H3       HCA1     0.900000E-01   1.00800           0
      4227 LPSA4    27       BGLCNA   O3       OC301   -0.360000       15.9994           0
      4228 LPSA4    27       BGLCNA   C4       CC3161   0.140000       12.0110           0
      4229 LPSA4    27       BGLCNA   H4       HCA1     0.900000E-01   1.00800           0
      4230 LPSA4    27       BGLCNA   O4       OC311   -0.650000       15.9994           0
      4231 LPSA4    27       BGLCNA   HO4      HCP1     0.420000       1.00800           0
      4232 LPSA4    27       BGLCNA   C6       CC321    0.500000E-01   12.0110           0
      4233 LPSA4    27       BGLCNA   H61      HCA2     0.900000E-01   1.00800           0
      4234 LPSA4    27       BGLCNA   H62      HCA2     0.900000E-01   1.00800           0
      4235 LPSA4    27       BGLCNA   O6       OC311   -0.650000       15.9994           0
      4236 LPSA4    27       BGLCNA   HO6      HCP1     0.420000       1.00800           0
      4237 LPSA4    28       AGAL     C1       CC3162   0.290000       12.0110           0
      4238 LPSA4    28       AGAL     H1       HCA1     0.900000E-01   1.00800           0
      4239 LPSA4    28       AGAL     C5       CC3163   0.110000       12.0110           0
      4240 LPSA4    28       AGAL     H5       HCA1     0.900000E-01   1.00800           0
      4241 LPSA4    28       AGAL     O5       OC3C61  -0.400000       15.9994           0
      4242 LPSA4    28       AGAL     C2       CC3161   0.900000E-01   12.0110           0
      4243 LPSA4    28       AGAL     H2       HCA1     0.900000E-01   1.00800           0
      4244 LPSA4    28       AGAL     O2       OC301   -0.360000       15.9994           0
      4245 LPSA4    28       AGAL     C3       CC3161   0.140000       12.0110           0
      4246 LPSA4    28       AGAL     H3       HCA1     0.900000E-01   1.00800           0
      4247 LPSA4    28       AGAL     O3       OC311   -0.650000       15.9994           0
      4248 LPSA4    28       AGAL     HO3      HCP1     0.420000       1.00800           0
      4249 LPSA4    28       AGAL     C4       CC3161   0.140000       12.0110           0
      4250 LPSA4    28       AGAL     H4       HCA1     0.900000E-01   1.00800           0
      4251 LPSA4    28       AGAL     O4       OC311   -0.650000       15.9994           0
      4252 LPSA4    28       AGAL     HO4      HCP1     0.420000       1.00800           0
      4253 LPSA4    28       AGAL     C6       CC321    0.500000E-01   12.0110           0
      4254 LPSA4    28       AGAL     H61      HCA2     0.900000E-01   1.00800           0
      4255 LPSA4    28       AGAL     H62      HCA2     0.900000E-01   1.00800           0
      4256 LPSA4    28       AGAL     O6       OC311   -0.650000       15.9994           0
      4257 LPSA4    28       AGAL     HO6      HCP1     0.420000       1.00800           0
      4258 LPSA4    29       ARHM     C1       CC3162   0.290000       12.0110           0
      4259 LPSA4    29       ARHM     H1       HCA1     0.900000E-01   1.00800           0
      4260 LPSA4    29       ARHM     C5       CC3163   0.110000       12.0110           0
      4261 LPSA4    29       ARHM     H5       HCA1     0.900000E-01   1.00800           0
      4262 LPSA4    29       ARHM     O5       OC3C61  -0.400000       15.9994           0
      4263 LPSA4    29       ARHM     C2       CC3161   0.900000E-01   12.0110           0
      4264 LPSA4    29       ARHM     H2       HCA1     0.900000E-01   1.00800           0
      4265 LPSA4    29       ARHM     O2       OC301   -0.360000       15.9994           0
      4266 LPSA4    29       ARHM     C3       CC3161   0.140000       12.0110           0
      4267 LPSA4    29       ARHM     H3       HCA1     0.900000E-01   1.00800           0
      4268 LPSA4    29       ARHM     O3       OC311   -0.650000       15.9994           0
      4269 LPSA4    29       ARHM     HO3      HCP1     0.420000       1.00800           0
      4270 LPSA4    29       ARHM     C4       CC3161   0.140000       12.0110           0
      4271 LPSA4    29       ARHM     H4       HCA1     0.900000E-01   1.00800           0
      4272 LPSA4    29       ARHM     O4       OC311   -0.650000       15.9994           0
      4273 LPSA4    29       ARHM     HO4      HCP1     0.420000       1.00800           0
      4274 LPSA4    29       ARHM     C6       CC331   -0.270000       12.0110           0
      4275 LPSA4    29       ARHM     H61      HCA3     0.900000E-01   1.00800           0
      4276 LPSA4    29       ARHM     H62      HCA3     0.900000E-01   1.00800           0
      4277 LPSA4    29       ARHM     H63      HCA3     0.900000E-01   1.00800           0
      4278 LPSA4    30       ARHM     C1       CC3162   0.290000       12.0110           0
      4279 LPSA4    30       ARHM     H1       HCA1     0.900000E-01   1.00800           0
      4280 LPSA4    30       ARHM     C5       CC3163   0.110000       12.0110           0
      4281 LPSA4    30       ARHM     H5       HCA1     0.900000E-01   1.00800           0
      4282 LPSA4    30       ARHM     O5       OC3C61  -0.400000       15.9994           0
      4283 LPSA4    30       ARHM     C2       CC3161   0.900000E-01   12.0110           0
      4284 LPSA4    30       ARHM     H2       HCA1     0.900000E-01   1.00800           0
      4285 LPSA4    30       ARHM     O2       OC301   -0.360000       15.9994           0
      4286 LPSA4    30       ARHM     C3       CC3161   0.900000E-01   12.0110           0
      4287 LPSA4    30       ARHM     H3       HCA1     0.900000E-01   1.00800           0
      4288 LPSA4    30       ARHM     O3       OC301   -0.360000       15.9994           0
      4289 LPSA4    30       ARHM     C4       CC3161   0.140000       12.0110           0
      4290 LPSA4    30       ARHM     H4       HCA1     0.900000E-01   1.00800           0
      4291 LPSA4    30       ARHM     O4       OC311   -0.650000       15.9994           0
      4292 LPSA4    30       ARHM     HO4      HCP1     0.420000       1.00800           0
      4293 LPSA4    30       ARHM     C6       CC331   -0.270000       12.0110           0
      4294 LPSA4    30       ARHM     H61      HCA3     0.900000E-01   1.00800           0
      4295 LPSA4    30       ARHM     H62      HCA3     0.900000E-01   1.00800           0
      4296 LPSA4    30       ARHM     H63      HCA3     0.900000E-01   1.00800           0
      4297 LPSA4    31       BMANNA   C1       CC3162   0.290000       12.0110           0
      4298 LPSA4    31       BMANNA   H1       HCA1     0.900000E-01   1.00800           0
      4299 LPSA4    31       BMANNA   C5       CC3163   0.110000       12.0110           0
      4300 LPSA4    31       BMANNA   H5       HCA1     0.900000E-01   1.00800           0
      4301 LPSA4    31       BMANNA   O5       OC3C61  -0.400000       15.9994           0
      4302 LPSA4    31       BMANNA   C2       CC3161   0.700000E-01   12.0110           0
      4303 LPSA4    31       BMANNA   H2       HCA1     0.900000E-01   1.00800           0
      4304 LPSA4    31       BMANNA   N        NC2D1   -0.470000       14.0070           0
      4305 LPSA4    31       BMANNA   HN       HCP1     0.310000       1.00800           0
      4306 LPSA4    31       BMANNA   C        CC2O1    0.510000       12.0110           0
      4307 LPSA4    31       BMANNA   O        OC2D1   -0.510000       15.9994           0
      4308 LPSA4    31       BMANNA   CT       CC331   -0.270000       12.0110           0
      4309 LPSA4    31       BMANNA   HT1      HCA3     0.900000E-01   1.00800           0
      4310 LPSA4    31       BMANNA   HT2      HCA3     0.900000E-01   1.00800           0
      4311 LPSA4    31       BMANNA   HT3      HCA3     0.900000E-01   1.00800           0
      4312 LPSA4    31       BMANNA   C3       CC3161   0.140000       12.0110           0
      4313 LPSA4    31       BMANNA   H3       HCA1     0.900000E-01   1.00800           0
      4314 LPSA4    31       BMANNA   O3       OC311   -0.650000       15.9994           0
      4315 LPSA4    31       BMANNA   HO3      HCP1     0.420000       1.00800           0
      4316 LPSA4    31       BMANNA   C4       CC3161   0.140000       12.0110           0
      4317 LPSA4    31       BMANNA   H4       HCA1     0.900000E-01   1.00800           0
      4318 LPSA4    31       BMANNA   O4       OC311   -0.650000       15.9994           0
      4319 LPSA4    31       BMANNA   HO4      HCP1     0.420000       1.00800           0
      4320 LPSA4    31       BMANNA   C6       CC321    0.500000E-01   12.0110           0
      4321 LPSA4    31       BMANNA   H61      HCA2     0.900000E-01   1.00800           0
      4322 LPSA4    31       BMANNA   H62      HCA2     0.900000E-01   1.00800           0
      4323 LPSA4    31       BMANNA   O6       OC311   -0.650000       15.9994           0
      4324 LPSA4    31       BMANNA   HO6      HCP1     0.420000       1.00800           0
      4325 LPSA4    32       BGLCNA   C1       CC3162   0.290000       12.0110           0
      4326 LPSA4    32       BGLCNA   H1       HCA1     0.900000E-01   1.00800           0
      4327 LPSA4    32       BGLCNA   C5       CC3163   0.110000       12.0110           0
      4328 LPSA4    32       BGLCNA   H5       HCA1     0.900000E-01   1.00800           0
      4329 LPSA4    32       BGLCNA   O5       OC3C61  -0.400000       15.9994           0
      4330 LPSA4    32       BGLCNA   C2       CC3161   0.700000E-01   12.0110           0
      4331 LPSA4    32       BGLCNA   H2       HCA1     0.900000E-01   1.00800           0
      4332 LPSA4    32       BGLCNA   N        NC2D1   -0.470000       14.0070           0
      4333 LPSA4    32       BGLCNA   HN       HCP1     0.310000       1.00800           0
      4334 LPSA4    32       BGLCNA   C        CC2O1    0.510000       12.0110           0
      4335 LPSA4    32       BGLCNA   O        OC2D1   -0.510000       15.9994           0
      4336 LPSA4    32       BGLCNA   CT       CC331   -0.270000       12.0110           0
      4337 LPSA4    32       BGLCNA   HT1      HCA3     0.900000E-01   1.00800           0
      4338 LPSA4    32       BGLCNA   HT2      HCA3     0.900000E-01   1.00800           0
      4339 LPSA4    32       BGLCNA   HT3      HCA3     0.900000E-01   1.00800           0
      4340 LPSA4    32       BGLCNA   C3       CC3161   0.900000E-01   12.0110           0
      4341 LPSA4    32       BGLCNA   H3       HCA1     0.900000E-01   1.00800           0
      4342 LPSA4    32       BGLCNA   O3       OC301   -0.360000       15.9994           0
      4343 LPSA4    32       BGLCNA   C4       CC3161   0.140000       12.0110           0
      4344 LPSA4    32       BGLCNA   H4       HCA1     0.900000E-01   1.00800           0
      4345 LPSA4    32       BGLCNA   O4       OC311   -0.650000       15.9994           0
      4346 LPSA4    32       BGLCNA   HO4      HCP1     0.420000       1.00800           0
      4347 LPSA4    32       BGLCNA   C6       CC321    0.500000E-01   12.0110           0
      4348 LPSA4    32       BGLCNA   H61      HCA2     0.900000E-01   1.00800           0
      4349 LPSA4    32       BGLCNA   H62      HCA2     0.900000E-01   1.00800           0
      4350 LPSA4    32       BGLCNA   O6       OC311   -0.650000       15.9994           0
      4351 LPSA4    32       BGLCNA   HO6      HCP1     0.420000       1.00800           0
      4352 LPSA4    33       AGAL     C1       CC3162   0.290000       12.0110           0
      4353 LPSA4    33       AGAL     H1       HCA1     0.900000E-01   1.00800           0
      4354 LPSA4    33       AGAL     C5       CC3163   0.110000       12.0110           0
      4355 LPSA4    33       AGAL     H5       HCA1     0.900000E-01   1.00800           0
      4356 LPSA4    33       AGAL     O5       OC3C61  -0.400000       15.9994           0
      4357 LPSA4    33       AGAL     C2       CC3161   0.900000E-01   12.0110           0
      4358 LPSA4    33       AGAL     H2       HCA1     0.900000E-01   1.00800           0
      4359 LPSA4    33       AGAL     O2       OC301   -0.360000       15.9994           0
      4360 LPSA4    33       AGAL     C3       CC3161   0.140000       12.0110           0
      4361 LPSA4    33       AGAL     H3       HCA1     0.900000E-01   1.00800           0
      4362 LPSA4    33       AGAL     O3       OC311   -0.650000       15.9994           0
      4363 LPSA4    33       AGAL     HO3      HCP1     0.420000       1.00800           0
      4364 LPSA4    33       AGAL     C4       CC3161   0.140000       12.0110           0
      4365 LPSA4    33       AGAL     H4       HCA1     0.900000E-01   1.00800           0
      4366 LPSA4    33       AGAL     O4       OC311   -0.650000       15.9994           0
      4367 LPSA4    33       AGAL     HO4      HCP1     0.420000       1.00800           0
      4368 LPSA4    33       AGAL     C6       CC321    0.500000E-01   12.0110           0
      4369 LPSA4    33       AGAL     H61      HCA2     0.900000E-01   1.00800           0
      4370 LPSA4    33       AGAL     H62      HCA2     0.900000E-01   1.00800           0
      4371 LPSA4    33       AGAL     O6       OC311   -0.650000       15.9994           0
      4372 LPSA4    33       AGAL     HO6      HCP1     0.420000       1.00800           0
      4373 LPSA4    34       ARHM     C1       CC3162   0.290000       12.0110           0
      4374 LPSA4    34       ARHM     H1       HCA1     0.900000E-01   1.00800           0
      4375 LPSA4    34       ARHM     C5       CC3163   0.110000       12.0110           0
      4376 LPSA4    34       ARHM     H5       HCA1     0.900000E-01   1.00800           0
      4377 LPSA4    34       ARHM     O5       OC3C61  -0.400000       15.9994           0
      4378 LPSA4    34       ARHM     C2       CC3161   0.900000E-01   12.0110           0
      4379 LPSA4    34       ARHM     H2       HCA1     0.900000E-01   1.00800           0
      4380 LPSA4    34       ARHM     O2       OC301   -0.360000       15.9994           0
      4381 LPSA4    34       ARHM     C3       CC3161   0.140000       12.0110           0
      4382 LPSA4    34       ARHM     H3       HCA1     0.900000E-01   1.00800           0
      4383 LPSA4    34       ARHM     O3       OC311   -0.650000       15.9994           0
      4384 LPSA4    34       ARHM     HO3      HCP1     0.420000       1.00800           0
      4385 LPSA4    34       ARHM     C4       CC3161   0.140000       12.0110           0
      4386 LPSA4    34       ARHM     H4       HCA1     0.900000E-01   1.00800           0
      4387 LPSA4    34       ARHM     O4       OC311   -0.650000       15.9994           0
      4388 LPSA4    34       ARHM     HO4      HCP1     0.420000       1.00800           0
      4389 LPSA4    34       ARHM     C6       CC331   -0.270000       12.0110           0
      4390 LPSA4    34       ARHM     H61      HCA3     0.900000E-01   1.00800           0
      4391 LPSA4    34       ARHM     H62      HCA3     0.900000E-01   1.00800           0
      4392 LPSA4    34       ARHM     H63      HCA3     0.900000E-01   1.00800           0
      4393 LPSA4    35       ARHM     C1       CC3162   0.290000       12.0110           0
      4394 LPSA4    35       ARHM     H1       HCA1     0.900000E-01   1.00800           0
      4395 LPSA4    35       ARHM     C5       CC3163   0.110000       12.0110           0
      4396 LPSA4    35       ARHM     H5       HCA1     0.900000E-01   1.00800           0
      4397 LPSA4    35       ARHM     O5       OC3C61  -0.400000       15.9994           0
      4398 LPSA4    35       ARHM     C2       CC3161   0.900000E-01   12.0110           0
      4399 LPSA4    35       ARHM     H2       HCA1     0.900000E-01   1.00800           0
      4400 LPSA4    35       ARHM     O2       OC301   -0.360000       15.9994           0
      4401 LPSA4    35       ARHM     C3       CC3161   0.140000       12.0110           0
      4402 LPSA4    35       ARHM     H3       HCA1     0.900000E-01   1.00800           0
      4403 LPSA4    35       ARHM     O3       OC311   -0.650000       15.9994           0
      4404 LPSA4    35       ARHM     HO3      HCP1     0.420000       1.00800           0
      4405 LPSA4    35       ARHM     C4       CC3161   0.140000       12.0110           0
      4406 LPSA4    35       ARHM     H4       HCA1     0.900000E-01   1.00800           0
      4407 LPSA4    35       ARHM     O4       OC311   -0.650000       15.9994           0
      4408 LPSA4    35       ARHM     HO4      HCP1     0.420000       1.00800           0
      4409 LPSA4    35       ARHM     C6       CC331   -0.270000       12.0110           0
      4410 LPSA4    35       ARHM     H61      HCA3     0.900000E-01   1.00800           0
      4411 LPSA4    35       ARHM     H62      HCA3     0.900000E-01   1.00800           0
      4412 LPSA4    35       ARHM     H63      HCA3     0.900000E-01   1.00800           0
      4413 LPSA4    36       BMANNA   C1       CC3162   0.290000       12.0110           0
      4414 LPSA4    36       BMANNA   H1       HCA1     0.900000E-01   1.00800           0
      4415 LPSA4    36       BMANNA   C5       CC3163   0.110000       12.0110           0
      4416 LPSA4    36       BMANNA   H5       HCA1     0.900000E-01   1.00800           0
      4417 LPSA4    36       BMANNA   O5       OC3C61  -0.400000       15.9994           0
      4418 LPSA4    36       BMANNA   C2       CC3161   0.700000E-01   12.0110           0
      4419 LPSA4    36       BMANNA   H2       HCA1     0.900000E-01   1.00800           0
      4420 LPSA4    36       BMANNA   N        NC2D1   -0.470000       14.0070           0
      4421 LPSA4    36       BMANNA   HN       HCP1     0.310000       1.00800           0
      4422 LPSA4    36       BMANNA   C        CC2O1    0.510000       12.0110           0
      4423 LPSA4    36       BMANNA   O        OC2D1   -0.510000       15.9994           0
      4424 LPSA4    36       BMANNA   CT       CC331   -0.270000       12.0110           0
      4425 LPSA4    36       BMANNA   HT1      HCA3     0.900000E-01   1.00800           0
      4426 LPSA4    36       BMANNA   HT2      HCA3     0.900000E-01   1.00800           0
      4427 LPSA4    36       BMANNA   HT3      HCA3     0.900000E-01   1.00800           0
      4428 LPSA4    36       BMANNA   C3       CC3161   0.140000       12.0110           0
      4429 LPSA4    36       BMANNA   H3       HCA1     0.900000E-01   1.00800           0
      4430 LPSA4    36       BMANNA   O3       OC311   -0.650000       15.9994           0
      4431 LPSA4    36       BMANNA   HO3      HCP1     0.420000       1.00800           0
      4432 LPSA4    36       BMANNA   C4       CC3161   0.140000       12.0110           0
      4433 LPSA4    36       BMANNA   H4       HCA1     0.900000E-01   1.00800           0
      4434 LPSA4    36       BMANNA   O4       OC311   -0.650000       15.9994           0
      4435 LPSA4    36       BMANNA   HO4      HCP1     0.420000       1.00800           0
      4436 LPSA4    36       BMANNA   C6       CC321    0.500000E-01   12.0110           0
      4437 LPSA4    36       BMANNA   H61      HCA2     0.900000E-01   1.00800           0
      4438 LPSA4    36       BMANNA   H62      HCA2     0.900000E-01   1.00800           0
      4439 LPSA4    36       BMANNA   O6       OC311   -0.650000       15.9994           0
      4440 LPSA4    36       BMANNA   HO6      HCP1     0.420000       1.00800           0
      4441 LPSA5    1        ECLIPA   HB6S     HCA2     0.900000E-01   1.00800           0
      4442 LPSA5    1        ECLIPA   OB6      OC301   -0.360000       15.9994           0
      4443 LPSA5    1        ECLIPA   CB6      CC321     0.00000       12.0110           0
      4444 LPSA5    1        ECLIPA   HB6R     HCA2     0.900000E-01   1.00800           0
      4445 LPSA5    1        ECLIPA   CB5      CC3163   0.110000       12.0110           0
      4446 LPSA5    1        ECLIPA   OB5      OC3C61  -0.400000       15.9994           0
      4447 LPSA5    1        ECLIPA   HB5      HCA1     0.900000E-01   1.00800           0
      4448 LPSA5    1        ECLIPA   CB1      CC3162   0.290000       12.0110           0
      4449 LPSA5    1        ECLIPA   HB1      HCA1     0.900000E-01   1.00800           0
      4450 LPSA5    1        ECLIPA   OA6      OC301   -0.360000       15.9994           0
      4451 LPSA5    1        ECLIPA   CA6      CC321     0.00000       12.0110           0
      4452 LPSA5    1        ECLIPA   HA6R     HCA2     0.900000E-01   1.00800           0
      4453 LPSA5    1        ECLIPA   HA6S     HCA2     0.900000E-01   1.00800           0
      4454 LPSA5    1        ECLIPA   CB4      CC3161  -0.900000E-01   12.0110           0
      4455 LPSA5    1        ECLIPA   HB4      HCA1     0.900000E-01   1.00800           0
      4456 LPSA5    1        ECLIPA   OB4      OC30P   -0.400000       15.9994           0
      4457 LPSA5    1        ECLIPA   PB       PC        1.10000       30.9740           0
      4458 LPSA5    1        ECLIPA   OPB4     OC2DP   -0.900000       15.9994           0
      4459 LPSA5    1        ECLIPA   OPB3     OC2DP   -0.900000       15.9994           0
      4460 LPSA5    1        ECLIPA   OPB2     OC2DP   -0.900000       15.9994           0
      4461 LPSA5    1        ECLIPA   CB3      CC3161   0.170000       12.0110           0
      4462 LPSA5    1        ECLIPA   OB3      OC301   -0.490000       15.9994           0
      4463 LPSA5    1        ECLIPA   HB3      HCA1     0.900000E-01   1.00800           0
      4464 LPSA5    1        ECLIPA   C71      CL       0.900000       12.0110           0
      4465 LPSA5    1        ECLIPA   O71      OBL     -0.630000       15.9994           0
      4466 LPSA5    1        ECLIPA   C72      CTL2    -0.220000       12.0110           0
      4467 LPSA5    1        ECLIPA   H72R     HAL2     0.900000E-01   1.00800           0
      4468 LPSA5    1        ECLIPA   H72S     HAL2     0.900000E-01   1.00800           0
      4469 LPSA5    1        ECLIPA   CB2      CC3161   0.700000E-01   12.0110           0
      4470 LPSA5    1        ECLIPA   HB2      HCA1     0.900000E-01   1.00800           0
      4471 LPSA5    1        ECLIPA   NB2      NC2D1   -0.470000       14.0070           0
      4472 LPSA5    1        ECLIPA   HNB2     HCP1     0.310000       1.00800           0
      4473 LPSA5    1        ECLIPA   CA4      CC3161   0.140000       12.0110           0
      4474 LPSA5    1        ECLIPA   HA4      HCA1     0.900000E-01   1.00800           0
      4475 LPSA5    1        ECLIPA   OA4      OC311   -0.650000       15.9994           0
      4476 LPSA5    1        ECLIPA   HOA4     HCP1     0.420000       1.00800           0
      4477 LPSA5    1        ECLIPA   CA5      CC3163   0.110000       12.0110           0
      4478 LPSA5    1        ECLIPA   HA5      HCA1     0.900000E-01   1.00800           0
      4479 LPSA5    1        ECLIPA   OA5      OC3C61  -0.400000       15.9994           0
      4480 LPSA5    1        ECLIPA   CA1      CC3162   0.110000       12.0110           0
      4481 LPSA5    1        ECLIPA   HA1      HCA1     0.900000E-01   1.00800           0
      4482 LPSA5    1        ECLIPA   OA1      OC30P   -0.400000       15.9994           0
      4483 LPSA5    1        ECLIPA   OPA2     OC2DP   -0.900000       15.9994           0
      4484 LPSA5    1        ECLIPA   OPA3     OC2DP   -0.900000       15.9994           0
      4485 LPSA5    1        ECLIPA   OPA4     OC2DP   -0.900000       15.9994           0
      4486 LPSA5    1        ECLIPA   PA       PC        1.10000       30.9740           0
      4487 LPSA5    1        ECLIPA   CA3      CC3161   0.170000       12.0110           0
      4488 LPSA5    1        ECLIPA   HA3      HCA1     0.900000E-01   1.00800           0
      4489 LPSA5    1        ECLIPA   OA3      OC301   -0.490000       15.9994           0
      4490 LPSA5    1        ECLIPA   C31      CL       0.900000       12.0110           0
      4491 LPSA5    1        ECLIPA   O31      OBL     -0.630000       15.9994           0
      4492 LPSA5    1        ECLIPA   C32      CTL2    -0.220000       12.0110           0
      4493 LPSA5    1        ECLIPA   H32R     HAL2     0.900000E-01   1.00800           0
      4494 LPSA5    1        ECLIPA   H32S     HAL2     0.900000E-01   1.00800           0
      4495 LPSA5    1        ECLIPA   CA2      CC3161   0.700000E-01   12.0110           0
      4496 LPSA5    1        ECLIPA   HA2      HCA1     0.900000E-01   1.00800           0
      4497 LPSA5    1        ECLIPA   NA2      NC2D1   -0.470000       14.0070           0
      4498 LPSA5    1        ECLIPA   HNA2     HCP1     0.310000       1.00800           0
      4499 LPSA5    1        ECLIPA   C73      CTL1     0.170000       12.0110           0
      4500 LPSA5    1        ECLIPA   H73R     HAL1     0.900000E-01   1.00800           0
      4501 LPSA5    1        ECLIPA   O73      OSL     -0.490000       15.9994           0
      4502 LPSA5    1        ECLIPA   C81      CL       0.900000       12.0110           0
      4503 LPSA5    1        ECLIPA   O81      OBL     -0.630000       15.9994           0
      4504 LPSA5    1        ECLIPA   C82      CTL2    -0.220000       12.0110           0
      4505 LPSA5    1        ECLIPA   H82R     HAL2     0.900000E-01   1.00800           0
      4506 LPSA5    1        ECLIPA   H82S     HAL2     0.900000E-01   1.00800           0
      4507 LPSA5    1        ECLIPA   C83      CTL2    -0.180000       12.0110           0
      4508 LPSA5    1        ECLIPA   H83R     HAL2     0.900000E-01   1.00800           0
      4509 LPSA5    1        ECLIPA   H83S     HAL2     0.900000E-01   1.00800           0
      4510 LPSA5    1        ECLIPA   C84      CTL2    -0.180000       12.0110           0
      4511 LPSA5    1        ECLIPA   H84R     HAL2     0.900000E-01   1.00800           0
      4512 LPSA5    1        ECLIPA   H84S     HAL2     0.900000E-01   1.00800           0
      4513 LPSA5    1        ECLIPA   C85      CTL2    -0.180000       12.0110           0
      4514 LPSA5    1        ECLIPA   H85R     HAL2     0.900000E-01   1.00800           0
      4515 LPSA5    1        ECLIPA   H85S     HAL2     0.900000E-01   1.00800           0
      4516 LPSA5    1        ECLIPA   C86      CTL2    -0.180000       12.0110           0
      4517 LPSA5    1        ECLIPA   H86R     HAL2     0.900000E-01   1.00800           0
      4518 LPSA5    1        ECLIPA   H86S     HAL2     0.900000E-01   1.00800           0
      4519 LPSA5    1        ECLIPA   C87      CTL2    -0.180000       12.0110           0
      4520 LPSA5    1        ECLIPA   H87R     HAL2     0.900000E-01   1.00800           0
      4521 LPSA5    1        ECLIPA   H87S     HAL2     0.900000E-01   1.00800           0
      4522 LPSA5    1        ECLIPA   C88      CTL2    -0.180000       12.0110           0
      4523 LPSA5    1        ECLIPA   H88R     HAL2     0.900000E-01   1.00800           0
      4524 LPSA5    1        ECLIPA   H88S     HAL2     0.900000E-01   1.00800           0
      4525 LPSA5    1        ECLIPA   C89      CTL2    -0.180000       12.0110           0
      4526 LPSA5    1        ECLIPA   H89R     HAL2     0.900000E-01   1.00800           0
      4527 LPSA5    1        ECLIPA   H89S     HAL2     0.900000E-01   1.00800           0
      4528 LPSA5    1        ECLIPA   C810     CTL2    -0.180000       12.0110           0
      4529 LPSA5    1        ECLIPA   H810R    HAL2     0.900000E-01   1.00800           0
      4530 LPSA5    1        ECLIPA   H810S    HAL2     0.900000E-01   1.00800           0
      4531 LPSA5    1        ECLIPA   C811     CTL2    -0.180000       12.0110           0
      4532 LPSA5    1        ECLIPA   H811R    HAL2     0.900000E-01   1.00800           0
      4533 LPSA5    1        ECLIPA   H811S    HAL2     0.900000E-01   1.00800           0
      4534 LPSA5    1        ECLIPA   C812     CTL2    -0.180000       12.0110           0
      4535 LPSA5    1        ECLIPA   H812R    HAL2     0.900000E-01   1.00800           0
      4536 LPSA5    1        ECLIPA   H812S    HAL2     0.900000E-01   1.00800           0
      4537 LPSA5    1        ECLIPA   C813     CTL2    -0.180000       12.0110           0
      4538 LPSA5    1        ECLIPA   H813R    HAL2     0.900000E-01   1.00800           0
      4539 LPSA5    1        ECLIPA   H813S    HAL2     0.900000E-01   1.00800           0
      4540 LPSA5    1        ECLIPA   C814     CTL3    -0.270000       12.0110           0
      4541 LPSA5    1        ECLIPA   H814R    HAL3     0.900000E-01   1.00800           0
      4542 LPSA5    1        ECLIPA   H814S    HAL3     0.900000E-01   1.00800           0
      4543 LPSA5    1        ECLIPA   H814T    HAL3     0.900000E-01   1.00800           0
      4544 LPSA5    1        ECLIPA   C74      CTL2    -0.180000       12.0110           0
      4545 LPSA5    1        ECLIPA   H74R     HAL2     0.900000E-01   1.00800           0
      4546 LPSA5    1        ECLIPA   H74S     HAL2     0.900000E-01   1.00800           0
      4547 LPSA5    1        ECLIPA   C75      CTL2    -0.180000       12.0110           0
      4548 LPSA5    1        ECLIPA   H75R     HAL2     0.900000E-01   1.00800           0
      4549 LPSA5    1        ECLIPA   H75S     HAL2     0.900000E-01   1.00800           0
      4550 LPSA5    1        ECLIPA   C76      CTL2    -0.180000       12.0110           0
      4551 LPSA5    1        ECLIPA   H76R     HAL2     0.900000E-01   1.00800           0
      4552 LPSA5    1        ECLIPA   H76S     HAL2     0.900000E-01   1.00800           0
      4553 LPSA5    1        ECLIPA   C77      CTL2    -0.180000       12.0110           0
      4554 LPSA5    1        ECLIPA   H77R     HAL2     0.900000E-01   1.00800           0
      4555 LPSA5    1        ECLIPA   H77S     HAL2     0.900000E-01   1.00800           0
      4556 LPSA5    1        ECLIPA   C78      CTL2    -0.180000       12.0110           0
      4557 LPSA5    1        ECLIPA   H78R     HAL2     0.900000E-01   1.00800           0
      4558 LPSA5    1        ECLIPA   H78S     HAL2     0.900000E-01   1.00800           0
      4559 LPSA5    1        ECLIPA   C79      CTL2    -0.180000       12.0110           0
      4560 LPSA5    1        ECLIPA   H79R     HAL2     0.900000E-01   1.00800           0
      4561 LPSA5    1        ECLIPA   H79S     HAL2     0.900000E-01   1.00800           0
      4562 LPSA5    1        ECLIPA   C710     CTL2    -0.180000       12.0110           0
      4563 LPSA5    1        ECLIPA   H710R    HAL2     0.900000E-01   1.00800           0
      4564 LPSA5    1        ECLIPA   H710S    HAL2     0.900000E-01   1.00800           0
      4565 LPSA5    1        ECLIPA   C711     CTL2    -0.180000       12.0110           0
      4566 LPSA5    1        ECLIPA   H711R    HAL2     0.900000E-01   1.00800           0
      4567 LPSA5    1        ECLIPA   H711S    HAL2     0.900000E-01   1.00800           0
      4568 LPSA5    1        ECLIPA   C712     CTL2    -0.180000       12.0110           0
      4569 LPSA5    1        ECLIPA   H712R    HAL2     0.900000E-01   1.00800           0
      4570 LPSA5    1        ECLIPA   H712S    HAL2     0.900000E-01   1.00800           0
      4571 LPSA5    1        ECLIPA   C713     CTL2    -0.180000       12.0110           0
      4572 LPSA5    1        ECLIPA   H713R    HAL2     0.900000E-01   1.00800           0
      4573 LPSA5    1        ECLIPA   H713S    HAL2     0.900000E-01   1.00800           0
      4574 LPSA5    1        ECLIPA   C714     CTL3    -0.270000       12.0110           0
      4575 LPSA5    1        ECLIPA   H714R    HAL3     0.900000E-01   1.00800           0
      4576 LPSA5    1        ECLIPA   H714S    HAL3     0.900000E-01   1.00800           0
      4577 LPSA5    1        ECLIPA   H714T    HAL3     0.900000E-01   1.00800           0
      4578 LPSA5    1        ECLIPA   C51      CC2O1    0.550000       12.0110           0
      4579 LPSA5    1        ECLIPA   O51      OC2D1   -0.550000       15.9994           0
      4580 LPSA5    1        ECLIPA   C52      CTL2    -0.180000       12.0110           0
      4581 LPSA5    1        ECLIPA   H52R     HAL2     0.900000E-01   1.00800           0
      4582 LPSA5    1        ECLIPA   H52S     HAL2     0.900000E-01   1.00800           0
      4583 LPSA5    1        ECLIPA   C53      CTL1     0.170000       12.0110           0
      4584 LPSA5    1        ECLIPA   H53R     HAL1     0.900000E-01   1.00800           0
      4585 LPSA5    1        ECLIPA   O53      OSL     -0.490000       15.9994           0
      4586 LPSA5    1        ECLIPA   C61      CL       0.900000       12.0110           0
      4587 LPSA5    1        ECLIPA   O61      OBL     -0.630000       15.9994           0
      4588 LPSA5    1        ECLIPA   C62      CTL2    -0.220000       12.0110           0
      4589 LPSA5    1        ECLIPA   H62R     HAL2     0.900000E-01   1.00800           0
      4590 LPSA5    1        ECLIPA   H62S     HAL2     0.900000E-01   1.00800           0
      4591 LPSA5    1        ECLIPA   C63      CTL2    -0.180000       12.0110           0
      4592 LPSA5    1        ECLIPA   H63R     HAL2     0.900000E-01   1.00800           0
      4593 LPSA5    1        ECLIPA   H63S     HAL2     0.900000E-01   1.00800           0
      4594 LPSA5    1        ECLIPA   C64      CTL2    -0.180000       12.0110           0
      4595 LPSA5    1        ECLIPA   H64R     HAL2     0.900000E-01   1.00800           0
      4596 LPSA5    1        ECLIPA   H64S     HAL2     0.900000E-01   1.00800           0
      4597 LPSA5    1        ECLIPA   C65      CTL2    -0.180000       12.0110           0
      4598 LPSA5    1        ECLIPA   H65R     HAL2     0.900000E-01   1.00800           0
      4599 LPSA5    1        ECLIPA   H65S     HAL2     0.900000E-01   1.00800           0
      4600 LPSA5    1        ECLIPA   C66      CTL2    -0.180000       12.0110           0
      4601 LPSA5    1        ECLIPA   H66R     HAL2     0.900000E-01   1.00800           0
      4602 LPSA5    1        ECLIPA   H66S     HAL2     0.900000E-01   1.00800           0
      4603 LPSA5    1        ECLIPA   C67      CTL2    -0.180000       12.0110           0
      4604 LPSA5    1        ECLIPA   H67R     HAL2     0.900000E-01   1.00800           0
      4605 LPSA5    1        ECLIPA   H67S     HAL2     0.900000E-01   1.00800           0
      4606 LPSA5    1        ECLIPA   C68      CTL2    -0.180000       12.0110           0
      4607 LPSA5    1        ECLIPA   H68R     HAL2     0.900000E-01   1.00800           0
      4608 LPSA5    1        ECLIPA   H68S     HAL2     0.900000E-01   1.00800           0
      4609 LPSA5    1        ECLIPA   C69      CTL2    -0.180000       12.0110           0
      4610 LPSA5    1        ECLIPA   H69R     HAL2     0.900000E-01   1.00800           0
      4611 LPSA5    1        ECLIPA   H69S     HAL2     0.900000E-01   1.00800           0
      4612 LPSA5    1        ECLIPA   C610     CTL2    -0.180000       12.0110           0
      4613 LPSA5    1        ECLIPA   H610R    HAL2     0.900000E-01   1.00800           0
      4614 LPSA5    1        ECLIPA   H610S    HAL2     0.900000E-01   1.00800           0
      4615 LPSA5    1        ECLIPA   C611     CTL2    -0.180000       12.0110           0
      4616 LPSA5    1        ECLIPA   H611R    HAL2     0.900000E-01   1.00800           0
      4617 LPSA5    1        ECLIPA   H611S    HAL2     0.900000E-01   1.00800           0
      4618 LPSA5    1        ECLIPA   C612     CTL3    -0.270000       12.0110           0
      4619 LPSA5    1        ECLIPA   H612R    HAL3     0.900000E-01   1.00800           0
      4620 LPSA5    1        ECLIPA   H612S    HAL3     0.900000E-01   1.00800           0
      4621 LPSA5    1        ECLIPA   H612T    HAL3     0.900000E-01   1.00800           0
      4622 LPSA5    1        ECLIPA   C54      CTL2    -0.180000       12.0110           0
      4623 LPSA5    1        ECLIPA   H54R     HAL2     0.900000E-01   1.00800           0
      4624 LPSA5    1        ECLIPA   H54S     HAL2     0.900000E-01   1.00800           0
      4625 LPSA5    1        ECLIPA   C55      CTL2    -0.180000       12.0110           0
      4626 LPSA5    1        ECLIPA   H55R     HAL2     0.900000E-01   1.00800           0
      4627 LPSA5    1        ECLIPA   H55S     HAL2     0.900000E-01   1.00800           0
      4628 LPSA5    1        ECLIPA   C56      CTL2    -0.180000       12.0110           0
      4629 LPSA5    1        ECLIPA   H56R     HAL2     0.900000E-01   1.00800           0
      4630 LPSA5    1        ECLIPA   H56S     HAL2     0.900000E-01   1.00800           0
      4631 LPSA5    1        ECLIPA   C57      CTL2    -0.180000       12.0110           0
      4632 LPSA5    1        ECLIPA   H57R     HAL2     0.900000E-01   1.00800           0
      4633 LPSA5    1        ECLIPA   H57S     HAL2     0.900000E-01   1.00800           0
      4634 LPSA5    1        ECLIPA   C58      CTL2    -0.180000       12.0110           0
      4635 LPSA5    1        ECLIPA   H58R     HAL2     0.900000E-01   1.00800           0
      4636 LPSA5    1        ECLIPA   H58S     HAL2     0.900000E-01   1.00800           0
      4637 LPSA5    1        ECLIPA   C59      CTL2    -0.180000       12.0110           0
      4638 LPSA5    1        ECLIPA   H59R     HAL2     0.900000E-01   1.00800           0
      4639 LPSA5    1        ECLIPA   H59S     HAL2     0.900000E-01   1.00800           0
      4640 LPSA5    1        ECLIPA   C510     CTL2    -0.180000       12.0110           0
      4641 LPSA5    1        ECLIPA   H510R    HAL2     0.900000E-01   1.00800           0
      4642 LPSA5    1        ECLIPA   H510S    HAL2     0.900000E-01   1.00800           0
      4643 LPSA5    1        ECLIPA   C511     CTL2    -0.180000       12.0110           0
      4644 LPSA5    1        ECLIPA   H511R    HAL2     0.900000E-01   1.00800           0
      4645 LPSA5    1        ECLIPA   H511S    HAL2     0.900000E-01   1.00800           0
      4646 LPSA5    1        ECLIPA   C512     CTL2    -0.180000       12.0110           0
      4647 LPSA5    1        ECLIPA   H512R    HAL2     0.900000E-01   1.00800           0
      4648 LPSA5    1        ECLIPA   H512S    HAL2     0.900000E-01   1.00800           0
      4649 LPSA5    1        ECLIPA   C513     CTL2    -0.180000       12.0110           0
      4650 LPSA5    1        ECLIPA   H513R    HAL2     0.900000E-01   1.00800           0
      4651 LPSA5    1        ECLIPA   H513S    HAL2     0.900000E-01   1.00800           0
      4652 LPSA5    1        ECLIPA   C514     CTL3    -0.270000       12.0110           0
      4653 LPSA5    1        ECLIPA   H514R    HAL3     0.900000E-01   1.00800           0
      4654 LPSA5    1        ECLIPA   H514S    HAL3     0.900000E-01   1.00800           0
      4655 LPSA5    1        ECLIPA   H514T    HAL3     0.900000E-01   1.00800           0
      4656 LPSA5    1        ECLIPA   C33      CTL1     0.140000       12.0110           0
      4657 LPSA5    1        ECLIPA   H33R     HAL1     0.900000E-01   1.00800           0
      4658 LPSA5    1        ECLIPA   O33      OH1     -0.660000       15.9994           0
      4659 LPSA5    1        ECLIPA   HO33     H        0.430000       1.00800           0
      4660 LPSA5    1        ECLIPA   C34      CTL2    -0.180000       12.0110           0
      4661 LPSA5    1        ECLIPA   H34R     HAL2     0.900000E-01   1.00800           0
      4662 LPSA5    1        ECLIPA   H34S     HAL2     0.900000E-01   1.00800           0
      4663 LPSA5    1        ECLIPA   C35      CTL2    -0.180000       12.0110           0
      4664 LPSA5    1        ECLIPA   H35R     HAL2     0.900000E-01   1.00800           0
      4665 LPSA5    1        ECLIPA   H35S     HAL2     0.900000E-01   1.00800           0
      4666 LPSA5    1        ECLIPA   C36      CTL2    -0.180000       12.0110           0
      4667 LPSA5    1        ECLIPA   H36R     HAL2     0.900000E-01   1.00800           0
      4668 LPSA5    1        ECLIPA   H36S     HAL2     0.900000E-01   1.00800           0
      4669 LPSA5    1        ECLIPA   C37      CTL2    -0.180000       12.0110           0
      4670 LPSA5    1        ECLIPA   H37R     HAL2     0.900000E-01   1.00800           0
      4671 LPSA5    1        ECLIPA   H37S     HAL2     0.900000E-01   1.00800           0
      4672 LPSA5    1        ECLIPA   C38      CTL2    -0.180000       12.0110           0
      4673 LPSA5    1        ECLIPA   H38R     HAL2     0.900000E-01   1.00800           0
      4674 LPSA5    1        ECLIPA   H38S     HAL2     0.900000E-01   1.00800           0
      4675 LPSA5    1        ECLIPA   C39      CTL2    -0.180000       12.0110           0
      4676 LPSA5    1        ECLIPA   H39R     HAL2     0.900000E-01   1.00800           0
      4677 LPSA5    1        ECLIPA   H39S     HAL2     0.900000E-01   1.00800           0
      4678 LPSA5    1        ECLIPA   C310     CTL2    -0.180000       12.0110           0
      4679 LPSA5    1        ECLIPA   H310R    HAL2     0.900000E-01   1.00800           0
      4680 LPSA5    1        ECLIPA   H310S    HAL2     0.900000E-01   1.00800           0
      4681 LPSA5    1        ECLIPA   C311     CTL2    -0.180000       12.0110           0
      4682 LPSA5    1        ECLIPA   H311R    HAL2     0.900000E-01   1.00800           0
      4683 LPSA5    1        ECLIPA   H311S    HAL2     0.900000E-01   1.00800           0
      4684 LPSA5    1        ECLIPA   C312     CTL2    -0.180000       12.0110           0
      4685 LPSA5    1        ECLIPA   H312R    HAL2     0.900000E-01   1.00800           0
      4686 LPSA5    1        ECLIPA   H312S    HAL2     0.900000E-01   1.00800           0
      4687 LPSA5    1        ECLIPA   C313     CTL2    -0.180000       12.0110           0
      4688 LPSA5    1        ECLIPA   H313R    HAL2     0.900000E-01   1.00800           0
      4689 LPSA5    1        ECLIPA   H313S    HAL2     0.900000E-01   1.00800           0
      4690 LPSA5    1        ECLIPA   C314     CTL3    -0.270000       12.0110           0
      4691 LPSA5    1        ECLIPA   H314R    HAL3     0.900000E-01   1.00800           0
      4692 LPSA5    1        ECLIPA   H314S    HAL3     0.900000E-01   1.00800           0
      4693 LPSA5    1        ECLIPA   H314T    HAL3     0.900000E-01   1.00800           0
      4694 LPSA5    1        ECLIPA   C11      CC2O1    0.550000       12.0110           0
      4695 LPSA5    1        ECLIPA   O11      OC2D1   -0.550000       15.9994           0
      4696 LPSA5    1        ECLIPA   C12      CTL2    -0.180000       12.0110           0
      4697 LPSA5    1        ECLIPA   H12R     HAL2     0.900000E-01   1.00800           0
      4698 LPSA5    1        ECLIPA   H12S     HAL2     0.900000E-01   1.00800           0
      4699 LPSA5    1        ECLIPA   C13      CTL1     0.140000       12.0110           0
      4700 LPSA5    1        ECLIPA   H13R     HAL1     0.900000E-01   1.00800           0
      4701 LPSA5    1        ECLIPA   O13      OH1     -0.660000       15.9994           0
      4702 LPSA5    1        ECLIPA   HO13     H        0.430000       1.00800           0
      4703 LPSA5    1        ECLIPA   C14      CTL2    -0.180000       12.0110           0
      4704 LPSA5    1        ECLIPA   H14R     HAL2     0.900000E-01   1.00800           0
      4705 LPSA5    1        ECLIPA   H14S     HAL2     0.900000E-01   1.00800           0
      4706 LPSA5    1        ECLIPA   C15      CTL2    -0.180000       12.0110           0
      4707 LPSA5    1        ECLIPA   H15R     HAL2     0.900000E-01   1.00800           0
      4708 LPSA5    1        ECLIPA   H15S     HAL2     0.900000E-01   1.00800           0
      4709 LPSA5    1        ECLIPA   C16      CTL2    -0.180000       12.0110           0
      4710 LPSA5    1        ECLIPA   H16R     HAL2     0.900000E-01   1.00800           0
      4711 LPSA5    1        ECLIPA   H16S     HAL2     0.900000E-01   1.00800           0
      4712 LPSA5    1        ECLIPA   C17      CTL2    -0.180000       12.0110           0
      4713 LPSA5    1        ECLIPA   H17R     HAL2     0.900000E-01   1.00800           0
      4714 LPSA5    1        ECLIPA   H17S     HAL2     0.900000E-01   1.00800           0
      4715 LPSA5    1        ECLIPA   C18      CTL2    -0.180000       12.0110           0
      4716 LPSA5    1        ECLIPA   H18R     HAL2     0.900000E-01   1.00800           0
      4717 LPSA5    1        ECLIPA   H18S     HAL2     0.900000E-01   1.00800           0
      4718 LPSA5    1        ECLIPA   C19      CTL2    -0.180000       12.0110           0
      4719 LPSA5    1        ECLIPA   H19R     HAL2     0.900000E-01   1.00800           0
      4720 LPSA5    1        ECLIPA   H19S     HAL2     0.900000E-01   1.00800           0
      4721 LPSA5    1        ECLIPA   C110     CTL2    -0.180000       12.0110           0
      4722 LPSA5    1        ECLIPA   H110R    HAL2     0.900000E-01   1.00800           0
      4723 LPSA5    1        ECLIPA   H110S    HAL2     0.900000E-01   1.00800           0
      4724 LPSA5    1        ECLIPA   C111     CTL2    -0.180000       12.0110           0
      4725 LPSA5    1        ECLIPA   H111R    HAL2     0.900000E-01   1.00800           0
      4726 LPSA5    1        ECLIPA   H111S    HAL2     0.900000E-01   1.00800           0
      4727 LPSA5    1        ECLIPA   C112     CTL2    -0.180000       12.0110           0
      4728 LPSA5    1        ECLIPA   H112R    HAL2     0.900000E-01   1.00800           0
      4729 LPSA5    1        ECLIPA   H112S    HAL2     0.900000E-01   1.00800           0
      4730 LPSA5    1        ECLIPA   C113     CTL2    -0.180000       12.0110           0
      4731 LPSA5    1        ECLIPA   H113R    HAL2     0.900000E-01   1.00800           0
      4732 LPSA5    1        ECLIPA   H113S    HAL2     0.900000E-01   1.00800           0
      4733 LPSA5    1        ECLIPA   C114     CTL3    -0.270000       12.0110           0
      4734 LPSA5    1        ECLIPA   H114R    HAL3     0.900000E-01   1.00800           0
      4735 LPSA5    1        ECLIPA   H114S    HAL3     0.900000E-01   1.00800           0
      4736 LPSA5    1        ECLIPA   H114T    HAL3     0.900000E-01   1.00800           0
      4737 LPSA5    2        AKDO     C1       CC2O2    0.300000       12.0110           0
      4738 LPSA5    2        AKDO     O11      OC2D2   -0.600000       15.9994           0
      4739 LPSA5    2        AKDO     O12      OC2D2   -0.600000       15.9994           0
      4740 LPSA5    2        AKDO     C2       CC3062   0.280000       12.0110           0
      4741 LPSA5    2        AKDO     C6       CC3163   0.110000       12.0110           0
      4742 LPSA5    2        AKDO     H6       HCA1     0.900000E-01   1.00800           0
      4743 LPSA5    2        AKDO     O6       OC3C61  -0.400000       15.9994           0
      4744 LPSA5    2        AKDO     C3       CC3261  -0.180000       12.0110           0
      4745 LPSA5    2        AKDO     H31      HCA2     0.900000E-01   1.00800           0
      4746 LPSA5    2        AKDO     H32      HCA2     0.900000E-01   1.00800           0
      4747 LPSA5    2        AKDO     C4       CC3161   0.900000E-01   12.0110           0
      4748 LPSA5    2        AKDO     H4       HCA1     0.900000E-01   1.00800           0
      4749 LPSA5    2        AKDO     O4       OC301   -0.360000       15.9994           0
      4750 LPSA5    2        AKDO     C5       CC3161   0.900000E-01   12.0110           0
      4751 LPSA5    2        AKDO     H5       HCA1     0.900000E-01   1.00800           0
      4752 LPSA5    2        AKDO     O5       OC301   -0.360000       15.9994           0
      4753 LPSA5    2        AKDO     C7       CC312    0.140000       12.0110           0
      4754 LPSA5    2        AKDO     H7       HCA1     0.900000E-01   1.00800           0
      4755 LPSA5    2        AKDO     O7       OC311   -0.650000       15.9994           0
      4756 LPSA5    2        AKDO     HO7      HCP1     0.420000       1.00800           0
      4757 LPSA5    2        AKDO     C8       CC322    0.500000E-01   12.0110           0
      4758 LPSA5    2        AKDO     H81      HCA2     0.900000E-01   1.00800           0
      4759 LPSA5    2        AKDO     H82      HCA2     0.900000E-01   1.00800           0
      4760 LPSA5    2        AKDO     O8       OC311   -0.650000       15.9994           0
      4761 LPSA5    2        AKDO     HO8      HCP1     0.420000       1.00800           0
      4762 LPSA5    3        AKDO     C1       CC2O2    0.300000       12.0110           0
      4763 LPSA5    3        AKDO     O11      OC2D2   -0.600000       15.9994           0
      4764 LPSA5    3        AKDO     O12      OC2D2   -0.600000       15.9994           0
      4765 LPSA5    3        AKDO     C2       CC3062   0.280000       12.0110           0
      4766 LPSA5    3        AKDO     C6       CC3163   0.110000       12.0110           0
      4767 LPSA5    3        AKDO     H6       HCA1     0.900000E-01   1.00800           0
      4768 LPSA5    3        AKDO     O6       OC3C61  -0.400000       15.9994           0
      4769 LPSA5    3        AKDO     C3       CC3261  -0.180000       12.0110           0
      4770 LPSA5    3        AKDO     H31      HCA2     0.900000E-01   1.00800           0
      4771 LPSA5    3        AKDO     H32      HCA2     0.900000E-01   1.00800           0
      4772 LPSA5    3        AKDO     C4       CC3161   0.140000       12.0110           0
      4773 LPSA5    3        AKDO     H4       HCA1     0.900000E-01   1.00800           0
      4774 LPSA5    3        AKDO     O4       OC311   -0.650000       15.9994           0
      4775 LPSA5    3        AKDO     HO4      HCP1     0.420000       1.00800           0
      4776 LPSA5    3        AKDO     C5       CC3161   0.140000       12.0110           0
      4777 LPSA5    3        AKDO     H5       HCA1     0.900000E-01   1.00800           0
      4778 LPSA5    3        AKDO     O5       OC311   -0.650000       15.9994           0
      4779 LPSA5    3        AKDO     HO5      HCP1     0.420000       1.00800           0
      4780 LPSA5    3        AKDO     C7       CC312    0.140000       12.0110           0
      4781 LPSA5    3        AKDO     H7       HCA1     0.900000E-01   1.00800           0
      4782 LPSA5    3        AKDO     O7       OC311   -0.650000       15.9994           0
      4783 LPSA5    3        AKDO     HO7      HCP1     0.420000       1.00800           0
      4784 LPSA5    3        AKDO     C8       CC322    0.500000E-01   12.0110           0
      4785 LPSA5    3        AKDO     H81      HCA2     0.900000E-01   1.00800           0
      4786 LPSA5    3        AKDO     H82      HCA2     0.900000E-01   1.00800           0
      4787 LPSA5    3        AKDO     O8       OC311   -0.650000       15.9994           0
      4788 LPSA5    3        AKDO     HO8      HCP1     0.420000       1.00800           0
      4789 LPSA5    4        AHEP     C1       CC3162   0.290000       12.0110           0
      4790 LPSA5    4        AHEP     H1       HCA1     0.900000E-01   1.00800           0
      4791 LPSA5    4        AHEP     C5       CC3163   0.110000       12.0110           0
      4792 LPSA5    4        AHEP     H5       HCA1     0.900000E-01   1.00800           0
      4793 LPSA5    4        AHEP     O5       OC3C61  -0.400000       15.9994           0
      4794 LPSA5    4        AHEP     C2       CC3161   0.140000       12.0110           0
      4795 LPSA5    4        AHEP     H2       HCA1     0.900000E-01   1.00800           0
      4796 LPSA5    4        AHEP     O2       OC311   -0.650000       15.9994           0
      4797 LPSA5    4        AHEP     HO2      HCP1     0.420000       1.00800           0
      4798 LPSA5    4        AHEP     C3       CC3161   0.900000E-01   12.0110           0
      4799 LPSA5    4        AHEP     H3       HCA1     0.900000E-01   1.00800           0
      4800 LPSA5    4        AHEP     O3       OC301   -0.360000       15.9994           0
      4801 LPSA5    4        AHEP     C4       CC3161  -0.900000E-01   12.0110           0
      4802 LPSA5    4        AHEP     H4       HCA1     0.900000E-01   1.00800           0
      4803 LPSA5    4        AHEP     O4       OC30P   -0.400000       15.9994           0
      4804 LPSA5    4        AHEP     P4       PC        1.10000       30.9740           0
      4805 LPSA5    4        AHEP     OP42     OC2DP   -0.900000       15.9994           0
      4806 LPSA5    4        AHEP     OP43     OC2DP   -0.900000       15.9994           0
      4807 LPSA5    4        AHEP     OP44     OC2DP   -0.900000       15.9994           0
      4808 LPSA5    4        AHEP     C6       CC312    0.140000       12.0110           0
      4809 LPSA5    4        AHEP     H6       HCA1     0.900000E-01   1.00800           0
      4810 LPSA5    4        AHEP     O6       OC311   -0.650000       15.9994           0
      4811 LPSA5    4        AHEP     HO6      HCP1     0.420000       1.00800           0
      4812 LPSA5    4        AHEP     C7       CC322    0.500000E-01   12.0110           0
      4813 LPSA5    4        AHEP     H71      HCA2     0.900000E-01   1.00800           0
      4814 LPSA5    4        AHEP     H72      HCA2     0.900000E-01   1.00800           0
      4815 LPSA5    4        AHEP     O7       OC311   -0.650000       15.9994           0
      4816 LPSA5    4        AHEP     HO7      HCP1     0.420000       1.00800           0
      4817 LPSA5    5        AHEP     C1       CC3162   0.290000       12.0110           0
      4818 LPSA5    5        AHEP     H1       HCA1     0.900000E-01   1.00800           0
      4819 LPSA5    5        AHEP     C5       CC3163   0.110000       12.0110           0
      4820 LPSA5    5        AHEP     H5       HCA1     0.900000E-01   1.00800           0
      4821 LPSA5    5        AHEP     O5       OC3C61  -0.400000       15.9994           0
      4822 LPSA5    5        AHEP     C2       CC3161   0.140000       12.0110           0
      4823 LPSA5    5        AHEP     H2       HCA1     0.900000E-01   1.00800           0
      4824 LPSA5    5        AHEP     O2       OC311   -0.650000       15.9994           0
      4825 LPSA5    5        AHEP     HO2      HCP1     0.420000       1.00800           0
      4826 LPSA5    5        AHEP     C3       CC3161   0.900000E-01   12.0110           0
      4827 LPSA5    5        AHEP     H3       HCA1     0.900000E-01   1.00800           0
      4828 LPSA5    5        AHEP     O3       OC301   -0.360000       15.9994           0
      4829 LPSA5    5        AHEP     C4       CC3161  -0.900000E-01   12.0110           0
      4830 LPSA5    5        AHEP     H4       HCA1     0.900000E-01   1.00800           0
      4831 LPSA5    5        AHEP     O4       OC30P   -0.400000       15.9994           0
      4832 LPSA5    5        AHEP     P4       PC        1.10000       30.9740           0
      4833 LPSA5    5        AHEP     OP42     OC2DP   -0.900000       15.9994           0
      4834 LPSA5    5        AHEP     OP43     OC2DP   -0.900000       15.9994           0
      4835 LPSA5    5        AHEP     OP44     OC2DP   -0.900000       15.9994           0
      4836 LPSA5    5        AHEP     C6       CC312    0.140000       12.0110           0
      4837 LPSA5    5        AHEP     H6       HCA1     0.900000E-01   1.00800           0
      4838 LPSA5    5        AHEP     O6       OC311   -0.650000       15.9994           0
      4839 LPSA5    5        AHEP     HO6      HCP1     0.420000       1.00800           0
      4840 LPSA5    5        AHEP     C7       CC322     0.00000       12.0110           0
      4841 LPSA5    5        AHEP     H71      HCA2     0.900000E-01   1.00800           0
      4842 LPSA5    5        AHEP     H72      HCA2     0.900000E-01   1.00800           0
      4843 LPSA5    5        AHEP     O7       OC301   -0.360000       15.9994           0
      4844 LPSA5    6        AHEP     C1       CC3162   0.290000       12.0110           0
      4845 LPSA5    6        AHEP     H1       HCA1     0.900000E-01   1.00800           0
      4846 LPSA5    6        AHEP     C5       CC3163   0.110000       12.0110           0
      4847 LPSA5    6        AHEP     H5       HCA1     0.900000E-01   1.00800           0
      4848 LPSA5    6        AHEP     O5       OC3C61  -0.400000       15.9994           0
      4849 LPSA5    6        AHEP     C2       CC3161   0.140000       12.0110           0
      4850 LPSA5    6        AHEP     H2       HCA1     0.900000E-01   1.00800           0
      4851 LPSA5    6        AHEP     O2       OC311   -0.650000       15.9994           0
      4852 LPSA5    6        AHEP     HO2      HCP1     0.420000       1.00800           0
      4853 LPSA5    6        AHEP     C3       CC3161   0.140000       12.0110           0
      4854 LPSA5    6        AHEP     H3       HCA1     0.900000E-01   1.00800           0
      4855 LPSA5    6        AHEP     O3       OC311   -0.650000       15.9994           0
      4856 LPSA5    6        AHEP     HO3      HCP1     0.420000       1.00800           0
      4857 LPSA5    6        AHEP     C4       CC3161   0.140000       12.0110           0
      4858 LPSA5    6        AHEP     H4       HCA1     0.900000E-01   1.00800           0
      4859 LPSA5    6        AHEP     O4       OC311   -0.650000       15.9994           0
      4860 LPSA5    6        AHEP     HO4      HCP1     0.420000       1.00800           0
      4861 LPSA5    6        AHEP     C6       CC312    0.140000       12.0110           0
      4862 LPSA5    6        AHEP     H6       HCA1     0.900000E-01   1.00800           0
      4863 LPSA5    6        AHEP     O6       OC311   -0.650000       15.9994           0
      4864 LPSA5    6        AHEP     HO6      HCP1     0.420000       1.00800           0
      4865 LPSA5    6        AHEP     C7       CC322    0.500000E-01   12.0110           0
      4866 LPSA5    6        AHEP     H71      HCA2     0.900000E-01   1.00800           0
      4867 LPSA5    6        AHEP     H72      HCA2     0.900000E-01   1.00800           0
      4868 LPSA5    6        AHEP     O7       OC311   -0.650000       15.9994           0
      4869 LPSA5    6        AHEP     HO7      HCP1     0.420000       1.00800           0
      4870 LPSA5    7        AGLC     C1       CC3162   0.290000       12.0110           0
      4871 LPSA5    7        AGLC     H1       HCA1     0.900000E-01   1.00800           0
      4872 LPSA5    7        AGLC     C5       CC3163   0.110000       12.0110           0
      4873 LPSA5    7        AGLC     H5       HCA1     0.900000E-01   1.00800           0
      4874 LPSA5    7        AGLC     O5       OC3C61  -0.400000       15.9994           0
      4875 LPSA5    7        AGLC     C2       CC3161   0.140000       12.0110           0
      4876 LPSA5    7        AGLC     H2       HCA1     0.900000E-01   1.00800           0
      4877 LPSA5    7        AGLC     O2       OC311   -0.650000       15.9994           0
      4878 LPSA5    7        AGLC     HO2      HCP1     0.420000       1.00800           0
      4879 LPSA5    7        AGLC     C3       CC3161   0.900000E-01   12.0110           0
      4880 LPSA5    7        AGLC     H3       HCA1     0.900000E-01   1.00800           0
      4881 LPSA5    7        AGLC     O3       OC301   -0.360000       15.9994           0
      4882 LPSA5    7        AGLC     C4       CC3161   0.140000       12.0110           0
      4883 LPSA5    7        AGLC     H4       HCA1     0.900000E-01   1.00800           0
      4884 LPSA5    7        AGLC     O4       OC311   -0.650000       15.9994           0
      4885 LPSA5    7        AGLC     HO4      HCP1     0.420000       1.00800           0
      4886 LPSA5    7        AGLC     C6       CC321    0.500000E-01   12.0110           0
      4887 LPSA5    7        AGLC     H61      HCA2     0.900000E-01   1.00800           0
      4888 LPSA5    7        AGLC     H62      HCA2     0.900000E-01   1.00800           0
      4889 LPSA5    7        AGLC     O6       OC311   -0.650000       15.9994           0
      4890 LPSA5    7        AGLC     HO6      HCP1     0.420000       1.00800           0
      4891 LPSA5    8        AGLC     C1       CC3162   0.290000       12.0110           0
      4892 LPSA5    8        AGLC     H1       HCA1     0.900000E-01   1.00800           0
      4893 LPSA5    8        AGLC     C5       CC3163   0.110000       12.0110           0
      4894 LPSA5    8        AGLC     H5       HCA1     0.900000E-01   1.00800           0
      4895 LPSA5    8        AGLC     O5       OC3C61  -0.400000       15.9994           0
      4896 LPSA5    8        AGLC     C2       CC3161   0.900000E-01   12.0110           0
      4897 LPSA5    8        AGLC     H2       HCA1     0.900000E-01   1.00800           0
      4898 LPSA5    8        AGLC     O2       OC301   -0.360000       15.9994           0
      4899 LPSA5    8        AGLC     C3       CC3161   0.900000E-01   12.0110           0
      4900 LPSA5    8        AGLC     H3       HCA1     0.900000E-01   1.00800           0
      4901 LPSA5    8        AGLC     O3       OC301   -0.360000       15.9994           0
      4902 LPSA5    8        AGLC     C4       CC3161   0.140000       12.0110           0
      4903 LPSA5    8        AGLC     H4       HCA1     0.900000E-01   1.00800           0
      4904 LPSA5    8        AGLC     O4       OC311   -0.650000       15.9994           0
      4905 LPSA5    8        AGLC     HO4      HCP1     0.420000       1.00800           0
      4906 LPSA5    8        AGLC     C6       CC321    0.500000E-01   12.0110           0
      4907 LPSA5    8        AGLC     H61      HCA2     0.900000E-01   1.00800           0
      4908 LPSA5    8        AGLC     H62      HCA2     0.900000E-01   1.00800           0
      4909 LPSA5    8        AGLC     O6       OC311   -0.650000       15.9994           0
      4910 LPSA5    8        AGLC     HO6      HCP1     0.420000       1.00800           0
      4911 LPSA5    9        AGAL     C1       CC3162   0.290000       12.0110           0
      4912 LPSA5    9        AGAL     H1       HCA1     0.900000E-01   1.00800           0
      4913 LPSA5    9        AGAL     C5       CC3163   0.110000       12.0110           0
      4914 LPSA5    9        AGAL     H5       HCA1     0.900000E-01   1.00800           0
      4915 LPSA5    9        AGAL     O5       OC3C61  -0.400000       15.9994           0
      4916 LPSA5    9        AGAL     C2       CC3161   0.900000E-01   12.0110           0
      4917 LPSA5    9        AGAL     H2       HCA1     0.900000E-01   1.00800           0
      4918 LPSA5    9        AGAL     O2       OC301   -0.360000       15.9994           0
      4919 LPSA5    9        AGAL     C3       CC3161   0.140000       12.0110           0
      4920 LPSA5    9        AGAL     H3       HCA1     0.900000E-01   1.00800           0
      4921 LPSA5    9        AGAL     O3       OC311   -0.650000       15.9994           0
      4922 LPSA5    9        AGAL     HO3      HCP1     0.420000       1.00800           0
      4923 LPSA5    9        AGAL     C4       CC3161   0.140000       12.0110           0
      4924 LPSA5    9        AGAL     H4       HCA1     0.900000E-01   1.00800           0
      4925 LPSA5    9        AGAL     O4       OC311   -0.650000       15.9994           0
      4926 LPSA5    9        AGAL     HO4      HCP1     0.420000       1.00800           0
      4927 LPSA5    9        AGAL     C6       CC321    0.500000E-01   12.0110           0
      4928 LPSA5    9        AGAL     H61      HCA2     0.900000E-01   1.00800           0
      4929 LPSA5    9        AGAL     H62      HCA2     0.900000E-01   1.00800           0
      4930 LPSA5    9        AGAL     O6       OC311   -0.650000       15.9994           0
      4931 LPSA5    9        AGAL     HO6      HCP1     0.420000       1.00800           0
      4932 LPSA5    10       AGAL     C1       CC3162   0.290000       12.0110           0
      4933 LPSA5    10       AGAL     H1       HCA1     0.900000E-01   1.00800           0
      4934 LPSA5    10       AGAL     C5       CC3163   0.110000       12.0110           0
      4935 LPSA5    10       AGAL     H5       HCA1     0.900000E-01   1.00800           0
      4936 LPSA5    10       AGAL     O5       OC3C61  -0.400000       15.9994           0
      4937 LPSA5    10       AGAL     C2       CC3161   0.140000       12.0110           0
      4938 LPSA5    10       AGAL     H2       HCA1     0.900000E-01   1.00800           0
      4939 LPSA5    10       AGAL     O2       OC311   -0.650000       15.9994           0
      4940 LPSA5    10       AGAL     HO2      HCP1     0.420000       1.00800           0
      4941 LPSA5    10       AGAL     C3       CC3161   0.140000       12.0110           0
      4942 LPSA5    10       AGAL     H3       HCA1     0.900000E-01   1.00800           0
      4943 LPSA5    10       AGAL     O3       OC311   -0.650000       15.9994           0
      4944 LPSA5    10       AGAL     HO3      HCP1     0.420000       1.00800           0
      4945 LPSA5    10       AGAL     C4       CC3161   0.140000       12.0110           0
      4946 LPSA5    10       AGAL     H4       HCA1     0.900000E-01   1.00800           0
      4947 LPSA5    10       AGAL     O4       OC311   -0.650000       15.9994           0
      4948 LPSA5    10       AGAL     HO4      HCP1     0.420000       1.00800           0
      4949 LPSA5    10       AGAL     C6       CC321    0.500000E-01   12.0110           0
      4950 LPSA5    10       AGAL     H61      HCA2     0.900000E-01   1.00800           0
      4951 LPSA5    10       AGAL     H62      HCA2     0.900000E-01   1.00800           0
      4952 LPSA5    10       AGAL     O6       OC311   -0.650000       15.9994           0
      4953 LPSA5    10       AGAL     HO6      HCP1     0.420000       1.00800           0
      4954 LPSA5    11       BGLC     C1       CC3162   0.290000       12.0110           0
      4955 LPSA5    11       BGLC     H1       HCA1     0.900000E-01   1.00800           0
      4956 LPSA5    11       BGLC     C5       CC3163   0.110000       12.0110           0
      4957 LPSA5    11       BGLC     H5       HCA1     0.900000E-01   1.00800           0
      4958 LPSA5    11       BGLC     O5       OC3C61  -0.400000       15.9994           0
      4959 LPSA5    11       BGLC     C2       CC3161   0.140000       12.0110           0
      4960 LPSA5    11       BGLC     H2       HCA1     0.900000E-01   1.00800           0
      4961 LPSA5    11       BGLC     O2       OC311   -0.650000       15.9994           0
      4962 LPSA5    11       BGLC     HO2      HCP1     0.420000       1.00800           0
      4963 LPSA5    11       BGLC     C3       CC3161   0.900000E-01   12.0110           0
      4964 LPSA5    11       BGLC     H3       HCA1     0.900000E-01   1.00800           0
      4965 LPSA5    11       BGLC     O3       OC301   -0.360000       15.9994           0
      4966 LPSA5    11       BGLC     C4       CC3161   0.140000       12.0110           0
      4967 LPSA5    11       BGLC     H4       HCA1     0.900000E-01   1.00800           0
      4968 LPSA5    11       BGLC     O4       OC311   -0.650000       15.9994           0
      4969 LPSA5    11       BGLC     HO4      HCP1     0.420000       1.00800           0
      4970 LPSA5    11       BGLC     C6       CC321    0.500000E-01   12.0110           0
      4971 LPSA5    11       BGLC     H61      HCA2     0.900000E-01   1.00800           0
      4972 LPSA5    11       BGLC     H62      HCA2     0.900000E-01   1.00800           0
      4973 LPSA5    11       BGLC     O6       OC311   -0.650000       15.9994           0
      4974 LPSA5    11       BGLC     HO6      HCP1     0.420000       1.00800           0
      4975 LPSA5    12       BGLCNA   C1       CC3162   0.290000       12.0110           0
      4976 LPSA5    12       BGLCNA   H1       HCA1     0.900000E-01   1.00800           0
      4977 LPSA5    12       BGLCNA   C5       CC3163   0.110000       12.0110           0
      4978 LPSA5    12       BGLCNA   H5       HCA1     0.900000E-01   1.00800           0
      4979 LPSA5    12       BGLCNA   O5       OC3C61  -0.400000       15.9994           0
      4980 LPSA5    12       BGLCNA   C2       CC3161   0.700000E-01   12.0110           0
      4981 LPSA5    12       BGLCNA   H2       HCA1     0.900000E-01   1.00800           0
      4982 LPSA5    12       BGLCNA   N        NC2D1   -0.470000       14.0070           0
      4983 LPSA5    12       BGLCNA   HN       HCP1     0.310000       1.00800           0
      4984 LPSA5    12       BGLCNA   C        CC2O1    0.510000       12.0110           0
      4985 LPSA5    12       BGLCNA   O        OC2D1   -0.510000       15.9994           0
      4986 LPSA5    12       BGLCNA   CT       CC331   -0.270000       12.0110           0
      4987 LPSA5    12       BGLCNA   HT1      HCA3     0.900000E-01   1.00800           0
      4988 LPSA5    12       BGLCNA   HT2      HCA3     0.900000E-01   1.00800           0
      4989 LPSA5    12       BGLCNA   HT3      HCA3     0.900000E-01   1.00800           0
      4990 LPSA5    12       BGLCNA   C3       CC3161   0.900000E-01   12.0110           0
      4991 LPSA5    12       BGLCNA   H3       HCA1     0.900000E-01   1.00800           0
      4992 LPSA5    12       BGLCNA   O3       OC301   -0.360000       15.9994           0
      4993 LPSA5    12       BGLCNA   C4       CC3161   0.140000       12.0110           0
      4994 LPSA5    12       BGLCNA   H4       HCA1     0.900000E-01   1.00800           0
      4995 LPSA5    12       BGLCNA   O4       OC311   -0.650000       15.9994           0
      4996 LPSA5    12       BGLCNA   HO4      HCP1     0.420000       1.00800           0
      4997 LPSA5    12       BGLCNA   C6       CC321    0.500000E-01   12.0110           0
      4998 LPSA5    12       BGLCNA   H61      HCA2     0.900000E-01   1.00800           0
      4999 LPSA5    12       BGLCNA   H62      HCA2     0.900000E-01   1.00800           0
      5000 LPSA5    12       BGLCNA   O6       OC311   -0.650000       15.9994           0
      5001 LPSA5    12       BGLCNA   HO6      HCP1     0.420000       1.00800           0
      5002 LPSA5    13       AGAL     C1       CC3162   0.290000       12.0110           0
      5003 LPSA5    13       AGAL     H1       HCA1     0.900000E-01   1.00800           0
      5004 LPSA5    13       AGAL     C5       CC3163   0.110000       12.0110           0
      5005 LPSA5    13       AGAL     H5       HCA1     0.900000E-01   1.00800           0
      5006 LPSA5    13       AGAL     O5       OC3C61  -0.400000       15.9994           0
      5007 LPSA5    13       AGAL     C2       CC3161   0.900000E-01   12.0110           0
      5008 LPSA5    13       AGAL     H2       HCA1     0.900000E-01   1.00800           0
      5009 LPSA5    13       AGAL     O2       OC301   -0.360000       15.9994           0
      5010 LPSA5    13       AGAL     C3       CC3161   0.140000       12.0110           0
      5011 LPSA5    13       AGAL     H3       HCA1     0.900000E-01   1.00800           0
      5012 LPSA5    13       AGAL     O3       OC311   -0.650000       15.9994           0
      5013 LPSA5    13       AGAL     HO3      HCP1     0.420000       1.00800           0
      5014 LPSA5    13       AGAL     C4       CC3161   0.140000       12.0110           0
      5015 LPSA5    13       AGAL     H4       HCA1     0.900000E-01   1.00800           0
      5016 LPSA5    13       AGAL     O4       OC311   -0.650000       15.9994           0
      5017 LPSA5    13       AGAL     HO4      HCP1     0.420000       1.00800           0
      5018 LPSA5    13       AGAL     C6       CC321    0.500000E-01   12.0110           0
      5019 LPSA5    13       AGAL     H61      HCA2     0.900000E-01   1.00800           0
      5020 LPSA5    13       AGAL     H62      HCA2     0.900000E-01   1.00800           0
      5021 LPSA5    13       AGAL     O6       OC311   -0.650000       15.9994           0
      5022 LPSA5    13       AGAL     HO6      HCP1     0.420000       1.00800           0
      5023 LPSA5    14       ARHM     C1       CC3162   0.290000       12.0110           0
      5024 LPSA5    14       ARHM     H1       HCA1     0.900000E-01   1.00800           0
      5025 LPSA5    14       ARHM     C5       CC3163   0.110000       12.0110           0
      5026 LPSA5    14       ARHM     H5       HCA1     0.900000E-01   1.00800           0
      5027 LPSA5    14       ARHM     O5       OC3C61  -0.400000       15.9994           0
      5028 LPSA5    14       ARHM     C2       CC3161   0.900000E-01   12.0110           0
      5029 LPSA5    14       ARHM     H2       HCA1     0.900000E-01   1.00800           0
      5030 LPSA5    14       ARHM     O2       OC301   -0.360000       15.9994           0
      5031 LPSA5    14       ARHM     C3       CC3161   0.140000       12.0110           0
      5032 LPSA5    14       ARHM     H3       HCA1     0.900000E-01   1.00800           0
      5033 LPSA5    14       ARHM     O3       OC311   -0.650000       15.9994           0
      5034 LPSA5    14       ARHM     HO3      HCP1     0.420000       1.00800           0
      5035 LPSA5    14       ARHM     C4       CC3161   0.140000       12.0110           0
      5036 LPSA5    14       ARHM     H4       HCA1     0.900000E-01   1.00800           0
      5037 LPSA5    14       ARHM     O4       OC311   -0.650000       15.9994           0
      5038 LPSA5    14       ARHM     HO4      HCP1     0.420000       1.00800           0
      5039 LPSA5    14       ARHM     C6       CC331   -0.270000       12.0110           0
      5040 LPSA5    14       ARHM     H61      HCA3     0.900000E-01   1.00800           0
      5041 LPSA5    14       ARHM     H62      HCA3     0.900000E-01   1.00800           0
      5042 LPSA5    14       ARHM     H63      HCA3     0.900000E-01   1.00800           0
      5043 LPSA5    15       ARHM     C1       CC3162   0.290000       12.0110           0
      5044 LPSA5    15       ARHM     H1       HCA1     0.900000E-01   1.00800           0
      5045 LPSA5    15       ARHM     C5       CC3163   0.110000       12.0110           0
      5046 LPSA5    15       ARHM     H5       HCA1     0.900000E-01   1.00800           0
      5047 LPSA5    15       ARHM     O5       OC3C61  -0.400000       15.9994           0
      5048 LPSA5    15       ARHM     C2       CC3161   0.900000E-01   12.0110           0
      5049 LPSA5    15       ARHM     H2       HCA1     0.900000E-01   1.00800           0
      5050 LPSA5    15       ARHM     O2       OC301   -0.360000       15.9994           0
      5051 LPSA5    15       ARHM     C3       CC3161   0.900000E-01   12.0110           0
      5052 LPSA5    15       ARHM     H3       HCA1     0.900000E-01   1.00800           0
      5053 LPSA5    15       ARHM     O3       OC301   -0.360000       15.9994           0
      5054 LPSA5    15       ARHM     C4       CC3161   0.140000       12.0110           0
      5055 LPSA5    15       ARHM     H4       HCA1     0.900000E-01   1.00800           0
      5056 LPSA5    15       ARHM     O4       OC311   -0.650000       15.9994           0
      5057 LPSA5    15       ARHM     HO4      HCP1     0.420000       1.00800           0
      5058 LPSA5    15       ARHM     C6       CC331   -0.270000       12.0110           0
      5059 LPSA5    15       ARHM     H61      HCA3     0.900000E-01   1.00800           0
      5060 LPSA5    15       ARHM     H62      HCA3     0.900000E-01   1.00800           0
      5061 LPSA5    15       ARHM     H63      HCA3     0.900000E-01   1.00800           0
      5062 LPSA5    16       BMANNA   C1       CC3162   0.290000       12.0110           0
      5063 LPSA5    16       BMANNA   H1       HCA1     0.900000E-01   1.00800           0
      5064 LPSA5    16       BMANNA   C5       CC3163   0.110000       12.0110           0
      5065 LPSA5    16       BMANNA   H5       HCA1     0.900000E-01   1.00800           0
      5066 LPSA5    16       BMANNA   O5       OC3C61  -0.400000       15.9994           0
      5067 LPSA5    16       BMANNA   C2       CC3161   0.700000E-01   12.0110           0
      5068 LPSA5    16       BMANNA   H2       HCA1     0.900000E-01   1.00800           0
      5069 LPSA5    16       BMANNA   N        NC2D1   -0.470000       14.0070           0
      5070 LPSA5    16       BMANNA   HN       HCP1     0.310000       1.00800           0
      5071 LPSA5    16       BMANNA   C        CC2O1    0.510000       12.0110           0
      5072 LPSA5    16       BMANNA   O        OC2D1   -0.510000       15.9994           0
      5073 LPSA5    16       BMANNA   CT       CC331   -0.270000       12.0110           0
      5074 LPSA5    16       BMANNA   HT1      HCA3     0.900000E-01   1.00800           0
      5075 LPSA5    16       BMANNA   HT2      HCA3     0.900000E-01   1.00800           0
      5076 LPSA5    16       BMANNA   HT3      HCA3     0.900000E-01   1.00800           0
      5077 LPSA5    16       BMANNA   C3       CC3161   0.140000       12.0110           0
      5078 LPSA5    16       BMANNA   H3       HCA1     0.900000E-01   1.00800           0
      5079 LPSA5    16       BMANNA   O3       OC311   -0.650000       15.9994           0
      5080 LPSA5    16       BMANNA   HO3      HCP1     0.420000       1.00800           0
      5081 LPSA5    16       BMANNA   C4       CC3161   0.140000       12.0110           0
      5082 LPSA5    16       BMANNA   H4       HCA1     0.900000E-01   1.00800           0
      5083 LPSA5    16       BMANNA   O4       OC311   -0.650000       15.9994           0
      5084 LPSA5    16       BMANNA   HO4      HCP1     0.420000       1.00800           0
      5085 LPSA5    16       BMANNA   C6       CC321    0.500000E-01   12.0110           0
      5086 LPSA5    16       BMANNA   H61      HCA2     0.900000E-01   1.00800           0
      5087 LPSA5    16       BMANNA   H62      HCA2     0.900000E-01   1.00800           0
      5088 LPSA5    16       BMANNA   O6       OC311   -0.650000       15.9994           0
      5089 LPSA5    16       BMANNA   HO6      HCP1     0.420000       1.00800           0
      5090 LPSA5    17       BGLCNA   C1       CC3162   0.290000       12.0110           0
      5091 LPSA5    17       BGLCNA   H1       HCA1     0.900000E-01   1.00800           0
      5092 LPSA5    17       BGLCNA   C5       CC3163   0.110000       12.0110           0
      5093 LPSA5    17       BGLCNA   H5       HCA1     0.900000E-01   1.00800           0
      5094 LPSA5    17       BGLCNA   O5       OC3C61  -0.400000       15.9994           0
      5095 LPSA5    17       BGLCNA   C2       CC3161   0.700000E-01   12.0110           0
      5096 LPSA5    17       BGLCNA   H2       HCA1     0.900000E-01   1.00800           0
      5097 LPSA5    17       BGLCNA   N        NC2D1   -0.470000       14.0070           0
      5098 LPSA5    17       BGLCNA   HN       HCP1     0.310000       1.00800           0
      5099 LPSA5    17       BGLCNA   C        CC2O1    0.510000       12.0110           0
      5100 LPSA5    17       BGLCNA   O        OC2D1   -0.510000       15.9994           0
      5101 LPSA5    17       BGLCNA   CT       CC331   -0.270000       12.0110           0
      5102 LPSA5    17       BGLCNA   HT1      HCA3     0.900000E-01   1.00800           0
      5103 LPSA5    17       BGLCNA   HT2      HCA3     0.900000E-01   1.00800           0
      5104 LPSA5    17       BGLCNA   HT3      HCA3     0.900000E-01   1.00800           0
      5105 LPSA5    17       BGLCNA   C3       CC3161   0.900000E-01   12.0110           0
      5106 LPSA5    17       BGLCNA   H3       HCA1     0.900000E-01   1.00800           0
      5107 LPSA5    17       BGLCNA   O3       OC301   -0.360000       15.9994           0
      5108 LPSA5    17       BGLCNA   C4       CC3161   0.140000       12.0110           0
      5109 LPSA5    17       BGLCNA   H4       HCA1     0.900000E-01   1.00800           0
      5110 LPSA5    17       BGLCNA   O4       OC311   -0.650000       15.9994           0
      5111 LPSA5    17       BGLCNA   HO4      HCP1     0.420000       1.00800           0
      5112 LPSA5    17       BGLCNA   C6       CC321    0.500000E-01   12.0110           0
      5113 LPSA5    17       BGLCNA   H61      HCA2     0.900000E-01   1.00800           0
      5114 LPSA5    17       BGLCNA   H62      HCA2     0.900000E-01   1.00800           0
      5115 LPSA5    17       BGLCNA   O6       OC311   -0.650000       15.9994           0
      5116 LPSA5    17       BGLCNA   HO6      HCP1     0.420000       1.00800           0
      5117 LPSA5    18       AGAL     C1       CC3162   0.290000       12.0110           0
      5118 LPSA5    18       AGAL     H1       HCA1     0.900000E-01   1.00800           0
      5119 LPSA5    18       AGAL     C5       CC3163   0.110000       12.0110           0
      5120 LPSA5    18       AGAL     H5       HCA1     0.900000E-01   1.00800           0
      5121 LPSA5    18       AGAL     O5       OC3C61  -0.400000       15.9994           0
      5122 LPSA5    18       AGAL     C2       CC3161   0.900000E-01   12.0110           0
      5123 LPSA5    18       AGAL     H2       HCA1     0.900000E-01   1.00800           0
      5124 LPSA5    18       AGAL     O2       OC301   -0.360000       15.9994           0
      5125 LPSA5    18       AGAL     C3       CC3161   0.140000       12.0110           0
      5126 LPSA5    18       AGAL     H3       HCA1     0.900000E-01   1.00800           0
      5127 LPSA5    18       AGAL     O3       OC311   -0.650000       15.9994           0
      5128 LPSA5    18       AGAL     HO3      HCP1     0.420000       1.00800           0
      5129 LPSA5    18       AGAL     C4       CC3161   0.140000       12.0110           0
      5130 LPSA5    18       AGAL     H4       HCA1     0.900000E-01   1.00800           0
      5131 LPSA5    18       AGAL     O4       OC311   -0.650000       15.9994           0
      5132 LPSA5    18       AGAL     HO4      HCP1     0.420000       1.00800           0
      5133 LPSA5    18       AGAL     C6       CC321    0.500000E-01   12.0110           0
      5134 LPSA5    18       AGAL     H61      HCA2     0.900000E-01   1.00800           0
      5135 LPSA5    18       AGAL     H62      HCA2     0.900000E-01   1.00800           0
      5136 LPSA5    18       AGAL     O6       OC311   -0.650000       15.9994           0
      5137 LPSA5    18       AGAL     HO6      HCP1     0.420000       1.00800           0
      5138 LPSA5    19       ARHM     C1       CC3162   0.290000       12.0110           0
      5139 LPSA5    19       ARHM     H1       HCA1     0.900000E-01   1.00800           0
      5140 LPSA5    19       ARHM     C5       CC3163   0.110000       12.0110           0
      5141 LPSA5    19       ARHM     H5       HCA1     0.900000E-01   1.00800           0
      5142 LPSA5    19       ARHM     O5       OC3C61  -0.400000       15.9994           0
      5143 LPSA5    19       ARHM     C2       CC3161   0.900000E-01   12.0110           0
      5144 LPSA5    19       ARHM     H2       HCA1     0.900000E-01   1.00800           0
      5145 LPSA5    19       ARHM     O2       OC301   -0.360000       15.9994           0
      5146 LPSA5    19       ARHM     C3       CC3161   0.140000       12.0110           0
      5147 LPSA5    19       ARHM     H3       HCA1     0.900000E-01   1.00800           0
      5148 LPSA5    19       ARHM     O3       OC311   -0.650000       15.9994           0
      5149 LPSA5    19       ARHM     HO3      HCP1     0.420000       1.00800           0
      5150 LPSA5    19       ARHM     C4       CC3161   0.140000       12.0110           0
      5151 LPSA5    19       ARHM     H4       HCA1     0.900000E-01   1.00800           0
      5152 LPSA5    19       ARHM     O4       OC311   -0.650000       15.9994           0
      5153 LPSA5    19       ARHM     HO4      HCP1     0.420000       1.00800           0
      5154 LPSA5    19       ARHM     C6       CC331   -0.270000       12.0110           0
      5155 LPSA5    19       ARHM     H61      HCA3     0.900000E-01   1.00800           0
      5156 LPSA5    19       ARHM     H62      HCA3     0.900000E-01   1.00800           0
      5157 LPSA5    19       ARHM     H63      HCA3     0.900000E-01   1.00800           0
      5158 LPSA5    20       ARHM     C1       CC3162   0.290000       12.0110           0
      5159 LPSA5    20       ARHM     H1       HCA1     0.900000E-01   1.00800           0
      5160 LPSA5    20       ARHM     C5       CC3163   0.110000       12.0110           0
      5161 LPSA5    20       ARHM     H5       HCA1     0.900000E-01   1.00800           0
      5162 LPSA5    20       ARHM     O5       OC3C61  -0.400000       15.9994           0
      5163 LPSA5    20       ARHM     C2       CC3161   0.900000E-01   12.0110           0
      5164 LPSA5    20       ARHM     H2       HCA1     0.900000E-01   1.00800           0
      5165 LPSA5    20       ARHM     O2       OC301   -0.360000       15.9994           0
      5166 LPSA5    20       ARHM     C3       CC3161   0.900000E-01   12.0110           0
      5167 LPSA5    20       ARHM     H3       HCA1     0.900000E-01   1.00800           0
      5168 LPSA5    20       ARHM     O3       OC301   -0.360000       15.9994           0
      5169 LPSA5    20       ARHM     C4       CC3161   0.140000       12.0110           0
      5170 LPSA5    20       ARHM     H4       HCA1     0.900000E-01   1.00800           0
      5171 LPSA5    20       ARHM     O4       OC311   -0.650000       15.9994           0
      5172 LPSA5    20       ARHM     HO4      HCP1     0.420000       1.00800           0
      5173 LPSA5    20       ARHM     C6       CC331   -0.270000       12.0110           0
      5174 LPSA5    20       ARHM     H61      HCA3     0.900000E-01   1.00800           0
      5175 LPSA5    20       ARHM     H62      HCA3     0.900000E-01   1.00800           0
      5176 LPSA5    20       ARHM     H63      HCA3     0.900000E-01   1.00800           0
      5177 LPSA5    21       BMANNA   C1       CC3162   0.290000       12.0110           0
      5178 LPSA5    21       BMANNA   H1       HCA1     0.900000E-01   1.00800           0
      5179 LPSA5    21       BMANNA   C5       CC3163   0.110000       12.0110           0
      5180 LPSA5    21       BMANNA   H5       HCA1     0.900000E-01   1.00800           0
      5181 LPSA5    21       BMANNA   O5       OC3C61  -0.400000       15.9994           0
      5182 LPSA5    21       BMANNA   C2       CC3161   0.700000E-01   12.0110           0
      5183 LPSA5    21       BMANNA   H2       HCA1     0.900000E-01   1.00800           0
      5184 LPSA5    21       BMANNA   N        NC2D1   -0.470000       14.0070           0
      5185 LPSA5    21       BMANNA   HN       HCP1     0.310000       1.00800           0
      5186 LPSA5    21       BMANNA   C        CC2O1    0.510000       12.0110           0
      5187 LPSA5    21       BMANNA   O        OC2D1   -0.510000       15.9994           0
      5188 LPSA5    21       BMANNA   CT       CC331   -0.270000       12.0110           0
      5189 LPSA5    21       BMANNA   HT1      HCA3     0.900000E-01   1.00800           0
      5190 LPSA5    21       BMANNA   HT2      HCA3     0.900000E-01   1.00800           0
      5191 LPSA5    21       BMANNA   HT3      HCA3     0.900000E-01   1.00800           0
      5192 LPSA5    21       BMANNA   C3       CC3161   0.140000       12.0110           0
      5193 LPSA5    21       BMANNA   H3       HCA1     0.900000E-01   1.00800           0
      5194 LPSA5    21       BMANNA   O3       OC311   -0.650000       15.9994           0
      5195 LPSA5    21       BMANNA   HO3      HCP1     0.420000       1.00800           0
      5196 LPSA5    21       BMANNA   C4       CC3161   0.140000       12.0110           0
      5197 LPSA5    21       BMANNA   H4       HCA1     0.900000E-01   1.00800           0
      5198 LPSA5    21       BMANNA   O4       OC311   -0.650000       15.9994           0
      5199 LPSA5    21       BMANNA   HO4      HCP1     0.420000       1.00800           0
      5200 LPSA5    21       BMANNA   C6       CC321    0.500000E-01   12.0110           0
      5201 LPSA5    21       BMANNA   H61      HCA2     0.900000E-01   1.00800           0
      5202 LPSA5    21       BMANNA   H62      HCA2     0.900000E-01   1.00800           0
      5203 LPSA5    21       BMANNA   O6       OC311   -0.650000       15.9994           0
      5204 LPSA5    21       BMANNA   HO6      HCP1     0.420000       1.00800           0
      5205 LPSA5    22       BGLCNA   C1       CC3162   0.290000       12.0110           0
      5206 LPSA5    22       BGLCNA   H1       HCA1     0.900000E-01   1.00800           0
      5207 LPSA5    22       BGLCNA   C5       CC3163   0.110000       12.0110           0
      5208 LPSA5    22       BGLCNA   H5       HCA1     0.900000E-01   1.00800           0
      5209 LPSA5    22       BGLCNA   O5       OC3C61  -0.400000       15.9994           0
      5210 LPSA5    22       BGLCNA   C2       CC3161   0.700000E-01   12.0110           0
      5211 LPSA5    22       BGLCNA   H2       HCA1     0.900000E-01   1.00800           0
      5212 LPSA5    22       BGLCNA   N        NC2D1   -0.470000       14.0070           0
      5213 LPSA5    22       BGLCNA   HN       HCP1     0.310000       1.00800           0
      5214 LPSA5    22       BGLCNA   C        CC2O1    0.510000       12.0110           0
      5215 LPSA5    22       BGLCNA   O        OC2D1   -0.510000       15.9994           0
      5216 LPSA5    22       BGLCNA   CT       CC331   -0.270000       12.0110           0
      5217 LPSA5    22       BGLCNA   HT1      HCA3     0.900000E-01   1.00800           0
      5218 LPSA5    22       BGLCNA   HT2      HCA3     0.900000E-01   1.00800           0
      5219 LPSA5    22       BGLCNA   HT3      HCA3     0.900000E-01   1.00800           0
      5220 LPSA5    22       BGLCNA   C3       CC3161   0.900000E-01   12.0110           0
      5221 LPSA5    22       BGLCNA   H3       HCA1     0.900000E-01   1.00800           0
      5222 LPSA5    22       BGLCNA   O3       OC301   -0.360000       15.9994           0
      5223 LPSA5    22       BGLCNA   C4       CC3161   0.140000       12.0110           0
      5224 LPSA5    22       BGLCNA   H4       HCA1     0.900000E-01   1.00800           0
      5225 LPSA5    22       BGLCNA   O4       OC311   -0.650000       15.9994           0
      5226 LPSA5    22       BGLCNA   HO4      HCP1     0.420000       1.00800           0
      5227 LPSA5    22       BGLCNA   C6       CC321    0.500000E-01   12.0110           0
      5228 LPSA5    22       BGLCNA   H61      HCA2     0.900000E-01   1.00800           0
      5229 LPSA5    22       BGLCNA   H62      HCA2     0.900000E-01   1.00800           0
      5230 LPSA5    22       BGLCNA   O6       OC311   -0.650000       15.9994           0
      5231 LPSA5    22       BGLCNA   HO6      HCP1     0.420000       1.00800           0
      5232 LPSA5    23       AGAL     C1       CC3162   0.290000       12.0110           0
      5233 LPSA5    23       AGAL     H1       HCA1     0.900000E-01   1.00800           0
      5234 LPSA5    23       AGAL     C5       CC3163   0.110000       12.0110           0
      5235 LPSA5    23       AGAL     H5       HCA1     0.900000E-01   1.00800           0
      5236 LPSA5    23       AGAL     O5       OC3C61  -0.400000       15.9994           0
      5237 LPSA5    23       AGAL     C2       CC3161   0.900000E-01   12.0110           0
      5238 LPSA5    23       AGAL     H2       HCA1     0.900000E-01   1.00800           0
      5239 LPSA5    23       AGAL     O2       OC301   -0.360000       15.9994           0
      5240 LPSA5    23       AGAL     C3       CC3161   0.140000       12.0110           0
      5241 LPSA5    23       AGAL     H3       HCA1     0.900000E-01   1.00800           0
      5242 LPSA5    23       AGAL     O3       OC311   -0.650000       15.9994           0
      5243 LPSA5    23       AGAL     HO3      HCP1     0.420000       1.00800           0
      5244 LPSA5    23       AGAL     C4       CC3161   0.140000       12.0110           0
      5245 LPSA5    23       AGAL     H4       HCA1     0.900000E-01   1.00800           0
      5246 LPSA5    23       AGAL     O4       OC311   -0.650000       15.9994           0
      5247 LPSA5    23       AGAL     HO4      HCP1     0.420000       1.00800           0
      5248 LPSA5    23       AGAL     C6       CC321    0.500000E-01   12.0110           0
      5249 LPSA5    23       AGAL     H61      HCA2     0.900000E-01   1.00800           0
      5250 LPSA5    23       AGAL     H62      HCA2     0.900000E-01   1.00800           0
      5251 LPSA5    23       AGAL     O6       OC311   -0.650000       15.9994           0
      5252 LPSA5    23       AGAL     HO6      HCP1     0.420000       1.00800           0
      5253 LPSA5    24       ARHM     C1       CC3162   0.290000       12.0110           0
      5254 LPSA5    24       ARHM     H1       HCA1     0.900000E-01   1.00800           0
      5255 LPSA5    24       ARHM     C5       CC3163   0.110000       12.0110           0
      5256 LPSA5    24       ARHM     H5       HCA1     0.900000E-01   1.00800           0
      5257 LPSA5    24       ARHM     O5       OC3C61  -0.400000       15.9994           0
      5258 LPSA5    24       ARHM     C2       CC3161   0.900000E-01   12.0110           0
      5259 LPSA5    24       ARHM     H2       HCA1     0.900000E-01   1.00800           0
      5260 LPSA5    24       ARHM     O2       OC301   -0.360000       15.9994           0
      5261 LPSA5    24       ARHM     C3       CC3161   0.140000       12.0110           0
      5262 LPSA5    24       ARHM     H3       HCA1     0.900000E-01   1.00800           0
      5263 LPSA5    24       ARHM     O3       OC311   -0.650000       15.9994           0
      5264 LPSA5    24       ARHM     HO3      HCP1     0.420000       1.00800           0
      5265 LPSA5    24       ARHM     C4       CC3161   0.140000       12.0110           0
      5266 LPSA5    24       ARHM     H4       HCA1     0.900000E-01   1.00800           0
      5267 LPSA5    24       ARHM     O4       OC311   -0.650000       15.9994           0
      5268 LPSA5    24       ARHM     HO4      HCP1     0.420000       1.00800           0
      5269 LPSA5    24       ARHM     C6       CC331   -0.270000       12.0110           0
      5270 LPSA5    24       ARHM     H61      HCA3     0.900000E-01   1.00800           0
      5271 LPSA5    24       ARHM     H62      HCA3     0.900000E-01   1.00800           0
      5272 LPSA5    24       ARHM     H63      HCA3     0.900000E-01   1.00800           0
      5273 LPSA5    25       ARHM     C1       CC3162   0.290000       12.0110           0
      5274 LPSA5    25       ARHM     H1       HCA1     0.900000E-01   1.00800           0
      5275 LPSA5    25       ARHM     C5       CC3163   0.110000       12.0110           0
      5276 LPSA5    25       ARHM     H5       HCA1     0.900000E-01   1.00800           0
      5277 LPSA5    25       ARHM     O5       OC3C61  -0.400000       15.9994           0
      5278 LPSA5    25       ARHM     C2       CC3161   0.900000E-01   12.0110           0
      5279 LPSA5    25       ARHM     H2       HCA1     0.900000E-01   1.00800           0
      5280 LPSA5    25       ARHM     O2       OC301   -0.360000       15.9994           0
      5281 LPSA5    25       ARHM     C3       CC3161   0.900000E-01   12.0110           0
      5282 LPSA5    25       ARHM     H3       HCA1     0.900000E-01   1.00800           0
      5283 LPSA5    25       ARHM     O3       OC301   -0.360000       15.9994           0
      5284 LPSA5    25       ARHM     C4       CC3161   0.140000       12.0110           0
      5285 LPSA5    25       ARHM     H4       HCA1     0.900000E-01   1.00800           0
      5286 LPSA5    25       ARHM     O4       OC311   -0.650000       15.9994           0
      5287 LPSA5    25       ARHM     HO4      HCP1     0.420000       1.00800           0
      5288 LPSA5    25       ARHM     C6       CC331   -0.270000       12.0110           0
      5289 LPSA5    25       ARHM     H61      HCA3     0.900000E-01   1.00800           0
      5290 LPSA5    25       ARHM     H62      HCA3     0.900000E-01   1.00800           0
      5291 LPSA5    25       ARHM     H63      HCA3     0.900000E-01   1.00800           0
      5292 LPSA5    26       BMANNA   C1       CC3162   0.290000       12.0110           0
      5293 LPSA5    26       BMANNA   H1       HCA1     0.900000E-01   1.00800           0
      5294 LPSA5    26       BMANNA   C5       CC3163   0.110000       12.0110           0
      5295 LPSA5    26       BMANNA   H5       HCA1     0.900000E-01   1.00800           0
      5296 LPSA5    26       BMANNA   O5       OC3C61  -0.400000       15.9994           0
      5297 LPSA5    26       BMANNA   C2       CC3161   0.700000E-01   12.0110           0
      5298 LPSA5    26       BMANNA   H2       HCA1     0.900000E-01   1.00800           0
      5299 LPSA5    26       BMANNA   N        NC2D1   -0.470000       14.0070           0
      5300 LPSA5    26       BMANNA   HN       HCP1     0.310000       1.00800           0
      5301 LPSA5    26       BMANNA   C        CC2O1    0.510000       12.0110           0
      5302 LPSA5    26       BMANNA   O        OC2D1   -0.510000       15.9994           0
      5303 LPSA5    26       BMANNA   CT       CC331   -0.270000       12.0110           0
      5304 LPSA5    26       BMANNA   HT1      HCA3     0.900000E-01   1.00800           0
      5305 LPSA5    26       BMANNA   HT2      HCA3     0.900000E-01   1.00800           0
      5306 LPSA5    26       BMANNA   HT3      HCA3     0.900000E-01   1.00800           0
      5307 LPSA5    26       BMANNA   C3       CC3161   0.140000       12.0110           0
      5308 LPSA5    26       BMANNA   H3       HCA1     0.900000E-01   1.00800           0
      5309 LPSA5    26       BMANNA   O3       OC311   -0.650000       15.9994           0
      5310 LPSA5    26       BMANNA   HO3      HCP1     0.420000       1.00800           0
      5311 LPSA5    26       BMANNA   C4       CC3161   0.140000       12.0110           0
      5312 LPSA5    26       BMANNA   H4       HCA1     0.900000E-01   1.00800           0
      5313 LPSA5    26       BMANNA   O4       OC311   -0.650000       15.9994           0
      5314 LPSA5    26       BMANNA   HO4      HCP1     0.420000       1.00800           0
      5315 LPSA5    26       BMANNA   C6       CC321    0.500000E-01   12.0110           0
      5316 LPSA5    26       BMANNA   H61      HCA2     0.900000E-01   1.00800           0
      5317 LPSA5    26       BMANNA   H62      HCA2     0.900000E-01   1.00800           0
      5318 LPSA5    26       BMANNA   O6       OC311   -0.650000       15.9994           0
      5319 LPSA5    26       BMANNA   HO6      HCP1     0.420000       1.00800           0
      5320 LPSA5    27       BGLCNA   C1       CC3162   0.290000       12.0110           0
      5321 LPSA5    27       BGLCNA   H1       HCA1     0.900000E-01   1.00800           0
      5322 LPSA5    27       BGLCNA   C5       CC3163   0.110000       12.0110           0
      5323 LPSA5    27       BGLCNA   H5       HCA1     0.900000E-01   1.00800           0
      5324 LPSA5    27       BGLCNA   O5       OC3C61  -0.400000       15.9994           0
      5325 LPSA5    27       BGLCNA   C2       CC3161   0.700000E-01   12.0110           0
      5326 LPSA5    27       BGLCNA   H2       HCA1     0.900000E-01   1.00800           0
      5327 LPSA5    27       BGLCNA   N        NC2D1   -0.470000       14.0070           0
      5328 LPSA5    27       BGLCNA   HN       HCP1     0.310000       1.00800           0
      5329 LPSA5    27       BGLCNA   C        CC2O1    0.510000       12.0110           0
      5330 LPSA5    27       BGLCNA   O        OC2D1   -0.510000       15.9994           0
      5331 LPSA5    27       BGLCNA   CT       CC331   -0.270000       12.0110           0
      5332 LPSA5    27       BGLCNA   HT1      HCA3     0.900000E-01   1.00800           0
      5333 LPSA5    27       BGLCNA   HT2      HCA3     0.900000E-01   1.00800           0
      5334 LPSA5    27       BGLCNA   HT3      HCA3     0.900000E-01   1.00800           0
      5335 LPSA5    27       BGLCNA   C3       CC3161   0.900000E-01   12.0110           0
      5336 LPSA5    27       BGLCNA   H3       HCA1     0.900000E-01   1.00800           0
      5337 LPSA5    27       BGLCNA   O3       OC301   -0.360000       15.9994           0
      5338 LPSA5    27       BGLCNA   C4       CC3161   0.140000       12.0110           0
      5339 LPSA5    27       BGLCNA   H4       HCA1     0.900000E-01   1.00800           0
      5340 LPSA5    27       BGLCNA   O4       OC311   -0.650000       15.9994           0
      5341 LPSA5    27       BGLCNA   HO4      HCP1     0.420000       1.00800           0
      5342 LPSA5    27       BGLCNA   C6       CC321    0.500000E-01   12.0110           0
      5343 LPSA5    27       BGLCNA   H61      HCA2     0.900000E-01   1.00800           0
      5344 LPSA5    27       BGLCNA   H62      HCA2     0.900000E-01   1.00800           0
      5345 LPSA5    27       BGLCNA   O6       OC311   -0.650000       15.9994           0
      5346 LPSA5    27       BGLCNA   HO6      HCP1     0.420000       1.00800           0
      5347 LPSA5    28       AGAL     C1       CC3162   0.290000       12.0110           0
      5348 LPSA5    28       AGAL     H1       HCA1     0.900000E-01   1.00800           0
      5349 LPSA5    28       AGAL     C5       CC3163   0.110000       12.0110           0
      5350 LPSA5    28       AGAL     H5       HCA1     0.900000E-01   1.00800           0
      5351 LPSA5    28       AGAL     O5       OC3C61  -0.400000       15.9994           0
      5352 LPSA5    28       AGAL     C2       CC3161   0.900000E-01   12.0110           0
      5353 LPSA5    28       AGAL     H2       HCA1     0.900000E-01   1.00800           0
      5354 LPSA5    28       AGAL     O2       OC301   -0.360000       15.9994           0
      5355 LPSA5    28       AGAL     C3       CC3161   0.140000       12.0110           0
      5356 LPSA5    28       AGAL     H3       HCA1     0.900000E-01   1.00800           0
      5357 LPSA5    28       AGAL     O3       OC311   -0.650000       15.9994           0
      5358 LPSA5    28       AGAL     HO3      HCP1     0.420000       1.00800           0
      5359 LPSA5    28       AGAL     C4       CC3161   0.140000       12.0110           0
      5360 LPSA5    28       AGAL     H4       HCA1     0.900000E-01   1.00800           0
      5361 LPSA5    28       AGAL     O4       OC311   -0.650000       15.9994           0
      5362 LPSA5    28       AGAL     HO4      HCP1     0.420000       1.00800           0
      5363 LPSA5    28       AGAL     C6       CC321    0.500000E-01   12.0110           0
      5364 LPSA5    28       AGAL     H61      HCA2     0.900000E-01   1.00800           0
      5365 LPSA5    28       AGAL     H62      HCA2     0.900000E-01   1.00800           0
      5366 LPSA5    28       AGAL     O6       OC311   -0.650000       15.9994           0
      5367 LPSA5    28       AGAL     HO6      HCP1     0.420000       1.00800           0
      5368 LPSA5    29       ARHM     C1       CC3162   0.290000       12.0110           0
      5369 LPSA5    29       ARHM     H1       HCA1     0.900000E-01   1.00800           0
      5370 LPSA5    29       ARHM     C5       CC3163   0.110000       12.0110           0
      5371 LPSA5    29       ARHM     H5       HCA1     0.900000E-01   1.00800           0
      5372 LPSA5    29       ARHM     O5       OC3C61  -0.400000       15.9994           0
      5373 LPSA5    29       ARHM     C2       CC3161   0.900000E-01   12.0110           0
      5374 LPSA5    29       ARHM     H2       HCA1     0.900000E-01   1.00800           0
      5375 LPSA5    29       ARHM     O2       OC301   -0.360000       15.9994           0
      5376 LPSA5    29       ARHM     C3       CC3161   0.140000       12.0110           0
      5377 LPSA5    29       ARHM     H3       HCA1     0.900000E-01   1.00800           0
      5378 LPSA5    29       ARHM     O3       OC311   -0.650000       15.9994           0
      5379 LPSA5    29       ARHM     HO3      HCP1     0.420000       1.00800           0
      5380 LPSA5    29       ARHM     C4       CC3161   0.140000       12.0110           0
      5381 LPSA5    29       ARHM     H4       HCA1     0.900000E-01   1.00800           0
      5382 LPSA5    29       ARHM     O4       OC311   -0.650000       15.9994           0
      5383 LPSA5    29       ARHM     HO4      HCP1     0.420000       1.00800           0
      5384 LPSA5    29       ARHM     C6       CC331   -0.270000       12.0110           0
      5385 LPSA5    29       ARHM     H61      HCA3     0.900000E-01   1.00800           0
      5386 LPSA5    29       ARHM     H62      HCA3     0.900000E-01   1.00800           0
      5387 LPSA5    29       ARHM     H63      HCA3     0.900000E-01   1.00800           0
      5388 LPSA5    30       ARHM     C1       CC3162   0.290000       12.0110           0
      5389 LPSA5    30       ARHM     H1       HCA1     0.900000E-01   1.00800           0
      5390 LPSA5    30       ARHM     C5       CC3163   0.110000       12.0110           0
      5391 LPSA5    30       ARHM     H5       HCA1     0.900000E-01   1.00800           0
      5392 LPSA5    30       ARHM     O5       OC3C61  -0.400000       15.9994           0
      5393 LPSA5    30       ARHM     C2       CC3161   0.900000E-01   12.0110           0
      5394 LPSA5    30       ARHM     H2       HCA1     0.900000E-01   1.00800           0
      5395 LPSA5    30       ARHM     O2       OC301   -0.360000       15.9994           0
      5396 LPSA5    30       ARHM     C3       CC3161   0.900000E-01   12.0110           0
      5397 LPSA5    30       ARHM     H3       HCA1     0.900000E-01   1.00800           0
      5398 LPSA5    30       ARHM     O3       OC301   -0.360000       15.9994           0
      5399 LPSA5    30       ARHM     C4       CC3161   0.140000       12.0110           0
      5400 LPSA5    30       ARHM     H4       HCA1     0.900000E-01   1.00800           0
      5401 LPSA5    30       ARHM     O4       OC311   -0.650000       15.9994           0
      5402 LPSA5    30       ARHM     HO4      HCP1     0.420000       1.00800           0
      5403 LPSA5    30       ARHM     C6       CC331   -0.270000       12.0110           0
      5404 LPSA5    30       ARHM     H61      HCA3     0.900000E-01   1.00800           0
      5405 LPSA5    30       ARHM     H62      HCA3     0.900000E-01   1.00800           0
      5406 LPSA5    30       ARHM     H63      HCA3     0.900000E-01   1.00800           0
      5407 LPSA5    31       BMANNA   C1       CC3162   0.290000       12.0110           0
      5408 LPSA5    31       BMANNA   H1       HCA1     0.900000E-01   1.00800           0
      5409 LPSA5    31       BMANNA   C5       CC3163   0.110000       12.0110           0
      5410 LPSA5    31       BMANNA   H5       HCA1     0.900000E-01   1.00800           0
      5411 LPSA5    31       BMANNA   O5       OC3C61  -0.400000       15.9994           0
      5412 LPSA5    31       BMANNA   C2       CC3161   0.700000E-01   12.0110           0
      5413 LPSA5    31       BMANNA   H2       HCA1     0.900000E-01   1.00800           0
      5414 LPSA5    31       BMANNA   N        NC2D1   -0.470000       14.0070           0
      5415 LPSA5    31       BMANNA   HN       HCP1     0.310000       1.00800           0
      5416 LPSA5    31       BMANNA   C        CC2O1    0.510000       12.0110           0
      5417 LPSA5    31       BMANNA   O        OC2D1   -0.510000       15.9994           0
      5418 LPSA5    31       BMANNA   CT       CC331   -0.270000       12.0110           0
      5419 LPSA5    31       BMANNA   HT1      HCA3     0.900000E-01   1.00800           0
      5420 LPSA5    31       BMANNA   HT2      HCA3     0.900000E-01   1.00800           0
      5421 LPSA5    31       BMANNA   HT3      HCA3     0.900000E-01   1.00800           0
      5422 LPSA5    31       BMANNA   C3       CC3161   0.140000       12.0110           0
      5423 LPSA5    31       BMANNA   H3       HCA1     0.900000E-01   1.00800           0
      5424 LPSA5    31       BMANNA   O3       OC311   -0.650000       15.9994           0
      5425 LPSA5    31       BMANNA   HO3      HCP1     0.420000       1.00800           0
      5426 LPSA5    31       BMANNA   C4       CC3161   0.140000       12.0110           0
      5427 LPSA5    31       BMANNA   H4       HCA1     0.900000E-01   1.00800           0
      5428 LPSA5    31       BMANNA   O4       OC311   -0.650000       15.9994           0
      5429 LPSA5    31       BMANNA   HO4      HCP1     0.420000       1.00800           0
      5430 LPSA5    31       BMANNA   C6       CC321    0.500000E-01   12.0110           0
      5431 LPSA5    31       BMANNA   H61      HCA2     0.900000E-01   1.00800           0
      5432 LPSA5    31       BMANNA   H62      HCA2     0.900000E-01   1.00800           0
      5433 LPSA5    31       BMANNA   O6       OC311   -0.650000       15.9994           0
      5434 LPSA5    31       BMANNA   HO6      HCP1     0.420000       1.00800           0
      5435 LPSA5    32       BGLCNA   C1       CC3162   0.290000       12.0110           0
      5436 LPSA5    32       BGLCNA   H1       HCA1     0.900000E-01   1.00800           0
      5437 LPSA5    32       BGLCNA   C5       CC3163   0.110000       12.0110           0
      5438 LPSA5    32       BGLCNA   H5       HCA1     0.900000E-01   1.00800           0
      5439 LPSA5    32       BGLCNA   O5       OC3C61  -0.400000       15.9994           0
      5440 LPSA5    32       BGLCNA   C2       CC3161   0.700000E-01   12.0110           0
      5441 LPSA5    32       BGLCNA   H2       HCA1     0.900000E-01   1.00800           0
      5442 LPSA5    32       BGLCNA   N        NC2D1   -0.470000       14.0070           0
      5443 LPSA5    32       BGLCNA   HN       HCP1     0.310000       1.00800           0
      5444 LPSA5    32       BGLCNA   C        CC2O1    0.510000       12.0110           0
      5445 LPSA5    32       BGLCNA   O        OC2D1   -0.510000       15.9994           0
      5446 LPSA5    32       BGLCNA   CT       CC331   -0.270000       12.0110           0
      5447 LPSA5    32       BGLCNA   HT1      HCA3     0.900000E-01   1.00800           0
      5448 LPSA5    32       BGLCNA   HT2      HCA3     0.900000E-01   1.00800           0
      5449 LPSA5    32       BGLCNA   HT3      HCA3     0.900000E-01   1.00800           0
      5450 LPSA5    32       BGLCNA   C3       CC3161   0.900000E-01   12.0110           0
      5451 LPSA5    32       BGLCNA   H3       HCA1     0.900000E-01   1.00800           0
      5452 LPSA5    32       BGLCNA   O3       OC301   -0.360000       15.9994           0
      5453 LPSA5    32       BGLCNA   C4       CC3161   0.140000       12.0110           0
      5454 LPSA5    32       BGLCNA   H4       HCA1     0.900000E-01   1.00800           0
      5455 LPSA5    32       BGLCNA   O4       OC311   -0.650000       15.9994           0
      5456 LPSA5    32       BGLCNA   HO4      HCP1     0.420000       1.00800           0
      5457 LPSA5    32       BGLCNA   C6       CC321    0.500000E-01   12.0110           0
      5458 LPSA5    32       BGLCNA   H61      HCA2     0.900000E-01   1.00800           0
      5459 LPSA5    32       BGLCNA   H62      HCA2     0.900000E-01   1.00800           0
      5460 LPSA5    32       BGLCNA   O6       OC311   -0.650000       15.9994           0
      5461 LPSA5    32       BGLCNA   HO6      HCP1     0.420000       1.00800           0
      5462 LPSA5    33       AGAL     C1       CC3162   0.290000       12.0110           0
      5463 LPSA5    33       AGAL     H1       HCA1     0.900000E-01   1.00800           0
      5464 LPSA5    33       AGAL     C5       CC3163   0.110000       12.0110           0
      5465 LPSA5    33       AGAL     H5       HCA1     0.900000E-01   1.00800           0
      5466 LPSA5    33       AGAL     O5       OC3C61  -0.400000       15.9994           0
      5467 LPSA5    33       AGAL     C2       CC3161   0.900000E-01   12.0110           0
      5468 LPSA5    33       AGAL     H2       HCA1     0.900000E-01   1.00800           0
      5469 LPSA5    33       AGAL     O2       OC301   -0.360000       15.9994           0
      5470 LPSA5    33       AGAL     C3       CC3161   0.140000       12.0110           0
      5471 LPSA5    33       AGAL     H3       HCA1     0.900000E-01   1.00800           0
      5472 LPSA5    33       AGAL     O3       OC311   -0.650000       15.9994           0
      5473 LPSA5    33       AGAL     HO3      HCP1     0.420000       1.00800           0
      5474 LPSA5    33       AGAL     C4       CC3161   0.140000       12.0110           0
      5475 LPSA5    33       AGAL     H4       HCA1     0.900000E-01   1.00800           0
      5476 LPSA5    33       AGAL     O4       OC311   -0.650000       15.9994           0
      5477 LPSA5    33       AGAL     HO4      HCP1     0.420000       1.00800           0
      5478 LPSA5    33       AGAL     C6       CC321    0.500000E-01   12.0110           0
      5479 LPSA5    33       AGAL     H61      HCA2     0.900000E-01   1.00800           0
      5480 LPSA5    33       AGAL     H62      HCA2     0.900000E-01   1.00800           0
      5481 LPSA5    33       AGAL     O6       OC311   -0.650000       15.9994           0
      5482 LPSA5    33       AGAL     HO6      HCP1     0.420000       1.00800           0
      5483 LPSA5    34       ARHM     C1       CC3162   0.290000       12.0110           0
      5484 LPSA5    34       ARHM     H1       HCA1     0.900000E-01   1.00800           0
      5485 LPSA5    34       ARHM     C5       CC3163   0.110000       12.0110           0
      5486 LPSA5    34       ARHM     H5       HCA1     0.900000E-01   1.00800           0
      5487 LPSA5    34       ARHM     O5       OC3C61  -0.400000       15.9994           0
      5488 LPSA5    34       ARHM     C2       CC3161   0.900000E-01   12.0110           0
      5489 LPSA5    34       ARHM     H2       HCA1     0.900000E-01   1.00800           0
      5490 LPSA5    34       ARHM     O2       OC301   -0.360000       15.9994           0
      5491 LPSA5    34       ARHM     C3       CC3161   0.140000       12.0110           0
      5492 LPSA5    34       ARHM     H3       HCA1     0.900000E-01   1.00800           0
      5493 LPSA5    34       ARHM     O3       OC311   -0.650000       15.9994           0
      5494 LPSA5    34       ARHM     HO3      HCP1     0.420000       1.00800           0
      5495 LPSA5    34       ARHM     C4       CC3161   0.140000       12.0110           0
      5496 LPSA5    34       ARHM     H4       HCA1     0.900000E-01   1.00800           0
      5497 LPSA5    34       ARHM     O4       OC311   -0.650000       15.9994           0
      5498 LPSA5    34       ARHM     HO4      HCP1     0.420000       1.00800           0
      5499 LPSA5    34       ARHM     C6       CC331   -0.270000       12.0110           0
      5500 LPSA5    34       ARHM     H61      HCA3     0.900000E-01   1.00800           0
      5501 LPSA5    34       ARHM     H62      HCA3     0.900000E-01   1.00800           0
      5502 LPSA5    34       ARHM     H63      HCA3     0.900000E-01   1.00800           0
      5503 LPSA5    35       ARHM     C1       CC3162   0.290000       12.0110           0
      5504 LPSA5    35       ARHM     H1       HCA1     0.900000E-01   1.00800           0
      5505 LPSA5    35       ARHM     C5       CC3163   0.110000       12.0110           0
      5506 LPSA5    35       ARHM     H5       HCA1     0.900000E-01   1.00800           0
      5507 LPSA5    35       ARHM     O5       OC3C61  -0.400000       15.9994           0
      5508 LPSA5    35       ARHM     C2       CC3161   0.900000E-01   12.0110           0
      5509 LPSA5    35       ARHM     H2       HCA1     0.900000E-01   1.00800           0
      5510 LPSA5    35       ARHM     O2       OC301   -0.360000       15.9994           0
      5511 LPSA5    35       ARHM     C3       CC3161   0.140000       12.0110           0
      5512 LPSA5    35       ARHM     H3       HCA1     0.900000E-01   1.00800           0
      5513 LPSA5    35       ARHM     O3       OC311   -0.650000       15.9994           0
      5514 LPSA5    35       ARHM     HO3      HCP1     0.420000       1.00800           0
      5515 LPSA5    35       ARHM     C4       CC3161   0.140000       12.0110           0
      5516 LPSA5    35       ARHM     H4       HCA1     0.900000E-01   1.00800           0
      5517 LPSA5    35       ARHM     O4       OC311   -0.650000       15.9994           0
      5518 LPSA5    35       ARHM     HO4      HCP1     0.420000       1.00800           0
      5519 LPSA5    35       ARHM     C6       CC331   -0.270000       12.0110           0
      5520 LPSA5    35       ARHM     H61      HCA3     0.900000E-01   1.00800           0
      5521 LPSA5    35       ARHM     H62      HCA3     0.900000E-01   1.00800           0
      5522 LPSA5    35       ARHM     H63      HCA3     0.900000E-01   1.00800           0
      5523 LPSA5    36       BMANNA   C1       CC3162   0.290000       12.0110           0
      5524 LPSA5    36       BMANNA   H1       HCA1     0.900000E-01   1.00800           0
      5525 LPSA5    36       BMANNA   C5       CC3163   0.110000       12.0110           0
      5526 LPSA5    36       BMANNA   H5       HCA1     0.900000E-01   1.00800           0
      5527 LPSA5    36       BMANNA   O5       OC3C61  -0.400000       15.9994           0
      5528 LPSA5    36       BMANNA   C2       CC3161   0.700000E-01   12.0110           0
      5529 LPSA5    36       BMANNA   H2       HCA1     0.900000E-01   1.00800           0
      5530 LPSA5    36       BMANNA   N        NC2D1   -0.470000       14.0070           0
      5531 LPSA5    36       BMANNA   HN       HCP1     0.310000       1.00800           0
      5532 LPSA5    36       BMANNA   C        CC2O1    0.510000       12.0110           0
      5533 LPSA5    36       BMANNA   O        OC2D1   -0.510000       15.9994           0
      5534 LPSA5    36       BMANNA   CT       CC331   -0.270000       12.0110           0
      5535 LPSA5    36       BMANNA   HT1      HCA3     0.900000E-01   1.00800           0
      5536 LPSA5    36       BMANNA   HT2      HCA3     0.900000E-01   1.00800           0
      5537 LPSA5    36       BMANNA   HT3      HCA3     0.900000E-01   1.00800           0
      5538 LPSA5    36       BMANNA   C3       CC3161   0.140000       12.0110           0
      5539 LPSA5    36       BMANNA   H3       HCA1     0.900000E-01   1.00800           0
      5540 LPSA5    36       BMANNA   O3       OC311   -0.650000       15.9994           0
      5541 LPSA5    36       BMANNA   HO3      HCP1     0.420000       1.00800           0
      5542 LPSA5    36       BMANNA   C4       CC3161   0.140000       12.0110           0
      5543 LPSA5    36       BMANNA   H4       HCA1     0.900000E-01   1.00800           0
      5544 LPSA5    36       BMANNA   O4       OC311   -0.650000       15.9994           0
      5545 LPSA5    36       BMANNA   HO4      HCP1     0.420000       1.00800           0
      5546 LPSA5    36       BMANNA   C6       CC321    0.500000E-01   12.0110           0
      5547 LPSA5    36       BMANNA   H61      HCA2     0.900000E-01   1.00800           0
      5548 LPSA5    36       BMANNA   H62      HCA2     0.900000E-01   1.00800           0
      5549 LPSA5    36       BMANNA   O6       OC311   -0.650000       15.9994           0
      5550 LPSA5    36       BMANNA   HO6      HCP1     0.420000       1.00800           0
      5551 LPSA6    1        ECLIPA   HB6S     HCA2     0.900000E-01   1.00800           0
      5552 LPSA6    1        ECLIPA   OB6      OC301   -0.360000       15.9994           0
      5553 LPSA6    1        ECLIPA   CB6      CC321     0.00000       12.0110           0
      5554 LPSA6    1        ECLIPA   HB6R     HCA2     0.900000E-01   1.00800           0
      5555 LPSA6    1        ECLIPA   CB5      CC3163   0.110000       12.0110           0
      5556 LPSA6    1        ECLIPA   OB5      OC3C61  -0.400000       15.9994           0
      5557 LPSA6    1        ECLIPA   HB5      HCA1     0.900000E-01   1.00800           0
      5558 LPSA6    1        ECLIPA   CB1      CC3162   0.290000       12.0110           0
      5559 LPSA6    1        ECLIPA   HB1      HCA1     0.900000E-01   1.00800           0
      5560 LPSA6    1        ECLIPA   OA6      OC301   -0.360000       15.9994           0
      5561 LPSA6    1        ECLIPA   CA6      CC321     0.00000       12.0110           0
      5562 LPSA6    1        ECLIPA   HA6R     HCA2     0.900000E-01   1.00800           0
      5563 LPSA6    1        ECLIPA   HA6S     HCA2     0.900000E-01   1.00800           0
      5564 LPSA6    1        ECLIPA   CB4      CC3161  -0.900000E-01   12.0110           0
      5565 LPSA6    1        ECLIPA   HB4      HCA1     0.900000E-01   1.00800           0
      5566 LPSA6    1        ECLIPA   OB4      OC30P   -0.400000       15.9994           0
      5567 LPSA6    1        ECLIPA   PB       PC        1.10000       30.9740           0
      5568 LPSA6    1        ECLIPA   OPB4     OC2DP   -0.900000       15.9994           0
      5569 LPSA6    1        ECLIPA   OPB3     OC2DP   -0.900000       15.9994           0
      5570 LPSA6    1        ECLIPA   OPB2     OC2DP   -0.900000       15.9994           0
      5571 LPSA6    1        ECLIPA   CB3      CC3161   0.170000       12.0110           0
      5572 LPSA6    1        ECLIPA   OB3      OC301   -0.490000       15.9994           0
      5573 LPSA6    1        ECLIPA   HB3      HCA1     0.900000E-01   1.00800           0
      5574 LPSA6    1        ECLIPA   C71      CL       0.900000       12.0110           0
      5575 LPSA6    1        ECLIPA   O71      OBL     -0.630000       15.9994           0
      5576 LPSA6    1        ECLIPA   C72      CTL2    -0.220000       12.0110           0
      5577 LPSA6    1        ECLIPA   H72R     HAL2     0.900000E-01   1.00800           0
      5578 LPSA6    1        ECLIPA   H72S     HAL2     0.900000E-01   1.00800           0
      5579 LPSA6    1        ECLIPA   CB2      CC3161   0.700000E-01   12.0110           0
      5580 LPSA6    1        ECLIPA   HB2      HCA1     0.900000E-01   1.00800           0
      5581 LPSA6    1        ECLIPA   NB2      NC2D1   -0.470000       14.0070           0
      5582 LPSA6    1        ECLIPA   HNB2     HCP1     0.310000       1.00800           0
      5583 LPSA6    1        ECLIPA   CA4      CC3161   0.140000       12.0110           0
      5584 LPSA6    1        ECLIPA   HA4      HCA1     0.900000E-01   1.00800           0
      5585 LPSA6    1        ECLIPA   OA4      OC311   -0.650000       15.9994           0
      5586 LPSA6    1        ECLIPA   HOA4     HCP1     0.420000       1.00800           0
      5587 LPSA6    1        ECLIPA   CA5      CC3163   0.110000       12.0110           0
      5588 LPSA6    1        ECLIPA   HA5      HCA1     0.900000E-01   1.00800           0
      5589 LPSA6    1        ECLIPA   OA5      OC3C61  -0.400000       15.9994           0
      5590 LPSA6    1        ECLIPA   CA1      CC3162   0.110000       12.0110           0
      5591 LPSA6    1        ECLIPA   HA1      HCA1     0.900000E-01   1.00800           0
      5592 LPSA6    1        ECLIPA   OA1      OC30P   -0.400000       15.9994           0
      5593 LPSA6    1        ECLIPA   OPA2     OC2DP   -0.900000       15.9994           0
      5594 LPSA6    1        ECLIPA   OPA3     OC2DP   -0.900000       15.9994           0
      5595 LPSA6    1        ECLIPA   OPA4     OC2DP   -0.900000       15.9994           0
      5596 LPSA6    1        ECLIPA   PA       PC        1.10000       30.9740           0
      5597 LPSA6    1        ECLIPA   CA3      CC3161   0.170000       12.0110           0
      5598 LPSA6    1        ECLIPA   HA3      HCA1     0.900000E-01   1.00800           0
      5599 LPSA6    1        ECLIPA   OA3      OC301   -0.490000       15.9994           0
      5600 LPSA6    1        ECLIPA   C31      CL       0.900000       12.0110           0
      5601 LPSA6    1        ECLIPA   O31      OBL     -0.630000       15.9994           0
      5602 LPSA6    1        ECLIPA   C32      CTL2    -0.220000       12.0110           0
      5603 LPSA6    1        ECLIPA   H32R     HAL2     0.900000E-01   1.00800           0
      5604 LPSA6    1        ECLIPA   H32S     HAL2     0.900000E-01   1.00800           0
      5605 LPSA6    1        ECLIPA   CA2      CC3161   0.700000E-01   12.0110           0
      5606 LPSA6    1        ECLIPA   HA2      HCA1     0.900000E-01   1.00800           0
      5607 LPSA6    1        ECLIPA   NA2      NC2D1   -0.470000       14.0070           0
      5608 LPSA6    1        ECLIPA   HNA2     HCP1     0.310000       1.00800           0
      5609 LPSA6    1        ECLIPA   C73      CTL1     0.170000       12.0110           0
      5610 LPSA6    1        ECLIPA   H73R     HAL1     0.900000E-01   1.00800           0
      5611 LPSA6    1        ECLIPA   O73      OSL     -0.490000       15.9994           0
      5612 LPSA6    1        ECLIPA   C81      CL       0.900000       12.0110           0
      5613 LPSA6    1        ECLIPA   O81      OBL     -0.630000       15.9994           0
      5614 LPSA6    1        ECLIPA   C82      CTL2    -0.220000       12.0110           0
      5615 LPSA6    1        ECLIPA   H82R     HAL2     0.900000E-01   1.00800           0
      5616 LPSA6    1        ECLIPA   H82S     HAL2     0.900000E-01   1.00800           0
      5617 LPSA6    1        ECLIPA   C83      CTL2    -0.180000       12.0110           0
      5618 LPSA6    1        ECLIPA   H83R     HAL2     0.900000E-01   1.00800           0
      5619 LPSA6    1        ECLIPA   H83S     HAL2     0.900000E-01   1.00800           0
      5620 LPSA6    1        ECLIPA   C84      CTL2    -0.180000       12.0110           0
      5621 LPSA6    1        ECLIPA   H84R     HAL2     0.900000E-01   1.00800           0
      5622 LPSA6    1        ECLIPA   H84S     HAL2     0.900000E-01   1.00800           0
      5623 LPSA6    1        ECLIPA   C85      CTL2    -0.180000       12.0110           0
      5624 LPSA6    1        ECLIPA   H85R     HAL2     0.900000E-01   1.00800           0
      5625 LPSA6    1        ECLIPA   H85S     HAL2     0.900000E-01   1.00800           0
      5626 LPSA6    1        ECLIPA   C86      CTL2    -0.180000       12.0110           0
      5627 LPSA6    1        ECLIPA   H86R     HAL2     0.900000E-01   1.00800           0
      5628 LPSA6    1        ECLIPA   H86S     HAL2     0.900000E-01   1.00800           0
      5629 LPSA6    1        ECLIPA   C87      CTL2    -0.180000       12.0110           0
      5630 LPSA6    1        ECLIPA   H87R     HAL2     0.900000E-01   1.00800           0
      5631 LPSA6    1        ECLIPA   H87S     HAL2     0.900000E-01   1.00800           0
      5632 LPSA6    1        ECLIPA   C88      CTL2    -0.180000       12.0110           0
      5633 LPSA6    1        ECLIPA   H88R     HAL2     0.900000E-01   1.00800           0
      5634 LPSA6    1        ECLIPA   H88S     HAL2     0.900000E-01   1.00800           0
      5635 LPSA6    1        ECLIPA   C89      CTL2    -0.180000       12.0110           0
      5636 LPSA6    1        ECLIPA   H89R     HAL2     0.900000E-01   1.00800           0
      5637 LPSA6    1        ECLIPA   H89S     HAL2     0.900000E-01   1.00800           0
      5638 LPSA6    1        ECLIPA   C810     CTL2    -0.180000       12.0110           0
      5639 LPSA6    1        ECLIPA   H810R    HAL2     0.900000E-01   1.00800           0
      5640 LPSA6    1        ECLIPA   H810S    HAL2     0.900000E-01   1.00800           0
      5641 LPSA6    1        ECLIPA   C811     CTL2    -0.180000       12.0110           0
      5642 LPSA6    1        ECLIPA   H811R    HAL2     0.900000E-01   1.00800           0
      5643 LPSA6    1        ECLIPA   H811S    HAL2     0.900000E-01   1.00800           0
      5644 LPSA6    1        ECLIPA   C812     CTL2    -0.180000       12.0110           0
      5645 LPSA6    1        ECLIPA   H812R    HAL2     0.900000E-01   1.00800           0
      5646 LPSA6    1        ECLIPA   H812S    HAL2     0.900000E-01   1.00800           0
      5647 LPSA6    1        ECLIPA   C813     CTL2    -0.180000       12.0110           0
      5648 LPSA6    1        ECLIPA   H813R    HAL2     0.900000E-01   1.00800           0
      5649 LPSA6    1        ECLIPA   H813S    HAL2     0.900000E-01   1.00800           0
      5650 LPSA6    1        ECLIPA   C814     CTL3    -0.270000       12.0110           0
      5651 LPSA6    1        ECLIPA   H814R    HAL3     0.900000E-01   1.00800           0
      5652 LPSA6    1        ECLIPA   H814S    HAL3     0.900000E-01   1.00800           0
      5653 LPSA6    1        ECLIPA   H814T    HAL3     0.900000E-01   1.00800           0
      5654 LPSA6    1        ECLIPA   C74      CTL2    -0.180000       12.0110           0
      5655 LPSA6    1        ECLIPA   H74R     HAL2     0.900000E-01   1.00800           0
      5656 LPSA6    1        ECLIPA   H74S     HAL2     0.900000E-01   1.00800           0
      5657 LPSA6    1        ECLIPA   C75      CTL2    -0.180000       12.0110           0
      5658 LPSA6    1        ECLIPA   H75R     HAL2     0.900000E-01   1.00800           0
      5659 LPSA6    1        ECLIPA   H75S     HAL2     0.900000E-01   1.00800           0
      5660 LPSA6    1        ECLIPA   C76      CTL2    -0.180000       12.0110           0
      5661 LPSA6    1        ECLIPA   H76R     HAL2     0.900000E-01   1.00800           0
      5662 LPSA6    1        ECLIPA   H76S     HAL2     0.900000E-01   1.00800           0
      5663 LPSA6    1        ECLIPA   C77      CTL2    -0.180000       12.0110           0
      5664 LPSA6    1        ECLIPA   H77R     HAL2     0.900000E-01   1.00800           0
      5665 LPSA6    1        ECLIPA   H77S     HAL2     0.900000E-01   1.00800           0
      5666 LPSA6    1        ECLIPA   C78      CTL2    -0.180000       12.0110           0
      5667 LPSA6    1        ECLIPA   H78R     HAL2     0.900000E-01   1.00800           0
      5668 LPSA6    1        ECLIPA   H78S     HAL2     0.900000E-01   1.00800           0
      5669 LPSA6    1        ECLIPA   C79      CTL2    -0.180000       12.0110           0
      5670 LPSA6    1        ECLIPA   H79R     HAL2     0.900000E-01   1.00800           0
      5671 LPSA6    1        ECLIPA   H79S     HAL2     0.900000E-01   1.00800           0
      5672 LPSA6    1        ECLIPA   C710     CTL2    -0.180000       12.0110           0
      5673 LPSA6    1        ECLIPA   H710R    HAL2     0.900000E-01   1.00800           0
      5674 LPSA6    1        ECLIPA   H710S    HAL2     0.900000E-01   1.00800           0
      5675 LPSA6    1        ECLIPA   C711     CTL2    -0.180000       12.0110           0
      5676 LPSA6    1        ECLIPA   H711R    HAL2     0.900000E-01   1.00800           0
      5677 LPSA6    1        ECLIPA   H711S    HAL2     0.900000E-01   1.00800           0
      5678 LPSA6    1        ECLIPA   C712     CTL2    -0.180000       12.0110           0
      5679 LPSA6    1        ECLIPA   H712R    HAL2     0.900000E-01   1.00800           0
      5680 LPSA6    1        ECLIPA   H712S    HAL2     0.900000E-01   1.00800           0
      5681 LPSA6    1        ECLIPA   C713     CTL2    -0.180000       12.0110           0
      5682 LPSA6    1        ECLIPA   H713R    HAL2     0.900000E-01   1.00800           0
      5683 LPSA6    1        ECLIPA   H713S    HAL2     0.900000E-01   1.00800           0
      5684 LPSA6    1        ECLIPA   C714     CTL3    -0.270000       12.0110           0
      5685 LPSA6    1        ECLIPA   H714R    HAL3     0.900000E-01   1.00800           0
      5686 LPSA6    1        ECLIPA   H714S    HAL3     0.900000E-01   1.00800           0
      5687 LPSA6    1        ECLIPA   H714T    HAL3     0.900000E-01   1.00800           0
      5688 LPSA6    1        ECLIPA   C51      CC2O1    0.550000       12.0110           0
      5689 LPSA6    1        ECLIPA   O51      OC2D1   -0.550000       15.9994           0
      5690 LPSA6    1        ECLIPA   C52      CTL2    -0.180000       12.0110           0
      5691 LPSA6    1        ECLIPA   H52R     HAL2     0.900000E-01   1.00800           0
      5692 LPSA6    1        ECLIPA   H52S     HAL2     0.900000E-01   1.00800           0
      5693 LPSA6    1        ECLIPA   C53      CTL1     0.170000       12.0110           0
      5694 LPSA6    1        ECLIPA   H53R     HAL1     0.900000E-01   1.00800           0
      5695 LPSA6    1        ECLIPA   O53      OSL     -0.490000       15.9994           0
      5696 LPSA6    1        ECLIPA   C61      CL       0.900000       12.0110           0
      5697 LPSA6    1        ECLIPA   O61      OBL     -0.630000       15.9994           0
      5698 LPSA6    1        ECLIPA   C62      CTL2    -0.220000       12.0110           0
      5699 LPSA6    1        ECLIPA   H62R     HAL2     0.900000E-01   1.00800           0
      5700 LPSA6    1        ECLIPA   H62S     HAL2     0.900000E-01   1.00800           0
      5701 LPSA6    1        ECLIPA   C63      CTL2    -0.180000       12.0110           0
      5702 LPSA6    1        ECLIPA   H63R     HAL2     0.900000E-01   1.00800           0
      5703 LPSA6    1        ECLIPA   H63S     HAL2     0.900000E-01   1.00800           0
      5704 LPSA6    1        ECLIPA   C64      CTL2    -0.180000       12.0110           0
      5705 LPSA6    1        ECLIPA   H64R     HAL2     0.900000E-01   1.00800           0
      5706 LPSA6    1        ECLIPA   H64S     HAL2     0.900000E-01   1.00800           0
      5707 LPSA6    1        ECLIPA   C65      CTL2    -0.180000       12.0110           0
      5708 LPSA6    1        ECLIPA   H65R     HAL2     0.900000E-01   1.00800           0
      5709 LPSA6    1        ECLIPA   H65S     HAL2     0.900000E-01   1.00800           0
      5710 LPSA6    1        ECLIPA   C66      CTL2    -0.180000       12.0110           0
      5711 LPSA6    1        ECLIPA   H66R     HAL2     0.900000E-01   1.00800           0
      5712 LPSA6    1        ECLIPA   H66S     HAL2     0.900000E-01   1.00800           0
      5713 LPSA6    1        ECLIPA   C67      CTL2    -0.180000       12.0110           0
      5714 LPSA6    1        ECLIPA   H67R     HAL2     0.900000E-01   1.00800           0
      5715 LPSA6    1        ECLIPA   H67S     HAL2     0.900000E-01   1.00800           0
      5716 LPSA6    1        ECLIPA   C68      CTL2    -0.180000       12.0110           0
      5717 LPSA6    1        ECLIPA   H68R     HAL2     0.900000E-01   1.00800           0
      5718 LPSA6    1        ECLIPA   H68S     HAL2     0.900000E-01   1.00800           0
      5719 LPSA6    1        ECLIPA   C69      CTL2    -0.180000       12.0110           0
      5720 LPSA6    1        ECLIPA   H69R     HAL2     0.900000E-01   1.00800           0
      5721 LPSA6    1        ECLIPA   H69S     HAL2     0.900000E-01   1.00800           0
      5722 LPSA6    1        ECLIPA   C610     CTL2    -0.180000       12.0110           0
      5723 LPSA6    1        ECLIPA   H610R    HAL2     0.900000E-01   1.00800           0
      5724 LPSA6    1        ECLIPA   H610S    HAL2     0.900000E-01   1.00800           0
      5725 LPSA6    1        ECLIPA   C611     CTL2    -0.180000       12.0110           0
      5726 LPSA6    1        ECLIPA   H611R    HAL2     0.900000E-01   1.00800           0
      5727 LPSA6    1        ECLIPA   H611S    HAL2     0.900000E-01   1.00800           0
      5728 LPSA6    1        ECLIPA   C612     CTL3    -0.270000       12.0110           0
      5729 LPSA6    1        ECLIPA   H612R    HAL3     0.900000E-01   1.00800           0
      5730 LPSA6    1        ECLIPA   H612S    HAL3     0.900000E-01   1.00800           0
      5731 LPSA6    1        ECLIPA   H612T    HAL3     0.900000E-01   1.00800           0
      5732 LPSA6    1        ECLIPA   C54      CTL2    -0.180000       12.0110           0
      5733 LPSA6    1        ECLIPA   H54R     HAL2     0.900000E-01   1.00800           0
      5734 LPSA6    1        ECLIPA   H54S     HAL2     0.900000E-01   1.00800           0
      5735 LPSA6    1        ECLIPA   C55      CTL2    -0.180000       12.0110           0
      5736 LPSA6    1        ECLIPA   H55R     HAL2     0.900000E-01   1.00800           0
      5737 LPSA6    1        ECLIPA   H55S     HAL2     0.900000E-01   1.00800           0
      5738 LPSA6    1        ECLIPA   C56      CTL2    -0.180000       12.0110           0
      5739 LPSA6    1        ECLIPA   H56R     HAL2     0.900000E-01   1.00800           0
      5740 LPSA6    1        ECLIPA   H56S     HAL2     0.900000E-01   1.00800           0
      5741 LPSA6    1        ECLIPA   C57      CTL2    -0.180000       12.0110           0
      5742 LPSA6    1        ECLIPA   H57R     HAL2     0.900000E-01   1.00800           0
      5743 LPSA6    1        ECLIPA   H57S     HAL2     0.900000E-01   1.00800           0
      5744 LPSA6    1        ECLIPA   C58      CTL2    -0.180000       12.0110           0
      5745 LPSA6    1        ECLIPA   H58R     HAL2     0.900000E-01   1.00800           0
      5746 LPSA6    1        ECLIPA   H58S     HAL2     0.900000E-01   1.00800           0
      5747 LPSA6    1        ECLIPA   C59      CTL2    -0.180000       12.0110           0
      5748 LPSA6    1        ECLIPA   H59R     HAL2     0.900000E-01   1.00800           0
      5749 LPSA6    1        ECLIPA   H59S     HAL2     0.900000E-01   1.00800           0
      5750 LPSA6    1        ECLIPA   C510     CTL2    -0.180000       12.0110           0
      5751 LPSA6    1        ECLIPA   H510R    HAL2     0.900000E-01   1.00800           0
      5752 LPSA6    1        ECLIPA   H510S    HAL2     0.900000E-01   1.00800           0
      5753 LPSA6    1        ECLIPA   C511     CTL2    -0.180000       12.0110           0
      5754 LPSA6    1        ECLIPA   H511R    HAL2     0.900000E-01   1.00800           0
      5755 LPSA6    1        ECLIPA   H511S    HAL2     0.900000E-01   1.00800           0
      5756 LPSA6    1        ECLIPA   C512     CTL2    -0.180000       12.0110           0
      5757 LPSA6    1        ECLIPA   H512R    HAL2     0.900000E-01   1.00800           0
      5758 LPSA6    1        ECLIPA   H512S    HAL2     0.900000E-01   1.00800           0
      5759 LPSA6    1        ECLIPA   C513     CTL2    -0.180000       12.0110           0
      5760 LPSA6    1        ECLIPA   H513R    HAL2     0.900000E-01   1.00800           0
      5761 LPSA6    1        ECLIPA   H513S    HAL2     0.900000E-01   1.00800           0
      5762 LPSA6    1        ECLIPA   C514     CTL3    -0.270000       12.0110           0
      5763 LPSA6    1        ECLIPA   H514R    HAL3     0.900000E-01   1.00800           0
      5764 LPSA6    1        ECLIPA   H514S    HAL3     0.900000E-01   1.00800           0
      5765 LPSA6    1        ECLIPA   H514T    HAL3     0.900000E-01   1.00800           0
      5766 LPSA6    1        ECLIPA   C33      CTL1     0.140000       12.0110           0
      5767 LPSA6    1        ECLIPA   H33R     HAL1     0.900000E-01   1.00800           0
      5768 LPSA6    1        ECLIPA   O33      OH1     -0.660000       15.9994           0
      5769 LPSA6    1        ECLIPA   HO33     H        0.430000       1.00800           0
      5770 LPSA6    1        ECLIPA   C34      CTL2    -0.180000       12.0110           0
      5771 LPSA6    1        ECLIPA   H34R     HAL2     0.900000E-01   1.00800           0
      5772 LPSA6    1        ECLIPA   H34S     HAL2     0.900000E-01   1.00800           0
      5773 LPSA6    1        ECLIPA   C35      CTL2    -0.180000       12.0110           0
      5774 LPSA6    1        ECLIPA   H35R     HAL2     0.900000E-01   1.00800           0
      5775 LPSA6    1        ECLIPA   H35S     HAL2     0.900000E-01   1.00800           0
      5776 LPSA6    1        ECLIPA   C36      CTL2    -0.180000       12.0110           0
      5777 LPSA6    1        ECLIPA   H36R     HAL2     0.900000E-01   1.00800           0
      5778 LPSA6    1        ECLIPA   H36S     HAL2     0.900000E-01   1.00800           0
      5779 LPSA6    1        ECLIPA   C37      CTL2    -0.180000       12.0110           0
      5780 LPSA6    1        ECLIPA   H37R     HAL2     0.900000E-01   1.00800           0
      5781 LPSA6    1        ECLIPA   H37S     HAL2     0.900000E-01   1.00800           0
      5782 LPSA6    1        ECLIPA   C38      CTL2    -0.180000       12.0110           0
      5783 LPSA6    1        ECLIPA   H38R     HAL2     0.900000E-01   1.00800           0
      5784 LPSA6    1        ECLIPA   H38S     HAL2     0.900000E-01   1.00800           0
      5785 LPSA6    1        ECLIPA   C39      CTL2    -0.180000       12.0110           0
      5786 LPSA6    1        ECLIPA   H39R     HAL2     0.900000E-01   1.00800           0
      5787 LPSA6    1        ECLIPA   H39S     HAL2     0.900000E-01   1.00800           0
      5788 LPSA6    1        ECLIPA   C310     CTL2    -0.180000       12.0110           0
      5789 LPSA6    1        ECLIPA   H310R    HAL2     0.900000E-01   1.00800           0
      5790 LPSA6    1        ECLIPA   H310S    HAL2     0.900000E-01   1.00800           0
      5791 LPSA6    1        ECLIPA   C311     CTL2    -0.180000       12.0110           0
      5792 LPSA6    1        ECLIPA   H311R    HAL2     0.900000E-01   1.00800           0
      5793 LPSA6    1        ECLIPA   H311S    HAL2     0.900000E-01   1.00800           0
      5794 LPSA6    1        ECLIPA   C312     CTL2    -0.180000       12.0110           0
      5795 LPSA6    1        ECLIPA   H312R    HAL2     0.900000E-01   1.00800           0
      5796 LPSA6    1        ECLIPA   H312S    HAL2     0.900000E-01   1.00800           0
      5797 LPSA6    1        ECLIPA   C313     CTL2    -0.180000       12.0110           0
      5798 LPSA6    1        ECLIPA   H313R    HAL2     0.900000E-01   1.00800           0
      5799 LPSA6    1        ECLIPA   H313S    HAL2     0.900000E-01   1.00800           0
      5800 LPSA6    1        ECLIPA   C314     CTL3    -0.270000       12.0110           0
      5801 LPSA6    1        ECLIPA   H314R    HAL3     0.900000E-01   1.00800           0
      5802 LPSA6    1        ECLIPA   H314S    HAL3     0.900000E-01   1.00800           0
      5803 LPSA6    1        ECLIPA   H314T    HAL3     0.900000E-01   1.00800           0
      5804 LPSA6    1        ECLIPA   C11      CC2O1    0.550000       12.0110           0
      5805 LPSA6    1        ECLIPA   O11      OC2D1   -0.550000       15.9994           0
      5806 LPSA6    1        ECLIPA   C12      CTL2    -0.180000       12.0110           0
      5807 LPSA6    1        ECLIPA   H12R     HAL2     0.900000E-01   1.00800           0
      5808 LPSA6    1        ECLIPA   H12S     HAL2     0.900000E-01   1.00800           0
      5809 LPSA6    1        ECLIPA   C13      CTL1     0.140000       12.0110           0
      5810 LPSA6    1        ECLIPA   H13R     HAL1     0.900000E-01   1.00800           0
      5811 LPSA6    1        ECLIPA   O13      OH1     -0.660000       15.9994           0
      5812 LPSA6    1        ECLIPA   HO13     H        0.430000       1.00800           0
      5813 LPSA6    1        ECLIPA   C14      CTL2    -0.180000       12.0110           0
      5814 LPSA6    1        ECLIPA   H14R     HAL2     0.900000E-01   1.00800           0
      5815 LPSA6    1        ECLIPA   H14S     HAL2     0.900000E-01   1.00800           0
      5816 LPSA6    1        ECLIPA   C15      CTL2    -0.180000       12.0110           0
      5817 LPSA6    1        ECLIPA   H15R     HAL2     0.900000E-01   1.00800           0
      5818 LPSA6    1        ECLIPA   H15S     HAL2     0.900000E-01   1.00800           0
      5819 LPSA6    1        ECLIPA   C16      CTL2    -0.180000       12.0110           0
      5820 LPSA6    1        ECLIPA   H16R     HAL2     0.900000E-01   1.00800           0
      5821 LPSA6    1        ECLIPA   H16S     HAL2     0.900000E-01   1.00800           0
      5822 LPSA6    1        ECLIPA   C17      CTL2    -0.180000       12.0110           0
      5823 LPSA6    1        ECLIPA   H17R     HAL2     0.900000E-01   1.00800           0
      5824 LPSA6    1        ECLIPA   H17S     HAL2     0.900000E-01   1.00800           0
      5825 LPSA6    1        ECLIPA   C18      CTL2    -0.180000       12.0110           0
      5826 LPSA6    1        ECLIPA   H18R     HAL2     0.900000E-01   1.00800           0
      5827 LPSA6    1        ECLIPA   H18S     HAL2     0.900000E-01   1.00800           0
      5828 LPSA6    1        ECLIPA   C19      CTL2    -0.180000       12.0110           0
      5829 LPSA6    1        ECLIPA   H19R     HAL2     0.900000E-01   1.00800           0
      5830 LPSA6    1        ECLIPA   H19S     HAL2     0.900000E-01   1.00800           0
      5831 LPSA6    1        ECLIPA   C110     CTL2    -0.180000       12.0110           0
      5832 LPSA6    1        ECLIPA   H110R    HAL2     0.900000E-01   1.00800           0
      5833 LPSA6    1        ECLIPA   H110S    HAL2     0.900000E-01   1.00800           0
      5834 LPSA6    1        ECLIPA   C111     CTL2    -0.180000       12.0110           0
      5835 LPSA6    1        ECLIPA   H111R    HAL2     0.900000E-01   1.00800           0
      5836 LPSA6    1        ECLIPA   H111S    HAL2     0.900000E-01   1.00800           0
      5837 LPSA6    1        ECLIPA   C112     CTL2    -0.180000       12.0110           0
      5838 LPSA6    1        ECLIPA   H112R    HAL2     0.900000E-01   1.00800           0
      5839 LPSA6    1        ECLIPA   H112S    HAL2     0.900000E-01   1.00800           0
      5840 LPSA6    1        ECLIPA   C113     CTL2    -0.180000       12.0110           0
      5841 LPSA6    1        ECLIPA   H113R    HAL2     0.900000E-01   1.00800           0
      5842 LPSA6    1        ECLIPA   H113S    HAL2     0.900000E-01   1.00800           0
      5843 LPSA6    1        ECLIPA   C114     CTL3    -0.270000       12.0110           0
      5844 LPSA6    1        ECLIPA   H114R    HAL3     0.900000E-01   1.00800           0
      5845 LPSA6    1        ECLIPA   H114S    HAL3     0.900000E-01   1.00800           0
      5846 LPSA6    1        ECLIPA   H114T    HAL3     0.900000E-01   1.00800           0
      5847 LPSA6    2        AKDO     C1       CC2O2    0.300000       12.0110           0
      5848 LPSA6    2        AKDO     O11      OC2D2   -0.600000       15.9994           0
      5849 LPSA6    2        AKDO     O12      OC2D2   -0.600000       15.9994           0
      5850 LPSA6    2        AKDO     C2       CC3062   0.280000       12.0110           0
      5851 LPSA6    2        AKDO     C6       CC3163   0.110000       12.0110           0
      5852 LPSA6    2        AKDO     H6       HCA1     0.900000E-01   1.00800           0
      5853 LPSA6    2        AKDO     O6       OC3C61  -0.400000       15.9994           0
      5854 LPSA6    2        AKDO     C3       CC3261  -0.180000       12.0110           0
      5855 LPSA6    2        AKDO     H31      HCA2     0.900000E-01   1.00800           0
      5856 LPSA6    2        AKDO     H32      HCA2     0.900000E-01   1.00800           0
      5857 LPSA6    2        AKDO     C4       CC3161   0.900000E-01   12.0110           0
      5858 LPSA6    2        AKDO     H4       HCA1     0.900000E-01   1.00800           0
      5859 LPSA6    2        AKDO     O4       OC301   -0.360000       15.9994           0
      5860 LPSA6    2        AKDO     C5       CC3161   0.900000E-01   12.0110           0
      5861 LPSA6    2        AKDO     H5       HCA1     0.900000E-01   1.00800           0
      5862 LPSA6    2        AKDO     O5       OC301   -0.360000       15.9994           0
      5863 LPSA6    2        AKDO     C7       CC312    0.140000       12.0110           0
      5864 LPSA6    2        AKDO     H7       HCA1     0.900000E-01   1.00800           0
      5865 LPSA6    2        AKDO     O7       OC311   -0.650000       15.9994           0
      5866 LPSA6    2        AKDO     HO7      HCP1     0.420000       1.00800           0
      5867 LPSA6    2        AKDO     C8       CC322    0.500000E-01   12.0110           0
      5868 LPSA6    2        AKDO     H81      HCA2     0.900000E-01   1.00800           0
      5869 LPSA6    2        AKDO     H82      HCA2     0.900000E-01   1.00800           0
      5870 LPSA6    2        AKDO     O8       OC311   -0.650000       15.9994           0
      5871 LPSA6    2        AKDO     HO8      HCP1     0.420000       1.00800           0
      5872 LPSA6    3        AKDO     C1       CC2O2    0.300000       12.0110           0
      5873 LPSA6    3        AKDO     O11      OC2D2   -0.600000       15.9994           0
      5874 LPSA6    3        AKDO     O12      OC2D2   -0.600000       15.9994           0
      5875 LPSA6    3        AKDO     C2       CC3062   0.280000       12.0110           0
      5876 LPSA6    3        AKDO     C6       CC3163   0.110000       12.0110           0
      5877 LPSA6    3        AKDO     H6       HCA1     0.900000E-01   1.00800           0
      5878 LPSA6    3        AKDO     O6       OC3C61  -0.400000       15.9994           0
      5879 LPSA6    3        AKDO     C3       CC3261  -0.180000       12.0110           0
      5880 LPSA6    3        AKDO     H31      HCA2     0.900000E-01   1.00800           0
      5881 LPSA6    3        AKDO     H32      HCA2     0.900000E-01   1.00800           0
      5882 LPSA6    3        AKDO     C4       CC3161   0.140000       12.0110           0
      5883 LPSA6    3        AKDO     H4       HCA1     0.900000E-01   1.00800           0
      5884 LPSA6    3        AKDO     O4       OC311   -0.650000       15.9994           0
      5885 LPSA6    3        AKDO     HO4      HCP1     0.420000       1.00800           0
      5886 LPSA6    3        AKDO     C5       CC3161   0.140000       12.0110           0
      5887 LPSA6    3        AKDO     H5       HCA1     0.900000E-01   1.00800           0
      5888 LPSA6    3        AKDO     O5       OC311   -0.650000       15.9994           0
      5889 LPSA6    3        AKDO     HO5      HCP1     0.420000       1.00800           0
      5890 LPSA6    3        AKDO     C7       CC312    0.140000       12.0110           0
      5891 LPSA6    3        AKDO     H7       HCA1     0.900000E-01   1.00800           0
      5892 LPSA6    3        AKDO     O7       OC311   -0.650000       15.9994           0
      5893 LPSA6    3        AKDO     HO7      HCP1     0.420000       1.00800           0
      5894 LPSA6    3        AKDO     C8       CC322    0.500000E-01   12.0110           0
      5895 LPSA6    3        AKDO     H81      HCA2     0.900000E-01   1.00800           0
      5896 LPSA6    3        AKDO     H82      HCA2     0.900000E-01   1.00800           0
      5897 LPSA6    3        AKDO     O8       OC311   -0.650000       15.9994           0
      5898 LPSA6    3        AKDO     HO8      HCP1     0.420000       1.00800           0
      5899 LPSA6    4        AHEP     C1       CC3162   0.290000       12.0110           0
      5900 LPSA6    4        AHEP     H1       HCA1     0.900000E-01   1.00800           0
      5901 LPSA6    4        AHEP     C5       CC3163   0.110000       12.0110           0
      5902 LPSA6    4        AHEP     H5       HCA1     0.900000E-01   1.00800           0
      5903 LPSA6    4        AHEP     O5       OC3C61  -0.400000       15.9994           0
      5904 LPSA6    4        AHEP     C2       CC3161   0.140000       12.0110           0
      5905 LPSA6    4        AHEP     H2       HCA1     0.900000E-01   1.00800           0
      5906 LPSA6    4        AHEP     O2       OC311   -0.650000       15.9994           0
      5907 LPSA6    4        AHEP     HO2      HCP1     0.420000       1.00800           0
      5908 LPSA6    4        AHEP     C3       CC3161   0.900000E-01   12.0110           0
      5909 LPSA6    4        AHEP     H3       HCA1     0.900000E-01   1.00800           0
      5910 LPSA6    4        AHEP     O3       OC301   -0.360000       15.9994           0
      5911 LPSA6    4        AHEP     C4       CC3161  -0.900000E-01   12.0110           0
      5912 LPSA6    4        AHEP     H4       HCA1     0.900000E-01   1.00800           0
      5913 LPSA6    4        AHEP     O4       OC30P   -0.400000       15.9994           0
      5914 LPSA6    4        AHEP     P4       PC        1.10000       30.9740           0
      5915 LPSA6    4        AHEP     OP42     OC2DP   -0.900000       15.9994           0
      5916 LPSA6    4        AHEP     OP43     OC2DP   -0.900000       15.9994           0
      5917 LPSA6    4        AHEP     OP44     OC2DP   -0.900000       15.9994           0
      5918 LPSA6    4        AHEP     C6       CC312    0.140000       12.0110           0
      5919 LPSA6    4        AHEP     H6       HCA1     0.900000E-01   1.00800           0
      5920 LPSA6    4        AHEP     O6       OC311   -0.650000       15.9994           0
      5921 LPSA6    4        AHEP     HO6      HCP1     0.420000       1.00800           0
      5922 LPSA6    4        AHEP     C7       CC322    0.500000E-01   12.0110           0
      5923 LPSA6    4        AHEP     H71      HCA2     0.900000E-01   1.00800           0
      5924 LPSA6    4        AHEP     H72      HCA2     0.900000E-01   1.00800           0
      5925 LPSA6    4        AHEP     O7       OC311   -0.650000       15.9994           0
      5926 LPSA6    4        AHEP     HO7      HCP1     0.420000       1.00800           0
      5927 LPSA6    5        AHEP     C1       CC3162   0.290000       12.0110           0
      5928 LPSA6    5        AHEP     H1       HCA1     0.900000E-01   1.00800           0
      5929 LPSA6    5        AHEP     C5       CC3163   0.110000       12.0110           0
      5930 LPSA6    5        AHEP     H5       HCA1     0.900000E-01   1.00800           0
      5931 LPSA6    5        AHEP     O5       OC3C61  -0.400000       15.9994           0
      5932 LPSA6    5        AHEP     C2       CC3161   0.140000       12.0110           0
      5933 LPSA6    5        AHEP     H2       HCA1     0.900000E-01   1.00800           0
      5934 LPSA6    5        AHEP     O2       OC311   -0.650000       15.9994           0
      5935 LPSA6    5        AHEP     HO2      HCP1     0.420000       1.00800           0
      5936 LPSA6    5        AHEP     C3       CC3161   0.900000E-01   12.0110           0
      5937 LPSA6    5        AHEP     H3       HCA1     0.900000E-01   1.00800           0
      5938 LPSA6    5        AHEP     O3       OC301   -0.360000       15.9994           0
      5939 LPSA6    5        AHEP     C4       CC3161  -0.900000E-01   12.0110           0
      5940 LPSA6    5        AHEP     H4       HCA1     0.900000E-01   1.00800           0
      5941 LPSA6    5        AHEP     O4       OC30P   -0.400000       15.9994           0
      5942 LPSA6    5        AHEP     P4       PC        1.10000       30.9740           0
      5943 LPSA6    5        AHEP     OP42     OC2DP   -0.900000       15.9994           0
      5944 LPSA6    5        AHEP     OP43     OC2DP   -0.900000       15.9994           0
      5945 LPSA6    5        AHEP     OP44     OC2DP   -0.900000       15.9994           0
      5946 LPSA6    5        AHEP     C6       CC312    0.140000       12.0110           0
      5947 LPSA6    5        AHEP     H6       HCA1     0.900000E-01   1.00800           0
      5948 LPSA6    5        AHEP     O6       OC311   -0.650000       15.9994           0
      5949 LPSA6    5        AHEP     HO6      HCP1     0.420000       1.00800           0
      5950 LPSA6    5        AHEP     C7       CC322     0.00000       12.0110           0
      5951 LPSA6    5        AHEP     H71      HCA2     0.900000E-01   1.00800           0
      5952 LPSA6    5        AHEP     H72      HCA2     0.900000E-01   1.00800           0
      5953 LPSA6    5        AHEP     O7       OC301   -0.360000       15.9994           0
      5954 LPSA6    6        AHEP     C1       CC3162   0.290000       12.0110           0
      5955 LPSA6    6        AHEP     H1       HCA1     0.900000E-01   1.00800           0
      5956 LPSA6    6        AHEP     C5       CC3163   0.110000       12.0110           0
      5957 LPSA6    6        AHEP     H5       HCA1     0.900000E-01   1.00800           0
      5958 LPSA6    6        AHEP     O5       OC3C61  -0.400000       15.9994           0
      5959 LPSA6    6        AHEP     C2       CC3161   0.140000       12.0110           0
      5960 LPSA6    6        AHEP     H2       HCA1     0.900000E-01   1.00800           0
      5961 LPSA6    6        AHEP     O2       OC311   -0.650000       15.9994           0
      5962 LPSA6    6        AHEP     HO2      HCP1     0.420000       1.00800           0
      5963 LPSA6    6        AHEP     C3       CC3161   0.140000       12.0110           0
      5964 LPSA6    6        AHEP     H3       HCA1     0.900000E-01   1.00800           0
      5965 LPSA6    6        AHEP     O3       OC311   -0.650000       15.9994           0
      5966 LPSA6    6        AHEP     HO3      HCP1     0.420000       1.00800           0
      5967 LPSA6    6        AHEP     C4       CC3161   0.140000       12.0110           0
      5968 LPSA6    6        AHEP     H4       HCA1     0.900000E-01   1.00800           0
      5969 LPSA6    6        AHEP     O4       OC311   -0.650000       15.9994           0
      5970 LPSA6    6        AHEP     HO4      HCP1     0.420000       1.00800           0
      5971 LPSA6    6        AHEP     C6       CC312    0.140000       12.0110           0
      5972 LPSA6    6        AHEP     H6       HCA1     0.900000E-01   1.00800           0
      5973 LPSA6    6        AHEP     O6       OC311   -0.650000       15.9994           0
      5974 LPSA6    6        AHEP     HO6      HCP1     0.420000       1.00800           0
      5975 LPSA6    6        AHEP     C7       CC322    0.500000E-01   12.0110           0
      5976 LPSA6    6        AHEP     H71      HCA2     0.900000E-01   1.00800           0
      5977 LPSA6    6        AHEP     H72      HCA2     0.900000E-01   1.00800           0
      5978 LPSA6    6        AHEP     O7       OC311   -0.650000       15.9994           0
      5979 LPSA6    6        AHEP     HO7      HCP1     0.420000       1.00800           0
      5980 LPSA6    7        AGLC     C1       CC3162   0.290000       12.0110           0
      5981 LPSA6    7        AGLC     H1       HCA1     0.900000E-01   1.00800           0
      5982 LPSA6    7        AGLC     C5       CC3163   0.110000       12.0110           0
      5983 LPSA6    7        AGLC     H5       HCA1     0.900000E-01   1.00800           0
      5984 LPSA6    7        AGLC     O5       OC3C61  -0.400000       15.9994           0
      5985 LPSA6    7        AGLC     C2       CC3161   0.140000       12.0110           0
      5986 LPSA6    7        AGLC     H2       HCA1     0.900000E-01   1.00800           0
      5987 LPSA6    7        AGLC     O2       OC311   -0.650000       15.9994           0
      5988 LPSA6    7        AGLC     HO2      HCP1     0.420000       1.00800           0
      5989 LPSA6    7        AGLC     C3       CC3161   0.900000E-01   12.0110           0
      5990 LPSA6    7        AGLC     H3       HCA1     0.900000E-01   1.00800           0
      5991 LPSA6    7        AGLC     O3       OC301   -0.360000       15.9994           0
      5992 LPSA6    7        AGLC     C4       CC3161   0.140000       12.0110           0
      5993 LPSA6    7        AGLC     H4       HCA1     0.900000E-01   1.00800           0
      5994 LPSA6    7        AGLC     O4       OC311   -0.650000       15.9994           0
      5995 LPSA6    7        AGLC     HO4      HCP1     0.420000       1.00800           0
      5996 LPSA6    7        AGLC     C6       CC321    0.500000E-01   12.0110           0
      5997 LPSA6    7        AGLC     H61      HCA2     0.900000E-01   1.00800           0
      5998 LPSA6    7        AGLC     H62      HCA2     0.900000E-01   1.00800           0
      5999 LPSA6    7        AGLC     O6       OC311   -0.650000       15.9994           0
      6000 LPSA6    7        AGLC     HO6      HCP1     0.420000       1.00800           0
      6001 LPSA6    8        AGLC     C1       CC3162   0.290000       12.0110           0
      6002 LPSA6    8        AGLC     H1       HCA1     0.900000E-01   1.00800           0
      6003 LPSA6    8        AGLC     C5       CC3163   0.110000       12.0110           0
      6004 LPSA6    8        AGLC     H5       HCA1     0.900000E-01   1.00800           0
      6005 LPSA6    8        AGLC     O5       OC3C61  -0.400000       15.9994           0
      6006 LPSA6    8        AGLC     C2       CC3161   0.900000E-01   12.0110           0
      6007 LPSA6    8        AGLC     H2       HCA1     0.900000E-01   1.00800           0
      6008 LPSA6    8        AGLC     O2       OC301   -0.360000       15.9994           0
      6009 LPSA6    8        AGLC     C3       CC3161   0.900000E-01   12.0110           0
      6010 LPSA6    8        AGLC     H3       HCA1     0.900000E-01   1.00800           0
      6011 LPSA6    8        AGLC     O3       OC301   -0.360000       15.9994           0
      6012 LPSA6    8        AGLC     C4       CC3161   0.140000       12.0110           0
      6013 LPSA6    8        AGLC     H4       HCA1     0.900000E-01   1.00800           0
      6014 LPSA6    8        AGLC     O4       OC311   -0.650000       15.9994           0
      6015 LPSA6    8        AGLC     HO4      HCP1     0.420000       1.00800           0
      6016 LPSA6    8        AGLC     C6       CC321    0.500000E-01   12.0110           0
      6017 LPSA6    8        AGLC     H61      HCA2     0.900000E-01   1.00800           0
      6018 LPSA6    8        AGLC     H62      HCA2     0.900000E-01   1.00800           0
      6019 LPSA6    8        AGLC     O6       OC311   -0.650000       15.9994           0
      6020 LPSA6    8        AGLC     HO6      HCP1     0.420000       1.00800           0
      6021 LPSA6    9        AGAL     C1       CC3162   0.290000       12.0110           0
      6022 LPSA6    9        AGAL     H1       HCA1     0.900000E-01   1.00800           0
      6023 LPSA6    9        AGAL     C5       CC3163   0.110000       12.0110           0
      6024 LPSA6    9        AGAL     H5       HCA1     0.900000E-01   1.00800           0
      6025 LPSA6    9        AGAL     O5       OC3C61  -0.400000       15.9994           0
      6026 LPSA6    9        AGAL     C2       CC3161   0.900000E-01   12.0110           0
      6027 LPSA6    9        AGAL     H2       HCA1     0.900000E-01   1.00800           0
      6028 LPSA6    9        AGAL     O2       OC301   -0.360000       15.9994           0
      6029 LPSA6    9        AGAL     C3       CC3161   0.140000       12.0110           0
      6030 LPSA6    9        AGAL     H3       HCA1     0.900000E-01   1.00800           0
      6031 LPSA6    9        AGAL     O3       OC311   -0.650000       15.9994           0
      6032 LPSA6    9        AGAL     HO3      HCP1     0.420000       1.00800           0
      6033 LPSA6    9        AGAL     C4       CC3161   0.140000       12.0110           0
      6034 LPSA6    9        AGAL     H4       HCA1     0.900000E-01   1.00800           0
      6035 LPSA6    9        AGAL     O4       OC311   -0.650000       15.9994           0
      6036 LPSA6    9        AGAL     HO4      HCP1     0.420000       1.00800           0
      6037 LPSA6    9        AGAL     C6       CC321    0.500000E-01   12.0110           0
      6038 LPSA6    9        AGAL     H61      HCA2     0.900000E-01   1.00800           0
      6039 LPSA6    9        AGAL     H62      HCA2     0.900000E-01   1.00800           0
      6040 LPSA6    9        AGAL     O6       OC311   -0.650000       15.9994           0
      6041 LPSA6    9        AGAL     HO6      HCP1     0.420000       1.00800           0
      6042 LPSA6    10       AGAL     C1       CC3162   0.290000       12.0110           0
      6043 LPSA6    10       AGAL     H1       HCA1     0.900000E-01   1.00800           0
      6044 LPSA6    10       AGAL     C5       CC3163   0.110000       12.0110           0
      6045 LPSA6    10       AGAL     H5       HCA1     0.900000E-01   1.00800           0
      6046 LPSA6    10       AGAL     O5       OC3C61  -0.400000       15.9994           0
      6047 LPSA6    10       AGAL     C2       CC3161   0.140000       12.0110           0
      6048 LPSA6    10       AGAL     H2       HCA1     0.900000E-01   1.00800           0
      6049 LPSA6    10       AGAL     O2       OC311   -0.650000       15.9994           0
      6050 LPSA6    10       AGAL     HO2      HCP1     0.420000       1.00800           0
      6051 LPSA6    10       AGAL     C3       CC3161   0.140000       12.0110           0
      6052 LPSA6    10       AGAL     H3       HCA1     0.900000E-01   1.00800           0
      6053 LPSA6    10       AGAL     O3       OC311   -0.650000       15.9994           0
      6054 LPSA6    10       AGAL     HO3      HCP1     0.420000       1.00800           0
      6055 LPSA6    10       AGAL     C4       CC3161   0.140000       12.0110           0
      6056 LPSA6    10       AGAL     H4       HCA1     0.900000E-01   1.00800           0
      6057 LPSA6    10       AGAL     O4       OC311   -0.650000       15.9994           0
      6058 LPSA6    10       AGAL     HO4      HCP1     0.420000       1.00800           0
      6059 LPSA6    10       AGAL     C6       CC321    0.500000E-01   12.0110           0
      6060 LPSA6    10       AGAL     H61      HCA2     0.900000E-01   1.00800           0
      6061 LPSA6    10       AGAL     H62      HCA2     0.900000E-01   1.00800           0
      6062 LPSA6    10       AGAL     O6       OC311   -0.650000       15.9994           0
      6063 LPSA6    10       AGAL     HO6      HCP1     0.420000       1.00800           0
      6064 LPSA6    11       BGLC     C1       CC3162   0.290000       12.0110           0
      6065 LPSA6    11       BGLC     H1       HCA1     0.900000E-01   1.00800           0
      6066 LPSA6    11       BGLC     C5       CC3163   0.110000       12.0110           0
      6067 LPSA6    11       BGLC     H5       HCA1     0.900000E-01   1.00800           0
      6068 LPSA6    11       BGLC     O5       OC3C61  -0.400000       15.9994           0
      6069 LPSA6    11       BGLC     C2       CC3161   0.140000       12.0110           0
      6070 LPSA6    11       BGLC     H2       HCA1     0.900000E-01   1.00800           0
      6071 LPSA6    11       BGLC     O2       OC311   -0.650000       15.9994           0
      6072 LPSA6    11       BGLC     HO2      HCP1     0.420000       1.00800           0
      6073 LPSA6    11       BGLC     C3       CC3161   0.900000E-01   12.0110           0
      6074 LPSA6    11       BGLC     H3       HCA1     0.900000E-01   1.00800           0
      6075 LPSA6    11       BGLC     O3       OC301   -0.360000       15.9994           0
      6076 LPSA6    11       BGLC     C4       CC3161   0.140000       12.0110           0
      6077 LPSA6    11       BGLC     H4       HCA1     0.900000E-01   1.00800           0
      6078 LPSA6    11       BGLC     O4       OC311   -0.650000       15.9994           0
      6079 LPSA6    11       BGLC     HO4      HCP1     0.420000       1.00800           0
      6080 LPSA6    11       BGLC     C6       CC321    0.500000E-01   12.0110           0
      6081 LPSA6    11       BGLC     H61      HCA2     0.900000E-01   1.00800           0
      6082 LPSA6    11       BGLC     H62      HCA2     0.900000E-01   1.00800           0
      6083 LPSA6    11       BGLC     O6       OC311   -0.650000       15.9994           0
      6084 LPSA6    11       BGLC     HO6      HCP1     0.420000       1.00800           0
      6085 LPSA6    12       BGLCNA   C1       CC3162   0.290000       12.0110           0
      6086 LPSA6    12       BGLCNA   H1       HCA1     0.900000E-01   1.00800           0
      6087 LPSA6    12       BGLCNA   C5       CC3163   0.110000       12.0110           0
      6088 LPSA6    12       BGLCNA   H5       HCA1     0.900000E-01   1.00800           0
      6089 LPSA6    12       BGLCNA   O5       OC3C61  -0.400000       15.9994           0
      6090 LPSA6    12       BGLCNA   C2       CC3161   0.700000E-01   12.0110           0
      6091 LPSA6    12       BGLCNA   H2       HCA1     0.900000E-01   1.00800           0
      6092 LPSA6    12       BGLCNA   N        NC2D1   -0.470000       14.0070           0
      6093 LPSA6    12       BGLCNA   HN       HCP1     0.310000       1.00800           0
      6094 LPSA6    12       BGLCNA   C        CC2O1    0.510000       12.0110           0
      6095 LPSA6    12       BGLCNA   O        OC2D1   -0.510000       15.9994           0
      6096 LPSA6    12       BGLCNA   CT       CC331   -0.270000       12.0110           0
      6097 LPSA6    12       BGLCNA   HT1      HCA3     0.900000E-01   1.00800           0
      6098 LPSA6    12       BGLCNA   HT2      HCA3     0.900000E-01   1.00800           0
      6099 LPSA6    12       BGLCNA   HT3      HCA3     0.900000E-01   1.00800           0
      6100 LPSA6    12       BGLCNA   C3       CC3161   0.900000E-01   12.0110           0
      6101 LPSA6    12       BGLCNA   H3       HCA1     0.900000E-01   1.00800           0
      6102 LPSA6    12       BGLCNA   O3       OC301   -0.360000       15.9994           0
      6103 LPSA6    12       BGLCNA   C4       CC3161   0.140000       12.0110           0
      6104 LPSA6    12       BGLCNA   H4       HCA1     0.900000E-01   1.00800           0
      6105 LPSA6    12       BGLCNA   O4       OC311   -0.650000       15.9994           0
      6106 LPSA6    12       BGLCNA   HO4      HCP1     0.420000       1.00800           0
      6107 LPSA6    12       BGLCNA   C6       CC321    0.500000E-01   12.0110           0
      6108 LPSA6    12       BGLCNA   H61      HCA2     0.900000E-01   1.00800           0
      6109 LPSA6    12       BGLCNA   H62      HCA2     0.900000E-01   1.00800           0
      6110 LPSA6    12       BGLCNA   O6       OC311   -0.650000       15.9994           0
      6111 LPSA6    12       BGLCNA   HO6      HCP1     0.420000       1.00800           0
      6112 LPSA6    13       AGAL     C1       CC3162   0.290000       12.0110           0
      6113 LPSA6    13       AGAL     H1       HCA1     0.900000E-01   1.00800           0
      6114 LPSA6    13       AGAL     C5       CC3163   0.110000       12.0110           0
      6115 LPSA6    13       AGAL     H5       HCA1     0.900000E-01   1.00800           0
      6116 LPSA6    13       AGAL     O5       OC3C61  -0.400000       15.9994           0
      6117 LPSA6    13       AGAL     C2       CC3161   0.900000E-01   12.0110           0
      6118 LPSA6    13       AGAL     H2       HCA1     0.900000E-01   1.00800           0
      6119 LPSA6    13       AGAL     O2       OC301   -0.360000       15.9994           0
      6120 LPSA6    13       AGAL     C3       CC3161   0.140000       12.0110           0
      6121 LPSA6    13       AGAL     H3       HCA1     0.900000E-01   1.00800           0
      6122 LPSA6    13       AGAL     O3       OC311   -0.650000       15.9994           0
      6123 LPSA6    13       AGAL     HO3      HCP1     0.420000       1.00800           0
      6124 LPSA6    13       AGAL     C4       CC3161   0.140000       12.0110           0
      6125 LPSA6    13       AGAL     H4       HCA1     0.900000E-01   1.00800           0
      6126 LPSA6    13       AGAL     O4       OC311   -0.650000       15.9994           0
      6127 LPSA6    13       AGAL     HO4      HCP1     0.420000       1.00800           0
      6128 LPSA6    13       AGAL     C6       CC321    0.500000E-01   12.0110           0
      6129 LPSA6    13       AGAL     H61      HCA2     0.900000E-01   1.00800           0
      6130 LPSA6    13       AGAL     H62      HCA2     0.900000E-01   1.00800           0
      6131 LPSA6    13       AGAL     O6       OC311   -0.650000       15.9994           0
      6132 LPSA6    13       AGAL     HO6      HCP1     0.420000       1.00800           0
      6133 LPSA6    14       ARHM     C1       CC3162   0.290000       12.0110           0
      6134 LPSA6    14       ARHM     H1       HCA1     0.900000E-01   1.00800           0
      6135 LPSA6    14       ARHM     C5       CC3163   0.110000       12.0110           0
      6136 LPSA6    14       ARHM     H5       HCA1     0.900000E-01   1.00800           0
      6137 LPSA6    14       ARHM     O5       OC3C61  -0.400000       15.9994           0
      6138 LPSA6    14       ARHM     C2       CC3161   0.900000E-01   12.0110           0
      6139 LPSA6    14       ARHM     H2       HCA1     0.900000E-01   1.00800           0
      6140 LPSA6    14       ARHM     O2       OC301   -0.360000       15.9994           0
      6141 LPSA6    14       ARHM     C3       CC3161   0.140000       12.0110           0
      6142 LPSA6    14       ARHM     H3       HCA1     0.900000E-01   1.00800           0
      6143 LPSA6    14       ARHM     O3       OC311   -0.650000       15.9994           0
      6144 LPSA6    14       ARHM     HO3      HCP1     0.420000       1.00800           0
      6145 LPSA6    14       ARHM     C4       CC3161   0.140000       12.0110           0
      6146 LPSA6    14       ARHM     H4       HCA1     0.900000E-01   1.00800           0
      6147 LPSA6    14       ARHM     O4       OC311   -0.650000       15.9994           0
      6148 LPSA6    14       ARHM     HO4      HCP1     0.420000       1.00800           0
      6149 LPSA6    14       ARHM     C6       CC331   -0.270000       12.0110           0
      6150 LPSA6    14       ARHM     H61      HCA3     0.900000E-01   1.00800           0
      6151 LPSA6    14       ARHM     H62      HCA3     0.900000E-01   1.00800           0
      6152 LPSA6    14       ARHM     H63      HCA3     0.900000E-01   1.00800           0
      6153 LPSA6    15       ARHM     C1       CC3162   0.290000       12.0110           0
      6154 LPSA6    15       ARHM     H1       HCA1     0.900000E-01   1.00800           0
      6155 LPSA6    15       ARHM     C5       CC3163   0.110000       12.0110           0
      6156 LPSA6    15       ARHM     H5       HCA1     0.900000E-01   1.00800           0
      6157 LPSA6    15       ARHM     O5       OC3C61  -0.400000       15.9994           0
      6158 LPSA6    15       ARHM     C2       CC3161   0.900000E-01   12.0110           0
      6159 LPSA6    15       ARHM     H2       HCA1     0.900000E-01   1.00800           0
      6160 LPSA6    15       ARHM     O2       OC301   -0.360000       15.9994           0
      6161 LPSA6    15       ARHM     C3       CC3161   0.900000E-01   12.0110           0
      6162 LPSA6    15       ARHM     H3       HCA1     0.900000E-01   1.00800           0
      6163 LPSA6    15       ARHM     O3       OC301   -0.360000       15.9994           0
      6164 LPSA6    15       ARHM     C4       CC3161   0.140000       12.0110           0
      6165 LPSA6    15       ARHM     H4       HCA1     0.900000E-01   1.00800           0
      6166 LPSA6    15       ARHM     O4       OC311   -0.650000       15.9994           0
      6167 LPSA6    15       ARHM     HO4      HCP1     0.420000       1.00800           0
      6168 LPSA6    15       ARHM     C6       CC331   -0.270000       12.0110           0
      6169 LPSA6    15       ARHM     H61      HCA3     0.900000E-01   1.00800           0
      6170 LPSA6    15       ARHM     H62      HCA3     0.900000E-01   1.00800           0
      6171 LPSA6    15       ARHM     H63      HCA3     0.900000E-01   1.00800           0
      6172 LPSA6    16       BMANNA   C1       CC3162   0.290000       12.0110           0
      6173 LPSA6    16       BMANNA   H1       HCA1     0.900000E-01   1.00800           0
      6174 LPSA6    16       BMANNA   C5       CC3163   0.110000       12.0110           0
      6175 LPSA6    16       BMANNA   H5       HCA1     0.900000E-01   1.00800           0
      6176 LPSA6    16       BMANNA   O5       OC3C61  -0.400000       15.9994           0
      6177 LPSA6    16       BMANNA   C2       CC3161   0.700000E-01   12.0110           0
      6178 LPSA6    16       BMANNA   H2       HCA1     0.900000E-01   1.00800           0
      6179 LPSA6    16       BMANNA   N        NC2D1   -0.470000       14.0070           0
      6180 LPSA6    16       BMANNA   HN       HCP1     0.310000       1.00800           0
      6181 LPSA6    16       BMANNA   C        CC2O1    0.510000       12.0110           0
      6182 LPSA6    16       BMANNA   O        OC2D1   -0.510000       15.9994           0
      6183 LPSA6    16       BMANNA   CT       CC331   -0.270000       12.0110           0
      6184 LPSA6    16       BMANNA   HT1      HCA3     0.900000E-01   1.00800           0
      6185 LPSA6    16       BMANNA   HT2      HCA3     0.900000E-01   1.00800           0
      6186 LPSA6    16       BMANNA   HT3      HCA3     0.900000E-01   1.00800           0
      6187 LPSA6    16       BMANNA   C3       CC3161   0.140000       12.0110           0
      6188 LPSA6    16       BMANNA   H3       HCA1     0.900000E-01   1.00800           0
      6189 LPSA6    16       BMANNA   O3       OC311   -0.650000       15.9994           0
      6190 LPSA6    16       BMANNA   HO3      HCP1     0.420000       1.00800           0
      6191 LPSA6    16       BMANNA   C4       CC3161   0.140000       12.0110           0
      6192 LPSA6    16       BMANNA   H4       HCA1     0.900000E-01   1.00800           0
      6193 LPSA6    16       BMANNA   O4       OC311   -0.650000       15.9994           0
      6194 LPSA6    16       BMANNA   HO4      HCP1     0.420000       1.00800           0
      6195 LPSA6    16       BMANNA   C6       CC321    0.500000E-01   12.0110           0
      6196 LPSA6    16       BMANNA   H61      HCA2     0.900000E-01   1.00800           0
      6197 LPSA6    16       BMANNA   H62      HCA2     0.900000E-01   1.00800           0
      6198 LPSA6    16       BMANNA   O6       OC311   -0.650000       15.9994           0
      6199 LPSA6    16       BMANNA   HO6      HCP1     0.420000       1.00800           0
      6200 LPSA6    17       BGLCNA   C1       CC3162   0.290000       12.0110           0
      6201 LPSA6    17       BGLCNA   H1       HCA1     0.900000E-01   1.00800           0
      6202 LPSA6    17       BGLCNA   C5       CC3163   0.110000       12.0110           0
      6203 LPSA6    17       BGLCNA   H5       HCA1     0.900000E-01   1.00800           0
      6204 LPSA6    17       BGLCNA   O5       OC3C61  -0.400000       15.9994           0
      6205 LPSA6    17       BGLCNA   C2       CC3161   0.700000E-01   12.0110           0
      6206 LPSA6    17       BGLCNA   H2       HCA1     0.900000E-01   1.00800           0
      6207 LPSA6    17       BGLCNA   N        NC2D1   -0.470000       14.0070           0
      6208 LPSA6    17       BGLCNA   HN       HCP1     0.310000       1.00800           0
      6209 LPSA6    17       BGLCNA   C        CC2O1    0.510000       12.0110           0
      6210 LPSA6    17       BGLCNA   O        OC2D1   -0.510000       15.9994           0
      6211 LPSA6    17       BGLCNA   CT       CC331   -0.270000       12.0110           0
      6212 LPSA6    17       BGLCNA   HT1      HCA3     0.900000E-01   1.00800           0
      6213 LPSA6    17       BGLCNA   HT2      HCA3     0.900000E-01   1.00800           0
      6214 LPSA6    17       BGLCNA   HT3      HCA3     0.900000E-01   1.00800           0
      6215 LPSA6    17       BGLCNA   C3       CC3161   0.900000E-01   12.0110           0
      6216 LPSA6    17       BGLCNA   H3       HCA1     0.900000E-01   1.00800           0
      6217 LPSA6    17       BGLCNA   O3       OC301   -0.360000       15.9994           0
      6218 LPSA6    17       BGLCNA   C4       CC3161   0.140000       12.0110           0
      6219 LPSA6    17       BGLCNA   H4       HCA1     0.900000E-01   1.00800           0
      6220 LPSA6    17       BGLCNA   O4       OC311   -0.650000       15.9994           0
      6221 LPSA6    17       BGLCNA   HO4      HCP1     0.420000       1.00800           0
      6222 LPSA6    17       BGLCNA   C6       CC321    0.500000E-01   12.0110           0
      6223 LPSA6    17       BGLCNA   H61      HCA2     0.900000E-01   1.00800           0
      6224 LPSA6    17       BGLCNA   H62      HCA2     0.900000E-01   1.00800           0
      6225 LPSA6    17       BGLCNA   O6       OC311   -0.650000       15.9994           0
      6226 LPSA6    17       BGLCNA   HO6      HCP1     0.420000       1.00800           0
      6227 LPSA6    18       AGAL     C1       CC3162   0.290000       12.0110           0
      6228 LPSA6    18       AGAL     H1       HCA1     0.900000E-01   1.00800           0
      6229 LPSA6    18       AGAL     C5       CC3163   0.110000       12.0110           0
      6230 LPSA6    18       AGAL     H5       HCA1     0.900000E-01   1.00800           0
      6231 LPSA6    18       AGAL     O5       OC3C61  -0.400000       15.9994           0
      6232 LPSA6    18       AGAL     C2       CC3161   0.900000E-01   12.0110           0
      6233 LPSA6    18       AGAL     H2       HCA1     0.900000E-01   1.00800           0
      6234 LPSA6    18       AGAL     O2       OC301   -0.360000       15.9994           0
      6235 LPSA6    18       AGAL     C3       CC3161   0.140000       12.0110           0
      6236 LPSA6    18       AGAL     H3       HCA1     0.900000E-01   1.00800           0
      6237 LPSA6    18       AGAL     O3       OC311   -0.650000       15.9994           0
      6238 LPSA6    18       AGAL     HO3      HCP1     0.420000       1.00800           0
      6239 LPSA6    18       AGAL     C4       CC3161   0.140000       12.0110           0
      6240 LPSA6    18       AGAL     H4       HCA1     0.900000E-01   1.00800           0
      6241 LPSA6    18       AGAL     O4       OC311   -0.650000       15.9994           0
      6242 LPSA6    18       AGAL     HO4      HCP1     0.420000       1.00800           0
      6243 LPSA6    18       AGAL     C6       CC321    0.500000E-01   12.0110           0
      6244 LPSA6    18       AGAL     H61      HCA2     0.900000E-01   1.00800           0
      6245 LPSA6    18       AGAL     H62      HCA2     0.900000E-01   1.00800           0
      6246 LPSA6    18       AGAL     O6       OC311   -0.650000       15.9994           0
      6247 LPSA6    18       AGAL     HO6      HCP1     0.420000       1.00800           0
      6248 LPSA6    19       ARHM     C1       CC3162   0.290000       12.0110           0
      6249 LPSA6    19       ARHM     H1       HCA1     0.900000E-01   1.00800           0
      6250 LPSA6    19       ARHM     C5       CC3163   0.110000       12.0110           0
      6251 LPSA6    19       ARHM     H5       HCA1     0.900000E-01   1.00800           0
      6252 LPSA6    19       ARHM     O5       OC3C61  -0.400000       15.9994           0
      6253 LPSA6    19       ARHM     C2       CC3161   0.900000E-01   12.0110           0
      6254 LPSA6    19       ARHM     H2       HCA1     0.900000E-01   1.00800           0
      6255 LPSA6    19       ARHM     O2       OC301   -0.360000       15.9994           0
      6256 LPSA6    19       ARHM     C3       CC3161   0.140000       12.0110           0
      6257 LPSA6    19       ARHM     H3       HCA1     0.900000E-01   1.00800           0
      6258 LPSA6    19       ARHM     O3       OC311   -0.650000       15.9994           0
      6259 LPSA6    19       ARHM     HO3      HCP1     0.420000       1.00800           0
      6260 LPSA6    19       ARHM     C4       CC3161   0.140000       12.0110           0
      6261 LPSA6    19       ARHM     H4       HCA1     0.900000E-01   1.00800           0
      6262 LPSA6    19       ARHM     O4       OC311   -0.650000       15.9994           0
      6263 LPSA6    19       ARHM     HO4      HCP1     0.420000       1.00800           0
      6264 LPSA6    19       ARHM     C6       CC331   -0.270000       12.0110           0
      6265 LPSA6    19       ARHM     H61      HCA3     0.900000E-01   1.00800           0
      6266 LPSA6    19       ARHM     H62      HCA3     0.900000E-01   1.00800           0
      6267 LPSA6    19       ARHM     H63      HCA3     0.900000E-01   1.00800           0
      6268 LPSA6    20       ARHM     C1       CC3162   0.290000       12.0110           0
      6269 LPSA6    20       ARHM     H1       HCA1     0.900000E-01   1.00800           0
      6270 LPSA6    20       ARHM     C5       CC3163   0.110000       12.0110           0
      6271 LPSA6    20       ARHM     H5       HCA1     0.900000E-01   1.00800           0
      6272 LPSA6    20       ARHM     O5       OC3C61  -0.400000       15.9994           0
      6273 LPSA6    20       ARHM     C2       CC3161   0.900000E-01   12.0110           0
      6274 LPSA6    20       ARHM     H2       HCA1     0.900000E-01   1.00800           0
      6275 LPSA6    20       ARHM     O2       OC301   -0.360000       15.9994           0
      6276 LPSA6    20       ARHM     C3       CC3161   0.900000E-01   12.0110           0
      6277 LPSA6    20       ARHM     H3       HCA1     0.900000E-01   1.00800           0
      6278 LPSA6    20       ARHM     O3       OC301   -0.360000       15.9994           0
      6279 LPSA6    20       ARHM     C4       CC3161   0.140000       12.0110           0
      6280 LPSA6    20       ARHM     H4       HCA1     0.900000E-01   1.00800           0
      6281 LPSA6    20       ARHM     O4       OC311   -0.650000       15.9994           0
      6282 LPSA6    20       ARHM     HO4      HCP1     0.420000       1.00800           0
      6283 LPSA6    20       ARHM     C6       CC331   -0.270000       12.0110           0
      6284 LPSA6    20       ARHM     H61      HCA3     0.900000E-01   1.00800           0
      6285 LPSA6    20       ARHM     H62      HCA3     0.900000E-01   1.00800           0
      6286 LPSA6    20       ARHM     H63      HCA3     0.900000E-01   1.00800           0
      6287 LPSA6    21       BMANNA   C1       CC3162   0.290000       12.0110           0
      6288 LPSA6    21       BMANNA   H1       HCA1     0.900000E-01   1.00800           0
      6289 LPSA6    21       BMANNA   C5       CC3163   0.110000       12.0110           0
      6290 LPSA6    21       BMANNA   H5       HCA1     0.900000E-01   1.00800           0
      6291 LPSA6    21       BMANNA   O5       OC3C61  -0.400000       15.9994           0
      6292 LPSA6    21       BMANNA   C2       CC3161   0.700000E-01   12.0110           0
      6293 LPSA6    21       BMANNA   H2       HCA1     0.900000E-01   1.00800           0
      6294 LPSA6    21       BMANNA   N        NC2D1   -0.470000       14.0070           0
      6295 LPSA6    21       BMANNA   HN       HCP1     0.310000       1.00800           0
      6296 LPSA6    21       BMANNA   C        CC2O1    0.510000       12.0110           0
      6297 LPSA6    21       BMANNA   O        OC2D1   -0.510000       15.9994           0
      6298 LPSA6    21       BMANNA   CT       CC331   -0.270000       12.0110           0
      6299 LPSA6    21       BMANNA   HT1      HCA3     0.900000E-01   1.00800           0
      6300 LPSA6    21       BMANNA   HT2      HCA3     0.900000E-01   1.00800           0
      6301 LPSA6    21       BMANNA   HT3      HCA3     0.900000E-01   1.00800           0
      6302 LPSA6    21       BMANNA   C3       CC3161   0.140000       12.0110           0
      6303 LPSA6    21       BMANNA   H3       HCA1     0.900000E-01   1.00800           0
      6304 LPSA6    21       BMANNA   O3       OC311   -0.650000       15.9994           0
      6305 LPSA6    21       BMANNA   HO3      HCP1     0.420000       1.00800           0
      6306 LPSA6    21       BMANNA   C4       CC3161   0.140000       12.0110           0
      6307 LPSA6    21       BMANNA   H4       HCA1     0.900000E-01   1.00800           0
      6308 LPSA6    21       BMANNA   O4       OC311   -0.650000       15.9994           0
      6309 LPSA6    21       BMANNA   HO4      HCP1     0.420000       1.00800           0
      6310 LPSA6    21       BMANNA   C6       CC321    0.500000E-01   12.0110           0
      6311 LPSA6    21       BMANNA   H61      HCA2     0.900000E-01   1.00800           0
      6312 LPSA6    21       BMANNA   H62      HCA2     0.900000E-01   1.00800           0
      6313 LPSA6    21       BMANNA   O6       OC311   -0.650000       15.9994           0
      6314 LPSA6    21       BMANNA   HO6      HCP1     0.420000       1.00800           0
      6315 LPSA6    22       BGLCNA   C1       CC3162   0.290000       12.0110           0
      6316 LPSA6    22       BGLCNA   H1       HCA1     0.900000E-01   1.00800           0
      6317 LPSA6    22       BGLCNA   C5       CC3163   0.110000       12.0110           0
      6318 LPSA6    22       BGLCNA   H5       HCA1     0.900000E-01   1.00800           0
      6319 LPSA6    22       BGLCNA   O5       OC3C61  -0.400000       15.9994           0
      6320 LPSA6    22       BGLCNA   C2       CC3161   0.700000E-01   12.0110           0
      6321 LPSA6    22       BGLCNA   H2       HCA1     0.900000E-01   1.00800           0
      6322 LPSA6    22       BGLCNA   N        NC2D1   -0.470000       14.0070           0
      6323 LPSA6    22       BGLCNA   HN       HCP1     0.310000       1.00800           0
      6324 LPSA6    22       BGLCNA   C        CC2O1    0.510000       12.0110           0
      6325 LPSA6    22       BGLCNA   O        OC2D1   -0.510000       15.9994           0
      6326 LPSA6    22       BGLCNA   CT       CC331   -0.270000       12.0110           0
      6327 LPSA6    22       BGLCNA   HT1      HCA3     0.900000E-01   1.00800           0
      6328 LPSA6    22       BGLCNA   HT2      HCA3     0.900000E-01   1.00800           0
      6329 LPSA6    22       BGLCNA   HT3      HCA3     0.900000E-01   1.00800           0
      6330 LPSA6    22       BGLCNA   C3       CC3161   0.900000E-01   12.0110           0
      6331 LPSA6    22       BGLCNA   H3       HCA1     0.900000E-01   1.00800           0
      6332 LPSA6    22       BGLCNA   O3       OC301   -0.360000       15.9994           0
      6333 LPSA6    22       BGLCNA   C4       CC3161   0.140000       12.0110           0
      6334 LPSA6    22       BGLCNA   H4       HCA1     0.900000E-01   1.00800           0
      6335 LPSA6    22       BGLCNA   O4       OC311   -0.650000       15.9994           0
      6336 LPSA6    22       BGLCNA   HO4      HCP1     0.420000       1.00800           0
      6337 LPSA6    22       BGLCNA   C6       CC321    0.500000E-01   12.0110           0
      6338 LPSA6    22       BGLCNA   H61      HCA2     0.900000E-01   1.00800           0
      6339 LPSA6    22       BGLCNA   H62      HCA2     0.900000E-01   1.00800           0
      6340 LPSA6    22       BGLCNA   O6       OC311   -0.650000       15.9994           0
      6341 LPSA6    22       BGLCNA   HO6      HCP1     0.420000       1.00800           0
      6342 LPSA6    23       AGAL     C1       CC3162   0.290000       12.0110           0
      6343 LPSA6    23       AGAL     H1       HCA1     0.900000E-01   1.00800           0
      6344 LPSA6    23       AGAL     C5       CC3163   0.110000       12.0110           0
      6345 LPSA6    23       AGAL     H5       HCA1     0.900000E-01   1.00800           0
      6346 LPSA6    23       AGAL     O5       OC3C61  -0.400000       15.9994           0
      6347 LPSA6    23       AGAL     C2       CC3161   0.900000E-01   12.0110           0
      6348 LPSA6    23       AGAL     H2       HCA1     0.900000E-01   1.00800           0
      6349 LPSA6    23       AGAL     O2       OC301   -0.360000       15.9994           0
      6350 LPSA6    23       AGAL     C3       CC3161   0.140000       12.0110           0
      6351 LPSA6    23       AGAL     H3       HCA1     0.900000E-01   1.00800           0
      6352 LPSA6    23       AGAL     O3       OC311   -0.650000       15.9994           0
      6353 LPSA6    23       AGAL     HO3      HCP1     0.420000       1.00800           0
      6354 LPSA6    23       AGAL     C4       CC3161   0.140000       12.0110           0
      6355 LPSA6    23       AGAL     H4       HCA1     0.900000E-01   1.00800           0
      6356 LPSA6    23       AGAL     O4       OC311   -0.650000       15.9994           0
      6357 LPSA6    23       AGAL     HO4      HCP1     0.420000       1.00800           0
      6358 LPSA6    23       AGAL     C6       CC321    0.500000E-01   12.0110           0
      6359 LPSA6    23       AGAL     H61      HCA2     0.900000E-01   1.00800           0
      6360 LPSA6    23       AGAL     H62      HCA2     0.900000E-01   1.00800           0
      6361 LPSA6    23       AGAL     O6       OC311   -0.650000       15.9994           0
      6362 LPSA6    23       AGAL     HO6      HCP1     0.420000       1.00800           0
      6363 LPSA6    24       ARHM     C1       CC3162   0.290000       12.0110           0
      6364 LPSA6    24       ARHM     H1       HCA1     0.900000E-01   1.00800           0
      6365 LPSA6    24       ARHM     C5       CC3163   0.110000       12.0110           0
      6366 LPSA6    24       ARHM     H5       HCA1     0.900000E-01   1.00800           0
      6367 LPSA6    24       ARHM     O5       OC3C61  -0.400000       15.9994           0
      6368 LPSA6    24       ARHM     C2       CC3161   0.900000E-01   12.0110           0
      6369 LPSA6    24       ARHM     H2       HCA1     0.900000E-01   1.00800           0
      6370 LPSA6    24       ARHM     O2       OC301   -0.360000       15.9994           0
      6371 LPSA6    24       ARHM     C3       CC3161   0.140000       12.0110           0
      6372 LPSA6    24       ARHM     H3       HCA1     0.900000E-01   1.00800           0
      6373 LPSA6    24       ARHM     O3       OC311   -0.650000       15.9994           0
      6374 LPSA6    24       ARHM     HO3      HCP1     0.420000       1.00800           0
      6375 LPSA6    24       ARHM     C4       CC3161   0.140000       12.0110           0
      6376 LPSA6    24       ARHM     H4       HCA1     0.900000E-01   1.00800           0
      6377 LPSA6    24       ARHM     O4       OC311   -0.650000       15.9994           0
      6378 LPSA6    24       ARHM     HO4      HCP1     0.420000       1.00800           0
      6379 LPSA6    24       ARHM     C6       CC331   -0.270000       12.0110           0
      6380 LPSA6    24       ARHM     H61      HCA3     0.900000E-01   1.00800           0
      6381 LPSA6    24       ARHM     H62      HCA3     0.900000E-01   1.00800           0
      6382 LPSA6    24       ARHM     H63      HCA3     0.900000E-01   1.00800           0
      6383 LPSA6    25       ARHM     C1       CC3162   0.290000       12.0110           0
      6384 LPSA6    25       ARHM     H1       HCA1     0.900000E-01   1.00800           0
      6385 LPSA6    25       ARHM     C5       CC3163   0.110000       12.0110           0
      6386 LPSA6    25       ARHM     H5       HCA1     0.900000E-01   1.00800           0
      6387 LPSA6    25       ARHM     O5       OC3C61  -0.400000       15.9994           0
      6388 LPSA6    25       ARHM     C2       CC3161   0.900000E-01   12.0110           0
      6389 LPSA6    25       ARHM     H2       HCA1     0.900000E-01   1.00800           0
      6390 LPSA6    25       ARHM     O2       OC301   -0.360000       15.9994           0
      6391 LPSA6    25       ARHM     C3       CC3161   0.900000E-01   12.0110           0
      6392 LPSA6    25       ARHM     H3       HCA1     0.900000E-01   1.00800           0
      6393 LPSA6    25       ARHM     O3       OC301   -0.360000       15.9994           0
      6394 LPSA6    25       ARHM     C4       CC3161   0.140000       12.0110           0
      6395 LPSA6    25       ARHM     H4       HCA1     0.900000E-01   1.00800           0
      6396 LPSA6    25       ARHM     O4       OC311   -0.650000       15.9994           0
      6397 LPSA6    25       ARHM     HO4      HCP1     0.420000       1.00800           0
      6398 LPSA6    25       ARHM     C6       CC331   -0.270000       12.0110           0
      6399 LPSA6    25       ARHM     H61      HCA3     0.900000E-01   1.00800           0
      6400 LPSA6    25       ARHM     H62      HCA3     0.900000E-01   1.00800           0
      6401 LPSA6    25       ARHM     H63      HCA3     0.900000E-01   1.00800           0
      6402 LPSA6    26       BMANNA   C1       CC3162   0.290000       12.0110           0
      6403 LPSA6    26       BMANNA   H1       HCA1     0.900000E-01   1.00800           0
      6404 LPSA6    26       BMANNA   C5       CC3163   0.110000       12.0110           0
      6405 LPSA6    26       BMANNA   H5       HCA1     0.900000E-01   1.00800           0
      6406 LPSA6    26       BMANNA   O5       OC3C61  -0.400000       15.9994           0
      6407 LPSA6    26       BMANNA   C2       CC3161   0.700000E-01   12.0110           0
      6408 LPSA6    26       BMANNA   H2       HCA1     0.900000E-01   1.00800           0
      6409 LPSA6    26       BMANNA   N        NC2D1   -0.470000       14.0070           0
      6410 LPSA6    26       BMANNA   HN       HCP1     0.310000       1.00800           0
      6411 LPSA6    26       BMANNA   C        CC2O1    0.510000       12.0110           0
      6412 LPSA6    26       BMANNA   O        OC2D1   -0.510000       15.9994           0
      6413 LPSA6    26       BMANNA   CT       CC331   -0.270000       12.0110           0
      6414 LPSA6    26       BMANNA   HT1      HCA3     0.900000E-01   1.00800           0
      6415 LPSA6    26       BMANNA   HT2      HCA3     0.900000E-01   1.00800           0
      6416 LPSA6    26       BMANNA   HT3      HCA3     0.900000E-01   1.00800           0
      6417 LPSA6    26       BMANNA   C3       CC3161   0.140000       12.0110           0
      6418 LPSA6    26       BMANNA   H3       HCA1     0.900000E-01   1.00800           0
      6419 LPSA6    26       BMANNA   O3       OC311   -0.650000       15.9994           0
      6420 LPSA6    26       BMANNA   HO3      HCP1     0.420000       1.00800           0
      6421 LPSA6    26       BMANNA   C4       CC3161   0.140000       12.0110           0
      6422 LPSA6    26       BMANNA   H4       HCA1     0.900000E-01   1.00800           0
      6423 LPSA6    26       BMANNA   O4       OC311   -0.650000       15.9994           0
      6424 LPSA6    26       BMANNA   HO4      HCP1     0.420000       1.00800           0
      6425 LPSA6    26       BMANNA   C6       CC321    0.500000E-01   12.0110           0
      6426 LPSA6    26       BMANNA   H61      HCA2     0.900000E-01   1.00800           0
      6427 LPSA6    26       BMANNA   H62      HCA2     0.900000E-01   1.00800           0
      6428 LPSA6    26       BMANNA   O6       OC311   -0.650000       15.9994           0
      6429 LPSA6    26       BMANNA   HO6      HCP1     0.420000       1.00800           0
      6430 LPSA6    27       BGLCNA   C1       CC3162   0.290000       12.0110           0
      6431 LPSA6    27       BGLCNA   H1       HCA1     0.900000E-01   1.00800           0
      6432 LPSA6    27       BGLCNA   C5       CC3163   0.110000       12.0110           0
      6433 LPSA6    27       BGLCNA   H5       HCA1     0.900000E-01   1.00800           0
      6434 LPSA6    27       BGLCNA   O5       OC3C61  -0.400000       15.9994           0
      6435 LPSA6    27       BGLCNA   C2       CC3161   0.700000E-01   12.0110           0
      6436 LPSA6    27       BGLCNA   H2       HCA1     0.900000E-01   1.00800           0
      6437 LPSA6    27       BGLCNA   N        NC2D1   -0.470000       14.0070           0
      6438 LPSA6    27       BGLCNA   HN       HCP1     0.310000       1.00800           0
      6439 LPSA6    27       BGLCNA   C        CC2O1    0.510000       12.0110           0
      6440 LPSA6    27       BGLCNA   O        OC2D1   -0.510000       15.9994           0
      6441 LPSA6    27       BGLCNA   CT       CC331   -0.270000       12.0110           0
      6442 LPSA6    27       BGLCNA   HT1      HCA3     0.900000E-01   1.00800           0
      6443 LPSA6    27       BGLCNA   HT2      HCA3     0.900000E-01   1.00800           0
      6444 LPSA6    27       BGLCNA   HT3      HCA3     0.900000E-01   1.00800           0
      6445 LPSA6    27       BGLCNA   C3       CC3161   0.900000E-01   12.0110           0
      6446 LPSA6    27       BGLCNA   H3       HCA1     0.900000E-01   1.00800           0
      6447 LPSA6    27       BGLCNA   O3       OC301   -0.360000       15.9994           0
      6448 LPSA6    27       BGLCNA   C4       CC3161   0.140000       12.0110           0
      6449 LPSA6    27       BGLCNA   H4       HCA1     0.900000E-01   1.00800           0
      6450 LPSA6    27       BGLCNA   O4       OC311   -0.650000       15.9994           0
      6451 LPSA6    27       BGLCNA   HO4      HCP1     0.420000       1.00800           0
      6452 LPSA6    27       BGLCNA   C6       CC321    0.500000E-01   12.0110           0
      6453 LPSA6    27       BGLCNA   H61      HCA2     0.900000E-01   1.00800           0
      6454 LPSA6    27       BGLCNA   H62      HCA2     0.900000E-01   1.00800           0
      6455 LPSA6    27       BGLCNA   O6       OC311   -0.650000       15.9994           0
      6456 LPSA6    27       BGLCNA   HO6      HCP1     0.420000       1.00800           0
      6457 LPSA6    28       AGAL     C1       CC3162   0.290000       12.0110           0
      6458 LPSA6    28       AGAL     H1       HCA1     0.900000E-01   1.00800           0
      6459 LPSA6    28       AGAL     C5       CC3163   0.110000       12.0110           0
      6460 LPSA6    28       AGAL     H5       HCA1     0.900000E-01   1.00800           0
      6461 LPSA6    28       AGAL     O5       OC3C61  -0.400000       15.9994           0
      6462 LPSA6    28       AGAL     C2       CC3161   0.900000E-01   12.0110           0
      6463 LPSA6    28       AGAL     H2       HCA1     0.900000E-01   1.00800           0
      6464 LPSA6    28       AGAL     O2       OC301   -0.360000       15.9994           0
      6465 LPSA6    28       AGAL     C3       CC3161   0.140000       12.0110           0
      6466 LPSA6    28       AGAL     H3       HCA1     0.900000E-01   1.00800           0
      6467 LPSA6    28       AGAL     O3       OC311   -0.650000       15.9994           0
      6468 LPSA6    28       AGAL     HO3      HCP1     0.420000       1.00800           0
      6469 LPSA6    28       AGAL     C4       CC3161   0.140000       12.0110           0
      6470 LPSA6    28       AGAL     H4       HCA1     0.900000E-01   1.00800           0
      6471 LPSA6    28       AGAL     O4       OC311   -0.650000       15.9994           0
      6472 LPSA6    28       AGAL     HO4      HCP1     0.420000       1.00800           0
      6473 LPSA6    28       AGAL     C6       CC321    0.500000E-01   12.0110           0
      6474 LPSA6    28       AGAL     H61      HCA2     0.900000E-01   1.00800           0
      6475 LPSA6    28       AGAL     H62      HCA2     0.900000E-01   1.00800           0
      6476 LPSA6    28       AGAL     O6       OC311   -0.650000       15.9994           0
      6477 LPSA6    28       AGAL     HO6      HCP1     0.420000       1.00800           0
      6478 LPSA6    29       ARHM     C1       CC3162   0.290000       12.0110           0
      6479 LPSA6    29       ARHM     H1       HCA1     0.900000E-01   1.00800           0
      6480 LPSA6    29       ARHM     C5       CC3163   0.110000       12.0110           0
      6481 LPSA6    29       ARHM     H5       HCA1     0.900000E-01   1.00800           0
      6482 LPSA6    29       ARHM     O5       OC3C61  -0.400000       15.9994           0
      6483 LPSA6    29       ARHM     C2       CC3161   0.900000E-01   12.0110           0
      6484 LPSA6    29       ARHM     H2       HCA1     0.900000E-01   1.00800           0
      6485 LPSA6    29       ARHM     O2       OC301   -0.360000       15.9994           0
      6486 LPSA6    29       ARHM     C3       CC3161   0.140000       12.0110           0
      6487 LPSA6    29       ARHM     H3       HCA1     0.900000E-01   1.00800           0
      6488 LPSA6    29       ARHM     O3       OC311   -0.650000       15.9994           0
      6489 LPSA6    29       ARHM     HO3      HCP1     0.420000       1.00800           0
      6490 LPSA6    29       ARHM     C4       CC3161   0.140000       12.0110           0
      6491 LPSA6    29       ARHM     H4       HCA1     0.900000E-01   1.00800           0
      6492 LPSA6    29       ARHM     O4       OC311   -0.650000       15.9994           0
      6493 LPSA6    29       ARHM     HO4      HCP1     0.420000       1.00800           0
      6494 LPSA6    29       ARHM     C6       CC331   -0.270000       12.0110           0
      6495 LPSA6    29       ARHM     H61      HCA3     0.900000E-01   1.00800           0
      6496 LPSA6    29       ARHM     H62      HCA3     0.900000E-01   1.00800           0
      6497 LPSA6    29       ARHM     H63      HCA3     0.900000E-01   1.00800           0
      6498 LPSA6    30       ARHM     C1       CC3162   0.290000       12.0110           0
      6499 LPSA6    30       ARHM     H1       HCA1     0.900000E-01   1.00800           0
      6500 LPSA6    30       ARHM     C5       CC3163   0.110000       12.0110           0
      6501 LPSA6    30       ARHM     H5       HCA1     0.900000E-01   1.00800           0
      6502 LPSA6    30       ARHM     O5       OC3C61  -0.400000       15.9994           0
      6503 LPSA6    30       ARHM     C2       CC3161   0.900000E-01   12.0110           0
      6504 LPSA6    30       ARHM     H2       HCA1     0.900000E-01   1.00800           0
      6505 LPSA6    30       ARHM     O2       OC301   -0.360000       15.9994           0
      6506 LPSA6    30       ARHM     C3       CC3161   0.900000E-01   12.0110           0
      6507 LPSA6    30       ARHM     H3       HCA1     0.900000E-01   1.00800           0
      6508 LPSA6    30       ARHM     O3       OC301   -0.360000       15.9994           0
      6509 LPSA6    30       ARHM     C4       CC3161   0.140000       12.0110           0
      6510 LPSA6    30       ARHM     H4       HCA1     0.900000E-01   1.00800           0
      6511 LPSA6    30       ARHM     O4       OC311   -0.650000       15.9994           0
      6512 LPSA6    30       ARHM     HO4      HCP1     0.420000       1.00800           0
      6513 LPSA6    30       ARHM     C6       CC331   -0.270000       12.0110           0
      6514 LPSA6    30       ARHM     H61      HCA3     0.900000E-01   1.00800           0
      6515 LPSA6    30       ARHM     H62      HCA3     0.900000E-01   1.00800           0
      6516 LPSA6    30       ARHM     H63      HCA3     0.900000E-01   1.00800           0
      6517 LPSA6    31       BMANNA   C1       CC3162   0.290000       12.0110           0
      6518 LPSA6    31       BMANNA   H1       HCA1     0.900000E-01   1.00800           0
      6519 LPSA6    31       BMANNA   C5       CC3163   0.110000       12.0110           0
      6520 LPSA6    31       BMANNA   H5       HCA1     0.900000E-01   1.00800           0
      6521 LPSA6    31       BMANNA   O5       OC3C61  -0.400000       15.9994           0
      6522 LPSA6    31       BMANNA   C2       CC3161   0.700000E-01   12.0110           0
      6523 LPSA6    31       BMANNA   H2       HCA1     0.900000E-01   1.00800           0
      6524 LPSA6    31       BMANNA   N        NC2D1   -0.470000       14.0070           0
      6525 LPSA6    31       BMANNA   HN       HCP1     0.310000       1.00800           0
      6526 LPSA6    31       BMANNA   C        CC2O1    0.510000       12.0110           0
      6527 LPSA6    31       BMANNA   O        OC2D1   -0.510000       15.9994           0
      6528 LPSA6    31       BMANNA   CT       CC331   -0.270000       12.0110           0
      6529 LPSA6    31       BMANNA   HT1      HCA3     0.900000E-01   1.00800           0
      6530 LPSA6    31       BMANNA   HT2      HCA3     0.900000E-01   1.00800           0
      6531 LPSA6    31       BMANNA   HT3      HCA3     0.900000E-01   1.00800           0
      6532 LPSA6    31       BMANNA   C3       CC3161   0.140000       12.0110           0
      6533 LPSA6    31       BMANNA   H3       HCA1     0.900000E-01   1.00800           0
      6534 LPSA6    31       BMANNA   O3       OC311   -0.650000       15.9994           0
      6535 LPSA6    31       BMANNA   HO3      HCP1     0.420000       1.00800           0
      6536 LPSA6    31       BMANNA   C4       CC3161   0.140000       12.0110           0
      6537 LPSA6    31       BMANNA   H4       HCA1     0.900000E-01   1.00800           0
      6538 LPSA6    31       BMANNA   O4       OC311   -0.650000       15.9994           0
      6539 LPSA6    31       BMANNA   HO4      HCP1     0.420000       1.00800           0
      6540 LPSA6    31       BMANNA   C6       CC321    0.500000E-01   12.0110           0
      6541 LPSA6    31       BMANNA   H61      HCA2     0.900000E-01   1.00800           0
      6542 LPSA6    31       BMANNA   H62      HCA2     0.900000E-01   1.00800           0
      6543 LPSA6    31       BMANNA   O6       OC311   -0.650000       15.9994           0
      6544 LPSA6    31       BMANNA   HO6      HCP1     0.420000       1.00800           0
      6545 LPSA6    32       BGLCNA   C1       CC3162   0.290000       12.0110           0
      6546 LPSA6    32       BGLCNA   H1       HCA1     0.900000E-01   1.00800           0
      6547 LPSA6    32       BGLCNA   C5       CC3163   0.110000       12.0110           0
      6548 LPSA6    32       BGLCNA   H5       HCA1     0.900000E-01   1.00800           0
      6549 LPSA6    32       BGLCNA   O5       OC3C61  -0.400000       15.9994           0
      6550 LPSA6    32       BGLCNA   C2       CC3161   0.700000E-01   12.0110           0
      6551 LPSA6    32       BGLCNA   H2       HCA1     0.900000E-01   1.00800           0
      6552 LPSA6    32       BGLCNA   N        NC2D1   -0.470000       14.0070           0
      6553 LPSA6    32       BGLCNA   HN       HCP1     0.310000       1.00800           0
      6554 LPSA6    32       BGLCNA   C        CC2O1    0.510000       12.0110           0
      6555 LPSA6    32       BGLCNA   O        OC2D1   -0.510000       15.9994           0
      6556 LPSA6    32       BGLCNA   CT       CC331   -0.270000       12.0110           0
      6557 LPSA6    32       BGLCNA   HT1      HCA3     0.900000E-01   1.00800           0
      6558 LPSA6    32       BGLCNA   HT2      HCA3     0.900000E-01   1.00800           0
      6559 LPSA6    32       BGLCNA   HT3      HCA3     0.900000E-01   1.00800           0
      6560 LPSA6    32       BGLCNA   C3       CC3161   0.900000E-01   12.0110           0
      6561 LPSA6    32       BGLCNA   H3       HCA1     0.900000E-01   1.00800           0
      6562 LPSA6    32       BGLCNA   O3       OC301   -0.360000       15.9994           0
      6563 LPSA6    32       BGLCNA   C4       CC3161   0.140000       12.0110           0
      6564 LPSA6    32       BGLCNA   H4       HCA1     0.900000E-01   1.00800           0
      6565 LPSA6    32       BGLCNA   O4       OC311   -0.650000       15.9994           0
      6566 LPSA6    32       BGLCNA   HO4      HCP1     0.420000       1.00800           0
      6567 LPSA6    32       BGLCNA   C6       CC321    0.500000E-01   12.0110           0
      6568 LPSA6    32       BGLCNA   H61      HCA2     0.900000E-01   1.00800           0
      6569 LPSA6    32       BGLCNA   H62      HCA2     0.900000E-01   1.00800           0
      6570 LPSA6    32       BGLCNA   O6       OC311   -0.650000       15.9994           0
      6571 LPSA6    32       BGLCNA   HO6      HCP1     0.420000       1.00800           0
      6572 LPSA6    33       AGAL     C1       CC3162   0.290000       12.0110           0
      6573 LPSA6    33       AGAL     H1       HCA1     0.900000E-01   1.00800           0
      6574 LPSA6    33       AGAL     C5       CC3163   0.110000       12.0110           0
      6575 LPSA6    33       AGAL     H5       HCA1     0.900000E-01   1.00800           0
      6576 LPSA6    33       AGAL     O5       OC3C61  -0.400000       15.9994           0
      6577 LPSA6    33       AGAL     C2       CC3161   0.900000E-01   12.0110           0
      6578 LPSA6    33       AGAL     H2       HCA1     0.900000E-01   1.00800           0
      6579 LPSA6    33       AGAL     O2       OC301   -0.360000       15.9994           0
      6580 LPSA6    33       AGAL     C3       CC3161   0.140000       12.0110           0
      6581 LPSA6    33       AGAL     H3       HCA1     0.900000E-01   1.00800           0
      6582 LPSA6    33       AGAL     O3       OC311   -0.650000       15.9994           0
      6583 LPSA6    33       AGAL     HO3      HCP1     0.420000       1.00800           0
      6584 LPSA6    33       AGAL     C4       CC3161   0.140000       12.0110           0
      6585 LPSA6    33       AGAL     H4       HCA1     0.900000E-01   1.00800           0
      6586 LPSA6    33       AGAL     O4       OC311   -0.650000       15.9994           0
      6587 LPSA6    33       AGAL     HO4      HCP1     0.420000       1.00800           0
      6588 LPSA6    33       AGAL     C6       CC321    0.500000E-01   12.0110           0
      6589 LPSA6    33       AGAL     H61      HCA2     0.900000E-01   1.00800           0
      6590 LPSA6    33       AGAL     H62      HCA2     0.900000E-01   1.00800           0
      6591 LPSA6    33       AGAL     O6       OC311   -0.650000       15.9994           0
      6592 LPSA6    33       AGAL     HO6      HCP1     0.420000       1.00800           0
      6593 LPSA6    34       ARHM     C1       CC3162   0.290000       12.0110           0
      6594 LPSA6    34       ARHM     H1       HCA1     0.900000E-01   1.00800           0
      6595 LPSA6    34       ARHM     C5       CC3163   0.110000       12.0110           0
      6596 LPSA6    34       ARHM     H5       HCA1     0.900000E-01   1.00800           0
      6597 LPSA6    34       ARHM     O5       OC3C61  -0.400000       15.9994           0
      6598 LPSA6    34       ARHM     C2       CC3161   0.900000E-01   12.0110           0
      6599 LPSA6    34       ARHM     H2       HCA1     0.900000E-01   1.00800           0
      6600 LPSA6    34       ARHM     O2       OC301   -0.360000       15.9994           0
      6601 LPSA6    34       ARHM     C3       CC3161   0.140000       12.0110           0
      6602 LPSA6    34       ARHM     H3       HCA1     0.900000E-01   1.00800           0
      6603 LPSA6    34       ARHM     O3       OC311   -0.650000       15.9994           0
      6604 LPSA6    34       ARHM     HO3      HCP1     0.420000       1.00800           0
      6605 LPSA6    34       ARHM     C4       CC3161   0.140000       12.0110           0
      6606 LPSA6    34       ARHM     H4       HCA1     0.900000E-01   1.00800           0
      6607 LPSA6    34       ARHM     O4       OC311   -0.650000       15.9994           0
      6608 LPSA6    34       ARHM     HO4      HCP1     0.420000       1.00800           0
      6609 LPSA6    34       ARHM     C6       CC331   -0.270000       12.0110           0
      6610 LPSA6    34       ARHM     H61      HCA3     0.900000E-01   1.00800           0
      6611 LPSA6    34       ARHM     H62      HCA3     0.900000E-01   1.00800           0
      6612 LPSA6    34       ARHM     H63      HCA3     0.900000E-01   1.00800           0
      6613 LPSA6    35       ARHM     C1       CC3162   0.290000       12.0110           0
      6614 LPSA6    35       ARHM     H1       HCA1     0.900000E-01   1.00800           0
      6615 LPSA6    35       ARHM     C5       CC3163   0.110000       12.0110           0
      6616 LPSA6    35       ARHM     H5       HCA1     0.900000E-01   1.00800           0
      6617 LPSA6    35       ARHM     O5       OC3C61  -0.400000       15.9994           0
      6618 LPSA6    35       ARHM     C2       CC3161   0.900000E-01   12.0110           0
      6619 LPSA6    35       ARHM     H2       HCA1     0.900000E-01   1.00800           0
      6620 LPSA6    35       ARHM     O2       OC301   -0.360000       15.9994           0
      6621 LPSA6    35       ARHM     C3       CC3161   0.140000       12.0110           0
      6622 LPSA6    35       ARHM     H3       HCA1     0.900000E-01   1.00800           0
      6623 LPSA6    35       ARHM     O3       OC311   -0.650000       15.9994           0
      6624 LPSA6    35       ARHM     HO3      HCP1     0.420000       1.00800           0
      6625 LPSA6    35       ARHM     C4       CC3161   0.140000       12.0110           0
      6626 LPSA6    35       ARHM     H4       HCA1     0.900000E-01   1.00800           0
      6627 LPSA6    35       ARHM     O4       OC311   -0.650000       15.9994           0
      6628 LPSA6    35       ARHM     HO4      HCP1     0.420000       1.00800           0
      6629 LPSA6    35       ARHM     C6       CC331   -0.270000       12.0110           0
      6630 LPSA6    35       ARHM     H61      HCA3     0.900000E-01   1.00800           0
      6631 LPSA6    35       ARHM     H62      HCA3     0.900000E-01   1.00800           0
      6632 LPSA6    35       ARHM     H63      HCA3     0.900000E-01   1.00800           0
      6633 LPSA6    36       BMANNA   C1       CC3162   0.290000       12.0110           0
      6634 LPSA6    36       BMANNA   H1       HCA1     0.900000E-01   1.00800           0
      6635 LPSA6    36       BMANNA   C5       CC3163   0.110000       12.0110           0
      6636 LPSA6    36       BMANNA   H5       HCA1     0.900000E-01   1.00800           0
      6637 LPSA6    36       BMANNA   O5       OC3C61  -0.400000       15.9994           0
      6638 LPSA6    36       BMANNA   C2       CC3161   0.700000E-01   12.0110           0
      6639 LPSA6    36       BMANNA   H2       HCA1     0.900000E-01   1.00800           0
      6640 LPSA6    36       BMANNA   N        NC2D1   -0.470000       14.0070           0
      6641 LPSA6    36       BMANNA   HN       HCP1     0.310000       1.00800           0
      6642 LPSA6    36       BMANNA   C        CC2O1    0.510000       12.0110           0
      6643 LPSA6    36       BMANNA   O        OC2D1   -0.510000       15.9994           0
      6644 LPSA6    36       BMANNA   CT       CC331   -0.270000       12.0110           0
      6645 LPSA6    36       BMANNA   HT1      HCA3     0.900000E-01   1.00800           0
      6646 LPSA6    36       BMANNA   HT2      HCA3     0.900000E-01   1.00800           0
      6647 LPSA6    36       BMANNA   HT3      HCA3     0.900000E-01   1.00800           0
      6648 LPSA6    36       BMANNA   C3       CC3161   0.140000       12.0110           0
      6649 LPSA6    36       BMANNA   H3       HCA1     0.900000E-01   1.00800           0
      6650 LPSA6    36       BMANNA   O3       OC311   -0.650000       15.9994           0
      6651 LPSA6    36       BMANNA   HO3      HCP1     0.420000       1.00800           0
      6652 LPSA6    36       BMANNA   C4       CC3161   0.140000       12.0110           0
      6653 LPSA6    36       BMANNA   H4       HCA1     0.900000E-01   1.00800           0
      6654 LPSA6    36       BMANNA   O4       OC311   -0.650000       15.9994           0
      6655 LPSA6    36       BMANNA   HO4      HCP1     0.420000       1.00800           0
      6656 LPSA6    36       BMANNA   C6       CC321    0.500000E-01   12.0110           0
      6657 LPSA6    36       BMANNA   H61      HCA2     0.900000E-01   1.00800           0
      6658 LPSA6    36       BMANNA   H62      HCA2     0.900000E-01   1.00800           0
      6659 LPSA6    36       BMANNA   O6       OC311   -0.650000       15.9994           0
      6660 LPSA6    36       BMANNA   HO6      HCP1     0.420000       1.00800           0
      6661 LPSA7    1        ECLIPA   HB6S     HCA2     0.900000E-01   1.00800           0
      6662 LPSA7    1        ECLIPA   OB6      OC301   -0.360000       15.9994           0
      6663 LPSA7    1        ECLIPA   CB6      CC321     0.00000       12.0110           0
      6664 LPSA7    1        ECLIPA   HB6R     HCA2     0.900000E-01   1.00800           0
      6665 LPSA7    1        ECLIPA   CB5      CC3163   0.110000       12.0110           0
      6666 LPSA7    1        ECLIPA   OB5      OC3C61  -0.400000       15.9994           0
      6667 LPSA7    1        ECLIPA   HB5      HCA1     0.900000E-01   1.00800           0
      6668 LPSA7    1        ECLIPA   CB1      CC3162   0.290000       12.0110           0
      6669 LPSA7    1        ECLIPA   HB1      HCA1     0.900000E-01   1.00800           0
      6670 LPSA7    1        ECLIPA   OA6      OC301   -0.360000       15.9994           0
      6671 LPSA7    1        ECLIPA   CA6      CC321     0.00000       12.0110           0
      6672 LPSA7    1        ECLIPA   HA6R     HCA2     0.900000E-01   1.00800           0
      6673 LPSA7    1        ECLIPA   HA6S     HCA2     0.900000E-01   1.00800           0
      6674 LPSA7    1        ECLIPA   CB4      CC3161  -0.900000E-01   12.0110           0
      6675 LPSA7    1        ECLIPA   HB4      HCA1     0.900000E-01   1.00800           0
      6676 LPSA7    1        ECLIPA   OB4      OC30P   -0.400000       15.9994           0
      6677 LPSA7    1        ECLIPA   PB       PC        1.10000       30.9740           0
      6678 LPSA7    1        ECLIPA   OPB4     OC2DP   -0.900000       15.9994           0
      6679 LPSA7    1        ECLIPA   OPB3     OC2DP   -0.900000       15.9994           0
      6680 LPSA7    1        ECLIPA   OPB2     OC2DP   -0.900000       15.9994           0
      6681 LPSA7    1        ECLIPA   CB3      CC3161   0.170000       12.0110           0
      6682 LPSA7    1        ECLIPA   OB3      OC301   -0.490000       15.9994           0
      6683 LPSA7    1        ECLIPA   HB3      HCA1     0.900000E-01   1.00800           0
      6684 LPSA7    1        ECLIPA   C71      CL       0.900000       12.0110           0
      6685 LPSA7    1        ECLIPA   O71      OBL     -0.630000       15.9994           0
      6686 LPSA7    1        ECLIPA   C72      CTL2    -0.220000       12.0110           0
      6687 LPSA7    1        ECLIPA   H72R     HAL2     0.900000E-01   1.00800           0
      6688 LPSA7    1        ECLIPA   H72S     HAL2     0.900000E-01   1.00800           0
      6689 LPSA7    1        ECLIPA   CB2      CC3161   0.700000E-01   12.0110           0
      6690 LPSA7    1        ECLIPA   HB2      HCA1     0.900000E-01   1.00800           0
      6691 LPSA7    1        ECLIPA   NB2      NC2D1   -0.470000       14.0070           0
      6692 LPSA7    1        ECLIPA   HNB2     HCP1     0.310000       1.00800           0
      6693 LPSA7    1        ECLIPA   CA4      CC3161   0.140000       12.0110           0
      6694 LPSA7    1        ECLIPA   HA4      HCA1     0.900000E-01   1.00800           0
      6695 LPSA7    1        ECLIPA   OA4      OC311   -0.650000       15.9994           0
      6696 LPSA7    1        ECLIPA   HOA4     HCP1     0.420000       1.00800           0
      6697 LPSA7    1        ECLIPA   CA5      CC3163   0.110000       12.0110           0
      6698 LPSA7    1        ECLIPA   HA5      HCA1     0.900000E-01   1.00800           0
      6699 LPSA7    1        ECLIPA   OA5      OC3C61  -0.400000       15.9994           0
      6700 LPSA7    1        ECLIPA   CA1      CC3162   0.110000       12.0110           0
      6701 LPSA7    1        ECLIPA   HA1      HCA1     0.900000E-01   1.00800           0
      6702 LPSA7    1        ECLIPA   OA1      OC30P   -0.400000       15.9994           0
      6703 LPSA7    1        ECLIPA   OPA2     OC2DP   -0.900000       15.9994           0
      6704 LPSA7    1        ECLIPA   OPA3     OC2DP   -0.900000       15.9994           0
      6705 LPSA7    1        ECLIPA   OPA4     OC2DP   -0.900000       15.9994           0
      6706 LPSA7    1        ECLIPA   PA       PC        1.10000       30.9740           0
      6707 LPSA7    1        ECLIPA   CA3      CC3161   0.170000       12.0110           0
      6708 LPSA7    1        ECLIPA   HA3      HCA1     0.900000E-01   1.00800           0
      6709 LPSA7    1        ECLIPA   OA3      OC301   -0.490000       15.9994           0
      6710 LPSA7    1        ECLIPA   C31      CL       0.900000       12.0110           0
      6711 LPSA7    1        ECLIPA   O31      OBL     -0.630000       15.9994           0
      6712 LPSA7    1        ECLIPA   C32      CTL2    -0.220000       12.0110           0
      6713 LPSA7    1        ECLIPA   H32R     HAL2     0.900000E-01   1.00800           0
      6714 LPSA7    1        ECLIPA   H32S     HAL2     0.900000E-01   1.00800           0
      6715 LPSA7    1        ECLIPA   CA2      CC3161   0.700000E-01   12.0110           0
      6716 LPSA7    1        ECLIPA   HA2      HCA1     0.900000E-01   1.00800           0
      6717 LPSA7    1        ECLIPA   NA2      NC2D1   -0.470000       14.0070           0
      6718 LPSA7    1        ECLIPA   HNA2     HCP1     0.310000       1.00800           0
      6719 LPSA7    1        ECLIPA   C73      CTL1     0.170000       12.0110           0
      6720 LPSA7    1        ECLIPA   H73R     HAL1     0.900000E-01   1.00800           0
      6721 LPSA7    1        ECLIPA   O73      OSL     -0.490000       15.9994           0
      6722 LPSA7    1        ECLIPA   C81      CL       0.900000       12.0110           0
      6723 LPSA7    1        ECLIPA   O81      OBL     -0.630000       15.9994           0
      6724 LPSA7    1        ECLIPA   C82      CTL2    -0.220000       12.0110           0
      6725 LPSA7    1        ECLIPA   H82R     HAL2     0.900000E-01   1.00800           0
      6726 LPSA7    1        ECLIPA   H82S     HAL2     0.900000E-01   1.00800           0
      6727 LPSA7    1        ECLIPA   C83      CTL2    -0.180000       12.0110           0
      6728 LPSA7    1        ECLIPA   H83R     HAL2     0.900000E-01   1.00800           0
      6729 LPSA7    1        ECLIPA   H83S     HAL2     0.900000E-01   1.00800           0
      6730 LPSA7    1        ECLIPA   C84      CTL2    -0.180000       12.0110           0
      6731 LPSA7    1        ECLIPA   H84R     HAL2     0.900000E-01   1.00800           0
      6732 LPSA7    1        ECLIPA   H84S     HAL2     0.900000E-01   1.00800           0
      6733 LPSA7    1        ECLIPA   C85      CTL2    -0.180000       12.0110           0
      6734 LPSA7    1        ECLIPA   H85R     HAL2     0.900000E-01   1.00800           0
      6735 LPSA7    1        ECLIPA   H85S     HAL2     0.900000E-01   1.00800           0
      6736 LPSA7    1        ECLIPA   C86      CTL2    -0.180000       12.0110           0
      6737 LPSA7    1        ECLIPA   H86R     HAL2     0.900000E-01   1.00800           0
      6738 LPSA7    1        ECLIPA   H86S     HAL2     0.900000E-01   1.00800           0
      6739 LPSA7    1        ECLIPA   C87      CTL2    -0.180000       12.0110           0
      6740 LPSA7    1        ECLIPA   H87R     HAL2     0.900000E-01   1.00800           0
      6741 LPSA7    1        ECLIPA   H87S     HAL2     0.900000E-01   1.00800           0
      6742 LPSA7    1        ECLIPA   C88      CTL2    -0.180000       12.0110           0
      6743 LPSA7    1        ECLIPA   H88R     HAL2     0.900000E-01   1.00800           0
      6744 LPSA7    1        ECLIPA   H88S     HAL2     0.900000E-01   1.00800           0
      6745 LPSA7    1        ECLIPA   C89      CTL2    -0.180000       12.0110           0
      6746 LPSA7    1        ECLIPA   H89R     HAL2     0.900000E-01   1.00800           0
      6747 LPSA7    1        ECLIPA   H89S     HAL2     0.900000E-01   1.00800           0
      6748 LPSA7    1        ECLIPA   C810     CTL2    -0.180000       12.0110           0
      6749 LPSA7    1        ECLIPA   H810R    HAL2     0.900000E-01   1.00800           0
      6750 LPSA7    1        ECLIPA   H810S    HAL2     0.900000E-01   1.00800           0
      6751 LPSA7    1        ECLIPA   C811     CTL2    -0.180000       12.0110           0
      6752 LPSA7    1        ECLIPA   H811R    HAL2     0.900000E-01   1.00800           0
      6753 LPSA7    1        ECLIPA   H811S    HAL2     0.900000E-01   1.00800           0
      6754 LPSA7    1        ECLIPA   C812     CTL2    -0.180000       12.0110           0
      6755 LPSA7    1        ECLIPA   H812R    HAL2     0.900000E-01   1.00800           0
      6756 LPSA7    1        ECLIPA   H812S    HAL2     0.900000E-01   1.00800           0
      6757 LPSA7    1        ECLIPA   C813     CTL2    -0.180000       12.0110           0
      6758 LPSA7    1        ECLIPA   H813R    HAL2     0.900000E-01   1.00800           0
      6759 LPSA7    1        ECLIPA   H813S    HAL2     0.900000E-01   1.00800           0
      6760 LPSA7    1        ECLIPA   C814     CTL3    -0.270000       12.0110           0
      6761 LPSA7    1        ECLIPA   H814R    HAL3     0.900000E-01   1.00800           0
      6762 LPSA7    1        ECLIPA   H814S    HAL3     0.900000E-01   1.00800           0
      6763 LPSA7    1        ECLIPA   H814T    HAL3     0.900000E-01   1.00800           0
      6764 LPSA7    1        ECLIPA   C74      CTL2    -0.180000       12.0110           0
      6765 LPSA7    1        ECLIPA   H74R     HAL2     0.900000E-01   1.00800           0
      6766 LPSA7    1        ECLIPA   H74S     HAL2     0.900000E-01   1.00800           0
      6767 LPSA7    1        ECLIPA   C75      CTL2    -0.180000       12.0110           0
      6768 LPSA7    1        ECLIPA   H75R     HAL2     0.900000E-01   1.00800           0
      6769 LPSA7    1        ECLIPA   H75S     HAL2     0.900000E-01   1.00800           0
      6770 LPSA7    1        ECLIPA   C76      CTL2    -0.180000       12.0110           0
      6771 LPSA7    1        ECLIPA   H76R     HAL2     0.900000E-01   1.00800           0
      6772 LPSA7    1        ECLIPA   H76S     HAL2     0.900000E-01   1.00800           0
      6773 LPSA7    1        ECLIPA   C77      CTL2    -0.180000       12.0110           0
      6774 LPSA7    1        ECLIPA   H77R     HAL2     0.900000E-01   1.00800           0
      6775 LPSA7    1        ECLIPA   H77S     HAL2     0.900000E-01   1.00800           0
      6776 LPSA7    1        ECLIPA   C78      CTL2    -0.180000       12.0110           0
      6777 LPSA7    1        ECLIPA   H78R     HAL2     0.900000E-01   1.00800           0
      6778 LPSA7    1        ECLIPA   H78S     HAL2     0.900000E-01   1.00800           0
      6779 LPSA7    1        ECLIPA   C79      CTL2    -0.180000       12.0110           0
      6780 LPSA7    1        ECLIPA   H79R     HAL2     0.900000E-01   1.00800           0
      6781 LPSA7    1        ECLIPA   H79S     HAL2     0.900000E-01   1.00800           0
      6782 LPSA7    1        ECLIPA   C710     CTL2    -0.180000       12.0110           0
      6783 LPSA7    1        ECLIPA   H710R    HAL2     0.900000E-01   1.00800           0
      6784 LPSA7    1        ECLIPA   H710S    HAL2     0.900000E-01   1.00800           0
      6785 LPSA7    1        ECLIPA   C711     CTL2    -0.180000       12.0110           0
      6786 LPSA7    1        ECLIPA   H711R    HAL2     0.900000E-01   1.00800           0
      6787 LPSA7    1        ECLIPA   H711S    HAL2     0.900000E-01   1.00800           0
      6788 LPSA7    1        ECLIPA   C712     CTL2    -0.180000       12.0110           0
      6789 LPSA7    1        ECLIPA   H712R    HAL2     0.900000E-01   1.00800           0
      6790 LPSA7    1        ECLIPA   H712S    HAL2     0.900000E-01   1.00800           0
      6791 LPSA7    1        ECLIPA   C713     CTL2    -0.180000       12.0110           0
      6792 LPSA7    1        ECLIPA   H713R    HAL2     0.900000E-01   1.00800           0
      6793 LPSA7    1        ECLIPA   H713S    HAL2     0.900000E-01   1.00800           0
      6794 LPSA7    1        ECLIPA   C714     CTL3    -0.270000       12.0110           0
      6795 LPSA7    1        ECLIPA   H714R    HAL3     0.900000E-01   1.00800           0
      6796 LPSA7    1        ECLIPA   H714S    HAL3     0.900000E-01   1.00800           0
      6797 LPSA7    1        ECLIPA   H714T    HAL3     0.900000E-01   1.00800           0
      6798 LPSA7    1        ECLIPA   C51      CC2O1    0.550000       12.0110           0
      6799 LPSA7    1        ECLIPA   O51      OC2D1   -0.550000       15.9994           0
      6800 LPSA7    1        ECLIPA   C52      CTL2    -0.180000       12.0110           0
      6801 LPSA7    1        ECLIPA   H52R     HAL2     0.900000E-01   1.00800           0
      6802 LPSA7    1        ECLIPA   H52S     HAL2     0.900000E-01   1.00800           0
      6803 LPSA7    1        ECLIPA   C53      CTL1     0.170000       12.0110           0
      6804 LPSA7    1        ECLIPA   H53R     HAL1     0.900000E-01   1.00800           0
      6805 LPSA7    1        ECLIPA   O53      OSL     -0.490000       15.9994           0
      6806 LPSA7    1        ECLIPA   C61      CL       0.900000       12.0110           0
      6807 LPSA7    1        ECLIPA   O61      OBL     -0.630000       15.9994           0
      6808 LPSA7    1        ECLIPA   C62      CTL2    -0.220000       12.0110           0
      6809 LPSA7    1        ECLIPA   H62R     HAL2     0.900000E-01   1.00800           0
      6810 LPSA7    1        ECLIPA   H62S     HAL2     0.900000E-01   1.00800           0
      6811 LPSA7    1        ECLIPA   C63      CTL2    -0.180000       12.0110           0
      6812 LPSA7    1        ECLIPA   H63R     HAL2     0.900000E-01   1.00800           0
      6813 LPSA7    1        ECLIPA   H63S     HAL2     0.900000E-01   1.00800           0
      6814 LPSA7    1        ECLIPA   C64      CTL2    -0.180000       12.0110           0
      6815 LPSA7    1        ECLIPA   H64R     HAL2     0.900000E-01   1.00800           0
      6816 LPSA7    1        ECLIPA   H64S     HAL2     0.900000E-01   1.00800           0
      6817 LPSA7    1        ECLIPA   C65      CTL2    -0.180000       12.0110           0
      6818 LPSA7    1        ECLIPA   H65R     HAL2     0.900000E-01   1.00800           0
      6819 LPSA7    1        ECLIPA   H65S     HAL2     0.900000E-01   1.00800           0
      6820 LPSA7    1        ECLIPA   C66      CTL2    -0.180000       12.0110           0
      6821 LPSA7    1        ECLIPA   H66R     HAL2     0.900000E-01   1.00800           0
      6822 LPSA7    1        ECLIPA   H66S     HAL2     0.900000E-01   1.00800           0
      6823 LPSA7    1        ECLIPA   C67      CTL2    -0.180000       12.0110           0
      6824 LPSA7    1        ECLIPA   H67R     HAL2     0.900000E-01   1.00800           0
      6825 LPSA7    1        ECLIPA   H67S     HAL2     0.900000E-01   1.00800           0
      6826 LPSA7    1        ECLIPA   C68      CTL2    -0.180000       12.0110           0
      6827 LPSA7    1        ECLIPA   H68R     HAL2     0.900000E-01   1.00800           0
      6828 LPSA7    1        ECLIPA   H68S     HAL2     0.900000E-01   1.00800           0
      6829 LPSA7    1        ECLIPA   C69      CTL2    -0.180000       12.0110           0
      6830 LPSA7    1        ECLIPA   H69R     HAL2     0.900000E-01   1.00800           0
      6831 LPSA7    1        ECLIPA   H69S     HAL2     0.900000E-01   1.00800           0
      6832 LPSA7    1        ECLIPA   C610     CTL2    -0.180000       12.0110           0
      6833 LPSA7    1        ECLIPA   H610R    HAL2     0.900000E-01   1.00800           0
      6834 LPSA7    1        ECLIPA   H610S    HAL2     0.900000E-01   1.00800           0
      6835 LPSA7    1        ECLIPA   C611     CTL2    -0.180000       12.0110           0
      6836 LPSA7    1        ECLIPA   H611R    HAL2     0.900000E-01   1.00800           0
      6837 LPSA7    1        ECLIPA   H611S    HAL2     0.900000E-01   1.00800           0
      6838 LPSA7    1        ECLIPA   C612     CTL3    -0.270000       12.0110           0
      6839 LPSA7    1        ECLIPA   H612R    HAL3     0.900000E-01   1.00800           0
      6840 LPSA7    1        ECLIPA   H612S    HAL3     0.900000E-01   1.00800           0
      6841 LPSA7    1        ECLIPA   H612T    HAL3     0.900000E-01   1.00800           0
      6842 LPSA7    1        ECLIPA   C54      CTL2    -0.180000       12.0110           0
      6843 LPSA7    1        ECLIPA   H54R     HAL2     0.900000E-01   1.00800           0
      6844 LPSA7    1        ECLIPA   H54S     HAL2     0.900000E-01   1.00800           0
      6845 LPSA7    1        ECLIPA   C55      CTL2    -0.180000       12.0110           0
      6846 LPSA7    1        ECLIPA   H55R     HAL2     0.900000E-01   1.00800           0
      6847 LPSA7    1        ECLIPA   H55S     HAL2     0.900000E-01   1.00800           0
      6848 LPSA7    1        ECLIPA   C56      CTL2    -0.180000       12.0110           0
      6849 LPSA7    1        ECLIPA   H56R     HAL2     0.900000E-01   1.00800           0
      6850 LPSA7    1        ECLIPA   H56S     HAL2     0.900000E-01   1.00800           0
      6851 LPSA7    1        ECLIPA   C57      CTL2    -0.180000       12.0110           0
      6852 LPSA7    1        ECLIPA   H57R     HAL2     0.900000E-01   1.00800           0
      6853 LPSA7    1        ECLIPA   H57S     HAL2     0.900000E-01   1.00800           0
      6854 LPSA7    1        ECLIPA   C58      CTL2    -0.180000       12.0110           0
      6855 LPSA7    1        ECLIPA   H58R     HAL2     0.900000E-01   1.00800           0
      6856 LPSA7    1        ECLIPA   H58S     HAL2     0.900000E-01   1.00800           0
      6857 LPSA7    1        ECLIPA   C59      CTL2    -0.180000       12.0110           0
      6858 LPSA7    1        ECLIPA   H59R     HAL2     0.900000E-01   1.00800           0
      6859 LPSA7    1        ECLIPA   H59S     HAL2     0.900000E-01   1.00800           0
      6860 LPSA7    1        ECLIPA   C510     CTL2    -0.180000       12.0110           0
      6861 LPSA7    1        ECLIPA   H510R    HAL2     0.900000E-01   1.00800           0
      6862 LPSA7    1        ECLIPA   H510S    HAL2     0.900000E-01   1.00800           0
      6863 LPSA7    1        ECLIPA   C511     CTL2    -0.180000       12.0110           0
      6864 LPSA7    1        ECLIPA   H511R    HAL2     0.900000E-01   1.00800           0
      6865 LPSA7    1        ECLIPA   H511S    HAL2     0.900000E-01   1.00800           0
      6866 LPSA7    1        ECLIPA   C512     CTL2    -0.180000       12.0110           0
      6867 LPSA7    1        ECLIPA   H512R    HAL2     0.900000E-01   1.00800           0
      6868 LPSA7    1        ECLIPA   H512S    HAL2     0.900000E-01   1.00800           0
      6869 LPSA7    1        ECLIPA   C513     CTL2    -0.180000       12.0110           0
      6870 LPSA7    1        ECLIPA   H513R    HAL2     0.900000E-01   1.00800           0
      6871 LPSA7    1        ECLIPA   H513S    HAL2     0.900000E-01   1.00800           0
      6872 LPSA7    1        ECLIPA   C514     CTL3    -0.270000       12.0110           0
      6873 LPSA7    1        ECLIPA   H514R    HAL3     0.900000E-01   1.00800           0
      6874 LPSA7    1        ECLIPA   H514S    HAL3     0.900000E-01   1.00800           0
      6875 LPSA7    1        ECLIPA   H514T    HAL3     0.900000E-01   1.00800           0
      6876 LPSA7    1        ECLIPA   C33      CTL1     0.140000       12.0110           0
      6877 LPSA7    1        ECLIPA   H33R     HAL1     0.900000E-01   1.00800           0
      6878 LPSA7    1        ECLIPA   O33      OH1     -0.660000       15.9994           0
      6879 LPSA7    1        ECLIPA   HO33     H        0.430000       1.00800           0
      6880 LPSA7    1        ECLIPA   C34      CTL2    -0.180000       12.0110           0
      6881 LPSA7    1        ECLIPA   H34R     HAL2     0.900000E-01   1.00800           0
      6882 LPSA7    1        ECLIPA   H34S     HAL2     0.900000E-01   1.00800           0
      6883 LPSA7    1        ECLIPA   C35      CTL2    -0.180000       12.0110           0
      6884 LPSA7    1        ECLIPA   H35R     HAL2     0.900000E-01   1.00800           0
      6885 LPSA7    1        ECLIPA   H35S     HAL2     0.900000E-01   1.00800           0
      6886 LPSA7    1        ECLIPA   C36      CTL2    -0.180000       12.0110           0
      6887 LPSA7    1        ECLIPA   H36R     HAL2     0.900000E-01   1.00800           0
      6888 LPSA7    1        ECLIPA   H36S     HAL2     0.900000E-01   1.00800           0
      6889 LPSA7    1        ECLIPA   C37      CTL2    -0.180000       12.0110           0
      6890 LPSA7    1        ECLIPA   H37R     HAL2     0.900000E-01   1.00800           0
      6891 LPSA7    1        ECLIPA   H37S     HAL2     0.900000E-01   1.00800           0
      6892 LPSA7    1        ECLIPA   C38      CTL2    -0.180000       12.0110           0
      6893 LPSA7    1        ECLIPA   H38R     HAL2     0.900000E-01   1.00800           0
      6894 LPSA7    1        ECLIPA   H38S     HAL2     0.900000E-01   1.00800           0
      6895 LPSA7    1        ECLIPA   C39      CTL2    -0.180000       12.0110           0
      6896 LPSA7    1        ECLIPA   H39R     HAL2     0.900000E-01   1.00800           0
      6897 LPSA7    1        ECLIPA   H39S     HAL2     0.900000E-01   1.00800           0
      6898 LPSA7    1        ECLIPA   C310     CTL2    -0.180000       12.0110           0
      6899 LPSA7    1        ECLIPA   H310R    HAL2     0.900000E-01   1.00800           0
      6900 LPSA7    1        ECLIPA   H310S    HAL2     0.900000E-01   1.00800           0
      6901 LPSA7    1        ECLIPA   C311     CTL2    -0.180000       12.0110           0
      6902 LPSA7    1        ECLIPA   H311R    HAL2     0.900000E-01   1.00800           0
      6903 LPSA7    1        ECLIPA   H311S    HAL2     0.900000E-01   1.00800           0
      6904 LPSA7    1        ECLIPA   C312     CTL2    -0.180000       12.0110           0
      6905 LPSA7    1        ECLIPA   H312R    HAL2     0.900000E-01   1.00800           0
      6906 LPSA7    1        ECLIPA   H312S    HAL2     0.900000E-01   1.00800           0
      6907 LPSA7    1        ECLIPA   C313     CTL2    -0.180000       12.0110           0
      6908 LPSA7    1        ECLIPA   H313R    HAL2     0.900000E-01   1.00800           0
      6909 LPSA7    1        ECLIPA   H313S    HAL2     0.900000E-01   1.00800           0
      6910 LPSA7    1        ECLIPA   C314     CTL3    -0.270000       12.0110           0
      6911 LPSA7    1        ECLIPA   H314R    HAL3     0.900000E-01   1.00800           0
      6912 LPSA7    1        ECLIPA   H314S    HAL3     0.900000E-01   1.00800           0
      6913 LPSA7    1        ECLIPA   H314T    HAL3     0.900000E-01   1.00800           0
      6914 LPSA7    1        ECLIPA   C11      CC2O1    0.550000       12.0110           0
      6915 LPSA7    1        ECLIPA   O11      OC2D1   -0.550000       15.9994           0
      6916 LPSA7    1        ECLIPA   C12      CTL2    -0.180000       12.0110           0
      6917 LPSA7    1        ECLIPA   H12R     HAL2     0.900000E-01   1.00800           0
      6918 LPSA7    1        ECLIPA   H12S     HAL2     0.900000E-01   1.00800           0
      6919 LPSA7    1        ECLIPA   C13      CTL1     0.140000       12.0110           0
      6920 LPSA7    1        ECLIPA   H13R     HAL1     0.900000E-01   1.00800           0
      6921 LPSA7    1        ECLIPA   O13      OH1     -0.660000       15.9994           0
      6922 LPSA7    1        ECLIPA   HO13     H        0.430000       1.00800           0
      6923 LPSA7    1        ECLIPA   C14      CTL2    -0.180000       12.0110           0
      6924 LPSA7    1        ECLIPA   H14R     HAL2     0.900000E-01   1.00800           0
      6925 LPSA7    1        ECLIPA   H14S     HAL2     0.900000E-01   1.00800           0
      6926 LPSA7    1        ECLIPA   C15      CTL2    -0.180000       12.0110           0
      6927 LPSA7    1        ECLIPA   H15R     HAL2     0.900000E-01   1.00800           0
      6928 LPSA7    1        ECLIPA   H15S     HAL2     0.900000E-01   1.00800           0
      6929 LPSA7    1        ECLIPA   C16      CTL2    -0.180000       12.0110           0
      6930 LPSA7    1        ECLIPA   H16R     HAL2     0.900000E-01   1.00800           0
      6931 LPSA7    1        ECLIPA   H16S     HAL2     0.900000E-01   1.00800           0
      6932 LPSA7    1        ECLIPA   C17      CTL2    -0.180000       12.0110           0
      6933 LPSA7    1        ECLIPA   H17R     HAL2     0.900000E-01   1.00800           0
      6934 LPSA7    1        ECLIPA   H17S     HAL2     0.900000E-01   1.00800           0
      6935 LPSA7    1        ECLIPA   C18      CTL2    -0.180000       12.0110           0
      6936 LPSA7    1        ECLIPA   H18R     HAL2     0.900000E-01   1.00800           0
      6937 LPSA7    1        ECLIPA   H18S     HAL2     0.900000E-01   1.00800           0
      6938 LPSA7    1        ECLIPA   C19      CTL2    -0.180000       12.0110           0
      6939 LPSA7    1        ECLIPA   H19R     HAL2     0.900000E-01   1.00800           0
      6940 LPSA7    1        ECLIPA   H19S     HAL2     0.900000E-01   1.00800           0
      6941 LPSA7    1        ECLIPA   C110     CTL2    -0.180000       12.0110           0
      6942 LPSA7    1        ECLIPA   H110R    HAL2     0.900000E-01   1.00800           0
      6943 LPSA7    1        ECLIPA   H110S    HAL2     0.900000E-01   1.00800           0
      6944 LPSA7    1        ECLIPA   C111     CTL2    -0.180000       12.0110           0
      6945 LPSA7    1        ECLIPA   H111R    HAL2     0.900000E-01   1.00800           0
      6946 LPSA7    1        ECLIPA   H111S    HAL2     0.900000E-01   1.00800           0
      6947 LPSA7    1        ECLIPA   C112     CTL2    -0.180000       12.0110           0
      6948 LPSA7    1        ECLIPA   H112R    HAL2     0.900000E-01   1.00800           0
      6949 LPSA7    1        ECLIPA   H112S    HAL2     0.900000E-01   1.00800           0
      6950 LPSA7    1        ECLIPA   C113     CTL2    -0.180000       12.0110           0
      6951 LPSA7    1        ECLIPA   H113R    HAL2     0.900000E-01   1.00800           0
      6952 LPSA7    1        ECLIPA   H113S    HAL2     0.900000E-01   1.00800           0
      6953 LPSA7    1        ECLIPA   C114     CTL3    -0.270000       12.0110           0
      6954 LPSA7    1        ECLIPA   H114R    HAL3     0.900000E-01   1.00800           0
      6955 LPSA7    1        ECLIPA   H114S    HAL3     0.900000E-01   1.00800           0
      6956 LPSA7    1        ECLIPA   H114T    HAL3     0.900000E-01   1.00800           0
      6957 LPSA7    2        AKDO     C1       CC2O2    0.300000       12.0110           0
      6958 LPSA7    2        AKDO     O11      OC2D2   -0.600000       15.9994           0
      6959 LPSA7    2        AKDO     O12      OC2D2   -0.600000       15.9994           0
      6960 LPSA7    2        AKDO     C2       CC3062   0.280000       12.0110           0
      6961 LPSA7    2        AKDO     C6       CC3163   0.110000       12.0110           0
      6962 LPSA7    2        AKDO     H6       HCA1     0.900000E-01   1.00800           0
      6963 LPSA7    2        AKDO     O6       OC3C61  -0.400000       15.9994           0
      6964 LPSA7    2        AKDO     C3       CC3261  -0.180000       12.0110           0
      6965 LPSA7    2        AKDO     H31      HCA2     0.900000E-01   1.00800           0
      6966 LPSA7    2        AKDO     H32      HCA2     0.900000E-01   1.00800           0
      6967 LPSA7    2        AKDO     C4       CC3161   0.900000E-01   12.0110           0
      6968 LPSA7    2        AKDO     H4       HCA1     0.900000E-01   1.00800           0
      6969 LPSA7    2        AKDO     O4       OC301   -0.360000       15.9994           0
      6970 LPSA7    2        AKDO     C5       CC3161   0.900000E-01   12.0110           0
      6971 LPSA7    2        AKDO     H5       HCA1     0.900000E-01   1.00800           0
      6972 LPSA7    2        AKDO     O5       OC301   -0.360000       15.9994           0
      6973 LPSA7    2        AKDO     C7       CC312    0.140000       12.0110           0
      6974 LPSA7    2        AKDO     H7       HCA1     0.900000E-01   1.00800           0
      6975 LPSA7    2        AKDO     O7       OC311   -0.650000       15.9994           0
      6976 LPSA7    2        AKDO     HO7      HCP1     0.420000       1.00800           0
      6977 LPSA7    2        AKDO     C8       CC322    0.500000E-01   12.0110           0
      6978 LPSA7    2        AKDO     H81      HCA2     0.900000E-01   1.00800           0
      6979 LPSA7    2        AKDO     H82      HCA2     0.900000E-01   1.00800           0
      6980 LPSA7    2        AKDO     O8       OC311   -0.650000       15.9994           0
      6981 LPSA7    2        AKDO     HO8      HCP1     0.420000       1.00800           0
      6982 LPSA7    3        AKDO     C1       CC2O2    0.300000       12.0110           0
      6983 LPSA7    3        AKDO     O11      OC2D2   -0.600000       15.9994           0
      6984 LPSA7    3        AKDO     O12      OC2D2   -0.600000       15.9994           0
      6985 LPSA7    3        AKDO     C2       CC3062   0.280000       12.0110           0
      6986 LPSA7    3        AKDO     C6       CC3163   0.110000       12.0110           0
      6987 LPSA7    3        AKDO     H6       HCA1     0.900000E-01   1.00800           0
      6988 LPSA7    3        AKDO     O6       OC3C61  -0.400000       15.9994           0
      6989 LPSA7    3        AKDO     C3       CC3261  -0.180000       12.0110           0
      6990 LPSA7    3        AKDO     H31      HCA2     0.900000E-01   1.00800           0
      6991 LPSA7    3        AKDO     H32      HCA2     0.900000E-01   1.00800           0
      6992 LPSA7    3        AKDO     C4       CC3161   0.140000       12.0110           0
      6993 LPSA7    3        AKDO     H4       HCA1     0.900000E-01   1.00800           0
      6994 LPSA7    3        AKDO     O4       OC311   -0.650000       15.9994           0
      6995 LPSA7    3        AKDO     HO4      HCP1     0.420000       1.00800           0
      6996 LPSA7    3        AKDO     C5       CC3161   0.140000       12.0110           0
      6997 LPSA7    3        AKDO     H5       HCA1     0.900000E-01   1.00800           0
      6998 LPSA7    3        AKDO     O5       OC311   -0.650000       15.9994           0
      6999 LPSA7    3        AKDO     HO5      HCP1     0.420000       1.00800           0
      7000 LPSA7    3        AKDO     C7       CC312    0.140000       12.0110           0
      7001 LPSA7    3        AKDO     H7       HCA1     0.900000E-01   1.00800           0
      7002 LPSA7    3        AKDO     O7       OC311   -0.650000       15.9994           0
      7003 LPSA7    3        AKDO     HO7      HCP1     0.420000       1.00800           0
      7004 LPSA7    3        AKDO     C8       CC322    0.500000E-01   12.0110           0
      7005 LPSA7    3        AKDO     H81      HCA2     0.900000E-01   1.00800           0
      7006 LPSA7    3        AKDO     H82      HCA2     0.900000E-01   1.00800           0
      7007 LPSA7    3        AKDO     O8       OC311   -0.650000       15.9994           0
      7008 LPSA7    3        AKDO     HO8      HCP1     0.420000       1.00800           0
      7009 LPSA7    4        AHEP     C1       CC3162   0.290000       12.0110           0
      7010 LPSA7    4        AHEP     H1       HCA1     0.900000E-01   1.00800           0
      7011 LPSA7    4        AHEP     C5       CC3163   0.110000       12.0110           0
      7012 LPSA7    4        AHEP     H5       HCA1     0.900000E-01   1.00800           0
      7013 LPSA7    4        AHEP     O5       OC3C61  -0.400000       15.9994           0
      7014 LPSA7    4        AHEP     C2       CC3161   0.140000       12.0110           0
      7015 LPSA7    4        AHEP     H2       HCA1     0.900000E-01   1.00800           0
      7016 LPSA7    4        AHEP     O2       OC311   -0.650000       15.9994           0
      7017 LPSA7    4        AHEP     HO2      HCP1     0.420000       1.00800           0
      7018 LPSA7    4        AHEP     C3       CC3161   0.900000E-01   12.0110           0
      7019 LPSA7    4        AHEP     H3       HCA1     0.900000E-01   1.00800           0
      7020 LPSA7    4        AHEP     O3       OC301   -0.360000       15.9994           0
      7021 LPSA7    4        AHEP     C4       CC3161  -0.900000E-01   12.0110           0
      7022 LPSA7    4        AHEP     H4       HCA1     0.900000E-01   1.00800           0
      7023 LPSA7    4        AHEP     O4       OC30P   -0.400000       15.9994           0
      7024 LPSA7    4        AHEP     P4       PC        1.10000       30.9740           0
      7025 LPSA7    4        AHEP     OP42     OC2DP   -0.900000       15.9994           0
      7026 LPSA7    4        AHEP     OP43     OC2DP   -0.900000       15.9994           0
      7027 LPSA7    4        AHEP     OP44     OC2DP   -0.900000       15.9994           0
      7028 LPSA7    4        AHEP     C6       CC312    0.140000       12.0110           0
      7029 LPSA7    4        AHEP     H6       HCA1     0.900000E-01   1.00800           0
      7030 LPSA7    4        AHEP     O6       OC311   -0.650000       15.9994           0
      7031 LPSA7    4        AHEP     HO6      HCP1     0.420000       1.00800           0
      7032 LPSA7    4        AHEP     C7       CC322    0.500000E-01   12.0110           0
      7033 LPSA7    4        AHEP     H71      HCA2     0.900000E-01   1.00800           0
      7034 LPSA7    4        AHEP     H72      HCA2     0.900000E-01   1.00800           0
      7035 LPSA7    4        AHEP     O7       OC311   -0.650000       15.9994           0
      7036 LPSA7    4        AHEP     HO7      HCP1     0.420000       1.00800           0
      7037 LPSA7    5        AHEP     C1       CC3162   0.290000       12.0110           0
      7038 LPSA7    5        AHEP     H1       HCA1     0.900000E-01   1.00800           0
      7039 LPSA7    5        AHEP     C5       CC3163   0.110000       12.0110           0
      7040 LPSA7    5        AHEP     H5       HCA1     0.900000E-01   1.00800           0
      7041 LPSA7    5        AHEP     O5       OC3C61  -0.400000       15.9994           0
      7042 LPSA7    5        AHEP     C2       CC3161   0.140000       12.0110           0
      7043 LPSA7    5        AHEP     H2       HCA1     0.900000E-01   1.00800           0
      7044 LPSA7    5        AHEP     O2       OC311   -0.650000       15.9994           0
      7045 LPSA7    5        AHEP     HO2      HCP1     0.420000       1.00800           0
      7046 LPSA7    5        AHEP     C3       CC3161   0.900000E-01   12.0110           0
      7047 LPSA7    5        AHEP     H3       HCA1     0.900000E-01   1.00800           0
      7048 LPSA7    5        AHEP     O3       OC301   -0.360000       15.9994           0
      7049 LPSA7    5        AHEP     C4       CC3161  -0.900000E-01   12.0110           0
      7050 LPSA7    5        AHEP     H4       HCA1     0.900000E-01   1.00800           0
      7051 LPSA7    5        AHEP     O4       OC30P   -0.400000       15.9994           0
      7052 LPSA7    5        AHEP     P4       PC        1.10000       30.9740           0
      7053 LPSA7    5        AHEP     OP42     OC2DP   -0.900000       15.9994           0
      7054 LPSA7    5        AHEP     OP43     OC2DP   -0.900000       15.9994           0
      7055 LPSA7    5        AHEP     OP44     OC2DP   -0.900000       15.9994           0
      7056 LPSA7    5        AHEP     C6       CC312    0.140000       12.0110           0
      7057 LPSA7    5        AHEP     H6       HCA1     0.900000E-01   1.00800           0
      7058 LPSA7    5        AHEP     O6       OC311   -0.650000       15.9994           0
      7059 LPSA7    5        AHEP     HO6      HCP1     0.420000       1.00800           0
      7060 LPSA7    5        AHEP     C7       CC322     0.00000       12.0110           0
      7061 LPSA7    5        AHEP     H71      HCA2     0.900000E-01   1.00800           0
      7062 LPSA7    5        AHEP     H72      HCA2     0.900000E-01   1.00800           0
      7063 LPSA7    5        AHEP     O7       OC301   -0.360000       15.9994           0
      7064 LPSA7    6        AHEP     C1       CC3162   0.290000       12.0110           0
      7065 LPSA7    6        AHEP     H1       HCA1     0.900000E-01   1.00800           0
      7066 LPSA7    6        AHEP     C5       CC3163   0.110000       12.0110           0
      7067 LPSA7    6        AHEP     H5       HCA1     0.900000E-01   1.00800           0
      7068 LPSA7    6        AHEP     O5       OC3C61  -0.400000       15.9994           0
      7069 LPSA7    6        AHEP     C2       CC3161   0.140000       12.0110           0
      7070 LPSA7    6        AHEP     H2       HCA1     0.900000E-01   1.00800           0
      7071 LPSA7    6        AHEP     O2       OC311   -0.650000       15.9994           0
      7072 LPSA7    6        AHEP     HO2      HCP1     0.420000       1.00800           0
      7073 LPSA7    6        AHEP     C3       CC3161   0.140000       12.0110           0
      7074 LPSA7    6        AHEP     H3       HCA1     0.900000E-01   1.00800           0
      7075 LPSA7    6        AHEP     O3       OC311   -0.650000       15.9994           0
      7076 LPSA7    6        AHEP     HO3      HCP1     0.420000       1.00800           0
      7077 LPSA7    6        AHEP     C4       CC3161   0.140000       12.0110           0
      7078 LPSA7    6        AHEP     H4       HCA1     0.900000E-01   1.00800           0
      7079 LPSA7    6        AHEP     O4       OC311   -0.650000       15.9994           0
      7080 LPSA7    6        AHEP     HO4      HCP1     0.420000       1.00800           0
      7081 LPSA7    6        AHEP     C6       CC312    0.140000       12.0110           0
      7082 LPSA7    6        AHEP     H6       HCA1     0.900000E-01   1.00800           0
      7083 LPSA7    6        AHEP     O6       OC311   -0.650000       15.9994           0
      7084 LPSA7    6        AHEP     HO6      HCP1     0.420000       1.00800           0
      7085 LPSA7    6        AHEP     C7       CC322    0.500000E-01   12.0110           0
      7086 LPSA7    6        AHEP     H71      HCA2     0.900000E-01   1.00800           0
      7087 LPSA7    6        AHEP     H72      HCA2     0.900000E-01   1.00800           0
      7088 LPSA7    6        AHEP     O7       OC311   -0.650000       15.9994           0
      7089 LPSA7    6        AHEP     HO7      HCP1     0.420000       1.00800           0
      7090 LPSA7    7        AGLC     C1       CC3162   0.290000       12.0110           0
      7091 LPSA7    7        AGLC     H1       HCA1     0.900000E-01   1.00800           0
      7092 LPSA7    7        AGLC     C5       CC3163   0.110000       12.0110           0
      7093 LPSA7    7        AGLC     H5       HCA1     0.900000E-01   1.00800           0
      7094 LPSA7    7        AGLC     O5       OC3C61  -0.400000       15.9994           0
      7095 LPSA7    7        AGLC     C2       CC3161   0.140000       12.0110           0
      7096 LPSA7    7        AGLC     H2       HCA1     0.900000E-01   1.00800           0
      7097 LPSA7    7        AGLC     O2       OC311   -0.650000       15.9994           0
      7098 LPSA7    7        AGLC     HO2      HCP1     0.420000       1.00800           0
      7099 LPSA7    7        AGLC     C3       CC3161   0.900000E-01   12.0110           0
      7100 LPSA7    7        AGLC     H3       HCA1     0.900000E-01   1.00800           0
      7101 LPSA7    7        AGLC     O3       OC301   -0.360000       15.9994           0
      7102 LPSA7    7        AGLC     C4       CC3161   0.140000       12.0110           0
      7103 LPSA7    7        AGLC     H4       HCA1     0.900000E-01   1.00800           0
      7104 LPSA7    7        AGLC     O4       OC311   -0.650000       15.9994           0
      7105 LPSA7    7        AGLC     HO4      HCP1     0.420000       1.00800           0
      7106 LPSA7    7        AGLC     C6       CC321    0.500000E-01   12.0110           0
      7107 LPSA7    7        AGLC     H61      HCA2     0.900000E-01   1.00800           0
      7108 LPSA7    7        AGLC     H62      HCA2     0.900000E-01   1.00800           0
      7109 LPSA7    7        AGLC     O6       OC311   -0.650000       15.9994           0
      7110 LPSA7    7        AGLC     HO6      HCP1     0.420000       1.00800           0
      7111 LPSA7    8        AGLC     C1       CC3162   0.290000       12.0110           0
      7112 LPSA7    8        AGLC     H1       HCA1     0.900000E-01   1.00800           0
      7113 LPSA7    8        AGLC     C5       CC3163   0.110000       12.0110           0
      7114 LPSA7    8        AGLC     H5       HCA1     0.900000E-01   1.00800           0
      7115 LPSA7    8        AGLC     O5       OC3C61  -0.400000       15.9994           0
      7116 LPSA7    8        AGLC     C2       CC3161   0.900000E-01   12.0110           0
      7117 LPSA7    8        AGLC     H2       HCA1     0.900000E-01   1.00800           0
      7118 LPSA7    8        AGLC     O2       OC301   -0.360000       15.9994           0
      7119 LPSA7    8        AGLC     C3       CC3161   0.900000E-01   12.0110           0
      7120 LPSA7    8        AGLC     H3       HCA1     0.900000E-01   1.00800           0
      7121 LPSA7    8        AGLC     O3       OC301   -0.360000       15.9994           0
      7122 LPSA7    8        AGLC     C4       CC3161   0.140000       12.0110           0
      7123 LPSA7    8        AGLC     H4       HCA1     0.900000E-01   1.00800           0
      7124 LPSA7    8        AGLC     O4       OC311   -0.650000       15.9994           0
      7125 LPSA7    8        AGLC     HO4      HCP1     0.420000       1.00800           0
      7126 LPSA7    8        AGLC     C6       CC321    0.500000E-01   12.0110           0
      7127 LPSA7    8        AGLC     H61      HCA2     0.900000E-01   1.00800           0
      7128 LPSA7    8        AGLC     H62      HCA2     0.900000E-01   1.00800           0
      7129 LPSA7    8        AGLC     O6       OC311   -0.650000       15.9994           0
      7130 LPSA7    8        AGLC     HO6      HCP1     0.420000       1.00800           0
      7131 LPSA7    9        AGAL     C1       CC3162   0.290000       12.0110           0
      7132 LPSA7    9        AGAL     H1       HCA1     0.900000E-01   1.00800           0
      7133 LPSA7    9        AGAL     C5       CC3163   0.110000       12.0110           0
      7134 LPSA7    9        AGAL     H5       HCA1     0.900000E-01   1.00800           0
      7135 LPSA7    9        AGAL     O5       OC3C61  -0.400000       15.9994           0
      7136 LPSA7    9        AGAL     C2       CC3161   0.900000E-01   12.0110           0
      7137 LPSA7    9        AGAL     H2       HCA1     0.900000E-01   1.00800           0
      7138 LPSA7    9        AGAL     O2       OC301   -0.360000       15.9994           0
      7139 LPSA7    9        AGAL     C3       CC3161   0.140000       12.0110           0
      7140 LPSA7    9        AGAL     H3       HCA1     0.900000E-01   1.00800           0
      7141 LPSA7    9        AGAL     O3       OC311   -0.650000       15.9994           0
      7142 LPSA7    9        AGAL     HO3      HCP1     0.420000       1.00800           0
      7143 LPSA7    9        AGAL     C4       CC3161   0.140000       12.0110           0
      7144 LPSA7    9        AGAL     H4       HCA1     0.900000E-01   1.00800           0
      7145 LPSA7    9        AGAL     O4       OC311   -0.650000       15.9994           0
      7146 LPSA7    9        AGAL     HO4      HCP1     0.420000       1.00800           0
      7147 LPSA7    9        AGAL     C6       CC321    0.500000E-01   12.0110           0
      7148 LPSA7    9        AGAL     H61      HCA2     0.900000E-01   1.00800           0
      7149 LPSA7    9        AGAL     H62      HCA2     0.900000E-01   1.00800           0
      7150 LPSA7    9        AGAL     O6       OC311   -0.650000       15.9994           0
      7151 LPSA7    9        AGAL     HO6      HCP1     0.420000       1.00800           0
      7152 LPSA7    10       AGAL     C1       CC3162   0.290000       12.0110           0
      7153 LPSA7    10       AGAL     H1       HCA1     0.900000E-01   1.00800           0
      7154 LPSA7    10       AGAL     C5       CC3163   0.110000       12.0110           0
      7155 LPSA7    10       AGAL     H5       HCA1     0.900000E-01   1.00800           0
      7156 LPSA7    10       AGAL     O5       OC3C61  -0.400000       15.9994           0
      7157 LPSA7    10       AGAL     C2       CC3161   0.140000       12.0110           0
      7158 LPSA7    10       AGAL     H2       HCA1     0.900000E-01   1.00800           0
      7159 LPSA7    10       AGAL     O2       OC311   -0.650000       15.9994           0
      7160 LPSA7    10       AGAL     HO2      HCP1     0.420000       1.00800           0
      7161 LPSA7    10       AGAL     C3       CC3161   0.140000       12.0110           0
      7162 LPSA7    10       AGAL     H3       HCA1     0.900000E-01   1.00800           0
      7163 LPSA7    10       AGAL     O3       OC311   -0.650000       15.9994           0
      7164 LPSA7    10       AGAL     HO3      HCP1     0.420000       1.00800           0
      7165 LPSA7    10       AGAL     C4       CC3161   0.140000       12.0110           0
      7166 LPSA7    10       AGAL     H4       HCA1     0.900000E-01   1.00800           0
      7167 LPSA7    10       AGAL     O4       OC311   -0.650000       15.9994           0
      7168 LPSA7    10       AGAL     HO4      HCP1     0.420000       1.00800           0
      7169 LPSA7    10       AGAL     C6       CC321    0.500000E-01   12.0110           0
      7170 LPSA7    10       AGAL     H61      HCA2     0.900000E-01   1.00800           0
      7171 LPSA7    10       AGAL     H62      HCA2     0.900000E-01   1.00800           0
      7172 LPSA7    10       AGAL     O6       OC311   -0.650000       15.9994           0
      7173 LPSA7    10       AGAL     HO6      HCP1     0.420000       1.00800           0
      7174 LPSA7    11       BGLC     C1       CC3162   0.290000       12.0110           0
      7175 LPSA7    11       BGLC     H1       HCA1     0.900000E-01   1.00800           0
      7176 LPSA7    11       BGLC     C5       CC3163   0.110000       12.0110           0
      7177 LPSA7    11       BGLC     H5       HCA1     0.900000E-01   1.00800           0
      7178 LPSA7    11       BGLC     O5       OC3C61  -0.400000       15.9994           0
      7179 LPSA7    11       BGLC     C2       CC3161   0.140000       12.0110           0
      7180 LPSA7    11       BGLC     H2       HCA1     0.900000E-01   1.00800           0
      7181 LPSA7    11       BGLC     O2       OC311   -0.650000       15.9994           0
      7182 LPSA7    11       BGLC     HO2      HCP1     0.420000       1.00800           0
      7183 LPSA7    11       BGLC     C3       CC3161   0.900000E-01   12.0110           0
      7184 LPSA7    11       BGLC     H3       HCA1     0.900000E-01   1.00800           0
      7185 LPSA7    11       BGLC     O3       OC301   -0.360000       15.9994           0
      7186 LPSA7    11       BGLC     C4       CC3161   0.140000       12.0110           0
      7187 LPSA7    11       BGLC     H4       HCA1     0.900000E-01   1.00800           0
      7188 LPSA7    11       BGLC     O4       OC311   -0.650000       15.9994           0
      7189 LPSA7    11       BGLC     HO4      HCP1     0.420000       1.00800           0
      7190 LPSA7    11       BGLC     C6       CC321    0.500000E-01   12.0110           0
      7191 LPSA7    11       BGLC     H61      HCA2     0.900000E-01   1.00800           0
      7192 LPSA7    11       BGLC     H62      HCA2     0.900000E-01   1.00800           0
      7193 LPSA7    11       BGLC     O6       OC311   -0.650000       15.9994           0
      7194 LPSA7    11       BGLC     HO6      HCP1     0.420000       1.00800           0
      7195 LPSA7    12       BGLCNA   C1       CC3162   0.290000       12.0110           0
      7196 LPSA7    12       BGLCNA   H1       HCA1     0.900000E-01   1.00800           0
      7197 LPSA7    12       BGLCNA   C5       CC3163   0.110000       12.0110           0
      7198 LPSA7    12       BGLCNA   H5       HCA1     0.900000E-01   1.00800           0
      7199 LPSA7    12       BGLCNA   O5       OC3C61  -0.400000       15.9994           0
      7200 LPSA7    12       BGLCNA   C2       CC3161   0.700000E-01   12.0110           0
      7201 LPSA7    12       BGLCNA   H2       HCA1     0.900000E-01   1.00800           0
      7202 LPSA7    12       BGLCNA   N        NC2D1   -0.470000       14.0070           0
      7203 LPSA7    12       BGLCNA   HN       HCP1     0.310000       1.00800           0
      7204 LPSA7    12       BGLCNA   C        CC2O1    0.510000       12.0110           0
      7205 LPSA7    12       BGLCNA   O        OC2D1   -0.510000       15.9994           0
      7206 LPSA7    12       BGLCNA   CT       CC331   -0.270000       12.0110           0
      7207 LPSA7    12       BGLCNA   HT1      HCA3     0.900000E-01   1.00800           0
      7208 LPSA7    12       BGLCNA   HT2      HCA3     0.900000E-01   1.00800           0
      7209 LPSA7    12       BGLCNA   HT3      HCA3     0.900000E-01   1.00800           0
      7210 LPSA7    12       BGLCNA   C3       CC3161   0.900000E-01   12.0110           0
      7211 LPSA7    12       BGLCNA   H3       HCA1     0.900000E-01   1.00800           0
      7212 LPSA7    12       BGLCNA   O3       OC301   -0.360000       15.9994           0
      7213 LPSA7    12       BGLCNA   C4       CC3161   0.140000       12.0110           0
      7214 LPSA7    12       BGLCNA   H4       HCA1     0.900000E-01   1.00800           0
      7215 LPSA7    12       BGLCNA   O4       OC311   -0.650000       15.9994           0
      7216 LPSA7    12       BGLCNA   HO4      HCP1     0.420000       1.00800           0
      7217 LPSA7    12       BGLCNA   C6       CC321    0.500000E-01   12.0110           0
      7218 LPSA7    12       BGLCNA   H61      HCA2     0.900000E-01   1.00800           0
      7219 LPSA7    12       BGLCNA   H62      HCA2     0.900000E-01   1.00800           0
      7220 LPSA7    12       BGLCNA   O6       OC311   -0.650000       15.9994           0
      7221 LPSA7    12       BGLCNA   HO6      HCP1     0.420000       1.00800           0
      7222 LPSA7    13       AGAL     C1       CC3162   0.290000       12.0110           0
      7223 LPSA7    13       AGAL     H1       HCA1     0.900000E-01   1.00800           0
      7224 LPSA7    13       AGAL     C5       CC3163   0.110000       12.0110           0
      7225 LPSA7    13       AGAL     H5       HCA1     0.900000E-01   1.00800           0
      7226 LPSA7    13       AGAL     O5       OC3C61  -0.400000       15.9994           0
      7227 LPSA7    13       AGAL     C2       CC3161   0.900000E-01   12.0110           0
      7228 LPSA7    13       AGAL     H2       HCA1     0.900000E-01   1.00800           0
      7229 LPSA7    13       AGAL     O2       OC301   -0.360000       15.9994           0
      7230 LPSA7    13       AGAL     C3       CC3161   0.140000       12.0110           0
      7231 LPSA7    13       AGAL     H3       HCA1     0.900000E-01   1.00800           0
      7232 LPSA7    13       AGAL     O3       OC311   -0.650000       15.9994           0
      7233 LPSA7    13       AGAL     HO3      HCP1     0.420000       1.00800           0
      7234 LPSA7    13       AGAL     C4       CC3161   0.140000       12.0110           0
      7235 LPSA7    13       AGAL     H4       HCA1     0.900000E-01   1.00800           0
      7236 LPSA7    13       AGAL     O4       OC311   -0.650000       15.9994           0
      7237 LPSA7    13       AGAL     HO4      HCP1     0.420000       1.00800           0
      7238 LPSA7    13       AGAL     C6       CC321    0.500000E-01   12.0110           0
      7239 LPSA7    13       AGAL     H61      HCA2     0.900000E-01   1.00800           0
      7240 LPSA7    13       AGAL     H62      HCA2     0.900000E-01   1.00800           0
      7241 LPSA7    13       AGAL     O6       OC311   -0.650000       15.9994           0
      7242 LPSA7    13       AGAL     HO6      HCP1     0.420000       1.00800           0
      7243 LPSA7    14       ARHM     C1       CC3162   0.290000       12.0110           0
      7244 LPSA7    14       ARHM     H1       HCA1     0.900000E-01   1.00800           0
      7245 LPSA7    14       ARHM     C5       CC3163   0.110000       12.0110           0
      7246 LPSA7    14       ARHM     H5       HCA1     0.900000E-01   1.00800           0
      7247 LPSA7    14       ARHM     O5       OC3C61  -0.400000       15.9994           0
      7248 LPSA7    14       ARHM     C2       CC3161   0.900000E-01   12.0110           0
      7249 LPSA7    14       ARHM     H2       HCA1     0.900000E-01   1.00800           0
      7250 LPSA7    14       ARHM     O2       OC301   -0.360000       15.9994           0
      7251 LPSA7    14       ARHM     C3       CC3161   0.140000       12.0110           0
      7252 LPSA7    14       ARHM     H3       HCA1     0.900000E-01   1.00800           0
      7253 LPSA7    14       ARHM     O3       OC311   -0.650000       15.9994           0
      7254 LPSA7    14       ARHM     HO3      HCP1     0.420000       1.00800           0
      7255 LPSA7    14       ARHM     C4       CC3161   0.140000       12.0110           0
      7256 LPSA7    14       ARHM     H4       HCA1     0.900000E-01   1.00800           0
      7257 LPSA7    14       ARHM     O4       OC311   -0.650000       15.9994           0
      7258 LPSA7    14       ARHM     HO4      HCP1     0.420000       1.00800           0
      7259 LPSA7    14       ARHM     C6       CC331   -0.270000       12.0110           0
      7260 LPSA7    14       ARHM     H61      HCA3     0.900000E-01   1.00800           0
      7261 LPSA7    14       ARHM     H62      HCA3     0.900000E-01   1.00800           0
      7262 LPSA7    14       ARHM     H63      HCA3     0.900000E-01   1.00800           0
      7263 LPSA7    15       ARHM     C1       CC3162   0.290000       12.0110           0
      7264 LPSA7    15       ARHM     H1       HCA1     0.900000E-01   1.00800           0
      7265 LPSA7    15       ARHM     C5       CC3163   0.110000       12.0110           0
      7266 LPSA7    15       ARHM     H5       HCA1     0.900000E-01   1.00800           0
      7267 LPSA7    15       ARHM     O5       OC3C61  -0.400000       15.9994           0
      7268 LPSA7    15       ARHM     C2       CC3161   0.900000E-01   12.0110           0
      7269 LPSA7    15       ARHM     H2       HCA1     0.900000E-01   1.00800           0
      7270 LPSA7    15       ARHM     O2       OC301   -0.360000       15.9994           0
      7271 LPSA7    15       ARHM     C3       CC3161   0.900000E-01   12.0110           0
      7272 LPSA7    15       ARHM     H3       HCA1     0.900000E-01   1.00800           0
      7273 LPSA7    15       ARHM     O3       OC301   -0.360000       15.9994           0
      7274 LPSA7    15       ARHM     C4       CC3161   0.140000       12.0110           0
      7275 LPSA7    15       ARHM     H4       HCA1     0.900000E-01   1.00800           0
      7276 LPSA7    15       ARHM     O4       OC311   -0.650000       15.9994           0
      7277 LPSA7    15       ARHM     HO4      HCP1     0.420000       1.00800           0
      7278 LPSA7    15       ARHM     C6       CC331   -0.270000       12.0110           0
      7279 LPSA7    15       ARHM     H61      HCA3     0.900000E-01   1.00800           0
      7280 LPSA7    15       ARHM     H62      HCA3     0.900000E-01   1.00800           0
      7281 LPSA7    15       ARHM     H63      HCA3     0.900000E-01   1.00800           0
      7282 LPSA7    16       BMANNA   C1       CC3162   0.290000       12.0110           0
      7283 LPSA7    16       BMANNA   H1       HCA1     0.900000E-01   1.00800           0
      7284 LPSA7    16       BMANNA   C5       CC3163   0.110000       12.0110           0
      7285 LPSA7    16       BMANNA   H5       HCA1     0.900000E-01   1.00800           0
      7286 LPSA7    16       BMANNA   O5       OC3C61  -0.400000       15.9994           0
      7287 LPSA7    16       BMANNA   C2       CC3161   0.700000E-01   12.0110           0
      7288 LPSA7    16       BMANNA   H2       HCA1     0.900000E-01   1.00800           0
      7289 LPSA7    16       BMANNA   N        NC2D1   -0.470000       14.0070           0
      7290 LPSA7    16       BMANNA   HN       HCP1     0.310000       1.00800           0
      7291 LPSA7    16       BMANNA   C        CC2O1    0.510000       12.0110           0
      7292 LPSA7    16       BMANNA   O        OC2D1   -0.510000       15.9994           0
      7293 LPSA7    16       BMANNA   CT       CC331   -0.270000       12.0110           0
      7294 LPSA7    16       BMANNA   HT1      HCA3     0.900000E-01   1.00800           0
      7295 LPSA7    16       BMANNA   HT2      HCA3     0.900000E-01   1.00800           0
      7296 LPSA7    16       BMANNA   HT3      HCA3     0.900000E-01   1.00800           0
      7297 LPSA7    16       BMANNA   C3       CC3161   0.140000       12.0110           0
      7298 LPSA7    16       BMANNA   H3       HCA1     0.900000E-01   1.00800           0
      7299 LPSA7    16       BMANNA   O3       OC311   -0.650000       15.9994           0
      7300 LPSA7    16       BMANNA   HO3      HCP1     0.420000       1.00800           0
      7301 LPSA7    16       BMANNA   C4       CC3161   0.140000       12.0110           0
      7302 LPSA7    16       BMANNA   H4       HCA1     0.900000E-01   1.00800           0
      7303 LPSA7    16       BMANNA   O4       OC311   -0.650000       15.9994           0
      7304 LPSA7    16       BMANNA   HO4      HCP1     0.420000       1.00800           0
      7305 LPSA7    16       BMANNA   C6       CC321    0.500000E-01   12.0110           0
      7306 LPSA7    16       BMANNA   H61      HCA2     0.900000E-01   1.00800           0
      7307 LPSA7    16       BMANNA   H62      HCA2     0.900000E-01   1.00800           0
      7308 LPSA7    16       BMANNA   O6       OC311   -0.650000       15.9994           0
      7309 LPSA7    16       BMANNA   HO6      HCP1     0.420000       1.00800           0
      7310 LPSA7    17       BGLCNA   C1       CC3162   0.290000       12.0110           0
      7311 LPSA7    17       BGLCNA   H1       HCA1     0.900000E-01   1.00800           0
      7312 LPSA7    17       BGLCNA   C5       CC3163   0.110000       12.0110           0
      7313 LPSA7    17       BGLCNA   H5       HCA1     0.900000E-01   1.00800           0
      7314 LPSA7    17       BGLCNA   O5       OC3C61  -0.400000       15.9994           0
      7315 LPSA7    17       BGLCNA   C2       CC3161   0.700000E-01   12.0110           0
      7316 LPSA7    17       BGLCNA   H2       HCA1     0.900000E-01   1.00800           0
      7317 LPSA7    17       BGLCNA   N        NC2D1   -0.470000       14.0070           0
      7318 LPSA7    17       BGLCNA   HN       HCP1     0.310000       1.00800           0
      7319 LPSA7    17       BGLCNA   C        CC2O1    0.510000       12.0110           0
      7320 LPSA7    17       BGLCNA   O        OC2D1   -0.510000       15.9994           0
      7321 LPSA7    17       BGLCNA   CT       CC331   -0.270000       12.0110           0
      7322 LPSA7    17       BGLCNA   HT1      HCA3     0.900000E-01   1.00800           0
      7323 LPSA7    17       BGLCNA   HT2      HCA3     0.900000E-01   1.00800           0
      7324 LPSA7    17       BGLCNA   HT3      HCA3     0.900000E-01   1.00800           0
      7325 LPSA7    17       BGLCNA   C3       CC3161   0.900000E-01   12.0110           0
      7326 LPSA7    17       BGLCNA   H3       HCA1     0.900000E-01   1.00800           0
      7327 LPSA7    17       BGLCNA   O3       OC301   -0.360000       15.9994           0
      7328 LPSA7    17       BGLCNA   C4       CC3161   0.140000       12.0110           0
      7329 LPSA7    17       BGLCNA   H4       HCA1     0.900000E-01   1.00800           0
      7330 LPSA7    17       BGLCNA   O4       OC311   -0.650000       15.9994           0
      7331 LPSA7    17       BGLCNA   HO4      HCP1     0.420000       1.00800           0
      7332 LPSA7    17       BGLCNA   C6       CC321    0.500000E-01   12.0110           0
      7333 LPSA7    17       BGLCNA   H61      HCA2     0.900000E-01   1.00800           0
      7334 LPSA7    17       BGLCNA   H62      HCA2     0.900000E-01   1.00800           0
      7335 LPSA7    17       BGLCNA   O6       OC311   -0.650000       15.9994           0
      7336 LPSA7    17       BGLCNA   HO6      HCP1     0.420000       1.00800           0
      7337 LPSA7    18       AGAL     C1       CC3162   0.290000       12.0110           0
      7338 LPSA7    18       AGAL     H1       HCA1     0.900000E-01   1.00800           0
      7339 LPSA7    18       AGAL     C5       CC3163   0.110000       12.0110           0
      7340 LPSA7    18       AGAL     H5       HCA1     0.900000E-01   1.00800           0
      7341 LPSA7    18       AGAL     O5       OC3C61  -0.400000       15.9994           0
      7342 LPSA7    18       AGAL     C2       CC3161   0.900000E-01   12.0110           0
      7343 LPSA7    18       AGAL     H2       HCA1     0.900000E-01   1.00800           0
      7344 LPSA7    18       AGAL     O2       OC301   -0.360000       15.9994           0
      7345 LPSA7    18       AGAL     C3       CC3161   0.140000       12.0110           0
      7346 LPSA7    18       AGAL     H3       HCA1     0.900000E-01   1.00800           0
      7347 LPSA7    18       AGAL     O3       OC311   -0.650000       15.9994           0
      7348 LPSA7    18       AGAL     HO3      HCP1     0.420000       1.00800           0
      7349 LPSA7    18       AGAL     C4       CC3161   0.140000       12.0110           0
      7350 LPSA7    18       AGAL     H4       HCA1     0.900000E-01   1.00800           0
      7351 LPSA7    18       AGAL     O4       OC311   -0.650000       15.9994           0
      7352 LPSA7    18       AGAL     HO4      HCP1     0.420000       1.00800           0
      7353 LPSA7    18       AGAL     C6       CC321    0.500000E-01   12.0110           0
      7354 LPSA7    18       AGAL     H61      HCA2     0.900000E-01   1.00800           0
      7355 LPSA7    18       AGAL     H62      HCA2     0.900000E-01   1.00800           0
      7356 LPSA7    18       AGAL     O6       OC311   -0.650000       15.9994           0
      7357 LPSA7    18       AGAL     HO6      HCP1     0.420000       1.00800           0
      7358 LPSA7    19       ARHM     C1       CC3162   0.290000       12.0110           0
      7359 LPSA7    19       ARHM     H1       HCA1     0.900000E-01   1.00800           0
      7360 LPSA7    19       ARHM     C5       CC3163   0.110000       12.0110           0
      7361 LPSA7    19       ARHM     H5       HCA1     0.900000E-01   1.00800           0
      7362 LPSA7    19       ARHM     O5       OC3C61  -0.400000       15.9994           0
      7363 LPSA7    19       ARHM     C2       CC3161   0.900000E-01   12.0110           0
      7364 LPSA7    19       ARHM     H2       HCA1     0.900000E-01   1.00800           0
      7365 LPSA7    19       ARHM     O2       OC301   -0.360000       15.9994           0
      7366 LPSA7    19       ARHM     C3       CC3161   0.140000       12.0110           0
      7367 LPSA7    19       ARHM     H3       HCA1     0.900000E-01   1.00800           0
      7368 LPSA7    19       ARHM     O3       OC311   -0.650000       15.9994           0
      7369 LPSA7    19       ARHM     HO3      HCP1     0.420000       1.00800           0
      7370 LPSA7    19       ARHM     C4       CC3161   0.140000       12.0110           0
      7371 LPSA7    19       ARHM     H4       HCA1     0.900000E-01   1.00800           0
      7372 LPSA7    19       ARHM     O4       OC311   -0.650000       15.9994           0
      7373 LPSA7    19       ARHM     HO4      HCP1     0.420000       1.00800           0
      7374 LPSA7    19       ARHM     C6       CC331   -0.270000       12.0110           0
      7375 LPSA7    19       ARHM     H61      HCA3     0.900000E-01   1.00800           0
      7376 LPSA7    19       ARHM     H62      HCA3     0.900000E-01   1.00800           0
      7377 LPSA7    19       ARHM     H63      HCA3     0.900000E-01   1.00800           0
      7378 LPSA7    20       ARHM     C1       CC3162   0.290000       12.0110           0
      7379 LPSA7    20       ARHM     H1       HCA1     0.900000E-01   1.00800           0
      7380 LPSA7    20       ARHM     C5       CC3163   0.110000       12.0110           0
      7381 LPSA7    20       ARHM     H5       HCA1     0.900000E-01   1.00800           0
      7382 LPSA7    20       ARHM     O5       OC3C61  -0.400000       15.9994           0
      7383 LPSA7    20       ARHM     C2       CC3161   0.900000E-01   12.0110           0
      7384 LPSA7    20       ARHM     H2       HCA1     0.900000E-01   1.00800           0
      7385 LPSA7    20       ARHM     O2       OC301   -0.360000       15.9994           0
      7386 LPSA7    20       ARHM     C3       CC3161   0.900000E-01   12.0110           0
      7387 LPSA7    20       ARHM     H3       HCA1     0.900000E-01   1.00800           0
      7388 LPSA7    20       ARHM     O3       OC301   -0.360000       15.9994           0
      7389 LPSA7    20       ARHM     C4       CC3161   0.140000       12.0110           0
      7390 LPSA7    20       ARHM     H4       HCA1     0.900000E-01   1.00800           0
      7391 LPSA7    20       ARHM     O4       OC311   -0.650000       15.9994           0
      7392 LPSA7    20       ARHM     HO4      HCP1     0.420000       1.00800           0
      7393 LPSA7    20       ARHM     C6       CC331   -0.270000       12.0110           0
      7394 LPSA7    20       ARHM     H61      HCA3     0.900000E-01   1.00800           0
      7395 LPSA7    20       ARHM     H62      HCA3     0.900000E-01   1.00800           0
      7396 LPSA7    20       ARHM     H63      HCA3     0.900000E-01   1.00800           0
      7397 LPSA7    21       BMANNA   C1       CC3162   0.290000       12.0110           0
      7398 LPSA7    21       BMANNA   H1       HCA1     0.900000E-01   1.00800           0
      7399 LPSA7    21       BMANNA   C5       CC3163   0.110000       12.0110           0
      7400 LPSA7    21       BMANNA   H5       HCA1     0.900000E-01   1.00800           0
      7401 LPSA7    21       BMANNA   O5       OC3C61  -0.400000       15.9994           0
      7402 LPSA7    21       BMANNA   C2       CC3161   0.700000E-01   12.0110           0
      7403 LPSA7    21       BMANNA   H2       HCA1     0.900000E-01   1.00800           0
      7404 LPSA7    21       BMANNA   N        NC2D1   -0.470000       14.0070           0
      7405 LPSA7    21       BMANNA   HN       HCP1     0.310000       1.00800           0
      7406 LPSA7    21       BMANNA   C        CC2O1    0.510000       12.0110           0
      7407 LPSA7    21       BMANNA   O        OC2D1   -0.510000       15.9994           0
      7408 LPSA7    21       BMANNA   CT       CC331   -0.270000       12.0110           0
      7409 LPSA7    21       BMANNA   HT1      HCA3     0.900000E-01   1.00800           0
      7410 LPSA7    21       BMANNA   HT2      HCA3     0.900000E-01   1.00800           0
      7411 LPSA7    21       BMANNA   HT3      HCA3     0.900000E-01   1.00800           0
      7412 LPSA7    21       BMANNA   C3       CC3161   0.140000       12.0110           0
      7413 LPSA7    21       BMANNA   H3       HCA1     0.900000E-01   1.00800           0
      7414 LPSA7    21       BMANNA   O3       OC311   -0.650000       15.9994           0
      7415 LPSA7    21       BMANNA   HO3      HCP1     0.420000       1.00800           0
      7416 LPSA7    21       BMANNA   C4       CC3161   0.140000       12.0110           0
      7417 LPSA7    21       BMANNA   H4       HCA1     0.900000E-01   1.00800           0
      7418 LPSA7    21       BMANNA   O4       OC311   -0.650000       15.9994           0
      7419 LPSA7    21       BMANNA   HO4      HCP1     0.420000       1.00800           0
      7420 LPSA7    21       BMANNA   C6       CC321    0.500000E-01   12.0110           0
      7421 LPSA7    21       BMANNA   H61      HCA2     0.900000E-01   1.00800           0
      7422 LPSA7    21       BMANNA   H62      HCA2     0.900000E-01   1.00800           0
      7423 LPSA7    21       BMANNA   O6       OC311   -0.650000       15.9994           0
      7424 LPSA7    21       BMANNA   HO6      HCP1     0.420000       1.00800           0
      7425 LPSA7    22       BGLCNA   C1       CC3162   0.290000       12.0110           0
      7426 LPSA7    22       BGLCNA   H1       HCA1     0.900000E-01   1.00800           0
      7427 LPSA7    22       BGLCNA   C5       CC3163   0.110000       12.0110           0
      7428 LPSA7    22       BGLCNA   H5       HCA1     0.900000E-01   1.00800           0
      7429 LPSA7    22       BGLCNA   O5       OC3C61  -0.400000       15.9994           0
      7430 LPSA7    22       BGLCNA   C2       CC3161   0.700000E-01   12.0110           0
      7431 LPSA7    22       BGLCNA   H2       HCA1     0.900000E-01   1.00800           0
      7432 LPSA7    22       BGLCNA   N        NC2D1   -0.470000       14.0070           0
      7433 LPSA7    22       BGLCNA   HN       HCP1     0.310000       1.00800           0
      7434 LPSA7    22       BGLCNA   C        CC2O1    0.510000       12.0110           0
      7435 LPSA7    22       BGLCNA   O        OC2D1   -0.510000       15.9994           0
      7436 LPSA7    22       BGLCNA   CT       CC331   -0.270000       12.0110           0
      7437 LPSA7    22       BGLCNA   HT1      HCA3     0.900000E-01   1.00800           0
      7438 LPSA7    22       BGLCNA   HT2      HCA3     0.900000E-01   1.00800           0
      7439 LPSA7    22       BGLCNA   HT3      HCA3     0.900000E-01   1.00800           0
      7440 LPSA7    22       BGLCNA   C3       CC3161   0.900000E-01   12.0110           0
      7441 LPSA7    22       BGLCNA   H3       HCA1     0.900000E-01   1.00800           0
      7442 LPSA7    22       BGLCNA   O3       OC301   -0.360000       15.9994           0
      7443 LPSA7    22       BGLCNA   C4       CC3161   0.140000       12.0110           0
      7444 LPSA7    22       BGLCNA   H4       HCA1     0.900000E-01   1.00800           0
      7445 LPSA7    22       BGLCNA   O4       OC311   -0.650000       15.9994           0
      7446 LPSA7    22       BGLCNA   HO4      HCP1     0.420000       1.00800           0
      7447 LPSA7    22       BGLCNA   C6       CC321    0.500000E-01   12.0110           0
      7448 LPSA7    22       BGLCNA   H61      HCA2     0.900000E-01   1.00800           0
      7449 LPSA7    22       BGLCNA   H62      HCA2     0.900000E-01   1.00800           0
      7450 LPSA7    22       BGLCNA   O6       OC311   -0.650000       15.9994           0
      7451 LPSA7    22       BGLCNA   HO6      HCP1     0.420000       1.00800           0
      7452 LPSA7    23       AGAL     C1       CC3162   0.290000       12.0110           0
      7453 LPSA7    23       AGAL     H1       HCA1     0.900000E-01   1.00800           0
      7454 LPSA7    23       AGAL     C5       CC3163   0.110000       12.0110           0
      7455 LPSA7    23       AGAL     H5       HCA1     0.900000E-01   1.00800           0
      7456 LPSA7    23       AGAL     O5       OC3C61  -0.400000       15.9994           0
      7457 LPSA7    23       AGAL     C2       CC3161   0.900000E-01   12.0110           0
      7458 LPSA7    23       AGAL     H2       HCA1     0.900000E-01   1.00800           0
      7459 LPSA7    23       AGAL     O2       OC301   -0.360000       15.9994           0
      7460 LPSA7    23       AGAL     C3       CC3161   0.140000       12.0110           0
      7461 LPSA7    23       AGAL     H3       HCA1     0.900000E-01   1.00800           0
      7462 LPSA7    23       AGAL     O3       OC311   -0.650000       15.9994           0
      7463 LPSA7    23       AGAL     HO3      HCP1     0.420000       1.00800           0
      7464 LPSA7    23       AGAL     C4       CC3161   0.140000       12.0110           0
      7465 LPSA7    23       AGAL     H4       HCA1     0.900000E-01   1.00800           0
      7466 LPSA7    23       AGAL     O4       OC311   -0.650000       15.9994           0
      7467 LPSA7    23       AGAL     HO4      HCP1     0.420000       1.00800           0
      7468 LPSA7    23       AGAL     C6       CC321    0.500000E-01   12.0110           0
      7469 LPSA7    23       AGAL     H61      HCA2     0.900000E-01   1.00800           0
      7470 LPSA7    23       AGAL     H62      HCA2     0.900000E-01   1.00800           0
      7471 LPSA7    23       AGAL     O6       OC311   -0.650000       15.9994           0
      7472 LPSA7    23       AGAL     HO6      HCP1     0.420000       1.00800           0
      7473 LPSA7    24       ARHM     C1       CC3162   0.290000       12.0110           0
      7474 LPSA7    24       ARHM     H1       HCA1     0.900000E-01   1.00800           0
      7475 LPSA7    24       ARHM     C5       CC3163   0.110000       12.0110           0
      7476 LPSA7    24       ARHM     H5       HCA1     0.900000E-01   1.00800           0
      7477 LPSA7    24       ARHM     O5       OC3C61  -0.400000       15.9994           0
      7478 LPSA7    24       ARHM     C2       CC3161   0.900000E-01   12.0110           0
      7479 LPSA7    24       ARHM     H2       HCA1     0.900000E-01   1.00800           0
      7480 LPSA7    24       ARHM     O2       OC301   -0.360000       15.9994           0
      7481 LPSA7    24       ARHM     C3       CC3161   0.140000       12.0110           0
      7482 LPSA7    24       ARHM     H3       HCA1     0.900000E-01   1.00800           0
      7483 LPSA7    24       ARHM     O3       OC311   -0.650000       15.9994           0
      7484 LPSA7    24       ARHM     HO3      HCP1     0.420000       1.00800           0
      7485 LPSA7    24       ARHM     C4       CC3161   0.140000       12.0110           0
      7486 LPSA7    24       ARHM     H4       HCA1     0.900000E-01   1.00800           0
      7487 LPSA7    24       ARHM     O4       OC311   -0.650000       15.9994           0
      7488 LPSA7    24       ARHM     HO4      HCP1     0.420000       1.00800           0
      7489 LPSA7    24       ARHM     C6       CC331   -0.270000       12.0110           0
      7490 LPSA7    24       ARHM     H61      HCA3     0.900000E-01   1.00800           0
      7491 LPSA7    24       ARHM     H62      HCA3     0.900000E-01   1.00800           0
      7492 LPSA7    24       ARHM     H63      HCA3     0.900000E-01   1.00800           0
      7493 LPSA7    25       ARHM     C1       CC3162   0.290000       12.0110           0
      7494 LPSA7    25       ARHM     H1       HCA1     0.900000E-01   1.00800           0
      7495 LPSA7    25       ARHM     C5       CC3163   0.110000       12.0110           0
      7496 LPSA7    25       ARHM     H5       HCA1     0.900000E-01   1.00800           0
      7497 LPSA7    25       ARHM     O5       OC3C61  -0.400000       15.9994           0
      7498 LPSA7    25       ARHM     C2       CC3161   0.900000E-01   12.0110           0
      7499 LPSA7    25       ARHM     H2       HCA1     0.900000E-01   1.00800           0
      7500 LPSA7    25       ARHM     O2       OC301   -0.360000       15.9994           0
      7501 LPSA7    25       ARHM     C3       CC3161   0.900000E-01   12.0110           0
      7502 LPSA7    25       ARHM     H3       HCA1     0.900000E-01   1.00800           0
      7503 LPSA7    25       ARHM     O3       OC301   -0.360000       15.9994           0
      7504 LPSA7    25       ARHM     C4       CC3161   0.140000       12.0110           0
      7505 LPSA7    25       ARHM     H4       HCA1     0.900000E-01   1.00800           0
      7506 LPSA7    25       ARHM     O4       OC311   -0.650000       15.9994           0
      7507 LPSA7    25       ARHM     HO4      HCP1     0.420000       1.00800           0
      7508 LPSA7    25       ARHM     C6       CC331   -0.270000       12.0110           0
      7509 LPSA7    25       ARHM     H61      HCA3     0.900000E-01   1.00800           0
      7510 LPSA7    25       ARHM     H62      HCA3     0.900000E-01   1.00800           0
      7511 LPSA7    25       ARHM     H63      HCA3     0.900000E-01   1.00800           0
      7512 LPSA7    26       BMANNA   C1       CC3162   0.290000       12.0110           0
      7513 LPSA7    26       BMANNA   H1       HCA1     0.900000E-01   1.00800           0
      7514 LPSA7    26       BMANNA   C5       CC3163   0.110000       12.0110           0
      7515 LPSA7    26       BMANNA   H5       HCA1     0.900000E-01   1.00800           0
      7516 LPSA7    26       BMANNA   O5       OC3C61  -0.400000       15.9994           0
      7517 LPSA7    26       BMANNA   C2       CC3161   0.700000E-01   12.0110           0
      7518 LPSA7    26       BMANNA   H2       HCA1     0.900000E-01   1.00800           0
      7519 LPSA7    26       BMANNA   N        NC2D1   -0.470000       14.0070           0
      7520 LPSA7    26       BMANNA   HN       HCP1     0.310000       1.00800           0
      7521 LPSA7    26       BMANNA   C        CC2O1    0.510000       12.0110           0
      7522 LPSA7    26       BMANNA   O        OC2D1   -0.510000       15.9994           0
      7523 LPSA7    26       BMANNA   CT       CC331   -0.270000       12.0110           0
      7524 LPSA7    26       BMANNA   HT1      HCA3     0.900000E-01   1.00800           0
      7525 LPSA7    26       BMANNA   HT2      HCA3     0.900000E-01   1.00800           0
      7526 LPSA7    26       BMANNA   HT3      HCA3     0.900000E-01   1.00800           0
      7527 LPSA7    26       BMANNA   C3       CC3161   0.140000       12.0110           0
      7528 LPSA7    26       BMANNA   H3       HCA1     0.900000E-01   1.00800           0
      7529 LPSA7    26       BMANNA   O3       OC311   -0.650000       15.9994           0
      7530 LPSA7    26       BMANNA   HO3      HCP1     0.420000       1.00800           0
      7531 LPSA7    26       BMANNA   C4       CC3161   0.140000       12.0110           0
      7532 LPSA7    26       BMANNA   H4       HCA1     0.900000E-01   1.00800           0
      7533 LPSA7    26       BMANNA   O4       OC311   -0.650000       15.9994           0
      7534 LPSA7    26       BMANNA   HO4      HCP1     0.420000       1.00800           0
      7535 LPSA7    26       BMANNA   C6       CC321    0.500000E-01   12.0110           0
      7536 LPSA7    26       BMANNA   H61      HCA2     0.900000E-01   1.00800           0
      7537 LPSA7    26       BMANNA   H62      HCA2     0.900000E-01   1.00800           0
      7538 LPSA7    26       BMANNA   O6       OC311   -0.650000       15.9994           0
      7539 LPSA7    26       BMANNA   HO6      HCP1     0.420000       1.00800           0
      7540 LPSA7    27       BGLCNA   C1       CC3162   0.290000       12.0110           0
      7541 LPSA7    27       BGLCNA   H1       HCA1     0.900000E-01   1.00800           0
      7542 LPSA7    27       BGLCNA   C5       CC3163   0.110000       12.0110           0
      7543 LPSA7    27       BGLCNA   H5       HCA1     0.900000E-01   1.00800           0
      7544 LPSA7    27       BGLCNA   O5       OC3C61  -0.400000       15.9994           0
      7545 LPSA7    27       BGLCNA   C2       CC3161   0.700000E-01   12.0110           0
      7546 LPSA7    27       BGLCNA   H2       HCA1     0.900000E-01   1.00800           0
      7547 LPSA7    27       BGLCNA   N        NC2D1   -0.470000       14.0070           0
      7548 LPSA7    27       BGLCNA   HN       HCP1     0.310000       1.00800           0
      7549 LPSA7    27       BGLCNA   C        CC2O1    0.510000       12.0110           0
      7550 LPSA7    27       BGLCNA   O        OC2D1   -0.510000       15.9994           0
      7551 LPSA7    27       BGLCNA   CT       CC331   -0.270000       12.0110           0
      7552 LPSA7    27       BGLCNA   HT1      HCA3     0.900000E-01   1.00800           0
      7553 LPSA7    27       BGLCNA   HT2      HCA3     0.900000E-01   1.00800           0
      7554 LPSA7    27       BGLCNA   HT3      HCA3     0.900000E-01   1.00800           0
      7555 LPSA7    27       BGLCNA   C3       CC3161   0.900000E-01   12.0110           0
      7556 LPSA7    27       BGLCNA   H3       HCA1     0.900000E-01   1.00800           0
      7557 LPSA7    27       BGLCNA   O3       OC301   -0.360000       15.9994           0
      7558 LPSA7    27       BGLCNA   C4       CC3161   0.140000       12.0110           0
      7559 LPSA7    27       BGLCNA   H4       HCA1     0.900000E-01   1.00800           0
      7560 LPSA7    27       BGLCNA   O4       OC311   -0.650000       15.9994           0
      7561 LPSA7    27       BGLCNA   HO4      HCP1     0.420000       1.00800           0
      7562 LPSA7    27       BGLCNA   C6       CC321    0.500000E-01   12.0110           0
      7563 LPSA7    27       BGLCNA   H61      HCA2     0.900000E-01   1.00800           0
      7564 LPSA7    27       BGLCNA   H62      HCA2     0.900000E-01   1.00800           0
      7565 LPSA7    27       BGLCNA   O6       OC311   -0.650000       15.9994           0
      7566 LPSA7    27       BGLCNA   HO6      HCP1     0.420000       1.00800           0
      7567 LPSA7    28       AGAL     C1       CC3162   0.290000       12.0110           0
      7568 LPSA7    28       AGAL     H1       HCA1     0.900000E-01   1.00800           0
      7569 LPSA7    28       AGAL     C5       CC3163   0.110000       12.0110           0
      7570 LPSA7    28       AGAL     H5       HCA1     0.900000E-01   1.00800           0
      7571 LPSA7    28       AGAL     O5       OC3C61  -0.400000       15.9994           0
      7572 LPSA7    28       AGAL     C2       CC3161   0.900000E-01   12.0110           0
      7573 LPSA7    28       AGAL     H2       HCA1     0.900000E-01   1.00800           0
      7574 LPSA7    28       AGAL     O2       OC301   -0.360000       15.9994           0
      7575 LPSA7    28       AGAL     C3       CC3161   0.140000       12.0110           0
      7576 LPSA7    28       AGAL     H3       HCA1     0.900000E-01   1.00800           0
      7577 LPSA7    28       AGAL     O3       OC311   -0.650000       15.9994           0
      7578 LPSA7    28       AGAL     HO3      HCP1     0.420000       1.00800           0
      7579 LPSA7    28       AGAL     C4       CC3161   0.140000       12.0110           0
      7580 LPSA7    28       AGAL     H4       HCA1     0.900000E-01   1.00800           0
      7581 LPSA7    28       AGAL     O4       OC311   -0.650000       15.9994           0
      7582 LPSA7    28       AGAL     HO4      HCP1     0.420000       1.00800           0
      7583 LPSA7    28       AGAL     C6       CC321    0.500000E-01   12.0110           0
      7584 LPSA7    28       AGAL     H61      HCA2     0.900000E-01   1.00800           0
      7585 LPSA7    28       AGAL     H62      HCA2     0.900000E-01   1.00800           0
      7586 LPSA7    28       AGAL     O6       OC311   -0.650000       15.9994           0
      7587 LPSA7    28       AGAL     HO6      HCP1     0.420000       1.00800           0
      7588 LPSA7    29       ARHM     C1       CC3162   0.290000       12.0110           0
      7589 LPSA7    29       ARHM     H1       HCA1     0.900000E-01   1.00800           0
      7590 LPSA7    29       ARHM     C5       CC3163   0.110000       12.0110           0
      7591 LPSA7    29       ARHM     H5       HCA1     0.900000E-01   1.00800           0
      7592 LPSA7    29       ARHM     O5       OC3C61  -0.400000       15.9994           0
      7593 LPSA7    29       ARHM     C2       CC3161   0.900000E-01   12.0110           0
      7594 LPSA7    29       ARHM     H2       HCA1     0.900000E-01   1.00800           0
      7595 LPSA7    29       ARHM     O2       OC301   -0.360000       15.9994           0
      7596 LPSA7    29       ARHM     C3       CC3161   0.140000       12.0110           0
      7597 LPSA7    29       ARHM     H3       HCA1     0.900000E-01   1.00800           0
      7598 LPSA7    29       ARHM     O3       OC311   -0.650000       15.9994           0
      7599 LPSA7    29       ARHM     HO3      HCP1     0.420000       1.00800           0
      7600 LPSA7    29       ARHM     C4       CC3161   0.140000       12.0110           0
      7601 LPSA7    29       ARHM     H4       HCA1     0.900000E-01   1.00800           0
      7602 LPSA7    29       ARHM     O4       OC311   -0.650000       15.9994           0
      7603 LPSA7    29       ARHM     HO4      HCP1     0.420000       1.00800           0
      7604 LPSA7    29       ARHM     C6       CC331   -0.270000       12.0110           0
      7605 LPSA7    29       ARHM     H61      HCA3     0.900000E-01   1.00800           0
      7606 LPSA7    29       ARHM     H62      HCA3     0.900000E-01   1.00800           0
      7607 LPSA7    29       ARHM     H63      HCA3     0.900000E-01   1.00800           0
      7608 LPSA7    30       ARHM     C1       CC3162   0.290000       12.0110           0
      7609 LPSA7    30       ARHM     H1       HCA1     0.900000E-01   1.00800           0
      7610 LPSA7    30       ARHM     C5       CC3163   0.110000       12.0110           0
      7611 LPSA7    30       ARHM     H5       HCA1     0.900000E-01   1.00800           0
      7612 LPSA7    30       ARHM     O5       OC3C61  -0.400000       15.9994           0
      7613 LPSA7    30       ARHM     C2       CC3161   0.900000E-01   12.0110           0
      7614 LPSA7    30       ARHM     H2       HCA1     0.900000E-01   1.00800           0
      7615 LPSA7    30       ARHM     O2       OC301   -0.360000       15.9994           0
      7616 LPSA7    30       ARHM     C3       CC3161   0.900000E-01   12.0110           0
      7617 LPSA7    30       ARHM     H3       HCA1     0.900000E-01   1.00800           0
      7618 LPSA7    30       ARHM     O3       OC301   -0.360000       15.9994           0
      7619 LPSA7    30       ARHM     C4       CC3161   0.140000       12.0110           0
      7620 LPSA7    30       ARHM     H4       HCA1     0.900000E-01   1.00800           0
      7621 LPSA7    30       ARHM     O4       OC311   -0.650000       15.9994           0
      7622 LPSA7    30       ARHM     HO4      HCP1     0.420000       1.00800           0
      7623 LPSA7    30       ARHM     C6       CC331   -0.270000       12.0110           0
      7624 LPSA7    30       ARHM     H61      HCA3     0.900000E-01   1.00800           0
      7625 LPSA7    30       ARHM     H62      HCA3     0.900000E-01   1.00800           0
      7626 LPSA7    30       ARHM     H63      HCA3     0.900000E-01   1.00800           0
      7627 LPSA7    31       BMANNA   C1       CC3162   0.290000       12.0110           0
      7628 LPSA7    31       BMANNA   H1       HCA1     0.900000E-01   1.00800           0
      7629 LPSA7    31       BMANNA   C5       CC3163   0.110000       12.0110           0
      7630 LPSA7    31       BMANNA   H5       HCA1     0.900000E-01   1.00800           0
      7631 LPSA7    31       BMANNA   O5       OC3C61  -0.400000       15.9994           0
      7632 LPSA7    31       BMANNA   C2       CC3161   0.700000E-01   12.0110           0
      7633 LPSA7    31       BMANNA   H2       HCA1     0.900000E-01   1.00800           0
      7634 LPSA7    31       BMANNA   N        NC2D1   -0.470000       14.0070           0
      7635 LPSA7    31       BMANNA   HN       HCP1     0.310000       1.00800           0
      7636 LPSA7    31       BMANNA   C        CC2O1    0.510000       12.0110           0
      7637 LPSA7    31       BMANNA   O        OC2D1   -0.510000       15.9994           0
      7638 LPSA7    31       BMANNA   CT       CC331   -0.270000       12.0110           0
      7639 LPSA7    31       BMANNA   HT1      HCA3     0.900000E-01   1.00800           0
      7640 LPSA7    31       BMANNA   HT2      HCA3     0.900000E-01   1.00800           0
      7641 LPSA7    31       BMANNA   HT3      HCA3     0.900000E-01   1.00800           0
      7642 LPSA7    31       BMANNA   C3       CC3161   0.140000       12.0110           0
      7643 LPSA7    31       BMANNA   H3       HCA1     0.900000E-01   1.00800           0
      7644 LPSA7    31       BMANNA   O3       OC311   -0.650000       15.9994           0
      7645 LPSA7    31       BMANNA   HO3      HCP1     0.420000       1.00800           0
      7646 LPSA7    31       BMANNA   C4       CC3161   0.140000       12.0110           0
      7647 LPSA7    31       BMANNA   H4       HCA1     0.900000E-01   1.00800           0
      7648 LPSA7    31       BMANNA   O4       OC311   -0.650000       15.9994           0
      7649 LPSA7    31       BMANNA   HO4      HCP1     0.420000       1.00800           0
      7650 LPSA7    31       BMANNA   C6       CC321    0.500000E-01   12.0110           0
      7651 LPSA7    31       BMANNA   H61      HCA2     0.900000E-01   1.00800           0
      7652 LPSA7    31       BMANNA   H62      HCA2     0.900000E-01   1.00800           0
      7653 LPSA7    31       BMANNA   O6       OC311   -0.650000       15.9994           0
      7654 LPSA7    31       BMANNA   HO6      HCP1     0.420000       1.00800           0
      7655 LPSA7    32       BGLCNA   C1       CC3162   0.290000       12.0110           0
      7656 LPSA7    32       BGLCNA   H1       HCA1     0.900000E-01   1.00800           0
      7657 LPSA7    32       BGLCNA   C5       CC3163   0.110000       12.0110           0
      7658 LPSA7    32       BGLCNA   H5       HCA1     0.900000E-01   1.00800           0
      7659 LPSA7    32       BGLCNA   O5       OC3C61  -0.400000       15.9994           0
      7660 LPSA7    32       BGLCNA   C2       CC3161   0.700000E-01   12.0110           0
      7661 LPSA7    32       BGLCNA   H2       HCA1     0.900000E-01   1.00800           0
      7662 LPSA7    32       BGLCNA   N        NC2D1   -0.470000       14.0070           0
      7663 LPSA7    32       BGLCNA   HN       HCP1     0.310000       1.00800           0
      7664 LPSA7    32       BGLCNA   C        CC2O1    0.510000       12.0110           0
      7665 LPSA7    32       BGLCNA   O        OC2D1   -0.510000       15.9994           0
      7666 LPSA7    32       BGLCNA   CT       CC331   -0.270000       12.0110           0
      7667 LPSA7    32       BGLCNA   HT1      HCA3     0.900000E-01   1.00800           0
      7668 LPSA7    32       BGLCNA   HT2      HCA3     0.900000E-01   1.00800           0
      7669 LPSA7    32       BGLCNA   HT3      HCA3     0.900000E-01   1.00800           0
      7670 LPSA7    32       BGLCNA   C3       CC3161   0.900000E-01   12.0110           0
      7671 LPSA7    32       BGLCNA   H3       HCA1     0.900000E-01   1.00800           0
      7672 LPSA7    32       BGLCNA   O3       OC301   -0.360000       15.9994           0
      7673 LPSA7    32       BGLCNA   C4       CC3161   0.140000       12.0110           0
      7674 LPSA7    32       BGLCNA   H4       HCA1     0.900000E-01   1.00800           0
      7675 LPSA7    32       BGLCNA   O4       OC311   -0.650000       15.9994           0
      7676 LPSA7    32       BGLCNA   HO4      HCP1     0.420000       1.00800           0
      7677 LPSA7    32       BGLCNA   C6       CC321    0.500000E-01   12.0110           0
      7678 LPSA7    32       BGLCNA   H61      HCA2     0.900000E-01   1.00800           0
      7679 LPSA7    32       BGLCNA   H62      HCA2     0.900000E-01   1.00800           0
      7680 LPSA7    32       BGLCNA   O6       OC311   -0.650000       15.9994           0
      7681 LPSA7    32       BGLCNA   HO6      HCP1     0.420000       1.00800           0
      7682 LPSA7    33       AGAL     C1       CC3162   0.290000       12.0110           0
      7683 LPSA7    33       AGAL     H1       HCA1     0.900000E-01   1.00800           0
      7684 LPSA7    33       AGAL     C5       CC3163   0.110000       12.0110           0
      7685 LPSA7    33       AGAL     H5       HCA1     0.900000E-01   1.00800           0
      7686 LPSA7    33       AGAL     O5       OC3C61  -0.400000       15.9994           0
      7687 LPSA7    33       AGAL     C2       CC3161   0.900000E-01   12.0110           0
      7688 LPSA7    33       AGAL     H2       HCA1     0.900000E-01   1.00800           0
      7689 LPSA7    33       AGAL     O2       OC301   -0.360000       15.9994           0
      7690 LPSA7    33       AGAL     C3       CC3161   0.140000       12.0110           0
      7691 LPSA7    33       AGAL     H3       HCA1     0.900000E-01   1.00800           0
      7692 LPSA7    33       AGAL     O3       OC311   -0.650000       15.9994           0
      7693 LPSA7    33       AGAL     HO3      HCP1     0.420000       1.00800           0
      7694 LPSA7    33       AGAL     C4       CC3161   0.140000       12.0110           0
      7695 LPSA7    33       AGAL     H4       HCA1     0.900000E-01   1.00800           0
      7696 LPSA7    33       AGAL     O4       OC311   -0.650000       15.9994           0
      7697 LPSA7    33       AGAL     HO4      HCP1     0.420000       1.00800           0
      7698 LPSA7    33       AGAL     C6       CC321    0.500000E-01   12.0110           0
      7699 LPSA7    33       AGAL     H61      HCA2     0.900000E-01   1.00800           0
      7700 LPSA7    33       AGAL     H62      HCA2     0.900000E-01   1.00800           0
      7701 LPSA7    33       AGAL     O6       OC311   -0.650000       15.9994           0
      7702 LPSA7    33       AGAL     HO6      HCP1     0.420000       1.00800           0
      7703 LPSA7    34       ARHM     C1       CC3162   0.290000       12.0110           0
      7704 LPSA7    34       ARHM     H1       HCA1     0.900000E-01   1.00800           0
      7705 LPSA7    34       ARHM     C5       CC3163   0.110000       12.0110           0
      7706 LPSA7    34       ARHM     H5       HCA1     0.900000E-01   1.00800           0
      7707 LPSA7    34       ARHM     O5       OC3C61  -0.400000       15.9994           0
      7708 LPSA7    34       ARHM     C2       CC3161   0.900000E-01   12.0110           0
      7709 LPSA7    34       ARHM     H2       HCA1     0.900000E-01   1.00800           0
      7710 LPSA7    34       ARHM     O2       OC301   -0.360000       15.9994           0
      7711 LPSA7    34       ARHM     C3       CC3161   0.140000       12.0110           0
      7712 LPSA7    34       ARHM     H3       HCA1     0.900000E-01   1.00800           0
      7713 LPSA7    34       ARHM     O3       OC311   -0.650000       15.9994           0
      7714 LPSA7    34       ARHM     HO3      HCP1     0.420000       1.00800           0
      7715 LPSA7    34       ARHM     C4       CC3161   0.140000       12.0110           0
      7716 LPSA7    34       ARHM     H4       HCA1     0.900000E-01   1.00800           0
      7717 LPSA7    34       ARHM     O4       OC311   -0.650000       15.9994           0
      7718 LPSA7    34       ARHM     HO4      HCP1     0.420000       1.00800           0
      7719 LPSA7    34       ARHM     C6       CC331   -0.270000       12.0110           0
      7720 LPSA7    34       ARHM     H61      HCA3     0.900000E-01   1.00800           0
      7721 LPSA7    34       ARHM     H62      HCA3     0.900000E-01   1.00800           0
      7722 LPSA7    34       ARHM     H63      HCA3     0.900000E-01   1.00800           0
      7723 LPSA7    35       ARHM     C1       CC3162   0.290000       12.0110           0
      7724 LPSA7    35       ARHM     H1       HCA1     0.900000E-01   1.00800           0
      7725 LPSA7    35       ARHM     C5       CC3163   0.110000       12.0110           0
      7726 LPSA7    35       ARHM     H5       HCA1     0.900000E-01   1.00800           0
      7727 LPSA7    35       ARHM     O5       OC3C61  -0.400000       15.9994           0
      7728 LPSA7    35       ARHM     C2       CC3161   0.900000E-01   12.0110           0
      7729 LPSA7    35       ARHM     H2       HCA1     0.900000E-01   1.00800           0
      7730 LPSA7    35       ARHM     O2       OC301   -0.360000       15.9994           0
      7731 LPSA7    35       ARHM     C3       CC3161   0.140000       12.0110           0
      7732 LPSA7    35       ARHM     H3       HCA1     0.900000E-01   1.00800           0
      7733 LPSA7    35       ARHM     O3       OC311   -0.650000       15.9994           0
      7734 LPSA7    35       ARHM     HO3      HCP1     0.420000       1.00800           0
      7735 LPSA7    35       ARHM     C4       CC3161   0.140000       12.0110           0
      7736 LPSA7    35       ARHM     H4       HCA1     0.900000E-01   1.00800           0
      7737 LPSA7    35       ARHM     O4       OC311   -0.650000       15.9994           0
      7738 LPSA7    35       ARHM     HO4      HCP1     0.420000       1.00800           0
      7739 LPSA7    35       ARHM     C6       CC331   -0.270000       12.0110           0
      7740 LPSA7    35       ARHM     H61      HCA3     0.900000E-01   1.00800           0
      7741 LPSA7    35       ARHM     H62      HCA3     0.900000E-01   1.00800           0
      7742 LPSA7    35       ARHM     H63      HCA3     0.900000E-01   1.00800           0
      7743 LPSA7    36       BMANNA   C1       CC3162   0.290000       12.0110           0
      7744 LPSA7    36       BMANNA   H1       HCA1     0.900000E-01   1.00800           0
      7745 LPSA7    36       BMANNA   C5       CC3163   0.110000       12.0110           0
      7746 LPSA7    36       BMANNA   H5       HCA1     0.900000E-01   1.00800           0
      7747 LPSA7    36       BMANNA   O5       OC3C61  -0.400000       15.9994           0
      7748 LPSA7    36       BMANNA   C2       CC3161   0.700000E-01   12.0110           0
      7749 LPSA7    36       BMANNA   H2       HCA1     0.900000E-01   1.00800           0
      7750 LPSA7    36       BMANNA   N        NC2D1   -0.470000       14.0070           0
      7751 LPSA7    36       BMANNA   HN       HCP1     0.310000       1.00800           0
      7752 LPSA7    36       BMANNA   C        CC2O1    0.510000       12.0110           0
      7753 LPSA7    36       BMANNA   O        OC2D1   -0.510000       15.9994           0
      7754 LPSA7    36       BMANNA   CT       CC331   -0.270000       12.0110           0
      7755 LPSA7    36       BMANNA   HT1      HCA3     0.900000E-01   1.00800           0
      7756 LPSA7    36       BMANNA   HT2      HCA3     0.900000E-01   1.00800           0
      7757 LPSA7    36       BMANNA   HT3      HCA3     0.900000E-01   1.00800           0
      7758 LPSA7    36       BMANNA   C3       CC3161   0.140000       12.0110           0
      7759 LPSA7    36       BMANNA   H3       HCA1     0.900000E-01   1.00800           0
      7760 LPSA7    36       BMANNA   O3       OC311   -0.650000       15.9994           0
      7761 LPSA7    36       BMANNA   HO3      HCP1     0.420000       1.00800           0
      7762 LPSA7    36       BMANNA   C4       CC3161   0.140000       12.0110           0
      7763 LPSA7    36       BMANNA   H4       HCA1     0.900000E-01   1.00800           0
      7764 LPSA7    36       BMANNA   O4       OC311   -0.650000       15.9994           0
      7765 LPSA7    36       BMANNA   HO4      HCP1     0.420000       1.00800           0
      7766 LPSA7    36       BMANNA   C6       CC321    0.500000E-01   12.0110           0
      7767 LPSA7    36       BMANNA   H61      HCA2     0.900000E-01   1.00800           0
      7768 LPSA7    36       BMANNA   H62      HCA2     0.900000E-01   1.00800           0
      7769 LPSA7    36       BMANNA   O6       OC311   -0.650000       15.9994           0
      7770 LPSA7    36       BMANNA   HO6      HCP1     0.420000       1.00800           0
      7771 LPSA8    1        ECLIPA   HB6S     HCA2     0.900000E-01   1.00800           0
      7772 LPSA8    1        ECLIPA   OB6      OC301   -0.360000       15.9994           0
      7773 LPSA8    1        ECLIPA   CB6      CC321     0.00000       12.0110           0
      7774 LPSA8    1        ECLIPA   HB6R     HCA2     0.900000E-01   1.00800           0
      7775 LPSA8    1        ECLIPA   CB5      CC3163   0.110000       12.0110           0
      7776 LPSA8    1        ECLIPA   OB5      OC3C61  -0.400000       15.9994           0
      7777 LPSA8    1        ECLIPA   HB5      HCA1     0.900000E-01   1.00800           0
      7778 LPSA8    1        ECLIPA   CB1      CC3162   0.290000       12.0110           0
      7779 LPSA8    1        ECLIPA   HB1      HCA1     0.900000E-01   1.00800           0
      7780 LPSA8    1        ECLIPA   OA6      OC301   -0.360000       15.9994           0
      7781 LPSA8    1        ECLIPA   CA6      CC321     0.00000       12.0110           0
      7782 LPSA8    1        ECLIPA   HA6R     HCA2     0.900000E-01   1.00800           0
      7783 LPSA8    1        ECLIPA   HA6S     HCA2     0.900000E-01   1.00800           0
      7784 LPSA8    1        ECLIPA   CB4      CC3161  -0.900000E-01   12.0110           0
      7785 LPSA8    1        ECLIPA   HB4      HCA1     0.900000E-01   1.00800           0
      7786 LPSA8    1        ECLIPA   OB4      OC30P   -0.400000       15.9994           0
      7787 LPSA8    1        ECLIPA   PB       PC        1.10000       30.9740           0
      7788 LPSA8    1        ECLIPA   OPB4     OC2DP   -0.900000       15.9994           0
      7789 LPSA8    1        ECLIPA   OPB3     OC2DP   -0.900000       15.9994           0
      7790 LPSA8    1        ECLIPA   OPB2     OC2DP   -0.900000       15.9994           0
      7791 LPSA8    1        ECLIPA   CB3      CC3161   0.170000       12.0110           0
      7792 LPSA8    1        ECLIPA   OB3      OC301   -0.490000       15.9994           0
      7793 LPSA8    1        ECLIPA   HB3      HCA1     0.900000E-01   1.00800           0
      7794 LPSA8    1        ECLIPA   C71      CL       0.900000       12.0110           0
      7795 LPSA8    1        ECLIPA   O71      OBL     -0.630000       15.9994           0
      7796 LPSA8    1        ECLIPA   C72      CTL2    -0.220000       12.0110           0
      7797 LPSA8    1        ECLIPA   H72R     HAL2     0.900000E-01   1.00800           0
      7798 LPSA8    1        ECLIPA   H72S     HAL2     0.900000E-01   1.00800           0
      7799 LPSA8    1        ECLIPA   CB2      CC3161   0.700000E-01   12.0110           0
      7800 LPSA8    1        ECLIPA   HB2      HCA1     0.900000E-01   1.00800           0
      7801 LPSA8    1        ECLIPA   NB2      NC2D1   -0.470000       14.0070           0
      7802 LPSA8    1        ECLIPA   HNB2     HCP1     0.310000       1.00800           0
      7803 LPSA8    1        ECLIPA   CA4      CC3161   0.140000       12.0110           0
      7804 LPSA8    1        ECLIPA   HA4      HCA1     0.900000E-01   1.00800           0
      7805 LPSA8    1        ECLIPA   OA4      OC311   -0.650000       15.9994           0
      7806 LPSA8    1        ECLIPA   HOA4     HCP1     0.420000       1.00800           0
      7807 LPSA8    1        ECLIPA   CA5      CC3163   0.110000       12.0110           0
      7808 LPSA8    1        ECLIPA   HA5      HCA1     0.900000E-01   1.00800           0
      7809 LPSA8    1        ECLIPA   OA5      OC3C61  -0.400000       15.9994           0
      7810 LPSA8    1        ECLIPA   CA1      CC3162   0.110000       12.0110           0
      7811 LPSA8    1        ECLIPA   HA1      HCA1     0.900000E-01   1.00800           0
      7812 LPSA8    1        ECLIPA   OA1      OC30P   -0.400000       15.9994           0
      7813 LPSA8    1        ECLIPA   OPA2     OC2DP   -0.900000       15.9994           0
      7814 LPSA8    1        ECLIPA   OPA3     OC2DP   -0.900000       15.9994           0
      7815 LPSA8    1        ECLIPA   OPA4     OC2DP   -0.900000       15.9994           0
      7816 LPSA8    1        ECLIPA   PA       PC        1.10000       30.9740           0
      7817 LPSA8    1        ECLIPA   CA3      CC3161   0.170000       12.0110           0
      7818 LPSA8    1        ECLIPA   HA3      HCA1     0.900000E-01   1.00800           0
      7819 LPSA8    1        ECLIPA   OA3      OC301   -0.490000       15.9994           0
      7820 LPSA8    1        ECLIPA   C31      CL       0.900000       12.0110           0
      7821 LPSA8    1        ECLIPA   O31      OBL     -0.630000       15.9994           0
      7822 LPSA8    1        ECLIPA   C32      CTL2    -0.220000       12.0110           0
      7823 LPSA8    1        ECLIPA   H32R     HAL2     0.900000E-01   1.00800           0
      7824 LPSA8    1        ECLIPA   H32S     HAL2     0.900000E-01   1.00800           0
      7825 LPSA8    1        ECLIPA   CA2      CC3161   0.700000E-01   12.0110           0
      7826 LPSA8    1        ECLIPA   HA2      HCA1     0.900000E-01   1.00800           0
      7827 LPSA8    1        ECLIPA   NA2      NC2D1   -0.470000       14.0070           0
      7828 LPSA8    1        ECLIPA   HNA2     HCP1     0.310000       1.00800           0
      7829 LPSA8    1        ECLIPA   C73      CTL1     0.170000       12.0110           0
      7830 LPSA8    1        ECLIPA   H73R     HAL1     0.900000E-01   1.00800           0
      7831 LPSA8    1        ECLIPA   O73      OSL     -0.490000       15.9994           0
      7832 LPSA8    1        ECLIPA   C81      CL       0.900000       12.0110           0
      7833 LPSA8    1        ECLIPA   O81      OBL     -0.630000       15.9994           0
      7834 LPSA8    1        ECLIPA   C82      CTL2    -0.220000       12.0110           0
      7835 LPSA8    1        ECLIPA   H82R     HAL2     0.900000E-01   1.00800           0
      7836 LPSA8    1        ECLIPA   H82S     HAL2     0.900000E-01   1.00800           0
      7837 LPSA8    1        ECLIPA   C83      CTL2    -0.180000       12.0110           0
      7838 LPSA8    1        ECLIPA   H83R     HAL2     0.900000E-01   1.00800           0
      7839 LPSA8    1        ECLIPA   H83S     HAL2     0.900000E-01   1.00800           0
      7840 LPSA8    1        ECLIPA   C84      CTL2    -0.180000       12.0110           0
      7841 LPSA8    1        ECLIPA   H84R     HAL2     0.900000E-01   1.00800           0
      7842 LPSA8    1        ECLIPA   H84S     HAL2     0.900000E-01   1.00800           0
      7843 LPSA8    1        ECLIPA   C85      CTL2    -0.180000       12.0110           0
      7844 LPSA8    1        ECLIPA   H85R     HAL2     0.900000E-01   1.00800           0
      7845 LPSA8    1        ECLIPA   H85S     HAL2     0.900000E-01   1.00800           0
      7846 LPSA8    1        ECLIPA   C86      CTL2    -0.180000       12.0110           0
      7847 LPSA8    1        ECLIPA   H86R     HAL2     0.900000E-01   1.00800           0
      7848 LPSA8    1        ECLIPA   H86S     HAL2     0.900000E-01   1.00800           0
      7849 LPSA8    1        ECLIPA   C87      CTL2    -0.180000       12.0110           0
      7850 LPSA8    1        ECLIPA   H87R     HAL2     0.900000E-01   1.00800           0
      7851 LPSA8    1        ECLIPA   H87S     HAL2     0.900000E-01   1.00800           0
      7852 LPSA8    1        ECLIPA   C88      CTL2    -0.180000       12.0110           0
      7853 LPSA8    1        ECLIPA   H88R     HAL2     0.900000E-01   1.00800           0
      7854 LPSA8    1        ECLIPA   H88S     HAL2     0.900000E-01   1.00800           0
      7855 LPSA8    1        ECLIPA   C89      CTL2    -0.180000       12.0110           0
      7856 LPSA8    1        ECLIPA   H89R     HAL2     0.900000E-01   1.00800           0
      7857 LPSA8    1        ECLIPA   H89S     HAL2     0.900000E-01   1.00800           0
      7858 LPSA8    1        ECLIPA   C810     CTL2    -0.180000       12.0110           0
      7859 LPSA8    1        ECLIPA   H810R    HAL2     0.900000E-01   1.00800           0
      7860 LPSA8    1        ECLIPA   H810S    HAL2     0.900000E-01   1.00800           0
      7861 LPSA8    1        ECLIPA   C811     CTL2    -0.180000       12.0110           0
      7862 LPSA8    1        ECLIPA   H811R    HAL2     0.900000E-01   1.00800           0
      7863 LPSA8    1        ECLIPA   H811S    HAL2     0.900000E-01   1.00800           0
      7864 LPSA8    1        ECLIPA   C812     CTL2    -0.180000       12.0110           0
      7865 LPSA8    1        ECLIPA   H812R    HAL2     0.900000E-01   1.00800           0
      7866 LPSA8    1        ECLIPA   H812S    HAL2     0.900000E-01   1.00800           0
      7867 LPSA8    1        ECLIPA   C813     CTL2    -0.180000       12.0110           0
      7868 LPSA8    1        ECLIPA   H813R    HAL2     0.900000E-01   1.00800           0
      7869 LPSA8    1        ECLIPA   H813S    HAL2     0.900000E-01   1.00800           0
      7870 LPSA8    1        ECLIPA   C814     CTL3    -0.270000       12.0110           0
      7871 LPSA8    1        ECLIPA   H814R    HAL3     0.900000E-01   1.00800           0
      7872 LPSA8    1        ECLIPA   H814S    HAL3     0.900000E-01   1.00800           0
      7873 LPSA8    1        ECLIPA   H814T    HAL3     0.900000E-01   1.00800           0
      7874 LPSA8    1        ECLIPA   C74      CTL2    -0.180000       12.0110           0
      7875 LPSA8    1        ECLIPA   H74R     HAL2     0.900000E-01   1.00800           0
      7876 LPSA8    1        ECLIPA   H74S     HAL2     0.900000E-01   1.00800           0
      7877 LPSA8    1        ECLIPA   C75      CTL2    -0.180000       12.0110           0
      7878 LPSA8    1        ECLIPA   H75R     HAL2     0.900000E-01   1.00800           0
      7879 LPSA8    1        ECLIPA   H75S     HAL2     0.900000E-01   1.00800           0
      7880 LPSA8    1        ECLIPA   C76      CTL2    -0.180000       12.0110           0
      7881 LPSA8    1        ECLIPA   H76R     HAL2     0.900000E-01   1.00800           0
      7882 LPSA8    1        ECLIPA   H76S     HAL2     0.900000E-01   1.00800           0
      7883 LPSA8    1        ECLIPA   C77      CTL2    -0.180000       12.0110           0
      7884 LPSA8    1        ECLIPA   H77R     HAL2     0.900000E-01   1.00800           0
      7885 LPSA8    1        ECLIPA   H77S     HAL2     0.900000E-01   1.00800           0
      7886 LPSA8    1        ECLIPA   C78      CTL2    -0.180000       12.0110           0
      7887 LPSA8    1        ECLIPA   H78R     HAL2     0.900000E-01   1.00800           0
      7888 LPSA8    1        ECLIPA   H78S     HAL2     0.900000E-01   1.00800           0
      7889 LPSA8    1        ECLIPA   C79      CTL2    -0.180000       12.0110           0
      7890 LPSA8    1        ECLIPA   H79R     HAL2     0.900000E-01   1.00800           0
      7891 LPSA8    1        ECLIPA   H79S     HAL2     0.900000E-01   1.00800           0
      7892 LPSA8    1        ECLIPA   C710     CTL2    -0.180000       12.0110           0
      7893 LPSA8    1        ECLIPA   H710R    HAL2     0.900000E-01   1.00800           0
      7894 LPSA8    1        ECLIPA   H710S    HAL2     0.900000E-01   1.00800           0
      7895 LPSA8    1        ECLIPA   C711     CTL2    -0.180000       12.0110           0
      7896 LPSA8    1        ECLIPA   H711R    HAL2     0.900000E-01   1.00800           0
      7897 LPSA8    1        ECLIPA   H711S    HAL2     0.900000E-01   1.00800           0
      7898 LPSA8    1        ECLIPA   C712     CTL2    -0.180000       12.0110           0
      7899 LPSA8    1        ECLIPA   H712R    HAL2     0.900000E-01   1.00800           0
      7900 LPSA8    1        ECLIPA   H712S    HAL2     0.900000E-01   1.00800           0
      7901 LPSA8    1        ECLIPA   C713     CTL2    -0.180000       12.0110           0
      7902 LPSA8    1        ECLIPA   H713R    HAL2     0.900000E-01   1.00800           0
      7903 LPSA8    1        ECLIPA   H713S    HAL2     0.900000E-01   1.00800           0
      7904 LPSA8    1        ECLIPA   C714     CTL3    -0.270000       12.0110           0
      7905 LPSA8    1        ECLIPA   H714R    HAL3     0.900000E-01   1.00800           0
      7906 LPSA8    1        ECLIPA   H714S    HAL3     0.900000E-01   1.00800           0
      7907 LPSA8    1        ECLIPA   H714T    HAL3     0.900000E-01   1.00800           0
      7908 LPSA8    1        ECLIPA   C51      CC2O1    0.550000       12.0110           0
      7909 LPSA8    1        ECLIPA   O51      OC2D1   -0.550000       15.9994           0
      7910 LPSA8    1        ECLIPA   C52      CTL2    -0.180000       12.0110           0
      7911 LPSA8    1        ECLIPA   H52R     HAL2     0.900000E-01   1.00800           0
      7912 LPSA8    1        ECLIPA   H52S     HAL2     0.900000E-01   1.00800           0
      7913 LPSA8    1        ECLIPA   C53      CTL1     0.170000       12.0110           0
      7914 LPSA8    1        ECLIPA   H53R     HAL1     0.900000E-01   1.00800           0
      7915 LPSA8    1        ECLIPA   O53      OSL     -0.490000       15.9994           0
      7916 LPSA8    1        ECLIPA   C61      CL       0.900000       12.0110           0
      7917 LPSA8    1        ECLIPA   O61      OBL     -0.630000       15.9994           0
      7918 LPSA8    1        ECLIPA   C62      CTL2    -0.220000       12.0110           0
      7919 LPSA8    1        ECLIPA   H62R     HAL2     0.900000E-01   1.00800           0
      7920 LPSA8    1        ECLIPA   H62S     HAL2     0.900000E-01   1.00800           0
      7921 LPSA8    1        ECLIPA   C63      CTL2    -0.180000       12.0110           0
      7922 LPSA8    1        ECLIPA   H63R     HAL2     0.900000E-01   1.00800           0
      7923 LPSA8    1        ECLIPA   H63S     HAL2     0.900000E-01   1.00800           0
      7924 LPSA8    1        ECLIPA   C64      CTL2    -0.180000       12.0110           0
      7925 LPSA8    1        ECLIPA   H64R     HAL2     0.900000E-01   1.00800           0
      7926 LPSA8    1        ECLIPA   H64S     HAL2     0.900000E-01   1.00800           0
      7927 LPSA8    1        ECLIPA   C65      CTL2    -0.180000       12.0110           0
      7928 LPSA8    1        ECLIPA   H65R     HAL2     0.900000E-01   1.00800           0
      7929 LPSA8    1        ECLIPA   H65S     HAL2     0.900000E-01   1.00800           0
      7930 LPSA8    1        ECLIPA   C66      CTL2    -0.180000       12.0110           0
      7931 LPSA8    1        ECLIPA   H66R     HAL2     0.900000E-01   1.00800           0
      7932 LPSA8    1        ECLIPA   H66S     HAL2     0.900000E-01   1.00800           0
      7933 LPSA8    1        ECLIPA   C67      CTL2    -0.180000       12.0110           0
      7934 LPSA8    1        ECLIPA   H67R     HAL2     0.900000E-01   1.00800           0
      7935 LPSA8    1        ECLIPA   H67S     HAL2     0.900000E-01   1.00800           0
      7936 LPSA8    1        ECLIPA   C68      CTL2    -0.180000       12.0110           0
      7937 LPSA8    1        ECLIPA   H68R     HAL2     0.900000E-01   1.00800           0
      7938 LPSA8    1        ECLIPA   H68S     HAL2     0.900000E-01   1.00800           0
      7939 LPSA8    1        ECLIPA   C69      CTL2    -0.180000       12.0110           0
      7940 LPSA8    1        ECLIPA   H69R     HAL2     0.900000E-01   1.00800           0
      7941 LPSA8    1        ECLIPA   H69S     HAL2     0.900000E-01   1.00800           0
      7942 LPSA8    1        ECLIPA   C610     CTL2    -0.180000       12.0110           0
      7943 LPSA8    1        ECLIPA   H610R    HAL2     0.900000E-01   1.00800           0
      7944 LPSA8    1        ECLIPA   H610S    HAL2     0.900000E-01   1.00800           0
      7945 LPSA8    1        ECLIPA   C611     CTL2    -0.180000       12.0110           0
      7946 LPSA8    1        ECLIPA   H611R    HAL2     0.900000E-01   1.00800           0
      7947 LPSA8    1        ECLIPA   H611S    HAL2     0.900000E-01   1.00800           0
      7948 LPSA8    1        ECLIPA   C612     CTL3    -0.270000       12.0110           0
      7949 LPSA8    1        ECLIPA   H612R    HAL3     0.900000E-01   1.00800           0
      7950 LPSA8    1        ECLIPA   H612S    HAL3     0.900000E-01   1.00800           0
      7951 LPSA8    1        ECLIPA   H612T    HAL3     0.900000E-01   1.00800           0
      7952 LPSA8    1        ECLIPA   C54      CTL2    -0.180000       12.0110           0
      7953 LPSA8    1        ECLIPA   H54R     HAL2     0.900000E-01   1.00800           0
      7954 LPSA8    1        ECLIPA   H54S     HAL2     0.900000E-01   1.00800           0
      7955 LPSA8    1        ECLIPA   C55      CTL2    -0.180000       12.0110           0
      7956 LPSA8    1        ECLIPA   H55R     HAL2     0.900000E-01   1.00800           0
      7957 LPSA8    1        ECLIPA   H55S     HAL2     0.900000E-01   1.00800           0
      7958 LPSA8    1        ECLIPA   C56      CTL2    -0.180000       12.0110           0
      7959 LPSA8    1        ECLIPA   H56R     HAL2     0.900000E-01   1.00800           0
      7960 LPSA8    1        ECLIPA   H56S     HAL2     0.900000E-01   1.00800           0
      7961 LPSA8    1        ECLIPA   C57      CTL2    -0.180000       12.0110           0
      7962 LPSA8    1        ECLIPA   H57R     HAL2     0.900000E-01   1.00800           0
      7963 LPSA8    1        ECLIPA   H57S     HAL2     0.900000E-01   1.00800           0
      7964 LPSA8    1        ECLIPA   C58      CTL2    -0.180000       12.0110           0
      7965 LPSA8    1        ECLIPA   H58R     HAL2     0.900000E-01   1.00800           0
      7966 LPSA8    1        ECLIPA   H58S     HAL2     0.900000E-01   1.00800           0
      7967 LPSA8    1        ECLIPA   C59      CTL2    -0.180000       12.0110           0
      7968 LPSA8    1        ECLIPA   H59R     HAL2     0.900000E-01   1.00800           0
      7969 LPSA8    1        ECLIPA   H59S     HAL2     0.900000E-01   1.00800           0
      7970 LPSA8    1        ECLIPA   C510     CTL2    -0.180000       12.0110           0
      7971 LPSA8    1        ECLIPA   H510R    HAL2     0.900000E-01   1.00800           0
      7972 LPSA8    1        ECLIPA   H510S    HAL2     0.900000E-01   1.00800           0
      7973 LPSA8    1        ECLIPA   C511     CTL2    -0.180000       12.0110           0
      7974 LPSA8    1        ECLIPA   H511R    HAL2     0.900000E-01   1.00800           0
      7975 LPSA8    1        ECLIPA   H511S    HAL2     0.900000E-01   1.00800           0
      7976 LPSA8    1        ECLIPA   C512     CTL2    -0.180000       12.0110           0
      7977 LPSA8    1        ECLIPA   H512R    HAL2     0.900000E-01   1.00800           0
      7978 LPSA8    1        ECLIPA   H512S    HAL2     0.900000E-01   1.00800           0
      7979 LPSA8    1        ECLIPA   C513     CTL2    -0.180000       12.0110           0
      7980 LPSA8    1        ECLIPA   H513R    HAL2     0.900000E-01   1.00800           0
      7981 LPSA8    1        ECLIPA   H513S    HAL2     0.900000E-01   1.00800           0
      7982 LPSA8    1        ECLIPA   C514     CTL3    -0.270000       12.0110           0
      7983 LPSA8    1        ECLIPA   H514R    HAL3     0.900000E-01   1.00800           0
      7984 LPSA8    1        ECLIPA   H514S    HAL3     0.900000E-01   1.00800           0
      7985 LPSA8    1        ECLIPA   H514T    HAL3     0.900000E-01   1.00800           0
      7986 LPSA8    1        ECLIPA   C33      CTL1     0.140000       12.0110           0
      7987 LPSA8    1        ECLIPA   H33R     HAL1     0.900000E-01   1.00800           0
      7988 LPSA8    1        ECLIPA   O33      OH1     -0.660000       15.9994           0
      7989 LPSA8    1        ECLIPA   HO33     H        0.430000       1.00800           0
      7990 LPSA8    1        ECLIPA   C34      CTL2    -0.180000       12.0110           0
      7991 LPSA8    1        ECLIPA   H34R     HAL2     0.900000E-01   1.00800           0
      7992 LPSA8    1        ECLIPA   H34S     HAL2     0.900000E-01   1.00800           0
      7993 LPSA8    1        ECLIPA   C35      CTL2    -0.180000       12.0110           0
      7994 LPSA8    1        ECLIPA   H35R     HAL2     0.900000E-01   1.00800           0
      7995 LPSA8    1        ECLIPA   H35S     HAL2     0.900000E-01   1.00800           0
      7996 LPSA8    1        ECLIPA   C36      CTL2    -0.180000       12.0110           0
      7997 LPSA8    1        ECLIPA   H36R     HAL2     0.900000E-01   1.00800           0
      7998 LPSA8    1        ECLIPA   H36S     HAL2     0.900000E-01   1.00800           0
      7999 LPSA8    1        ECLIPA   C37      CTL2    -0.180000       12.0110           0
      8000 LPSA8    1        ECLIPA   H37R     HAL2     0.900000E-01   1.00800           0
      8001 LPSA8    1        ECLIPA   H37S     HAL2     0.900000E-01   1.00800           0
      8002 LPSA8    1        ECLIPA   C38      CTL2    -0.180000       12.0110           0
      8003 LPSA8    1        ECLIPA   H38R     HAL2     0.900000E-01   1.00800           0
      8004 LPSA8    1        ECLIPA   H38S     HAL2     0.900000E-01   1.00800           0
      8005 LPSA8    1        ECLIPA   C39      CTL2    -0.180000       12.0110           0
      8006 LPSA8    1        ECLIPA   H39R     HAL2     0.900000E-01   1.00800           0
      8007 LPSA8    1        ECLIPA   H39S     HAL2     0.900000E-01   1.00800           0
      8008 LPSA8    1        ECLIPA   C310     CTL2    -0.180000       12.0110           0
      8009 LPSA8    1        ECLIPA   H310R    HAL2     0.900000E-01   1.00800           0
      8010 LPSA8    1        ECLIPA   H310S    HAL2     0.900000E-01   1.00800           0
      8011 LPSA8    1        ECLIPA   C311     CTL2    -0.180000       12.0110           0
      8012 LPSA8    1        ECLIPA   H311R    HAL2     0.900000E-01   1.00800           0
      8013 LPSA8    1        ECLIPA   H311S    HAL2     0.900000E-01   1.00800           0
      8014 LPSA8    1        ECLIPA   C312     CTL2    -0.180000       12.0110           0
      8015 LPSA8    1        ECLIPA   H312R    HAL2     0.900000E-01   1.00800           0
      8016 LPSA8    1        ECLIPA   H312S    HAL2     0.900000E-01   1.00800           0
      8017 LPSA8    1        ECLIPA   C313     CTL2    -0.180000       12.0110           0
      8018 LPSA8    1        ECLIPA   H313R    HAL2     0.900000E-01   1.00800           0
      8019 LPSA8    1        ECLIPA   H313S    HAL2     0.900000E-01   1.00800           0
      8020 LPSA8    1        ECLIPA   C314     CTL3    -0.270000       12.0110           0
      8021 LPSA8    1        ECLIPA   H314R    HAL3     0.900000E-01   1.00800           0
      8022 LPSA8    1        ECLIPA   H314S    HAL3     0.900000E-01   1.00800           0
      8023 LPSA8    1        ECLIPA   H314T    HAL3     0.900000E-01   1.00800           0
      8024 LPSA8    1        ECLIPA   C11      CC2O1    0.550000       12.0110           0
      8025 LPSA8    1        ECLIPA   O11      OC2D1   -0.550000       15.9994           0
      8026 LPSA8    1        ECLIPA   C12      CTL2    -0.180000       12.0110           0
      8027 LPSA8    1        ECLIPA   H12R     HAL2     0.900000E-01   1.00800           0
      8028 LPSA8    1        ECLIPA   H12S     HAL2     0.900000E-01   1.00800           0
      8029 LPSA8    1        ECLIPA   C13      CTL1     0.140000       12.0110           0
      8030 LPSA8    1        ECLIPA   H13R     HAL1     0.900000E-01   1.00800           0
      8031 LPSA8    1        ECLIPA   O13      OH1     -0.660000       15.9994           0
      8032 LPSA8    1        ECLIPA   HO13     H        0.430000       1.00800           0
      8033 LPSA8    1        ECLIPA   C14      CTL2    -0.180000       12.0110           0
      8034 LPSA8    1        ECLIPA   H14R     HAL2     0.900000E-01   1.00800           0
      8035 LPSA8    1        ECLIPA   H14S     HAL2     0.900000E-01   1.00800           0
      8036 LPSA8    1        ECLIPA   C15      CTL2    -0.180000       12.0110           0
      8037 LPSA8    1        ECLIPA   H15R     HAL2     0.900000E-01   1.00800           0
      8038 LPSA8    1        ECLIPA   H15S     HAL2     0.900000E-01   1.00800           0
      8039 LPSA8    1        ECLIPA   C16      CTL2    -0.180000       12.0110           0
      8040 LPSA8    1        ECLIPA   H16R     HAL2     0.900000E-01   1.00800           0
      8041 LPSA8    1        ECLIPA   H16S     HAL2     0.900000E-01   1.00800           0
      8042 LPSA8    1        ECLIPA   C17      CTL2    -0.180000       12.0110           0
      8043 LPSA8    1        ECLIPA   H17R     HAL2     0.900000E-01   1.00800           0
      8044 LPSA8    1        ECLIPA   H17S     HAL2     0.900000E-01   1.00800           0
      8045 LPSA8    1        ECLIPA   C18      CTL2    -0.180000       12.0110           0
      8046 LPSA8    1        ECLIPA   H18R     HAL2     0.900000E-01   1.00800           0
      8047 LPSA8    1        ECLIPA   H18S     HAL2     0.900000E-01   1.00800           0
      8048 LPSA8    1        ECLIPA   C19      CTL2    -0.180000       12.0110           0
      8049 LPSA8    1        ECLIPA   H19R     HAL2     0.900000E-01   1.00800           0
      8050 LPSA8    1        ECLIPA   H19S     HAL2     0.900000E-01   1.00800           0
      8051 LPSA8    1        ECLIPA   C110     CTL2    -0.180000       12.0110           0
      8052 LPSA8    1        ECLIPA   H110R    HAL2     0.900000E-01   1.00800           0
      8053 LPSA8    1        ECLIPA   H110S    HAL2     0.900000E-01   1.00800           0
      8054 LPSA8    1        ECLIPA   C111     CTL2    -0.180000       12.0110           0
      8055 LPSA8    1        ECLIPA   H111R    HAL2     0.900000E-01   1.00800           0
      8056 LPSA8    1        ECLIPA   H111S    HAL2     0.900000E-01   1.00800           0
      8057 LPSA8    1        ECLIPA   C112     CTL2    -0.180000       12.0110           0
      8058 LPSA8    1        ECLIPA   H112R    HAL2     0.900000E-01   1.00800           0
      8059 LPSA8    1        ECLIPA   H112S    HAL2     0.900000E-01   1.00800           0
      8060 LPSA8    1        ECLIPA   C113     CTL2    -0.180000       12.0110           0
      8061 LPSA8    1        ECLIPA   H113R    HAL2     0.900000E-01   1.00800           0
      8062 LPSA8    1        ECLIPA   H113S    HAL2     0.900000E-01   1.00800           0
      8063 LPSA8    1        ECLIPA   C114     CTL3    -0.270000       12.0110           0
      8064 LPSA8    1        ECLIPA   H114R    HAL3     0.900000E-01   1.00800           0
      8065 LPSA8    1        ECLIPA   H114S    HAL3     0.900000E-01   1.00800           0
      8066 LPSA8    1        ECLIPA   H114T    HAL3     0.900000E-01   1.00800           0
      8067 LPSA8    2        AKDO     C1       CC2O2    0.300000       12.0110           0
      8068 LPSA8    2        AKDO     O11      OC2D2   -0.600000       15.9994           0
      8069 LPSA8    2        AKDO     O12      OC2D2   -0.600000       15.9994           0
      8070 LPSA8    2        AKDO     C2       CC3062   0.280000       12.0110           0
      8071 LPSA8    2        AKDO     C6       CC3163   0.110000       12.0110           0
      8072 LPSA8    2        AKDO     H6       HCA1     0.900000E-01   1.00800           0
      8073 LPSA8    2        AKDO     O6       OC3C61  -0.400000       15.9994           0
      8074 LPSA8    2        AKDO     C3       CC3261  -0.180000       12.0110           0
      8075 LPSA8    2        AKDO     H31      HCA2     0.900000E-01   1.00800           0
      8076 LPSA8    2        AKDO     H32      HCA2     0.900000E-01   1.00800           0
      8077 LPSA8    2        AKDO     C4       CC3161   0.900000E-01   12.0110           0
      8078 LPSA8    2        AKDO     H4       HCA1     0.900000E-01   1.00800           0
      8079 LPSA8    2        AKDO     O4       OC301   -0.360000       15.9994           0
      8080 LPSA8    2        AKDO     C5       CC3161   0.900000E-01   12.0110           0
      8081 LPSA8    2        AKDO     H5       HCA1     0.900000E-01   1.00800           0
      8082 LPSA8    2        AKDO     O5       OC301   -0.360000       15.9994           0
      8083 LPSA8    2        AKDO     C7       CC312    0.140000       12.0110           0
      8084 LPSA8    2        AKDO     H7       HCA1     0.900000E-01   1.00800           0
      8085 LPSA8    2        AKDO     O7       OC311   -0.650000       15.9994           0
      8086 LPSA8    2        AKDO     HO7      HCP1     0.420000       1.00800           0
      8087 LPSA8    2        AKDO     C8       CC322    0.500000E-01   12.0110           0
      8088 LPSA8    2        AKDO     H81      HCA2     0.900000E-01   1.00800           0
      8089 LPSA8    2        AKDO     H82      HCA2     0.900000E-01   1.00800           0
      8090 LPSA8    2        AKDO     O8       OC311   -0.650000       15.9994           0
      8091 LPSA8    2        AKDO     HO8      HCP1     0.420000       1.00800           0
      8092 LPSA8    3        AKDO     C1       CC2O2    0.300000       12.0110           0
      8093 LPSA8    3        AKDO     O11      OC2D2   -0.600000       15.9994           0
      8094 LPSA8    3        AKDO     O12      OC2D2   -0.600000       15.9994           0
      8095 LPSA8    3        AKDO     C2       CC3062   0.280000       12.0110           0
      8096 LPSA8    3        AKDO     C6       CC3163   0.110000       12.0110           0
      8097 LPSA8    3        AKDO     H6       HCA1     0.900000E-01   1.00800           0
      8098 LPSA8    3        AKDO     O6       OC3C61  -0.400000       15.9994           0
      8099 LPSA8    3        AKDO     C3       CC3261  -0.180000       12.0110           0
      8100 LPSA8    3        AKDO     H31      HCA2     0.900000E-01   1.00800           0
      8101 LPSA8    3        AKDO     H32      HCA2     0.900000E-01   1.00800           0
      8102 LPSA8    3        AKDO     C4       CC3161   0.140000       12.0110           0
      8103 LPSA8    3        AKDO     H4       HCA1     0.900000E-01   1.00800           0
      8104 LPSA8    3        AKDO     O4       OC311   -0.650000       15.9994           0
      8105 LPSA8    3        AKDO     HO4      HCP1     0.420000       1.00800           0
      8106 LPSA8    3        AKDO     C5       CC3161   0.140000       12.0110           0
      8107 LPSA8    3        AKDO     H5       HCA1     0.900000E-01   1.00800           0
      8108 LPSA8    3        AKDO     O5       OC311   -0.650000       15.9994           0
      8109 LPSA8    3        AKDO     HO5      HCP1     0.420000       1.00800           0
      8110 LPSA8    3        AKDO     C7       CC312    0.140000       12.0110           0
      8111 LPSA8    3        AKDO     H7       HCA1     0.900000E-01   1.00800           0
      8112 LPSA8    3        AKDO     O7       OC311   -0.650000       15.9994           0
      8113 LPSA8    3        AKDO     HO7      HCP1     0.420000       1.00800           0
      8114 LPSA8    3        AKDO     C8       CC322    0.500000E-01   12.0110           0
      8115 LPSA8    3        AKDO     H81      HCA2     0.900000E-01   1.00800           0
      8116 LPSA8    3        AKDO     H82      HCA2     0.900000E-01   1.00800           0
      8117 LPSA8    3        AKDO     O8       OC311   -0.650000       15.9994           0
      8118 LPSA8    3        AKDO     HO8      HCP1     0.420000       1.00800           0
      8119 LPSA8    4        AHEP     C1       CC3162   0.290000       12.0110           0
      8120 LPSA8    4        AHEP     H1       HCA1     0.900000E-01   1.00800           0
      8121 LPSA8    4        AHEP     C5       CC3163   0.110000       12.0110           0
      8122 LPSA8    4        AHEP     H5       HCA1     0.900000E-01   1.00800           0
      8123 LPSA8    4        AHEP     O5       OC3C61  -0.400000       15.9994           0
      8124 LPSA8    4        AHEP     C2       CC3161   0.140000       12.0110           0
      8125 LPSA8    4        AHEP     H2       HCA1     0.900000E-01   1.00800           0
      8126 LPSA8    4        AHEP     O2       OC311   -0.650000       15.9994           0
      8127 LPSA8    4        AHEP     HO2      HCP1     0.420000       1.00800           0
      8128 LPSA8    4        AHEP     C3       CC3161   0.900000E-01   12.0110           0
      8129 LPSA8    4        AHEP     H3       HCA1     0.900000E-01   1.00800           0
      8130 LPSA8    4        AHEP     O3       OC301   -0.360000       15.9994           0
      8131 LPSA8    4        AHEP     C4       CC3161  -0.900000E-01   12.0110           0
      8132 LPSA8    4        AHEP     H4       HCA1     0.900000E-01   1.00800           0
      8133 LPSA8    4        AHEP     O4       OC30P   -0.400000       15.9994           0
      8134 LPSA8    4        AHEP     P4       PC        1.10000       30.9740           0
      8135 LPSA8    4        AHEP     OP42     OC2DP   -0.900000       15.9994           0
      8136 LPSA8    4        AHEP     OP43     OC2DP   -0.900000       15.9994           0
      8137 LPSA8    4        AHEP     OP44     OC2DP   -0.900000       15.9994           0
      8138 LPSA8    4        AHEP     C6       CC312    0.140000       12.0110           0
      8139 LPSA8    4        AHEP     H6       HCA1     0.900000E-01   1.00800           0
      8140 LPSA8    4        AHEP     O6       OC311   -0.650000       15.9994           0
      8141 LPSA8    4        AHEP     HO6      HCP1     0.420000       1.00800           0
      8142 LPSA8    4        AHEP     C7       CC322    0.500000E-01   12.0110           0
      8143 LPSA8    4        AHEP     H71      HCA2     0.900000E-01   1.00800           0
      8144 LPSA8    4        AHEP     H72      HCA2     0.900000E-01   1.00800           0
      8145 LPSA8    4        AHEP     O7       OC311   -0.650000       15.9994           0
      8146 LPSA8    4        AHEP     HO7      HCP1     0.420000       1.00800           0
      8147 LPSA8    5        AHEP     C1       CC3162   0.290000       12.0110           0
      8148 LPSA8    5        AHEP     H1       HCA1     0.900000E-01   1.00800           0
      8149 LPSA8    5        AHEP     C5       CC3163   0.110000       12.0110           0
      8150 LPSA8    5        AHEP     H5       HCA1     0.900000E-01   1.00800           0
      8151 LPSA8    5        AHEP     O5       OC3C61  -0.400000       15.9994           0
      8152 LPSA8    5        AHEP     C2       CC3161   0.140000       12.0110           0
      8153 LPSA8    5        AHEP     H2       HCA1     0.900000E-01   1.00800           0
      8154 LPSA8    5        AHEP     O2       OC311   -0.650000       15.9994           0
      8155 LPSA8    5        AHEP     HO2      HCP1     0.420000       1.00800           0
      8156 LPSA8    5        AHEP     C3       CC3161   0.900000E-01   12.0110           0
      8157 LPSA8    5        AHEP     H3       HCA1     0.900000E-01   1.00800           0
      8158 LPSA8    5        AHEP     O3       OC301   -0.360000       15.9994           0
      8159 LPSA8    5        AHEP     C4       CC3161  -0.900000E-01   12.0110           0
      8160 LPSA8    5        AHEP     H4       HCA1     0.900000E-01   1.00800           0
      8161 LPSA8    5        AHEP     O4       OC30P   -0.400000       15.9994           0
      8162 LPSA8    5        AHEP     P4       PC        1.10000       30.9740           0
      8163 LPSA8    5        AHEP     OP42     OC2DP   -0.900000       15.9994           0
      8164 LPSA8    5        AHEP     OP43     OC2DP   -0.900000       15.9994           0
      8165 LPSA8    5        AHEP     OP44     OC2DP   -0.900000       15.9994           0
      8166 LPSA8    5        AHEP     C6       CC312    0.140000       12.0110           0
      8167 LPSA8    5        AHEP     H6       HCA1     0.900000E-01   1.00800           0
      8168 LPSA8    5        AHEP     O6       OC311   -0.650000       15.9994           0
      8169 LPSA8    5        AHEP     HO6      HCP1     0.420000       1.00800           0
      8170 LPSA8    5        AHEP     C7       CC322     0.00000       12.0110           0
      8171 LPSA8    5        AHEP     H71      HCA2     0.900000E-01   1.00800           0
      8172 LPSA8    5        AHEP     H72      HCA2     0.900000E-01   1.00800           0
      8173 LPSA8    5        AHEP     O7       OC301   -0.360000       15.9994           0
      8174 LPSA8    6        AHEP     C1       CC3162   0.290000       12.0110           0
      8175 LPSA8    6        AHEP     H1       HCA1     0.900000E-01   1.00800           0
      8176 LPSA8    6        AHEP     C5       CC3163   0.110000       12.0110           0
      8177 LPSA8    6        AHEP     H5       HCA1     0.900000E-01   1.00800           0
      8178 LPSA8    6        AHEP     O5       OC3C61  -0.400000       15.9994           0
      8179 LPSA8    6        AHEP     C2       CC3161   0.140000       12.0110           0
      8180 LPSA8    6        AHEP     H2       HCA1     0.900000E-01   1.00800           0
      8181 LPSA8    6        AHEP     O2       OC311   -0.650000       15.9994           0
      8182 LPSA8    6        AHEP     HO2      HCP1     0.420000       1.00800           0
      8183 LPSA8    6        AHEP     C3       CC3161   0.140000       12.0110           0
      8184 LPSA8    6        AHEP     H3       HCA1     0.900000E-01   1.00800           0
      8185 LPSA8    6        AHEP     O3       OC311   -0.650000       15.9994           0
      8186 LPSA8    6        AHEP     HO3      HCP1     0.420000       1.00800           0
      8187 LPSA8    6        AHEP     C4       CC3161   0.140000       12.0110           0
      8188 LPSA8    6        AHEP     H4       HCA1     0.900000E-01   1.00800           0
      8189 LPSA8    6        AHEP     O4       OC311   -0.650000       15.9994           0
      8190 LPSA8    6        AHEP     HO4      HCP1     0.420000       1.00800           0
      8191 LPSA8    6        AHEP     C6       CC312    0.140000       12.0110           0
      8192 LPSA8    6        AHEP     H6       HCA1     0.900000E-01   1.00800           0
      8193 LPSA8    6        AHEP     O6       OC311   -0.650000       15.9994           0
      8194 LPSA8    6        AHEP     HO6      HCP1     0.420000       1.00800           0
      8195 LPSA8    6        AHEP     C7       CC322    0.500000E-01   12.0110           0
      8196 LPSA8    6        AHEP     H71      HCA2     0.900000E-01   1.00800           0
      8197 LPSA8    6        AHEP     H72      HCA2     0.900000E-01   1.00800           0
      8198 LPSA8    6        AHEP     O7       OC311   -0.650000       15.9994           0
      8199 LPSA8    6        AHEP     HO7      HCP1     0.420000       1.00800           0
      8200 LPSA8    7        AGLC     C1       CC3162   0.290000       12.0110           0
      8201 LPSA8    7        AGLC     H1       HCA1     0.900000E-01   1.00800           0
      8202 LPSA8    7        AGLC     C5       CC3163   0.110000       12.0110           0
      8203 LPSA8    7        AGLC     H5       HCA1     0.900000E-01   1.00800           0
      8204 LPSA8    7        AGLC     O5       OC3C61  -0.400000       15.9994           0
      8205 LPSA8    7        AGLC     C2       CC3161   0.140000       12.0110           0
      8206 LPSA8    7        AGLC     H2       HCA1     0.900000E-01   1.00800           0
      8207 LPSA8    7        AGLC     O2       OC311   -0.650000       15.9994           0
      8208 LPSA8    7        AGLC     HO2      HCP1     0.420000       1.00800           0
      8209 LPSA8    7        AGLC     C3       CC3161   0.900000E-01   12.0110           0
      8210 LPSA8    7        AGLC     H3       HCA1     0.900000E-01   1.00800           0
      8211 LPSA8    7        AGLC     O3       OC301   -0.360000       15.9994           0
      8212 LPSA8    7        AGLC     C4       CC3161   0.140000       12.0110           0
      8213 LPSA8    7        AGLC     H4       HCA1     0.900000E-01   1.00800           0
      8214 LPSA8    7        AGLC     O4       OC311   -0.650000       15.9994           0
      8215 LPSA8    7        AGLC     HO4      HCP1     0.420000       1.00800           0
      8216 LPSA8    7        AGLC     C6       CC321    0.500000E-01   12.0110           0
      8217 LPSA8    7        AGLC     H61      HCA2     0.900000E-01   1.00800           0
      8218 LPSA8    7        AGLC     H62      HCA2     0.900000E-01   1.00800           0
      8219 LPSA8    7        AGLC     O6       OC311   -0.650000       15.9994           0
      8220 LPSA8    7        AGLC     HO6      HCP1     0.420000       1.00800           0
      8221 LPSA8    8        AGLC     C1       CC3162   0.290000       12.0110           0
      8222 LPSA8    8        AGLC     H1       HCA1     0.900000E-01   1.00800           0
      8223 LPSA8    8        AGLC     C5       CC3163   0.110000       12.0110           0
      8224 LPSA8    8        AGLC     H5       HCA1     0.900000E-01   1.00800           0
      8225 LPSA8    8        AGLC     O5       OC3C61  -0.400000       15.9994           0
      8226 LPSA8    8        AGLC     C2       CC3161   0.900000E-01   12.0110           0
      8227 LPSA8    8        AGLC     H2       HCA1     0.900000E-01   1.00800           0
      8228 LPSA8    8        AGLC     O2       OC301   -0.360000       15.9994           0
      8229 LPSA8    8        AGLC     C3       CC3161   0.900000E-01   12.0110           0
      8230 LPSA8    8        AGLC     H3       HCA1     0.900000E-01   1.00800           0
      8231 LPSA8    8        AGLC     O3       OC301   -0.360000       15.9994           0
      8232 LPSA8    8        AGLC     C4       CC3161   0.140000       12.0110           0
      8233 LPSA8    8        AGLC     H4       HCA1     0.900000E-01   1.00800           0
      8234 LPSA8    8        AGLC     O4       OC311   -0.650000       15.9994           0
      8235 LPSA8    8        AGLC     HO4      HCP1     0.420000       1.00800           0
      8236 LPSA8    8        AGLC     C6       CC321    0.500000E-01   12.0110           0
      8237 LPSA8    8        AGLC     H61      HCA2     0.900000E-01   1.00800           0
      8238 LPSA8    8        AGLC     H62      HCA2     0.900000E-01   1.00800           0
      8239 LPSA8    8        AGLC     O6       OC311   -0.650000       15.9994           0
      8240 LPSA8    8        AGLC     HO6      HCP1     0.420000       1.00800           0
      8241 LPSA8    9        AGAL     C1       CC3162   0.290000       12.0110           0
      8242 LPSA8    9        AGAL     H1       HCA1     0.900000E-01   1.00800           0
      8243 LPSA8    9        AGAL     C5       CC3163   0.110000       12.0110           0
      8244 LPSA8    9        AGAL     H5       HCA1     0.900000E-01   1.00800           0
      8245 LPSA8    9        AGAL     O5       OC3C61  -0.400000       15.9994           0
      8246 LPSA8    9        AGAL     C2       CC3161   0.900000E-01   12.0110           0
      8247 LPSA8    9        AGAL     H2       HCA1     0.900000E-01   1.00800           0
      8248 LPSA8    9        AGAL     O2       OC301   -0.360000       15.9994           0
      8249 LPSA8    9        AGAL     C3       CC3161   0.140000       12.0110           0
      8250 LPSA8    9        AGAL     H3       HCA1     0.900000E-01   1.00800           0
      8251 LPSA8    9        AGAL     O3       OC311   -0.650000       15.9994           0
      8252 LPSA8    9        AGAL     HO3      HCP1     0.420000       1.00800           0
      8253 LPSA8    9        AGAL     C4       CC3161   0.140000       12.0110           0
      8254 LPSA8    9        AGAL     H4       HCA1     0.900000E-01   1.00800           0
      8255 LPSA8    9        AGAL     O4       OC311   -0.650000       15.9994           0
      8256 LPSA8    9        AGAL     HO4      HCP1     0.420000       1.00800           0
      8257 LPSA8    9        AGAL     C6       CC321    0.500000E-01   12.0110           0
      8258 LPSA8    9        AGAL     H61      HCA2     0.900000E-01   1.00800           0
      8259 LPSA8    9        AGAL     H62      HCA2     0.900000E-01   1.00800           0
      8260 LPSA8    9        AGAL     O6       OC311   -0.650000       15.9994           0
      8261 LPSA8    9        AGAL     HO6      HCP1     0.420000       1.00800           0
      8262 LPSA8    10       AGAL     C1       CC3162   0.290000       12.0110           0
      8263 LPSA8    10       AGAL     H1       HCA1     0.900000E-01   1.00800           0
      8264 LPSA8    10       AGAL     C5       CC3163   0.110000       12.0110           0
      8265 LPSA8    10       AGAL     H5       HCA1     0.900000E-01   1.00800           0
      8266 LPSA8    10       AGAL     O5       OC3C61  -0.400000       15.9994           0
      8267 LPSA8    10       AGAL     C2       CC3161   0.140000       12.0110           0
      8268 LPSA8    10       AGAL     H2       HCA1     0.900000E-01   1.00800           0
      8269 LPSA8    10       AGAL     O2       OC311   -0.650000       15.9994           0
      8270 LPSA8    10       AGAL     HO2      HCP1     0.420000       1.00800           0
      8271 LPSA8    10       AGAL     C3       CC3161   0.140000       12.0110           0
      8272 LPSA8    10       AGAL     H3       HCA1     0.900000E-01   1.00800           0
      8273 LPSA8    10       AGAL     O3       OC311   -0.650000       15.9994           0
      8274 LPSA8    10       AGAL     HO3      HCP1     0.420000       1.00800           0
      8275 LPSA8    10       AGAL     C4       CC3161   0.140000       12.0110           0
      8276 LPSA8    10       AGAL     H4       HCA1     0.900000E-01   1.00800           0
      8277 LPSA8    10       AGAL     O4       OC311   -0.650000       15.9994           0
      8278 LPSA8    10       AGAL     HO4      HCP1     0.420000       1.00800           0
      8279 LPSA8    10       AGAL     C6       CC321    0.500000E-01   12.0110           0
      8280 LPSA8    10       AGAL     H61      HCA2     0.900000E-01   1.00800           0
      8281 LPSA8    10       AGAL     H62      HCA2     0.900000E-01   1.00800           0
      8282 LPSA8    10       AGAL     O6       OC311   -0.650000       15.9994           0
      8283 LPSA8    10       AGAL     HO6      HCP1     0.420000       1.00800           0
      8284 LPSA8    11       BGLC     C1       CC3162   0.290000       12.0110           0
      8285 LPSA8    11       BGLC     H1       HCA1     0.900000E-01   1.00800           0
      8286 LPSA8    11       BGLC     C5       CC3163   0.110000       12.0110           0
      8287 LPSA8    11       BGLC     H5       HCA1     0.900000E-01   1.00800           0
      8288 LPSA8    11       BGLC     O5       OC3C61  -0.400000       15.9994           0
      8289 LPSA8    11       BGLC     C2       CC3161   0.140000       12.0110           0
      8290 LPSA8    11       BGLC     H2       HCA1     0.900000E-01   1.00800           0
      8291 LPSA8    11       BGLC     O2       OC311   -0.650000       15.9994           0
      8292 LPSA8    11       BGLC     HO2      HCP1     0.420000       1.00800           0
      8293 LPSA8    11       BGLC     C3       CC3161   0.900000E-01   12.0110           0
      8294 LPSA8    11       BGLC     H3       HCA1     0.900000E-01   1.00800           0
      8295 LPSA8    11       BGLC     O3       OC301   -0.360000       15.9994           0
      8296 LPSA8    11       BGLC     C4       CC3161   0.140000       12.0110           0
      8297 LPSA8    11       BGLC     H4       HCA1     0.900000E-01   1.00800           0
      8298 LPSA8    11       BGLC     O4       OC311   -0.650000       15.9994           0
      8299 LPSA8    11       BGLC     HO4      HCP1     0.420000       1.00800           0
      8300 LPSA8    11       BGLC     C6       CC321    0.500000E-01   12.0110           0
      8301 LPSA8    11       BGLC     H61      HCA2     0.900000E-01   1.00800           0
      8302 LPSA8    11       BGLC     H62      HCA2     0.900000E-01   1.00800           0
      8303 LPSA8    11       BGLC     O6       OC311   -0.650000       15.9994           0
      8304 LPSA8    11       BGLC     HO6      HCP1     0.420000       1.00800           0
      8305 LPSA8    12       BGLCNA   C1       CC3162   0.290000       12.0110           0
      8306 LPSA8    12       BGLCNA   H1       HCA1     0.900000E-01   1.00800           0
      8307 LPSA8    12       BGLCNA   C5       CC3163   0.110000       12.0110           0
      8308 LPSA8    12       BGLCNA   H5       HCA1     0.900000E-01   1.00800           0
      8309 LPSA8    12       BGLCNA   O5       OC3C61  -0.400000       15.9994           0
      8310 LPSA8    12       BGLCNA   C2       CC3161   0.700000E-01   12.0110           0
      8311 LPSA8    12       BGLCNA   H2       HCA1     0.900000E-01   1.00800           0
      8312 LPSA8    12       BGLCNA   N        NC2D1   -0.470000       14.0070           0
      8313 LPSA8    12       BGLCNA   HN       HCP1     0.310000       1.00800           0
      8314 LPSA8    12       BGLCNA   C        CC2O1    0.510000       12.0110           0
      8315 LPSA8    12       BGLCNA   O        OC2D1   -0.510000       15.9994           0
      8316 LPSA8    12       BGLCNA   CT       CC331   -0.270000       12.0110           0
      8317 LPSA8    12       BGLCNA   HT1      HCA3     0.900000E-01   1.00800           0
      8318 LPSA8    12       BGLCNA   HT2      HCA3     0.900000E-01   1.00800           0
      8319 LPSA8    12       BGLCNA   HT3      HCA3     0.900000E-01   1.00800           0
      8320 LPSA8    12       BGLCNA   C3       CC3161   0.900000E-01   12.0110           0
      8321 LPSA8    12       BGLCNA   H3       HCA1     0.900000E-01   1.00800           0
      8322 LPSA8    12       BGLCNA   O3       OC301   -0.360000       15.9994           0
      8323 LPSA8    12       BGLCNA   C4       CC3161   0.140000       12.0110           0
      8324 LPSA8    12       BGLCNA   H4       HCA1     0.900000E-01   1.00800           0
      8325 LPSA8    12       BGLCNA   O4       OC311   -0.650000       15.9994           0
      8326 LPSA8    12       BGLCNA   HO4      HCP1     0.420000       1.00800           0
      8327 LPSA8    12       BGLCNA   C6       CC321    0.500000E-01   12.0110           0
      8328 LPSA8    12       BGLCNA   H61      HCA2     0.900000E-01   1.00800           0
      8329 LPSA8    12       BGLCNA   H62      HCA2     0.900000E-01   1.00800           0
      8330 LPSA8    12       BGLCNA   O6       OC311   -0.650000       15.9994           0
      8331 LPSA8    12       BGLCNA   HO6      HCP1     0.420000       1.00800           0
      8332 LPSA8    13       AGAL     C1       CC3162   0.290000       12.0110           0
      8333 LPSA8    13       AGAL     H1       HCA1     0.900000E-01   1.00800           0
      8334 LPSA8    13       AGAL     C5       CC3163   0.110000       12.0110           0
      8335 LPSA8    13       AGAL     H5       HCA1     0.900000E-01   1.00800           0
      8336 LPSA8    13       AGAL     O5       OC3C61  -0.400000       15.9994           0
      8337 LPSA8    13       AGAL     C2       CC3161   0.900000E-01   12.0110           0
      8338 LPSA8    13       AGAL     H2       HCA1     0.900000E-01   1.00800           0
      8339 LPSA8    13       AGAL     O2       OC301   -0.360000       15.9994           0
      8340 LPSA8    13       AGAL     C3       CC3161   0.140000       12.0110           0
      8341 LPSA8    13       AGAL     H3       HCA1     0.900000E-01   1.00800           0
      8342 LPSA8    13       AGAL     O3       OC311   -0.650000       15.9994           0
      8343 LPSA8    13       AGAL     HO3      HCP1     0.420000       1.00800           0
      8344 LPSA8    13       AGAL     C4       CC3161   0.140000       12.0110           0
      8345 LPSA8    13       AGAL     H4       HCA1     0.900000E-01   1.00800           0
      8346 LPSA8    13       AGAL     O4       OC311   -0.650000       15.9994           0
      8347 LPSA8    13       AGAL     HO4      HCP1     0.420000       1.00800           0
      8348 LPSA8    13       AGAL     C6       CC321    0.500000E-01   12.0110           0
      8349 LPSA8    13       AGAL     H61      HCA2     0.900000E-01   1.00800           0
      8350 LPSA8    13       AGAL     H62      HCA2     0.900000E-01   1.00800           0
      8351 LPSA8    13       AGAL     O6       OC311   -0.650000       15.9994           0
      8352 LPSA8    13       AGAL     HO6      HCP1     0.420000       1.00800           0
      8353 LPSA8    14       ARHM     C1       CC3162   0.290000       12.0110           0
      8354 LPSA8    14       ARHM     H1       HCA1     0.900000E-01   1.00800           0
      8355 LPSA8    14       ARHM     C5       CC3163   0.110000       12.0110           0
      8356 LPSA8    14       ARHM     H5       HCA1     0.900000E-01   1.00800           0
      8357 LPSA8    14       ARHM     O5       OC3C61  -0.400000       15.9994           0
      8358 LPSA8    14       ARHM     C2       CC3161   0.900000E-01   12.0110           0
      8359 LPSA8    14       ARHM     H2       HCA1     0.900000E-01   1.00800           0
      8360 LPSA8    14       ARHM     O2       OC301   -0.360000       15.9994           0
      8361 LPSA8    14       ARHM     C3       CC3161   0.140000       12.0110           0
      8362 LPSA8    14       ARHM     H3       HCA1     0.900000E-01   1.00800           0
      8363 LPSA8    14       ARHM     O3       OC311   -0.650000       15.9994           0
      8364 LPSA8    14       ARHM     HO3      HCP1     0.420000       1.00800           0
      8365 LPSA8    14       ARHM     C4       CC3161   0.140000       12.0110           0
      8366 LPSA8    14       ARHM     H4       HCA1     0.900000E-01   1.00800           0
      8367 LPSA8    14       ARHM     O4       OC311   -0.650000       15.9994           0
      8368 LPSA8    14       ARHM     HO4      HCP1     0.420000       1.00800           0
      8369 LPSA8    14       ARHM     C6       CC331   -0.270000       12.0110           0
      8370 LPSA8    14       ARHM     H61      HCA3     0.900000E-01   1.00800           0
      8371 LPSA8    14       ARHM     H62      HCA3     0.900000E-01   1.00800           0
      8372 LPSA8    14       ARHM     H63      HCA3     0.900000E-01   1.00800           0
      8373 LPSA8    15       ARHM     C1       CC3162   0.290000       12.0110           0
      8374 LPSA8    15       ARHM     H1       HCA1     0.900000E-01   1.00800           0
      8375 LPSA8    15       ARHM     C5       CC3163   0.110000       12.0110           0
      8376 LPSA8    15       ARHM     H5       HCA1     0.900000E-01   1.00800           0
      8377 LPSA8    15       ARHM     O5       OC3C61  -0.400000       15.9994           0
      8378 LPSA8    15       ARHM     C2       CC3161   0.900000E-01   12.0110           0
      8379 LPSA8    15       ARHM     H2       HCA1     0.900000E-01   1.00800           0
      8380 LPSA8    15       ARHM     O2       OC301   -0.360000       15.9994           0
      8381 LPSA8    15       ARHM     C3       CC3161   0.900000E-01   12.0110           0
      8382 LPSA8    15       ARHM     H3       HCA1     0.900000E-01   1.00800           0
      8383 LPSA8    15       ARHM     O3       OC301   -0.360000       15.9994           0
      8384 LPSA8    15       ARHM     C4       CC3161   0.140000       12.0110           0
      8385 LPSA8    15       ARHM     H4       HCA1     0.900000E-01   1.00800           0
      8386 LPSA8    15       ARHM     O4       OC311   -0.650000       15.9994           0
      8387 LPSA8    15       ARHM     HO4      HCP1     0.420000       1.00800           0
      8388 LPSA8    15       ARHM     C6       CC331   -0.270000       12.0110           0
      8389 LPSA8    15       ARHM     H61      HCA3     0.900000E-01   1.00800           0
      8390 LPSA8    15       ARHM     H62      HCA3     0.900000E-01   1.00800           0
      8391 LPSA8    15       ARHM     H63      HCA3     0.900000E-01   1.00800           0
      8392 LPSA8    16       BMANNA   C1       CC3162   0.290000       12.0110           0
      8393 LPSA8    16       BMANNA   H1       HCA1     0.900000E-01   1.00800           0
      8394 LPSA8    16       BMANNA   C5       CC3163   0.110000       12.0110           0
      8395 LPSA8    16       BMANNA   H5       HCA1     0.900000E-01   1.00800           0
      8396 LPSA8    16       BMANNA   O5       OC3C61  -0.400000       15.9994           0
      8397 LPSA8    16       BMANNA   C2       CC3161   0.700000E-01   12.0110           0
      8398 LPSA8    16       BMANNA   H2       HCA1     0.900000E-01   1.00800           0
      8399 LPSA8    16       BMANNA   N        NC2D1   -0.470000       14.0070           0
      8400 LPSA8    16       BMANNA   HN       HCP1     0.310000       1.00800           0
      8401 LPSA8    16       BMANNA   C        CC2O1    0.510000       12.0110           0
      8402 LPSA8    16       BMANNA   O        OC2D1   -0.510000       15.9994           0
      8403 LPSA8    16       BMANNA   CT       CC331   -0.270000       12.0110           0
      8404 LPSA8    16       BMANNA   HT1      HCA3     0.900000E-01   1.00800           0
      8405 LPSA8    16       BMANNA   HT2      HCA3     0.900000E-01   1.00800           0
      8406 LPSA8    16       BMANNA   HT3      HCA3     0.900000E-01   1.00800           0
      8407 LPSA8    16       BMANNA   C3       CC3161   0.140000       12.0110           0
      8408 LPSA8    16       BMANNA   H3       HCA1     0.900000E-01   1.00800           0
      8409 LPSA8    16       BMANNA   O3       OC311   -0.650000       15.9994           0
      8410 LPSA8    16       BMANNA   HO3      HCP1     0.420000       1.00800           0
      8411 LPSA8    16       BMANNA   C4       CC3161   0.140000       12.0110           0
      8412 LPSA8    16       BMANNA   H4       HCA1     0.900000E-01   1.00800           0
      8413 LPSA8    16       BMANNA   O4       OC311   -0.650000       15.9994           0
      8414 LPSA8    16       BMANNA   HO4      HCP1     0.420000       1.00800           0
      8415 LPSA8    16       BMANNA   C6       CC321    0.500000E-01   12.0110           0
      8416 LPSA8    16       BMANNA   H61      HCA2     0.900000E-01   1.00800           0
      8417 LPSA8    16       BMANNA   H62      HCA2     0.900000E-01   1.00800           0
      8418 LPSA8    16       BMANNA   O6       OC311   -0.650000       15.9994           0
      8419 LPSA8    16       BMANNA   HO6      HCP1     0.420000       1.00800           0
      8420 LPSA8    17       BGLCNA   C1       CC3162   0.290000       12.0110           0
      8421 LPSA8    17       BGLCNA   H1       HCA1     0.900000E-01   1.00800           0
      8422 LPSA8    17       BGLCNA   C5       CC3163   0.110000       12.0110           0
      8423 LPSA8    17       BGLCNA   H5       HCA1     0.900000E-01   1.00800           0
      8424 LPSA8    17       BGLCNA   O5       OC3C61  -0.400000       15.9994           0
      8425 LPSA8    17       BGLCNA   C2       CC3161   0.700000E-01   12.0110           0
      8426 LPSA8    17       BGLCNA   H2       HCA1     0.900000E-01   1.00800           0
      8427 LPSA8    17       BGLCNA   N        NC2D1   -0.470000       14.0070           0
      8428 LPSA8    17       BGLCNA   HN       HCP1     0.310000       1.00800           0
      8429 LPSA8    17       BGLCNA   C        CC2O1    0.510000       12.0110           0
      8430 LPSA8    17       BGLCNA   O        OC2D1   -0.510000       15.9994           0
      8431 LPSA8    17       BGLCNA   CT       CC331   -0.270000       12.0110           0
      8432 LPSA8    17       BGLCNA   HT1      HCA3     0.900000E-01   1.00800           0
      8433 LPSA8    17       BGLCNA   HT2      HCA3     0.900000E-01   1.00800           0
      8434 LPSA8    17       BGLCNA   HT3      HCA3     0.900000E-01   1.00800           0
      8435 LPSA8    17       BGLCNA   C3       CC3161   0.900000E-01   12.0110           0
      8436 LPSA8    17       BGLCNA   H3       HCA1     0.900000E-01   1.00800           0
      8437 LPSA8    17       BGLCNA   O3       OC301   -0.360000       15.9994           0
      8438 LPSA8    17       BGLCNA   C4       CC3161   0.140000       12.0110           0
      8439 LPSA8    17       BGLCNA   H4       HCA1     0.900000E-01   1.00800           0
      8440 LPSA8    17       BGLCNA   O4       OC311   -0.650000       15.9994           0
      8441 LPSA8    17       BGLCNA   HO4      HCP1     0.420000       1.00800           0
      8442 LPSA8    17       BGLCNA   C6       CC321    0.500000E-01   12.0110           0
      8443 LPSA8    17       BGLCNA   H61      HCA2     0.900000E-01   1.00800           0
      8444 LPSA8    17       BGLCNA   H62      HCA2     0.900000E-01   1.00800           0
      8445 LPSA8    17       BGLCNA   O6       OC311   -0.650000       15.9994           0
      8446 LPSA8    17       BGLCNA   HO6      HCP1     0.420000       1.00800           0
      8447 LPSA8    18       AGAL     C1       CC3162   0.290000       12.0110           0
      8448 LPSA8    18       AGAL     H1       HCA1     0.900000E-01   1.00800           0
      8449 LPSA8    18       AGAL     C5       CC3163   0.110000       12.0110           0
      8450 LPSA8    18       AGAL     H5       HCA1     0.900000E-01   1.00800           0
      8451 LPSA8    18       AGAL     O5       OC3C61  -0.400000       15.9994           0
      8452 LPSA8    18       AGAL     C2       CC3161   0.900000E-01   12.0110           0
      8453 LPSA8    18       AGAL     H2       HCA1     0.900000E-01   1.00800           0
      8454 LPSA8    18       AGAL     O2       OC301   -0.360000       15.9994           0
      8455 LPSA8    18       AGAL     C3       CC3161   0.140000       12.0110           0
      8456 LPSA8    18       AGAL     H3       HCA1     0.900000E-01   1.00800           0
      8457 LPSA8    18       AGAL     O3       OC311   -0.650000       15.9994           0
      8458 LPSA8    18       AGAL     HO3      HCP1     0.420000       1.00800           0
      8459 LPSA8    18       AGAL     C4       CC3161   0.140000       12.0110           0
      8460 LPSA8    18       AGAL     H4       HCA1     0.900000E-01   1.00800           0
      8461 LPSA8    18       AGAL     O4       OC311   -0.650000       15.9994           0
      8462 LPSA8    18       AGAL     HO4      HCP1     0.420000       1.00800           0
      8463 LPSA8    18       AGAL     C6       CC321    0.500000E-01   12.0110           0
      8464 LPSA8    18       AGAL     H61      HCA2     0.900000E-01   1.00800           0
      8465 LPSA8    18       AGAL     H62      HCA2     0.900000E-01   1.00800           0
      8466 LPSA8    18       AGAL     O6       OC311   -0.650000       15.9994           0
      8467 LPSA8    18       AGAL     HO6      HCP1     0.420000       1.00800           0
      8468 LPSA8    19       ARHM     C1       CC3162   0.290000       12.0110           0
      8469 LPSA8    19       ARHM     H1       HCA1     0.900000E-01   1.00800           0
      8470 LPSA8    19       ARHM     C5       CC3163   0.110000       12.0110           0
      8471 LPSA8    19       ARHM     H5       HCA1     0.900000E-01   1.00800           0
      8472 LPSA8    19       ARHM     O5       OC3C61  -0.400000       15.9994           0
      8473 LPSA8    19       ARHM     C2       CC3161   0.900000E-01   12.0110           0
      8474 LPSA8    19       ARHM     H2       HCA1     0.900000E-01   1.00800           0
      8475 LPSA8    19       ARHM     O2       OC301   -0.360000       15.9994           0
      8476 LPSA8    19       ARHM     C3       CC3161   0.140000       12.0110           0
      8477 LPSA8    19       ARHM     H3       HCA1     0.900000E-01   1.00800           0
      8478 LPSA8    19       ARHM     O3       OC311   -0.650000       15.9994           0
      8479 LPSA8    19       ARHM     HO3      HCP1     0.420000       1.00800           0
      8480 LPSA8    19       ARHM     C4       CC3161   0.140000       12.0110           0
      8481 LPSA8    19       ARHM     H4       HCA1     0.900000E-01   1.00800           0
      8482 LPSA8    19       ARHM     O4       OC311   -0.650000       15.9994           0
      8483 LPSA8    19       ARHM     HO4      HCP1     0.420000       1.00800           0
      8484 LPSA8    19       ARHM     C6       CC331   -0.270000       12.0110           0
      8485 LPSA8    19       ARHM     H61      HCA3     0.900000E-01   1.00800           0
      8486 LPSA8    19       ARHM     H62      HCA3     0.900000E-01   1.00800           0
      8487 LPSA8    19       ARHM     H63      HCA3     0.900000E-01   1.00800           0
      8488 LPSA8    20       ARHM     C1       CC3162   0.290000       12.0110           0
      8489 LPSA8    20       ARHM     H1       HCA1     0.900000E-01   1.00800           0
      8490 LPSA8    20       ARHM     C5       CC3163   0.110000       12.0110           0
      8491 LPSA8    20       ARHM     H5       HCA1     0.900000E-01   1.00800           0
      8492 LPSA8    20       ARHM     O5       OC3C61  -0.400000       15.9994           0
      8493 LPSA8    20       ARHM     C2       CC3161   0.900000E-01   12.0110           0
      8494 LPSA8    20       ARHM     H2       HCA1     0.900000E-01   1.00800           0
      8495 LPSA8    20       ARHM     O2       OC301   -0.360000       15.9994           0
      8496 LPSA8    20       ARHM     C3       CC3161   0.900000E-01   12.0110           0
      8497 LPSA8    20       ARHM     H3       HCA1     0.900000E-01   1.00800           0
      8498 LPSA8    20       ARHM     O3       OC301   -0.360000       15.9994           0
      8499 LPSA8    20       ARHM     C4       CC3161   0.140000       12.0110           0
      8500 LPSA8    20       ARHM     H4       HCA1     0.900000E-01   1.00800           0
      8501 LPSA8    20       ARHM     O4       OC311   -0.650000       15.9994           0
      8502 LPSA8    20       ARHM     HO4      HCP1     0.420000       1.00800           0
      8503 LPSA8    20       ARHM     C6       CC331   -0.270000       12.0110           0
      8504 LPSA8    20       ARHM     H61      HCA3     0.900000E-01   1.00800           0
      8505 LPSA8    20       ARHM     H62      HCA3     0.900000E-01   1.00800           0
      8506 LPSA8    20       ARHM     H63      HCA3     0.900000E-01   1.00800           0
      8507 LPSA8    21       BMANNA   C1       CC3162   0.290000       12.0110           0
      8508 LPSA8    21       BMANNA   H1       HCA1     0.900000E-01   1.00800           0
      8509 LPSA8    21       BMANNA   C5       CC3163   0.110000       12.0110           0
      8510 LPSA8    21       BMANNA   H5       HCA1     0.900000E-01   1.00800           0
      8511 LPSA8    21       BMANNA   O5       OC3C61  -0.400000       15.9994           0
      8512 LPSA8    21       BMANNA   C2       CC3161   0.700000E-01   12.0110           0
      8513 LPSA8    21       BMANNA   H2       HCA1     0.900000E-01   1.00800           0
      8514 LPSA8    21       BMANNA   N        NC2D1   -0.470000       14.0070           0
      8515 LPSA8    21       BMANNA   HN       HCP1     0.310000       1.00800           0
      8516 LPSA8    21       BMANNA   C        CC2O1    0.510000       12.0110           0
      8517 LPSA8    21       BMANNA   O        OC2D1   -0.510000       15.9994           0
      8518 LPSA8    21       BMANNA   CT       CC331   -0.270000       12.0110           0
      8519 LPSA8    21       BMANNA   HT1      HCA3     0.900000E-01   1.00800           0
      8520 LPSA8    21       BMANNA   HT2      HCA3     0.900000E-01   1.00800           0
      8521 LPSA8    21       BMANNA   HT3      HCA3     0.900000E-01   1.00800           0
      8522 LPSA8    21       BMANNA   C3       CC3161   0.140000       12.0110           0
      8523 LPSA8    21       BMANNA   H3       HCA1     0.900000E-01   1.00800           0
      8524 LPSA8    21       BMANNA   O3       OC311   -0.650000       15.9994           0
      8525 LPSA8    21       BMANNA   HO3      HCP1     0.420000       1.00800           0
      8526 LPSA8    21       BMANNA   C4       CC3161   0.140000       12.0110           0
      8527 LPSA8    21       BMANNA   H4       HCA1     0.900000E-01   1.00800           0
      8528 LPSA8    21       BMANNA   O4       OC311   -0.650000       15.9994           0
      8529 LPSA8    21       BMANNA   HO4      HCP1     0.420000       1.00800           0
      8530 LPSA8    21       BMANNA   C6       CC321    0.500000E-01   12.0110           0
      8531 LPSA8    21       BMANNA   H61      HCA2     0.900000E-01   1.00800           0
      8532 LPSA8    21       BMANNA   H62      HCA2     0.900000E-01   1.00800           0
      8533 LPSA8    21       BMANNA   O6       OC311   -0.650000       15.9994           0
      8534 LPSA8    21       BMANNA   HO6      HCP1     0.420000       1.00800           0
      8535 LPSA8    22       BGLCNA   C1       CC3162   0.290000       12.0110           0
      8536 LPSA8    22       BGLCNA   H1       HCA1     0.900000E-01   1.00800           0
      8537 LPSA8    22       BGLCNA   C5       CC3163   0.110000       12.0110           0
      8538 LPSA8    22       BGLCNA   H5       HCA1     0.900000E-01   1.00800           0
      8539 LPSA8    22       BGLCNA   O5       OC3C61  -0.400000       15.9994           0
      8540 LPSA8    22       BGLCNA   C2       CC3161   0.700000E-01   12.0110           0
      8541 LPSA8    22       BGLCNA   H2       HCA1     0.900000E-01   1.00800           0
      8542 LPSA8    22       BGLCNA   N        NC2D1   -0.470000       14.0070           0
      8543 LPSA8    22       BGLCNA   HN       HCP1     0.310000       1.00800           0
      8544 LPSA8    22       BGLCNA   C        CC2O1    0.510000       12.0110           0
      8545 LPSA8    22       BGLCNA   O        OC2D1   -0.510000       15.9994           0
      8546 LPSA8    22       BGLCNA   CT       CC331   -0.270000       12.0110           0
      8547 LPSA8    22       BGLCNA   HT1      HCA3     0.900000E-01   1.00800           0
      8548 LPSA8    22       BGLCNA   HT2      HCA3     0.900000E-01   1.00800           0
      8549 LPSA8    22       BGLCNA   HT3      HCA3     0.900000E-01   1.00800           0
      8550 LPSA8    22       BGLCNA   C3       CC3161   0.900000E-01   12.0110           0
      8551 LPSA8    22       BGLCNA   H3       HCA1     0.900000E-01   1.00800           0
      8552 LPSA8    22       BGLCNA   O3       OC301   -0.360000       15.9994           0
      8553 LPSA8    22       BGLCNA   C4       CC3161   0.140000       12.0110           0
      8554 LPSA8    22       BGLCNA   H4       HCA1     0.900000E-01   1.00800           0
      8555 LPSA8    22       BGLCNA   O4       OC311   -0.650000       15.9994           0
      8556 LPSA8    22       BGLCNA   HO4      HCP1     0.420000       1.00800           0
      8557 LPSA8    22       BGLCNA   C6       CC321    0.500000E-01   12.0110           0
      8558 LPSA8    22       BGLCNA   H61      HCA2     0.900000E-01   1.00800           0
      8559 LPSA8    22       BGLCNA   H62      HCA2     0.900000E-01   1.00800           0
      8560 LPSA8    22       BGLCNA   O6       OC311   -0.650000       15.9994           0
      8561 LPSA8    22       BGLCNA   HO6      HCP1     0.420000       1.00800           0
      8562 LPSA8    23       AGAL     C1       CC3162   0.290000       12.0110           0
      8563 LPSA8    23       AGAL     H1       HCA1     0.900000E-01   1.00800           0
      8564 LPSA8    23       AGAL     C5       CC3163   0.110000       12.0110           0
      8565 LPSA8    23       AGAL     H5       HCA1     0.900000E-01   1.00800           0
      8566 LPSA8    23       AGAL     O5       OC3C61  -0.400000       15.9994           0
      8567 LPSA8    23       AGAL     C2       CC3161   0.900000E-01   12.0110           0
      8568 LPSA8    23       AGAL     H2       HCA1     0.900000E-01   1.00800           0
      8569 LPSA8    23       AGAL     O2       OC301   -0.360000       15.9994           0
      8570 LPSA8    23       AGAL     C3       CC3161   0.140000       12.0110           0
      8571 LPSA8    23       AGAL     H3       HCA1     0.900000E-01   1.00800           0
      8572 LPSA8    23       AGAL     O3       OC311   -0.650000       15.9994           0
      8573 LPSA8    23       AGAL     HO3      HCP1     0.420000       1.00800           0
      8574 LPSA8    23       AGAL     C4       CC3161   0.140000       12.0110           0
      8575 LPSA8    23       AGAL     H4       HCA1     0.900000E-01   1.00800           0
      8576 LPSA8    23       AGAL     O4       OC311   -0.650000       15.9994           0
      8577 LPSA8    23       AGAL     HO4      HCP1     0.420000       1.00800           0
      8578 LPSA8    23       AGAL     C6       CC321    0.500000E-01   12.0110           0
      8579 LPSA8    23       AGAL     H61      HCA2     0.900000E-01   1.00800           0
      8580 LPSA8    23       AGAL     H62      HCA2     0.900000E-01   1.00800           0
      8581 LPSA8    23       AGAL     O6       OC311   -0.650000       15.9994           0
      8582 LPSA8    23       AGAL     HO6      HCP1     0.420000       1.00800           0
      8583 LPSA8    24       ARHM     C1       CC3162   0.290000       12.0110           0
      8584 LPSA8    24       ARHM     H1       HCA1     0.900000E-01   1.00800           0
      8585 LPSA8    24       ARHM     C5       CC3163   0.110000       12.0110           0
      8586 LPSA8    24       ARHM     H5       HCA1     0.900000E-01   1.00800           0
      8587 LPSA8    24       ARHM     O5       OC3C61  -0.400000       15.9994           0
      8588 LPSA8    24       ARHM     C2       CC3161   0.900000E-01   12.0110           0
      8589 LPSA8    24       ARHM     H2       HCA1     0.900000E-01   1.00800           0
      8590 LPSA8    24       ARHM     O2       OC301   -0.360000       15.9994           0
      8591 LPSA8    24       ARHM     C3       CC3161   0.140000       12.0110           0
      8592 LPSA8    24       ARHM     H3       HCA1     0.900000E-01   1.00800           0
      8593 LPSA8    24       ARHM     O3       OC311   -0.650000       15.9994           0
      8594 LPSA8    24       ARHM     HO3      HCP1     0.420000       1.00800           0
      8595 LPSA8    24       ARHM     C4       CC3161   0.140000       12.0110           0
      8596 LPSA8    24       ARHM     H4       HCA1     0.900000E-01   1.00800           0
      8597 LPSA8    24       ARHM     O4       OC311   -0.650000       15.9994           0
      8598 LPSA8    24       ARHM     HO4      HCP1     0.420000       1.00800           0
      8599 LPSA8    24       ARHM     C6       CC331   -0.270000       12.0110           0
      8600 LPSA8    24       ARHM     H61      HCA3     0.900000E-01   1.00800           0
      8601 LPSA8    24       ARHM     H62      HCA3     0.900000E-01   1.00800           0
      8602 LPSA8    24       ARHM     H63      HCA3     0.900000E-01   1.00800           0
      8603 LPSA8    25       ARHM     C1       CC3162   0.290000       12.0110           0
      8604 LPSA8    25       ARHM     H1       HCA1     0.900000E-01   1.00800           0
      8605 LPSA8    25       ARHM     C5       CC3163   0.110000       12.0110           0
      8606 LPSA8    25       ARHM     H5       HCA1     0.900000E-01   1.00800           0
      8607 LPSA8    25       ARHM     O5       OC3C61  -0.400000       15.9994           0
      8608 LPSA8    25       ARHM     C2       CC3161   0.900000E-01   12.0110           0
      8609 LPSA8    25       ARHM     H2       HCA1     0.900000E-01   1.00800           0
      8610 LPSA8    25       ARHM     O2       OC301   -0.360000       15.9994           0
      8611 LPSA8    25       ARHM     C3       CC3161   0.900000E-01   12.0110           0
      8612 LPSA8    25       ARHM     H3       HCA1     0.900000E-01   1.00800           0
      8613 LPSA8    25       ARHM     O3       OC301   -0.360000       15.9994           0
      8614 LPSA8    25       ARHM     C4       CC3161   0.140000       12.0110           0
      8615 LPSA8    25       ARHM     H4       HCA1     0.900000E-01   1.00800           0
      8616 LPSA8    25       ARHM     O4       OC311   -0.650000       15.9994           0
      8617 LPSA8    25       ARHM     HO4      HCP1     0.420000       1.00800           0
      8618 LPSA8    25       ARHM     C6       CC331   -0.270000       12.0110           0
      8619 LPSA8    25       ARHM     H61      HCA3     0.900000E-01   1.00800           0
      8620 LPSA8    25       ARHM     H62      HCA3     0.900000E-01   1.00800           0
      8621 LPSA8    25       ARHM     H63      HCA3     0.900000E-01   1.00800           0
      8622 LPSA8    26       BMANNA   C1       CC3162   0.290000       12.0110           0
      8623 LPSA8    26       BMANNA   H1       HCA1     0.900000E-01   1.00800           0
      8624 LPSA8    26       BMANNA   C5       CC3163   0.110000       12.0110           0
      8625 LPSA8    26       BMANNA   H5       HCA1     0.900000E-01   1.00800           0
      8626 LPSA8    26       BMANNA   O5       OC3C61  -0.400000       15.9994           0
      8627 LPSA8    26       BMANNA   C2       CC3161   0.700000E-01   12.0110           0
      8628 LPSA8    26       BMANNA   H2       HCA1     0.900000E-01   1.00800           0
      8629 LPSA8    26       BMANNA   N        NC2D1   -0.470000       14.0070           0
      8630 LPSA8    26       BMANNA   HN       HCP1     0.310000       1.00800           0
      8631 LPSA8    26       BMANNA   C        CC2O1    0.510000       12.0110           0
      8632 LPSA8    26       BMANNA   O        OC2D1   -0.510000       15.9994           0
      8633 LPSA8    26       BMANNA   CT       CC331   -0.270000       12.0110           0
      8634 LPSA8    26       BMANNA   HT1      HCA3     0.900000E-01   1.00800           0
      8635 LPSA8    26       BMANNA   HT2      HCA3     0.900000E-01   1.00800           0
      8636 LPSA8    26       BMANNA   HT3      HCA3     0.900000E-01   1.00800           0
      8637 LPSA8    26       BMANNA   C3       CC3161   0.140000       12.0110           0
      8638 LPSA8    26       BMANNA   H3       HCA1     0.900000E-01   1.00800           0
      8639 LPSA8    26       BMANNA   O3       OC311   -0.650000       15.9994           0
      8640 LPSA8    26       BMANNA   HO3      HCP1     0.420000       1.00800           0
      8641 LPSA8    26       BMANNA   C4       CC3161   0.140000       12.0110           0
      8642 LPSA8    26       BMANNA   H4       HCA1     0.900000E-01   1.00800           0
      8643 LPSA8    26       BMANNA   O4       OC311   -0.650000       15.9994           0
      8644 LPSA8    26       BMANNA   HO4      HCP1     0.420000       1.00800           0
      8645 LPSA8    26       BMANNA   C6       CC321    0.500000E-01   12.0110           0
      8646 LPSA8    26       BMANNA   H61      HCA2     0.900000E-01   1.00800           0
      8647 LPSA8    26       BMANNA   H62      HCA2     0.900000E-01   1.00800           0
      8648 LPSA8    26       BMANNA   O6       OC311   -0.650000       15.9994           0
      8649 LPSA8    26       BMANNA   HO6      HCP1     0.420000       1.00800           0
      8650 LPSA8    27       BGLCNA   C1       CC3162   0.290000       12.0110           0
      8651 LPSA8    27       BGLCNA   H1       HCA1     0.900000E-01   1.00800           0
      8652 LPSA8    27       BGLCNA   C5       CC3163   0.110000       12.0110           0
      8653 LPSA8    27       BGLCNA   H5       HCA1     0.900000E-01   1.00800           0
      8654 LPSA8    27       BGLCNA   O5       OC3C61  -0.400000       15.9994           0
      8655 LPSA8    27       BGLCNA   C2       CC3161   0.700000E-01   12.0110           0
      8656 LPSA8    27       BGLCNA   H2       HCA1     0.900000E-01   1.00800           0
      8657 LPSA8    27       BGLCNA   N        NC2D1   -0.470000       14.0070           0
      8658 LPSA8    27       BGLCNA   HN       HCP1     0.310000       1.00800           0
      8659 LPSA8    27       BGLCNA   C        CC2O1    0.510000       12.0110           0
      8660 LPSA8    27       BGLCNA   O        OC2D1   -0.510000       15.9994           0
      8661 LPSA8    27       BGLCNA   CT       CC331   -0.270000       12.0110           0
      8662 LPSA8    27       BGLCNA   HT1      HCA3     0.900000E-01   1.00800           0
      8663 LPSA8    27       BGLCNA   HT2      HCA3     0.900000E-01   1.00800           0
      8664 LPSA8    27       BGLCNA   HT3      HCA3     0.900000E-01   1.00800           0
      8665 LPSA8    27       BGLCNA   C3       CC3161   0.900000E-01   12.0110           0
      8666 LPSA8    27       BGLCNA   H3       HCA1     0.900000E-01   1.00800           0
      8667 LPSA8    27       BGLCNA   O3       OC301   -0.360000       15.9994           0
      8668 LPSA8    27       BGLCNA   C4       CC3161   0.140000       12.0110           0
      8669 LPSA8    27       BGLCNA   H4       HCA1     0.900000E-01   1.00800           0
      8670 LPSA8    27       BGLCNA   O4       OC311   -0.650000       15.9994           0
      8671 LPSA8    27       BGLCNA   HO4      HCP1     0.420000       1.00800           0
      8672 LPSA8    27       BGLCNA   C6       CC321    0.500000E-01   12.0110           0
      8673 LPSA8    27       BGLCNA   H61      HCA2     0.900000E-01   1.00800           0
      8674 LPSA8    27       BGLCNA   H62      HCA2     0.900000E-01   1.00800           0
      8675 LPSA8    27       BGLCNA   O6       OC311   -0.650000       15.9994           0
      8676 LPSA8    27       BGLCNA   HO6      HCP1     0.420000       1.00800           0
      8677 LPSA8    28       AGAL     C1       CC3162   0.290000       12.0110           0
      8678 LPSA8    28       AGAL     H1       HCA1     0.900000E-01   1.00800           0
      8679 LPSA8    28       AGAL     C5       CC3163   0.110000       12.0110           0
      8680 LPSA8    28       AGAL     H5       HCA1     0.900000E-01   1.00800           0
      8681 LPSA8    28       AGAL     O5       OC3C61  -0.400000       15.9994           0
      8682 LPSA8    28       AGAL     C2       CC3161   0.900000E-01   12.0110           0
      8683 LPSA8    28       AGAL     H2       HCA1     0.900000E-01   1.00800           0
      8684 LPSA8    28       AGAL     O2       OC301   -0.360000       15.9994           0
      8685 LPSA8    28       AGAL     C3       CC3161   0.140000       12.0110           0
      8686 LPSA8    28       AGAL     H3       HCA1     0.900000E-01   1.00800           0
      8687 LPSA8    28       AGAL     O3       OC311   -0.650000       15.9994           0
      8688 LPSA8    28       AGAL     HO3      HCP1     0.420000       1.00800           0
      8689 LPSA8    28       AGAL     C4       CC3161   0.140000       12.0110           0
      8690 LPSA8    28       AGAL     H4       HCA1     0.900000E-01   1.00800           0
      8691 LPSA8    28       AGAL     O4       OC311   -0.650000       15.9994           0
      8692 LPSA8    28       AGAL     HO4      HCP1     0.420000       1.00800           0
      8693 LPSA8    28       AGAL     C6       CC321    0.500000E-01   12.0110           0
      8694 LPSA8    28       AGAL     H61      HCA2     0.900000E-01   1.00800           0
      8695 LPSA8    28       AGAL     H62      HCA2     0.900000E-01   1.00800           0
      8696 LPSA8    28       AGAL     O6       OC311   -0.650000       15.9994           0
      8697 LPSA8    28       AGAL     HO6      HCP1     0.420000       1.00800           0
      8698 LPSA8    29       ARHM     C1       CC3162   0.290000       12.0110           0
      8699 LPSA8    29       ARHM     H1       HCA1     0.900000E-01   1.00800           0
      8700 LPSA8    29       ARHM     C5       CC3163   0.110000       12.0110           0
      8701 LPSA8    29       ARHM     H5       HCA1     0.900000E-01   1.00800           0
      8702 LPSA8    29       ARHM     O5       OC3C61  -0.400000       15.9994           0
      8703 LPSA8    29       ARHM     C2       CC3161   0.900000E-01   12.0110           0
      8704 LPSA8    29       ARHM     H2       HCA1     0.900000E-01   1.00800           0
      8705 LPSA8    29       ARHM     O2       OC301   -0.360000       15.9994           0
      8706 LPSA8    29       ARHM     C3       CC3161   0.140000       12.0110           0
      8707 LPSA8    29       ARHM     H3       HCA1     0.900000E-01   1.00800           0
      8708 LPSA8    29       ARHM     O3       OC311   -0.650000       15.9994           0
      8709 LPSA8    29       ARHM     HO3      HCP1     0.420000       1.00800           0
      8710 LPSA8    29       ARHM     C4       CC3161   0.140000       12.0110           0
      8711 LPSA8    29       ARHM     H4       HCA1     0.900000E-01   1.00800           0
      8712 LPSA8    29       ARHM     O4       OC311   -0.650000       15.9994           0
      8713 LPSA8    29       ARHM     HO4      HCP1     0.420000       1.00800           0
      8714 LPSA8    29       ARHM     C6       CC331   -0.270000       12.0110           0
      8715 LPSA8    29       ARHM     H61      HCA3     0.900000E-01   1.00800           0
      8716 LPSA8    29       ARHM     H62      HCA3     0.900000E-01   1.00800           0
      8717 LPSA8    29       ARHM     H63      HCA3     0.900000E-01   1.00800           0
      8718 LPSA8    30       ARHM     C1       CC3162   0.290000       12.0110           0
      8719 LPSA8    30       ARHM     H1       HCA1     0.900000E-01   1.00800           0
      8720 LPSA8    30       ARHM     C5       CC3163   0.110000       12.0110           0
      8721 LPSA8    30       ARHM     H5       HCA1     0.900000E-01   1.00800           0
      8722 LPSA8    30       ARHM     O5       OC3C61  -0.400000       15.9994           0
      8723 LPSA8    30       ARHM     C2       CC3161   0.900000E-01   12.0110           0
      8724 LPSA8    30       ARHM     H2       HCA1     0.900000E-01   1.00800           0
      8725 LPSA8    30       ARHM     O2       OC301   -0.360000       15.9994           0
      8726 LPSA8    30       ARHM     C3       CC3161   0.900000E-01   12.0110           0
      8727 LPSA8    30       ARHM     H3       HCA1     0.900000E-01   1.00800           0
      8728 LPSA8    30       ARHM     O3       OC301   -0.360000       15.9994           0
      8729 LPSA8    30       ARHM     C4       CC3161   0.140000       12.0110           0
      8730 LPSA8    30       ARHM     H4       HCA1     0.900000E-01   1.00800           0
      8731 LPSA8    30       ARHM     O4       OC311   -0.650000       15.9994           0
      8732 LPSA8    30       ARHM     HO4      HCP1     0.420000       1.00800           0
      8733 LPSA8    30       ARHM     C6       CC331   -0.270000       12.0110           0
      8734 LPSA8    30       ARHM     H61      HCA3     0.900000E-01   1.00800           0
      8735 LPSA8    30       ARHM     H62      HCA3     0.900000E-01   1.00800           0
      8736 LPSA8    30       ARHM     H63      HCA3     0.900000E-01   1.00800           0
      8737 LPSA8    31       BMANNA   C1       CC3162   0.290000       12.0110           0
      8738 LPSA8    31       BMANNA   H1       HCA1     0.900000E-01   1.00800           0
      8739 LPSA8    31       BMANNA   C5       CC3163   0.110000       12.0110           0
      8740 LPSA8    31       BMANNA   H5       HCA1     0.900000E-01   1.00800           0
      8741 LPSA8    31       BMANNA   O5       OC3C61  -0.400000       15.9994           0
      8742 LPSA8    31       BMANNA   C2       CC3161   0.700000E-01   12.0110           0
      8743 LPSA8    31       BMANNA   H2       HCA1     0.900000E-01   1.00800           0
      8744 LPSA8    31       BMANNA   N        NC2D1   -0.470000       14.0070           0
      8745 LPSA8    31       BMANNA   HN       HCP1     0.310000       1.00800           0
      8746 LPSA8    31       BMANNA   C        CC2O1    0.510000       12.0110           0
      8747 LPSA8    31       BMANNA   O        OC2D1   -0.510000       15.9994           0
      8748 LPSA8    31       BMANNA   CT       CC331   -0.270000       12.0110           0
      8749 LPSA8    31       BMANNA   HT1      HCA3     0.900000E-01   1.00800           0
      8750 LPSA8    31       BMANNA   HT2      HCA3     0.900000E-01   1.00800           0
      8751 LPSA8    31       BMANNA   HT3      HCA3     0.900000E-01   1.00800           0
      8752 LPSA8    31       BMANNA   C3       CC3161   0.140000       12.0110           0
      8753 LPSA8    31       BMANNA   H3       HCA1     0.900000E-01   1.00800           0
      8754 LPSA8    31       BMANNA   O3       OC311   -0.650000       15.9994           0
      8755 LPSA8    31       BMANNA   HO3      HCP1     0.420000       1.00800           0
      8756 LPSA8    31       BMANNA   C4       CC3161   0.140000       12.0110           0
      8757 LPSA8    31       BMANNA   H4       HCA1     0.900000E-01   1.00800           0
      8758 LPSA8    31       BMANNA   O4       OC311   -0.650000       15.9994           0
      8759 LPSA8    31       BMANNA   HO4      HCP1     0.420000       1.00800           0
      8760 LPSA8    31       BMANNA   C6       CC321    0.500000E-01   12.0110           0
      8761 LPSA8    31       BMANNA   H61      HCA2     0.900000E-01   1.00800           0
      8762 LPSA8    31       BMANNA   H62      HCA2     0.900000E-01   1.00800           0
      8763 LPSA8    31       BMANNA   O6       OC311   -0.650000       15.9994           0
      8764 LPSA8    31       BMANNA   HO6      HCP1     0.420000       1.00800           0
      8765 LPSA8    32       BGLCNA   C1       CC3162   0.290000       12.0110           0
      8766 LPSA8    32       BGLCNA   H1       HCA1     0.900000E-01   1.00800           0
      8767 LPSA8    32       BGLCNA   C5       CC3163   0.110000       12.0110           0
      8768 LPSA8    32       BGLCNA   H5       HCA1     0.900000E-01   1.00800           0
      8769 LPSA8    32       BGLCNA   O5       OC3C61  -0.400000       15.9994           0
      8770 LPSA8    32       BGLCNA   C2       CC3161   0.700000E-01   12.0110           0
      8771 LPSA8    32       BGLCNA   H2       HCA1     0.900000E-01   1.00800           0
      8772 LPSA8    32       BGLCNA   N        NC2D1   -0.470000       14.0070           0
      8773 LPSA8    32       BGLCNA   HN       HCP1     0.310000       1.00800           0
      8774 LPSA8    32       BGLCNA   C        CC2O1    0.510000       12.0110           0
      8775 LPSA8    32       BGLCNA   O        OC2D1   -0.510000       15.9994           0
      8776 LPSA8    32       BGLCNA   CT       CC331   -0.270000       12.0110           0
      8777 LPSA8    32       BGLCNA   HT1      HCA3     0.900000E-01   1.00800           0
      8778 LPSA8    32       BGLCNA   HT2      HCA3     0.900000E-01   1.00800           0
      8779 LPSA8    32       BGLCNA   HT3      HCA3     0.900000E-01   1.00800           0
      8780 LPSA8    32       BGLCNA   C3       CC3161   0.900000E-01   12.0110           0
      8781 LPSA8    32       BGLCNA   H3       HCA1     0.900000E-01   1.00800           0
      8782 LPSA8    32       BGLCNA   O3       OC301   -0.360000       15.9994           0
      8783 LPSA8    32       BGLCNA   C4       CC3161   0.140000       12.0110           0
      8784 LPSA8    32       BGLCNA   H4       HCA1     0.900000E-01   1.00800           0
      8785 LPSA8    32       BGLCNA   O4       OC311   -0.650000       15.9994           0
      8786 LPSA8    32       BGLCNA   HO4      HCP1     0.420000       1.00800           0
      8787 LPSA8    32       BGLCNA   C6       CC321    0.500000E-01   12.0110           0
      8788 LPSA8    32       BGLCNA   H61      HCA2     0.900000E-01   1.00800           0
      8789 LPSA8    32       BGLCNA   H62      HCA2     0.900000E-01   1.00800           0
      8790 LPSA8    32       BGLCNA   O6       OC311   -0.650000       15.9994           0
      8791 LPSA8    32       BGLCNA   HO6      HCP1     0.420000       1.00800           0
      8792 LPSA8    33       AGAL     C1       CC3162   0.290000       12.0110           0
      8793 LPSA8    33       AGAL     H1       HCA1     0.900000E-01   1.00800           0
      8794 LPSA8    33       AGAL     C5       CC3163   0.110000       12.0110           0
      8795 LPSA8    33       AGAL     H5       HCA1     0.900000E-01   1.00800           0
      8796 LPSA8    33       AGAL     O5       OC3C61  -0.400000       15.9994           0
      8797 LPSA8    33       AGAL     C2       CC3161   0.900000E-01   12.0110           0
      8798 LPSA8    33       AGAL     H2       HCA1     0.900000E-01   1.00800           0
      8799 LPSA8    33       AGAL     O2       OC301   -0.360000       15.9994           0
      8800 LPSA8    33       AGAL     C3       CC3161   0.140000       12.0110           0
      8801 LPSA8    33       AGAL     H3       HCA1     0.900000E-01   1.00800           0
      8802 LPSA8    33       AGAL     O3       OC311   -0.650000       15.9994           0
      8803 LPSA8    33       AGAL     HO3      HCP1     0.420000       1.00800           0
      8804 LPSA8    33       AGAL     C4       CC3161   0.140000       12.0110           0
      8805 LPSA8    33       AGAL     H4       HCA1     0.900000E-01   1.00800           0
      8806 LPSA8    33       AGAL     O4       OC311   -0.650000       15.9994           0
      8807 LPSA8    33       AGAL     HO4      HCP1     0.420000       1.00800           0
      8808 LPSA8    33       AGAL     C6       CC321    0.500000E-01   12.0110           0
      8809 LPSA8    33       AGAL     H61      HCA2     0.900000E-01   1.00800           0
      8810 LPSA8    33       AGAL     H62      HCA2     0.900000E-01   1.00800           0
      8811 LPSA8    33       AGAL     O6       OC311   -0.650000       15.9994           0
      8812 LPSA8    33       AGAL     HO6      HCP1     0.420000       1.00800           0
      8813 LPSA8    34       ARHM     C1       CC3162   0.290000       12.0110           0
      8814 LPSA8    34       ARHM     H1       HCA1     0.900000E-01   1.00800           0
      8815 LPSA8    34       ARHM     C5       CC3163   0.110000       12.0110           0
      8816 LPSA8    34       ARHM     H5       HCA1     0.900000E-01   1.00800           0
      8817 LPSA8    34       ARHM     O5       OC3C61  -0.400000       15.9994           0
      8818 LPSA8    34       ARHM     C2       CC3161   0.900000E-01   12.0110           0
      8819 LPSA8    34       ARHM     H2       HCA1     0.900000E-01   1.00800           0
      8820 LPSA8    34       ARHM     O2       OC301   -0.360000       15.9994           0
      8821 LPSA8    34       ARHM     C3       CC3161   0.140000       12.0110           0
      8822 LPSA8    34       ARHM     H3       HCA1     0.900000E-01   1.00800           0
      8823 LPSA8    34       ARHM     O3       OC311   -0.650000       15.9994           0
      8824 LPSA8    34       ARHM     HO3      HCP1     0.420000       1.00800           0
      8825 LPSA8    34       ARHM     C4       CC3161   0.140000       12.0110           0
      8826 LPSA8    34       ARHM     H4       HCA1     0.900000E-01   1.00800           0
      8827 LPSA8    34       ARHM     O4       OC311   -0.650000       15.9994           0
      8828 LPSA8    34       ARHM     HO4      HCP1     0.420000       1.00800           0
      8829 LPSA8    34       ARHM     C6       CC331   -0.270000       12.0110           0
      8830 LPSA8    34       ARHM     H61      HCA3     0.900000E-01   1.00800           0
      8831 LPSA8    34       ARHM     H62      HCA3     0.900000E-01   1.00800           0
      8832 LPSA8    34       ARHM     H63      HCA3     0.900000E-01   1.00800           0
      8833 LPSA8    35       ARHM     C1       CC3162   0.290000       12.0110           0
      8834 LPSA8    35       ARHM     H1       HCA1     0.900000E-01   1.00800           0
      8835 LPSA8    35       ARHM     C5       CC3163   0.110000       12.0110           0
      8836 LPSA8    35       ARHM     H5       HCA1     0.900000E-01   1.00800           0
      8837 LPSA8    35       ARHM     O5       OC3C61  -0.400000       15.9994           0
      8838 LPSA8    35       ARHM     C2       CC3161   0.900000E-01   12.0110           0
      8839 LPSA8    35       ARHM     H2       HCA1     0.900000E-01   1.00800           0
      8840 LPSA8    35       ARHM     O2       OC301   -0.360000       15.9994           0
      8841 LPSA8    35       ARHM     C3       CC3161   0.140000       12.0110           0
      8842 LPSA8    35       ARHM     H3       HCA1     0.900000E-01   1.00800           0
      8843 LPSA8    35       ARHM     O3       OC311   -0.650000       15.9994           0
      8844 LPSA8    35       ARHM     HO3      HCP1     0.420000       1.00800           0
      8845 LPSA8    35       ARHM     C4       CC3161   0.140000       12.0110           0
      8846 LPSA8    35       ARHM     H4       HCA1     0.900000E-01   1.00800           0
      8847 LPSA8    35       ARHM     O4       OC311   -0.650000       15.9994           0
      8848 LPSA8    35       ARHM     HO4      HCP1     0.420000       1.00800           0
      8849 LPSA8    35       ARHM     C6       CC331   -0.270000       12.0110           0
      8850 LPSA8    35       ARHM     H61      HCA3     0.900000E-01   1.00800           0
      8851 LPSA8    35       ARHM     H62      HCA3     0.900000E-01   1.00800           0
      8852 LPSA8    35       ARHM     H63      HCA3     0.900000E-01   1.00800           0
      8853 LPSA8    36       BMANNA   C1       CC3162   0.290000       12.0110           0
      8854 LPSA8    36       BMANNA   H1       HCA1     0.900000E-01   1.00800           0
      8855 LPSA8    36       BMANNA   C5       CC3163   0.110000       12.0110           0
      8856 LPSA8    36       BMANNA   H5       HCA1     0.900000E-01   1.00800           0
      8857 LPSA8    36       BMANNA   O5       OC3C61  -0.400000       15.9994           0
      8858 LPSA8    36       BMANNA   C2       CC3161   0.700000E-01   12.0110           0
      8859 LPSA8    36       BMANNA   H2       HCA1     0.900000E-01   1.00800           0
      8860 LPSA8    36       BMANNA   N        NC2D1   -0.470000       14.0070           0
      8861 LPSA8    36       BMANNA   HN       HCP1     0.310000       1.00800           0
      8862 LPSA8    36       BMANNA   C        CC2O1    0.510000       12.0110           0
      8863 LPSA8    36       BMANNA   O        OC2D1   -0.510000       15.9994           0
      8864 LPSA8    36       BMANNA   CT       CC331   -0.270000       12.0110           0
      8865 LPSA8    36       BMANNA   HT1      HCA3     0.900000E-01   1.00800           0
      8866 LPSA8    36       BMANNA   HT2      HCA3     0.900000E-01   1.00800           0
      8867 LPSA8    36       BMANNA   HT3      HCA3     0.900000E-01   1.00800           0
      8868 LPSA8    36       BMANNA   C3       CC3161   0.140000       12.0110           0
      8869 LPSA8    36       BMANNA   H3       HCA1     0.900000E-01   1.00800           0
      8870 LPSA8    36       BMANNA   O3       OC311   -0.650000       15.9994           0
      8871 LPSA8    36       BMANNA   HO3      HCP1     0.420000       1.00800           0
      8872 LPSA8    36       BMANNA   C4       CC3161   0.140000       12.0110           0
      8873 LPSA8    36       BMANNA   H4       HCA1     0.900000E-01   1.00800           0
      8874 LPSA8    36       BMANNA   O4       OC311   -0.650000       15.9994           0
      8875 LPSA8    36       BMANNA   HO4      HCP1     0.420000       1.00800           0
      8876 LPSA8    36       BMANNA   C6       CC321    0.500000E-01   12.0110           0
      8877 LPSA8    36       BMANNA   H61      HCA2     0.900000E-01   1.00800           0
      8878 LPSA8    36       BMANNA   H62      HCA2     0.900000E-01   1.00800           0
      8879 LPSA8    36       BMANNA   O6       OC311   -0.650000       15.9994           0
      8880 LPSA8    36       BMANNA   HO6      HCP1     0.420000       1.00800           0
      8881 LPSA9    1        ECLIPA   HB6S     HCA2     0.900000E-01   1.00800           0
      8882 LPSA9    1        ECLIPA   OB6      OC301   -0.360000       15.9994           0
      8883 LPSA9    1        ECLIPA   CB6      CC321     0.00000       12.0110           0
      8884 LPSA9    1        ECLIPA   HB6R     HCA2     0.900000E-01   1.00800           0
      8885 LPSA9    1        ECLIPA   CB5      CC3163   0.110000       12.0110           0
      8886 LPSA9    1        ECLIPA   OB5      OC3C61  -0.400000       15.9994           0
      8887 LPSA9    1        ECLIPA   HB5      HCA1     0.900000E-01   1.00800           0
      8888 LPSA9    1        ECLIPA   CB1      CC3162   0.290000       12.0110           0
      8889 LPSA9    1        ECLIPA   HB1      HCA1     0.900000E-01   1.00800           0
      8890 LPSA9    1        ECLIPA   OA6      OC301   -0.360000       15.9994           0
      8891 LPSA9    1        ECLIPA   CA6      CC321     0.00000       12.0110           0
      8892 LPSA9    1        ECLIPA   HA6R     HCA2     0.900000E-01   1.00800           0
      8893 LPSA9    1        ECLIPA   HA6S     HCA2     0.900000E-01   1.00800           0
      8894 LPSA9    1        ECLIPA   CB4      CC3161  -0.900000E-01   12.0110           0
      8895 LPSA9    1        ECLIPA   HB4      HCA1     0.900000E-01   1.00800           0
      8896 LPSA9    1        ECLIPA   OB4      OC30P   -0.400000       15.9994           0
      8897 LPSA9    1        ECLIPA   PB       PC        1.10000       30.9740           0
      8898 LPSA9    1        ECLIPA   OPB4     OC2DP   -0.900000       15.9994           0
      8899 LPSA9    1        ECLIPA   OPB3     OC2DP   -0.900000       15.9994           0
      8900 LPSA9    1        ECLIPA   OPB2     OC2DP   -0.900000       15.9994           0
      8901 LPSA9    1        ECLIPA   CB3      CC3161   0.170000       12.0110           0
      8902 LPSA9    1        ECLIPA   OB3      OC301   -0.490000       15.9994           0
      8903 LPSA9    1        ECLIPA   HB3      HCA1     0.900000E-01   1.00800           0
      8904 LPSA9    1        ECLIPA   C71      CL       0.900000       12.0110           0
      8905 LPSA9    1        ECLIPA   O71      OBL     -0.630000       15.9994           0
      8906 LPSA9    1        ECLIPA   C72      CTL2    -0.220000       12.0110           0
      8907 LPSA9    1        ECLIPA   H72R     HAL2     0.900000E-01   1.00800           0
      8908 LPSA9    1        ECLIPA   H72S     HAL2     0.900000E-01   1.00800           0
      8909 LPSA9    1        ECLIPA   CB2      CC3161   0.700000E-01   12.0110           0
      8910 LPSA9    1        ECLIPA   HB2      HCA1     0.900000E-01   1.00800           0
      8911 LPSA9    1        ECLIPA   NB2      NC2D1   -0.470000       14.0070           0
      8912 LPSA9    1        ECLIPA   HNB2     HCP1     0.310000       1.00800           0
      8913 LPSA9    1        ECLIPA   CA4      CC3161   0.140000       12.0110           0
      8914 LPSA9    1        ECLIPA   HA4      HCA1     0.900000E-01   1.00800           0
      8915 LPSA9    1        ECLIPA   OA4      OC311   -0.650000       15.9994           0
      8916 LPSA9    1        ECLIPA   HOA4     HCP1     0.420000       1.00800           0
      8917 LPSA9    1        ECLIPA   CA5      CC3163   0.110000       12.0110           0
      8918 LPSA9    1        ECLIPA   HA5      HCA1     0.900000E-01   1.00800           0
      8919 LPSA9    1        ECLIPA   OA5      OC3C61  -0.400000       15.9994           0
      8920 LPSA9    1        ECLIPA   CA1      CC3162   0.110000       12.0110           0
      8921 LPSA9    1        ECLIPA   HA1      HCA1     0.900000E-01   1.00800           0
      8922 LPSA9    1        ECLIPA   OA1      OC30P   -0.400000       15.9994           0
      8923 LPSA9    1        ECLIPA   OPA2     OC2DP   -0.900000       15.9994           0
      8924 LPSA9    1        ECLIPA   OPA3     OC2DP   -0.900000       15.9994           0
      8925 LPSA9    1        ECLIPA   OPA4     OC2DP   -0.900000       15.9994           0
      8926 LPSA9    1        ECLIPA   PA       PC        1.10000       30.9740           0
      8927 LPSA9    1        ECLIPA   CA3      CC3161   0.170000       12.0110           0
      8928 LPSA9    1        ECLIPA   HA3      HCA1     0.900000E-01   1.00800           0
      8929 LPSA9    1        ECLIPA   OA3      OC301   -0.490000       15.9994           0
      8930 LPSA9    1        ECLIPA   C31      CL       0.900000       12.0110           0
      8931 LPSA9    1        ECLIPA   O31      OBL     -0.630000       15.9994           0
      8932 LPSA9    1        ECLIPA   C32      CTL2    -0.220000       12.0110           0
      8933 LPSA9    1        ECLIPA   H32R     HAL2     0.900000E-01   1.00800           0
      8934 LPSA9    1        ECLIPA   H32S     HAL2     0.900000E-01   1.00800           0
      8935 LPSA9    1        ECLIPA   CA2      CC3161   0.700000E-01   12.0110           0
      8936 LPSA9    1        ECLIPA   HA2      HCA1     0.900000E-01   1.00800           0
      8937 LPSA9    1        ECLIPA   NA2      NC2D1   -0.470000       14.0070           0
      8938 LPSA9    1        ECLIPA   HNA2     HCP1     0.310000       1.00800           0
      8939 LPSA9    1        ECLIPA   C73      CTL1     0.170000       12.0110           0
      8940 LPSA9    1        ECLIPA   H73R     HAL1     0.900000E-01   1.00800           0
      8941 LPSA9    1        ECLIPA   O73      OSL     -0.490000       15.9994           0
      8942 LPSA9    1        ECLIPA   C81      CL       0.900000       12.0110           0
      8943 LPSA9    1        ECLIPA   O81      OBL     -0.630000       15.9994           0
      8944 LPSA9    1        ECLIPA   C82      CTL2    -0.220000       12.0110           0
      8945 LPSA9    1        ECLIPA   H82R     HAL2     0.900000E-01   1.00800           0
      8946 LPSA9    1        ECLIPA   H82S     HAL2     0.900000E-01   1.00800           0
      8947 LPSA9    1        ECLIPA   C83      CTL2    -0.180000       12.0110           0
      8948 LPSA9    1        ECLIPA   H83R     HAL2     0.900000E-01   1.00800           0
      8949 LPSA9    1        ECLIPA   H83S     HAL2     0.900000E-01   1.00800           0
      8950 LPSA9    1        ECLIPA   C84      CTL2    -0.180000       12.0110           0
      8951 LPSA9    1        ECLIPA   H84R     HAL2     0.900000E-01   1.00800           0
      8952 LPSA9    1        ECLIPA   H84S     HAL2     0.900000E-01   1.00800           0
      8953 LPSA9    1        ECLIPA   C85      CTL2    -0.180000       12.0110           0
      8954 LPSA9    1        ECLIPA   H85R     HAL2     0.900000E-01   1.00800           0
      8955 LPSA9    1        ECLIPA   H85S     HAL2     0.900000E-01   1.00800           0
      8956 LPSA9    1        ECLIPA   C86      CTL2    -0.180000       12.0110           0
      8957 LPSA9    1        ECLIPA   H86R     HAL2     0.900000E-01   1.00800           0
      8958 LPSA9    1        ECLIPA   H86S     HAL2     0.900000E-01   1.00800           0
      8959 LPSA9    1        ECLIPA   C87      CTL2    -0.180000       12.0110           0
      8960 LPSA9    1        ECLIPA   H87R     HAL2     0.900000E-01   1.00800           0
      8961 LPSA9    1        ECLIPA   H87S     HAL2     0.900000E-01   1.00800           0
      8962 LPSA9    1        ECLIPA   C88      CTL2    -0.180000       12.0110           0
      8963 LPSA9    1        ECLIPA   H88R     HAL2     0.900000E-01   1.00800           0
      8964 LPSA9    1        ECLIPA   H88S     HAL2     0.900000E-01   1.00800           0
      8965 LPSA9    1        ECLIPA   C89      CTL2    -0.180000       12.0110           0
      8966 LPSA9    1        ECLIPA   H89R     HAL2     0.900000E-01   1.00800           0
      8967 LPSA9    1        ECLIPA   H89S     HAL2     0.900000E-01   1.00800           0
      8968 LPSA9    1        ECLIPA   C810     CTL2    -0.180000       12.0110           0
      8969 LPSA9    1        ECLIPA   H810R    HAL2     0.900000E-01   1.00800           0
      8970 LPSA9    1        ECLIPA   H810S    HAL2     0.900000E-01   1.00800           0
      8971 LPSA9    1        ECLIPA   C811     CTL2    -0.180000       12.0110           0
      8972 LPSA9    1        ECLIPA   H811R    HAL2     0.900000E-01   1.00800           0
      8973 LPSA9    1        ECLIPA   H811S    HAL2     0.900000E-01   1.00800           0
      8974 LPSA9    1        ECLIPA   C812     CTL2    -0.180000       12.0110           0
      8975 LPSA9    1        ECLIPA   H812R    HAL2     0.900000E-01   1.00800           0
      8976 LPSA9    1        ECLIPA   H812S    HAL2     0.900000E-01   1.00800           0
      8977 LPSA9    1        ECLIPA   C813     CTL2    -0.180000       12.0110           0
      8978 LPSA9    1        ECLIPA   H813R    HAL2     0.900000E-01   1.00800           0
      8979 LPSA9    1        ECLIPA   H813S    HAL2     0.900000E-01   1.00800           0
      8980 LPSA9    1        ECLIPA   C814     CTL3    -0.270000       12.0110           0
      8981 LPSA9    1        ECLIPA   H814R    HAL3     0.900000E-01   1.00800           0
      8982 LPSA9    1        ECLIPA   H814S    HAL3     0.900000E-01   1.00800           0
      8983 LPSA9    1        ECLIPA   H814T    HAL3     0.900000E-01   1.00800           0
      8984 LPSA9    1        ECLIPA   C74      CTL2    -0.180000       12.0110           0
      8985 LPSA9    1        ECLIPA   H74R     HAL2     0.900000E-01   1.00800           0
      8986 LPSA9    1        ECLIPA   H74S     HAL2     0.900000E-01   1.00800           0
      8987 LPSA9    1        ECLIPA   C75      CTL2    -0.180000       12.0110           0
      8988 LPSA9    1        ECLIPA   H75R     HAL2     0.900000E-01   1.00800           0
      8989 LPSA9    1        ECLIPA   H75S     HAL2     0.900000E-01   1.00800           0
      8990 LPSA9    1        ECLIPA   C76      CTL2    -0.180000       12.0110           0
      8991 LPSA9    1        ECLIPA   H76R     HAL2     0.900000E-01   1.00800           0
      8992 LPSA9    1        ECLIPA   H76S     HAL2     0.900000E-01   1.00800           0
      8993 LPSA9    1        ECLIPA   C77      CTL2    -0.180000       12.0110           0
      8994 LPSA9    1        ECLIPA   H77R     HAL2     0.900000E-01   1.00800           0
      8995 LPSA9    1        ECLIPA   H77S     HAL2     0.900000E-01   1.00800           0
      8996 LPSA9    1        ECLIPA   C78      CTL2    -0.180000       12.0110           0
      8997 LPSA9    1        ECLIPA   H78R     HAL2     0.900000E-01   1.00800           0
      8998 LPSA9    1        ECLIPA   H78S     HAL2     0.900000E-01   1.00800           0
      8999 LPSA9    1        ECLIPA   C79      CTL2    -0.180000       12.0110           0
      9000 LPSA9    1        ECLIPA   H79R     HAL2     0.900000E-01   1.00800           0
      9001 LPSA9    1        ECLIPA   H79S     HAL2     0.900000E-01   1.00800           0
      9002 LPSA9    1        ECLIPA   C710     CTL2    -0.180000       12.0110           0
      9003 LPSA9    1        ECLIPA   H710R    HAL2     0.900000E-01   1.00800           0
      9004 LPSA9    1        ECLIPA   H710S    HAL2     0.900000E-01   1.00800           0
      9005 LPSA9    1        ECLIPA   C711     CTL2    -0.180000       12.0110           0
      9006 LPSA9    1        ECLIPA   H711R    HAL2     0.900000E-01   1.00800           0
      9007 LPSA9    1        ECLIPA   H711S    HAL2     0.900000E-01   1.00800           0
      9008 LPSA9    1        ECLIPA   C712     CTL2    -0.180000       12.0110           0
      9009 LPSA9    1        ECLIPA   H712R    HAL2     0.900000E-01   1.00800           0
      9010 LPSA9    1        ECLIPA   H712S    HAL2     0.900000E-01   1.00800           0
      9011 LPSA9    1        ECLIPA   C713     CTL2    -0.180000       12.0110           0
      9012 LPSA9    1        ECLIPA   H713R    HAL2     0.900000E-01   1.00800           0
      9013 LPSA9    1        ECLIPA   H713S    HAL2     0.900000E-01   1.00800           0
      9014 LPSA9    1        ECLIPA   C714     CTL3    -0.270000       12.0110           0
      9015 LPSA9    1        ECLIPA   H714R    HAL3     0.900000E-01   1.00800           0
      9016 LPSA9    1        ECLIPA   H714S    HAL3     0.900000E-01   1.00800           0
      9017 LPSA9    1        ECLIPA   H714T    HAL3     0.900000E-01   1.00800           0
      9018 LPSA9    1        ECLIPA   C51      CC2O1    0.550000       12.0110           0
      9019 LPSA9    1        ECLIPA   O51      OC2D1   -0.550000       15.9994           0
      9020 LPSA9    1        ECLIPA   C52      CTL2    -0.180000       12.0110           0
      9021 LPSA9    1        ECLIPA   H52R     HAL2     0.900000E-01   1.00800           0
      9022 LPSA9    1        ECLIPA   H52S     HAL2     0.900000E-01   1.00800           0
      9023 LPSA9    1        ECLIPA   C53      CTL1     0.170000       12.0110           0
      9024 LPSA9    1        ECLIPA   H53R     HAL1     0.900000E-01   1.00800           0
      9025 LPSA9    1        ECLIPA   O53      OSL     -0.490000       15.9994           0
      9026 LPSA9    1        ECLIPA   C61      CL       0.900000       12.0110           0
      9027 LPSA9    1        ECLIPA   O61      OBL     -0.630000       15.9994           0
      9028 LPSA9    1        ECLIPA   C62      CTL2    -0.220000       12.0110           0
      9029 LPSA9    1        ECLIPA   H62R     HAL2     0.900000E-01   1.00800           0
      9030 LPSA9    1        ECLIPA   H62S     HAL2     0.900000E-01   1.00800           0
      9031 LPSA9    1        ECLIPA   C63      CTL2    -0.180000       12.0110           0
      9032 LPSA9    1        ECLIPA   H63R     HAL2     0.900000E-01   1.00800           0
      9033 LPSA9    1        ECLIPA   H63S     HAL2     0.900000E-01   1.00800           0
      9034 LPSA9    1        ECLIPA   C64      CTL2    -0.180000       12.0110           0
      9035 LPSA9    1        ECLIPA   H64R     HAL2     0.900000E-01   1.00800           0
      9036 LPSA9    1        ECLIPA   H64S     HAL2     0.900000E-01   1.00800           0
      9037 LPSA9    1        ECLIPA   C65      CTL2    -0.180000       12.0110           0
      9038 LPSA9    1        ECLIPA   H65R     HAL2     0.900000E-01   1.00800           0
      9039 LPSA9    1        ECLIPA   H65S     HAL2     0.900000E-01   1.00800           0
      9040 LPSA9    1        ECLIPA   C66      CTL2    -0.180000       12.0110           0
      9041 LPSA9    1        ECLIPA   H66R     HAL2     0.900000E-01   1.00800           0
      9042 LPSA9    1        ECLIPA   H66S     HAL2     0.900000E-01   1.00800           0
      9043 LPSA9    1        ECLIPA   C67      CTL2    -0.180000       12.0110           0
      9044 LPSA9    1        ECLIPA   H67R     HAL2     0.900000E-01   1.00800           0
      9045 LPSA9    1        ECLIPA   H67S     HAL2     0.900000E-01   1.00800           0
      9046 LPSA9    1        ECLIPA   C68      CTL2    -0.180000       12.0110           0
      9047 LPSA9    1        ECLIPA   H68R     HAL2     0.900000E-01   1.00800           0
      9048 LPSA9    1        ECLIPA   H68S     HAL2     0.900000E-01   1.00800           0
      9049 LPSA9    1        ECLIPA   C69      CTL2    -0.180000       12.0110           0
      9050 LPSA9    1        ECLIPA   H69R     HAL2     0.900000E-01   1.00800           0
      9051 LPSA9    1        ECLIPA   H69S     HAL2     0.900000E-01   1.00800           0
      9052 LPSA9    1        ECLIPA   C610     CTL2    -0.180000       12.0110           0
      9053 LPSA9    1        ECLIPA   H610R    HAL2     0.900000E-01   1.00800           0
      9054 LPSA9    1        ECLIPA   H610S    HAL2     0.900000E-01   1.00800           0
      9055 LPSA9    1        ECLIPA   C611     CTL2    -0.180000       12.0110           0
      9056 LPSA9    1        ECLIPA   H611R    HAL2     0.900000E-01   1.00800           0
      9057 LPSA9    1        ECLIPA   H611S    HAL2     0.900000E-01   1.00800           0
      9058 LPSA9    1        ECLIPA   C612     CTL3    -0.270000       12.0110           0
      9059 LPSA9    1        ECLIPA   H612R    HAL3     0.900000E-01   1.00800           0
      9060 LPSA9    1        ECLIPA   H612S    HAL3     0.900000E-01   1.00800           0
      9061 LPSA9    1        ECLIPA   H612T    HAL3     0.900000E-01   1.00800           0
      9062 LPSA9    1        ECLIPA   C54      CTL2    -0.180000       12.0110           0
      9063 LPSA9    1        ECLIPA   H54R     HAL2     0.900000E-01   1.00800           0
      9064 LPSA9    1        ECLIPA   H54S     HAL2     0.900000E-01   1.00800           0
      9065 LPSA9    1        ECLIPA   C55      CTL2    -0.180000       12.0110           0
      9066 LPSA9    1        ECLIPA   H55R     HAL2     0.900000E-01   1.00800           0
      9067 LPSA9    1        ECLIPA   H55S     HAL2     0.900000E-01   1.00800           0
      9068 LPSA9    1        ECLIPA   C56      CTL2    -0.180000       12.0110           0
      9069 LPSA9    1        ECLIPA   H56R     HAL2     0.900000E-01   1.00800           0
      9070 LPSA9    1        ECLIPA   H56S     HAL2     0.900000E-01   1.00800           0
      9071 LPSA9    1        ECLIPA   C57      CTL2    -0.180000       12.0110           0
      9072 LPSA9    1        ECLIPA   H57R     HAL2     0.900000E-01   1.00800           0
      9073 LPSA9    1        ECLIPA   H57S     HAL2     0.900000E-01   1.00800           0
      9074 LPSA9    1        ECLIPA   C58      CTL2    -0.180000       12.0110           0
      9075 LPSA9    1        ECLIPA   H58R     HAL2     0.900000E-01   1.00800           0
      9076 LPSA9    1        ECLIPA   H58S     HAL2     0.900000E-01   1.00800           0
      9077 LPSA9    1        ECLIPA   C59      CTL2    -0.180000       12.0110           0
      9078 LPSA9    1        ECLIPA   H59R     HAL2     0.900000E-01   1.00800           0
      9079 LPSA9    1        ECLIPA   H59S     HAL2     0.900000E-01   1.00800           0
      9080 LPSA9    1        ECLIPA   C510     CTL2    -0.180000       12.0110           0
      9081 LPSA9    1        ECLIPA   H510R    HAL2     0.900000E-01   1.00800           0
      9082 LPSA9    1        ECLIPA   H510S    HAL2     0.900000E-01   1.00800           0
      9083 LPSA9    1        ECLIPA   C511     CTL2    -0.180000       12.0110           0
      9084 LPSA9    1        ECLIPA   H511R    HAL2     0.900000E-01   1.00800           0
      9085 LPSA9    1        ECLIPA   H511S    HAL2     0.900000E-01   1.00800           0
      9086 LPSA9    1        ECLIPA   C512     CTL2    -0.180000       12.0110           0
      9087 LPSA9    1        ECLIPA   H512R    HAL2     0.900000E-01   1.00800           0
      9088 LPSA9    1        ECLIPA   H512S    HAL2     0.900000E-01   1.00800           0
      9089 LPSA9    1        ECLIPA   C513     CTL2    -0.180000       12.0110           0
      9090 LPSA9    1        ECLIPA   H513R    HAL2     0.900000E-01   1.00800           0
      9091 LPSA9    1        ECLIPA   H513S    HAL2     0.900000E-01   1.00800           0
      9092 LPSA9    1        ECLIPA   C514     CTL3    -0.270000       12.0110           0
      9093 LPSA9    1        ECLIPA   H514R    HAL3     0.900000E-01   1.00800           0
      9094 LPSA9    1        ECLIPA   H514S    HAL3     0.900000E-01   1.00800           0
      9095 LPSA9    1        ECLIPA   H514T    HAL3     0.900000E-01   1.00800           0
      9096 LPSA9    1        ECLIPA   C33      CTL1     0.140000       12.0110           0
      9097 LPSA9    1        ECLIPA   H33R     HAL1     0.900000E-01   1.00800           0
      9098 LPSA9    1        ECLIPA   O33      OH1     -0.660000       15.9994           0
      9099 LPSA9    1        ECLIPA   HO33     H        0.430000       1.00800           0
      9100 LPSA9    1        ECLIPA   C34      CTL2    -0.180000       12.0110           0
      9101 LPSA9    1        ECLIPA   H34R     HAL2     0.900000E-01   1.00800           0
      9102 LPSA9    1        ECLIPA   H34S     HAL2     0.900000E-01   1.00800           0
      9103 LPSA9    1        ECLIPA   C35      CTL2    -0.180000       12.0110           0
      9104 LPSA9    1        ECLIPA   H35R     HAL2     0.900000E-01   1.00800           0
      9105 LPSA9    1        ECLIPA   H35S     HAL2     0.900000E-01   1.00800           0
      9106 LPSA9    1        ECLIPA   C36      CTL2    -0.180000       12.0110           0
      9107 LPSA9    1        ECLIPA   H36R     HAL2     0.900000E-01   1.00800           0
      9108 LPSA9    1        ECLIPA   H36S     HAL2     0.900000E-01   1.00800           0
      9109 LPSA9    1        ECLIPA   C37      CTL2    -0.180000       12.0110           0
      9110 LPSA9    1        ECLIPA   H37R     HAL2     0.900000E-01   1.00800           0
      9111 LPSA9    1        ECLIPA   H37S     HAL2     0.900000E-01   1.00800           0
      9112 LPSA9    1        ECLIPA   C38      CTL2    -0.180000       12.0110           0
      9113 LPSA9    1        ECLIPA   H38R     HAL2     0.900000E-01   1.00800           0
      9114 LPSA9    1        ECLIPA   H38S     HAL2     0.900000E-01   1.00800           0
      9115 LPSA9    1        ECLIPA   C39      CTL2    -0.180000       12.0110           0
      9116 LPSA9    1        ECLIPA   H39R     HAL2     0.900000E-01   1.00800           0
      9117 LPSA9    1        ECLIPA   H39S     HAL2     0.900000E-01   1.00800           0
      9118 LPSA9    1        ECLIPA   C310     CTL2    -0.180000       12.0110           0
      9119 LPSA9    1        ECLIPA   H310R    HAL2     0.900000E-01   1.00800           0
      9120 LPSA9    1        ECLIPA   H310S    HAL2     0.900000E-01   1.00800           0
      9121 LPSA9    1        ECLIPA   C311     CTL2    -0.180000       12.0110           0
      9122 LPSA9    1        ECLIPA   H311R    HAL2     0.900000E-01   1.00800           0
      9123 LPSA9    1        ECLIPA   H311S    HAL2     0.900000E-01   1.00800           0
      9124 LPSA9    1        ECLIPA   C312     CTL2    -0.180000       12.0110           0
      9125 LPSA9    1        ECLIPA   H312R    HAL2     0.900000E-01   1.00800           0
      9126 LPSA9    1        ECLIPA   H312S    HAL2     0.900000E-01   1.00800           0
      9127 LPSA9    1        ECLIPA   C313     CTL2    -0.180000       12.0110           0
      9128 LPSA9    1        ECLIPA   H313R    HAL2     0.900000E-01   1.00800           0
      9129 LPSA9    1        ECLIPA   H313S    HAL2     0.900000E-01   1.00800           0
      9130 LPSA9    1        ECLIPA   C314     CTL3    -0.270000       12.0110           0
      9131 LPSA9    1        ECLIPA   H314R    HAL3     0.900000E-01   1.00800           0
      9132 LPSA9    1        ECLIPA   H314S    HAL3     0.900000E-01   1.00800           0
      9133 LPSA9    1        ECLIPA   H314T    HAL3     0.900000E-01   1.00800           0
      9134 LPSA9    1        ECLIPA   C11      CC2O1    0.550000       12.0110           0
      9135 LPSA9    1        ECLIPA   O11      OC2D1   -0.550000       15.9994           0
      9136 LPSA9    1        ECLIPA   C12      CTL2    -0.180000       12.0110           0
      9137 LPSA9    1        ECLIPA   H12R     HAL2     0.900000E-01   1.00800           0
      9138 LPSA9    1        ECLIPA   H12S     HAL2     0.900000E-01   1.00800           0
      9139 LPSA9    1        ECLIPA   C13      CTL1     0.140000       12.0110           0
      9140 LPSA9    1        ECLIPA   H13R     HAL1     0.900000E-01   1.00800           0
      9141 LPSA9    1        ECLIPA   O13      OH1     -0.660000       15.9994           0
      9142 LPSA9    1        ECLIPA   HO13     H        0.430000       1.00800           0
      9143 LPSA9    1        ECLIPA   C14      CTL2    -0.180000       12.0110           0
      9144 LPSA9    1        ECLIPA   H14R     HAL2     0.900000E-01   1.00800           0
      9145 LPSA9    1        ECLIPA   H14S     HAL2     0.900000E-01   1.00800           0
      9146 LPSA9    1        ECLIPA   C15      CTL2    -0.180000       12.0110           0
      9147 LPSA9    1        ECLIPA   H15R     HAL2     0.900000E-01   1.00800           0
      9148 LPSA9    1        ECLIPA   H15S     HAL2     0.900000E-01   1.00800           0
      9149 LPSA9    1        ECLIPA   C16      CTL2    -0.180000       12.0110           0
      9150 LPSA9    1        ECLIPA   H16R     HAL2     0.900000E-01   1.00800           0
      9151 LPSA9    1        ECLIPA   H16S     HAL2     0.900000E-01   1.00800           0
      9152 LPSA9    1        ECLIPA   C17      CTL2    -0.180000       12.0110           0
      9153 LPSA9    1        ECLIPA   H17R     HAL2     0.900000E-01   1.00800           0
      9154 LPSA9    1        ECLIPA   H17S     HAL2     0.900000E-01   1.00800           0
      9155 LPSA9    1        ECLIPA   C18      CTL2    -0.180000       12.0110           0
      9156 LPSA9    1        ECLIPA   H18R     HAL2     0.900000E-01   1.00800           0
      9157 LPSA9    1        ECLIPA   H18S     HAL2     0.900000E-01   1.00800           0
      9158 LPSA9    1        ECLIPA   C19      CTL2    -0.180000       12.0110           0
      9159 LPSA9    1        ECLIPA   H19R     HAL2     0.900000E-01   1.00800           0
      9160 LPSA9    1        ECLIPA   H19S     HAL2     0.900000E-01   1.00800           0
      9161 LPSA9    1        ECLIPA   C110     CTL2    -0.180000       12.0110           0
      9162 LPSA9    1        ECLIPA   H110R    HAL2     0.900000E-01   1.00800           0
      9163 LPSA9    1        ECLIPA   H110S    HAL2     0.900000E-01   1.00800           0
      9164 LPSA9    1        ECLIPA   C111     CTL2    -0.180000       12.0110           0
      9165 LPSA9    1        ECLIPA   H111R    HAL2     0.900000E-01   1.00800           0
      9166 LPSA9    1        ECLIPA   H111S    HAL2     0.900000E-01   1.00800           0
      9167 LPSA9    1        ECLIPA   C112     CTL2    -0.180000       12.0110           0
      9168 LPSA9    1        ECLIPA   H112R    HAL2     0.900000E-01   1.00800           0
      9169 LPSA9    1        ECLIPA   H112S    HAL2     0.900000E-01   1.00800           0
      9170 LPSA9    1        ECLIPA   C113     CTL2    -0.180000       12.0110           0
      9171 LPSA9    1        ECLIPA   H113R    HAL2     0.900000E-01   1.00800           0
      9172 LPSA9    1        ECLIPA   H113S    HAL2     0.900000E-01   1.00800           0
      9173 LPSA9    1        ECLIPA   C114     CTL3    -0.270000       12.0110           0
      9174 LPSA9    1        ECLIPA   H114R    HAL3     0.900000E-01   1.00800           0
      9175 LPSA9    1        ECLIPA   H114S    HAL3     0.900000E-01   1.00800           0
      9176 LPSA9    1        ECLIPA   H114T    HAL3     0.900000E-01   1.00800           0
      9177 LPSA9    2        AKDO     C1       CC2O2    0.300000       12.0110           0
      9178 LPSA9    2        AKDO     O11      OC2D2   -0.600000       15.9994           0
      9179 LPSA9    2        AKDO     O12      OC2D2   -0.600000       15.9994           0
      9180 LPSA9    2        AKDO     C2       CC3062   0.280000       12.0110           0
      9181 LPSA9    2        AKDO     C6       CC3163   0.110000       12.0110           0
      9182 LPSA9    2        AKDO     H6       HCA1     0.900000E-01   1.00800           0
      9183 LPSA9    2        AKDO     O6       OC3C61  -0.400000       15.9994           0
      9184 LPSA9    2        AKDO     C3       CC3261  -0.180000       12.0110           0
      9185 LPSA9    2        AKDO     H31      HCA2     0.900000E-01   1.00800           0
      9186 LPSA9    2        AKDO     H32      HCA2     0.900000E-01   1.00800           0
      9187 LPSA9    2        AKDO     C4       CC3161   0.900000E-01   12.0110           0
      9188 LPSA9    2        AKDO     H4       HCA1     0.900000E-01   1.00800           0
      9189 LPSA9    2        AKDO     O4       OC301   -0.360000       15.9994           0
      9190 LPSA9    2        AKDO     C5       CC3161   0.900000E-01   12.0110           0
      9191 LPSA9    2        AKDO     H5       HCA1     0.900000E-01   1.00800           0
      9192 LPSA9    2        AKDO     O5       OC301   -0.360000       15.9994           0
      9193 LPSA9    2        AKDO     C7       CC312    0.140000       12.0110           0
      9194 LPSA9    2        AKDO     H7       HCA1     0.900000E-01   1.00800           0
      9195 LPSA9    2        AKDO     O7       OC311   -0.650000       15.9994           0
      9196 LPSA9    2        AKDO     HO7      HCP1     0.420000       1.00800           0
      9197 LPSA9    2        AKDO     C8       CC322    0.500000E-01   12.0110           0
      9198 LPSA9    2        AKDO     H81      HCA2     0.900000E-01   1.00800           0
      9199 LPSA9    2        AKDO     H82      HCA2     0.900000E-01   1.00800           0
      9200 LPSA9    2        AKDO     O8       OC311   -0.650000       15.9994           0
      9201 LPSA9    2        AKDO     HO8      HCP1     0.420000       1.00800           0
      9202 LPSA9    3        AKDO     C1       CC2O2    0.300000       12.0110           0
      9203 LPSA9    3        AKDO     O11      OC2D2   -0.600000       15.9994           0
      9204 LPSA9    3        AKDO     O12      OC2D2   -0.600000       15.9994           0
      9205 LPSA9    3        AKDO     C2       CC3062   0.280000       12.0110           0
      9206 LPSA9    3        AKDO     C6       CC3163   0.110000       12.0110           0
      9207 LPSA9    3        AKDO     H6       HCA1     0.900000E-01   1.00800           0
      9208 LPSA9    3        AKDO     O6       OC3C61  -0.400000       15.9994           0
      9209 LPSA9    3        AKDO     C3       CC3261  -0.180000       12.0110           0
      9210 LPSA9    3        AKDO     H31      HCA2     0.900000E-01   1.00800           0
      9211 LPSA9    3        AKDO     H32      HCA2     0.900000E-01   1.00800           0
      9212 LPSA9    3        AKDO     C4       CC3161   0.140000       12.0110           0
      9213 LPSA9    3        AKDO     H4       HCA1     0.900000E-01   1.00800           0
      9214 LPSA9    3        AKDO     O4       OC311   -0.650000       15.9994           0
      9215 LPSA9    3        AKDO     HO4      HCP1     0.420000       1.00800           0
      9216 LPSA9    3        AKDO     C5       CC3161   0.140000       12.0110           0
      9217 LPSA9    3        AKDO     H5       HCA1     0.900000E-01   1.00800           0
      9218 LPSA9    3        AKDO     O5       OC311   -0.650000       15.9994           0
      9219 LPSA9    3        AKDO     HO5      HCP1     0.420000       1.00800           0
      9220 LPSA9    3        AKDO     C7       CC312    0.140000       12.0110           0
      9221 LPSA9    3        AKDO     H7       HCA1     0.900000E-01   1.00800           0
      9222 LPSA9    3        AKDO     O7       OC311   -0.650000       15.9994           0
      9223 LPSA9    3        AKDO     HO7      HCP1     0.420000       1.00800           0
      9224 LPSA9    3        AKDO     C8       CC322    0.500000E-01   12.0110           0
      9225 LPSA9    3        AKDO     H81      HCA2     0.900000E-01   1.00800           0
      9226 LPSA9    3        AKDO     H82      HCA2     0.900000E-01   1.00800           0
      9227 LPSA9    3        AKDO     O8       OC311   -0.650000       15.9994           0
      9228 LPSA9    3        AKDO     HO8      HCP1     0.420000       1.00800           0
      9229 LPSA9    4        AHEP     C1       CC3162   0.290000       12.0110           0
      9230 LPSA9    4        AHEP     H1       HCA1     0.900000E-01   1.00800           0
      9231 LPSA9    4        AHEP     C5       CC3163   0.110000       12.0110           0
      9232 LPSA9    4        AHEP     H5       HCA1     0.900000E-01   1.00800           0
      9233 LPSA9    4        AHEP     O5       OC3C61  -0.400000       15.9994           0
      9234 LPSA9    4        AHEP     C2       CC3161   0.140000       12.0110           0
      9235 LPSA9    4        AHEP     H2       HCA1     0.900000E-01   1.00800           0
      9236 LPSA9    4        AHEP     O2       OC311   -0.650000       15.9994           0
      9237 LPSA9    4        AHEP     HO2      HCP1     0.420000       1.00800           0
      9238 LPSA9    4        AHEP     C3       CC3161   0.900000E-01   12.0110           0
      9239 LPSA9    4        AHEP     H3       HCA1     0.900000E-01   1.00800           0
      9240 LPSA9    4        AHEP     O3       OC301   -0.360000       15.9994           0
      9241 LPSA9    4        AHEP     C4       CC3161  -0.900000E-01   12.0110           0
      9242 LPSA9    4        AHEP     H4       HCA1     0.900000E-01   1.00800           0
      9243 LPSA9    4        AHEP     O4       OC30P   -0.400000       15.9994           0
      9244 LPSA9    4        AHEP     P4       PC        1.10000       30.9740           0
      9245 LPSA9    4        AHEP     OP42     OC2DP   -0.900000       15.9994           0
      9246 LPSA9    4        AHEP     OP43     OC2DP   -0.900000       15.9994           0
      9247 LPSA9    4        AHEP     OP44     OC2DP   -0.900000       15.9994           0
      9248 LPSA9    4        AHEP     C6       CC312    0.140000       12.0110           0
      9249 LPSA9    4        AHEP     H6       HCA1     0.900000E-01   1.00800           0
      9250 LPSA9    4        AHEP     O6       OC311   -0.650000       15.9994           0
      9251 LPSA9    4        AHEP     HO6      HCP1     0.420000       1.00800           0
      9252 LPSA9    4        AHEP     C7       CC322    0.500000E-01   12.0110           0
      9253 LPSA9    4        AHEP     H71      HCA2     0.900000E-01   1.00800           0
      9254 LPSA9    4        AHEP     H72      HCA2     0.900000E-01   1.00800           0
      9255 LPSA9    4        AHEP     O7       OC311   -0.650000       15.9994           0
      9256 LPSA9    4        AHEP     HO7      HCP1     0.420000       1.00800           0
      9257 LPSA9    5        AHEP     C1       CC3162   0.290000       12.0110           0
      9258 LPSA9    5        AHEP     H1       HCA1     0.900000E-01   1.00800           0
      9259 LPSA9    5        AHEP     C5       CC3163   0.110000       12.0110           0
      9260 LPSA9    5        AHEP     H5       HCA1     0.900000E-01   1.00800           0
      9261 LPSA9    5        AHEP     O5       OC3C61  -0.400000       15.9994           0
      9262 LPSA9    5        AHEP     C2       CC3161   0.140000       12.0110           0
      9263 LPSA9    5        AHEP     H2       HCA1     0.900000E-01   1.00800           0
      9264 LPSA9    5        AHEP     O2       OC311   -0.650000       15.9994           0
      9265 LPSA9    5        AHEP     HO2      HCP1     0.420000       1.00800           0
      9266 LPSA9    5        AHEP     C3       CC3161   0.900000E-01   12.0110           0
      9267 LPSA9    5        AHEP     H3       HCA1     0.900000E-01   1.00800           0
      9268 LPSA9    5        AHEP     O3       OC301   -0.360000       15.9994           0
      9269 LPSA9    5        AHEP     C4       CC3161  -0.900000E-01   12.0110           0
      9270 LPSA9    5        AHEP     H4       HCA1     0.900000E-01   1.00800           0
      9271 LPSA9    5        AHEP     O4       OC30P   -0.400000       15.9994           0
      9272 LPSA9    5        AHEP     P4       PC        1.10000       30.9740           0
      9273 LPSA9    5        AHEP     OP42     OC2DP   -0.900000       15.9994           0
      9274 LPSA9    5        AHEP     OP43     OC2DP   -0.900000       15.9994           0
      9275 LPSA9    5        AHEP     OP44     OC2DP   -0.900000       15.9994           0
      9276 LPSA9    5        AHEP     C6       CC312    0.140000       12.0110           0
      9277 LPSA9    5        AHEP     H6       HCA1     0.900000E-01   1.00800           0
      9278 LPSA9    5        AHEP     O6       OC311   -0.650000       15.9994           0
      9279 LPSA9    5        AHEP     HO6      HCP1     0.420000       1.00800           0
      9280 LPSA9    5        AHEP     C7       CC322     0.00000       12.0110           0
      9281 LPSA9    5        AHEP     H71      HCA2     0.900000E-01   1.00800           0
      9282 LPSA9    5        AHEP     H72      HCA2     0.900000E-01   1.00800           0
      9283 LPSA9    5        AHEP     O7       OC301   -0.360000       15.9994           0
      9284 LPSA9    6        AHEP     C1       CC3162   0.290000       12.0110           0
      9285 LPSA9    6        AHEP     H1       HCA1     0.900000E-01   1.00800           0
      9286 LPSA9    6        AHEP     C5       CC3163   0.110000       12.0110           0
      9287 LPSA9    6        AHEP     H5       HCA1     0.900000E-01   1.00800           0
      9288 LPSA9    6        AHEP     O5       OC3C61  -0.400000       15.9994           0
      9289 LPSA9    6        AHEP     C2       CC3161   0.140000       12.0110           0
      9290 LPSA9    6        AHEP     H2       HCA1     0.900000E-01   1.00800           0
      9291 LPSA9    6        AHEP     O2       OC311   -0.650000       15.9994           0
      9292 LPSA9    6        AHEP     HO2      HCP1     0.420000       1.00800           0
      9293 LPSA9    6        AHEP     C3       CC3161   0.140000       12.0110           0
      9294 LPSA9    6        AHEP     H3       HCA1     0.900000E-01   1.00800           0
      9295 LPSA9    6        AHEP     O3       OC311   -0.650000       15.9994           0
      9296 LPSA9    6        AHEP     HO3      HCP1     0.420000       1.00800           0
      9297 LPSA9    6        AHEP     C4       CC3161   0.140000       12.0110           0
      9298 LPSA9    6        AHEP     H4       HCA1     0.900000E-01   1.00800           0
      9299 LPSA9    6        AHEP     O4       OC311   -0.650000       15.9994           0
      9300 LPSA9    6        AHEP     HO4      HCP1     0.420000       1.00800           0
      9301 LPSA9    6        AHEP     C6       CC312    0.140000       12.0110           0
      9302 LPSA9    6        AHEP     H6       HCA1     0.900000E-01   1.00800           0
      9303 LPSA9    6        AHEP     O6       OC311   -0.650000       15.9994           0
      9304 LPSA9    6        AHEP     HO6      HCP1     0.420000       1.00800           0
      9305 LPSA9    6        AHEP     C7       CC322    0.500000E-01   12.0110           0
      9306 LPSA9    6        AHEP     H71      HCA2     0.900000E-01   1.00800           0
      9307 LPSA9    6        AHEP     H72      HCA2     0.900000E-01   1.00800           0
      9308 LPSA9    6        AHEP     O7       OC311   -0.650000       15.9994           0
      9309 LPSA9    6        AHEP     HO7      HCP1     0.420000       1.00800           0
      9310 LPSA9    7        AGLC     C1       CC3162   0.290000       12.0110           0
      9311 LPSA9    7        AGLC     H1       HCA1     0.900000E-01   1.00800           0
      9312 LPSA9    7        AGLC     C5       CC3163   0.110000       12.0110           0
      9313 LPSA9    7        AGLC     H5       HCA1     0.900000E-01   1.00800           0
      9314 LPSA9    7        AGLC     O5       OC3C61  -0.400000       15.9994           0
      9315 LPSA9    7        AGLC     C2       CC3161   0.140000       12.0110           0
      9316 LPSA9    7        AGLC     H2       HCA1     0.900000E-01   1.00800           0
      9317 LPSA9    7        AGLC     O2       OC311   -0.650000       15.9994           0
      9318 LPSA9    7        AGLC     HO2      HCP1     0.420000       1.00800           0
      9319 LPSA9    7        AGLC     C3       CC3161   0.900000E-01   12.0110           0
      9320 LPSA9    7        AGLC     H3       HCA1     0.900000E-01   1.00800           0
      9321 LPSA9    7        AGLC     O3       OC301   -0.360000       15.9994           0
      9322 LPSA9    7        AGLC     C4       CC3161   0.140000       12.0110           0
      9323 LPSA9    7        AGLC     H4       HCA1     0.900000E-01   1.00800           0
      9324 LPSA9    7        AGLC     O4       OC311   -0.650000       15.9994           0
      9325 LPSA9    7        AGLC     HO4      HCP1     0.420000       1.00800           0
      9326 LPSA9    7        AGLC     C6       CC321    0.500000E-01   12.0110           0
      9327 LPSA9    7        AGLC     H61      HCA2     0.900000E-01   1.00800           0
      9328 LPSA9    7        AGLC     H62      HCA2     0.900000E-01   1.00800           0
      9329 LPSA9    7        AGLC     O6       OC311   -0.650000       15.9994           0
      9330 LPSA9    7        AGLC     HO6      HCP1     0.420000       1.00800           0
      9331 LPSA9    8        AGLC     C1       CC3162   0.290000       12.0110           0
      9332 LPSA9    8        AGLC     H1       HCA1     0.900000E-01   1.00800           0
      9333 LPSA9    8        AGLC     C5       CC3163   0.110000       12.0110           0
      9334 LPSA9    8        AGLC     H5       HCA1     0.900000E-01   1.00800           0
      9335 LPSA9    8        AGLC     O5       OC3C61  -0.400000       15.9994           0
      9336 LPSA9    8        AGLC     C2       CC3161   0.900000E-01   12.0110           0
      9337 LPSA9    8        AGLC     H2       HCA1     0.900000E-01   1.00800           0
      9338 LPSA9    8        AGLC     O2       OC301   -0.360000       15.9994           0
      9339 LPSA9    8        AGLC     C3       CC3161   0.900000E-01   12.0110           0
      9340 LPSA9    8        AGLC     H3       HCA1     0.900000E-01   1.00800           0
      9341 LPSA9    8        AGLC     O3       OC301   -0.360000       15.9994           0
      9342 LPSA9    8        AGLC     C4       CC3161   0.140000       12.0110           0
      9343 LPSA9    8        AGLC     H4       HCA1     0.900000E-01   1.00800           0
      9344 LPSA9    8        AGLC     O4       OC311   -0.650000       15.9994           0
      9345 LPSA9    8        AGLC     HO4      HCP1     0.420000       1.00800           0
      9346 LPSA9    8        AGLC     C6       CC321    0.500000E-01   12.0110           0
      9347 LPSA9    8        AGLC     H61      HCA2     0.900000E-01   1.00800           0
      9348 LPSA9    8        AGLC     H62      HCA2     0.900000E-01   1.00800           0
      9349 LPSA9    8        AGLC     O6       OC311   -0.650000       15.9994           0
      9350 LPSA9    8        AGLC     HO6      HCP1     0.420000       1.00800           0
      9351 LPSA9    9        AGAL     C1       CC3162   0.290000       12.0110           0
      9352 LPSA9    9        AGAL     H1       HCA1     0.900000E-01   1.00800           0
      9353 LPSA9    9        AGAL     C5       CC3163   0.110000       12.0110           0
      9354 LPSA9    9        AGAL     H5       HCA1     0.900000E-01   1.00800           0
      9355 LPSA9    9        AGAL     O5       OC3C61  -0.400000       15.9994           0
      9356 LPSA9    9        AGAL     C2       CC3161   0.900000E-01   12.0110           0
      9357 LPSA9    9        AGAL     H2       HCA1     0.900000E-01   1.00800           0
      9358 LPSA9    9        AGAL     O2       OC301   -0.360000       15.9994           0
      9359 LPSA9    9        AGAL     C3       CC3161   0.140000       12.0110           0
      9360 LPSA9    9        AGAL     H3       HCA1     0.900000E-01   1.00800           0
      9361 LPSA9    9        AGAL     O3       OC311   -0.650000       15.9994           0
      9362 LPSA9    9        AGAL     HO3      HCP1     0.420000       1.00800           0
      9363 LPSA9    9        AGAL     C4       CC3161   0.140000       12.0110           0
      9364 LPSA9    9        AGAL     H4       HCA1     0.900000E-01   1.00800           0
      9365 LPSA9    9        AGAL     O4       OC311   -0.650000       15.9994           0
      9366 LPSA9    9        AGAL     HO4      HCP1     0.420000       1.00800           0
      9367 LPSA9    9        AGAL     C6       CC321    0.500000E-01   12.0110           0
      9368 LPSA9    9        AGAL     H61      HCA2     0.900000E-01   1.00800           0
      9369 LPSA9    9        AGAL     H62      HCA2     0.900000E-01   1.00800           0
      9370 LPSA9    9        AGAL     O6       OC311   -0.650000       15.9994           0
      9371 LPSA9    9        AGAL     HO6      HCP1     0.420000       1.00800           0
      9372 LPSA9    10       AGAL     C1       CC3162   0.290000       12.0110           0
      9373 LPSA9    10       AGAL     H1       HCA1     0.900000E-01   1.00800           0
      9374 LPSA9    10       AGAL     C5       CC3163   0.110000       12.0110           0
      9375 LPSA9    10       AGAL     H5       HCA1     0.900000E-01   1.00800           0
      9376 LPSA9    10       AGAL     O5       OC3C61  -0.400000       15.9994           0
      9377 LPSA9    10       AGAL     C2       CC3161   0.140000       12.0110           0
      9378 LPSA9    10       AGAL     H2       HCA1     0.900000E-01   1.00800           0
      9379 LPSA9    10       AGAL     O2       OC311   -0.650000       15.9994           0
      9380 LPSA9    10       AGAL     HO2      HCP1     0.420000       1.00800           0
      9381 LPSA9    10       AGAL     C3       CC3161   0.140000       12.0110           0
      9382 LPSA9    10       AGAL     H3       HCA1     0.900000E-01   1.00800           0
      9383 LPSA9    10       AGAL     O3       OC311   -0.650000       15.9994           0
      9384 LPSA9    10       AGAL     HO3      HCP1     0.420000       1.00800           0
      9385 LPSA9    10       AGAL     C4       CC3161   0.140000       12.0110           0
      9386 LPSA9    10       AGAL     H4       HCA1     0.900000E-01   1.00800           0
      9387 LPSA9    10       AGAL     O4       OC311   -0.650000       15.9994           0
      9388 LPSA9    10       AGAL     HO4      HCP1     0.420000       1.00800           0
      9389 LPSA9    10       AGAL     C6       CC321    0.500000E-01   12.0110           0
      9390 LPSA9    10       AGAL     H61      HCA2     0.900000E-01   1.00800           0
      9391 LPSA9    10       AGAL     H62      HCA2     0.900000E-01   1.00800           0
      9392 LPSA9    10       AGAL     O6       OC311   -0.650000       15.9994           0
      9393 LPSA9    10       AGAL     HO6      HCP1     0.420000       1.00800           0
      9394 LPSA9    11       BGLC     C1       CC3162   0.290000       12.0110           0
      9395 LPSA9    11       BGLC     H1       HCA1     0.900000E-01   1.00800           0
      9396 LPSA9    11       BGLC     C5       CC3163   0.110000       12.0110           0
      9397 LPSA9    11       BGLC     H5       HCA1     0.900000E-01   1.00800           0
      9398 LPSA9    11       BGLC     O5       OC3C61  -0.400000       15.9994           0
      9399 LPSA9    11       BGLC     C2       CC3161   0.140000       12.0110           0
      9400 LPSA9    11       BGLC     H2       HCA1     0.900000E-01   1.00800           0
      9401 LPSA9    11       BGLC     O2       OC311   -0.650000       15.9994           0
      9402 LPSA9    11       BGLC     HO2      HCP1     0.420000       1.00800           0
      9403 LPSA9    11       BGLC     C3       CC3161   0.900000E-01   12.0110           0
      9404 LPSA9    11       BGLC     H3       HCA1     0.900000E-01   1.00800           0
      9405 LPSA9    11       BGLC     O3       OC301   -0.360000       15.9994           0
      9406 LPSA9    11       BGLC     C4       CC3161   0.140000       12.0110           0
      9407 LPSA9    11       BGLC     H4       HCA1     0.900000E-01   1.00800           0
      9408 LPSA9    11       BGLC     O4       OC311   -0.650000       15.9994           0
      9409 LPSA9    11       BGLC     HO4      HCP1     0.420000       1.00800           0
      9410 LPSA9    11       BGLC     C6       CC321    0.500000E-01   12.0110           0
      9411 LPSA9    11       BGLC     H61      HCA2     0.900000E-01   1.00800           0
      9412 LPSA9    11       BGLC     H62      HCA2     0.900000E-01   1.00800           0
      9413 LPSA9    11       BGLC     O6       OC311   -0.650000       15.9994           0
      9414 LPSA9    11       BGLC     HO6      HCP1     0.420000       1.00800           0
      9415 LPSA9    12       BGLCNA   C1       CC3162   0.290000       12.0110           0
      9416 LPSA9    12       BGLCNA   H1       HCA1     0.900000E-01   1.00800           0
      9417 LPSA9    12       BGLCNA   C5       CC3163   0.110000       12.0110           0
      9418 LPSA9    12       BGLCNA   H5       HCA1     0.900000E-01   1.00800           0
      9419 LPSA9    12       BGLCNA   O5       OC3C61  -0.400000       15.9994           0
      9420 LPSA9    12       BGLCNA   C2       CC3161   0.700000E-01   12.0110           0
      9421 LPSA9    12       BGLCNA   H2       HCA1     0.900000E-01   1.00800           0
      9422 LPSA9    12       BGLCNA   N        NC2D1   -0.470000       14.0070           0
      9423 LPSA9    12       BGLCNA   HN       HCP1     0.310000       1.00800           0
      9424 LPSA9    12       BGLCNA   C        CC2O1    0.510000       12.0110           0
      9425 LPSA9    12       BGLCNA   O        OC2D1   -0.510000       15.9994           0
      9426 LPSA9    12       BGLCNA   CT       CC331   -0.270000       12.0110           0
      9427 LPSA9    12       BGLCNA   HT1      HCA3     0.900000E-01   1.00800           0
      9428 LPSA9    12       BGLCNA   HT2      HCA3     0.900000E-01   1.00800           0
      9429 LPSA9    12       BGLCNA   HT3      HCA3     0.900000E-01   1.00800           0
      9430 LPSA9    12       BGLCNA   C3       CC3161   0.900000E-01   12.0110           0
      9431 LPSA9    12       BGLCNA   H3       HCA1     0.900000E-01   1.00800           0
      9432 LPSA9    12       BGLCNA   O3       OC301   -0.360000       15.9994           0
      9433 LPSA9    12       BGLCNA   C4       CC3161   0.140000       12.0110           0
      9434 LPSA9    12       BGLCNA   H4       HCA1     0.900000E-01   1.00800           0
      9435 LPSA9    12       BGLCNA   O4       OC311   -0.650000       15.9994           0
      9436 LPSA9    12       BGLCNA   HO4      HCP1     0.420000       1.00800           0
      9437 LPSA9    12       BGLCNA   C6       CC321    0.500000E-01   12.0110           0
      9438 LPSA9    12       BGLCNA   H61      HCA2     0.900000E-01   1.00800           0
      9439 LPSA9    12       BGLCNA   H62      HCA2     0.900000E-01   1.00800           0
      9440 LPSA9    12       BGLCNA   O6       OC311   -0.650000       15.9994           0
      9441 LPSA9    12       BGLCNA   HO6      HCP1     0.420000       1.00800           0
      9442 LPSA9    13       AGAL     C1       CC3162   0.290000       12.0110           0
      9443 LPSA9    13       AGAL     H1       HCA1     0.900000E-01   1.00800           0
      9444 LPSA9    13       AGAL     C5       CC3163   0.110000       12.0110           0
      9445 LPSA9    13       AGAL     H5       HCA1     0.900000E-01   1.00800           0
      9446 LPSA9    13       AGAL     O5       OC3C61  -0.400000       15.9994           0
      9447 LPSA9    13       AGAL     C2       CC3161   0.900000E-01   12.0110           0
      9448 LPSA9    13       AGAL     H2       HCA1     0.900000E-01   1.00800           0
      9449 LPSA9    13       AGAL     O2       OC301   -0.360000       15.9994           0
      9450 LPSA9    13       AGAL     C3       CC3161   0.140000       12.0110           0
      9451 LPSA9    13       AGAL     H3       HCA1     0.900000E-01   1.00800           0
      9452 LPSA9    13       AGAL     O3       OC311   -0.650000       15.9994           0
      9453 LPSA9    13       AGAL     HO3      HCP1     0.420000       1.00800           0
      9454 LPSA9    13       AGAL     C4       CC3161   0.140000       12.0110           0
      9455 LPSA9    13       AGAL     H4       HCA1     0.900000E-01   1.00800           0
      9456 LPSA9    13       AGAL     O4       OC311   -0.650000       15.9994           0
      9457 LPSA9    13       AGAL     HO4      HCP1     0.420000       1.00800           0
      9458 LPSA9    13       AGAL     C6       CC321    0.500000E-01   12.0110           0
      9459 LPSA9    13       AGAL     H61      HCA2     0.900000E-01   1.00800           0
      9460 LPSA9    13       AGAL     H62      HCA2     0.900000E-01   1.00800           0
      9461 LPSA9    13       AGAL     O6       OC311   -0.650000       15.9994           0
      9462 LPSA9    13       AGAL     HO6      HCP1     0.420000       1.00800           0
      9463 LPSA9    14       ARHM     C1       CC3162   0.290000       12.0110           0
      9464 LPSA9    14       ARHM     H1       HCA1     0.900000E-01   1.00800           0
      9465 LPSA9    14       ARHM     C5       CC3163   0.110000       12.0110           0
      9466 LPSA9    14       ARHM     H5       HCA1     0.900000E-01   1.00800           0
      9467 LPSA9    14       ARHM     O5       OC3C61  -0.400000       15.9994           0
      9468 LPSA9    14       ARHM     C2       CC3161   0.900000E-01   12.0110           0
      9469 LPSA9    14       ARHM     H2       HCA1     0.900000E-01   1.00800           0
      9470 LPSA9    14       ARHM     O2       OC301   -0.360000       15.9994           0
      9471 LPSA9    14       ARHM     C3       CC3161   0.140000       12.0110           0
      9472 LPSA9    14       ARHM     H3       HCA1     0.900000E-01   1.00800           0
      9473 LPSA9    14       ARHM     O3       OC311   -0.650000       15.9994           0
      9474 LPSA9    14       ARHM     HO3      HCP1     0.420000       1.00800           0
      9475 LPSA9    14       ARHM     C4       CC3161   0.140000       12.0110           0
      9476 LPSA9    14       ARHM     H4       HCA1     0.900000E-01   1.00800           0
      9477 LPSA9    14       ARHM     O4       OC311   -0.650000       15.9994           0
      9478 LPSA9    14       ARHM     HO4      HCP1     0.420000       1.00800           0
      9479 LPSA9    14       ARHM     C6       CC331   -0.270000       12.0110           0
      9480 LPSA9    14       ARHM     H61      HCA3     0.900000E-01   1.00800           0
      9481 LPSA9    14       ARHM     H62      HCA3     0.900000E-01   1.00800           0
      9482 LPSA9    14       ARHM     H63      HCA3     0.900000E-01   1.00800           0
      9483 LPSA9    15       ARHM     C1       CC3162   0.290000       12.0110           0
      9484 LPSA9    15       ARHM     H1       HCA1     0.900000E-01   1.00800           0
      9485 LPSA9    15       ARHM     C5       CC3163   0.110000       12.0110           0
      9486 LPSA9    15       ARHM     H5       HCA1     0.900000E-01   1.00800           0
      9487 LPSA9    15       ARHM     O5       OC3C61  -0.400000       15.9994           0
      9488 LPSA9    15       ARHM     C2       CC3161   0.900000E-01   12.0110           0
      9489 LPSA9    15       ARHM     H2       HCA1     0.900000E-01   1.00800           0
      9490 LPSA9    15       ARHM     O2       OC301   -0.360000       15.9994           0
      9491 LPSA9    15       ARHM     C3       CC3161   0.900000E-01   12.0110           0
      9492 LPSA9    15       ARHM     H3       HCA1     0.900000E-01   1.00800           0
      9493 LPSA9    15       ARHM     O3       OC301   -0.360000       15.9994           0
      9494 LPSA9    15       ARHM     C4       CC3161   0.140000       12.0110           0
      9495 LPSA9    15       ARHM     H4       HCA1     0.900000E-01   1.00800           0
      9496 LPSA9    15       ARHM     O4       OC311   -0.650000       15.9994           0
      9497 LPSA9    15       ARHM     HO4      HCP1     0.420000       1.00800           0
      9498 LPSA9    15       ARHM     C6       CC331   -0.270000       12.0110           0
      9499 LPSA9    15       ARHM     H61      HCA3     0.900000E-01   1.00800           0
      9500 LPSA9    15       ARHM     H62      HCA3     0.900000E-01   1.00800           0
      9501 LPSA9    15       ARHM     H63      HCA3     0.900000E-01   1.00800           0
      9502 LPSA9    16       BMANNA   C1       CC3162   0.290000       12.0110           0
      9503 LPSA9    16       BMANNA   H1       HCA1     0.900000E-01   1.00800           0
      9504 LPSA9    16       BMANNA   C5       CC3163   0.110000       12.0110           0
      9505 LPSA9    16       BMANNA   H5       HCA1     0.900000E-01   1.00800           0
      9506 LPSA9    16       BMANNA   O5       OC3C61  -0.400000       15.9994           0
      9507 LPSA9    16       BMANNA   C2       CC3161   0.700000E-01   12.0110           0
      9508 LPSA9    16       BMANNA   H2       HCA1     0.900000E-01   1.00800           0
      9509 LPSA9    16       BMANNA   N        NC2D1   -0.470000       14.0070           0
      9510 LPSA9    16       BMANNA   HN       HCP1     0.310000       1.00800           0
      9511 LPSA9    16       BMANNA   C        CC2O1    0.510000       12.0110           0
      9512 LPSA9    16       BMANNA   O        OC2D1   -0.510000       15.9994           0
      9513 LPSA9    16       BMANNA   CT       CC331   -0.270000       12.0110           0
      9514 LPSA9    16       BMANNA   HT1      HCA3     0.900000E-01   1.00800           0
      9515 LPSA9    16       BMANNA   HT2      HCA3     0.900000E-01   1.00800           0
      9516 LPSA9    16       BMANNA   HT3      HCA3     0.900000E-01   1.00800           0
      9517 LPSA9    16       BMANNA   C3       CC3161   0.140000       12.0110           0
      9518 LPSA9    16       BMANNA   H3       HCA1     0.900000E-01   1.00800           0
      9519 LPSA9    16       BMANNA   O3       OC311   -0.650000       15.9994           0
      9520 LPSA9    16       BMANNA   HO3      HCP1     0.420000       1.00800           0
      9521 LPSA9    16       BMANNA   C4       CC3161   0.140000       12.0110           0
      9522 LPSA9    16       BMANNA   H4       HCA1     0.900000E-01   1.00800           0
      9523 LPSA9    16       BMANNA   O4       OC311   -0.650000       15.9994           0
      9524 LPSA9    16       BMANNA   HO4      HCP1     0.420000       1.00800           0
      9525 LPSA9    16       BMANNA   C6       CC321    0.500000E-01   12.0110           0
      9526 LPSA9    16       BMANNA   H61      HCA2     0.900000E-01   1.00800           0
      9527 LPSA9    16       BMANNA   H62      HCA2     0.900000E-01   1.00800           0
      9528 LPSA9    16       BMANNA   O6       OC311   -0.650000       15.9994           0
      9529 LPSA9    16       BMANNA   HO6      HCP1     0.420000       1.00800           0
      9530 LPSA9    17       BGLCNA   C1       CC3162   0.290000       12.0110           0
      9531 LPSA9    17       BGLCNA   H1       HCA1     0.900000E-01   1.00800           0
      9532 LPSA9    17       BGLCNA   C5       CC3163   0.110000       12.0110           0
      9533 LPSA9    17       BGLCNA   H5       HCA1     0.900000E-01   1.00800           0
      9534 LPSA9    17       BGLCNA   O5       OC3C61  -0.400000       15.9994           0
      9535 LPSA9    17       BGLCNA   C2       CC3161   0.700000E-01   12.0110           0
      9536 LPSA9    17       BGLCNA   H2       HCA1     0.900000E-01   1.00800           0
      9537 LPSA9    17       BGLCNA   N        NC2D1   -0.470000       14.0070           0
      9538 LPSA9    17       BGLCNA   HN       HCP1     0.310000       1.00800           0
      9539 LPSA9    17       BGLCNA   C        CC2O1    0.510000       12.0110           0
      9540 LPSA9    17       BGLCNA   O        OC2D1   -0.510000       15.9994           0
      9541 LPSA9    17       BGLCNA   CT       CC331   -0.270000       12.0110           0
      9542 LPSA9    17       BGLCNA   HT1      HCA3     0.900000E-01   1.00800           0
      9543 LPSA9    17       BGLCNA   HT2      HCA3     0.900000E-01   1.00800           0
      9544 LPSA9    17       BGLCNA   HT3      HCA3     0.900000E-01   1.00800           0
      9545 LPSA9    17       BGLCNA   C3       CC3161   0.900000E-01   12.0110           0
      9546 LPSA9    17       BGLCNA   H3       HCA1     0.900000E-01   1.00800           0
      9547 LPSA9    17       BGLCNA   O3       OC301   -0.360000       15.9994           0
      9548 LPSA9    17       BGLCNA   C4       CC3161   0.140000       12.0110           0
      9549 LPSA9    17       BGLCNA   H4       HCA1     0.900000E-01   1.00800           0
      9550 LPSA9    17       BGLCNA   O4       OC311   -0.650000       15.9994           0
      9551 LPSA9    17       BGLCNA   HO4      HCP1     0.420000       1.00800           0
      9552 LPSA9    17       BGLCNA   C6       CC321    0.500000E-01   12.0110           0
      9553 LPSA9    17       BGLCNA   H61      HCA2     0.900000E-01   1.00800           0
      9554 LPSA9    17       BGLCNA   H62      HCA2     0.900000E-01   1.00800           0
      9555 LPSA9    17       BGLCNA   O6       OC311   -0.650000       15.9994           0
      9556 LPSA9    17       BGLCNA   HO6      HCP1     0.420000       1.00800           0
      9557 LPSA9    18       AGAL     C1       CC3162   0.290000       12.0110           0
      9558 LPSA9    18       AGAL     H1       HCA1     0.900000E-01   1.00800           0
      9559 LPSA9    18       AGAL     C5       CC3163   0.110000       12.0110           0
      9560 LPSA9    18       AGAL     H5       HCA1     0.900000E-01   1.00800           0
      9561 LPSA9    18       AGAL     O5       OC3C61  -0.400000       15.9994           0
      9562 LPSA9    18       AGAL     C2       CC3161   0.900000E-01   12.0110           0
      9563 LPSA9    18       AGAL     H2       HCA1     0.900000E-01   1.00800           0
      9564 LPSA9    18       AGAL     O2       OC301   -0.360000       15.9994           0
      9565 LPSA9    18       AGAL     C3       CC3161   0.140000       12.0110           0
      9566 LPSA9    18       AGAL     H3       HCA1     0.900000E-01   1.00800           0
      9567 LPSA9    18       AGAL     O3       OC311   -0.650000       15.9994           0
      9568 LPSA9    18       AGAL     HO3      HCP1     0.420000       1.00800           0
      9569 LPSA9    18       AGAL     C4       CC3161   0.140000       12.0110           0
      9570 LPSA9    18       AGAL     H4       HCA1     0.900000E-01   1.00800           0
      9571 LPSA9    18       AGAL     O4       OC311   -0.650000       15.9994           0
      9572 LPSA9    18       AGAL     HO4      HCP1     0.420000       1.00800           0
      9573 LPSA9    18       AGAL     C6       CC321    0.500000E-01   12.0110           0
      9574 LPSA9    18       AGAL     H61      HCA2     0.900000E-01   1.00800           0
      9575 LPSA9    18       AGAL     H62      HCA2     0.900000E-01   1.00800           0
      9576 LPSA9    18       AGAL     O6       OC311   -0.650000       15.9994           0
      9577 LPSA9    18       AGAL     HO6      HCP1     0.420000       1.00800           0
      9578 LPSA9    19       ARHM     C1       CC3162   0.290000       12.0110           0
      9579 LPSA9    19       ARHM     H1       HCA1     0.900000E-01   1.00800           0
      9580 LPSA9    19       ARHM     C5       CC3163   0.110000       12.0110           0
      9581 LPSA9    19       ARHM     H5       HCA1     0.900000E-01   1.00800           0
      9582 LPSA9    19       ARHM     O5       OC3C61  -0.400000       15.9994           0
      9583 LPSA9    19       ARHM     C2       CC3161   0.900000E-01   12.0110           0
      9584 LPSA9    19       ARHM     H2       HCA1     0.900000E-01   1.00800           0
      9585 LPSA9    19       ARHM     O2       OC301   -0.360000       15.9994           0
      9586 LPSA9    19       ARHM     C3       CC3161   0.140000       12.0110           0
      9587 LPSA9    19       ARHM     H3       HCA1     0.900000E-01   1.00800           0
      9588 LPSA9    19       ARHM     O3       OC311   -0.650000       15.9994           0
      9589 LPSA9    19       ARHM     HO3      HCP1     0.420000       1.00800           0
      9590 LPSA9    19       ARHM     C4       CC3161   0.140000       12.0110           0
      9591 LPSA9    19       ARHM     H4       HCA1     0.900000E-01   1.00800           0
      9592 LPSA9    19       ARHM     O4       OC311   -0.650000       15.9994           0
      9593 LPSA9    19       ARHM     HO4      HCP1     0.420000       1.00800           0
      9594 LPSA9    19       ARHM     C6       CC331   -0.270000       12.0110           0
      9595 LPSA9    19       ARHM     H61      HCA3     0.900000E-01   1.00800           0
      9596 LPSA9    19       ARHM     H62      HCA3     0.900000E-01   1.00800           0
      9597 LPSA9    19       ARHM     H63      HCA3     0.900000E-01   1.00800           0
      9598 LPSA9    20       ARHM     C1       CC3162   0.290000       12.0110           0
      9599 LPSA9    20       ARHM     H1       HCA1     0.900000E-01   1.00800           0
      9600 LPSA9    20       ARHM     C5       CC3163   0.110000       12.0110           0
      9601 LPSA9    20       ARHM     H5       HCA1     0.900000E-01   1.00800           0
      9602 LPSA9    20       ARHM     O5       OC3C61  -0.400000       15.9994           0
      9603 LPSA9    20       ARHM     C2       CC3161   0.900000E-01   12.0110           0
      9604 LPSA9    20       ARHM     H2       HCA1     0.900000E-01   1.00800           0
      9605 LPSA9    20       ARHM     O2       OC301   -0.360000       15.9994           0
      9606 LPSA9    20       ARHM     C3       CC3161   0.900000E-01   12.0110           0
      9607 LPSA9    20       ARHM     H3       HCA1     0.900000E-01   1.00800           0
      9608 LPSA9    20       ARHM     O3       OC301   -0.360000       15.9994           0
      9609 LPSA9    20       ARHM     C4       CC3161   0.140000       12.0110           0
      9610 LPSA9    20       ARHM     H4       HCA1     0.900000E-01   1.00800           0
      9611 LPSA9    20       ARHM     O4       OC311   -0.650000       15.9994           0
      9612 LPSA9    20       ARHM     HO4      HCP1     0.420000       1.00800           0
      9613 LPSA9    20       ARHM     C6       CC331   -0.270000       12.0110           0
      9614 LPSA9    20       ARHM     H61      HCA3     0.900000E-01   1.00800           0
      9615 LPSA9    20       ARHM     H62      HCA3     0.900000E-01   1.00800           0
      9616 LPSA9    20       ARHM     H63      HCA3     0.900000E-01   1.00800           0
      9617 LPSA9    21       BMANNA   C1       CC3162   0.290000       12.0110           0
      9618 LPSA9    21       BMANNA   H1       HCA1     0.900000E-01   1.00800           0
      9619 LPSA9    21       BMANNA   C5       CC3163   0.110000       12.0110           0
      9620 LPSA9    21       BMANNA   H5       HCA1     0.900000E-01   1.00800           0
      9621 LPSA9    21       BMANNA   O5       OC3C61  -0.400000       15.9994           0
      9622 LPSA9    21       BMANNA   C2       CC3161   0.700000E-01   12.0110           0
      9623 LPSA9    21       BMANNA   H2       HCA1     0.900000E-01   1.00800           0
      9624 LPSA9    21       BMANNA   N        NC2D1   -0.470000       14.0070           0
      9625 LPSA9    21       BMANNA   HN       HCP1     0.310000       1.00800           0
      9626 LPSA9    21       BMANNA   C        CC2O1    0.510000       12.0110           0
      9627 LPSA9    21       BMANNA   O        OC2D1   -0.510000       15.9994           0
      9628 LPSA9    21       BMANNA   CT       CC331   -0.270000       12.0110           0
      9629 LPSA9    21       BMANNA   HT1      HCA3     0.900000E-01   1.00800           0
      9630 LPSA9    21       BMANNA   HT2      HCA3     0.900000E-01   1.00800           0
      9631 LPSA9    21       BMANNA   HT3      HCA3     0.900000E-01   1.00800           0
      9632 LPSA9    21       BMANNA   C3       CC3161   0.140000       12.0110           0
      9633 LPSA9    21       BMANNA   H3       HCA1     0.900000E-01   1.00800           0
      9634 LPSA9    21       BMANNA   O3       OC311   -0.650000       15.9994           0
      9635 LPSA9    21       BMANNA   HO3      HCP1     0.420000       1.00800           0
      9636 LPSA9    21       BMANNA   C4       CC3161   0.140000       12.0110           0
      9637 LPSA9    21       BMANNA   H4       HCA1     0.900000E-01   1.00800           0
      9638 LPSA9    21       BMANNA   O4       OC311   -0.650000       15.9994           0
      9639 LPSA9    21       BMANNA   HO4      HCP1     0.420000       1.00800           0
      9640 LPSA9    21       BMANNA   C6       CC321    0.500000E-01   12.0110           0
      9641 LPSA9    21       BMANNA   H61      HCA2     0.900000E-01   1.00800           0
      9642 LPSA9    21       BMANNA   H62      HCA2     0.900000E-01   1.00800           0
      9643 LPSA9    21       BMANNA   O6       OC311   -0.650000       15.9994           0
      9644 LPSA9    21       BMANNA   HO6      HCP1     0.420000       1.00800           0
      9645 LPSA9    22       BGLCNA   C1       CC3162   0.290000       12.0110           0
      9646 LPSA9    22       BGLCNA   H1       HCA1     0.900000E-01   1.00800           0
      9647 LPSA9    22       BGLCNA   C5       CC3163   0.110000       12.0110           0
      9648 LPSA9    22       BGLCNA   H5       HCA1     0.900000E-01   1.00800           0
      9649 LPSA9    22       BGLCNA   O5       OC3C61  -0.400000       15.9994           0
      9650 LPSA9    22       BGLCNA   C2       CC3161   0.700000E-01   12.0110           0
      9651 LPSA9    22       BGLCNA   H2       HCA1     0.900000E-01   1.00800           0
      9652 LPSA9    22       BGLCNA   N        NC2D1   -0.470000       14.0070           0
      9653 LPSA9    22       BGLCNA   HN       HCP1     0.310000       1.00800           0
      9654 LPSA9    22       BGLCNA   C        CC2O1    0.510000       12.0110           0
      9655 LPSA9    22       BGLCNA   O        OC2D1   -0.510000       15.9994           0
      9656 LPSA9    22       BGLCNA   CT       CC331   -0.270000       12.0110           0
      9657 LPSA9    22       BGLCNA   HT1      HCA3     0.900000E-01   1.00800           0
      9658 LPSA9    22       BGLCNA   HT2      HCA3     0.900000E-01   1.00800           0
      9659 LPSA9    22       BGLCNA   HT3      HCA3     0.900000E-01   1.00800           0
      9660 LPSA9    22       BGLCNA   C3       CC3161   0.900000E-01   12.0110           0
      9661 LPSA9    22       BGLCNA   H3       HCA1     0.900000E-01   1.00800           0
      9662 LPSA9    22       BGLCNA   O3       OC301   -0.360000       15.9994           0
      9663 LPSA9    22       BGLCNA   C4       CC3161   0.140000       12.0110           0
      9664 LPSA9    22       BGLCNA   H4       HCA1     0.900000E-01   1.00800           0
      9665 LPSA9    22       BGLCNA   O4       OC311   -0.650000       15.9994           0
      9666 LPSA9    22       BGLCNA   HO4      HCP1     0.420000       1.00800           0
      9667 LPSA9    22       BGLCNA   C6       CC321    0.500000E-01   12.0110           0
      9668 LPSA9    22       BGLCNA   H61      HCA2     0.900000E-01   1.00800           0
      9669 LPSA9    22       BGLCNA   H62      HCA2     0.900000E-01   1.00800           0
      9670 LPSA9    22       BGLCNA   O6       OC311   -0.650000       15.9994           0
      9671 LPSA9    22       BGLCNA   HO6      HCP1     0.420000       1.00800           0
      9672 LPSA9    23       AGAL     C1       CC3162   0.290000       12.0110           0
      9673 LPSA9    23       AGAL     H1       HCA1     0.900000E-01   1.00800           0
      9674 LPSA9    23       AGAL     C5       CC3163   0.110000       12.0110           0
      9675 LPSA9    23       AGAL     H5       HCA1     0.900000E-01   1.00800           0
      9676 LPSA9    23       AGAL     O5       OC3C61  -0.400000       15.9994           0
      9677 LPSA9    23       AGAL     C2       CC3161   0.900000E-01   12.0110           0
      9678 LPSA9    23       AGAL     H2       HCA1     0.900000E-01   1.00800           0
      9679 LPSA9    23       AGAL     O2       OC301   -0.360000       15.9994           0
      9680 LPSA9    23       AGAL     C3       CC3161   0.140000       12.0110           0
      9681 LPSA9    23       AGAL     H3       HCA1     0.900000E-01   1.00800           0
      9682 LPSA9    23       AGAL     O3       OC311   -0.650000       15.9994           0
      9683 LPSA9    23       AGAL     HO3      HCP1     0.420000       1.00800           0
      9684 LPSA9    23       AGAL     C4       CC3161   0.140000       12.0110           0
      9685 LPSA9    23       AGAL     H4       HCA1     0.900000E-01   1.00800           0
      9686 LPSA9    23       AGAL     O4       OC311   -0.650000       15.9994           0
      9687 LPSA9    23       AGAL     HO4      HCP1     0.420000       1.00800           0
      9688 LPSA9    23       AGAL     C6       CC321    0.500000E-01   12.0110           0
      9689 LPSA9    23       AGAL     H61      HCA2     0.900000E-01   1.00800           0
      9690 LPSA9    23       AGAL     H62      HCA2     0.900000E-01   1.00800           0
      9691 LPSA9    23       AGAL     O6       OC311   -0.650000       15.9994           0
      9692 LPSA9    23       AGAL     HO6      HCP1     0.420000       1.00800           0
      9693 LPSA9    24       ARHM     C1       CC3162   0.290000       12.0110           0
      9694 LPSA9    24       ARHM     H1       HCA1     0.900000E-01   1.00800           0
      9695 LPSA9    24       ARHM     C5       CC3163   0.110000       12.0110           0
      9696 LPSA9    24       ARHM     H5       HCA1     0.900000E-01   1.00800           0
      9697 LPSA9    24       ARHM     O5       OC3C61  -0.400000       15.9994           0
      9698 LPSA9    24       ARHM     C2       CC3161   0.900000E-01   12.0110           0
      9699 LPSA9    24       ARHM     H2       HCA1     0.900000E-01   1.00800           0
      9700 LPSA9    24       ARHM     O2       OC301   -0.360000       15.9994           0
      9701 LPSA9    24       ARHM     C3       CC3161   0.140000       12.0110           0
      9702 LPSA9    24       ARHM     H3       HCA1     0.900000E-01   1.00800           0
      9703 LPSA9    24       ARHM     O3       OC311   -0.650000       15.9994           0
      9704 LPSA9    24       ARHM     HO3      HCP1     0.420000       1.00800           0
      9705 LPSA9    24       ARHM     C4       CC3161   0.140000       12.0110           0
      9706 LPSA9    24       ARHM     H4       HCA1     0.900000E-01   1.00800           0
      9707 LPSA9    24       ARHM     O4       OC311   -0.650000       15.9994           0
      9708 LPSA9    24       ARHM     HO4      HCP1     0.420000       1.00800           0
      9709 LPSA9    24       ARHM     C6       CC331   -0.270000       12.0110           0
      9710 LPSA9    24       ARHM     H61      HCA3     0.900000E-01   1.00800           0
      9711 LPSA9    24       ARHM     H62      HCA3     0.900000E-01   1.00800           0
      9712 LPSA9    24       ARHM     H63      HCA3     0.900000E-01   1.00800           0
      9713 LPSA9    25       ARHM     C1       CC3162   0.290000       12.0110           0
      9714 LPSA9    25       ARHM     H1       HCA1     0.900000E-01   1.00800           0
      9715 LPSA9    25       ARHM     C5       CC3163   0.110000       12.0110           0
      9716 LPSA9    25       ARHM     H5       HCA1     0.900000E-01   1.00800           0
      9717 LPSA9    25       ARHM     O5       OC3C61  -0.400000       15.9994           0
      9718 LPSA9    25       ARHM     C2       CC3161   0.900000E-01   12.0110           0
      9719 LPSA9    25       ARHM     H2       HCA1     0.900000E-01   1.00800           0
      9720 LPSA9    25       ARHM     O2       OC301   -0.360000       15.9994           0
      9721 LPSA9    25       ARHM     C3       CC3161   0.900000E-01   12.0110           0
      9722 LPSA9    25       ARHM     H3       HCA1     0.900000E-01   1.00800           0
      9723 LPSA9    25       ARHM     O3       OC301   -0.360000       15.9994           0
      9724 LPSA9    25       ARHM     C4       CC3161   0.140000       12.0110           0
      9725 LPSA9    25       ARHM     H4       HCA1     0.900000E-01   1.00800           0
      9726 LPSA9    25       ARHM     O4       OC311   -0.650000       15.9994           0
      9727 LPSA9    25       ARHM     HO4      HCP1     0.420000       1.00800           0
      9728 LPSA9    25       ARHM     C6       CC331   -0.270000       12.0110           0
      9729 LPSA9    25       ARHM     H61      HCA3     0.900000E-01   1.00800           0
      9730 LPSA9    25       ARHM     H62      HCA3     0.900000E-01   1.00800           0
      9731 LPSA9    25       ARHM     H63      HCA3     0.900000E-01   1.00800           0
      9732 LPSA9    26       BMANNA   C1       CC3162   0.290000       12.0110           0
      9733 LPSA9    26       BMANNA   H1       HCA1     0.900000E-01   1.00800           0
      9734 LPSA9    26       BMANNA   C5       CC3163   0.110000       12.0110           0
      9735 LPSA9    26       BMANNA   H5       HCA1     0.900000E-01   1.00800           0
      9736 LPSA9    26       BMANNA   O5       OC3C61  -0.400000       15.9994           0
      9737 LPSA9    26       BMANNA   C2       CC3161   0.700000E-01   12.0110           0
      9738 LPSA9    26       BMANNA   H2       HCA1     0.900000E-01   1.00800           0
      9739 LPSA9    26       BMANNA   N        NC2D1   -0.470000       14.0070           0
      9740 LPSA9    26       BMANNA   HN       HCP1     0.310000       1.00800           0
      9741 LPSA9    26       BMANNA   C        CC2O1    0.510000       12.0110           0
      9742 LPSA9    26       BMANNA   O        OC2D1   -0.510000       15.9994           0
      9743 LPSA9    26       BMANNA   CT       CC331   -0.270000       12.0110           0
      9744 LPSA9    26       BMANNA   HT1      HCA3     0.900000E-01   1.00800           0
      9745 LPSA9    26       BMANNA   HT2      HCA3     0.900000E-01   1.00800           0
      9746 LPSA9    26       BMANNA   HT3      HCA3     0.900000E-01   1.00800           0
      9747 LPSA9    26       BMANNA   C3       CC3161   0.140000       12.0110           0
      9748 LPSA9    26       BMANNA   H3       HCA1     0.900000E-01   1.00800           0
      9749 LPSA9    26       BMANNA   O3       OC311   -0.650000       15.9994           0
      9750 LPSA9    26       BMANNA   HO3      HCP1     0.420000       1.00800           0
      9751 LPSA9    26       BMANNA   C4       CC3161   0.140000       12.0110           0
      9752 LPSA9    26       BMANNA   H4       HCA1     0.900000E-01   1.00800           0
      9753 LPSA9    26       BMANNA   O4       OC311   -0.650000       15.9994           0
      9754 LPSA9    26       BMANNA   HO4      HCP1     0.420000       1.00800           0
      9755 LPSA9    26       BMANNA   C6       CC321    0.500000E-01   12.0110           0
      9756 LPSA9    26       BMANNA   H61      HCA2     0.900000E-01   1.00800           0
      9757 LPSA9    26       BMANNA   H62      HCA2     0.900000E-01   1.00800           0
      9758 LPSA9    26       BMANNA   O6       OC311   -0.650000       15.9994           0
      9759 LPSA9    26       BMANNA   HO6      HCP1     0.420000       1.00800           0
      9760 LPSA9    27       BGLCNA   C1       CC3162   0.290000       12.0110           0
      9761 LPSA9    27       BGLCNA   H1       HCA1     0.900000E-01   1.00800           0
      9762 LPSA9    27       BGLCNA   C5       CC3163   0.110000       12.0110           0
      9763 LPSA9    27       BGLCNA   H5       HCA1     0.900000E-01   1.00800           0
      9764 LPSA9    27       BGLCNA   O5       OC3C61  -0.400000       15.9994           0
      9765 LPSA9    27       BGLCNA   C2       CC3161   0.700000E-01   12.0110           0
      9766 LPSA9    27       BGLCNA   H2       HCA1     0.900000E-01   1.00800           0
      9767 LPSA9    27       BGLCNA   N        NC2D1   -0.470000       14.0070           0
      9768 LPSA9    27       BGLCNA   HN       HCP1     0.310000       1.00800           0
      9769 LPSA9    27       BGLCNA   C        CC2O1    0.510000       12.0110           0
      9770 LPSA9    27       BGLCNA   O        OC2D1   -0.510000       15.9994           0
      9771 LPSA9    27       BGLCNA   CT       CC331   -0.270000       12.0110           0
      9772 LPSA9    27       BGLCNA   HT1      HCA3     0.900000E-01   1.00800           0
      9773 LPSA9    27       BGLCNA   HT2      HCA3     0.900000E-01   1.00800           0
      9774 LPSA9    27       BGLCNA   HT3      HCA3     0.900000E-01   1.00800           0
      9775 LPSA9    27       BGLCNA   C3       CC3161   0.900000E-01   12.0110           0
      9776 LPSA9    27       BGLCNA   H3       HCA1     0.900000E-01   1.00800           0
      9777 LPSA9    27       BGLCNA   O3       OC301   -0.360000       15.9994           0
      9778 LPSA9    27       BGLCNA   C4       CC3161   0.140000       12.0110           0
      9779 LPSA9    27       BGLCNA   H4       HCA1     0.900000E-01   1.00800           0
      9780 LPSA9    27       BGLCNA   O4       OC311   -0.650000       15.9994           0
      9781 LPSA9    27       BGLCNA   HO4      HCP1     0.420000       1.00800           0
      9782 LPSA9    27       BGLCNA   C6       CC321    0.500000E-01   12.0110           0
      9783 LPSA9    27       BGLCNA   H61      HCA2     0.900000E-01   1.00800           0
      9784 LPSA9    27       BGLCNA   H62      HCA2     0.900000E-01   1.00800           0
      9785 LPSA9    27       BGLCNA   O6       OC311   -0.650000       15.9994           0
      9786 LPSA9    27       BGLCNA   HO6      HCP1     0.420000       1.00800           0
      9787 LPSA9    28       AGAL     C1       CC3162   0.290000       12.0110           0
      9788 LPSA9    28       AGAL     H1       HCA1     0.900000E-01   1.00800           0
      9789 LPSA9    28       AGAL     C5       CC3163   0.110000       12.0110           0
      9790 LPSA9    28       AGAL     H5       HCA1     0.900000E-01   1.00800           0
      9791 LPSA9    28       AGAL     O5       OC3C61  -0.400000       15.9994           0
      9792 LPSA9    28       AGAL     C2       CC3161   0.900000E-01   12.0110           0
      9793 LPSA9    28       AGAL     H2       HCA1     0.900000E-01   1.00800           0
      9794 LPSA9    28       AGAL     O2       OC301   -0.360000       15.9994           0
      9795 LPSA9    28       AGAL     C3       CC3161   0.140000       12.0110           0
      9796 LPSA9    28       AGAL     H3       HCA1     0.900000E-01   1.00800           0
      9797 LPSA9    28       AGAL     O3       OC311   -0.650000       15.9994           0
      9798 LPSA9    28       AGAL     HO3      HCP1     0.420000       1.00800           0
      9799 LPSA9    28       AGAL     C4       CC3161   0.140000       12.0110           0
      9800 LPSA9    28       AGAL     H4       HCA1     0.900000E-01   1.00800           0
      9801 LPSA9    28       AGAL     O4       OC311   -0.650000       15.9994           0
      9802 LPSA9    28       AGAL     HO4      HCP1     0.420000       1.00800           0
      9803 LPSA9    28       AGAL     C6       CC321    0.500000E-01   12.0110           0
      9804 LPSA9    28       AGAL     H61      HCA2     0.900000E-01   1.00800           0
      9805 LPSA9    28       AGAL     H62      HCA2     0.900000E-01   1.00800           0
      9806 LPSA9    28       AGAL     O6       OC311   -0.650000       15.9994           0
      9807 LPSA9    28       AGAL     HO6      HCP1     0.420000       1.00800           0
      9808 LPSA9    29       ARHM     C1       CC3162   0.290000       12.0110           0
      9809 LPSA9    29       ARHM     H1       HCA1     0.900000E-01   1.00800           0
      9810 LPSA9    29       ARHM     C5       CC3163   0.110000       12.0110           0
      9811 LPSA9    29       ARHM     H5       HCA1     0.900000E-01   1.00800           0
      9812 LPSA9    29       ARHM     O5       OC3C61  -0.400000       15.9994           0
      9813 LPSA9    29       ARHM     C2       CC3161   0.900000E-01   12.0110           0
      9814 LPSA9    29       ARHM     H2       HCA1     0.900000E-01   1.00800           0
      9815 LPSA9    29       ARHM     O2       OC301   -0.360000       15.9994           0
      9816 LPSA9    29       ARHM     C3       CC3161   0.140000       12.0110           0
      9817 LPSA9    29       ARHM     H3       HCA1     0.900000E-01   1.00800           0
      9818 LPSA9    29       ARHM     O3       OC311   -0.650000       15.9994           0
      9819 LPSA9    29       ARHM     HO3      HCP1     0.420000       1.00800           0
      9820 LPSA9    29       ARHM     C4       CC3161   0.140000       12.0110           0
      9821 LPSA9    29       ARHM     H4       HCA1     0.900000E-01   1.00800           0
      9822 LPSA9    29       ARHM     O4       OC311   -0.650000       15.9994           0
      9823 LPSA9    29       ARHM     HO4      HCP1     0.420000       1.00800           0
      9824 LPSA9    29       ARHM     C6       CC331   -0.270000       12.0110           0
      9825 LPSA9    29       ARHM     H61      HCA3     0.900000E-01   1.00800           0
      9826 LPSA9    29       ARHM     H62      HCA3     0.900000E-01   1.00800           0
      9827 LPSA9    29       ARHM     H63      HCA3     0.900000E-01   1.00800           0
      9828 LPSA9    30       ARHM     C1       CC3162   0.290000       12.0110           0
      9829 LPSA9    30       ARHM     H1       HCA1     0.900000E-01   1.00800           0
      9830 LPSA9    30       ARHM     C5       CC3163   0.110000       12.0110           0
      9831 LPSA9    30       ARHM     H5       HCA1     0.900000E-01   1.00800           0
      9832 LPSA9    30       ARHM     O5       OC3C61  -0.400000       15.9994           0
      9833 LPSA9    30       ARHM     C2       CC3161   0.900000E-01   12.0110           0
      9834 LPSA9    30       ARHM     H2       HCA1     0.900000E-01   1.00800           0
      9835 LPSA9    30       ARHM     O2       OC301   -0.360000       15.9994           0
      9836 LPSA9    30       ARHM     C3       CC3161   0.900000E-01   12.0110           0
      9837 LPSA9    30       ARHM     H3       HCA1     0.900000E-01   1.00800           0
      9838 LPSA9    30       ARHM     O3       OC301   -0.360000       15.9994           0
      9839 LPSA9    30       ARHM     C4       CC3161   0.140000       12.0110           0
      9840 LPSA9    30       ARHM     H4       HCA1     0.900000E-01   1.00800           0
      9841 LPSA9    30       ARHM     O4       OC311   -0.650000       15.9994           0
      9842 LPSA9    30       ARHM     HO4      HCP1     0.420000       1.00800           0
      9843 LPSA9    30       ARHM     C6       CC331   -0.270000       12.0110           0
      9844 LPSA9    30       ARHM     H61      HCA3     0.900000E-01   1.00800           0
      9845 LPSA9    30       ARHM     H62      HCA3     0.900000E-01   1.00800           0
      9846 LPSA9    30       ARHM     H63      HCA3     0.900000E-01   1.00800           0
      9847 LPSA9    31       BMANNA   C1       CC3162   0.290000       12.0110           0
      9848 LPSA9    31       BMANNA   H1       HCA1     0.900000E-01   1.00800           0
      9849 LPSA9    31       BMANNA   C5       CC3163   0.110000       12.0110           0
      9850 LPSA9    31       BMANNA   H5       HCA1     0.900000E-01   1.00800           0
      9851 LPSA9    31       BMANNA   O5       OC3C61  -0.400000       15.9994           0
      9852 LPSA9    31       BMANNA   C2       CC3161   0.700000E-01   12.0110           0
      9853 LPSA9    31       BMANNA   H2       HCA1     0.900000E-01   1.00800           0
      9854 LPSA9    31       BMANNA   N        NC2D1   -0.470000       14.0070           0
      9855 LPSA9    31       BMANNA   HN       HCP1     0.310000       1.00800           0
      9856 LPSA9    31       BMANNA   C        CC2O1    0.510000       12.0110           0
      9857 LPSA9    31       BMANNA   O        OC2D1   -0.510000       15.9994           0
      9858 LPSA9    31       BMANNA   CT       CC331   -0.270000       12.0110           0
      9859 LPSA9    31       BMANNA   HT1      HCA3     0.900000E-01   1.00800           0
      9860 LPSA9    31       BMANNA   HT2      HCA3     0.900000E-01   1.00800           0
      9861 LPSA9    31       BMANNA   HT3      HCA3     0.900000E-01   1.00800           0
      9862 LPSA9    31       BMANNA   C3       CC3161   0.140000       12.0110           0
      9863 LPSA9    31       BMANNA   H3       HCA1     0.900000E-01   1.00800           0
      9864 LPSA9    31       BMANNA   O3       OC311   -0.650000       15.9994           0
      9865 LPSA9    31       BMANNA   HO3      HCP1     0.420000       1.00800           0
      9866 LPSA9    31       BMANNA   C4       CC3161   0.140000       12.0110           0
      9867 LPSA9    31       BMANNA   H4       HCA1     0.900000E-01   1.00800           0
      9868 LPSA9    31       BMANNA   O4       OC311   -0.650000       15.9994           0
      9869 LPSA9    31       BMANNA   HO4      HCP1     0.420000       1.00800           0
      9870 LPSA9    31       BMANNA   C6       CC321    0.500000E-01   12.0110           0
      9871 LPSA9    31       BMANNA   H61      HCA2     0.900000E-01   1.00800           0
      9872 LPSA9    31       BMANNA   H62      HCA2     0.900000E-01   1.00800           0
      9873 LPSA9    31       BMANNA   O6       OC311   -0.650000       15.9994           0
      9874 LPSA9    31       BMANNA   HO6      HCP1     0.420000       1.00800           0
      9875 LPSA9    32       BGLCNA   C1       CC3162   0.290000       12.0110           0
      9876 LPSA9    32       BGLCNA   H1       HCA1     0.900000E-01   1.00800           0
      9877 LPSA9    32       BGLCNA   C5       CC3163   0.110000       12.0110           0
      9878 LPSA9    32       BGLCNA   H5       HCA1     0.900000E-01   1.00800           0
      9879 LPSA9    32       BGLCNA   O5       OC3C61  -0.400000       15.9994           0
      9880 LPSA9    32       BGLCNA   C2       CC3161   0.700000E-01   12.0110           0
      9881 LPSA9    32       BGLCNA   H2       HCA1     0.900000E-01   1.00800           0
      9882 LPSA9    32       BGLCNA   N        NC2D1   -0.470000       14.0070           0
      9883 LPSA9    32       BGLCNA   HN       HCP1     0.310000       1.00800           0
      9884 LPSA9    32       BGLCNA   C        CC2O1    0.510000       12.0110           0
      9885 LPSA9    32       BGLCNA   O        OC2D1   -0.510000       15.9994           0
      9886 LPSA9    32       BGLCNA   CT       CC331   -0.270000       12.0110           0
      9887 LPSA9    32       BGLCNA   HT1      HCA3     0.900000E-01   1.00800           0
      9888 LPSA9    32       BGLCNA   HT2      HCA3     0.900000E-01   1.00800           0
      9889 LPSA9    32       BGLCNA   HT3      HCA3     0.900000E-01   1.00800           0
      9890 LPSA9    32       BGLCNA   C3       CC3161   0.900000E-01   12.0110           0
      9891 LPSA9    32       BGLCNA   H3       HCA1     0.900000E-01   1.00800           0
      9892 LPSA9    32       BGLCNA   O3       OC301   -0.360000       15.9994           0
      9893 LPSA9    32       BGLCNA   C4       CC3161   0.140000       12.0110           0
      9894 LPSA9    32       BGLCNA   H4       HCA1     0.900000E-01   1.00800           0
      9895 LPSA9    32       BGLCNA   O4       OC311   -0.650000       15.9994           0
      9896 LPSA9    32       BGLCNA   HO4      HCP1     0.420000       1.00800           0
      9897 LPSA9    32       BGLCNA   C6       CC321    0.500000E-01   12.0110           0
      9898 LPSA9    32       BGLCNA   H61      HCA2     0.900000E-01   1.00800           0
      9899 LPSA9    32       BGLCNA   H62      HCA2     0.900000E-01   1.00800           0
      9900 LPSA9    32       BGLCNA   O6       OC311   -0.650000       15.9994           0
      9901 LPSA9    32       BGLCNA   HO6      HCP1     0.420000       1.00800           0
      9902 LPSA9    33       AGAL     C1       CC3162   0.290000       12.0110           0
      9903 LPSA9    33       AGAL     H1       HCA1     0.900000E-01   1.00800           0
      9904 LPSA9    33       AGAL     C5       CC3163   0.110000       12.0110           0
      9905 LPSA9    33       AGAL     H5       HCA1     0.900000E-01   1.00800           0
      9906 LPSA9    33       AGAL     O5       OC3C61  -0.400000       15.9994           0
      9907 LPSA9    33       AGAL     C2       CC3161   0.900000E-01   12.0110           0
      9908 LPSA9    33       AGAL     H2       HCA1     0.900000E-01   1.00800           0
      9909 LPSA9    33       AGAL     O2       OC301   -0.360000       15.9994           0
      9910 LPSA9    33       AGAL     C3       CC3161   0.140000       12.0110           0
      9911 LPSA9    33       AGAL     H3       HCA1     0.900000E-01   1.00800           0
      9912 LPSA9    33       AGAL     O3       OC311   -0.650000       15.9994           0
      9913 LPSA9    33       AGAL     HO3      HCP1     0.420000       1.00800           0
      9914 LPSA9    33       AGAL     C4       CC3161   0.140000       12.0110           0
      9915 LPSA9    33       AGAL     H4       HCA1     0.900000E-01   1.00800           0
      9916 LPSA9    33       AGAL     O4       OC311   -0.650000       15.9994           0
      9917 LPSA9    33       AGAL     HO4      HCP1     0.420000       1.00800           0
      9918 LPSA9    33       AGAL     C6       CC321    0.500000E-01   12.0110           0
      9919 LPSA9    33       AGAL     H61      HCA2     0.900000E-01   1.00800           0
      9920 LPSA9    33       AGAL     H62      HCA2     0.900000E-01   1.00800           0
      9921 LPSA9    33       AGAL     O6       OC311   -0.650000       15.9994           0
      9922 LPSA9    33       AGAL     HO6      HCP1     0.420000       1.00800           0
      9923 LPSA9    34       ARHM     C1       CC3162   0.290000       12.0110           0
      9924 LPSA9    34       ARHM     H1       HCA1     0.900000E-01   1.00800           0
      9925 LPSA9    34       ARHM     C5       CC3163   0.110000       12.0110           0
      9926 LPSA9    34       ARHM     H5       HCA1     0.900000E-01   1.00800           0
      9927 LPSA9    34       ARHM     O5       OC3C61  -0.400000       15.9994           0
      9928 LPSA9    34       ARHM     C2       CC3161   0.900000E-01   12.0110           0
      9929 LPSA9    34       ARHM     H2       HCA1     0.900000E-01   1.00800           0
      9930 LPSA9    34       ARHM     O2       OC301   -0.360000       15.9994           0
      9931 LPSA9    34       ARHM     C3       CC3161   0.140000       12.0110           0
      9932 LPSA9    34       ARHM     H3       HCA1     0.900000E-01   1.00800           0
      9933 LPSA9    34       ARHM     O3       OC311   -0.650000       15.9994           0
      9934 LPSA9    34       ARHM     HO3      HCP1     0.420000       1.00800           0
      9935 LPSA9    34       ARHM     C4       CC3161   0.140000       12.0110           0
      9936 LPSA9    34       ARHM     H4       HCA1     0.900000E-01   1.00800           0
      9937 LPSA9    34       ARHM     O4       OC311   -0.650000       15.9994           0
      9938 LPSA9    34       ARHM     HO4      HCP1     0.420000       1.00800           0
      9939 LPSA9    34       ARHM     C6       CC331   -0.270000       12.0110           0
      9940 LPSA9    34       ARHM     H61      HCA3     0.900000E-01   1.00800           0
      9941 LPSA9    34       ARHM     H62      HCA3     0.900000E-01   1.00800           0
      9942 LPSA9    34       ARHM     H63      HCA3     0.900000E-01   1.00800           0
      9943 LPSA9    35       ARHM     C1       CC3162   0.290000       12.0110           0
      9944 LPSA9    35       ARHM     H1       HCA1     0.900000E-01   1.00800           0
      9945 LPSA9    35       ARHM     C5       CC3163   0.110000       12.0110           0
      9946 LPSA9    35       ARHM     H5       HCA1     0.900000E-01   1.00800           0
      9947 LPSA9    35       ARHM     O5       OC3C61  -0.400000       15.9994           0
      9948 LPSA9    35       ARHM     C2       CC3161   0.900000E-01   12.0110           0
      9949 LPSA9    35       ARHM     H2       HCA1     0.900000E-01   1.00800           0
      9950 LPSA9    35       ARHM     O2       OC301   -0.360000       15.9994           0
      9951 LPSA9    35       ARHM     C3       CC3161   0.140000       12.0110           0
      9952 LPSA9    35       ARHM     H3       HCA1     0.900000E-01   1.00800           0
      9953 LPSA9    35       ARHM     O3       OC311   -0.650000       15.9994           0
      9954 LPSA9    35       ARHM     HO3      HCP1     0.420000       1.00800           0
      9955 LPSA9    35       ARHM     C4       CC3161   0.140000       12.0110           0
      9956 LPSA9    35       ARHM     H4       HCA1     0.900000E-01   1.00800           0
      9957 LPSA9    35       ARHM     O4       OC311   -0.650000       15.9994           0
      9958 LPSA9    35       ARHM     HO4      HCP1     0.420000       1.00800           0
      9959 LPSA9    35       ARHM     C6       CC331   -0.270000       12.0110           0
      9960 LPSA9    35       ARHM     H61      HCA3     0.900000E-01   1.00800           0
      9961 LPSA9    35       ARHM     H62      HCA3     0.900000E-01   1.00800           0
      9962 LPSA9    35       ARHM     H63      HCA3     0.900000E-01   1.00800           0
      9963 LPSA9    36       BMANNA   C1       CC3162   0.290000       12.0110           0
      9964 LPSA9    36       BMANNA   H1       HCA1     0.900000E-01   1.00800           0
      9965 LPSA9    36       BMANNA   C5       CC3163   0.110000       12.0110           0
      9966 LPSA9    36       BMANNA   H5       HCA1     0.900000E-01   1.00800           0
      9967 LPSA9    36       BMANNA   O5       OC3C61  -0.400000       15.9994           0
      9968 LPSA9    36       BMANNA   C2       CC3161   0.700000E-01   12.0110           0
      9969 LPSA9    36       BMANNA   H2       HCA1     0.900000E-01   1.00800           0
      9970 LPSA9    36       BMANNA   N        NC2D1   -0.470000       14.0070           0
      9971 LPSA9    36       BMANNA   HN       HCP1     0.310000       1.00800           0
      9972 LPSA9    36       BMANNA   C        CC2O1    0.510000       12.0110           0
      9973 LPSA9    36       BMANNA   O        OC2D1   -0.510000       15.9994           0
      9974 LPSA9    36       BMANNA   CT       CC331   -0.270000       12.0110           0
      9975 LPSA9    36       BMANNA   HT1      HCA3     0.900000E-01   1.00800           0
      9976 LPSA9    36       BMANNA   HT2      HCA3     0.900000E-01   1.00800           0
      9977 LPSA9    36       BMANNA   HT3      HCA3     0.900000E-01   1.00800           0
      9978 LPSA9    36       BMANNA   C3       CC3161   0.140000       12.0110           0
      9979 LPSA9    36       BMANNA   H3       HCA1     0.900000E-01   1.00800           0
      9980 LPSA9    36       BMANNA   O3       OC311   -0.650000       15.9994           0
      9981 LPSA9    36       BMANNA   HO3      HCP1     0.420000       1.00800           0
      9982 LPSA9    36       BMANNA   C4       CC3161   0.140000       12.0110           0
      9983 LPSA9    36       BMANNA   H4       HCA1     0.900000E-01   1.00800           0
      9984 LPSA9    36       BMANNA   O4       OC311   -0.650000       15.9994           0
      9985 LPSA9    36       BMANNA   HO4      HCP1     0.420000       1.00800           0
      9986 LPSA9    36       BMANNA   C6       CC321    0.500000E-01   12.0110           0
      9987 LPSA9    36       BMANNA   H61      HCA2     0.900000E-01   1.00800           0
      9988 LPSA9    36       BMANNA   H62      HCA2     0.900000E-01   1.00800           0
      9989 LPSA9    36       BMANNA   O6       OC311   -0.650000       15.9994           0
      9990 LPSA9    36       BMANNA   HO6      HCP1     0.420000       1.00800           0
      9991 LPSA10   1        ECLIPA   HB6S     HCA2     0.900000E-01   1.00800           0
      9992 LPSA10   1        ECLIPA   OB6      OC301   -0.360000       15.9994           0
      9993 LPSA10   1        ECLIPA   CB6      CC321     0.00000       12.0110           0
      9994 LPSA10   1        ECLIPA   HB6R     HCA2     0.900000E-01   1.00800           0
      9995 LPSA10   1        ECLIPA   CB5      CC3163   0.110000       12.0110           0
      9996 LPSA10   1        ECLIPA   OB5      OC3C61  -0.400000       15.9994           0
      9997 LPSA10   1        ECLIPA   HB5      HCA1     0.900000E-01   1.00800           0
      9998 LPSA10   1        ECLIPA   CB1      CC3162   0.290000       12.0110           0
      9999 LPSA10   1        ECLIPA   HB1      HCA1     0.900000E-01   1.00800           0
     10000 LPSA10   1        ECLIPA   OA6      OC301   -0.360000       15.9994           0
     10001 LPSA10   1        ECLIPA   CA6      CC321     0.00000       12.0110           0
     10002 LPSA10   1        ECLIPA   HA6R     HCA2     0.900000E-01   1.00800           0
     10003 LPSA10   1        ECLIPA   HA6S     HCA2     0.900000E-01   1.00800           0
     10004 LPSA10   1        ECLIPA   CB4      CC3161  -0.900000E-01   12.0110           0
     10005 LPSA10   1        ECLIPA   HB4      HCA1     0.900000E-01   1.00800           0
     10006 LPSA10   1        ECLIPA   OB4      OC30P   -0.400000       15.9994           0
     10007 LPSA10   1        ECLIPA   PB       PC        1.10000       30.9740           0
     10008 LPSA10   1        ECLIPA   OPB4     OC2DP   -0.900000       15.9994           0
     10009 LPSA10   1        ECLIPA   OPB3     OC2DP   -0.900000       15.9994           0
     10010 LPSA10   1        ECLIPA   OPB2     OC2DP   -0.900000       15.9994           0
     10011 LPSA10   1        ECLIPA   CB3      CC3161   0.170000       12.0110           0
     10012 LPSA10   1        ECLIPA   OB3      OC301   -0.490000       15.9994           0
     10013 LPSA10   1        ECLIPA   HB3      HCA1     0.900000E-01   1.00800           0
     10014 LPSA10   1        ECLIPA   C71      CL       0.900000       12.0110           0
     10015 LPSA10   1        ECLIPA   O71      OBL     -0.630000       15.9994           0
     10016 LPSA10   1        ECLIPA   C72      CTL2    -0.220000       12.0110           0
     10017 LPSA10   1        ECLIPA   H72R     HAL2     0.900000E-01   1.00800           0
     10018 LPSA10   1        ECLIPA   H72S     HAL2     0.900000E-01   1.00800           0
     10019 LPSA10   1        ECLIPA   CB2      CC3161   0.700000E-01   12.0110           0
     10020 LPSA10   1        ECLIPA   HB2      HCA1     0.900000E-01   1.00800           0
     10021 LPSA10   1        ECLIPA   NB2      NC2D1   -0.470000       14.0070           0
     10022 LPSA10   1        ECLIPA   HNB2     HCP1     0.310000       1.00800           0
     10023 LPSA10   1        ECLIPA   CA4      CC3161   0.140000       12.0110           0
     10024 LPSA10   1        ECLIPA   HA4      HCA1     0.900000E-01   1.00800           0
     10025 LPSA10   1        ECLIPA   OA4      OC311   -0.650000       15.9994           0
     10026 LPSA10   1        ECLIPA   HOA4     HCP1     0.420000       1.00800           0
     10027 LPSA10   1        ECLIPA   CA5      CC3163   0.110000       12.0110           0
     10028 LPSA10   1        ECLIPA   HA5      HCA1     0.900000E-01   1.00800           0
     10029 LPSA10   1        ECLIPA   OA5      OC3C61  -0.400000       15.9994           0
     10030 LPSA10   1        ECLIPA   CA1      CC3162   0.110000       12.0110           0
     10031 LPSA10   1        ECLIPA   HA1      HCA1     0.900000E-01   1.00800           0
     10032 LPSA10   1        ECLIPA   OA1      OC30P   -0.400000       15.9994           0
     10033 LPSA10   1        ECLIPA   OPA2     OC2DP   -0.900000       15.9994           0
     10034 LPSA10   1        ECLIPA   OPA3     OC2DP   -0.900000       15.9994           0
     10035 LPSA10   1        ECLIPA   OPA4     OC2DP   -0.900000       15.9994           0
     10036 LPSA10   1        ECLIPA   PA       PC        1.10000       30.9740           0
     10037 LPSA10   1        ECLIPA   CA3      CC3161   0.170000       12.0110           0
     10038 LPSA10   1        ECLIPA   HA3      HCA1     0.900000E-01   1.00800           0
     10039 LPSA10   1        ECLIPA   OA3      OC301   -0.490000       15.9994           0
     10040 LPSA10   1        ECLIPA   C31      CL       0.900000       12.0110           0
     10041 LPSA10   1        ECLIPA   O31      OBL     -0.630000       15.9994           0
     10042 LPSA10   1        ECLIPA   C32      CTL2    -0.220000       12.0110           0
     10043 LPSA10   1        ECLIPA   H32R     HAL2     0.900000E-01   1.00800           0
     10044 LPSA10   1        ECLIPA   H32S     HAL2     0.900000E-01   1.00800           0
     10045 LPSA10   1        ECLIPA   CA2      CC3161   0.700000E-01   12.0110           0
     10046 LPSA10   1        ECLIPA   HA2      HCA1     0.900000E-01   1.00800           0
     10047 LPSA10   1        ECLIPA   NA2      NC2D1   -0.470000       14.0070           0
     10048 LPSA10   1        ECLIPA   HNA2     HCP1     0.310000       1.00800           0
     10049 LPSA10   1        ECLIPA   C73      CTL1     0.170000       12.0110           0
     10050 LPSA10   1        ECLIPA   H73R     HAL1     0.900000E-01   1.00800           0
     10051 LPSA10   1        ECLIPA   O73      OSL     -0.490000       15.9994           0
     10052 LPSA10   1        ECLIPA   C81      CL       0.900000       12.0110           0
     10053 LPSA10   1        ECLIPA   O81      OBL     -0.630000       15.9994           0
     10054 LPSA10   1        ECLIPA   C82      CTL2    -0.220000       12.0110           0
     10055 LPSA10   1        ECLIPA   H82R     HAL2     0.900000E-01   1.00800           0
     10056 LPSA10   1        ECLIPA   H82S     HAL2     0.900000E-01   1.00800           0
     10057 LPSA10   1        ECLIPA   C83      CTL2    -0.180000       12.0110           0
     10058 LPSA10   1        ECLIPA   H83R     HAL2     0.900000E-01   1.00800           0
     10059 LPSA10   1        ECLIPA   H83S     HAL2     0.900000E-01   1.00800           0
     10060 LPSA10   1        ECLIPA   C84      CTL2    -0.180000       12.0110           0
     10061 LPSA10   1        ECLIPA   H84R     HAL2     0.900000E-01   1.00800           0
     10062 LPSA10   1        ECLIPA   H84S     HAL2     0.900000E-01   1.00800           0
     10063 LPSA10   1        ECLIPA   C85      CTL2    -0.180000       12.0110           0
     10064 LPSA10   1        ECLIPA   H85R     HAL2     0.900000E-01   1.00800           0
     10065 LPSA10   1        ECLIPA   H85S     HAL2     0.900000E-01   1.00800           0
     10066 LPSA10   1        ECLIPA   C86      CTL2    -0.180000       12.0110           0
     10067 LPSA10   1        ECLIPA   H86R     HAL2     0.900000E-01   1.00800           0
     10068 LPSA10   1        ECLIPA   H86S     HAL2     0.900000E-01   1.00800           0
     10069 LPSA10   1        ECLIPA   C87      CTL2    -0.180000       12.0110           0
     10070 LPSA10   1        ECLIPA   H87R     HAL2     0.900000E-01   1.00800           0
     10071 LPSA10   1        ECLIPA   H87S     HAL2     0.900000E-01   1.00800           0
     10072 LPSA10   1        ECLIPA   C88      CTL2    -0.180000       12.0110           0
     10073 LPSA10   1        ECLIPA   H88R     HAL2     0.900000E-01   1.00800           0
     10074 LPSA10   1        ECLIPA   H88S     HAL2     0.900000E-01   1.00800           0
     10075 LPSA10   1        ECLIPA   C89      CTL2    -0.180000       12.0110           0
     10076 LPSA10   1        ECLIPA   H89R     HAL2     0.900000E-01   1.00800           0
     10077 LPSA10   1        ECLIPA   H89S     HAL2     0.900000E-01   1.00800           0
     10078 LPSA10   1        ECLIPA   C810     CTL2    -0.180000       12.0110           0
     10079 LPSA10   1        ECLIPA   H810R    HAL2     0.900000E-01   1.00800           0
     10080 LPSA10   1        ECLIPA   H810S    HAL2     0.900000E-01   1.00800           0
     10081 LPSA10   1        ECLIPA   C811     CTL2    -0.180000       12.0110           0
     10082 LPSA10   1        ECLIPA   H811R    HAL2     0.900000E-01   1.00800           0
     10083 LPSA10   1        ECLIPA   H811S    HAL2     0.900000E-01   1.00800           0
     10084 LPSA10   1        ECLIPA   C812     CTL2    -0.180000       12.0110           0
     10085 LPSA10   1        ECLIPA   H812R    HAL2     0.900000E-01   1.00800           0
     10086 LPSA10   1        ECLIPA   H812S    HAL2     0.900000E-01   1.00800           0
     10087 LPSA10   1        ECLIPA   C813     CTL2    -0.180000       12.0110           0
     10088 LPSA10   1        ECLIPA   H813R    HAL2     0.900000E-01   1.00800           0
     10089 LPSA10   1        ECLIPA   H813S    HAL2     0.900000E-01   1.00800           0
     10090 LPSA10   1        ECLIPA   C814     CTL3    -0.270000       12.0110           0
     10091 LPSA10   1        ECLIPA   H814R    HAL3     0.900000E-01   1.00800           0
     10092 LPSA10   1        ECLIPA   H814S    HAL3     0.900000E-01   1.00800           0
     10093 LPSA10   1        ECLIPA   H814T    HAL3     0.900000E-01   1.00800           0
     10094 LPSA10   1        ECLIPA   C74      CTL2    -0.180000       12.0110           0
     10095 LPSA10   1        ECLIPA   H74R     HAL2     0.900000E-01   1.00800           0
     10096 LPSA10   1        ECLIPA   H74S     HAL2     0.900000E-01   1.00800           0
     10097 LPSA10   1        ECLIPA   C75      CTL2    -0.180000       12.0110           0
     10098 LPSA10   1        ECLIPA   H75R     HAL2     0.900000E-01   1.00800           0
     10099 LPSA10   1        ECLIPA   H75S     HAL2     0.900000E-01   1.00800           0
     10100 LPSA10   1        ECLIPA   C76      CTL2    -0.180000       12.0110           0
     10101 LPSA10   1        ECLIPA   H76R     HAL2     0.900000E-01   1.00800           0
     10102 LPSA10   1        ECLIPA   H76S     HAL2     0.900000E-01   1.00800           0
     10103 LPSA10   1        ECLIPA   C77      CTL2    -0.180000       12.0110           0
     10104 LPSA10   1        ECLIPA   H77R     HAL2     0.900000E-01   1.00800           0
     10105 LPSA10   1        ECLIPA   H77S     HAL2     0.900000E-01   1.00800           0
     10106 LPSA10   1        ECLIPA   C78      CTL2    -0.180000       12.0110           0
     10107 LPSA10   1        ECLIPA   H78R     HAL2     0.900000E-01   1.00800           0
     10108 LPSA10   1        ECLIPA   H78S     HAL2     0.900000E-01   1.00800           0
     10109 LPSA10   1        ECLIPA   C79      CTL2    -0.180000       12.0110           0
     10110 LPSA10   1        ECLIPA   H79R     HAL2     0.900000E-01   1.00800           0
     10111 LPSA10   1        ECLIPA   H79S     HAL2     0.900000E-01   1.00800           0
     10112 LPSA10   1        ECLIPA   C710     CTL2    -0.180000       12.0110           0
     10113 LPSA10   1        ECLIPA   H710R    HAL2     0.900000E-01   1.00800           0
     10114 LPSA10   1        ECLIPA   H710S    HAL2     0.900000E-01   1.00800           0
     10115 LPSA10   1        ECLIPA   C711     CTL2    -0.180000       12.0110           0
     10116 LPSA10   1        ECLIPA   H711R    HAL2     0.900000E-01   1.00800           0
     10117 LPSA10   1        ECLIPA   H711S    HAL2     0.900000E-01   1.00800           0
     10118 LPSA10   1        ECLIPA   C712     CTL2    -0.180000       12.0110           0
     10119 LPSA10   1        ECLIPA   H712R    HAL2     0.900000E-01   1.00800           0
     10120 LPSA10   1        ECLIPA   H712S    HAL2     0.900000E-01   1.00800           0
     10121 LPSA10   1        ECLIPA   C713     CTL2    -0.180000       12.0110           0
     10122 LPSA10   1        ECLIPA   H713R    HAL2     0.900000E-01   1.00800           0
     10123 LPSA10   1        ECLIPA   H713S    HAL2     0.900000E-01   1.00800           0
     10124 LPSA10   1        ECLIPA   C714     CTL3    -0.270000       12.0110           0
     10125 LPSA10   1        ECLIPA   H714R    HAL3     0.900000E-01   1.00800           0
     10126 LPSA10   1        ECLIPA   H714S    HAL3     0.900000E-01   1.00800           0
     10127 LPSA10   1        ECLIPA   H714T    HAL3     0.900000E-01   1.00800           0
     10128 LPSA10   1        ECLIPA   C51      CC2O1    0.550000       12.0110           0
     10129 LPSA10   1        ECLIPA   O51      OC2D1   -0.550000       15.9994           0
     10130 LPSA10   1        ECLIPA   C52      CTL2    -0.180000       12.0110           0
     10131 LPSA10   1        ECLIPA   H52R     HAL2     0.900000E-01   1.00800           0
     10132 LPSA10   1        ECLIPA   H52S     HAL2     0.900000E-01   1.00800           0
     10133 LPSA10   1        ECLIPA   C53      CTL1     0.170000       12.0110           0
     10134 LPSA10   1        ECLIPA   H53R     HAL1     0.900000E-01   1.00800           0
     10135 LPSA10   1        ECLIPA   O53      OSL     -0.490000       15.9994           0
     10136 LPSA10   1        ECLIPA   C61      CL       0.900000       12.0110           0
     10137 LPSA10   1        ECLIPA   O61      OBL     -0.630000       15.9994           0
     10138 LPSA10   1        ECLIPA   C62      CTL2    -0.220000       12.0110           0
     10139 LPSA10   1        ECLIPA   H62R     HAL2     0.900000E-01   1.00800           0
     10140 LPSA10   1        ECLIPA   H62S     HAL2     0.900000E-01   1.00800           0
     10141 LPSA10   1        ECLIPA   C63      CTL2    -0.180000       12.0110           0
     10142 LPSA10   1        ECLIPA   H63R     HAL2     0.900000E-01   1.00800           0
     10143 LPSA10   1        ECLIPA   H63S     HAL2     0.900000E-01   1.00800           0
     10144 LPSA10   1        ECLIPA   C64      CTL2    -0.180000       12.0110           0
     10145 LPSA10   1        ECLIPA   H64R     HAL2     0.900000E-01   1.00800           0
     10146 LPSA10   1        ECLIPA   H64S     HAL2     0.900000E-01   1.00800           0
     10147 LPSA10   1        ECLIPA   C65      CTL2    -0.180000       12.0110           0
     10148 LPSA10   1        ECLIPA   H65R     HAL2     0.900000E-01   1.00800           0
     10149 LPSA10   1        ECLIPA   H65S     HAL2     0.900000E-01   1.00800           0
     10150 LPSA10   1        ECLIPA   C66      CTL2    -0.180000       12.0110           0
     10151 LPSA10   1        ECLIPA   H66R     HAL2     0.900000E-01   1.00800           0
     10152 LPSA10   1        ECLIPA   H66S     HAL2     0.900000E-01   1.00800           0
     10153 LPSA10   1        ECLIPA   C67      CTL2    -0.180000       12.0110           0
     10154 LPSA10   1        ECLIPA   H67R     HAL2     0.900000E-01   1.00800           0
     10155 LPSA10   1        ECLIPA   H67S     HAL2     0.900000E-01   1.00800           0
     10156 LPSA10   1        ECLIPA   C68      CTL2    -0.180000       12.0110           0
     10157 LPSA10   1        ECLIPA   H68R     HAL2     0.900000E-01   1.00800           0
     10158 LPSA10   1        ECLIPA   H68S     HAL2     0.900000E-01   1.00800           0
     10159 LPSA10   1        ECLIPA   C69      CTL2    -0.180000       12.0110           0
     10160 LPSA10   1        ECLIPA   H69R     HAL2     0.900000E-01   1.00800           0
     10161 LPSA10   1        ECLIPA   H69S     HAL2     0.900000E-01   1.00800           0
     10162 LPSA10   1        ECLIPA   C610     CTL2    -0.180000       12.0110           0
     10163 LPSA10   1        ECLIPA   H610R    HAL2     0.900000E-01   1.00800           0
     10164 LPSA10   1        ECLIPA   H610S    HAL2     0.900000E-01   1.00800           0
     10165 LPSA10   1        ECLIPA   C611     CTL2    -0.180000       12.0110           0
     10166 LPSA10   1        ECLIPA   H611R    HAL2     0.900000E-01   1.00800           0
     10167 LPSA10   1        ECLIPA   H611S    HAL2     0.900000E-01   1.00800           0
     10168 LPSA10   1        ECLIPA   C612     CTL3    -0.270000       12.0110           0
     10169 LPSA10   1        ECLIPA   H612R    HAL3     0.900000E-01   1.00800           0
     10170 LPSA10   1        ECLIPA   H612S    HAL3     0.900000E-01   1.00800           0
     10171 LPSA10   1        ECLIPA   H612T    HAL3     0.900000E-01   1.00800           0
     10172 LPSA10   1        ECLIPA   C54      CTL2    -0.180000       12.0110           0
     10173 LPSA10   1        ECLIPA   H54R     HAL2     0.900000E-01   1.00800           0
     10174 LPSA10   1        ECLIPA   H54S     HAL2     0.900000E-01   1.00800           0
     10175 LPSA10   1        ECLIPA   C55      CTL2    -0.180000       12.0110           0
     10176 LPSA10   1        ECLIPA   H55R     HAL2     0.900000E-01   1.00800           0
     10177 LPSA10   1        ECLIPA   H55S     HAL2     0.900000E-01   1.00800           0
     10178 LPSA10   1        ECLIPA   C56      CTL2    -0.180000       12.0110           0
     10179 LPSA10   1        ECLIPA   H56R     HAL2     0.900000E-01   1.00800           0
     10180 LPSA10   1        ECLIPA   H56S     HAL2     0.900000E-01   1.00800           0
     10181 LPSA10   1        ECLIPA   C57      CTL2    -0.180000       12.0110           0
     10182 LPSA10   1        ECLIPA   H57R     HAL2     0.900000E-01   1.00800           0
     10183 LPSA10   1        ECLIPA   H57S     HAL2     0.900000E-01   1.00800           0
     10184 LPSA10   1        ECLIPA   C58      CTL2    -0.180000       12.0110           0
     10185 LPSA10   1        ECLIPA   H58R     HAL2     0.900000E-01   1.00800           0
     10186 LPSA10   1        ECLIPA   H58S     HAL2     0.900000E-01   1.00800           0
     10187 LPSA10   1        ECLIPA   C59      CTL2    -0.180000       12.0110           0
     10188 LPSA10   1        ECLIPA   H59R     HAL2     0.900000E-01   1.00800           0
     10189 LPSA10   1        ECLIPA   H59S     HAL2     0.900000E-01   1.00800           0
     10190 LPSA10   1        ECLIPA   C510     CTL2    -0.180000       12.0110           0
     10191 LPSA10   1        ECLIPA   H510R    HAL2     0.900000E-01   1.00800           0
     10192 LPSA10   1        ECLIPA   H510S    HAL2     0.900000E-01   1.00800           0
     10193 LPSA10   1        ECLIPA   C511     CTL2    -0.180000       12.0110           0
     10194 LPSA10   1        ECLIPA   H511R    HAL2     0.900000E-01   1.00800           0
     10195 LPSA10   1        ECLIPA   H511S    HAL2     0.900000E-01   1.00800           0
     10196 LPSA10   1        ECLIPA   C512     CTL2    -0.180000       12.0110           0
     10197 LPSA10   1        ECLIPA   H512R    HAL2     0.900000E-01   1.00800           0
     10198 LPSA10   1        ECLIPA   H512S    HAL2     0.900000E-01   1.00800           0
     10199 LPSA10   1        ECLIPA   C513     CTL2    -0.180000       12.0110           0
     10200 LPSA10   1        ECLIPA   H513R    HAL2     0.900000E-01   1.00800           0
     10201 LPSA10   1        ECLIPA   H513S    HAL2     0.900000E-01   1.00800           0
     10202 LPSA10   1        ECLIPA   C514     CTL3    -0.270000       12.0110           0
     10203 LPSA10   1        ECLIPA   H514R    HAL3     0.900000E-01   1.00800           0
     10204 LPSA10   1        ECLIPA   H514S    HAL3     0.900000E-01   1.00800           0
     10205 LPSA10   1        ECLIPA   H514T    HAL3     0.900000E-01   1.00800           0
     10206 LPSA10   1        ECLIPA   C33      CTL1     0.140000       12.0110           0
     10207 LPSA10   1        ECLIPA   H33R     HAL1     0.900000E-01   1.00800           0
     10208 LPSA10   1        ECLIPA   O33      OH1     -0.660000       15.9994           0
     10209 LPSA10   1        ECLIPA   HO33     H        0.430000       1.00800           0
     10210 LPSA10   1        ECLIPA   C34      CTL2    -0.180000       12.0110           0
     10211 LPSA10   1        ECLIPA   H34R     HAL2     0.900000E-01   1.00800           0
     10212 LPSA10   1        ECLIPA   H34S     HAL2     0.900000E-01   1.00800           0
     10213 LPSA10   1        ECLIPA   C35      CTL2    -0.180000       12.0110           0
     10214 LPSA10   1        ECLIPA   H35R     HAL2     0.900000E-01   1.00800           0
     10215 LPSA10   1        ECLIPA   H35S     HAL2     0.900000E-01   1.00800           0
     10216 LPSA10   1        ECLIPA   C36      CTL2    -0.180000       12.0110           0
     10217 LPSA10   1        ECLIPA   H36R     HAL2     0.900000E-01   1.00800           0
     10218 LPSA10   1        ECLIPA   H36S     HAL2     0.900000E-01   1.00800           0
     10219 LPSA10   1        ECLIPA   C37      CTL2    -0.180000       12.0110           0
     10220 LPSA10   1        ECLIPA   H37R     HAL2     0.900000E-01   1.00800           0
     10221 LPSA10   1        ECLIPA   H37S     HAL2     0.900000E-01   1.00800           0
     10222 LPSA10   1        ECLIPA   C38      CTL2    -0.180000       12.0110           0
     10223 LPSA10   1        ECLIPA   H38R     HAL2     0.900000E-01   1.00800           0
     10224 LPSA10   1        ECLIPA   H38S     HAL2     0.900000E-01   1.00800           0
     10225 LPSA10   1        ECLIPA   C39      CTL2    -0.180000       12.0110           0
     10226 LPSA10   1        ECLIPA   H39R     HAL2     0.900000E-01   1.00800           0
     10227 LPSA10   1        ECLIPA   H39S     HAL2     0.900000E-01   1.00800           0
     10228 LPSA10   1        ECLIPA   C310     CTL2    -0.180000       12.0110           0
     10229 LPSA10   1        ECLIPA   H310R    HAL2     0.900000E-01   1.00800           0
     10230 LPSA10   1        ECLIPA   H310S    HAL2     0.900000E-01   1.00800           0
     10231 LPSA10   1        ECLIPA   C311     CTL2    -0.180000       12.0110           0
     10232 LPSA10   1        ECLIPA   H311R    HAL2     0.900000E-01   1.00800           0
     10233 LPSA10   1        ECLIPA   H311S    HAL2     0.900000E-01   1.00800           0
     10234 LPSA10   1        ECLIPA   C312     CTL2    -0.180000       12.0110           0
     10235 LPSA10   1        ECLIPA   H312R    HAL2     0.900000E-01   1.00800           0
     10236 LPSA10   1        ECLIPA   H312S    HAL2     0.900000E-01   1.00800           0
     10237 LPSA10   1        ECLIPA   C313     CTL2    -0.180000       12.0110           0
     10238 LPSA10   1        ECLIPA   H313R    HAL2     0.900000E-01   1.00800           0
     10239 LPSA10   1        ECLIPA   H313S    HAL2     0.900000E-01   1.00800           0
     10240 LPSA10   1        ECLIPA   C314     CTL3    -0.270000       12.0110           0
     10241 LPSA10   1        ECLIPA   H314R    HAL3     0.900000E-01   1.00800           0
     10242 LPSA10   1        ECLIPA   H314S    HAL3     0.900000E-01   1.00800           0
     10243 LPSA10   1        ECLIPA   H314T    HAL3     0.900000E-01   1.00800           0
     10244 LPSA10   1        ECLIPA   C11      CC2O1    0.550000       12.0110           0
     10245 LPSA10   1        ECLIPA   O11      OC2D1   -0.550000       15.9994           0
     10246 LPSA10   1        ECLIPA   C12      CTL2    -0.180000       12.0110           0
     10247 LPSA10   1        ECLIPA   H12R     HAL2     0.900000E-01   1.00800           0
     10248 LPSA10   1        ECLIPA   H12S     HAL2     0.900000E-01   1.00800           0
     10249 LPSA10   1        ECLIPA   C13      CTL1     0.140000       12.0110           0
     10250 LPSA10   1        ECLIPA   H13R     HAL1     0.900000E-01   1.00800           0
     10251 LPSA10   1        ECLIPA   O13      OH1     -0.660000       15.9994           0
     10252 LPSA10   1        ECLIPA   HO13     H        0.430000       1.00800           0
     10253 LPSA10   1        ECLIPA   C14      CTL2    -0.180000       12.0110           0
     10254 LPSA10   1        ECLIPA   H14R     HAL2     0.900000E-01   1.00800           0
     10255 LPSA10   1        ECLIPA   H14S     HAL2     0.900000E-01   1.00800           0
     10256 LPSA10   1        ECLIPA   C15      CTL2    -0.180000       12.0110           0
     10257 LPSA10   1        ECLIPA   H15R     HAL2     0.900000E-01   1.00800           0
     10258 LPSA10   1        ECLIPA   H15S     HAL2     0.900000E-01   1.00800           0
     10259 LPSA10   1        ECLIPA   C16      CTL2    -0.180000       12.0110           0
     10260 LPSA10   1        ECLIPA   H16R     HAL2     0.900000E-01   1.00800           0
     10261 LPSA10   1        ECLIPA   H16S     HAL2     0.900000E-01   1.00800           0
     10262 LPSA10   1        ECLIPA   C17      CTL2    -0.180000       12.0110           0
     10263 LPSA10   1        ECLIPA   H17R     HAL2     0.900000E-01   1.00800           0
     10264 LPSA10   1        ECLIPA   H17S     HAL2     0.900000E-01   1.00800           0
     10265 LPSA10   1        ECLIPA   C18      CTL2    -0.180000       12.0110           0
     10266 LPSA10   1        ECLIPA   H18R     HAL2     0.900000E-01   1.00800           0
     10267 LPSA10   1        ECLIPA   H18S     HAL2     0.900000E-01   1.00800           0
     10268 LPSA10   1        ECLIPA   C19      CTL2    -0.180000       12.0110           0
     10269 LPSA10   1        ECLIPA   H19R     HAL2     0.900000E-01   1.00800           0
     10270 LPSA10   1        ECLIPA   H19S     HAL2     0.900000E-01   1.00800           0
     10271 LPSA10   1        ECLIPA   C110     CTL2    -0.180000       12.0110           0
     10272 LPSA10   1        ECLIPA   H110R    HAL2     0.900000E-01   1.00800           0
     10273 LPSA10   1        ECLIPA   H110S    HAL2     0.900000E-01   1.00800           0
     10274 LPSA10   1        ECLIPA   C111     CTL2    -0.180000       12.0110           0
     10275 LPSA10   1        ECLIPA   H111R    HAL2     0.900000E-01   1.00800           0
     10276 LPSA10   1        ECLIPA   H111S    HAL2     0.900000E-01   1.00800           0
     10277 LPSA10   1        ECLIPA   C112     CTL2    -0.180000       12.0110           0
     10278 LPSA10   1        ECLIPA   H112R    HAL2     0.900000E-01   1.00800           0
     10279 LPSA10   1        ECLIPA   H112S    HAL2     0.900000E-01   1.00800           0
     10280 LPSA10   1        ECLIPA   C113     CTL2    -0.180000       12.0110           0
     10281 LPSA10   1        ECLIPA   H113R    HAL2     0.900000E-01   1.00800           0
     10282 LPSA10   1        ECLIPA   H113S    HAL2     0.900000E-01   1.00800           0
     10283 LPSA10   1        ECLIPA   C114     CTL3    -0.270000       12.0110           0
     10284 LPSA10   1        ECLIPA   H114R    HAL3     0.900000E-01   1.00800           0
     10285 LPSA10   1        ECLIPA   H114S    HAL3     0.900000E-01   1.00800           0
     10286 LPSA10   1        ECLIPA   H114T    HAL3     0.900000E-01   1.00800           0
     10287 LPSA10   2        AKDO     C1       CC2O2    0.300000       12.0110           0
     10288 LPSA10   2        AKDO     O11      OC2D2   -0.600000       15.9994           0
     10289 LPSA10   2        AKDO     O12      OC2D2   -0.600000       15.9994           0
     10290 LPSA10   2        AKDO     C2       CC3062   0.280000       12.0110           0
     10291 LPSA10   2        AKDO     C6       CC3163   0.110000       12.0110           0
     10292 LPSA10   2        AKDO     H6       HCA1     0.900000E-01   1.00800           0
     10293 LPSA10   2        AKDO     O6       OC3C61  -0.400000       15.9994           0
     10294 LPSA10   2        AKDO     C3       CC3261  -0.180000       12.0110           0
     10295 LPSA10   2        AKDO     H31      HCA2     0.900000E-01   1.00800           0
     10296 LPSA10   2        AKDO     H32      HCA2     0.900000E-01   1.00800           0
     10297 LPSA10   2        AKDO     C4       CC3161   0.900000E-01   12.0110           0
     10298 LPSA10   2        AKDO     H4       HCA1     0.900000E-01   1.00800           0
     10299 LPSA10   2        AKDO     O4       OC301   -0.360000       15.9994           0
     10300 LPSA10   2        AKDO     C5       CC3161   0.900000E-01   12.0110           0
     10301 LPSA10   2        AKDO     H5       HCA1     0.900000E-01   1.00800           0
     10302 LPSA10   2        AKDO     O5       OC301   -0.360000       15.9994           0
     10303 LPSA10   2        AKDO     C7       CC312    0.140000       12.0110           0
     10304 LPSA10   2        AKDO     H7       HCA1     0.900000E-01   1.00800           0
     10305 LPSA10   2        AKDO     O7       OC311   -0.650000       15.9994           0
     10306 LPSA10   2        AKDO     HO7      HCP1     0.420000       1.00800           0
     10307 LPSA10   2        AKDO     C8       CC322    0.500000E-01   12.0110           0
     10308 LPSA10   2        AKDO     H81      HCA2     0.900000E-01   1.00800           0
     10309 LPSA10   2        AKDO     H82      HCA2     0.900000E-01   1.00800           0
     10310 LPSA10   2        AKDO     O8       OC311   -0.650000       15.9994           0
     10311 LPSA10   2        AKDO     HO8      HCP1     0.420000       1.00800           0
     10312 LPSA10   3        AKDO     C1       CC2O2    0.300000       12.0110           0
     10313 LPSA10   3        AKDO     O11      OC2D2   -0.600000       15.9994           0
     10314 LPSA10   3        AKDO     O12      OC2D2   -0.600000       15.9994           0
     10315 LPSA10   3        AKDO     C2       CC3062   0.280000       12.0110           0
     10316 LPSA10   3        AKDO     C6       CC3163   0.110000       12.0110           0
     10317 LPSA10   3        AKDO     H6       HCA1     0.900000E-01   1.00800           0
     10318 LPSA10   3        AKDO     O6       OC3C61  -0.400000       15.9994           0
     10319 LPSA10   3        AKDO     C3       CC3261  -0.180000       12.0110           0
     10320 LPSA10   3        AKDO     H31      HCA2     0.900000E-01   1.00800           0
     10321 LPSA10   3        AKDO     H32      HCA2     0.900000E-01   1.00800           0
     10322 LPSA10   3        AKDO     C4       CC3161   0.140000       12.0110           0
     10323 LPSA10   3        AKDO     H4       HCA1     0.900000E-01   1.00800           0
     10324 LPSA10   3        AKDO     O4       OC311   -0.650000       15.9994           0
     10325 LPSA10   3        AKDO     HO4      HCP1     0.420000       1.00800           0
     10326 LPSA10   3        AKDO     C5       CC3161   0.140000       12.0110           0
     10327 LPSA10   3        AKDO     H5       HCA1     0.900000E-01   1.00800           0
     10328 LPSA10   3        AKDO     O5       OC311   -0.650000       15.9994           0
     10329 LPSA10   3        AKDO     HO5      HCP1     0.420000       1.00800           0
     10330 LPSA10   3        AKDO     C7       CC312    0.140000       12.0110           0
     10331 LPSA10   3        AKDO     H7       HCA1     0.900000E-01   1.00800           0
     10332 LPSA10   3        AKDO     O7       OC311   -0.650000       15.9994           0
     10333 LPSA10   3        AKDO     HO7      HCP1     0.420000       1.00800           0
     10334 LPSA10   3        AKDO     C8       CC322    0.500000E-01   12.0110           0
     10335 LPSA10   3        AKDO     H81      HCA2     0.900000E-01   1.00800           0
     10336 LPSA10   3        AKDO     H82      HCA2     0.900000E-01   1.00800           0
     10337 LPSA10   3        AKDO     O8       OC311   -0.650000       15.9994           0
     10338 LPSA10   3        AKDO     HO8      HCP1     0.420000       1.00800           0
     10339 LPSA10   4        AHEP     C1       CC3162   0.290000       12.0110           0
     10340 LPSA10   4        AHEP     H1       HCA1     0.900000E-01   1.00800           0
     10341 LPSA10   4        AHEP     C5       CC3163   0.110000       12.0110           0
     10342 LPSA10   4        AHEP     H5       HCA1     0.900000E-01   1.00800           0
     10343 LPSA10   4        AHEP     O5       OC3C61  -0.400000       15.9994           0
     10344 LPSA10   4        AHEP     C2       CC3161   0.140000       12.0110           0
     10345 LPSA10   4        AHEP     H2       HCA1     0.900000E-01   1.00800           0
     10346 LPSA10   4        AHEP     O2       OC311   -0.650000       15.9994           0
     10347 LPSA10   4        AHEP     HO2      HCP1     0.420000       1.00800           0
     10348 LPSA10   4        AHEP     C3       CC3161   0.900000E-01   12.0110           0
     10349 LPSA10   4        AHEP     H3       HCA1     0.900000E-01   1.00800           0
     10350 LPSA10   4        AHEP     O3       OC301   -0.360000       15.9994           0
     10351 LPSA10   4        AHEP     C4       CC3161  -0.900000E-01   12.0110           0
     10352 LPSA10   4        AHEP     H4       HCA1     0.900000E-01   1.00800           0
     10353 LPSA10   4        AHEP     O4       OC30P   -0.400000       15.9994           0
     10354 LPSA10   4        AHEP     P4       PC        1.10000       30.9740           0
     10355 LPSA10   4        AHEP     OP42     OC2DP   -0.900000       15.9994           0
     10356 LPSA10   4        AHEP     OP43     OC2DP   -0.900000       15.9994           0
     10357 LPSA10   4        AHEP     OP44     OC2DP   -0.900000       15.9994           0
     10358 LPSA10   4        AHEP     C6       CC312    0.140000       12.0110           0
     10359 LPSA10   4        AHEP     H6       HCA1     0.900000E-01   1.00800           0
     10360 LPSA10   4        AHEP     O6       OC311   -0.650000       15.9994           0
     10361 LPSA10   4        AHEP     HO6      HCP1     0.420000       1.00800           0
     10362 LPSA10   4        AHEP     C7       CC322    0.500000E-01   12.0110           0
     10363 LPSA10   4        AHEP     H71      HCA2     0.900000E-01   1.00800           0
     10364 LPSA10   4        AHEP     H72      HCA2     0.900000E-01   1.00800           0
     10365 LPSA10   4        AHEP     O7       OC311   -0.650000       15.9994           0
     10366 LPSA10   4        AHEP     HO7      HCP1     0.420000       1.00800           0
     10367 LPSA10   5        AHEP     C1       CC3162   0.290000       12.0110           0
     10368 LPSA10   5        AHEP     H1       HCA1     0.900000E-01   1.00800           0
     10369 LPSA10   5        AHEP     C5       CC3163   0.110000       12.0110           0
     10370 LPSA10   5        AHEP     H5       HCA1     0.900000E-01   1.00800           0
     10371 LPSA10   5        AHEP     O5       OC3C61  -0.400000       15.9994           0
     10372 LPSA10   5        AHEP     C2       CC3161   0.140000       12.0110           0
     10373 LPSA10   5        AHEP     H2       HCA1     0.900000E-01   1.00800           0
     10374 LPSA10   5        AHEP     O2       OC311   -0.650000       15.9994           0
     10375 LPSA10   5        AHEP     HO2      HCP1     0.420000       1.00800           0
     10376 LPSA10   5        AHEP     C3       CC3161   0.900000E-01   12.0110           0
     10377 LPSA10   5        AHEP     H3       HCA1     0.900000E-01   1.00800           0
     10378 LPSA10   5        AHEP     O3       OC301   -0.360000       15.9994           0
     10379 LPSA10   5        AHEP     C4       CC3161  -0.900000E-01   12.0110           0
     10380 LPSA10   5        AHEP     H4       HCA1     0.900000E-01   1.00800           0
     10381 LPSA10   5        AHEP     O4       OC30P   -0.400000       15.9994           0
     10382 LPSA10   5        AHEP     P4       PC        1.10000       30.9740           0
     10383 LPSA10   5        AHEP     OP42     OC2DP   -0.900000       15.9994           0
     10384 LPSA10   5        AHEP     OP43     OC2DP   -0.900000       15.9994           0
     10385 LPSA10   5        AHEP     OP44     OC2DP   -0.900000       15.9994           0
     10386 LPSA10   5        AHEP     C6       CC312    0.140000       12.0110           0
     10387 LPSA10   5        AHEP     H6       HCA1     0.900000E-01   1.00800           0
     10388 LPSA10   5        AHEP     O6       OC311   -0.650000       15.9994           0
     10389 LPSA10   5        AHEP     HO6      HCP1     0.420000       1.00800           0
     10390 LPSA10   5        AHEP     C7       CC322     0.00000       12.0110           0
     10391 LPSA10   5        AHEP     H71      HCA2     0.900000E-01   1.00800           0
     10392 LPSA10   5        AHEP     H72      HCA2     0.900000E-01   1.00800           0
     10393 LPSA10   5        AHEP     O7       OC301   -0.360000       15.9994           0
     10394 LPSA10   6        AHEP     C1       CC3162   0.290000       12.0110           0
     10395 LPSA10   6        AHEP     H1       HCA1     0.900000E-01   1.00800           0
     10396 LPSA10   6        AHEP     C5       CC3163   0.110000       12.0110           0
     10397 LPSA10   6        AHEP     H5       HCA1     0.900000E-01   1.00800           0
     10398 LPSA10   6        AHEP     O5       OC3C61  -0.400000       15.9994           0
     10399 LPSA10   6        AHEP     C2       CC3161   0.140000       12.0110           0
     10400 LPSA10   6        AHEP     H2       HCA1     0.900000E-01   1.00800           0
     10401 LPSA10   6        AHEP     O2       OC311   -0.650000       15.9994           0
     10402 LPSA10   6        AHEP     HO2      HCP1     0.420000       1.00800           0
     10403 LPSA10   6        AHEP     C3       CC3161   0.140000       12.0110           0
     10404 LPSA10   6        AHEP     H3       HCA1     0.900000E-01   1.00800           0
     10405 LPSA10   6        AHEP     O3       OC311   -0.650000       15.9994           0
     10406 LPSA10   6        AHEP     HO3      HCP1     0.420000       1.00800           0
     10407 LPSA10   6        AHEP     C4       CC3161   0.140000       12.0110           0
     10408 LPSA10   6        AHEP     H4       HCA1     0.900000E-01   1.00800           0
     10409 LPSA10   6        AHEP     O4       OC311   -0.650000       15.9994           0
     10410 LPSA10   6        AHEP     HO4      HCP1     0.420000       1.00800           0
     10411 LPSA10   6        AHEP     C6       CC312    0.140000       12.0110           0
     10412 LPSA10   6        AHEP     H6       HCA1     0.900000E-01   1.00800           0
     10413 LPSA10   6        AHEP     O6       OC311   -0.650000       15.9994           0
     10414 LPSA10   6        AHEP     HO6      HCP1     0.420000       1.00800           0
     10415 LPSA10   6        AHEP     C7       CC322    0.500000E-01   12.0110           0
     10416 LPSA10   6        AHEP     H71      HCA2     0.900000E-01   1.00800           0
     10417 LPSA10   6        AHEP     H72      HCA2     0.900000E-01   1.00800           0
     10418 LPSA10   6        AHEP     O7       OC311   -0.650000       15.9994           0
     10419 LPSA10   6        AHEP     HO7      HCP1     0.420000       1.00800           0
     10420 LPSA10   7        AGLC     C1       CC3162   0.290000       12.0110           0
     10421 LPSA10   7        AGLC     H1       HCA1     0.900000E-01   1.00800           0
     10422 LPSA10   7        AGLC     C5       CC3163   0.110000       12.0110           0
     10423 LPSA10   7        AGLC     H5       HCA1     0.900000E-01   1.00800           0
     10424 LPSA10   7        AGLC     O5       OC3C61  -0.400000       15.9994           0
     10425 LPSA10   7        AGLC     C2       CC3161   0.140000       12.0110           0
     10426 LPSA10   7        AGLC     H2       HCA1     0.900000E-01   1.00800           0
     10427 LPSA10   7        AGLC     O2       OC311   -0.650000       15.9994           0
     10428 LPSA10   7        AGLC     HO2      HCP1     0.420000       1.00800           0
     10429 LPSA10   7        AGLC     C3       CC3161   0.900000E-01   12.0110           0
     10430 LPSA10   7        AGLC     H3       HCA1     0.900000E-01   1.00800           0
     10431 LPSA10   7        AGLC     O3       OC301   -0.360000       15.9994           0
     10432 LPSA10   7        AGLC     C4       CC3161   0.140000       12.0110           0
     10433 LPSA10   7        AGLC     H4       HCA1     0.900000E-01   1.00800           0
     10434 LPSA10   7        AGLC     O4       OC311   -0.650000       15.9994           0
     10435 LPSA10   7        AGLC     HO4      HCP1     0.420000       1.00800           0
     10436 LPSA10   7        AGLC     C6       CC321    0.500000E-01   12.0110           0
     10437 LPSA10   7        AGLC     H61      HCA2     0.900000E-01   1.00800           0
     10438 LPSA10   7        AGLC     H62      HCA2     0.900000E-01   1.00800           0
     10439 LPSA10   7        AGLC     O6       OC311   -0.650000       15.9994           0
     10440 LPSA10   7        AGLC     HO6      HCP1     0.420000       1.00800           0
     10441 LPSA10   8        AGLC     C1       CC3162   0.290000       12.0110           0
     10442 LPSA10   8        AGLC     H1       HCA1     0.900000E-01   1.00800           0
     10443 LPSA10   8        AGLC     C5       CC3163   0.110000       12.0110           0
     10444 LPSA10   8        AGLC     H5       HCA1     0.900000E-01   1.00800           0
     10445 LPSA10   8        AGLC     O5       OC3C61  -0.400000       15.9994           0
     10446 LPSA10   8        AGLC     C2       CC3161   0.900000E-01   12.0110           0
     10447 LPSA10   8        AGLC     H2       HCA1     0.900000E-01   1.00800           0
     10448 LPSA10   8        AGLC     O2       OC301   -0.360000       15.9994           0
     10449 LPSA10   8        AGLC     C3       CC3161   0.900000E-01   12.0110           0
     10450 LPSA10   8        AGLC     H3       HCA1     0.900000E-01   1.00800           0
     10451 LPSA10   8        AGLC     O3       OC301   -0.360000       15.9994           0
     10452 LPSA10   8        AGLC     C4       CC3161   0.140000       12.0110           0
     10453 LPSA10   8        AGLC     H4       HCA1     0.900000E-01   1.00800           0
     10454 LPSA10   8        AGLC     O4       OC311   -0.650000       15.9994           0
     10455 LPSA10   8        AGLC     HO4      HCP1     0.420000       1.00800           0
     10456 LPSA10   8        AGLC     C6       CC321    0.500000E-01   12.0110           0
     10457 LPSA10   8        AGLC     H61      HCA2     0.900000E-01   1.00800           0
     10458 LPSA10   8        AGLC     H62      HCA2     0.900000E-01   1.00800           0
     10459 LPSA10   8        AGLC     O6       OC311   -0.650000       15.9994           0
     10460 LPSA10   8        AGLC     HO6      HCP1     0.420000       1.00800           0
     10461 LPSA10   9        AGAL     C1       CC3162   0.290000       12.0110           0
     10462 LPSA10   9        AGAL     H1       HCA1     0.900000E-01   1.00800           0
     10463 LPSA10   9        AGAL     C5       CC3163   0.110000       12.0110           0
     10464 LPSA10   9        AGAL     H5       HCA1     0.900000E-01   1.00800           0
     10465 LPSA10   9        AGAL     O5       OC3C61  -0.400000       15.9994           0
     10466 LPSA10   9        AGAL     C2       CC3161   0.900000E-01   12.0110           0
     10467 LPSA10   9        AGAL     H2       HCA1     0.900000E-01   1.00800           0
     10468 LPSA10   9        AGAL     O2       OC301   -0.360000       15.9994           0
     10469 LPSA10   9        AGAL     C3       CC3161   0.140000       12.0110           0
     10470 LPSA10   9        AGAL     H3       HCA1     0.900000E-01   1.00800           0
     10471 LPSA10   9        AGAL     O3       OC311   -0.650000       15.9994           0
     10472 LPSA10   9        AGAL     HO3      HCP1     0.420000       1.00800           0
     10473 LPSA10   9        AGAL     C4       CC3161   0.140000       12.0110           0
     10474 LPSA10   9        AGAL     H4       HCA1     0.900000E-01   1.00800           0
     10475 LPSA10   9        AGAL     O4       OC311   -0.650000       15.9994           0
     10476 LPSA10   9        AGAL     HO4      HCP1     0.420000       1.00800           0
     10477 LPSA10   9        AGAL     C6       CC321    0.500000E-01   12.0110           0
     10478 LPSA10   9        AGAL     H61      HCA2     0.900000E-01   1.00800           0
     10479 LPSA10   9        AGAL     H62      HCA2     0.900000E-01   1.00800           0
     10480 LPSA10   9        AGAL     O6       OC311   -0.650000       15.9994           0
     10481 LPSA10   9        AGAL     HO6      HCP1     0.420000       1.00800           0
     10482 LPSA10   10       AGAL     C1       CC3162   0.290000       12.0110           0
     10483 LPSA10   10       AGAL     H1       HCA1     0.900000E-01   1.00800           0
     10484 LPSA10   10       AGAL     C5       CC3163   0.110000       12.0110           0
     10485 LPSA10   10       AGAL     H5       HCA1     0.900000E-01   1.00800           0
     10486 LPSA10   10       AGAL     O5       OC3C61  -0.400000       15.9994           0
     10487 LPSA10   10       AGAL     C2       CC3161   0.140000       12.0110           0
     10488 LPSA10   10       AGAL     H2       HCA1     0.900000E-01   1.00800           0
     10489 LPSA10   10       AGAL     O2       OC311   -0.650000       15.9994           0
     10490 LPSA10   10       AGAL     HO2      HCP1     0.420000       1.00800           0
     10491 LPSA10   10       AGAL     C3       CC3161   0.140000       12.0110           0
     10492 LPSA10   10       AGAL     H3       HCA1     0.900000E-01   1.00800           0
     10493 LPSA10   10       AGAL     O3       OC311   -0.650000       15.9994           0
     10494 LPSA10   10       AGAL     HO3      HCP1     0.420000       1.00800           0
     10495 LPSA10   10       AGAL     C4       CC3161   0.140000       12.0110           0
     10496 LPSA10   10       AGAL     H4       HCA1     0.900000E-01   1.00800           0
     10497 LPSA10   10       AGAL     O4       OC311   -0.650000       15.9994           0
     10498 LPSA10   10       AGAL     HO4      HCP1     0.420000       1.00800           0
     10499 LPSA10   10       AGAL     C6       CC321    0.500000E-01   12.0110           0
     10500 LPSA10   10       AGAL     H61      HCA2     0.900000E-01   1.00800           0
     10501 LPSA10   10       AGAL     H62      HCA2     0.900000E-01   1.00800           0
     10502 LPSA10   10       AGAL     O6       OC311   -0.650000       15.9994           0
     10503 LPSA10   10       AGAL     HO6      HCP1     0.420000       1.00800           0
     10504 LPSA10   11       BGLC     C1       CC3162   0.290000       12.0110           0
     10505 LPSA10   11       BGLC     H1       HCA1     0.900000E-01   1.00800           0
     10506 LPSA10   11       BGLC     C5       CC3163   0.110000       12.0110           0
     10507 LPSA10   11       BGLC     H5       HCA1     0.900000E-01   1.00800           0
     10508 LPSA10   11       BGLC     O5       OC3C61  -0.400000       15.9994           0
     10509 LPSA10   11       BGLC     C2       CC3161   0.140000       12.0110           0
     10510 LPSA10   11       BGLC     H2       HCA1     0.900000E-01   1.00800           0
     10511 LPSA10   11       BGLC     O2       OC311   -0.650000       15.9994           0
     10512 LPSA10   11       BGLC     HO2      HCP1     0.420000       1.00800           0
     10513 LPSA10   11       BGLC     C3       CC3161   0.900000E-01   12.0110           0
     10514 LPSA10   11       BGLC     H3       HCA1     0.900000E-01   1.00800           0
     10515 LPSA10   11       BGLC     O3       OC301   -0.360000       15.9994           0
     10516 LPSA10   11       BGLC     C4       CC3161   0.140000       12.0110           0
     10517 LPSA10   11       BGLC     H4       HCA1     0.900000E-01   1.00800           0
     10518 LPSA10   11       BGLC     O4       OC311   -0.650000       15.9994           0
     10519 LPSA10   11       BGLC     HO4      HCP1     0.420000       1.00800           0
     10520 LPSA10   11       BGLC     C6       CC321    0.500000E-01   12.0110           0
     10521 LPSA10   11       BGLC     H61      HCA2     0.900000E-01   1.00800           0
     10522 LPSA10   11       BGLC     H62      HCA2     0.900000E-01   1.00800           0
     10523 LPSA10   11       BGLC     O6       OC311   -0.650000       15.9994           0
     10524 LPSA10   11       BGLC     HO6      HCP1     0.420000       1.00800           0
     10525 LPSA10   12       BGLCNA   C1       CC3162   0.290000       12.0110           0
     10526 LPSA10   12       BGLCNA   H1       HCA1     0.900000E-01   1.00800           0
     10527 LPSA10   12       BGLCNA   C5       CC3163   0.110000       12.0110           0
     10528 LPSA10   12       BGLCNA   H5       HCA1     0.900000E-01   1.00800           0
     10529 LPSA10   12       BGLCNA   O5       OC3C61  -0.400000       15.9994           0
     10530 LPSA10   12       BGLCNA   C2       CC3161   0.700000E-01   12.0110           0
     10531 LPSA10   12       BGLCNA   H2       HCA1     0.900000E-01   1.00800           0
     10532 LPSA10   12       BGLCNA   N        NC2D1   -0.470000       14.0070           0
     10533 LPSA10   12       BGLCNA   HN       HCP1     0.310000       1.00800           0
     10534 LPSA10   12       BGLCNA   C        CC2O1    0.510000       12.0110           0
     10535 LPSA10   12       BGLCNA   O        OC2D1   -0.510000       15.9994           0
     10536 LPSA10   12       BGLCNA   CT       CC331   -0.270000       12.0110           0
     10537 LPSA10   12       BGLCNA   HT1      HCA3     0.900000E-01   1.00800           0
     10538 LPSA10   12       BGLCNA   HT2      HCA3     0.900000E-01   1.00800           0
     10539 LPSA10   12       BGLCNA   HT3      HCA3     0.900000E-01   1.00800           0
     10540 LPSA10   12       BGLCNA   C3       CC3161   0.900000E-01   12.0110           0
     10541 LPSA10   12       BGLCNA   H3       HCA1     0.900000E-01   1.00800           0
     10542 LPSA10   12       BGLCNA   O3       OC301   -0.360000       15.9994           0
     10543 LPSA10   12       BGLCNA   C4       CC3161   0.140000       12.0110           0
     10544 LPSA10   12       BGLCNA   H4       HCA1     0.900000E-01   1.00800           0
     10545 LPSA10   12       BGLCNA   O4       OC311   -0.650000       15.9994           0
     10546 LPSA10   12       BGLCNA   HO4      HCP1     0.420000       1.00800           0
     10547 LPSA10   12       BGLCNA   C6       CC321    0.500000E-01   12.0110           0
     10548 LPSA10   12       BGLCNA   H61      HCA2     0.900000E-01   1.00800           0
     10549 LPSA10   12       BGLCNA   H62      HCA2     0.900000E-01   1.00800           0
     10550 LPSA10   12       BGLCNA   O6       OC311   -0.650000       15.9994           0
     10551 LPSA10   12       BGLCNA   HO6      HCP1     0.420000       1.00800           0
     10552 LPSA10   13       AGAL     C1       CC3162   0.290000       12.0110           0
     10553 LPSA10   13       AGAL     H1       HCA1     0.900000E-01   1.00800           0
     10554 LPSA10   13       AGAL     C5       CC3163   0.110000       12.0110           0
     10555 LPSA10   13       AGAL     H5       HCA1     0.900000E-01   1.00800           0
     10556 LPSA10   13       AGAL     O5       OC3C61  -0.400000       15.9994           0
     10557 LPSA10   13       AGAL     C2       CC3161   0.900000E-01   12.0110           0
     10558 LPSA10   13       AGAL     H2       HCA1     0.900000E-01   1.00800           0
     10559 LPSA10   13       AGAL     O2       OC301   -0.360000       15.9994           0
     10560 LPSA10   13       AGAL     C3       CC3161   0.140000       12.0110           0
     10561 LPSA10   13       AGAL     H3       HCA1     0.900000E-01   1.00800           0
     10562 LPSA10   13       AGAL     O3       OC311   -0.650000       15.9994           0
     10563 LPSA10   13       AGAL     HO3      HCP1     0.420000       1.00800           0
     10564 LPSA10   13       AGAL     C4       CC3161   0.140000       12.0110           0
     10565 LPSA10   13       AGAL     H4       HCA1     0.900000E-01   1.00800           0
     10566 LPSA10   13       AGAL     O4       OC311   -0.650000       15.9994           0
     10567 LPSA10   13       AGAL     HO4      HCP1     0.420000       1.00800           0
     10568 LPSA10   13       AGAL     C6       CC321    0.500000E-01   12.0110           0
     10569 LPSA10   13       AGAL     H61      HCA2     0.900000E-01   1.00800           0
     10570 LPSA10   13       AGAL     H62      HCA2     0.900000E-01   1.00800           0
     10571 LPSA10   13       AGAL     O6       OC311   -0.650000       15.9994           0
     10572 LPSA10   13       AGAL     HO6      HCP1     0.420000       1.00800           0
     10573 LPSA10   14       ARHM     C1       CC3162   0.290000       12.0110           0
     10574 LPSA10   14       ARHM     H1       HCA1     0.900000E-01   1.00800           0
     10575 LPSA10   14       ARHM     C5       CC3163   0.110000       12.0110           0
     10576 LPSA10   14       ARHM     H5       HCA1     0.900000E-01   1.00800           0
     10577 LPSA10   14       ARHM     O5       OC3C61  -0.400000       15.9994           0
     10578 LPSA10   14       ARHM     C2       CC3161   0.900000E-01   12.0110           0
     10579 LPSA10   14       ARHM     H2       HCA1     0.900000E-01   1.00800           0
     10580 LPSA10   14       ARHM     O2       OC301   -0.360000       15.9994           0
     10581 LPSA10   14       ARHM     C3       CC3161   0.140000       12.0110           0
     10582 LPSA10   14       ARHM     H3       HCA1     0.900000E-01   1.00800           0
     10583 LPSA10   14       ARHM     O3       OC311   -0.650000       15.9994           0
     10584 LPSA10   14       ARHM     HO3      HCP1     0.420000       1.00800           0
     10585 LPSA10   14       ARHM     C4       CC3161   0.140000       12.0110           0
     10586 LPSA10   14       ARHM     H4       HCA1     0.900000E-01   1.00800           0
     10587 LPSA10   14       ARHM     O4       OC311   -0.650000       15.9994           0
     10588 LPSA10   14       ARHM     HO4      HCP1     0.420000       1.00800           0
     10589 LPSA10   14       ARHM     C6       CC331   -0.270000       12.0110           0
     10590 LPSA10   14       ARHM     H61      HCA3     0.900000E-01   1.00800           0
     10591 LPSA10   14       ARHM     H62      HCA3     0.900000E-01   1.00800           0
     10592 LPSA10   14       ARHM     H63      HCA3     0.900000E-01   1.00800           0
     10593 LPSA10   15       ARHM     C1       CC3162   0.290000       12.0110           0
     10594 LPSA10   15       ARHM     H1       HCA1     0.900000E-01   1.00800           0
     10595 LPSA10   15       ARHM     C5       CC3163   0.110000       12.0110           0
     10596 LPSA10   15       ARHM     H5       HCA1     0.900000E-01   1.00800           0
     10597 LPSA10   15       ARHM     O5       OC3C61  -0.400000       15.9994           0
     10598 LPSA10   15       ARHM     C2       CC3161   0.900000E-01   12.0110           0
     10599 LPSA10   15       ARHM     H2       HCA1     0.900000E-01   1.00800           0
     10600 LPSA10   15       ARHM     O2       OC301   -0.360000       15.9994           0
     10601 LPSA10   15       ARHM     C3       CC3161   0.900000E-01   12.0110           0
     10602 LPSA10   15       ARHM     H3       HCA1     0.900000E-01   1.00800           0
     10603 LPSA10   15       ARHM     O3       OC301   -0.360000       15.9994           0
     10604 LPSA10   15       ARHM     C4       CC3161   0.140000       12.0110           0
     10605 LPSA10   15       ARHM     H4       HCA1     0.900000E-01   1.00800           0
     10606 LPSA10   15       ARHM     O4       OC311   -0.650000       15.9994           0
     10607 LPSA10   15       ARHM     HO4      HCP1     0.420000       1.00800           0
     10608 LPSA10   15       ARHM     C6       CC331   -0.270000       12.0110           0
     10609 LPSA10   15       ARHM     H61      HCA3     0.900000E-01   1.00800           0
     10610 LPSA10   15       ARHM     H62      HCA3     0.900000E-01   1.00800           0
     10611 LPSA10   15       ARHM     H63      HCA3     0.900000E-01   1.00800           0
     10612 LPSA10   16       BMANNA   C1       CC3162   0.290000       12.0110           0
     10613 LPSA10   16       BMANNA   H1       HCA1     0.900000E-01   1.00800           0
     10614 LPSA10   16       BMANNA   C5       CC3163   0.110000       12.0110           0
     10615 LPSA10   16       BMANNA   H5       HCA1     0.900000E-01   1.00800           0
     10616 LPSA10   16       BMANNA   O5       OC3C61  -0.400000       15.9994           0
     10617 LPSA10   16       BMANNA   C2       CC3161   0.700000E-01   12.0110           0
     10618 LPSA10   16       BMANNA   H2       HCA1     0.900000E-01   1.00800           0
     10619 LPSA10   16       BMANNA   N        NC2D1   -0.470000       14.0070           0
     10620 LPSA10   16       BMANNA   HN       HCP1     0.310000       1.00800           0
     10621 LPSA10   16       BMANNA   C        CC2O1    0.510000       12.0110           0
     10622 LPSA10   16       BMANNA   O        OC2D1   -0.510000       15.9994           0
     10623 LPSA10   16       BMANNA   CT       CC331   -0.270000       12.0110           0
     10624 LPSA10   16       BMANNA   HT1      HCA3     0.900000E-01   1.00800           0
     10625 LPSA10   16       BMANNA   HT2      HCA3     0.900000E-01   1.00800           0
     10626 LPSA10   16       BMANNA   HT3      HCA3     0.900000E-01   1.00800           0
     10627 LPSA10   16       BMANNA   C3       CC3161   0.140000       12.0110           0
     10628 LPSA10   16       BMANNA   H3       HCA1     0.900000E-01   1.00800           0
     10629 LPSA10   16       BMANNA   O3       OC311   -0.650000       15.9994           0
     10630 LPSA10   16       BMANNA   HO3      HCP1     0.420000       1.00800           0
     10631 LPSA10   16       BMANNA   C4       CC3161   0.140000       12.0110           0
     10632 LPSA10   16       BMANNA   H4       HCA1     0.900000E-01   1.00800           0
     10633 LPSA10   16       BMANNA   O4       OC311   -0.650000       15.9994           0
     10634 LPSA10   16       BMANNA   HO4      HCP1     0.420000       1.00800           0
     10635 LPSA10   16       BMANNA   C6       CC321    0.500000E-01   12.0110           0
     10636 LPSA10   16       BMANNA   H61      HCA2     0.900000E-01   1.00800           0
     10637 LPSA10   16       BMANNA   H62      HCA2     0.900000E-01   1.00800           0
     10638 LPSA10   16       BMANNA   O6       OC311   -0.650000       15.9994           0
     10639 LPSA10   16       BMANNA   HO6      HCP1     0.420000       1.00800           0
     10640 LPSA10   17       BGLCNA   C1       CC3162   0.290000       12.0110           0
     10641 LPSA10   17       BGLCNA   H1       HCA1     0.900000E-01   1.00800           0
     10642 LPSA10   17       BGLCNA   C5       CC3163   0.110000       12.0110           0
     10643 LPSA10   17       BGLCNA   H5       HCA1     0.900000E-01   1.00800           0
     10644 LPSA10   17       BGLCNA   O5       OC3C61  -0.400000       15.9994           0
     10645 LPSA10   17       BGLCNA   C2       CC3161   0.700000E-01   12.0110           0
     10646 LPSA10   17       BGLCNA   H2       HCA1     0.900000E-01   1.00800           0
     10647 LPSA10   17       BGLCNA   N        NC2D1   -0.470000       14.0070           0
     10648 LPSA10   17       BGLCNA   HN       HCP1     0.310000       1.00800           0
     10649 LPSA10   17       BGLCNA   C        CC2O1    0.510000       12.0110           0
     10650 LPSA10   17       BGLCNA   O        OC2D1   -0.510000       15.9994           0
     10651 LPSA10   17       BGLCNA   CT       CC331   -0.270000       12.0110           0
     10652 LPSA10   17       BGLCNA   HT1      HCA3     0.900000E-01   1.00800           0
     10653 LPSA10   17       BGLCNA   HT2      HCA3     0.900000E-01   1.00800           0
     10654 LPSA10   17       BGLCNA   HT3      HCA3     0.900000E-01   1.00800           0
     10655 LPSA10   17       BGLCNA   C3       CC3161   0.900000E-01   12.0110           0
     10656 LPSA10   17       BGLCNA   H3       HCA1     0.900000E-01   1.00800           0
     10657 LPSA10   17       BGLCNA   O3       OC301   -0.360000       15.9994           0
     10658 LPSA10   17       BGLCNA   C4       CC3161   0.140000       12.0110           0
     10659 LPSA10   17       BGLCNA   H4       HCA1     0.900000E-01   1.00800           0
     10660 LPSA10   17       BGLCNA   O4       OC311   -0.650000       15.9994           0
     10661 LPSA10   17       BGLCNA   HO4      HCP1     0.420000       1.00800           0
     10662 LPSA10   17       BGLCNA   C6       CC321    0.500000E-01   12.0110           0
     10663 LPSA10   17       BGLCNA   H61      HCA2     0.900000E-01   1.00800           0
     10664 LPSA10   17       BGLCNA   H62      HCA2     0.900000E-01   1.00800           0
     10665 LPSA10   17       BGLCNA   O6       OC311   -0.650000       15.9994           0
     10666 LPSA10   17       BGLCNA   HO6      HCP1     0.420000       1.00800           0
     10667 LPSA10   18       AGAL     C1       CC3162   0.290000       12.0110           0
     10668 LPSA10   18       AGAL     H1       HCA1     0.900000E-01   1.00800           0
     10669 LPSA10   18       AGAL     C5       CC3163   0.110000       12.0110           0
     10670 LPSA10   18       AGAL     H5       HCA1     0.900000E-01   1.00800           0
     10671 LPSA10   18       AGAL     O5       OC3C61  -0.400000       15.9994           0
     10672 LPSA10   18       AGAL     C2       CC3161   0.900000E-01   12.0110           0
     10673 LPSA10   18       AGAL     H2       HCA1     0.900000E-01   1.00800           0
     10674 LPSA10   18       AGAL     O2       OC301   -0.360000       15.9994           0
     10675 LPSA10   18       AGAL     C3       CC3161   0.140000       12.0110           0
     10676 LPSA10   18       AGAL     H3       HCA1     0.900000E-01   1.00800           0
     10677 LPSA10   18       AGAL     O3       OC311   -0.650000       15.9994           0
     10678 LPSA10   18       AGAL     HO3      HCP1     0.420000       1.00800           0
     10679 LPSA10   18       AGAL     C4       CC3161   0.140000       12.0110           0
     10680 LPSA10   18       AGAL     H4       HCA1     0.900000E-01   1.00800           0
     10681 LPSA10   18       AGAL     O4       OC311   -0.650000       15.9994           0
     10682 LPSA10   18       AGAL     HO4      HCP1     0.420000       1.00800           0
     10683 LPSA10   18       AGAL     C6       CC321    0.500000E-01   12.0110           0
     10684 LPSA10   18       AGAL     H61      HCA2     0.900000E-01   1.00800           0
     10685 LPSA10   18       AGAL     H62      HCA2     0.900000E-01   1.00800           0
     10686 LPSA10   18       AGAL     O6       OC311   -0.650000       15.9994           0
     10687 LPSA10   18       AGAL     HO6      HCP1     0.420000       1.00800           0
     10688 LPSA10   19       ARHM     C1       CC3162   0.290000       12.0110           0
     10689 LPSA10   19       ARHM     H1       HCA1     0.900000E-01   1.00800           0
     10690 LPSA10   19       ARHM     C5       CC3163   0.110000       12.0110           0
     10691 LPSA10   19       ARHM     H5       HCA1     0.900000E-01   1.00800           0
     10692 LPSA10   19       ARHM     O5       OC3C61  -0.400000       15.9994           0
     10693 LPSA10   19       ARHM     C2       CC3161   0.900000E-01   12.0110           0
     10694 LPSA10   19       ARHM     H2       HCA1     0.900000E-01   1.00800           0
     10695 LPSA10   19       ARHM     O2       OC301   -0.360000       15.9994           0
     10696 LPSA10   19       ARHM     C3       CC3161   0.140000       12.0110           0
     10697 LPSA10   19       ARHM     H3       HCA1     0.900000E-01   1.00800           0
     10698 LPSA10   19       ARHM     O3       OC311   -0.650000       15.9994           0
     10699 LPSA10   19       ARHM     HO3      HCP1     0.420000       1.00800           0
     10700 LPSA10   19       ARHM     C4       CC3161   0.140000       12.0110           0
     10701 LPSA10   19       ARHM     H4       HCA1     0.900000E-01   1.00800           0
     10702 LPSA10   19       ARHM     O4       OC311   -0.650000       15.9994           0
     10703 LPSA10   19       ARHM     HO4      HCP1     0.420000       1.00800           0
     10704 LPSA10   19       ARHM     C6       CC331   -0.270000       12.0110           0
     10705 LPSA10   19       ARHM     H61      HCA3     0.900000E-01   1.00800           0
     10706 LPSA10   19       ARHM     H62      HCA3     0.900000E-01   1.00800           0
     10707 LPSA10   19       ARHM     H63      HCA3     0.900000E-01   1.00800           0
     10708 LPSA10   20       ARHM     C1       CC3162   0.290000       12.0110           0
     10709 LPSA10   20       ARHM     H1       HCA1     0.900000E-01   1.00800           0
     10710 LPSA10   20       ARHM     C5       CC3163   0.110000       12.0110           0
     10711 LPSA10   20       ARHM     H5       HCA1     0.900000E-01   1.00800           0
     10712 LPSA10   20       ARHM     O5       OC3C61  -0.400000       15.9994           0
     10713 LPSA10   20       ARHM     C2       CC3161   0.900000E-01   12.0110           0
     10714 LPSA10   20       ARHM     H2       HCA1     0.900000E-01   1.00800           0
     10715 LPSA10   20       ARHM     O2       OC301   -0.360000       15.9994           0
     10716 LPSA10   20       ARHM     C3       CC3161   0.900000E-01   12.0110           0
     10717 LPSA10   20       ARHM     H3       HCA1     0.900000E-01   1.00800           0
     10718 LPSA10   20       ARHM     O3       OC301   -0.360000       15.9994           0
     10719 LPSA10   20       ARHM     C4       CC3161   0.140000       12.0110           0
     10720 LPSA10   20       ARHM     H4       HCA1     0.900000E-01   1.00800           0
     10721 LPSA10   20       ARHM     O4       OC311   -0.650000       15.9994           0
     10722 LPSA10   20       ARHM     HO4      HCP1     0.420000       1.00800           0
     10723 LPSA10   20       ARHM     C6       CC331   -0.270000       12.0110           0
     10724 LPSA10   20       ARHM     H61      HCA3     0.900000E-01   1.00800           0
     10725 LPSA10   20       ARHM     H62      HCA3     0.900000E-01   1.00800           0
     10726 LPSA10   20       ARHM     H63      HCA3     0.900000E-01   1.00800           0
     10727 LPSA10   21       BMANNA   C1       CC3162   0.290000       12.0110           0
     10728 LPSA10   21       BMANNA   H1       HCA1     0.900000E-01   1.00800           0
     10729 LPSA10   21       BMANNA   C5       CC3163   0.110000       12.0110           0
     10730 LPSA10   21       BMANNA   H5       HCA1     0.900000E-01   1.00800           0
     10731 LPSA10   21       BMANNA   O5       OC3C61  -0.400000       15.9994           0
     10732 LPSA10   21       BMANNA   C2       CC3161   0.700000E-01   12.0110           0
     10733 LPSA10   21       BMANNA   H2       HCA1     0.900000E-01   1.00800           0
     10734 LPSA10   21       BMANNA   N        NC2D1   -0.470000       14.0070           0
     10735 LPSA10   21       BMANNA   HN       HCP1     0.310000       1.00800           0
     10736 LPSA10   21       BMANNA   C        CC2O1    0.510000       12.0110           0
     10737 LPSA10   21       BMANNA   O        OC2D1   -0.510000       15.9994           0
     10738 LPSA10   21       BMANNA   CT       CC331   -0.270000       12.0110           0
     10739 LPSA10   21       BMANNA   HT1      HCA3     0.900000E-01   1.00800           0
     10740 LPSA10   21       BMANNA   HT2      HCA3     0.900000E-01   1.00800           0
     10741 LPSA10   21       BMANNA   HT3      HCA3     0.900000E-01   1.00800           0
     10742 LPSA10   21       BMANNA   C3       CC3161   0.140000       12.0110           0
     10743 LPSA10   21       BMANNA   H3       HCA1     0.900000E-01   1.00800           0
     10744 LPSA10   21       BMANNA   O3       OC311   -0.650000       15.9994           0
     10745 LPSA10   21       BMANNA   HO3      HCP1     0.420000       1.00800           0
     10746 LPSA10   21       BMANNA   C4       CC3161   0.140000       12.0110           0
     10747 LPSA10   21       BMANNA   H4       HCA1     0.900000E-01   1.00800           0
     10748 LPSA10   21       BMANNA   O4       OC311   -0.650000       15.9994           0
     10749 LPSA10   21       BMANNA   HO4      HCP1     0.420000       1.00800           0
     10750 LPSA10   21       BMANNA   C6       CC321    0.500000E-01   12.0110           0
     10751 LPSA10   21       BMANNA   H61      HCA2     0.900000E-01   1.00800           0
     10752 LPSA10   21       BMANNA   H62      HCA2     0.900000E-01   1.00800           0
     10753 LPSA10   21       BMANNA   O6       OC311   -0.650000       15.9994           0
     10754 LPSA10   21       BMANNA   HO6      HCP1     0.420000       1.00800           0
     10755 LPSA10   22       BGLCNA   C1       CC3162   0.290000       12.0110           0
     10756 LPSA10   22       BGLCNA   H1       HCA1     0.900000E-01   1.00800           0
     10757 LPSA10   22       BGLCNA   C5       CC3163   0.110000       12.0110           0
     10758 LPSA10   22       BGLCNA   H5       HCA1     0.900000E-01   1.00800           0
     10759 LPSA10   22       BGLCNA   O5       OC3C61  -0.400000       15.9994           0
     10760 LPSA10   22       BGLCNA   C2       CC3161   0.700000E-01   12.0110           0
     10761 LPSA10   22       BGLCNA   H2       HCA1     0.900000E-01   1.00800           0
     10762 LPSA10   22       BGLCNA   N        NC2D1   -0.470000       14.0070           0
     10763 LPSA10   22       BGLCNA   HN       HCP1     0.310000       1.00800           0
     10764 LPSA10   22       BGLCNA   C        CC2O1    0.510000       12.0110           0
     10765 LPSA10   22       BGLCNA   O        OC2D1   -0.510000       15.9994           0
     10766 LPSA10   22       BGLCNA   CT       CC331   -0.270000       12.0110           0
     10767 LPSA10   22       BGLCNA   HT1      HCA3     0.900000E-01   1.00800           0
     10768 LPSA10   22       BGLCNA   HT2      HCA3     0.900000E-01   1.00800           0
     10769 LPSA10   22       BGLCNA   HT3      HCA3     0.900000E-01   1.00800           0
     10770 LPSA10   22       BGLCNA   C3       CC3161   0.900000E-01   12.0110           0
     10771 LPSA10   22       BGLCNA   H3       HCA1     0.900000E-01   1.00800           0
     10772 LPSA10   22       BGLCNA   O3       OC301   -0.360000       15.9994           0
     10773 LPSA10   22       BGLCNA   C4       CC3161   0.140000       12.0110           0
     10774 LPSA10   22       BGLCNA   H4       HCA1     0.900000E-01   1.00800           0
     10775 LPSA10   22       BGLCNA   O4       OC311   -0.650000       15.9994           0
     10776 LPSA10   22       BGLCNA   HO4      HCP1     0.420000       1.00800           0
     10777 LPSA10   22       BGLCNA   C6       CC321    0.500000E-01   12.0110           0
     10778 LPSA10   22       BGLCNA   H61      HCA2     0.900000E-01   1.00800           0
     10779 LPSA10   22       BGLCNA   H62      HCA2     0.900000E-01   1.00800           0
     10780 LPSA10   22       BGLCNA   O6       OC311   -0.650000       15.9994           0
     10781 LPSA10   22       BGLCNA   HO6      HCP1     0.420000       1.00800           0
     10782 LPSA10   23       AGAL     C1       CC3162   0.290000       12.0110           0
     10783 LPSA10   23       AGAL     H1       HCA1     0.900000E-01   1.00800           0
     10784 LPSA10   23       AGAL     C5       CC3163   0.110000       12.0110           0
     10785 LPSA10   23       AGAL     H5       HCA1     0.900000E-01   1.00800           0
     10786 LPSA10   23       AGAL     O5       OC3C61  -0.400000       15.9994           0
     10787 LPSA10   23       AGAL     C2       CC3161   0.900000E-01   12.0110           0
     10788 LPSA10   23       AGAL     H2       HCA1     0.900000E-01   1.00800           0
     10789 LPSA10   23       AGAL     O2       OC301   -0.360000       15.9994           0
     10790 LPSA10   23       AGAL     C3       CC3161   0.140000       12.0110           0
     10791 LPSA10   23       AGAL     H3       HCA1     0.900000E-01   1.00800           0
     10792 LPSA10   23       AGAL     O3       OC311   -0.650000       15.9994           0
     10793 LPSA10   23       AGAL     HO3      HCP1     0.420000       1.00800           0
     10794 LPSA10   23       AGAL     C4       CC3161   0.140000       12.0110           0
     10795 LPSA10   23       AGAL     H4       HCA1     0.900000E-01   1.00800           0
     10796 LPSA10   23       AGAL     O4       OC311   -0.650000       15.9994           0
     10797 LPSA10   23       AGAL     HO4      HCP1     0.420000       1.00800           0
     10798 LPSA10   23       AGAL     C6       CC321    0.500000E-01   12.0110           0
     10799 LPSA10   23       AGAL     H61      HCA2     0.900000E-01   1.00800           0
     10800 LPSA10   23       AGAL     H62      HCA2     0.900000E-01   1.00800           0
     10801 LPSA10   23       AGAL     O6       OC311   -0.650000       15.9994           0
     10802 LPSA10   23       AGAL     HO6      HCP1     0.420000       1.00800           0
     10803 LPSA10   24       ARHM     C1       CC3162   0.290000       12.0110           0
     10804 LPSA10   24       ARHM     H1       HCA1     0.900000E-01   1.00800           0
     10805 LPSA10   24       ARHM     C5       CC3163   0.110000       12.0110           0
     10806 LPSA10   24       ARHM     H5       HCA1     0.900000E-01   1.00800           0
     10807 LPSA10   24       ARHM     O5       OC3C61  -0.400000       15.9994           0
     10808 LPSA10   24       ARHM     C2       CC3161   0.900000E-01   12.0110           0
     10809 LPSA10   24       ARHM     H2       HCA1     0.900000E-01   1.00800           0
     10810 LPSA10   24       ARHM     O2       OC301   -0.360000       15.9994           0
     10811 LPSA10   24       ARHM     C3       CC3161   0.140000       12.0110           0
     10812 LPSA10   24       ARHM     H3       HCA1     0.900000E-01   1.00800           0
     10813 LPSA10   24       ARHM     O3       OC311   -0.650000       15.9994           0
     10814 LPSA10   24       ARHM     HO3      HCP1     0.420000       1.00800           0
     10815 LPSA10   24       ARHM     C4       CC3161   0.140000       12.0110           0
     10816 LPSA10   24       ARHM     H4       HCA1     0.900000E-01   1.00800           0
     10817 LPSA10   24       ARHM     O4       OC311   -0.650000       15.9994           0
     10818 LPSA10   24       ARHM     HO4      HCP1     0.420000       1.00800           0
     10819 LPSA10   24       ARHM     C6       CC331   -0.270000       12.0110           0
     10820 LPSA10   24       ARHM     H61      HCA3     0.900000E-01   1.00800           0
     10821 LPSA10   24       ARHM     H62      HCA3     0.900000E-01   1.00800           0
     10822 LPSA10   24       ARHM     H63      HCA3     0.900000E-01   1.00800           0
     10823 LPSA10   25       ARHM     C1       CC3162   0.290000       12.0110           0
     10824 LPSA10   25       ARHM     H1       HCA1     0.900000E-01   1.00800           0
     10825 LPSA10   25       ARHM     C5       CC3163   0.110000       12.0110           0
     10826 LPSA10   25       ARHM     H5       HCA1     0.900000E-01   1.00800           0
     10827 LPSA10   25       ARHM     O5       OC3C61  -0.400000       15.9994           0
     10828 LPSA10   25       ARHM     C2       CC3161   0.900000E-01   12.0110           0
     10829 LPSA10   25       ARHM     H2       HCA1     0.900000E-01   1.00800           0
     10830 LPSA10   25       ARHM     O2       OC301   -0.360000       15.9994           0
     10831 LPSA10   25       ARHM     C3       CC3161   0.900000E-01   12.0110           0
     10832 LPSA10   25       ARHM     H3       HCA1     0.900000E-01   1.00800           0
     10833 LPSA10   25       ARHM     O3       OC301   -0.360000       15.9994           0
     10834 LPSA10   25       ARHM     C4       CC3161   0.140000       12.0110           0
     10835 LPSA10   25       ARHM     H4       HCA1     0.900000E-01   1.00800           0
     10836 LPSA10   25       ARHM     O4       OC311   -0.650000       15.9994           0
     10837 LPSA10   25       ARHM     HO4      HCP1     0.420000       1.00800           0
     10838 LPSA10   25       ARHM     C6       CC331   -0.270000       12.0110           0
     10839 LPSA10   25       ARHM     H61      HCA3     0.900000E-01   1.00800           0
     10840 LPSA10   25       ARHM     H62      HCA3     0.900000E-01   1.00800           0
     10841 LPSA10   25       ARHM     H63      HCA3     0.900000E-01   1.00800           0
     10842 LPSA10   26       BMANNA   C1       CC3162   0.290000       12.0110           0
     10843 LPSA10   26       BMANNA   H1       HCA1     0.900000E-01   1.00800           0
     10844 LPSA10   26       BMANNA   C5       CC3163   0.110000       12.0110           0
     10845 LPSA10   26       BMANNA   H5       HCA1     0.900000E-01   1.00800           0
     10846 LPSA10   26       BMANNA   O5       OC3C61  -0.400000       15.9994           0
     10847 LPSA10   26       BMANNA   C2       CC3161   0.700000E-01   12.0110           0
     10848 LPSA10   26       BMANNA   H2       HCA1     0.900000E-01   1.00800           0
     10849 LPSA10   26       BMANNA   N        NC2D1   -0.470000       14.0070           0
     10850 LPSA10   26       BMANNA   HN       HCP1     0.310000       1.00800           0
     10851 LPSA10   26       BMANNA   C        CC2O1    0.510000       12.0110           0
     10852 LPSA10   26       BMANNA   O        OC2D1   -0.510000       15.9994           0
     10853 LPSA10   26       BMANNA   CT       CC331   -0.270000       12.0110           0
     10854 LPSA10   26       BMANNA   HT1      HCA3     0.900000E-01   1.00800           0
     10855 LPSA10   26       BMANNA   HT2      HCA3     0.900000E-01   1.00800           0
     10856 LPSA10   26       BMANNA   HT3      HCA3     0.900000E-01   1.00800           0
     10857 LPSA10   26       BMANNA   C3       CC3161   0.140000       12.0110           0
     10858 LPSA10   26       BMANNA   H3       HCA1     0.900000E-01   1.00800           0
     10859 LPSA10   26       BMANNA   O3       OC311   -0.650000       15.9994           0
     10860 LPSA10   26       BMANNA   HO3      HCP1     0.420000       1.00800           0
     10861 LPSA10   26       BMANNA   C4       CC3161   0.140000       12.0110           0
     10862 LPSA10   26       BMANNA   H4       HCA1     0.900000E-01   1.00800           0
     10863 LPSA10   26       BMANNA   O4       OC311   -0.650000       15.9994           0
     10864 LPSA10   26       BMANNA   HO4      HCP1     0.420000       1.00800           0
     10865 LPSA10   26       BMANNA   C6       CC321    0.500000E-01   12.0110           0
     10866 LPSA10   26       BMANNA   H61      HCA2     0.900000E-01   1.00800           0
     10867 LPSA10   26       BMANNA   H62      HCA2     0.900000E-01   1.00800           0
     10868 LPSA10   26       BMANNA   O6       OC311   -0.650000       15.9994           0
     10869 LPSA10   26       BMANNA   HO6      HCP1     0.420000       1.00800           0
     10870 LPSA10   27       BGLCNA   C1       CC3162   0.290000       12.0110           0
     10871 LPSA10   27       BGLCNA   H1       HCA1     0.900000E-01   1.00800           0
     10872 LPSA10   27       BGLCNA   C5       CC3163   0.110000       12.0110           0
     10873 LPSA10   27       BGLCNA   H5       HCA1     0.900000E-01   1.00800           0
     10874 LPSA10   27       BGLCNA   O5       OC3C61  -0.400000       15.9994           0
     10875 LPSA10   27       BGLCNA   C2       CC3161   0.700000E-01   12.0110           0
     10876 LPSA10   27       BGLCNA   H2       HCA1     0.900000E-01   1.00800           0
     10877 LPSA10   27       BGLCNA   N        NC2D1   -0.470000       14.0070           0
     10878 LPSA10   27       BGLCNA   HN       HCP1     0.310000       1.00800           0
     10879 LPSA10   27       BGLCNA   C        CC2O1    0.510000       12.0110           0
     10880 LPSA10   27       BGLCNA   O        OC2D1   -0.510000       15.9994           0
     10881 LPSA10   27       BGLCNA   CT       CC331   -0.270000       12.0110           0
     10882 LPSA10   27       BGLCNA   HT1      HCA3     0.900000E-01   1.00800           0
     10883 LPSA10   27       BGLCNA   HT2      HCA3     0.900000E-01   1.00800           0
     10884 LPSA10   27       BGLCNA   HT3      HCA3     0.900000E-01   1.00800           0
     10885 LPSA10   27       BGLCNA   C3       CC3161   0.900000E-01   12.0110           0
     10886 LPSA10   27       BGLCNA   H3       HCA1     0.900000E-01   1.00800           0
     10887 LPSA10   27       BGLCNA   O3       OC301   -0.360000       15.9994           0
     10888 LPSA10   27       BGLCNA   C4       CC3161   0.140000       12.0110           0
     10889 LPSA10   27       BGLCNA   H4       HCA1     0.900000E-01   1.00800           0
     10890 LPSA10   27       BGLCNA   O4       OC311   -0.650000       15.9994           0
     10891 LPSA10   27       BGLCNA   HO4      HCP1     0.420000       1.00800           0
     10892 LPSA10   27       BGLCNA   C6       CC321    0.500000E-01   12.0110           0
     10893 LPSA10   27       BGLCNA   H61      HCA2     0.900000E-01   1.00800           0
     10894 LPSA10   27       BGLCNA   H62      HCA2     0.900000E-01   1.00800           0
     10895 LPSA10   27       BGLCNA   O6       OC311   -0.650000       15.9994           0
     10896 LPSA10   27       BGLCNA   HO6      HCP1     0.420000       1.00800           0
     10897 LPSA10   28       AGAL     C1       CC3162   0.290000       12.0110           0
     10898 LPSA10   28       AGAL     H1       HCA1     0.900000E-01   1.00800           0
     10899 LPSA10   28       AGAL     C5       CC3163   0.110000       12.0110           0
     10900 LPSA10   28       AGAL     H5       HCA1     0.900000E-01   1.00800           0
     10901 LPSA10   28       AGAL     O5       OC3C61  -0.400000       15.9994           0
     10902 LPSA10   28       AGAL     C2       CC3161   0.900000E-01   12.0110           0
     10903 LPSA10   28       AGAL     H2       HCA1     0.900000E-01   1.00800           0
     10904 LPSA10   28       AGAL     O2       OC301   -0.360000       15.9994           0
     10905 LPSA10   28       AGAL     C3       CC3161   0.140000       12.0110           0
     10906 LPSA10   28       AGAL     H3       HCA1     0.900000E-01   1.00800           0
     10907 LPSA10   28       AGAL     O3       OC311   -0.650000       15.9994           0
     10908 LPSA10   28       AGAL     HO3      HCP1     0.420000       1.00800           0
     10909 LPSA10   28       AGAL     C4       CC3161   0.140000       12.0110           0
     10910 LPSA10   28       AGAL     H4       HCA1     0.900000E-01   1.00800           0
     10911 LPSA10   28       AGAL     O4       OC311   -0.650000       15.9994           0
     10912 LPSA10   28       AGAL     HO4      HCP1     0.420000       1.00800           0
     10913 LPSA10   28       AGAL     C6       CC321    0.500000E-01   12.0110           0
     10914 LPSA10   28       AGAL     H61      HCA2     0.900000E-01   1.00800           0
     10915 LPSA10   28       AGAL     H62      HCA2     0.900000E-01   1.00800           0
     10916 LPSA10   28       AGAL     O6       OC311   -0.650000       15.9994           0
     10917 LPSA10   28       AGAL     HO6      HCP1     0.420000       1.00800           0
     10918 LPSA10   29       ARHM     C1       CC3162   0.290000       12.0110           0
     10919 LPSA10   29       ARHM     H1       HCA1     0.900000E-01   1.00800           0
     10920 LPSA10   29       ARHM     C5       CC3163   0.110000       12.0110           0
     10921 LPSA10   29       ARHM     H5       HCA1     0.900000E-01   1.00800           0
     10922 LPSA10   29       ARHM     O5       OC3C61  -0.400000       15.9994           0
     10923 LPSA10   29       ARHM     C2       CC3161   0.900000E-01   12.0110           0
     10924 LPSA10   29       ARHM     H2       HCA1     0.900000E-01   1.00800           0
     10925 LPSA10   29       ARHM     O2       OC301   -0.360000       15.9994           0
     10926 LPSA10   29       ARHM     C3       CC3161   0.140000       12.0110           0
     10927 LPSA10   29       ARHM     H3       HCA1     0.900000E-01   1.00800           0
     10928 LPSA10   29       ARHM     O3       OC311   -0.650000       15.9994           0
     10929 LPSA10   29       ARHM     HO3      HCP1     0.420000       1.00800           0
     10930 LPSA10   29       ARHM     C4       CC3161   0.140000       12.0110           0
     10931 LPSA10   29       ARHM     H4       HCA1     0.900000E-01   1.00800           0
     10932 LPSA10   29       ARHM     O4       OC311   -0.650000       15.9994           0
     10933 LPSA10   29       ARHM     HO4      HCP1     0.420000       1.00800           0
     10934 LPSA10   29       ARHM     C6       CC331   -0.270000       12.0110           0
     10935 LPSA10   29       ARHM     H61      HCA3     0.900000E-01   1.00800           0
     10936 LPSA10   29       ARHM     H62      HCA3     0.900000E-01   1.00800           0
     10937 LPSA10   29       ARHM     H63      HCA3     0.900000E-01   1.00800           0
     10938 LPSA10   30       ARHM     C1       CC3162   0.290000       12.0110           0
     10939 LPSA10   30       ARHM     H1       HCA1     0.900000E-01   1.00800           0
     10940 LPSA10   30       ARHM     C5       CC3163   0.110000       12.0110           0
     10941 LPSA10   30       ARHM     H5       HCA1     0.900000E-01   1.00800           0
     10942 LPSA10   30       ARHM     O5       OC3C61  -0.400000       15.9994           0
     10943 LPSA10   30       ARHM     C2       CC3161   0.900000E-01   12.0110           0
     10944 LPSA10   30       ARHM     H2       HCA1     0.900000E-01   1.00800           0
     10945 LPSA10   30       ARHM     O2       OC301   -0.360000       15.9994           0
     10946 LPSA10   30       ARHM     C3       CC3161   0.900000E-01   12.0110           0
     10947 LPSA10   30       ARHM     H3       HCA1     0.900000E-01   1.00800           0
     10948 LPSA10   30       ARHM     O3       OC301   -0.360000       15.9994           0
     10949 LPSA10   30       ARHM     C4       CC3161   0.140000       12.0110           0
     10950 LPSA10   30       ARHM     H4       HCA1     0.900000E-01   1.00800           0
     10951 LPSA10   30       ARHM     O4       OC311   -0.650000       15.9994           0
     10952 LPSA10   30       ARHM     HO4      HCP1     0.420000       1.00800           0
     10953 LPSA10   30       ARHM     C6       CC331   -0.270000       12.0110           0
     10954 LPSA10   30       ARHM     H61      HCA3     0.900000E-01   1.00800           0
     10955 LPSA10   30       ARHM     H62      HCA3     0.900000E-01   1.00800           0
     10956 LPSA10   30       ARHM     H63      HCA3     0.900000E-01   1.00800           0
     10957 LPSA10   31       BMANNA   C1       CC3162   0.290000       12.0110           0
     10958 LPSA10   31       BMANNA   H1       HCA1     0.900000E-01   1.00800           0
     10959 LPSA10   31       BMANNA   C5       CC3163   0.110000       12.0110           0
     10960 LPSA10   31       BMANNA   H5       HCA1     0.900000E-01   1.00800           0
     10961 LPSA10   31       BMANNA   O5       OC3C61  -0.400000       15.9994           0
     10962 LPSA10   31       BMANNA   C2       CC3161   0.700000E-01   12.0110           0
     10963 LPSA10   31       BMANNA   H2       HCA1     0.900000E-01   1.00800           0
     10964 LPSA10   31       BMANNA   N        NC2D1   -0.470000       14.0070           0
     10965 LPSA10   31       BMANNA   HN       HCP1     0.310000       1.00800           0
     10966 LPSA10   31       BMANNA   C        CC2O1    0.510000       12.0110           0
     10967 LPSA10   31       BMANNA   O        OC2D1   -0.510000       15.9994           0
     10968 LPSA10   31       BMANNA   CT       CC331   -0.270000       12.0110           0
     10969 LPSA10   31       BMANNA   HT1      HCA3     0.900000E-01   1.00800           0
     10970 LPSA10   31       BMANNA   HT2      HCA3     0.900000E-01   1.00800           0
     10971 LPSA10   31       BMANNA   HT3      HCA3     0.900000E-01   1.00800           0
     10972 LPSA10   31       BMANNA   C3       CC3161   0.140000       12.0110           0
     10973 LPSA10   31       BMANNA   H3       HCA1     0.900000E-01   1.00800           0
     10974 LPSA10   31       BMANNA   O3       OC311   -0.650000       15.9994           0
     10975 LPSA10   31       BMANNA   HO3      HCP1     0.420000       1.00800           0
     10976 LPSA10   31       BMANNA   C4       CC3161   0.140000       12.0110           0
     10977 LPSA10   31       BMANNA   H4       HCA1     0.900000E-01   1.00800           0
     10978 LPSA10   31       BMANNA   O4       OC311   -0.650000       15.9994           0
     10979 LPSA10   31       BMANNA   HO4      HCP1     0.420000       1.00800           0
     10980 LPSA10   31       BMANNA   C6       CC321    0.500000E-01   12.0110           0
     10981 LPSA10   31       BMANNA   H61      HCA2     0.900000E-01   1.00800           0
     10982 LPSA10   31       BMANNA   H62      HCA2     0.900000E-01   1.00800           0
     10983 LPSA10   31       BMANNA   O6       OC311   -0.650000       15.9994           0
     10984 LPSA10   31       BMANNA   HO6      HCP1     0.420000       1.00800           0
     10985 LPSA10   32       BGLCNA   C1       CC3162   0.290000       12.0110           0
     10986 LPSA10   32       BGLCNA   H1       HCA1     0.900000E-01   1.00800           0
     10987 LPSA10   32       BGLCNA   C5       CC3163   0.110000       12.0110           0
     10988 LPSA10   32       BGLCNA   H5       HCA1     0.900000E-01   1.00800           0
     10989 LPSA10   32       BGLCNA   O5       OC3C61  -0.400000       15.9994           0
     10990 LPSA10   32       BGLCNA   C2       CC3161   0.700000E-01   12.0110           0
     10991 LPSA10   32       BGLCNA   H2       HCA1     0.900000E-01   1.00800           0
     10992 LPSA10   32       BGLCNA   N        NC2D1   -0.470000       14.0070           0
     10993 LPSA10   32       BGLCNA   HN       HCP1     0.310000       1.00800           0
     10994 LPSA10   32       BGLCNA   C        CC2O1    0.510000       12.0110           0
     10995 LPSA10   32       BGLCNA   O        OC2D1   -0.510000       15.9994           0
     10996 LPSA10   32       BGLCNA   CT       CC331   -0.270000       12.0110           0
     10997 LPSA10   32       BGLCNA   HT1      HCA3     0.900000E-01   1.00800           0
     10998 LPSA10   32       BGLCNA   HT2      HCA3     0.900000E-01   1.00800           0
     10999 LPSA10   32       BGLCNA   HT3      HCA3     0.900000E-01   1.00800           0
     11000 LPSA10   32       BGLCNA   C3       CC3161   0.900000E-01   12.0110           0
     11001 LPSA10   32       BGLCNA   H3       HCA1     0.900000E-01   1.00800           0
     11002 LPSA10   32       BGLCNA   O3       OC301   -0.360000       15.9994           0
     11003 LPSA10   32       BGLCNA   C4       CC3161   0.140000       12.0110           0
     11004 LPSA10   32       BGLCNA   H4       HCA1     0.900000E-01   1.00800           0
     11005 LPSA10   32       BGLCNA   O4       OC311   -0.650000       15.9994           0
     11006 LPSA10   32       BGLCNA   HO4      HCP1     0.420000       1.00800           0
     11007 LPSA10   32       BGLCNA   C6       CC321    0.500000E-01   12.0110           0
     11008 LPSA10   32       BGLCNA   H61      HCA2     0.900000E-01   1.00800           0
     11009 LPSA10   32       BGLCNA   H62      HCA2     0.900000E-01   1.00800           0
     11010 LPSA10   32       BGLCNA   O6       OC311   -0.650000       15.9994           0
     11011 LPSA10   32       BGLCNA   HO6      HCP1     0.420000       1.00800           0
     11012 LPSA10   33       AGAL     C1       CC3162   0.290000       12.0110           0
     11013 LPSA10   33       AGAL     H1       HCA1     0.900000E-01   1.00800           0
     11014 LPSA10   33       AGAL     C5       CC3163   0.110000       12.0110           0
     11015 LPSA10   33       AGAL     H5       HCA1     0.900000E-01   1.00800           0
     11016 LPSA10   33       AGAL     O5       OC3C61  -0.400000       15.9994           0
     11017 LPSA10   33       AGAL     C2       CC3161   0.900000E-01   12.0110           0
     11018 LPSA10   33       AGAL     H2       HCA1     0.900000E-01   1.00800           0
     11019 LPSA10   33       AGAL     O2       OC301   -0.360000       15.9994           0
     11020 LPSA10   33       AGAL     C3       CC3161   0.140000       12.0110           0
     11021 LPSA10   33       AGAL     H3       HCA1     0.900000E-01   1.00800           0
     11022 LPSA10   33       AGAL     O3       OC311   -0.650000       15.9994           0
     11023 LPSA10   33       AGAL     HO3      HCP1     0.420000       1.00800           0
     11024 LPSA10   33       AGAL     C4       CC3161   0.140000       12.0110           0
     11025 LPSA10   33       AGAL     H4       HCA1     0.900000E-01   1.00800           0
     11026 LPSA10   33       AGAL     O4       OC311   -0.650000       15.9994           0
     11027 LPSA10   33       AGAL     HO4      HCP1     0.420000       1.00800           0
     11028 LPSA10   33       AGAL     C6       CC321    0.500000E-01   12.0110           0
     11029 LPSA10   33       AGAL     H61      HCA2     0.900000E-01   1.00800           0
     11030 LPSA10   33       AGAL     H62      HCA2     0.900000E-01   1.00800           0
     11031 LPSA10   33       AGAL     O6       OC311   -0.650000       15.9994           0
     11032 LPSA10   33       AGAL     HO6      HCP1     0.420000       1.00800           0
     11033 LPSA10   34       ARHM     C1       CC3162   0.290000       12.0110           0
     11034 LPSA10   34       ARHM     H1       HCA1     0.900000E-01   1.00800           0
     11035 LPSA10   34       ARHM     C5       CC3163   0.110000       12.0110           0
     11036 LPSA10   34       ARHM     H5       HCA1     0.900000E-01   1.00800           0
     11037 LPSA10   34       ARHM     O5       OC3C61  -0.400000       15.9994           0
     11038 LPSA10   34       ARHM     C2       CC3161   0.900000E-01   12.0110           0
     11039 LPSA10   34       ARHM     H2       HCA1     0.900000E-01   1.00800           0
     11040 LPSA10   34       ARHM     O2       OC301   -0.360000       15.9994           0
     11041 LPSA10   34       ARHM     C3       CC3161   0.140000       12.0110           0
     11042 LPSA10   34       ARHM     H3       HCA1     0.900000E-01   1.00800           0
     11043 LPSA10   34       ARHM     O3       OC311   -0.650000       15.9994           0
     11044 LPSA10   34       ARHM     HO3      HCP1     0.420000       1.00800           0
     11045 LPSA10   34       ARHM     C4       CC3161   0.140000       12.0110           0
     11046 LPSA10   34       ARHM     H4       HCA1     0.900000E-01   1.00800           0
     11047 LPSA10   34       ARHM     O4       OC311   -0.650000       15.9994           0
     11048 LPSA10   34       ARHM     HO4      HCP1     0.420000       1.00800           0
     11049 LPSA10   34       ARHM     C6       CC331   -0.270000       12.0110           0
     11050 LPSA10   34       ARHM     H61      HCA3     0.900000E-01   1.00800           0
     11051 LPSA10   34       ARHM     H62      HCA3     0.900000E-01   1.00800           0
     11052 LPSA10   34       ARHM     H63      HCA3     0.900000E-01   1.00800           0
     11053 LPSA10   35       ARHM     C1       CC3162   0.290000       12.0110           0
     11054 LPSA10   35       ARHM     H1       HCA1     0.900000E-01   1.00800           0
     11055 LPSA10   35       ARHM     C5       CC3163   0.110000       12.0110           0
     11056 LPSA10   35       ARHM     H5       HCA1     0.900000E-01   1.00800           0
     11057 LPSA10   35       ARHM     O5       OC3C61  -0.400000       15.9994           0
     11058 LPSA10   35       ARHM     C2       CC3161   0.900000E-01   12.0110           0
     11059 LPSA10   35       ARHM     H2       HCA1     0.900000E-01   1.00800           0
     11060 LPSA10   35       ARHM     O2       OC301   -0.360000       15.9994           0
     11061 LPSA10   35       ARHM     C3       CC3161   0.140000       12.0110           0
     11062 LPSA10   35       ARHM     H3       HCA1     0.900000E-01   1.00800           0
     11063 LPSA10   35       ARHM     O3       OC311   -0.650000       15.9994           0
     11064 LPSA10   35       ARHM     HO3      HCP1     0.420000       1.00800           0
     11065 LPSA10   35       ARHM     C4       CC3161   0.140000       12.0110           0
     11066 LPSA10   35       ARHM     H4       HCA1     0.900000E-01   1.00800           0
     11067 LPSA10   35       ARHM     O4       OC311   -0.650000       15.9994           0
     11068 LPSA10   35       ARHM     HO4      HCP1     0.420000       1.00800           0
     11069 LPSA10   35       ARHM     C6       CC331   -0.270000       12.0110           0
     11070 LPSA10   35       ARHM     H61      HCA3     0.900000E-01   1.00800           0
     11071 LPSA10   35       ARHM     H62      HCA3     0.900000E-01   1.00800           0
     11072 LPSA10   35       ARHM     H63      HCA3     0.900000E-01   1.00800           0
     11073 LPSA10   36       BMANNA   C1       CC3162   0.290000       12.0110           0
     11074 LPSA10   36       BMANNA   H1       HCA1     0.900000E-01   1.00800           0
     11075 LPSA10   36       BMANNA   C5       CC3163   0.110000       12.0110           0
     11076 LPSA10   36       BMANNA   H5       HCA1     0.900000E-01   1.00800           0
     11077 LPSA10   36       BMANNA   O5       OC3C61  -0.400000       15.9994           0
     11078 LPSA10   36       BMANNA   C2       CC3161   0.700000E-01   12.0110           0
     11079 LPSA10   36       BMANNA   H2       HCA1     0.900000E-01   1.00800           0
     11080 LPSA10   36       BMANNA   N        NC2D1   -0.470000       14.0070           0
     11081 LPSA10   36       BMANNA   HN       HCP1     0.310000       1.00800           0
     11082 LPSA10   36       BMANNA   C        CC2O1    0.510000       12.0110           0
     11083 LPSA10   36       BMANNA   O        OC2D1   -0.510000       15.9994           0
     11084 LPSA10   36       BMANNA   CT       CC331   -0.270000       12.0110           0
     11085 LPSA10   36       BMANNA   HT1      HCA3     0.900000E-01   1.00800           0
     11086 LPSA10   36       BMANNA   HT2      HCA3     0.900000E-01   1.00800           0
     11087 LPSA10   36       BMANNA   HT3      HCA3     0.900000E-01   1.00800           0
     11088 LPSA10   36       BMANNA   C3       CC3161   0.140000       12.0110           0
     11089 LPSA10   36       BMANNA   H3       HCA1     0.900000E-01   1.00800           0
     11090 LPSA10   36       BMANNA   O3       OC311   -0.650000       15.9994           0
     11091 LPSA10   36       BMANNA   HO3      HCP1     0.420000       1.00800           0
     11092 LPSA10   36       BMANNA   C4       CC3161   0.140000       12.0110           0
     11093 LPSA10   36       BMANNA   H4       HCA1     0.900000E-01   1.00800           0
     11094 LPSA10   36       BMANNA   O4       OC311   -0.650000       15.9994           0
     11095 LPSA10   36       BMANNA   HO4      HCP1     0.420000       1.00800           0
     11096 LPSA10   36       BMANNA   C6       CC321    0.500000E-01   12.0110           0
     11097 LPSA10   36       BMANNA   H61      HCA2     0.900000E-01   1.00800           0
     11098 LPSA10   36       BMANNA   H62      HCA2     0.900000E-01   1.00800           0
     11099 LPSA10   36       BMANNA   O6       OC311   -0.650000       15.9994           0
     11100 LPSA10   36       BMANNA   HO6      HCP1     0.420000       1.00800           0
     11101 LPSA11   1        ECLIPA   HB6S     HCA2     0.900000E-01   1.00800           0
     11102 LPSA11   1        ECLIPA   OB6      OC301   -0.360000       15.9994           0
     11103 LPSA11   1        ECLIPA   CB6      CC321     0.00000       12.0110           0
     11104 LPSA11   1        ECLIPA   HB6R     HCA2     0.900000E-01   1.00800           0
     11105 LPSA11   1        ECLIPA   CB5      CC3163   0.110000       12.0110           0
     11106 LPSA11   1        ECLIPA   OB5      OC3C61  -0.400000       15.9994           0
     11107 LPSA11   1        ECLIPA   HB5      HCA1     0.900000E-01   1.00800           0
     11108 LPSA11   1        ECLIPA   CB1      CC3162   0.290000       12.0110           0
     11109 LPSA11   1        ECLIPA   HB1      HCA1     0.900000E-01   1.00800           0
     11110 LPSA11   1        ECLIPA   OA6      OC301   -0.360000       15.9994           0
     11111 LPSA11   1        ECLIPA   CA6      CC321     0.00000       12.0110           0
     11112 LPSA11   1        ECLIPA   HA6R     HCA2     0.900000E-01   1.00800           0
     11113 LPSA11   1        ECLIPA   HA6S     HCA2     0.900000E-01   1.00800           0
     11114 LPSA11   1        ECLIPA   CB4      CC3161  -0.900000E-01   12.0110           0
     11115 LPSA11   1        ECLIPA   HB4      HCA1     0.900000E-01   1.00800           0
     11116 LPSA11   1        ECLIPA   OB4      OC30P   -0.400000       15.9994           0
     11117 LPSA11   1        ECLIPA   PB       PC        1.10000       30.9740           0
     11118 LPSA11   1        ECLIPA   OPB4     OC2DP   -0.900000       15.9994           0
     11119 LPSA11   1        ECLIPA   OPB3     OC2DP   -0.900000       15.9994           0
     11120 LPSA11   1        ECLIPA   OPB2     OC2DP   -0.900000       15.9994           0
     11121 LPSA11   1        ECLIPA   CB3      CC3161   0.170000       12.0110           0
     11122 LPSA11   1        ECLIPA   OB3      OC301   -0.490000       15.9994           0
     11123 LPSA11   1        ECLIPA   HB3      HCA1     0.900000E-01   1.00800           0
     11124 LPSA11   1        ECLIPA   C71      CL       0.900000       12.0110           0
     11125 LPSA11   1        ECLIPA   O71      OBL     -0.630000       15.9994           0
     11126 LPSA11   1        ECLIPA   C72      CTL2    -0.220000       12.0110           0
     11127 LPSA11   1        ECLIPA   H72R     HAL2     0.900000E-01   1.00800           0
     11128 LPSA11   1        ECLIPA   H72S     HAL2     0.900000E-01   1.00800           0
     11129 LPSA11   1        ECLIPA   CB2      CC3161   0.700000E-01   12.0110           0
     11130 LPSA11   1        ECLIPA   HB2      HCA1     0.900000E-01   1.00800           0
     11131 LPSA11   1        ECLIPA   NB2      NC2D1   -0.470000       14.0070           0
     11132 LPSA11   1        ECLIPA   HNB2     HCP1     0.310000       1.00800           0
     11133 LPSA11   1        ECLIPA   CA4      CC3161   0.140000       12.0110           0
     11134 LPSA11   1        ECLIPA   HA4      HCA1     0.900000E-01   1.00800           0
     11135 LPSA11   1        ECLIPA   OA4      OC311   -0.650000       15.9994           0
     11136 LPSA11   1        ECLIPA   HOA4     HCP1     0.420000       1.00800           0
     11137 LPSA11   1        ECLIPA   CA5      CC3163   0.110000       12.0110           0
     11138 LPSA11   1        ECLIPA   HA5      HCA1     0.900000E-01   1.00800           0
     11139 LPSA11   1        ECLIPA   OA5      OC3C61  -0.400000       15.9994           0
     11140 LPSA11   1        ECLIPA   CA1      CC3162   0.110000       12.0110           0
     11141 LPSA11   1        ECLIPA   HA1      HCA1     0.900000E-01   1.00800           0
     11142 LPSA11   1        ECLIPA   OA1      OC30P   -0.400000       15.9994           0
     11143 LPSA11   1        ECLIPA   OPA2     OC2DP   -0.900000       15.9994           0
     11144 LPSA11   1        ECLIPA   OPA3     OC2DP   -0.900000       15.9994           0
     11145 LPSA11   1        ECLIPA   OPA4     OC2DP   -0.900000       15.9994           0
     11146 LPSA11   1        ECLIPA   PA       PC        1.10000       30.9740           0
     11147 LPSA11   1        ECLIPA   CA3      CC3161   0.170000       12.0110           0
     11148 LPSA11   1        ECLIPA   HA3      HCA1     0.900000E-01   1.00800           0
     11149 LPSA11   1        ECLIPA   OA3      OC301   -0.490000       15.9994           0
     11150 LPSA11   1        ECLIPA   C31      CL       0.900000       12.0110           0
     11151 LPSA11   1        ECLIPA   O31      OBL     -0.630000       15.9994           0
     11152 LPSA11   1        ECLIPA   C32      CTL2    -0.220000       12.0110           0
     11153 LPSA11   1        ECLIPA   H32R     HAL2     0.900000E-01   1.00800           0
     11154 LPSA11   1        ECLIPA   H32S     HAL2     0.900000E-01   1.00800           0
     11155 LPSA11   1        ECLIPA   CA2      CC3161   0.700000E-01   12.0110           0
     11156 LPSA11   1        ECLIPA   HA2      HCA1     0.900000E-01   1.00800           0
     11157 LPSA11   1        ECLIPA   NA2      NC2D1   -0.470000       14.0070           0
     11158 LPSA11   1        ECLIPA   HNA2     HCP1     0.310000       1.00800           0
     11159 LPSA11   1        ECLIPA   C73      CTL1     0.170000       12.0110           0
     11160 LPSA11   1        ECLIPA   H73R     HAL1     0.900000E-01   1.00800           0
     11161 LPSA11   1        ECLIPA   O73      OSL     -0.490000       15.9994           0
     11162 LPSA11   1        ECLIPA   C81      CL       0.900000       12.0110           0
     11163 LPSA11   1        ECLIPA   O81      OBL     -0.630000       15.9994           0
     11164 LPSA11   1        ECLIPA   C82      CTL2    -0.220000       12.0110           0
     11165 LPSA11   1        ECLIPA   H82R     HAL2     0.900000E-01   1.00800           0
     11166 LPSA11   1        ECLIPA   H82S     HAL2     0.900000E-01   1.00800           0
     11167 LPSA11   1        ECLIPA   C83      CTL2    -0.180000       12.0110           0
     11168 LPSA11   1        ECLIPA   H83R     HAL2     0.900000E-01   1.00800           0
     11169 LPSA11   1        ECLIPA   H83S     HAL2     0.900000E-01   1.00800           0
     11170 LPSA11   1        ECLIPA   C84      CTL2    -0.180000       12.0110           0
     11171 LPSA11   1        ECLIPA   H84R     HAL2     0.900000E-01   1.00800           0
     11172 LPSA11   1        ECLIPA   H84S     HAL2     0.900000E-01   1.00800           0
     11173 LPSA11   1        ECLIPA   C85      CTL2    -0.180000       12.0110           0
     11174 LPSA11   1        ECLIPA   H85R     HAL2     0.900000E-01   1.00800           0
     11175 LPSA11   1        ECLIPA   H85S     HAL2     0.900000E-01   1.00800           0
     11176 LPSA11   1        ECLIPA   C86      CTL2    -0.180000       12.0110           0
     11177 LPSA11   1        ECLIPA   H86R     HAL2     0.900000E-01   1.00800           0
     11178 LPSA11   1        ECLIPA   H86S     HAL2     0.900000E-01   1.00800           0
     11179 LPSA11   1        ECLIPA   C87      CTL2    -0.180000       12.0110           0
     11180 LPSA11   1        ECLIPA   H87R     HAL2     0.900000E-01   1.00800           0
     11181 LPSA11   1        ECLIPA   H87S     HAL2     0.900000E-01   1.00800           0
     11182 LPSA11   1        ECLIPA   C88      CTL2    -0.180000       12.0110           0
     11183 LPSA11   1        ECLIPA   H88R     HAL2     0.900000E-01   1.00800           0
     11184 LPSA11   1        ECLIPA   H88S     HAL2     0.900000E-01   1.00800           0
     11185 LPSA11   1        ECLIPA   C89      CTL2    -0.180000       12.0110           0
     11186 LPSA11   1        ECLIPA   H89R     HAL2     0.900000E-01   1.00800           0
     11187 LPSA11   1        ECLIPA   H89S     HAL2     0.900000E-01   1.00800           0
     11188 LPSA11   1        ECLIPA   C810     CTL2    -0.180000       12.0110           0
     11189 LPSA11   1        ECLIPA   H810R    HAL2     0.900000E-01   1.00800           0
     11190 LPSA11   1        ECLIPA   H810S    HAL2     0.900000E-01   1.00800           0
     11191 LPSA11   1        ECLIPA   C811     CTL2    -0.180000       12.0110           0
     11192 LPSA11   1        ECLIPA   H811R    HAL2     0.900000E-01   1.00800           0
     11193 LPSA11   1        ECLIPA   H811S    HAL2     0.900000E-01   1.00800           0
     11194 LPSA11   1        ECLIPA   C812     CTL2    -0.180000       12.0110           0
     11195 LPSA11   1        ECLIPA   H812R    HAL2     0.900000E-01   1.00800           0
     11196 LPSA11   1        ECLIPA   H812S    HAL2     0.900000E-01   1.00800           0
     11197 LPSA11   1        ECLIPA   C813     CTL2    -0.180000       12.0110           0
     11198 LPSA11   1        ECLIPA   H813R    HAL2     0.900000E-01   1.00800           0
     11199 LPSA11   1        ECLIPA   H813S    HAL2     0.900000E-01   1.00800           0
     11200 LPSA11   1        ECLIPA   C814     CTL3    -0.270000       12.0110           0
     11201 LPSA11   1        ECLIPA   H814R    HAL3     0.900000E-01   1.00800           0
     11202 LPSA11   1        ECLIPA   H814S    HAL3     0.900000E-01   1.00800           0
     11203 LPSA11   1        ECLIPA   H814T    HAL3     0.900000E-01   1.00800           0
     11204 LPSA11   1        ECLIPA   C74      CTL2    -0.180000       12.0110           0
     11205 LPSA11   1        ECLIPA   H74R     HAL2     0.900000E-01   1.00800           0
     11206 LPSA11   1        ECLIPA   H74S     HAL2     0.900000E-01   1.00800           0
     11207 LPSA11   1        ECLIPA   C75      CTL2    -0.180000       12.0110           0
     11208 LPSA11   1        ECLIPA   H75R     HAL2     0.900000E-01   1.00800           0
     11209 LPSA11   1        ECLIPA   H75S     HAL2     0.900000E-01   1.00800           0
     11210 LPSA11   1        ECLIPA   C76      CTL2    -0.180000       12.0110           0
     11211 LPSA11   1        ECLIPA   H76R     HAL2     0.900000E-01   1.00800           0
     11212 LPSA11   1        ECLIPA   H76S     HAL2     0.900000E-01   1.00800           0
     11213 LPSA11   1        ECLIPA   C77      CTL2    -0.180000       12.0110           0
     11214 LPSA11   1        ECLIPA   H77R     HAL2     0.900000E-01   1.00800           0
     11215 LPSA11   1        ECLIPA   H77S     HAL2     0.900000E-01   1.00800           0
     11216 LPSA11   1        ECLIPA   C78      CTL2    -0.180000       12.0110           0
     11217 LPSA11   1        ECLIPA   H78R     HAL2     0.900000E-01   1.00800           0
     11218 LPSA11   1        ECLIPA   H78S     HAL2     0.900000E-01   1.00800           0
     11219 LPSA11   1        ECLIPA   C79      CTL2    -0.180000       12.0110           0
     11220 LPSA11   1        ECLIPA   H79R     HAL2     0.900000E-01   1.00800           0
     11221 LPSA11   1        ECLIPA   H79S     HAL2     0.900000E-01   1.00800           0
     11222 LPSA11   1        ECLIPA   C710     CTL2    -0.180000       12.0110           0
     11223 LPSA11   1        ECLIPA   H710R    HAL2     0.900000E-01   1.00800           0
     11224 LPSA11   1        ECLIPA   H710S    HAL2     0.900000E-01   1.00800           0
     11225 LPSA11   1        ECLIPA   C711     CTL2    -0.180000       12.0110           0
     11226 LPSA11   1        ECLIPA   H711R    HAL2     0.900000E-01   1.00800           0
     11227 LPSA11   1        ECLIPA   H711S    HAL2     0.900000E-01   1.00800           0
     11228 LPSA11   1        ECLIPA   C712     CTL2    -0.180000       12.0110           0
     11229 LPSA11   1        ECLIPA   H712R    HAL2     0.900000E-01   1.00800           0
     11230 LPSA11   1        ECLIPA   H712S    HAL2     0.900000E-01   1.00800           0
     11231 LPSA11   1        ECLIPA   C713     CTL2    -0.180000       12.0110           0
     11232 LPSA11   1        ECLIPA   H713R    HAL2     0.900000E-01   1.00800           0
     11233 LPSA11   1        ECLIPA   H713S    HAL2     0.900000E-01   1.00800           0
     11234 LPSA11   1        ECLIPA   C714     CTL3    -0.270000       12.0110           0
     11235 LPSA11   1        ECLIPA   H714R    HAL3     0.900000E-01   1.00800           0
     11236 LPSA11   1        ECLIPA   H714S    HAL3     0.900000E-01   1.00800           0
     11237 LPSA11   1        ECLIPA   H714T    HAL3     0.900000E-01   1.00800           0
     11238 LPSA11   1        ECLIPA   C51      CC2O1    0.550000       12.0110           0
     11239 LPSA11   1        ECLIPA   O51      OC2D1   -0.550000       15.9994           0
     11240 LPSA11   1        ECLIPA   C52      CTL2    -0.180000       12.0110           0
     11241 LPSA11   1        ECLIPA   H52R     HAL2     0.900000E-01   1.00800           0
     11242 LPSA11   1        ECLIPA   H52S     HAL2     0.900000E-01   1.00800           0
     11243 LPSA11   1        ECLIPA   C53      CTL1     0.170000       12.0110           0
     11244 LPSA11   1        ECLIPA   H53R     HAL1     0.900000E-01   1.00800           0
     11245 LPSA11   1        ECLIPA   O53      OSL     -0.490000       15.9994           0
     11246 LPSA11   1        ECLIPA   C61      CL       0.900000       12.0110           0
     11247 LPSA11   1        ECLIPA   O61      OBL     -0.630000       15.9994           0
     11248 LPSA11   1        ECLIPA   C62      CTL2    -0.220000       12.0110           0
     11249 LPSA11   1        ECLIPA   H62R     HAL2     0.900000E-01   1.00800           0
     11250 LPSA11   1        ECLIPA   H62S     HAL2     0.900000E-01   1.00800           0
     11251 LPSA11   1        ECLIPA   C63      CTL2    -0.180000       12.0110           0
     11252 LPSA11   1        ECLIPA   H63R     HAL2     0.900000E-01   1.00800           0
     11253 LPSA11   1        ECLIPA   H63S     HAL2     0.900000E-01   1.00800           0
     11254 LPSA11   1        ECLIPA   C64      CTL2    -0.180000       12.0110           0
     11255 LPSA11   1        ECLIPA   H64R     HAL2     0.900000E-01   1.00800           0
     11256 LPSA11   1        ECLIPA   H64S     HAL2     0.900000E-01   1.00800           0
     11257 LPSA11   1        ECLIPA   C65      CTL2    -0.180000       12.0110           0
     11258 LPSA11   1        ECLIPA   H65R     HAL2     0.900000E-01   1.00800           0
     11259 LPSA11   1        ECLIPA   H65S     HAL2     0.900000E-01   1.00800           0
     11260 LPSA11   1        ECLIPA   C66      CTL2    -0.180000       12.0110           0
     11261 LPSA11   1        ECLIPA   H66R     HAL2     0.900000E-01   1.00800           0
     11262 LPSA11   1        ECLIPA   H66S     HAL2     0.900000E-01   1.00800           0
     11263 LPSA11   1        ECLIPA   C67      CTL2    -0.180000       12.0110           0
     11264 LPSA11   1        ECLIPA   H67R     HAL2     0.900000E-01   1.00800           0
     11265 LPSA11   1        ECLIPA   H67S     HAL2     0.900000E-01   1.00800           0
     11266 LPSA11   1        ECLIPA   C68      CTL2    -0.180000       12.0110           0
     11267 LPSA11   1        ECLIPA   H68R     HAL2     0.900000E-01   1.00800           0
     11268 LPSA11   1        ECLIPA   H68S     HAL2     0.900000E-01   1.00800           0
     11269 LPSA11   1        ECLIPA   C69      CTL2    -0.180000       12.0110           0
     11270 LPSA11   1        ECLIPA   H69R     HAL2     0.900000E-01   1.00800           0
     11271 LPSA11   1        ECLIPA   H69S     HAL2     0.900000E-01   1.00800           0
     11272 LPSA11   1        ECLIPA   C610     CTL2    -0.180000       12.0110           0
     11273 LPSA11   1        ECLIPA   H610R    HAL2     0.900000E-01   1.00800           0
     11274 LPSA11   1        ECLIPA   H610S    HAL2     0.900000E-01   1.00800           0
     11275 LPSA11   1        ECLIPA   C611     CTL2    -0.180000       12.0110           0
     11276 LPSA11   1        ECLIPA   H611R    HAL2     0.900000E-01   1.00800           0
     11277 LPSA11   1        ECLIPA   H611S    HAL2     0.900000E-01   1.00800           0
     11278 LPSA11   1        ECLIPA   C612     CTL3    -0.270000       12.0110           0
     11279 LPSA11   1        ECLIPA   H612R    HAL3     0.900000E-01   1.00800           0
     11280 LPSA11   1        ECLIPA   H612S    HAL3     0.900000E-01   1.00800           0
     11281 LPSA11   1        ECLIPA   H612T    HAL3     0.900000E-01   1.00800           0
     11282 LPSA11   1        ECLIPA   C54      CTL2    -0.180000       12.0110           0
     11283 LPSA11   1        ECLIPA   H54R     HAL2     0.900000E-01   1.00800           0
     11284 LPSA11   1        ECLIPA   H54S     HAL2     0.900000E-01   1.00800           0
     11285 LPSA11   1        ECLIPA   C55      CTL2    -0.180000       12.0110           0
     11286 LPSA11   1        ECLIPA   H55R     HAL2     0.900000E-01   1.00800           0
     11287 LPSA11   1        ECLIPA   H55S     HAL2     0.900000E-01   1.00800           0
     11288 LPSA11   1        ECLIPA   C56      CTL2    -0.180000       12.0110           0
     11289 LPSA11   1        ECLIPA   H56R     HAL2     0.900000E-01   1.00800           0
     11290 LPSA11   1        ECLIPA   H56S     HAL2     0.900000E-01   1.00800           0
     11291 LPSA11   1        ECLIPA   C57      CTL2    -0.180000       12.0110           0
     11292 LPSA11   1        ECLIPA   H57R     HAL2     0.900000E-01   1.00800           0
     11293 LPSA11   1        ECLIPA   H57S     HAL2     0.900000E-01   1.00800           0
     11294 LPSA11   1        ECLIPA   C58      CTL2    -0.180000       12.0110           0
     11295 LPSA11   1        ECLIPA   H58R     HAL2     0.900000E-01   1.00800           0
     11296 LPSA11   1        ECLIPA   H58S     HAL2     0.900000E-01   1.00800           0
     11297 LPSA11   1        ECLIPA   C59      CTL2    -0.180000       12.0110           0
     11298 LPSA11   1        ECLIPA   H59R     HAL2     0.900000E-01   1.00800           0
     11299 LPSA11   1        ECLIPA   H59S     HAL2     0.900000E-01   1.00800           0
     11300 LPSA11   1        ECLIPA   C510     CTL2    -0.180000       12.0110           0
     11301 LPSA11   1        ECLIPA   H510R    HAL2     0.900000E-01   1.00800           0
     11302 LPSA11   1        ECLIPA   H510S    HAL2     0.900000E-01   1.00800           0
     11303 LPSA11   1        ECLIPA   C511     CTL2    -0.180000       12.0110           0
     11304 LPSA11   1        ECLIPA   H511R    HAL2     0.900000E-01   1.00800           0
     11305 LPSA11   1        ECLIPA   H511S    HAL2     0.900000E-01   1.00800           0
     11306 LPSA11   1        ECLIPA   C512     CTL2    -0.180000       12.0110           0
     11307 LPSA11   1        ECLIPA   H512R    HAL2     0.900000E-01   1.00800           0
     11308 LPSA11   1        ECLIPA   H512S    HAL2     0.900000E-01   1.00800           0
     11309 LPSA11   1        ECLIPA   C513     CTL2    -0.180000       12.0110           0
     11310 LPSA11   1        ECLIPA   H513R    HAL2     0.900000E-01   1.00800           0
     11311 LPSA11   1        ECLIPA   H513S    HAL2     0.900000E-01   1.00800           0
     11312 LPSA11   1        ECLIPA   C514     CTL3    -0.270000       12.0110           0
     11313 LPSA11   1        ECLIPA   H514R    HAL3     0.900000E-01   1.00800           0
     11314 LPSA11   1        ECLIPA   H514S    HAL3     0.900000E-01   1.00800           0
     11315 LPSA11   1        ECLIPA   H514T    HAL3     0.900000E-01   1.00800           0
     11316 LPSA11   1        ECLIPA   C33      CTL1     0.140000       12.0110           0
     11317 LPSA11   1        ECLIPA   H33R     HAL1     0.900000E-01   1.00800           0
     11318 LPSA11   1        ECLIPA   O33      OH1     -0.660000       15.9994           0
     11319 LPSA11   1        ECLIPA   HO33     H        0.430000       1.00800           0
     11320 LPSA11   1        ECLIPA   C34      CTL2    -0.180000       12.0110           0
     11321 LPSA11   1        ECLIPA   H34R     HAL2     0.900000E-01   1.00800           0
     11322 LPSA11   1        ECLIPA   H34S     HAL2     0.900000E-01   1.00800           0
     11323 LPSA11   1        ECLIPA   C35      CTL2    -0.180000       12.0110           0
     11324 LPSA11   1        ECLIPA   H35R     HAL2     0.900000E-01   1.00800           0
     11325 LPSA11   1        ECLIPA   H35S     HAL2     0.900000E-01   1.00800           0
     11326 LPSA11   1        ECLIPA   C36      CTL2    -0.180000       12.0110           0
     11327 LPSA11   1        ECLIPA   H36R     HAL2     0.900000E-01   1.00800           0
     11328 LPSA11   1        ECLIPA   H36S     HAL2     0.900000E-01   1.00800           0
     11329 LPSA11   1        ECLIPA   C37      CTL2    -0.180000       12.0110           0
     11330 LPSA11   1        ECLIPA   H37R     HAL2     0.900000E-01   1.00800           0
     11331 LPSA11   1        ECLIPA   H37S     HAL2     0.900000E-01   1.00800           0
     11332 LPSA11   1        ECLIPA   C38      CTL2    -0.180000       12.0110           0
     11333 LPSA11   1        ECLIPA   H38R     HAL2     0.900000E-01   1.00800           0
     11334 LPSA11   1        ECLIPA   H38S     HAL2     0.900000E-01   1.00800           0
     11335 LPSA11   1        ECLIPA   C39      CTL2    -0.180000       12.0110           0
     11336 LPSA11   1        ECLIPA   H39R     HAL2     0.900000E-01   1.00800           0
     11337 LPSA11   1        ECLIPA   H39S     HAL2     0.900000E-01   1.00800           0
     11338 LPSA11   1        ECLIPA   C310     CTL2    -0.180000       12.0110           0
     11339 LPSA11   1        ECLIPA   H310R    HAL2     0.900000E-01   1.00800           0
     11340 LPSA11   1        ECLIPA   H310S    HAL2     0.900000E-01   1.00800           0
     11341 LPSA11   1        ECLIPA   C311     CTL2    -0.180000       12.0110           0
     11342 LPSA11   1        ECLIPA   H311R    HAL2     0.900000E-01   1.00800           0
     11343 LPSA11   1        ECLIPA   H311S    HAL2     0.900000E-01   1.00800           0
     11344 LPSA11   1        ECLIPA   C312     CTL2    -0.180000       12.0110           0
     11345 LPSA11   1        ECLIPA   H312R    HAL2     0.900000E-01   1.00800           0
     11346 LPSA11   1        ECLIPA   H312S    HAL2     0.900000E-01   1.00800           0
     11347 LPSA11   1        ECLIPA   C313     CTL2    -0.180000       12.0110           0
     11348 LPSA11   1        ECLIPA   H313R    HAL2     0.900000E-01   1.00800           0
     11349 LPSA11   1        ECLIPA   H313S    HAL2     0.900000E-01   1.00800           0
     11350 LPSA11   1        ECLIPA   C314     CTL3    -0.270000       12.0110           0
     11351 LPSA11   1        ECLIPA   H314R    HAL3     0.900000E-01   1.00800           0
     11352 LPSA11   1        ECLIPA   H314S    HAL3     0.900000E-01   1.00800           0
     11353 LPSA11   1        ECLIPA   H314T    HAL3     0.900000E-01   1.00800           0
     11354 LPSA11   1        ECLIPA   C11      CC2O1    0.550000       12.0110           0
     11355 LPSA11   1        ECLIPA   O11      OC2D1   -0.550000       15.9994           0
     11356 LPSA11   1        ECLIPA   C12      CTL2    -0.180000       12.0110           0
     11357 LPSA11   1        ECLIPA   H12R     HAL2     0.900000E-01   1.00800           0
     11358 LPSA11   1        ECLIPA   H12S     HAL2     0.900000E-01   1.00800           0
     11359 LPSA11   1        ECLIPA   C13      CTL1     0.140000       12.0110           0
     11360 LPSA11   1        ECLIPA   H13R     HAL1     0.900000E-01   1.00800           0
     11361 LPSA11   1        ECLIPA   O13      OH1     -0.660000       15.9994           0
     11362 LPSA11   1        ECLIPA   HO13     H        0.430000       1.00800           0
     11363 LPSA11   1        ECLIPA   C14      CTL2    -0.180000       12.0110           0
     11364 LPSA11   1        ECLIPA   H14R     HAL2     0.900000E-01   1.00800           0
     11365 LPSA11   1        ECLIPA   H14S     HAL2     0.900000E-01   1.00800           0
     11366 LPSA11   1        ECLIPA   C15      CTL2    -0.180000       12.0110           0
     11367 LPSA11   1        ECLIPA   H15R     HAL2     0.900000E-01   1.00800           0
     11368 LPSA11   1        ECLIPA   H15S     HAL2     0.900000E-01   1.00800           0
     11369 LPSA11   1        ECLIPA   C16      CTL2    -0.180000       12.0110           0
     11370 LPSA11   1        ECLIPA   H16R     HAL2     0.900000E-01   1.00800           0
     11371 LPSA11   1        ECLIPA   H16S     HAL2     0.900000E-01   1.00800           0
     11372 LPSA11   1        ECLIPA   C17      CTL2    -0.180000       12.0110           0
     11373 LPSA11   1        ECLIPA   H17R     HAL2     0.900000E-01   1.00800           0
     11374 LPSA11   1        ECLIPA   H17S     HAL2     0.900000E-01   1.00800           0
     11375 LPSA11   1        ECLIPA   C18      CTL2    -0.180000       12.0110           0
     11376 LPSA11   1        ECLIPA   H18R     HAL2     0.900000E-01   1.00800           0
     11377 LPSA11   1        ECLIPA   H18S     HAL2     0.900000E-01   1.00800           0
     11378 LPSA11   1        ECLIPA   C19      CTL2    -0.180000       12.0110           0
     11379 LPSA11   1        ECLIPA   H19R     HAL2     0.900000E-01   1.00800           0
     11380 LPSA11   1        ECLIPA   H19S     HAL2     0.900000E-01   1.00800           0
     11381 LPSA11   1        ECLIPA   C110     CTL2    -0.180000       12.0110           0
     11382 LPSA11   1        ECLIPA   H110R    HAL2     0.900000E-01   1.00800           0
     11383 LPSA11   1        ECLIPA   H110S    HAL2     0.900000E-01   1.00800           0
     11384 LPSA11   1        ECLIPA   C111     CTL2    -0.180000       12.0110           0
     11385 LPSA11   1        ECLIPA   H111R    HAL2     0.900000E-01   1.00800           0
     11386 LPSA11   1        ECLIPA   H111S    HAL2     0.900000E-01   1.00800           0
     11387 LPSA11   1        ECLIPA   C112     CTL2    -0.180000       12.0110           0
     11388 LPSA11   1        ECLIPA   H112R    HAL2     0.900000E-01   1.00800           0
     11389 LPSA11   1        ECLIPA   H112S    HAL2     0.900000E-01   1.00800           0
     11390 LPSA11   1        ECLIPA   C113     CTL2    -0.180000       12.0110           0
     11391 LPSA11   1        ECLIPA   H113R    HAL2     0.900000E-01   1.00800           0
     11392 LPSA11   1        ECLIPA   H113S    HAL2     0.900000E-01   1.00800           0
     11393 LPSA11   1        ECLIPA   C114     CTL3    -0.270000       12.0110           0
     11394 LPSA11   1        ECLIPA   H114R    HAL3     0.900000E-01   1.00800           0
     11395 LPSA11   1        ECLIPA   H114S    HAL3     0.900000E-01   1.00800           0
     11396 LPSA11   1        ECLIPA   H114T    HAL3     0.900000E-01   1.00800           0
     11397 LPSA11   2        AKDO     C1       CC2O2    0.300000       12.0110           0
     11398 LPSA11   2        AKDO     O11      OC2D2   -0.600000       15.9994           0
     11399 LPSA11   2        AKDO     O12      OC2D2   -0.600000       15.9994           0
     11400 LPSA11   2        AKDO     C2       CC3062   0.280000       12.0110           0
     11401 LPSA11   2        AKDO     C6       CC3163   0.110000       12.0110           0
     11402 LPSA11   2        AKDO     H6       HCA1     0.900000E-01   1.00800           0
     11403 LPSA11   2        AKDO     O6       OC3C61  -0.400000       15.9994           0
     11404 LPSA11   2        AKDO     C3       CC3261  -0.180000       12.0110           0
     11405 LPSA11   2        AKDO     H31      HCA2     0.900000E-01   1.00800           0
     11406 LPSA11   2        AKDO     H32      HCA2     0.900000E-01   1.00800           0
     11407 LPSA11   2        AKDO     C4       CC3161   0.900000E-01   12.0110           0
     11408 LPSA11   2        AKDO     H4       HCA1     0.900000E-01   1.00800           0
     11409 LPSA11   2        AKDO     O4       OC301   -0.360000       15.9994           0
     11410 LPSA11   2        AKDO     C5       CC3161   0.900000E-01   12.0110           0
     11411 LPSA11   2        AKDO     H5       HCA1     0.900000E-01   1.00800           0
     11412 LPSA11   2        AKDO     O5       OC301   -0.360000       15.9994           0
     11413 LPSA11   2        AKDO     C7       CC312    0.140000       12.0110           0
     11414 LPSA11   2        AKDO     H7       HCA1     0.900000E-01   1.00800           0
     11415 LPSA11   2        AKDO     O7       OC311   -0.650000       15.9994           0
     11416 LPSA11   2        AKDO     HO7      HCP1     0.420000       1.00800           0
     11417 LPSA11   2        AKDO     C8       CC322    0.500000E-01   12.0110           0
     11418 LPSA11   2        AKDO     H81      HCA2     0.900000E-01   1.00800           0
     11419 LPSA11   2        AKDO     H82      HCA2     0.900000E-01   1.00800           0
     11420 LPSA11   2        AKDO     O8       OC311   -0.650000       15.9994           0
     11421 LPSA11   2        AKDO     HO8      HCP1     0.420000       1.00800           0
     11422 LPSA11   3        AKDO     C1       CC2O2    0.300000       12.0110           0
     11423 LPSA11   3        AKDO     O11      OC2D2   -0.600000       15.9994           0
     11424 LPSA11   3        AKDO     O12      OC2D2   -0.600000       15.9994           0
     11425 LPSA11   3        AKDO     C2       CC3062   0.280000       12.0110           0
     11426 LPSA11   3        AKDO     C6       CC3163   0.110000       12.0110           0
     11427 LPSA11   3        AKDO     H6       HCA1     0.900000E-01   1.00800           0
     11428 LPSA11   3        AKDO     O6       OC3C61  -0.400000       15.9994           0
     11429 LPSA11   3        AKDO     C3       CC3261  -0.180000       12.0110           0
     11430 LPSA11   3        AKDO     H31      HCA2     0.900000E-01   1.00800           0
     11431 LPSA11   3        AKDO     H32      HCA2     0.900000E-01   1.00800           0
     11432 LPSA11   3        AKDO     C4       CC3161   0.140000       12.0110           0
     11433 LPSA11   3        AKDO     H4       HCA1     0.900000E-01   1.00800           0
     11434 LPSA11   3        AKDO     O4       OC311   -0.650000       15.9994           0
     11435 LPSA11   3        AKDO     HO4      HCP1     0.420000       1.00800           0
     11436 LPSA11   3        AKDO     C5       CC3161   0.140000       12.0110           0
     11437 LPSA11   3        AKDO     H5       HCA1     0.900000E-01   1.00800           0
     11438 LPSA11   3        AKDO     O5       OC311   -0.650000       15.9994           0
     11439 LPSA11   3        AKDO     HO5      HCP1     0.420000       1.00800           0
     11440 LPSA11   3        AKDO     C7       CC312    0.140000       12.0110           0
     11441 LPSA11   3        AKDO     H7       HCA1     0.900000E-01   1.00800           0
     11442 LPSA11   3        AKDO     O7       OC311   -0.650000       15.9994           0
     11443 LPSA11   3        AKDO     HO7      HCP1     0.420000       1.00800           0
     11444 LPSA11   3        AKDO     C8       CC322    0.500000E-01   12.0110           0
     11445 LPSA11   3        AKDO     H81      HCA2     0.900000E-01   1.00800           0
     11446 LPSA11   3        AKDO     H82      HCA2     0.900000E-01   1.00800           0
     11447 LPSA11   3        AKDO     O8       OC311   -0.650000       15.9994           0
     11448 LPSA11   3        AKDO     HO8      HCP1     0.420000       1.00800           0
     11449 LPSA11   4        AHEP     C1       CC3162   0.290000       12.0110           0
     11450 LPSA11   4        AHEP     H1       HCA1     0.900000E-01   1.00800           0
     11451 LPSA11   4        AHEP     C5       CC3163   0.110000       12.0110           0
     11452 LPSA11   4        AHEP     H5       HCA1     0.900000E-01   1.00800           0
     11453 LPSA11   4        AHEP     O5       OC3C61  -0.400000       15.9994           0
     11454 LPSA11   4        AHEP     C2       CC3161   0.140000       12.0110           0
     11455 LPSA11   4        AHEP     H2       HCA1     0.900000E-01   1.00800           0
     11456 LPSA11   4        AHEP     O2       OC311   -0.650000       15.9994           0
     11457 LPSA11   4        AHEP     HO2      HCP1     0.420000       1.00800           0
     11458 LPSA11   4        AHEP     C3       CC3161   0.900000E-01   12.0110           0
     11459 LPSA11   4        AHEP     H3       HCA1     0.900000E-01   1.00800           0
     11460 LPSA11   4        AHEP     O3       OC301   -0.360000       15.9994           0
     11461 LPSA11   4        AHEP     C4       CC3161  -0.900000E-01   12.0110           0
     11462 LPSA11   4        AHEP     H4       HCA1     0.900000E-01   1.00800           0
     11463 LPSA11   4        AHEP     O4       OC30P   -0.400000       15.9994           0
     11464 LPSA11   4        AHEP     P4       PC        1.10000       30.9740           0
     11465 LPSA11   4        AHEP     OP42     OC2DP   -0.900000       15.9994           0
     11466 LPSA11   4        AHEP     OP43     OC2DP   -0.900000       15.9994           0
     11467 LPSA11   4        AHEP     OP44     OC2DP   -0.900000       15.9994           0
     11468 LPSA11   4        AHEP     C6       CC312    0.140000       12.0110           0
     11469 LPSA11   4        AHEP     H6       HCA1     0.900000E-01   1.00800           0
     11470 LPSA11   4        AHEP     O6       OC311   -0.650000       15.9994           0
     11471 LPSA11   4        AHEP     HO6      HCP1     0.420000       1.00800           0
     11472 LPSA11   4        AHEP     C7       CC322    0.500000E-01   12.0110           0
     11473 LPSA11   4        AHEP     H71      HCA2     0.900000E-01   1.00800           0
     11474 LPSA11   4        AHEP     H72      HCA2     0.900000E-01   1.00800           0
     11475 LPSA11   4        AHEP     O7       OC311   -0.650000       15.9994           0
     11476 LPSA11   4        AHEP     HO7      HCP1     0.420000       1.00800           0
     11477 LPSA11   5        AHEP     C1       CC3162   0.290000       12.0110           0
     11478 LPSA11   5        AHEP     H1       HCA1     0.900000E-01   1.00800           0
     11479 LPSA11   5        AHEP     C5       CC3163   0.110000       12.0110           0
     11480 LPSA11   5        AHEP     H5       HCA1     0.900000E-01   1.00800           0
     11481 LPSA11   5        AHEP     O5       OC3C61  -0.400000       15.9994           0
     11482 LPSA11   5        AHEP     C2       CC3161   0.140000       12.0110           0
     11483 LPSA11   5        AHEP     H2       HCA1     0.900000E-01   1.00800           0
     11484 LPSA11   5        AHEP     O2       OC311   -0.650000       15.9994           0
     11485 LPSA11   5        AHEP     HO2      HCP1     0.420000       1.00800           0
     11486 LPSA11   5        AHEP     C3       CC3161   0.900000E-01   12.0110           0
     11487 LPSA11   5        AHEP     H3       HCA1     0.900000E-01   1.00800           0
     11488 LPSA11   5        AHEP     O3       OC301   -0.360000       15.9994           0
     11489 LPSA11   5        AHEP     C4       CC3161  -0.900000E-01   12.0110           0
     11490 LPSA11   5        AHEP     H4       HCA1     0.900000E-01   1.00800           0
     11491 LPSA11   5        AHEP     O4       OC30P   -0.400000       15.9994           0
     11492 LPSA11   5        AHEP     P4       PC        1.10000       30.9740           0
     11493 LPSA11   5        AHEP     OP42     OC2DP   -0.900000       15.9994           0
     11494 LPSA11   5        AHEP     OP43     OC2DP   -0.900000       15.9994           0
     11495 LPSA11   5        AHEP     OP44     OC2DP   -0.900000       15.9994           0
     11496 LPSA11   5        AHEP     C6       CC312    0.140000       12.0110           0
     11497 LPSA11   5        AHEP     H6       HCA1     0.900000E-01   1.00800           0
     11498 LPSA11   5        AHEP     O6       OC311   -0.650000       15.9994           0
     11499 LPSA11   5        AHEP     HO6      HCP1     0.420000       1.00800           0
     11500 LPSA11   5        AHEP     C7       CC322     0.00000       12.0110           0
     11501 LPSA11   5        AHEP     H71      HCA2     0.900000E-01   1.00800           0
     11502 LPSA11   5        AHEP     H72      HCA2     0.900000E-01   1.00800           0
     11503 LPSA11   5        AHEP     O7       OC301   -0.360000       15.9994           0
     11504 LPSA11   6        AHEP     C1       CC3162   0.290000       12.0110           0
     11505 LPSA11   6        AHEP     H1       HCA1     0.900000E-01   1.00800           0
     11506 LPSA11   6        AHEP     C5       CC3163   0.110000       12.0110           0
     11507 LPSA11   6        AHEP     H5       HCA1     0.900000E-01   1.00800           0
     11508 LPSA11   6        AHEP     O5       OC3C61  -0.400000       15.9994           0
     11509 LPSA11   6        AHEP     C2       CC3161   0.140000       12.0110           0
     11510 LPSA11   6        AHEP     H2       HCA1     0.900000E-01   1.00800           0
     11511 LPSA11   6        AHEP     O2       OC311   -0.650000       15.9994           0
     11512 LPSA11   6        AHEP     HO2      HCP1     0.420000       1.00800           0
     11513 LPSA11   6        AHEP     C3       CC3161   0.140000       12.0110           0
     11514 LPSA11   6        AHEP     H3       HCA1     0.900000E-01   1.00800           0
     11515 LPSA11   6        AHEP     O3       OC311   -0.650000       15.9994           0
     11516 LPSA11   6        AHEP     HO3      HCP1     0.420000       1.00800           0
     11517 LPSA11   6        AHEP     C4       CC3161   0.140000       12.0110           0
     11518 LPSA11   6        AHEP     H4       HCA1     0.900000E-01   1.00800           0
     11519 LPSA11   6        AHEP     O4       OC311   -0.650000       15.9994           0
     11520 LPSA11   6        AHEP     HO4      HCP1     0.420000       1.00800           0
     11521 LPSA11   6        AHEP     C6       CC312    0.140000       12.0110           0
     11522 LPSA11   6        AHEP     H6       HCA1     0.900000E-01   1.00800           0
     11523 LPSA11   6        AHEP     O6       OC311   -0.650000       15.9994           0
     11524 LPSA11   6        AHEP     HO6      HCP1     0.420000       1.00800           0
     11525 LPSA11   6        AHEP     C7       CC322    0.500000E-01   12.0110           0
     11526 LPSA11   6        AHEP     H71      HCA2     0.900000E-01   1.00800           0
     11527 LPSA11   6        AHEP     H72      HCA2     0.900000E-01   1.00800           0
     11528 LPSA11   6        AHEP     O7       OC311   -0.650000       15.9994           0
     11529 LPSA11   6        AHEP     HO7      HCP1     0.420000       1.00800           0
     11530 LPSA11   7        AGLC     C1       CC3162   0.290000       12.0110           0
     11531 LPSA11   7        AGLC     H1       HCA1     0.900000E-01   1.00800           0
     11532 LPSA11   7        AGLC     C5       CC3163   0.110000       12.0110           0
     11533 LPSA11   7        AGLC     H5       HCA1     0.900000E-01   1.00800           0
     11534 LPSA11   7        AGLC     O5       OC3C61  -0.400000       15.9994           0
     11535 LPSA11   7        AGLC     C2       CC3161   0.140000       12.0110           0
     11536 LPSA11   7        AGLC     H2       HCA1     0.900000E-01   1.00800           0
     11537 LPSA11   7        AGLC     O2       OC311   -0.650000       15.9994           0
     11538 LPSA11   7        AGLC     HO2      HCP1     0.420000       1.00800           0
     11539 LPSA11   7        AGLC     C3       CC3161   0.900000E-01   12.0110           0
     11540 LPSA11   7        AGLC     H3       HCA1     0.900000E-01   1.00800           0
     11541 LPSA11   7        AGLC     O3       OC301   -0.360000       15.9994           0
     11542 LPSA11   7        AGLC     C4       CC3161   0.140000       12.0110           0
     11543 LPSA11   7        AGLC     H4       HCA1     0.900000E-01   1.00800           0
     11544 LPSA11   7        AGLC     O4       OC311   -0.650000       15.9994           0
     11545 LPSA11   7        AGLC     HO4      HCP1     0.420000       1.00800           0
     11546 LPSA11   7        AGLC     C6       CC321    0.500000E-01   12.0110           0
     11547 LPSA11   7        AGLC     H61      HCA2     0.900000E-01   1.00800           0
     11548 LPSA11   7        AGLC     H62      HCA2     0.900000E-01   1.00800           0
     11549 LPSA11   7        AGLC     O6       OC311   -0.650000       15.9994           0
     11550 LPSA11   7        AGLC     HO6      HCP1     0.420000       1.00800           0
     11551 LPSA11   8        AGLC     C1       CC3162   0.290000       12.0110           0
     11552 LPSA11   8        AGLC     H1       HCA1     0.900000E-01   1.00800           0
     11553 LPSA11   8        AGLC     C5       CC3163   0.110000       12.0110           0
     11554 LPSA11   8        AGLC     H5       HCA1     0.900000E-01   1.00800           0
     11555 LPSA11   8        AGLC     O5       OC3C61  -0.400000       15.9994           0
     11556 LPSA11   8        AGLC     C2       CC3161   0.900000E-01   12.0110           0
     11557 LPSA11   8        AGLC     H2       HCA1     0.900000E-01   1.00800           0
     11558 LPSA11   8        AGLC     O2       OC301   -0.360000       15.9994           0
     11559 LPSA11   8        AGLC     C3       CC3161   0.900000E-01   12.0110           0
     11560 LPSA11   8        AGLC     H3       HCA1     0.900000E-01   1.00800           0
     11561 LPSA11   8        AGLC     O3       OC301   -0.360000       15.9994           0
     11562 LPSA11   8        AGLC     C4       CC3161   0.140000       12.0110           0
     11563 LPSA11   8        AGLC     H4       HCA1     0.900000E-01   1.00800           0
     11564 LPSA11   8        AGLC     O4       OC311   -0.650000       15.9994           0
     11565 LPSA11   8        AGLC     HO4      HCP1     0.420000       1.00800           0
     11566 LPSA11   8        AGLC     C6       CC321    0.500000E-01   12.0110           0
     11567 LPSA11   8        AGLC     H61      HCA2     0.900000E-01   1.00800           0
     11568 LPSA11   8        AGLC     H62      HCA2     0.900000E-01   1.00800           0
     11569 LPSA11   8        AGLC     O6       OC311   -0.650000       15.9994           0
     11570 LPSA11   8        AGLC     HO6      HCP1     0.420000       1.00800           0
     11571 LPSA11   9        AGAL     C1       CC3162   0.290000       12.0110           0
     11572 LPSA11   9        AGAL     H1       HCA1     0.900000E-01   1.00800           0
     11573 LPSA11   9        AGAL     C5       CC3163   0.110000       12.0110           0
     11574 LPSA11   9        AGAL     H5       HCA1     0.900000E-01   1.00800           0
     11575 LPSA11   9        AGAL     O5       OC3C61  -0.400000       15.9994           0
     11576 LPSA11   9        AGAL     C2       CC3161   0.900000E-01   12.0110           0
     11577 LPSA11   9        AGAL     H2       HCA1     0.900000E-01   1.00800           0
     11578 LPSA11   9        AGAL     O2       OC301   -0.360000       15.9994           0
     11579 LPSA11   9        AGAL     C3       CC3161   0.140000       12.0110           0
     11580 LPSA11   9        AGAL     H3       HCA1     0.900000E-01   1.00800           0
     11581 LPSA11   9        AGAL     O3       OC311   -0.650000       15.9994           0
     11582 LPSA11   9        AGAL     HO3      HCP1     0.420000       1.00800           0
     11583 LPSA11   9        AGAL     C4       CC3161   0.140000       12.0110           0
     11584 LPSA11   9        AGAL     H4       HCA1     0.900000E-01   1.00800           0
     11585 LPSA11   9        AGAL     O4       OC311   -0.650000       15.9994           0
     11586 LPSA11   9        AGAL     HO4      HCP1     0.420000       1.00800           0
     11587 LPSA11   9        AGAL     C6       CC321    0.500000E-01   12.0110           0
     11588 LPSA11   9        AGAL     H61      HCA2     0.900000E-01   1.00800           0
     11589 LPSA11   9        AGAL     H62      HCA2     0.900000E-01   1.00800           0
     11590 LPSA11   9        AGAL     O6       OC311   -0.650000       15.9994           0
     11591 LPSA11   9        AGAL     HO6      HCP1     0.420000       1.00800           0
     11592 LPSA11   10       AGAL     C1       CC3162   0.290000       12.0110           0
     11593 LPSA11   10       AGAL     H1       HCA1     0.900000E-01   1.00800           0
     11594 LPSA11   10       AGAL     C5       CC3163   0.110000       12.0110           0
     11595 LPSA11   10       AGAL     H5       HCA1     0.900000E-01   1.00800           0
     11596 LPSA11   10       AGAL     O5       OC3C61  -0.400000       15.9994           0
     11597 LPSA11   10       AGAL     C2       CC3161   0.140000       12.0110           0
     11598 LPSA11   10       AGAL     H2       HCA1     0.900000E-01   1.00800           0
     11599 LPSA11   10       AGAL     O2       OC311   -0.650000       15.9994           0
     11600 LPSA11   10       AGAL     HO2      HCP1     0.420000       1.00800           0
     11601 LPSA11   10       AGAL     C3       CC3161   0.140000       12.0110           0
     11602 LPSA11   10       AGAL     H3       HCA1     0.900000E-01   1.00800           0
     11603 LPSA11   10       AGAL     O3       OC311   -0.650000       15.9994           0
     11604 LPSA11   10       AGAL     HO3      HCP1     0.420000       1.00800           0
     11605 LPSA11   10       AGAL     C4       CC3161   0.140000       12.0110           0
     11606 LPSA11   10       AGAL     H4       HCA1     0.900000E-01   1.00800           0
     11607 LPSA11   10       AGAL     O4       OC311   -0.650000       15.9994           0
     11608 LPSA11   10       AGAL     HO4      HCP1     0.420000       1.00800           0
     11609 LPSA11   10       AGAL     C6       CC321    0.500000E-01   12.0110           0
     11610 LPSA11   10       AGAL     H61      HCA2     0.900000E-01   1.00800           0
     11611 LPSA11   10       AGAL     H62      HCA2     0.900000E-01   1.00800           0
     11612 LPSA11   10       AGAL     O6       OC311   -0.650000       15.9994           0
     11613 LPSA11   10       AGAL     HO6      HCP1     0.420000       1.00800           0
     11614 LPSA11   11       BGLC     C1       CC3162   0.290000       12.0110           0
     11615 LPSA11   11       BGLC     H1       HCA1     0.900000E-01   1.00800           0
     11616 LPSA11   11       BGLC     C5       CC3163   0.110000       12.0110           0
     11617 LPSA11   11       BGLC     H5       HCA1     0.900000E-01   1.00800           0
     11618 LPSA11   11       BGLC     O5       OC3C61  -0.400000       15.9994           0
     11619 LPSA11   11       BGLC     C2       CC3161   0.140000       12.0110           0
     11620 LPSA11   11       BGLC     H2       HCA1     0.900000E-01   1.00800           0
     11621 LPSA11   11       BGLC     O2       OC311   -0.650000       15.9994           0
     11622 LPSA11   11       BGLC     HO2      HCP1     0.420000       1.00800           0
     11623 LPSA11   11       BGLC     C3       CC3161   0.900000E-01   12.0110           0
     11624 LPSA11   11       BGLC     H3       HCA1     0.900000E-01   1.00800           0
     11625 LPSA11   11       BGLC     O3       OC301   -0.360000       15.9994           0
     11626 LPSA11   11       BGLC     C4       CC3161   0.140000       12.0110           0
     11627 LPSA11   11       BGLC     H4       HCA1     0.900000E-01   1.00800           0
     11628 LPSA11   11       BGLC     O4       OC311   -0.650000       15.9994           0
     11629 LPSA11   11       BGLC     HO4      HCP1     0.420000       1.00800           0
     11630 LPSA11   11       BGLC     C6       CC321    0.500000E-01   12.0110           0
     11631 LPSA11   11       BGLC     H61      HCA2     0.900000E-01   1.00800           0
     11632 LPSA11   11       BGLC     H62      HCA2     0.900000E-01   1.00800           0
     11633 LPSA11   11       BGLC     O6       OC311   -0.650000       15.9994           0
     11634 LPSA11   11       BGLC     HO6      HCP1     0.420000       1.00800           0
     11635 LPSA11   12       BGLCNA   C1       CC3162   0.290000       12.0110           0
     11636 LPSA11   12       BGLCNA   H1       HCA1     0.900000E-01   1.00800           0
     11637 LPSA11   12       BGLCNA   C5       CC3163   0.110000       12.0110           0
     11638 LPSA11   12       BGLCNA   H5       HCA1     0.900000E-01   1.00800           0
     11639 LPSA11   12       BGLCNA   O5       OC3C61  -0.400000       15.9994           0
     11640 LPSA11   12       BGLCNA   C2       CC3161   0.700000E-01   12.0110           0
     11641 LPSA11   12       BGLCNA   H2       HCA1     0.900000E-01   1.00800           0
     11642 LPSA11   12       BGLCNA   N        NC2D1   -0.470000       14.0070           0
     11643 LPSA11   12       BGLCNA   HN       HCP1     0.310000       1.00800           0
     11644 LPSA11   12       BGLCNA   C        CC2O1    0.510000       12.0110           0
     11645 LPSA11   12       BGLCNA   O        OC2D1   -0.510000       15.9994           0
     11646 LPSA11   12       BGLCNA   CT       CC331   -0.270000       12.0110           0
     11647 LPSA11   12       BGLCNA   HT1      HCA3     0.900000E-01   1.00800           0
     11648 LPSA11   12       BGLCNA   HT2      HCA3     0.900000E-01   1.00800           0
     11649 LPSA11   12       BGLCNA   HT3      HCA3     0.900000E-01   1.00800           0
     11650 LPSA11   12       BGLCNA   C3       CC3161   0.900000E-01   12.0110           0
     11651 LPSA11   12       BGLCNA   H3       HCA1     0.900000E-01   1.00800           0
     11652 LPSA11   12       BGLCNA   O3       OC301   -0.360000       15.9994           0
     11653 LPSA11   12       BGLCNA   C4       CC3161   0.140000       12.0110           0
     11654 LPSA11   12       BGLCNA   H4       HCA1     0.900000E-01   1.00800           0
     11655 LPSA11   12       BGLCNA   O4       OC311   -0.650000       15.9994           0
     11656 LPSA11   12       BGLCNA   HO4      HCP1     0.420000       1.00800           0
     11657 LPSA11   12       BGLCNA   C6       CC321    0.500000E-01   12.0110           0
     11658 LPSA11   12       BGLCNA   H61      HCA2     0.900000E-01   1.00800           0
     11659 LPSA11   12       BGLCNA   H62      HCA2     0.900000E-01   1.00800           0
     11660 LPSA11   12       BGLCNA   O6       OC311   -0.650000       15.9994           0
     11661 LPSA11   12       BGLCNA   HO6      HCP1     0.420000       1.00800           0
     11662 LPSA11   13       AGAL     C1       CC3162   0.290000       12.0110           0
     11663 LPSA11   13       AGAL     H1       HCA1     0.900000E-01   1.00800           0
     11664 LPSA11   13       AGAL     C5       CC3163   0.110000       12.0110           0
     11665 LPSA11   13       AGAL     H5       HCA1     0.900000E-01   1.00800           0
     11666 LPSA11   13       AGAL     O5       OC3C61  -0.400000       15.9994           0
     11667 LPSA11   13       AGAL     C2       CC3161   0.900000E-01   12.0110           0
     11668 LPSA11   13       AGAL     H2       HCA1     0.900000E-01   1.00800           0
     11669 LPSA11   13       AGAL     O2       OC301   -0.360000       15.9994           0
     11670 LPSA11   13       AGAL     C3       CC3161   0.140000       12.0110           0
     11671 LPSA11   13       AGAL     H3       HCA1     0.900000E-01   1.00800           0
     11672 LPSA11   13       AGAL     O3       OC311   -0.650000       15.9994           0
     11673 LPSA11   13       AGAL     HO3      HCP1     0.420000       1.00800           0
     11674 LPSA11   13       AGAL     C4       CC3161   0.140000       12.0110           0
     11675 LPSA11   13       AGAL     H4       HCA1     0.900000E-01   1.00800           0
     11676 LPSA11   13       AGAL     O4       OC311   -0.650000       15.9994           0
     11677 LPSA11   13       AGAL     HO4      HCP1     0.420000       1.00800           0
     11678 LPSA11   13       AGAL     C6       CC321    0.500000E-01   12.0110           0
     11679 LPSA11   13       AGAL     H61      HCA2     0.900000E-01   1.00800           0
     11680 LPSA11   13       AGAL     H62      HCA2     0.900000E-01   1.00800           0
     11681 LPSA11   13       AGAL     O6       OC311   -0.650000       15.9994           0
     11682 LPSA11   13       AGAL     HO6      HCP1     0.420000       1.00800           0
     11683 LPSA11   14       ARHM     C1       CC3162   0.290000       12.0110           0
     11684 LPSA11   14       ARHM     H1       HCA1     0.900000E-01   1.00800           0
     11685 LPSA11   14       ARHM     C5       CC3163   0.110000       12.0110           0
     11686 LPSA11   14       ARHM     H5       HCA1     0.900000E-01   1.00800           0
     11687 LPSA11   14       ARHM     O5       OC3C61  -0.400000       15.9994           0
     11688 LPSA11   14       ARHM     C2       CC3161   0.900000E-01   12.0110           0
     11689 LPSA11   14       ARHM     H2       HCA1     0.900000E-01   1.00800           0
     11690 LPSA11   14       ARHM     O2       OC301   -0.360000       15.9994           0
     11691 LPSA11   14       ARHM     C3       CC3161   0.140000       12.0110           0
     11692 LPSA11   14       ARHM     H3       HCA1     0.900000E-01   1.00800           0
     11693 LPSA11   14       ARHM     O3       OC311   -0.650000       15.9994           0
     11694 LPSA11   14       ARHM     HO3      HCP1     0.420000       1.00800           0
     11695 LPSA11   14       ARHM     C4       CC3161   0.140000       12.0110           0
     11696 LPSA11   14       ARHM     H4       HCA1     0.900000E-01   1.00800           0
     11697 LPSA11   14       ARHM     O4       OC311   -0.650000       15.9994           0
     11698 LPSA11   14       ARHM     HO4      HCP1     0.420000       1.00800           0
     11699 LPSA11   14       ARHM     C6       CC331   -0.270000       12.0110           0
     11700 LPSA11   14       ARHM     H61      HCA3     0.900000E-01   1.00800           0
     11701 LPSA11   14       ARHM     H62      HCA3     0.900000E-01   1.00800           0
     11702 LPSA11   14       ARHM     H63      HCA3     0.900000E-01   1.00800           0
     11703 LPSA11   15       ARHM     C1       CC3162   0.290000       12.0110           0
     11704 LPSA11   15       ARHM     H1       HCA1     0.900000E-01   1.00800           0
     11705 LPSA11   15       ARHM     C5       CC3163   0.110000       12.0110           0
     11706 LPSA11   15       ARHM     H5       HCA1     0.900000E-01   1.00800           0
     11707 LPSA11   15       ARHM     O5       OC3C61  -0.400000       15.9994           0
     11708 LPSA11   15       ARHM     C2       CC3161   0.900000E-01   12.0110           0
     11709 LPSA11   15       ARHM     H2       HCA1     0.900000E-01   1.00800           0
     11710 LPSA11   15       ARHM     O2       OC301   -0.360000       15.9994           0
     11711 LPSA11   15       ARHM     C3       CC3161   0.900000E-01   12.0110           0
     11712 LPSA11   15       ARHM     H3       HCA1     0.900000E-01   1.00800           0
     11713 LPSA11   15       ARHM     O3       OC301   -0.360000       15.9994           0
     11714 LPSA11   15       ARHM     C4       CC3161   0.140000       12.0110           0
     11715 LPSA11   15       ARHM     H4       HCA1     0.900000E-01   1.00800           0
     11716 LPSA11   15       ARHM     O4       OC311   -0.650000       15.9994           0
     11717 LPSA11   15       ARHM     HO4      HCP1     0.420000       1.00800           0
     11718 LPSA11   15       ARHM     C6       CC331   -0.270000       12.0110           0
     11719 LPSA11   15       ARHM     H61      HCA3     0.900000E-01   1.00800           0
     11720 LPSA11   15       ARHM     H62      HCA3     0.900000E-01   1.00800           0
     11721 LPSA11   15       ARHM     H63      HCA3     0.900000E-01   1.00800           0
     11722 LPSA11   16       BMANNA   C1       CC3162   0.290000       12.0110           0
     11723 LPSA11   16       BMANNA   H1       HCA1     0.900000E-01   1.00800           0
     11724 LPSA11   16       BMANNA   C5       CC3163   0.110000       12.0110           0
     11725 LPSA11   16       BMANNA   H5       HCA1     0.900000E-01   1.00800           0
     11726 LPSA11   16       BMANNA   O5       OC3C61  -0.400000       15.9994           0
     11727 LPSA11   16       BMANNA   C2       CC3161   0.700000E-01   12.0110           0
     11728 LPSA11   16       BMANNA   H2       HCA1     0.900000E-01   1.00800           0
     11729 LPSA11   16       BMANNA   N        NC2D1   -0.470000       14.0070           0
     11730 LPSA11   16       BMANNA   HN       HCP1     0.310000       1.00800           0
     11731 LPSA11   16       BMANNA   C        CC2O1    0.510000       12.0110           0
     11732 LPSA11   16       BMANNA   O        OC2D1   -0.510000       15.9994           0
     11733 LPSA11   16       BMANNA   CT       CC331   -0.270000       12.0110           0
     11734 LPSA11   16       BMANNA   HT1      HCA3     0.900000E-01   1.00800           0
     11735 LPSA11   16       BMANNA   HT2      HCA3     0.900000E-01   1.00800           0
     11736 LPSA11   16       BMANNA   HT3      HCA3     0.900000E-01   1.00800           0
     11737 LPSA11   16       BMANNA   C3       CC3161   0.140000       12.0110           0
     11738 LPSA11   16       BMANNA   H3       HCA1     0.900000E-01   1.00800           0
     11739 LPSA11   16       BMANNA   O3       OC311   -0.650000       15.9994           0
     11740 LPSA11   16       BMANNA   HO3      HCP1     0.420000       1.00800           0
     11741 LPSA11   16       BMANNA   C4       CC3161   0.140000       12.0110           0
     11742 LPSA11   16       BMANNA   H4       HCA1     0.900000E-01   1.00800           0
     11743 LPSA11   16       BMANNA   O4       OC311   -0.650000       15.9994           0
     11744 LPSA11   16       BMANNA   HO4      HCP1     0.420000       1.00800           0
     11745 LPSA11   16       BMANNA   C6       CC321    0.500000E-01   12.0110           0
     11746 LPSA11   16       BMANNA   H61      HCA2     0.900000E-01   1.00800           0
     11747 LPSA11   16       BMANNA   H62      HCA2     0.900000E-01   1.00800           0
     11748 LPSA11   16       BMANNA   O6       OC311   -0.650000       15.9994           0
     11749 LPSA11   16       BMANNA   HO6      HCP1     0.420000       1.00800           0
     11750 LPSA11   17       BGLCNA   C1       CC3162   0.290000       12.0110           0
     11751 LPSA11   17       BGLCNA   H1       HCA1     0.900000E-01   1.00800           0
     11752 LPSA11   17       BGLCNA   C5       CC3163   0.110000       12.0110           0
     11753 LPSA11   17       BGLCNA   H5       HCA1     0.900000E-01   1.00800           0
     11754 LPSA11   17       BGLCNA   O5       OC3C61  -0.400000       15.9994           0
     11755 LPSA11   17       BGLCNA   C2       CC3161   0.700000E-01   12.0110           0
     11756 LPSA11   17       BGLCNA   H2       HCA1     0.900000E-01   1.00800           0
     11757 LPSA11   17       BGLCNA   N        NC2D1   -0.470000       14.0070           0
     11758 LPSA11   17       BGLCNA   HN       HCP1     0.310000       1.00800           0
     11759 LPSA11   17       BGLCNA   C        CC2O1    0.510000       12.0110           0
     11760 LPSA11   17       BGLCNA   O        OC2D1   -0.510000       15.9994           0
     11761 LPSA11   17       BGLCNA   CT       CC331   -0.270000       12.0110           0
     11762 LPSA11   17       BGLCNA   HT1      HCA3     0.900000E-01   1.00800           0
     11763 LPSA11   17       BGLCNA   HT2      HCA3     0.900000E-01   1.00800           0
     11764 LPSA11   17       BGLCNA   HT3      HCA3     0.900000E-01   1.00800           0
     11765 LPSA11   17       BGLCNA   C3       CC3161   0.900000E-01   12.0110           0
     11766 LPSA11   17       BGLCNA   H3       HCA1     0.900000E-01   1.00800           0
     11767 LPSA11   17       BGLCNA   O3       OC301   -0.360000       15.9994           0
     11768 LPSA11   17       BGLCNA   C4       CC3161   0.140000       12.0110           0
     11769 LPSA11   17       BGLCNA   H4       HCA1     0.900000E-01   1.00800           0
     11770 LPSA11   17       BGLCNA   O4       OC311   -0.650000       15.9994           0
     11771 LPSA11   17       BGLCNA   HO4      HCP1     0.420000       1.00800           0
     11772 LPSA11   17       BGLCNA   C6       CC321    0.500000E-01   12.0110           0
     11773 LPSA11   17       BGLCNA   H61      HCA2     0.900000E-01   1.00800           0
     11774 LPSA11   17       BGLCNA   H62      HCA2     0.900000E-01   1.00800           0
     11775 LPSA11   17       BGLCNA   O6       OC311   -0.650000       15.9994           0
     11776 LPSA11   17       BGLCNA   HO6      HCP1     0.420000       1.00800           0
     11777 LPSA11   18       AGAL     C1       CC3162   0.290000       12.0110           0
     11778 LPSA11   18       AGAL     H1       HCA1     0.900000E-01   1.00800           0
     11779 LPSA11   18       AGAL     C5       CC3163   0.110000       12.0110           0
     11780 LPSA11   18       AGAL     H5       HCA1     0.900000E-01   1.00800           0
     11781 LPSA11   18       AGAL     O5       OC3C61  -0.400000       15.9994           0
     11782 LPSA11   18       AGAL     C2       CC3161   0.900000E-01   12.0110           0
     11783 LPSA11   18       AGAL     H2       HCA1     0.900000E-01   1.00800           0
     11784 LPSA11   18       AGAL     O2       OC301   -0.360000       15.9994           0
     11785 LPSA11   18       AGAL     C3       CC3161   0.140000       12.0110           0
     11786 LPSA11   18       AGAL     H3       HCA1     0.900000E-01   1.00800           0
     11787 LPSA11   18       AGAL     O3       OC311   -0.650000       15.9994           0
     11788 LPSA11   18       AGAL     HO3      HCP1     0.420000       1.00800           0
     11789 LPSA11   18       AGAL     C4       CC3161   0.140000       12.0110           0
     11790 LPSA11   18       AGAL     H4       HCA1     0.900000E-01   1.00800           0
     11791 LPSA11   18       AGAL     O4       OC311   -0.650000       15.9994           0
     11792 LPSA11   18       AGAL     HO4      HCP1     0.420000       1.00800           0
     11793 LPSA11   18       AGAL     C6       CC321    0.500000E-01   12.0110           0
     11794 LPSA11   18       AGAL     H61      HCA2     0.900000E-01   1.00800           0
     11795 LPSA11   18       AGAL     H62      HCA2     0.900000E-01   1.00800           0
     11796 LPSA11   18       AGAL     O6       OC311   -0.650000       15.9994           0
     11797 LPSA11   18       AGAL     HO6      HCP1     0.420000       1.00800           0
     11798 LPSA11   19       ARHM     C1       CC3162   0.290000       12.0110           0
     11799 LPSA11   19       ARHM     H1       HCA1     0.900000E-01   1.00800           0
     11800 LPSA11   19       ARHM     C5       CC3163   0.110000       12.0110           0
     11801 LPSA11   19       ARHM     H5       HCA1     0.900000E-01   1.00800           0
     11802 LPSA11   19       ARHM     O5       OC3C61  -0.400000       15.9994           0
     11803 LPSA11   19       ARHM     C2       CC3161   0.900000E-01   12.0110           0
     11804 LPSA11   19       ARHM     H2       HCA1     0.900000E-01   1.00800           0
     11805 LPSA11   19       ARHM     O2       OC301   -0.360000       15.9994           0
     11806 LPSA11   19       ARHM     C3       CC3161   0.140000       12.0110           0
     11807 LPSA11   19       ARHM     H3       HCA1     0.900000E-01   1.00800           0
     11808 LPSA11   19       ARHM     O3       OC311   -0.650000       15.9994           0
     11809 LPSA11   19       ARHM     HO3      HCP1     0.420000       1.00800           0
     11810 LPSA11   19       ARHM     C4       CC3161   0.140000       12.0110           0
     11811 LPSA11   19       ARHM     H4       HCA1     0.900000E-01   1.00800           0
     11812 LPSA11   19       ARHM     O4       OC311   -0.650000       15.9994           0
     11813 LPSA11   19       ARHM     HO4      HCP1     0.420000       1.00800           0
     11814 LPSA11   19       ARHM     C6       CC331   -0.270000       12.0110           0
     11815 LPSA11   19       ARHM     H61      HCA3     0.900000E-01   1.00800           0
     11816 LPSA11   19       ARHM     H62      HCA3     0.900000E-01   1.00800           0
     11817 LPSA11   19       ARHM     H63      HCA3     0.900000E-01   1.00800           0
     11818 LPSA11   20       ARHM     C1       CC3162   0.290000       12.0110           0
     11819 LPSA11   20       ARHM     H1       HCA1     0.900000E-01   1.00800           0
     11820 LPSA11   20       ARHM     C5       CC3163   0.110000       12.0110           0
     11821 LPSA11   20       ARHM     H5       HCA1     0.900000E-01   1.00800           0
     11822 LPSA11   20       ARHM     O5       OC3C61  -0.400000       15.9994           0
     11823 LPSA11   20       ARHM     C2       CC3161   0.900000E-01   12.0110           0
     11824 LPSA11   20       ARHM     H2       HCA1     0.900000E-01   1.00800           0
     11825 LPSA11   20       ARHM     O2       OC301   -0.360000       15.9994           0
     11826 LPSA11   20       ARHM     C3       CC3161   0.900000E-01   12.0110           0
     11827 LPSA11   20       ARHM     H3       HCA1     0.900000E-01   1.00800           0
     11828 LPSA11   20       ARHM     O3       OC301   -0.360000       15.9994           0
     11829 LPSA11   20       ARHM     C4       CC3161   0.140000       12.0110           0
     11830 LPSA11   20       ARHM     H4       HCA1     0.900000E-01   1.00800           0
     11831 LPSA11   20       ARHM     O4       OC311   -0.650000       15.9994           0
     11832 LPSA11   20       ARHM     HO4      HCP1     0.420000       1.00800           0
     11833 LPSA11   20       ARHM     C6       CC331   -0.270000       12.0110           0
     11834 LPSA11   20       ARHM     H61      HCA3     0.900000E-01   1.00800           0
     11835 LPSA11   20       ARHM     H62      HCA3     0.900000E-01   1.00800           0
     11836 LPSA11   20       ARHM     H63      HCA3     0.900000E-01   1.00800           0
     11837 LPSA11   21       BMANNA   C1       CC3162   0.290000       12.0110           0
     11838 LPSA11   21       BMANNA   H1       HCA1     0.900000E-01   1.00800           0
     11839 LPSA11   21       BMANNA   C5       CC3163   0.110000       12.0110           0
     11840 LPSA11   21       BMANNA   H5       HCA1     0.900000E-01   1.00800           0
     11841 LPSA11   21       BMANNA   O5       OC3C61  -0.400000       15.9994           0
     11842 LPSA11   21       BMANNA   C2       CC3161   0.700000E-01   12.0110           0
     11843 LPSA11   21       BMANNA   H2       HCA1     0.900000E-01   1.00800           0
     11844 LPSA11   21       BMANNA   N        NC2D1   -0.470000       14.0070           0
     11845 LPSA11   21       BMANNA   HN       HCP1     0.310000       1.00800           0
     11846 LPSA11   21       BMANNA   C        CC2O1    0.510000       12.0110           0
     11847 LPSA11   21       BMANNA   O        OC2D1   -0.510000       15.9994           0
     11848 LPSA11   21       BMANNA   CT       CC331   -0.270000       12.0110           0
     11849 LPSA11   21       BMANNA   HT1      HCA3     0.900000E-01   1.00800           0
     11850 LPSA11   21       BMANNA   HT2      HCA3     0.900000E-01   1.00800           0
     11851 LPSA11   21       BMANNA   HT3      HCA3     0.900000E-01   1.00800           0
     11852 LPSA11   21       BMANNA   C3       CC3161   0.140000       12.0110           0
     11853 LPSA11   21       BMANNA   H3       HCA1     0.900000E-01   1.00800           0
     11854 LPSA11   21       BMANNA   O3       OC311   -0.650000       15.9994           0
     11855 LPSA11   21       BMANNA   HO3      HCP1     0.420000       1.00800           0
     11856 LPSA11   21       BMANNA   C4       CC3161   0.140000       12.0110           0
     11857 LPSA11   21       BMANNA   H4       HCA1     0.900000E-01   1.00800           0
     11858 LPSA11   21       BMANNA   O4       OC311   -0.650000       15.9994           0
     11859 LPSA11   21       BMANNA   HO4      HCP1     0.420000       1.00800           0
     11860 LPSA11   21       BMANNA   C6       CC321    0.500000E-01   12.0110           0
     11861 LPSA11   21       BMANNA   H61      HCA2     0.900000E-01   1.00800           0
     11862 LPSA11   21       BMANNA   H62      HCA2     0.900000E-01   1.00800           0
     11863 LPSA11   21       BMANNA   O6       OC311   -0.650000       15.9994           0
     11864 LPSA11   21       BMANNA   HO6      HCP1     0.420000       1.00800           0
     11865 LPSA11   22       BGLCNA   C1       CC3162   0.290000       12.0110           0
     11866 LPSA11   22       BGLCNA   H1       HCA1     0.900000E-01   1.00800           0
     11867 LPSA11   22       BGLCNA   C5       CC3163   0.110000       12.0110           0
     11868 LPSA11   22       BGLCNA   H5       HCA1     0.900000E-01   1.00800           0
     11869 LPSA11   22       BGLCNA   O5       OC3C61  -0.400000       15.9994           0
     11870 LPSA11   22       BGLCNA   C2       CC3161   0.700000E-01   12.0110           0
     11871 LPSA11   22       BGLCNA   H2       HCA1     0.900000E-01   1.00800           0
     11872 LPSA11   22       BGLCNA   N        NC2D1   -0.470000       14.0070           0
     11873 LPSA11   22       BGLCNA   HN       HCP1     0.310000       1.00800           0
     11874 LPSA11   22       BGLCNA   C        CC2O1    0.510000       12.0110           0
     11875 LPSA11   22       BGLCNA   O        OC2D1   -0.510000       15.9994           0
     11876 LPSA11   22       BGLCNA   CT       CC331   -0.270000       12.0110           0
     11877 LPSA11   22       BGLCNA   HT1      HCA3     0.900000E-01   1.00800           0
     11878 LPSA11   22       BGLCNA   HT2      HCA3     0.900000E-01   1.00800           0
     11879 LPSA11   22       BGLCNA   HT3      HCA3     0.900000E-01   1.00800           0
     11880 LPSA11   22       BGLCNA   C3       CC3161   0.900000E-01   12.0110           0
     11881 LPSA11   22       BGLCNA   H3       HCA1     0.900000E-01   1.00800           0
     11882 LPSA11   22       BGLCNA   O3       OC301   -0.360000       15.9994           0
     11883 LPSA11   22       BGLCNA   C4       CC3161   0.140000       12.0110           0
     11884 LPSA11   22       BGLCNA   H4       HCA1     0.900000E-01   1.00800           0
     11885 LPSA11   22       BGLCNA   O4       OC311   -0.650000       15.9994           0
     11886 LPSA11   22       BGLCNA   HO4      HCP1     0.420000       1.00800           0
     11887 LPSA11   22       BGLCNA   C6       CC321    0.500000E-01   12.0110           0
     11888 LPSA11   22       BGLCNA   H61      HCA2     0.900000E-01   1.00800           0
     11889 LPSA11   22       BGLCNA   H62      HCA2     0.900000E-01   1.00800           0
     11890 LPSA11   22       BGLCNA   O6       OC311   -0.650000       15.9994           0
     11891 LPSA11   22       BGLCNA   HO6      HCP1     0.420000       1.00800           0
     11892 LPSA11   23       AGAL     C1       CC3162   0.290000       12.0110           0
     11893 LPSA11   23       AGAL     H1       HCA1     0.900000E-01   1.00800           0
     11894 LPSA11   23       AGAL     C5       CC3163   0.110000       12.0110           0
     11895 LPSA11   23       AGAL     H5       HCA1     0.900000E-01   1.00800           0
     11896 LPSA11   23       AGAL     O5       OC3C61  -0.400000       15.9994           0
     11897 LPSA11   23       AGAL     C2       CC3161   0.900000E-01   12.0110           0
     11898 LPSA11   23       AGAL     H2       HCA1     0.900000E-01   1.00800           0
     11899 LPSA11   23       AGAL     O2       OC301   -0.360000       15.9994           0
     11900 LPSA11   23       AGAL     C3       CC3161   0.140000       12.0110           0
     11901 LPSA11   23       AGAL     H3       HCA1     0.900000E-01   1.00800           0
     11902 LPSA11   23       AGAL     O3       OC311   -0.650000       15.9994           0
     11903 LPSA11   23       AGAL     HO3      HCP1     0.420000       1.00800           0
     11904 LPSA11   23       AGAL     C4       CC3161   0.140000       12.0110           0
     11905 LPSA11   23       AGAL     H4       HCA1     0.900000E-01   1.00800           0
     11906 LPSA11   23       AGAL     O4       OC311   -0.650000       15.9994           0
     11907 LPSA11   23       AGAL     HO4      HCP1     0.420000       1.00800           0
     11908 LPSA11   23       AGAL     C6       CC321    0.500000E-01   12.0110           0
     11909 LPSA11   23       AGAL     H61      HCA2     0.900000E-01   1.00800           0
     11910 LPSA11   23       AGAL     H62      HCA2     0.900000E-01   1.00800           0
     11911 LPSA11   23       AGAL     O6       OC311   -0.650000       15.9994           0
     11912 LPSA11   23       AGAL     HO6      HCP1     0.420000       1.00800           0
     11913 LPSA11   24       ARHM     C1       CC3162   0.290000       12.0110           0
     11914 LPSA11   24       ARHM     H1       HCA1     0.900000E-01   1.00800           0
     11915 LPSA11   24       ARHM     C5       CC3163   0.110000       12.0110           0
     11916 LPSA11   24       ARHM     H5       HCA1     0.900000E-01   1.00800           0
     11917 LPSA11   24       ARHM     O5       OC3C61  -0.400000       15.9994           0
     11918 LPSA11   24       ARHM     C2       CC3161   0.900000E-01   12.0110           0
     11919 LPSA11   24       ARHM     H2       HCA1     0.900000E-01   1.00800           0
     11920 LPSA11   24       ARHM     O2       OC301   -0.360000       15.9994           0
     11921 LPSA11   24       ARHM     C3       CC3161   0.140000       12.0110           0
     11922 LPSA11   24       ARHM     H3       HCA1     0.900000E-01   1.00800           0
     11923 LPSA11   24       ARHM     O3       OC311   -0.650000       15.9994           0
     11924 LPSA11   24       ARHM     HO3      HCP1     0.420000       1.00800           0
     11925 LPSA11   24       ARHM     C4       CC3161   0.140000       12.0110           0
     11926 LPSA11   24       ARHM     H4       HCA1     0.900000E-01   1.00800           0
     11927 LPSA11   24       ARHM     O4       OC311   -0.650000       15.9994           0
     11928 LPSA11   24       ARHM     HO4      HCP1     0.420000       1.00800           0
     11929 LPSA11   24       ARHM     C6       CC331   -0.270000       12.0110           0
     11930 LPSA11   24       ARHM     H61      HCA3     0.900000E-01   1.00800           0
     11931 LPSA11   24       ARHM     H62      HCA3     0.900000E-01   1.00800           0
     11932 LPSA11   24       ARHM     H63      HCA3     0.900000E-01   1.00800           0
     11933 LPSA11   25       ARHM     C1       CC3162   0.290000       12.0110           0
     11934 LPSA11   25       ARHM     H1       HCA1     0.900000E-01   1.00800           0
     11935 LPSA11   25       ARHM     C5       CC3163   0.110000       12.0110           0
     11936 LPSA11   25       ARHM     H5       HCA1     0.900000E-01   1.00800           0
     11937 LPSA11   25       ARHM     O5       OC3C61  -0.400000       15.9994           0
     11938 LPSA11   25       ARHM     C2       CC3161   0.900000E-01   12.0110           0
     11939 LPSA11   25       ARHM     H2       HCA1     0.900000E-01   1.00800           0
     11940 LPSA11   25       ARHM     O2       OC301   -0.360000       15.9994           0
     11941 LPSA11   25       ARHM     C3       CC3161   0.900000E-01   12.0110           0
     11942 LPSA11   25       ARHM     H3       HCA1     0.900000E-01   1.00800           0
     11943 LPSA11   25       ARHM     O3       OC301   -0.360000       15.9994           0
     11944 LPSA11   25       ARHM     C4       CC3161   0.140000       12.0110           0
     11945 LPSA11   25       ARHM     H4       HCA1     0.900000E-01   1.00800           0
     11946 LPSA11   25       ARHM     O4       OC311   -0.650000       15.9994           0
     11947 LPSA11   25       ARHM     HO4      HCP1     0.420000       1.00800           0
     11948 LPSA11   25       ARHM     C6       CC331   -0.270000       12.0110           0
     11949 LPSA11   25       ARHM     H61      HCA3     0.900000E-01   1.00800           0
     11950 LPSA11   25       ARHM     H62      HCA3     0.900000E-01   1.00800           0
     11951 LPSA11   25       ARHM     H63      HCA3     0.900000E-01   1.00800           0
     11952 LPSA11   26       BMANNA   C1       CC3162   0.290000       12.0110           0
     11953 LPSA11   26       BMANNA   H1       HCA1     0.900000E-01   1.00800           0
     11954 LPSA11   26       BMANNA   C5       CC3163   0.110000       12.0110           0
     11955 LPSA11   26       BMANNA   H5       HCA1     0.900000E-01   1.00800           0
     11956 LPSA11   26       BMANNA   O5       OC3C61  -0.400000       15.9994           0
     11957 LPSA11   26       BMANNA   C2       CC3161   0.700000E-01   12.0110           0
     11958 LPSA11   26       BMANNA   H2       HCA1     0.900000E-01   1.00800           0
     11959 LPSA11   26       BMANNA   N        NC2D1   -0.470000       14.0070           0
     11960 LPSA11   26       BMANNA   HN       HCP1     0.310000       1.00800           0
     11961 LPSA11   26       BMANNA   C        CC2O1    0.510000       12.0110           0
     11962 LPSA11   26       BMANNA   O        OC2D1   -0.510000       15.9994           0
     11963 LPSA11   26       BMANNA   CT       CC331   -0.270000       12.0110           0
     11964 LPSA11   26       BMANNA   HT1      HCA3     0.900000E-01   1.00800           0
     11965 LPSA11   26       BMANNA   HT2      HCA3     0.900000E-01   1.00800           0
     11966 LPSA11   26       BMANNA   HT3      HCA3     0.900000E-01   1.00800           0
     11967 LPSA11   26       BMANNA   C3       CC3161   0.140000       12.0110           0
     11968 LPSA11   26       BMANNA   H3       HCA1     0.900000E-01   1.00800           0
     11969 LPSA11   26       BMANNA   O3       OC311   -0.650000       15.9994           0
     11970 LPSA11   26       BMANNA   HO3      HCP1     0.420000       1.00800           0
     11971 LPSA11   26       BMANNA   C4       CC3161   0.140000       12.0110           0
     11972 LPSA11   26       BMANNA   H4       HCA1     0.900000E-01   1.00800           0
     11973 LPSA11   26       BMANNA   O4       OC311   -0.650000       15.9994           0
     11974 LPSA11   26       BMANNA   HO4      HCP1     0.420000       1.00800           0
     11975 LPSA11   26       BMANNA   C6       CC321    0.500000E-01   12.0110           0
     11976 LPSA11   26       BMANNA   H61      HCA2     0.900000E-01   1.00800           0
     11977 LPSA11   26       BMANNA   H62      HCA2     0.900000E-01   1.00800           0
     11978 LPSA11   26       BMANNA   O6       OC311   -0.650000       15.9994           0
     11979 LPSA11   26       BMANNA   HO6      HCP1     0.420000       1.00800           0
     11980 LPSA11   27       BGLCNA   C1       CC3162   0.290000       12.0110           0
     11981 LPSA11   27       BGLCNA   H1       HCA1     0.900000E-01   1.00800           0
     11982 LPSA11   27       BGLCNA   C5       CC3163   0.110000       12.0110           0
     11983 LPSA11   27       BGLCNA   H5       HCA1     0.900000E-01   1.00800           0
     11984 LPSA11   27       BGLCNA   O5       OC3C61  -0.400000       15.9994           0
     11985 LPSA11   27       BGLCNA   C2       CC3161   0.700000E-01   12.0110           0
     11986 LPSA11   27       BGLCNA   H2       HCA1     0.900000E-01   1.00800           0
     11987 LPSA11   27       BGLCNA   N        NC2D1   -0.470000       14.0070           0
     11988 LPSA11   27       BGLCNA   HN       HCP1     0.310000       1.00800           0
     11989 LPSA11   27       BGLCNA   C        CC2O1    0.510000       12.0110           0
     11990 LPSA11   27       BGLCNA   O        OC2D1   -0.510000       15.9994           0
     11991 LPSA11   27       BGLCNA   CT       CC331   -0.270000       12.0110           0
     11992 LPSA11   27       BGLCNA   HT1      HCA3     0.900000E-01   1.00800           0
     11993 LPSA11   27       BGLCNA   HT2      HCA3     0.900000E-01   1.00800           0
     11994 LPSA11   27       BGLCNA   HT3      HCA3     0.900000E-01   1.00800           0
     11995 LPSA11   27       BGLCNA   C3       CC3161   0.900000E-01   12.0110           0
     11996 LPSA11   27       BGLCNA   H3       HCA1     0.900000E-01   1.00800           0
     11997 LPSA11   27       BGLCNA   O3       OC301   -0.360000       15.9994           0
     11998 LPSA11   27       BGLCNA   C4       CC3161   0.140000       12.0110           0
     11999 LPSA11   27       BGLCNA   H4       HCA1     0.900000E-01   1.00800           0
     12000 LPSA11   27       BGLCNA   O4       OC311   -0.650000       15.9994           0
     12001 LPSA11   27       BGLCNA   HO4      HCP1     0.420000       1.00800           0
     12002 LPSA11   27       BGLCNA   C6       CC321    0.500000E-01   12.0110           0
     12003 LPSA11   27       BGLCNA   H61      HCA2     0.900000E-01   1.00800           0
     12004 LPSA11   27       BGLCNA   H62      HCA2     0.900000E-01   1.00800           0
     12005 LPSA11   27       BGLCNA   O6       OC311   -0.650000       15.9994           0
     12006 LPSA11   27       BGLCNA   HO6      HCP1     0.420000       1.00800           0
     12007 LPSA11   28       AGAL     C1       CC3162   0.290000       12.0110           0
     12008 LPSA11   28       AGAL     H1       HCA1     0.900000E-01   1.00800           0
     12009 LPSA11   28       AGAL     C5       CC3163   0.110000       12.0110           0
     12010 LPSA11   28       AGAL     H5       HCA1     0.900000E-01   1.00800           0
     12011 LPSA11   28       AGAL     O5       OC3C61  -0.400000       15.9994           0
     12012 LPSA11   28       AGAL     C2       CC3161   0.900000E-01   12.0110           0
     12013 LPSA11   28       AGAL     H2       HCA1     0.900000E-01   1.00800           0
     12014 LPSA11   28       AGAL     O2       OC301   -0.360000       15.9994           0
     12015 LPSA11   28       AGAL     C3       CC3161   0.140000       12.0110           0
     12016 LPSA11   28       AGAL     H3       HCA1     0.900000E-01   1.00800           0
     12017 LPSA11   28       AGAL     O3       OC311   -0.650000       15.9994           0
     12018 LPSA11   28       AGAL     HO3      HCP1     0.420000       1.00800           0
     12019 LPSA11   28       AGAL     C4       CC3161   0.140000       12.0110           0
     12020 LPSA11   28       AGAL     H4       HCA1     0.900000E-01   1.00800           0
     12021 LPSA11   28       AGAL     O4       OC311   -0.650000       15.9994           0
     12022 LPSA11   28       AGAL     HO4      HCP1     0.420000       1.00800           0
     12023 LPSA11   28       AGAL     C6       CC321    0.500000E-01   12.0110           0
     12024 LPSA11   28       AGAL     H61      HCA2     0.900000E-01   1.00800           0
     12025 LPSA11   28       AGAL     H62      HCA2     0.900000E-01   1.00800           0
     12026 LPSA11   28       AGAL     O6       OC311   -0.650000       15.9994           0
     12027 LPSA11   28       AGAL     HO6      HCP1     0.420000       1.00800           0
     12028 LPSA11   29       ARHM     C1       CC3162   0.290000       12.0110           0
     12029 LPSA11   29       ARHM     H1       HCA1     0.900000E-01   1.00800           0
     12030 LPSA11   29       ARHM     C5       CC3163   0.110000       12.0110           0
     12031 LPSA11   29       ARHM     H5       HCA1     0.900000E-01   1.00800           0
     12032 LPSA11   29       ARHM     O5       OC3C61  -0.400000       15.9994           0
     12033 LPSA11   29       ARHM     C2       CC3161   0.900000E-01   12.0110           0
     12034 LPSA11   29       ARHM     H2       HCA1     0.900000E-01   1.00800           0
     12035 LPSA11   29       ARHM     O2       OC301   -0.360000       15.9994           0
     12036 LPSA11   29       ARHM     C3       CC3161   0.140000       12.0110           0
     12037 LPSA11   29       ARHM     H3       HCA1     0.900000E-01   1.00800           0
     12038 LPSA11   29       ARHM     O3       OC311   -0.650000       15.9994           0
     12039 LPSA11   29       ARHM     HO3      HCP1     0.420000       1.00800           0
     12040 LPSA11   29       ARHM     C4       CC3161   0.140000       12.0110           0
     12041 LPSA11   29       ARHM     H4       HCA1     0.900000E-01   1.00800           0
     12042 LPSA11   29       ARHM     O4       OC311   -0.650000       15.9994           0
     12043 LPSA11   29       ARHM     HO4      HCP1     0.420000       1.00800           0
     12044 LPSA11   29       ARHM     C6       CC331   -0.270000       12.0110           0
     12045 LPSA11   29       ARHM     H61      HCA3     0.900000E-01   1.00800           0
     12046 LPSA11   29       ARHM     H62      HCA3     0.900000E-01   1.00800           0
     12047 LPSA11   29       ARHM     H63      HCA3     0.900000E-01   1.00800           0
     12048 LPSA11   30       ARHM     C1       CC3162   0.290000       12.0110           0
     12049 LPSA11   30       ARHM     H1       HCA1     0.900000E-01   1.00800           0
     12050 LPSA11   30       ARHM     C5       CC3163   0.110000       12.0110           0
     12051 LPSA11   30       ARHM     H5       HCA1     0.900000E-01   1.00800           0
     12052 LPSA11   30       ARHM     O5       OC3C61  -0.400000       15.9994           0
     12053 LPSA11   30       ARHM     C2       CC3161   0.900000E-01   12.0110           0
     12054 LPSA11   30       ARHM     H2       HCA1     0.900000E-01   1.00800           0
     12055 LPSA11   30       ARHM     O2       OC301   -0.360000       15.9994           0
     12056 LPSA11   30       ARHM     C3       CC3161   0.900000E-01   12.0110           0
     12057 LPSA11   30       ARHM     H3       HCA1     0.900000E-01   1.00800           0
     12058 LPSA11   30       ARHM     O3       OC301   -0.360000       15.9994           0
     12059 LPSA11   30       ARHM     C4       CC3161   0.140000       12.0110           0
     12060 LPSA11   30       ARHM     H4       HCA1     0.900000E-01   1.00800           0
     12061 LPSA11   30       ARHM     O4       OC311   -0.650000       15.9994           0
     12062 LPSA11   30       ARHM     HO4      HCP1     0.420000       1.00800           0
     12063 LPSA11   30       ARHM     C6       CC331   -0.270000       12.0110           0
     12064 LPSA11   30       ARHM     H61      HCA3     0.900000E-01   1.00800           0
     12065 LPSA11   30       ARHM     H62      HCA3     0.900000E-01   1.00800           0
     12066 LPSA11   30       ARHM     H63      HCA3     0.900000E-01   1.00800           0
     12067 LPSA11   31       BMANNA   C1       CC3162   0.290000       12.0110           0
     12068 LPSA11   31       BMANNA   H1       HCA1     0.900000E-01   1.00800           0
     12069 LPSA11   31       BMANNA   C5       CC3163   0.110000       12.0110           0
     12070 LPSA11   31       BMANNA   H5       HCA1     0.900000E-01   1.00800           0
     12071 LPSA11   31       BMANNA   O5       OC3C61  -0.400000       15.9994           0
     12072 LPSA11   31       BMANNA   C2       CC3161   0.700000E-01   12.0110           0
     12073 LPSA11   31       BMANNA   H2       HCA1     0.900000E-01   1.00800           0
     12074 LPSA11   31       BMANNA   N        NC2D1   -0.470000       14.0070           0
     12075 LPSA11   31       BMANNA   HN       HCP1     0.310000       1.00800           0
     12076 LPSA11   31       BMANNA   C        CC2O1    0.510000       12.0110           0
     12077 LPSA11   31       BMANNA   O        OC2D1   -0.510000       15.9994           0
     12078 LPSA11   31       BMANNA   CT       CC331   -0.270000       12.0110           0
     12079 LPSA11   31       BMANNA   HT1      HCA3     0.900000E-01   1.00800           0
     12080 LPSA11   31       BMANNA   HT2      HCA3     0.900000E-01   1.00800           0
     12081 LPSA11   31       BMANNA   HT3      HCA3     0.900000E-01   1.00800           0
     12082 LPSA11   31       BMANNA   C3       CC3161   0.140000       12.0110           0
     12083 LPSA11   31       BMANNA   H3       HCA1     0.900000E-01   1.00800           0
     12084 LPSA11   31       BMANNA   O3       OC311   -0.650000       15.9994           0
     12085 LPSA11   31       BMANNA   HO3      HCP1     0.420000       1.00800           0
     12086 LPSA11   31       BMANNA   C4       CC3161   0.140000       12.0110           0
     12087 LPSA11   31       BMANNA   H4       HCA1     0.900000E-01   1.00800           0
     12088 LPSA11   31       BMANNA   O4       OC311   -0.650000       15.9994           0
     12089 LPSA11   31       BMANNA   HO4      HCP1     0.420000       1.00800           0
     12090 LPSA11   31       BMANNA   C6       CC321    0.500000E-01   12.0110           0
     12091 LPSA11   31       BMANNA   H61      HCA2     0.900000E-01   1.00800           0
     12092 LPSA11   31       BMANNA   H62      HCA2     0.900000E-01   1.00800           0
     12093 LPSA11   31       BMANNA   O6       OC311   -0.650000       15.9994           0
     12094 LPSA11   31       BMANNA   HO6      HCP1     0.420000       1.00800           0
     12095 LPSA11   32       BGLCNA   C1       CC3162   0.290000       12.0110           0
     12096 LPSA11   32       BGLCNA   H1       HCA1     0.900000E-01   1.00800           0
     12097 LPSA11   32       BGLCNA   C5       CC3163   0.110000       12.0110           0
     12098 LPSA11   32       BGLCNA   H5       HCA1     0.900000E-01   1.00800           0
     12099 LPSA11   32       BGLCNA   O5       OC3C61  -0.400000       15.9994           0
     12100 LPSA11   32       BGLCNA   C2       CC3161   0.700000E-01   12.0110           0
     12101 LPSA11   32       BGLCNA   H2       HCA1     0.900000E-01   1.00800           0
     12102 LPSA11   32       BGLCNA   N        NC2D1   -0.470000       14.0070           0
     12103 LPSA11   32       BGLCNA   HN       HCP1     0.310000       1.00800           0
     12104 LPSA11   32       BGLCNA   C        CC2O1    0.510000       12.0110           0
     12105 LPSA11   32       BGLCNA   O        OC2D1   -0.510000       15.9994           0
     12106 LPSA11   32       BGLCNA   CT       CC331   -0.270000       12.0110           0
     12107 LPSA11   32       BGLCNA   HT1      HCA3     0.900000E-01   1.00800           0
     12108 LPSA11   32       BGLCNA   HT2      HCA3     0.900000E-01   1.00800           0
     12109 LPSA11   32       BGLCNA   HT3      HCA3     0.900000E-01   1.00800           0
     12110 LPSA11   32       BGLCNA   C3       CC3161   0.900000E-01   12.0110           0
     12111 LPSA11   32       BGLCNA   H3       HCA1     0.900000E-01   1.00800           0
     12112 LPSA11   32       BGLCNA   O3       OC301   -0.360000       15.9994           0
     12113 LPSA11   32       BGLCNA   C4       CC3161   0.140000       12.0110           0
     12114 LPSA11   32       BGLCNA   H4       HCA1     0.900000E-01   1.00800           0
     12115 LPSA11   32       BGLCNA   O4       OC311   -0.650000       15.9994           0
     12116 LPSA11   32       BGLCNA   HO4      HCP1     0.420000       1.00800           0
     12117 LPSA11   32       BGLCNA   C6       CC321    0.500000E-01   12.0110           0
     12118 LPSA11   32       BGLCNA   H61      HCA2     0.900000E-01   1.00800           0
     12119 LPSA11   32       BGLCNA   H62      HCA2     0.900000E-01   1.00800           0
     12120 LPSA11   32       BGLCNA   O6       OC311   -0.650000       15.9994           0
     12121 LPSA11   32       BGLCNA   HO6      HCP1     0.420000       1.00800           0
     12122 LPSA11   33       AGAL     C1       CC3162   0.290000       12.0110           0
     12123 LPSA11   33       AGAL     H1       HCA1     0.900000E-01   1.00800           0
     12124 LPSA11   33       AGAL     C5       CC3163   0.110000       12.0110           0
     12125 LPSA11   33       AGAL     H5       HCA1     0.900000E-01   1.00800           0
     12126 LPSA11   33       AGAL     O5       OC3C61  -0.400000       15.9994           0
     12127 LPSA11   33       AGAL     C2       CC3161   0.900000E-01   12.0110           0
     12128 LPSA11   33       AGAL     H2       HCA1     0.900000E-01   1.00800           0
     12129 LPSA11   33       AGAL     O2       OC301   -0.360000       15.9994           0
     12130 LPSA11   33       AGAL     C3       CC3161   0.140000       12.0110           0
     12131 LPSA11   33       AGAL     H3       HCA1     0.900000E-01   1.00800           0
     12132 LPSA11   33       AGAL     O3       OC311   -0.650000       15.9994           0
     12133 LPSA11   33       AGAL     HO3      HCP1     0.420000       1.00800           0
     12134 LPSA11   33       AGAL     C4       CC3161   0.140000       12.0110           0
     12135 LPSA11   33       AGAL     H4       HCA1     0.900000E-01   1.00800           0
     12136 LPSA11   33       AGAL     O4       OC311   -0.650000       15.9994           0
     12137 LPSA11   33       AGAL     HO4      HCP1     0.420000       1.00800           0
     12138 LPSA11   33       AGAL     C6       CC321    0.500000E-01   12.0110           0
     12139 LPSA11   33       AGAL     H61      HCA2     0.900000E-01   1.00800           0
     12140 LPSA11   33       AGAL     H62      HCA2     0.900000E-01   1.00800           0
     12141 LPSA11   33       AGAL     O6       OC311   -0.650000       15.9994           0
     12142 LPSA11   33       AGAL     HO6      HCP1     0.420000       1.00800           0
     12143 LPSA11   34       ARHM     C1       CC3162   0.290000       12.0110           0
     12144 LPSA11   34       ARHM     H1       HCA1     0.900000E-01   1.00800           0
     12145 LPSA11   34       ARHM     C5       CC3163   0.110000       12.0110           0
     12146 LPSA11   34       ARHM     H5       HCA1     0.900000E-01   1.00800           0
     12147 LPSA11   34       ARHM     O5       OC3C61  -0.400000       15.9994           0
     12148 LPSA11   34       ARHM     C2       CC3161   0.900000E-01   12.0110           0
     12149 LPSA11   34       ARHM     H2       HCA1     0.900000E-01   1.00800           0
     12150 LPSA11   34       ARHM     O2       OC301   -0.360000       15.9994           0
     12151 LPSA11   34       ARHM     C3       CC3161   0.140000       12.0110           0
     12152 LPSA11   34       ARHM     H3       HCA1     0.900000E-01   1.00800           0
     12153 LPSA11   34       ARHM     O3       OC311   -0.650000       15.9994           0
     12154 LPSA11   34       ARHM     HO3      HCP1     0.420000       1.00800           0
     12155 LPSA11   34       ARHM     C4       CC3161   0.140000       12.0110           0
     12156 LPSA11   34       ARHM     H4       HCA1     0.900000E-01   1.00800           0
     12157 LPSA11   34       ARHM     O4       OC311   -0.650000       15.9994           0
     12158 LPSA11   34       ARHM     HO4      HCP1     0.420000       1.00800           0
     12159 LPSA11   34       ARHM     C6       CC331   -0.270000       12.0110           0
     12160 LPSA11   34       ARHM     H61      HCA3     0.900000E-01   1.00800           0
     12161 LPSA11   34       ARHM     H62      HCA3     0.900000E-01   1.00800           0
     12162 LPSA11   34       ARHM     H63      HCA3     0.900000E-01   1.00800           0
     12163 LPSA11   35       ARHM     C1       CC3162   0.290000       12.0110           0
     12164 LPSA11   35       ARHM     H1       HCA1     0.900000E-01   1.00800           0
     12165 LPSA11   35       ARHM     C5       CC3163   0.110000       12.0110           0
     12166 LPSA11   35       ARHM     H5       HCA1     0.900000E-01   1.00800           0
     12167 LPSA11   35       ARHM     O5       OC3C61  -0.400000       15.9994           0
     12168 LPSA11   35       ARHM     C2       CC3161   0.900000E-01   12.0110           0
     12169 LPSA11   35       ARHM     H2       HCA1     0.900000E-01   1.00800           0
     12170 LPSA11   35       ARHM     O2       OC301   -0.360000       15.9994           0
     12171 LPSA11   35       ARHM     C3       CC3161   0.140000       12.0110           0
     12172 LPSA11   35       ARHM     H3       HCA1     0.900000E-01   1.00800           0
     12173 LPSA11   35       ARHM     O3       OC311   -0.650000       15.9994           0
     12174 LPSA11   35       ARHM     HO3      HCP1     0.420000       1.00800           0
     12175 LPSA11   35       ARHM     C4       CC3161   0.140000       12.0110           0
     12176 LPSA11   35       ARHM     H4       HCA1     0.900000E-01   1.00800           0
     12177 LPSA11   35       ARHM     O4       OC311   -0.650000       15.9994           0
     12178 LPSA11   35       ARHM     HO4      HCP1     0.420000       1.00800           0
     12179 LPSA11   35       ARHM     C6       CC331   -0.270000       12.0110           0
     12180 LPSA11   35       ARHM     H61      HCA3     0.900000E-01   1.00800           0
     12181 LPSA11   35       ARHM     H62      HCA3     0.900000E-01   1.00800           0
     12182 LPSA11   35       ARHM     H63      HCA3     0.900000E-01   1.00800           0
     12183 LPSA11   36       BMANNA   C1       CC3162   0.290000       12.0110           0
     12184 LPSA11   36       BMANNA   H1       HCA1     0.900000E-01   1.00800           0
     12185 LPSA11   36       BMANNA   C5       CC3163   0.110000       12.0110           0
     12186 LPSA11   36       BMANNA   H5       HCA1     0.900000E-01   1.00800           0
     12187 LPSA11   36       BMANNA   O5       OC3C61  -0.400000       15.9994           0
     12188 LPSA11   36       BMANNA   C2       CC3161   0.700000E-01   12.0110           0
     12189 LPSA11   36       BMANNA   H2       HCA1     0.900000E-01   1.00800           0
     12190 LPSA11   36       BMANNA   N        NC2D1   -0.470000       14.0070           0
     12191 LPSA11   36       BMANNA   HN       HCP1     0.310000       1.00800           0
     12192 LPSA11   36       BMANNA   C        CC2O1    0.510000       12.0110           0
     12193 LPSA11   36       BMANNA   O        OC2D1   -0.510000       15.9994           0
     12194 LPSA11   36       BMANNA   CT       CC331   -0.270000       12.0110           0
     12195 LPSA11   36       BMANNA   HT1      HCA3     0.900000E-01   1.00800           0
     12196 LPSA11   36       BMANNA   HT2      HCA3     0.900000E-01   1.00800           0
     12197 LPSA11   36       BMANNA   HT3      HCA3     0.900000E-01   1.00800           0
     12198 LPSA11   36       BMANNA   C3       CC3161   0.140000       12.0110           0
     12199 LPSA11   36       BMANNA   H3       HCA1     0.900000E-01   1.00800           0
     12200 LPSA11   36       BMANNA   O3       OC311   -0.650000       15.9994           0
     12201 LPSA11   36       BMANNA   HO3      HCP1     0.420000       1.00800           0
     12202 LPSA11   36       BMANNA   C4       CC3161   0.140000       12.0110           0
     12203 LPSA11   36       BMANNA   H4       HCA1     0.900000E-01   1.00800           0
     12204 LPSA11   36       BMANNA   O4       OC311   -0.650000       15.9994           0
     12205 LPSA11   36       BMANNA   HO4      HCP1     0.420000       1.00800           0
     12206 LPSA11   36       BMANNA   C6       CC321    0.500000E-01   12.0110           0
     12207 LPSA11   36       BMANNA   H61      HCA2     0.900000E-01   1.00800           0
     12208 LPSA11   36       BMANNA   H62      HCA2     0.900000E-01   1.00800           0
     12209 LPSA11   36       BMANNA   O6       OC311   -0.650000       15.9994           0
     12210 LPSA11   36       BMANNA   HO6      HCP1     0.420000       1.00800           0
     12211 LPSA12   1        ECLIPA   HB6S     HCA2     0.900000E-01   1.00800           0
     12212 LPSA12   1        ECLIPA   OB6      OC301   -0.360000       15.9994           0
     12213 LPSA12   1        ECLIPA   CB6      CC321     0.00000       12.0110           0
     12214 LPSA12   1        ECLIPA   HB6R     HCA2     0.900000E-01   1.00800           0
     12215 LPSA12   1        ECLIPA   CB5      CC3163   0.110000       12.0110           0
     12216 LPSA12   1        ECLIPA   OB5      OC3C61  -0.400000       15.9994           0
     12217 LPSA12   1        ECLIPA   HB5      HCA1     0.900000E-01   1.00800           0
     12218 LPSA12   1        ECLIPA   CB1      CC3162   0.290000       12.0110           0
     12219 LPSA12   1        ECLIPA   HB1      HCA1     0.900000E-01   1.00800           0
     12220 LPSA12   1        ECLIPA   OA6      OC301   -0.360000       15.9994           0
     12221 LPSA12   1        ECLIPA   CA6      CC321     0.00000       12.0110           0
     12222 LPSA12   1        ECLIPA   HA6R     HCA2     0.900000E-01   1.00800           0
     12223 LPSA12   1        ECLIPA   HA6S     HCA2     0.900000E-01   1.00800           0
     12224 LPSA12   1        ECLIPA   CB4      CC3161  -0.900000E-01   12.0110           0
     12225 LPSA12   1        ECLIPA   HB4      HCA1     0.900000E-01   1.00800           0
     12226 LPSA12   1        ECLIPA   OB4      OC30P   -0.400000       15.9994           0
     12227 LPSA12   1        ECLIPA   PB       PC        1.10000       30.9740           0
     12228 LPSA12   1        ECLIPA   OPB4     OC2DP   -0.900000       15.9994           0
     12229 LPSA12   1        ECLIPA   OPB3     OC2DP   -0.900000       15.9994           0
     12230 LPSA12   1        ECLIPA   OPB2     OC2DP   -0.900000       15.9994           0
     12231 LPSA12   1        ECLIPA   CB3      CC3161   0.170000       12.0110           0
     12232 LPSA12   1        ECLIPA   OB3      OC301   -0.490000       15.9994           0
     12233 LPSA12   1        ECLIPA   HB3      HCA1     0.900000E-01   1.00800           0
     12234 LPSA12   1        ECLIPA   C71      CL       0.900000       12.0110           0
     12235 LPSA12   1        ECLIPA   O71      OBL     -0.630000       15.9994           0
     12236 LPSA12   1        ECLIPA   C72      CTL2    -0.220000       12.0110           0
     12237 LPSA12   1        ECLIPA   H72R     HAL2     0.900000E-01   1.00800           0
     12238 LPSA12   1        ECLIPA   H72S     HAL2     0.900000E-01   1.00800           0
     12239 LPSA12   1        ECLIPA   CB2      CC3161   0.700000E-01   12.0110           0
     12240 LPSA12   1        ECLIPA   HB2      HCA1     0.900000E-01   1.00800           0
     12241 LPSA12   1        ECLIPA   NB2      NC2D1   -0.470000       14.0070           0
     12242 LPSA12   1        ECLIPA   HNB2     HCP1     0.310000       1.00800           0
     12243 LPSA12   1        ECLIPA   CA4      CC3161   0.140000       12.0110           0
     12244 LPSA12   1        ECLIPA   HA4      HCA1     0.900000E-01   1.00800           0
     12245 LPSA12   1        ECLIPA   OA4      OC311   -0.650000       15.9994           0
     12246 LPSA12   1        ECLIPA   HOA4     HCP1     0.420000       1.00800           0
     12247 LPSA12   1        ECLIPA   CA5      CC3163   0.110000       12.0110           0
     12248 LPSA12   1        ECLIPA   HA5      HCA1     0.900000E-01   1.00800           0
     12249 LPSA12   1        ECLIPA   OA5      OC3C61  -0.400000       15.9994           0
     12250 LPSA12   1        ECLIPA   CA1      CC3162   0.110000       12.0110           0
     12251 LPSA12   1        ECLIPA   HA1      HCA1     0.900000E-01   1.00800           0
     12252 LPSA12   1        ECLIPA   OA1      OC30P   -0.400000       15.9994           0
     12253 LPSA12   1        ECLIPA   OPA2     OC2DP   -0.900000       15.9994           0
     12254 LPSA12   1        ECLIPA   OPA3     OC2DP   -0.900000       15.9994           0
     12255 LPSA12   1        ECLIPA   OPA4     OC2DP   -0.900000       15.9994           0
     12256 LPSA12   1        ECLIPA   PA       PC        1.10000       30.9740           0
     12257 LPSA12   1        ECLIPA   CA3      CC3161   0.170000       12.0110           0
     12258 LPSA12   1        ECLIPA   HA3      HCA1     0.900000E-01   1.00800           0
     12259 LPSA12   1        ECLIPA   OA3      OC301   -0.490000       15.9994           0
     12260 LPSA12   1        ECLIPA   C31      CL       0.900000       12.0110           0
     12261 LPSA12   1        ECLIPA   O31      OBL     -0.630000       15.9994           0
     12262 LPSA12   1        ECLIPA   C32      CTL2    -0.220000       12.0110           0
     12263 LPSA12   1        ECLIPA   H32R     HAL2     0.900000E-01   1.00800           0
     12264 LPSA12   1        ECLIPA   H32S     HAL2     0.900000E-01   1.00800           0
     12265 LPSA12   1        ECLIPA   CA2      CC3161   0.700000E-01   12.0110           0
     12266 LPSA12   1        ECLIPA   HA2      HCA1     0.900000E-01   1.00800           0
     12267 LPSA12   1        ECLIPA   NA2      NC2D1   -0.470000       14.0070           0
     12268 LPSA12   1        ECLIPA   HNA2     HCP1     0.310000       1.00800           0
     12269 LPSA12   1        ECLIPA   C73      CTL1     0.170000       12.0110           0
     12270 LPSA12   1        ECLIPA   H73R     HAL1     0.900000E-01   1.00800           0
     12271 LPSA12   1        ECLIPA   O73      OSL     -0.490000       15.9994           0
     12272 LPSA12   1        ECLIPA   C81      CL       0.900000       12.0110           0
     12273 LPSA12   1        ECLIPA   O81      OBL     -0.630000       15.9994           0
     12274 LPSA12   1        ECLIPA   C82      CTL2    -0.220000       12.0110           0
     12275 LPSA12   1        ECLIPA   H82R     HAL2     0.900000E-01   1.00800           0
     12276 LPSA12   1        ECLIPA   H82S     HAL2     0.900000E-01   1.00800           0
     12277 LPSA12   1        ECLIPA   C83      CTL2    -0.180000       12.0110           0
     12278 LPSA12   1        ECLIPA   H83R     HAL2     0.900000E-01   1.00800           0
     12279 LPSA12   1        ECLIPA   H83S     HAL2     0.900000E-01   1.00800           0
     12280 LPSA12   1        ECLIPA   C84      CTL2    -0.180000       12.0110           0
     12281 LPSA12   1        ECLIPA   H84R     HAL2     0.900000E-01   1.00800           0
     12282 LPSA12   1        ECLIPA   H84S     HAL2     0.900000E-01   1.00800           0
     12283 LPSA12   1        ECLIPA   C85      CTL2    -0.180000       12.0110           0
     12284 LPSA12   1        ECLIPA   H85R     HAL2     0.900000E-01   1.00800           0
     12285 LPSA12   1        ECLIPA   H85S     HAL2     0.900000E-01   1.00800           0
     12286 LPSA12   1        ECLIPA   C86      CTL2    -0.180000       12.0110           0
     12287 LPSA12   1        ECLIPA   H86R     HAL2     0.900000E-01   1.00800           0
     12288 LPSA12   1        ECLIPA   H86S     HAL2     0.900000E-01   1.00800           0
     12289 LPSA12   1        ECLIPA   C87      CTL2    -0.180000       12.0110           0
     12290 LPSA12   1        ECLIPA   H87R     HAL2     0.900000E-01   1.00800           0
     12291 LPSA12   1        ECLIPA   H87S     HAL2     0.900000E-01   1.00800           0
     12292 LPSA12   1        ECLIPA   C88      CTL2    -0.180000       12.0110           0
     12293 LPSA12   1        ECLIPA   H88R     HAL2     0.900000E-01   1.00800           0
     12294 LPSA12   1        ECLIPA   H88S     HAL2     0.900000E-01   1.00800           0
     12295 LPSA12   1        ECLIPA   C89      CTL2    -0.180000       12.0110           0
     12296 LPSA12   1        ECLIPA   H89R     HAL2     0.900000E-01   1.00800           0
     12297 LPSA12   1        ECLIPA   H89S     HAL2     0.900000E-01   1.00800           0
     12298 LPSA12   1        ECLIPA   C810     CTL2    -0.180000       12.0110           0
     12299 LPSA12   1        ECLIPA   H810R    HAL2     0.900000E-01   1.00800           0
     12300 LPSA12   1        ECLIPA   H810S    HAL2     0.900000E-01   1.00800           0
     12301 LPSA12   1        ECLIPA   C811     CTL2    -0.180000       12.0110           0
     12302 LPSA12   1        ECLIPA   H811R    HAL2     0.900000E-01   1.00800           0
     12303 LPSA12   1        ECLIPA   H811S    HAL2     0.900000E-01   1.00800           0
     12304 LPSA12   1        ECLIPA   C812     CTL2    -0.180000       12.0110           0
     12305 LPSA12   1        ECLIPA   H812R    HAL2     0.900000E-01   1.00800           0
     12306 LPSA12   1        ECLIPA   H812S    HAL2     0.900000E-01   1.00800           0
     12307 LPSA12   1        ECLIPA   C813     CTL2    -0.180000       12.0110           0
     12308 LPSA12   1        ECLIPA   H813R    HAL2     0.900000E-01   1.00800           0
     12309 LPSA12   1        ECLIPA   H813S    HAL2     0.900000E-01   1.00800           0
     12310 LPSA12   1        ECLIPA   C814     CTL3    -0.270000       12.0110           0
     12311 LPSA12   1        ECLIPA   H814R    HAL3     0.900000E-01   1.00800           0
     12312 LPSA12   1        ECLIPA   H814S    HAL3     0.900000E-01   1.00800           0
     12313 LPSA12   1        ECLIPA   H814T    HAL3     0.900000E-01   1.00800           0
     12314 LPSA12   1        ECLIPA   C74      CTL2    -0.180000       12.0110           0
     12315 LPSA12   1        ECLIPA   H74R     HAL2     0.900000E-01   1.00800           0
     12316 LPSA12   1        ECLIPA   H74S     HAL2     0.900000E-01   1.00800           0
     12317 LPSA12   1        ECLIPA   C75      CTL2    -0.180000       12.0110           0
     12318 LPSA12   1        ECLIPA   H75R     HAL2     0.900000E-01   1.00800           0
     12319 LPSA12   1        ECLIPA   H75S     HAL2     0.900000E-01   1.00800           0
     12320 LPSA12   1        ECLIPA   C76      CTL2    -0.180000       12.0110           0
     12321 LPSA12   1        ECLIPA   H76R     HAL2     0.900000E-01   1.00800           0
     12322 LPSA12   1        ECLIPA   H76S     HAL2     0.900000E-01   1.00800           0
     12323 LPSA12   1        ECLIPA   C77      CTL2    -0.180000       12.0110           0
     12324 LPSA12   1        ECLIPA   H77R     HAL2     0.900000E-01   1.00800           0
     12325 LPSA12   1        ECLIPA   H77S     HAL2     0.900000E-01   1.00800           0
     12326 LPSA12   1        ECLIPA   C78      CTL2    -0.180000       12.0110           0
     12327 LPSA12   1        ECLIPA   H78R     HAL2     0.900000E-01   1.00800           0
     12328 LPSA12   1        ECLIPA   H78S     HAL2     0.900000E-01   1.00800           0
     12329 LPSA12   1        ECLIPA   C79      CTL2    -0.180000       12.0110           0
     12330 LPSA12   1        ECLIPA   H79R     HAL2     0.900000E-01   1.00800           0
     12331 LPSA12   1        ECLIPA   H79S     HAL2     0.900000E-01   1.00800           0
     12332 LPSA12   1        ECLIPA   C710     CTL2    -0.180000       12.0110           0
     12333 LPSA12   1        ECLIPA   H710R    HAL2     0.900000E-01   1.00800           0
     12334 LPSA12   1        ECLIPA   H710S    HAL2     0.900000E-01   1.00800           0
     12335 LPSA12   1        ECLIPA   C711     CTL2    -0.180000       12.0110           0
     12336 LPSA12   1        ECLIPA   H711R    HAL2     0.900000E-01   1.00800           0
     12337 LPSA12   1        ECLIPA   H711S    HAL2     0.900000E-01   1.00800           0
     12338 LPSA12   1        ECLIPA   C712     CTL2    -0.180000       12.0110           0
     12339 LPSA12   1        ECLIPA   H712R    HAL2     0.900000E-01   1.00800           0
     12340 LPSA12   1        ECLIPA   H712S    HAL2     0.900000E-01   1.00800           0
     12341 LPSA12   1        ECLIPA   C713     CTL2    -0.180000       12.0110           0
     12342 LPSA12   1        ECLIPA   H713R    HAL2     0.900000E-01   1.00800           0
     12343 LPSA12   1        ECLIPA   H713S    HAL2     0.900000E-01   1.00800           0
     12344 LPSA12   1        ECLIPA   C714     CTL3    -0.270000       12.0110           0
     12345 LPSA12   1        ECLIPA   H714R    HAL3     0.900000E-01   1.00800           0
     12346 LPSA12   1        ECLIPA   H714S    HAL3     0.900000E-01   1.00800           0
     12347 LPSA12   1        ECLIPA   H714T    HAL3     0.900000E-01   1.00800           0
     12348 LPSA12   1        ECLIPA   C51      CC2O1    0.550000       12.0110           0
     12349 LPSA12   1        ECLIPA   O51      OC2D1   -0.550000       15.9994           0
     12350 LPSA12   1        ECLIPA   C52      CTL2    -0.180000       12.0110           0
     12351 LPSA12   1        ECLIPA   H52R     HAL2     0.900000E-01   1.00800           0
     12352 LPSA12   1        ECLIPA   H52S     HAL2     0.900000E-01   1.00800           0
     12353 LPSA12   1        ECLIPA   C53      CTL1     0.170000       12.0110           0
     12354 LPSA12   1        ECLIPA   H53R     HAL1     0.900000E-01   1.00800           0
     12355 LPSA12   1        ECLIPA   O53      OSL     -0.490000       15.9994           0
     12356 LPSA12   1        ECLIPA   C61      CL       0.900000       12.0110           0
     12357 LPSA12   1        ECLIPA   O61      OBL     -0.630000       15.9994           0
     12358 LPSA12   1        ECLIPA   C62      CTL2    -0.220000       12.0110           0
     12359 LPSA12   1        ECLIPA   H62R     HAL2     0.900000E-01   1.00800           0
     12360 LPSA12   1        ECLIPA   H62S     HAL2     0.900000E-01   1.00800           0
     12361 LPSA12   1        ECLIPA   C63      CTL2    -0.180000       12.0110           0
     12362 LPSA12   1        ECLIPA   H63R     HAL2     0.900000E-01   1.00800           0
     12363 LPSA12   1        ECLIPA   H63S     HAL2     0.900000E-01   1.00800           0
     12364 LPSA12   1        ECLIPA   C64      CTL2    -0.180000       12.0110           0
     12365 LPSA12   1        ECLIPA   H64R     HAL2     0.900000E-01   1.00800           0
     12366 LPSA12   1        ECLIPA   H64S     HAL2     0.900000E-01   1.00800           0
     12367 LPSA12   1        ECLIPA   C65      CTL2    -0.180000       12.0110           0
     12368 LPSA12   1        ECLIPA   H65R     HAL2     0.900000E-01   1.00800           0
     12369 LPSA12   1        ECLIPA   H65S     HAL2     0.900000E-01   1.00800           0
     12370 LPSA12   1        ECLIPA   C66      CTL2    -0.180000       12.0110           0
     12371 LPSA12   1        ECLIPA   H66R     HAL2     0.900000E-01   1.00800           0
     12372 LPSA12   1        ECLIPA   H66S     HAL2     0.900000E-01   1.00800           0
     12373 LPSA12   1        ECLIPA   C67      CTL2    -0.180000       12.0110           0
     12374 LPSA12   1        ECLIPA   H67R     HAL2     0.900000E-01   1.00800           0
     12375 LPSA12   1        ECLIPA   H67S     HAL2     0.900000E-01   1.00800           0
     12376 LPSA12   1        ECLIPA   C68      CTL2    -0.180000       12.0110           0
     12377 LPSA12   1        ECLIPA   H68R     HAL2     0.900000E-01   1.00800           0
     12378 LPSA12   1        ECLIPA   H68S     HAL2     0.900000E-01   1.00800           0
     12379 LPSA12   1        ECLIPA   C69      CTL2    -0.180000       12.0110           0
     12380 LPSA12   1        ECLIPA   H69R     HAL2     0.900000E-01   1.00800           0
     12381 LPSA12   1        ECLIPA   H69S     HAL2     0.900000E-01   1.00800           0
     12382 LPSA12   1        ECLIPA   C610     CTL2    -0.180000       12.0110           0
     12383 LPSA12   1        ECLIPA   H610R    HAL2     0.900000E-01   1.00800           0
     12384 LPSA12   1        ECLIPA   H610S    HAL2     0.900000E-01   1.00800           0
     12385 LPSA12   1        ECLIPA   C611     CTL2    -0.180000       12.0110           0
     12386 LPSA12   1        ECLIPA   H611R    HAL2     0.900000E-01   1.00800           0
     12387 LPSA12   1        ECLIPA   H611S    HAL2     0.900000E-01   1.00800           0
     12388 LPSA12   1        ECLIPA   C612     CTL3    -0.270000       12.0110           0
     12389 LPSA12   1        ECLIPA   H612R    HAL3     0.900000E-01   1.00800           0
     12390 LPSA12   1        ECLIPA   H612S    HAL3     0.900000E-01   1.00800           0
     12391 LPSA12   1        ECLIPA   H612T    HAL3     0.900000E-01   1.00800           0
     12392 LPSA12   1        ECLIPA   C54      CTL2    -0.180000       12.0110           0
     12393 LPSA12   1        ECLIPA   H54R     HAL2     0.900000E-01   1.00800           0
     12394 LPSA12   1        ECLIPA   H54S     HAL2     0.900000E-01   1.00800           0
     12395 LPSA12   1        ECLIPA   C55      CTL2    -0.180000       12.0110           0
     12396 LPSA12   1        ECLIPA   H55R     HAL2     0.900000E-01   1.00800           0
     12397 LPSA12   1        ECLIPA   H55S     HAL2     0.900000E-01   1.00800           0
     12398 LPSA12   1        ECLIPA   C56      CTL2    -0.180000       12.0110           0
     12399 LPSA12   1        ECLIPA   H56R     HAL2     0.900000E-01   1.00800           0
     12400 LPSA12   1        ECLIPA   H56S     HAL2     0.900000E-01   1.00800           0
     12401 LPSA12   1        ECLIPA   C57      CTL2    -0.180000       12.0110           0
     12402 LPSA12   1        ECLIPA   H57R     HAL2     0.900000E-01   1.00800           0
     12403 LPSA12   1        ECLIPA   H57S     HAL2     0.900000E-01   1.00800           0
     12404 LPSA12   1        ECLIPA   C58      CTL2    -0.180000       12.0110           0
     12405 LPSA12   1        ECLIPA   H58R     HAL2     0.900000E-01   1.00800           0
     12406 LPSA12   1        ECLIPA   H58S     HAL2     0.900000E-01   1.00800           0
     12407 LPSA12   1        ECLIPA   C59      CTL2    -0.180000       12.0110           0
     12408 LPSA12   1        ECLIPA   H59R     HAL2     0.900000E-01   1.00800           0
     12409 LPSA12   1        ECLIPA   H59S     HAL2     0.900000E-01   1.00800           0
     12410 LPSA12   1        ECLIPA   C510     CTL2    -0.180000       12.0110           0
     12411 LPSA12   1        ECLIPA   H510R    HAL2     0.900000E-01   1.00800           0
     12412 LPSA12   1        ECLIPA   H510S    HAL2     0.900000E-01   1.00800           0
     12413 LPSA12   1        ECLIPA   C511     CTL2    -0.180000       12.0110           0
     12414 LPSA12   1        ECLIPA   H511R    HAL2     0.900000E-01   1.00800           0
     12415 LPSA12   1        ECLIPA   H511S    HAL2     0.900000E-01   1.00800           0
     12416 LPSA12   1        ECLIPA   C512     CTL2    -0.180000       12.0110           0
     12417 LPSA12   1        ECLIPA   H512R    HAL2     0.900000E-01   1.00800           0
     12418 LPSA12   1        ECLIPA   H512S    HAL2     0.900000E-01   1.00800           0
     12419 LPSA12   1        ECLIPA   C513     CTL2    -0.180000       12.0110           0
     12420 LPSA12   1        ECLIPA   H513R    HAL2     0.900000E-01   1.00800           0
     12421 LPSA12   1        ECLIPA   H513S    HAL2     0.900000E-01   1.00800           0
     12422 LPSA12   1        ECLIPA   C514     CTL3    -0.270000       12.0110           0
     12423 LPSA12   1        ECLIPA   H514R    HAL3     0.900000E-01   1.00800           0
     12424 LPSA12   1        ECLIPA   H514S    HAL3     0.900000E-01   1.00800           0
     12425 LPSA12   1        ECLIPA   H514T    HAL3     0.900000E-01   1.00800           0
     12426 LPSA12   1        ECLIPA   C33      CTL1     0.140000       12.0110           0
     12427 LPSA12   1        ECLIPA   H33R     HAL1     0.900000E-01   1.00800           0
     12428 LPSA12   1        ECLIPA   O33      OH1     -0.660000       15.9994           0
     12429 LPSA12   1        ECLIPA   HO33     H        0.430000       1.00800           0
     12430 LPSA12   1        ECLIPA   C34      CTL2    -0.180000       12.0110           0
     12431 LPSA12   1        ECLIPA   H34R     HAL2     0.900000E-01   1.00800           0
     12432 LPSA12   1        ECLIPA   H34S     HAL2     0.900000E-01   1.00800           0
     12433 LPSA12   1        ECLIPA   C35      CTL2    -0.180000       12.0110           0
     12434 LPSA12   1        ECLIPA   H35R     HAL2     0.900000E-01   1.00800           0
     12435 LPSA12   1        ECLIPA   H35S     HAL2     0.900000E-01   1.00800           0
     12436 LPSA12   1        ECLIPA   C36      CTL2    -0.180000       12.0110           0
     12437 LPSA12   1        ECLIPA   H36R     HAL2     0.900000E-01   1.00800           0
     12438 LPSA12   1        ECLIPA   H36S     HAL2     0.900000E-01   1.00800           0
     12439 LPSA12   1        ECLIPA   C37      CTL2    -0.180000       12.0110           0
     12440 LPSA12   1        ECLIPA   H37R     HAL2     0.900000E-01   1.00800           0
     12441 LPSA12   1        ECLIPA   H37S     HAL2     0.900000E-01   1.00800           0
     12442 LPSA12   1        ECLIPA   C38      CTL2    -0.180000       12.0110           0
     12443 LPSA12   1        ECLIPA   H38R     HAL2     0.900000E-01   1.00800           0
     12444 LPSA12   1        ECLIPA   H38S     HAL2     0.900000E-01   1.00800           0
     12445 LPSA12   1        ECLIPA   C39      CTL2    -0.180000       12.0110           0
     12446 LPSA12   1        ECLIPA   H39R     HAL2     0.900000E-01   1.00800           0
     12447 LPSA12   1        ECLIPA   H39S     HAL2     0.900000E-01   1.00800           0
     12448 LPSA12   1        ECLIPA   C310     CTL2    -0.180000       12.0110           0
     12449 LPSA12   1        ECLIPA   H310R    HAL2     0.900000E-01   1.00800           0
     12450 LPSA12   1        ECLIPA   H310S    HAL2     0.900000E-01   1.00800           0
     12451 LPSA12   1        ECLIPA   C311     CTL2    -0.180000       12.0110           0
     12452 LPSA12   1        ECLIPA   H311R    HAL2     0.900000E-01   1.00800           0
     12453 LPSA12   1        ECLIPA   H311S    HAL2     0.900000E-01   1.00800           0
     12454 LPSA12   1        ECLIPA   C312     CTL2    -0.180000       12.0110           0
     12455 LPSA12   1        ECLIPA   H312R    HAL2     0.900000E-01   1.00800           0
     12456 LPSA12   1        ECLIPA   H312S    HAL2     0.900000E-01   1.00800           0
     12457 LPSA12   1        ECLIPA   C313     CTL2    -0.180000       12.0110           0
     12458 LPSA12   1        ECLIPA   H313R    HAL2     0.900000E-01   1.00800           0
     12459 LPSA12   1        ECLIPA   H313S    HAL2     0.900000E-01   1.00800           0
     12460 LPSA12   1        ECLIPA   C314     CTL3    -0.270000       12.0110           0
     12461 LPSA12   1        ECLIPA   H314R    HAL3     0.900000E-01   1.00800           0
     12462 LPSA12   1        ECLIPA   H314S    HAL3     0.900000E-01   1.00800           0
     12463 LPSA12   1        ECLIPA   H314T    HAL3     0.900000E-01   1.00800           0
     12464 LPSA12   1        ECLIPA   C11      CC2O1    0.550000       12.0110           0
     12465 LPSA12   1        ECLIPA   O11      OC2D1   -0.550000       15.9994           0
     12466 LPSA12   1        ECLIPA   C12      CTL2    -0.180000       12.0110           0
     12467 LPSA12   1        ECLIPA   H12R     HAL2     0.900000E-01   1.00800           0
     12468 LPSA12   1        ECLIPA   H12S     HAL2     0.900000E-01   1.00800           0
     12469 LPSA12   1        ECLIPA   C13      CTL1     0.140000       12.0110           0
     12470 LPSA12   1        ECLIPA   H13R     HAL1     0.900000E-01   1.00800           0
     12471 LPSA12   1        ECLIPA   O13      OH1     -0.660000       15.9994           0
     12472 LPSA12   1        ECLIPA   HO13     H        0.430000       1.00800           0
     12473 LPSA12   1        ECLIPA   C14      CTL2    -0.180000       12.0110           0
     12474 LPSA12   1        ECLIPA   H14R     HAL2     0.900000E-01   1.00800           0
     12475 LPSA12   1        ECLIPA   H14S     HAL2     0.900000E-01   1.00800           0
     12476 LPSA12   1        ECLIPA   C15      CTL2    -0.180000       12.0110           0
     12477 LPSA12   1        ECLIPA   H15R     HAL2     0.900000E-01   1.00800           0
     12478 LPSA12   1        ECLIPA   H15S     HAL2     0.900000E-01   1.00800           0
     12479 LPSA12   1        ECLIPA   C16      CTL2    -0.180000       12.0110           0
     12480 LPSA12   1        ECLIPA   H16R     HAL2     0.900000E-01   1.00800           0
     12481 LPSA12   1        ECLIPA   H16S     HAL2     0.900000E-01   1.00800           0
     12482 LPSA12   1        ECLIPA   C17      CTL2    -0.180000       12.0110           0
     12483 LPSA12   1        ECLIPA   H17R     HAL2     0.900000E-01   1.00800           0
     12484 LPSA12   1        ECLIPA   H17S     HAL2     0.900000E-01   1.00800           0
     12485 LPSA12   1        ECLIPA   C18      CTL2    -0.180000       12.0110           0
     12486 LPSA12   1        ECLIPA   H18R     HAL2     0.900000E-01   1.00800           0
     12487 LPSA12   1        ECLIPA   H18S     HAL2     0.900000E-01   1.00800           0
     12488 LPSA12   1        ECLIPA   C19      CTL2    -0.180000       12.0110           0
     12489 LPSA12   1        ECLIPA   H19R     HAL2     0.900000E-01   1.00800           0
     12490 LPSA12   1        ECLIPA   H19S     HAL2     0.900000E-01   1.00800           0
     12491 LPSA12   1        ECLIPA   C110     CTL2    -0.180000       12.0110           0
     12492 LPSA12   1        ECLIPA   H110R    HAL2     0.900000E-01   1.00800           0
     12493 LPSA12   1        ECLIPA   H110S    HAL2     0.900000E-01   1.00800           0
     12494 LPSA12   1        ECLIPA   C111     CTL2    -0.180000       12.0110           0
     12495 LPSA12   1        ECLIPA   H111R    HAL2     0.900000E-01   1.00800           0
     12496 LPSA12   1        ECLIPA   H111S    HAL2     0.900000E-01   1.00800           0
     12497 LPSA12   1        ECLIPA   C112     CTL2    -0.180000       12.0110           0
     12498 LPSA12   1        ECLIPA   H112R    HAL2     0.900000E-01   1.00800           0
     12499 LPSA12   1        ECLIPA   H112S    HAL2     0.900000E-01   1.00800           0
     12500 LPSA12   1        ECLIPA   C113     CTL2    -0.180000       12.0110           0
     12501 LPSA12   1        ECLIPA   H113R    HAL2     0.900000E-01   1.00800           0
     12502 LPSA12   1        ECLIPA   H113S    HAL2     0.900000E-01   1.00800           0
     12503 LPSA12   1        ECLIPA   C114     CTL3    -0.270000       12.0110           0
     12504 LPSA12   1        ECLIPA   H114R    HAL3     0.900000E-01   1.00800           0
     12505 LPSA12   1        ECLIPA   H114S    HAL3     0.900000E-01   1.00800           0
     12506 LPSA12   1        ECLIPA   H114T    HAL3     0.900000E-01   1.00800           0
     12507 LPSA12   2        AKDO     C1       CC2O2    0.300000       12.0110           0
     12508 LPSA12   2        AKDO     O11      OC2D2   -0.600000       15.9994           0
     12509 LPSA12   2        AKDO     O12      OC2D2   -0.600000       15.9994           0
     12510 LPSA12   2        AKDO     C2       CC3062   0.280000       12.0110           0
     12511 LPSA12   2        AKDO     C6       CC3163   0.110000       12.0110           0
     12512 LPSA12   2        AKDO     H6       HCA1     0.900000E-01   1.00800           0
     12513 LPSA12   2        AKDO     O6       OC3C61  -0.400000       15.9994           0
     12514 LPSA12   2        AKDO     C3       CC3261  -0.180000       12.0110           0
     12515 LPSA12   2        AKDO     H31      HCA2     0.900000E-01   1.00800           0
     12516 LPSA12   2        AKDO     H32      HCA2     0.900000E-01   1.00800           0
     12517 LPSA12   2        AKDO     C4       CC3161   0.900000E-01   12.0110           0
     12518 LPSA12   2        AKDO     H4       HCA1     0.900000E-01   1.00800           0
     12519 LPSA12   2        AKDO     O4       OC301   -0.360000       15.9994           0
     12520 LPSA12   2        AKDO     C5       CC3161   0.900000E-01   12.0110           0
     12521 LPSA12   2        AKDO     H5       HCA1     0.900000E-01   1.00800           0
     12522 LPSA12   2        AKDO     O5       OC301   -0.360000       15.9994           0
     12523 LPSA12   2        AKDO     C7       CC312    0.140000       12.0110           0
     12524 LPSA12   2        AKDO     H7       HCA1     0.900000E-01   1.00800           0
     12525 LPSA12   2        AKDO     O7       OC311   -0.650000       15.9994           0
     12526 LPSA12   2        AKDO     HO7      HCP1     0.420000       1.00800           0
     12527 LPSA12   2        AKDO     C8       CC322    0.500000E-01   12.0110           0
     12528 LPSA12   2        AKDO     H81      HCA2     0.900000E-01   1.00800           0
     12529 LPSA12   2        AKDO     H82      HCA2     0.900000E-01   1.00800           0
     12530 LPSA12   2        AKDO     O8       OC311   -0.650000       15.9994           0
     12531 LPSA12   2        AKDO     HO8      HCP1     0.420000       1.00800           0
     12532 LPSA12   3        AKDO     C1       CC2O2    0.300000       12.0110           0
     12533 LPSA12   3        AKDO     O11      OC2D2   -0.600000       15.9994           0
     12534 LPSA12   3        AKDO     O12      OC2D2   -0.600000       15.9994           0
     12535 LPSA12   3        AKDO     C2       CC3062   0.280000       12.0110           0
     12536 LPSA12   3        AKDO     C6       CC3163   0.110000       12.0110           0
     12537 LPSA12   3        AKDO     H6       HCA1     0.900000E-01   1.00800           0
     12538 LPSA12   3        AKDO     O6       OC3C61  -0.400000       15.9994           0
     12539 LPSA12   3        AKDO     C3       CC3261  -0.180000       12.0110           0
     12540 LPSA12   3        AKDO     H31      HCA2     0.900000E-01   1.00800           0
     12541 LPSA12   3        AKDO     H32      HCA2     0.900000E-01   1.00800           0
     12542 LPSA12   3        AKDO     C4       CC3161   0.140000       12.0110           0
     12543 LPSA12   3        AKDO     H4       HCA1     0.900000E-01   1.00800           0
     12544 LPSA12   3        AKDO     O4       OC311   -0.650000       15.9994           0
     12545 LPSA12   3        AKDO     HO4      HCP1     0.420000       1.00800           0
     12546 LPSA12   3        AKDO     C5       CC3161   0.140000       12.0110           0
     12547 LPSA12   3        AKDO     H5       HCA1     0.900000E-01   1.00800           0
     12548 LPSA12   3        AKDO     O5       OC311   -0.650000       15.9994           0
     12549 LPSA12   3        AKDO     HO5      HCP1     0.420000       1.00800           0
     12550 LPSA12   3        AKDO     C7       CC312    0.140000       12.0110           0
     12551 LPSA12   3        AKDO     H7       HCA1     0.900000E-01   1.00800           0
     12552 LPSA12   3        AKDO     O7       OC311   -0.650000       15.9994           0
     12553 LPSA12   3        AKDO     HO7      HCP1     0.420000       1.00800           0
     12554 LPSA12   3        AKDO     C8       CC322    0.500000E-01   12.0110           0
     12555 LPSA12   3        AKDO     H81      HCA2     0.900000E-01   1.00800           0
     12556 LPSA12   3        AKDO     H82      HCA2     0.900000E-01   1.00800           0
     12557 LPSA12   3        AKDO     O8       OC311   -0.650000       15.9994           0
     12558 LPSA12   3        AKDO     HO8      HCP1     0.420000       1.00800           0
     12559 LPSA12   4        AHEP     C1       CC3162   0.290000       12.0110           0
     12560 LPSA12   4        AHEP     H1       HCA1     0.900000E-01   1.00800           0
     12561 LPSA12   4        AHEP     C5       CC3163   0.110000       12.0110           0
     12562 LPSA12   4        AHEP     H5       HCA1     0.900000E-01   1.00800           0
     12563 LPSA12   4        AHEP     O5       OC3C61  -0.400000       15.9994           0
     12564 LPSA12   4        AHEP     C2       CC3161   0.140000       12.0110           0
     12565 LPSA12   4        AHEP     H2       HCA1     0.900000E-01   1.00800           0
     12566 LPSA12   4        AHEP     O2       OC311   -0.650000       15.9994           0
     12567 LPSA12   4        AHEP     HO2      HCP1     0.420000       1.00800           0
     12568 LPSA12   4        AHEP     C3       CC3161   0.900000E-01   12.0110           0
     12569 LPSA12   4        AHEP     H3       HCA1     0.900000E-01   1.00800           0
     12570 LPSA12   4        AHEP     O3       OC301   -0.360000       15.9994           0
     12571 LPSA12   4        AHEP     C4       CC3161  -0.900000E-01   12.0110           0
     12572 LPSA12   4        AHEP     H4       HCA1     0.900000E-01   1.00800           0
     12573 LPSA12   4        AHEP     O4       OC30P   -0.400000       15.9994           0
     12574 LPSA12   4        AHEP     P4       PC        1.10000       30.9740           0
     12575 LPSA12   4        AHEP     OP42     OC2DP   -0.900000       15.9994           0
     12576 LPSA12   4        AHEP     OP43     OC2DP   -0.900000       15.9994           0
     12577 LPSA12   4        AHEP     OP44     OC2DP   -0.900000       15.9994           0
     12578 LPSA12   4        AHEP     C6       CC312    0.140000       12.0110           0
     12579 LPSA12   4        AHEP     H6       HCA1     0.900000E-01   1.00800           0
     12580 LPSA12   4        AHEP     O6       OC311   -0.650000       15.9994           0
     12581 LPSA12   4        AHEP     HO6      HCP1     0.420000       1.00800           0
     12582 LPSA12   4        AHEP     C7       CC322    0.500000E-01   12.0110           0
     12583 LPSA12   4        AHEP     H71      HCA2     0.900000E-01   1.00800           0
     12584 LPSA12   4        AHEP     H72      HCA2     0.900000E-01   1.00800           0
     12585 LPSA12   4        AHEP     O7       OC311   -0.650000       15.9994           0
     12586 LPSA12   4        AHEP     HO7      HCP1     0.420000       1.00800           0
     12587 LPSA12   5        AHEP     C1       CC3162   0.290000       12.0110           0
     12588 LPSA12   5        AHEP     H1       HCA1     0.900000E-01   1.00800           0
     12589 LPSA12   5        AHEP     C5       CC3163   0.110000       12.0110           0
     12590 LPSA12   5        AHEP     H5       HCA1     0.900000E-01   1.00800           0
     12591 LPSA12   5        AHEP     O5       OC3C61  -0.400000       15.9994           0
     12592 LPSA12   5        AHEP     C2       CC3161   0.140000       12.0110           0
     12593 LPSA12   5        AHEP     H2       HCA1     0.900000E-01   1.00800           0
     12594 LPSA12   5        AHEP     O2       OC311   -0.650000       15.9994           0
     12595 LPSA12   5        AHEP     HO2      HCP1     0.420000       1.00800           0
     12596 LPSA12   5        AHEP     C3       CC3161   0.900000E-01   12.0110           0
     12597 LPSA12   5        AHEP     H3       HCA1     0.900000E-01   1.00800           0
     12598 LPSA12   5        AHEP     O3       OC301   -0.360000       15.9994           0
     12599 LPSA12   5        AHEP     C4       CC3161  -0.900000E-01   12.0110           0
     12600 LPSA12   5        AHEP     H4       HCA1     0.900000E-01   1.00800           0
     12601 LPSA12   5        AHEP     O4       OC30P   -0.400000       15.9994           0
     12602 LPSA12   5        AHEP     P4       PC        1.10000       30.9740           0
     12603 LPSA12   5        AHEP     OP42     OC2DP   -0.900000       15.9994           0
     12604 LPSA12   5        AHEP     OP43     OC2DP   -0.900000       15.9994           0
     12605 LPSA12   5        AHEP     OP44     OC2DP   -0.900000       15.9994           0
     12606 LPSA12   5        AHEP     C6       CC312    0.140000       12.0110           0
     12607 LPSA12   5        AHEP     H6       HCA1     0.900000E-01   1.00800           0
     12608 LPSA12   5        AHEP     O6       OC311   -0.650000       15.9994           0
     12609 LPSA12   5        AHEP     HO6      HCP1     0.420000       1.00800           0
     12610 LPSA12   5        AHEP     C7       CC322     0.00000       12.0110           0
     12611 LPSA12   5        AHEP     H71      HCA2     0.900000E-01   1.00800           0
     12612 LPSA12   5        AHEP     H72      HCA2     0.900000E-01   1.00800           0
     12613 LPSA12   5        AHEP     O7       OC301   -0.360000       15.9994           0
     12614 LPSA12   6        AHEP     C1       CC3162   0.290000       12.0110           0
     12615 LPSA12   6        AHEP     H1       HCA1     0.900000E-01   1.00800           0
     12616 LPSA12   6        AHEP     C5       CC3163   0.110000       12.0110           0
     12617 LPSA12   6        AHEP     H5       HCA1     0.900000E-01   1.00800           0
     12618 LPSA12   6        AHEP     O5       OC3C61  -0.400000       15.9994           0
     12619 LPSA12   6        AHEP     C2       CC3161   0.140000       12.0110           0
     12620 LPSA12   6        AHEP     H2       HCA1     0.900000E-01   1.00800           0
     12621 LPSA12   6        AHEP     O2       OC311   -0.650000       15.9994           0
     12622 LPSA12   6        AHEP     HO2      HCP1     0.420000       1.00800           0
     12623 LPSA12   6        AHEP     C3       CC3161   0.140000       12.0110           0
     12624 LPSA12   6        AHEP     H3       HCA1     0.900000E-01   1.00800           0
     12625 LPSA12   6        AHEP     O3       OC311   -0.650000       15.9994           0
     12626 LPSA12   6        AHEP     HO3      HCP1     0.420000       1.00800           0
     12627 LPSA12   6        AHEP     C4       CC3161   0.140000       12.0110           0
     12628 LPSA12   6        AHEP     H4       HCA1     0.900000E-01   1.00800           0
     12629 LPSA12   6        AHEP     O4       OC311   -0.650000       15.9994           0
     12630 LPSA12   6        AHEP     HO4      HCP1     0.420000       1.00800           0
     12631 LPSA12   6        AHEP     C6       CC312    0.140000       12.0110           0
     12632 LPSA12   6        AHEP     H6       HCA1     0.900000E-01   1.00800           0
     12633 LPSA12   6        AHEP     O6       OC311   -0.650000       15.9994           0
     12634 LPSA12   6        AHEP     HO6      HCP1     0.420000       1.00800           0
     12635 LPSA12   6        AHEP     C7       CC322    0.500000E-01   12.0110           0
     12636 LPSA12   6        AHEP     H71      HCA2     0.900000E-01   1.00800           0
     12637 LPSA12   6        AHEP     H72      HCA2     0.900000E-01   1.00800           0
     12638 LPSA12   6        AHEP     O7       OC311   -0.650000       15.9994           0
     12639 LPSA12   6        AHEP     HO7      HCP1     0.420000       1.00800           0
     12640 LPSA12   7        AGLC     C1       CC3162   0.290000       12.0110           0
     12641 LPSA12   7        AGLC     H1       HCA1     0.900000E-01   1.00800           0
     12642 LPSA12   7        AGLC     C5       CC3163   0.110000       12.0110           0
     12643 LPSA12   7        AGLC     H5       HCA1     0.900000E-01   1.00800           0
     12644 LPSA12   7        AGLC     O5       OC3C61  -0.400000       15.9994           0
     12645 LPSA12   7        AGLC     C2       CC3161   0.140000       12.0110           0
     12646 LPSA12   7        AGLC     H2       HCA1     0.900000E-01   1.00800           0
     12647 LPSA12   7        AGLC     O2       OC311   -0.650000       15.9994           0
     12648 LPSA12   7        AGLC     HO2      HCP1     0.420000       1.00800           0
     12649 LPSA12   7        AGLC     C3       CC3161   0.900000E-01   12.0110           0
     12650 LPSA12   7        AGLC     H3       HCA1     0.900000E-01   1.00800           0
     12651 LPSA12   7        AGLC     O3       OC301   -0.360000       15.9994           0
     12652 LPSA12   7        AGLC     C4       CC3161   0.140000       12.0110           0
     12653 LPSA12   7        AGLC     H4       HCA1     0.900000E-01   1.00800           0
     12654 LPSA12   7        AGLC     O4       OC311   -0.650000       15.9994           0
     12655 LPSA12   7        AGLC     HO4      HCP1     0.420000       1.00800           0
     12656 LPSA12   7        AGLC     C6       CC321    0.500000E-01   12.0110           0
     12657 LPSA12   7        AGLC     H61      HCA2     0.900000E-01   1.00800           0
     12658 LPSA12   7        AGLC     H62      HCA2     0.900000E-01   1.00800           0
     12659 LPSA12   7        AGLC     O6       OC311   -0.650000       15.9994           0
     12660 LPSA12   7        AGLC     HO6      HCP1     0.420000       1.00800           0
     12661 LPSA12   8        AGLC     C1       CC3162   0.290000       12.0110           0
     12662 LPSA12   8        AGLC     H1       HCA1     0.900000E-01   1.00800           0
     12663 LPSA12   8        AGLC     C5       CC3163   0.110000       12.0110           0
     12664 LPSA12   8        AGLC     H5       HCA1     0.900000E-01   1.00800           0
     12665 LPSA12   8        AGLC     O5       OC3C61  -0.400000       15.9994           0
     12666 LPSA12   8        AGLC     C2       CC3161   0.900000E-01   12.0110           0
     12667 LPSA12   8        AGLC     H2       HCA1     0.900000E-01   1.00800           0
     12668 LPSA12   8        AGLC     O2       OC301   -0.360000       15.9994           0
     12669 LPSA12   8        AGLC     C3       CC3161   0.900000E-01   12.0110           0
     12670 LPSA12   8        AGLC     H3       HCA1     0.900000E-01   1.00800           0
     12671 LPSA12   8        AGLC     O3       OC301   -0.360000       15.9994           0
     12672 LPSA12   8        AGLC     C4       CC3161   0.140000       12.0110           0
     12673 LPSA12   8        AGLC     H4       HCA1     0.900000E-01   1.00800           0
     12674 LPSA12   8        AGLC     O4       OC311   -0.650000       15.9994           0
     12675 LPSA12   8        AGLC     HO4      HCP1     0.420000       1.00800           0
     12676 LPSA12   8        AGLC     C6       CC321    0.500000E-01   12.0110           0
     12677 LPSA12   8        AGLC     H61      HCA2     0.900000E-01   1.00800           0
     12678 LPSA12   8        AGLC     H62      HCA2     0.900000E-01   1.00800           0
     12679 LPSA12   8        AGLC     O6       OC311   -0.650000       15.9994           0
     12680 LPSA12   8        AGLC     HO6      HCP1     0.420000       1.00800           0
     12681 LPSA12   9        AGAL     C1       CC3162   0.290000       12.0110           0
     12682 LPSA12   9        AGAL     H1       HCA1     0.900000E-01   1.00800           0
     12683 LPSA12   9        AGAL     C5       CC3163   0.110000       12.0110           0
     12684 LPSA12   9        AGAL     H5       HCA1     0.900000E-01   1.00800           0
     12685 LPSA12   9        AGAL     O5       OC3C61  -0.400000       15.9994           0
     12686 LPSA12   9        AGAL     C2       CC3161   0.900000E-01   12.0110           0
     12687 LPSA12   9        AGAL     H2       HCA1     0.900000E-01   1.00800           0
     12688 LPSA12   9        AGAL     O2       OC301   -0.360000       15.9994           0
     12689 LPSA12   9        AGAL     C3       CC3161   0.140000       12.0110           0
     12690 LPSA12   9        AGAL     H3       HCA1     0.900000E-01   1.00800           0
     12691 LPSA12   9        AGAL     O3       OC311   -0.650000       15.9994           0
     12692 LPSA12   9        AGAL     HO3      HCP1     0.420000       1.00800           0
     12693 LPSA12   9        AGAL     C4       CC3161   0.140000       12.0110           0
     12694 LPSA12   9        AGAL     H4       HCA1     0.900000E-01   1.00800           0
     12695 LPSA12   9        AGAL     O4       OC311   -0.650000       15.9994           0
     12696 LPSA12   9        AGAL     HO4      HCP1     0.420000       1.00800           0
     12697 LPSA12   9        AGAL     C6       CC321    0.500000E-01   12.0110           0
     12698 LPSA12   9        AGAL     H61      HCA2     0.900000E-01   1.00800           0
     12699 LPSA12   9        AGAL     H62      HCA2     0.900000E-01   1.00800           0
     12700 LPSA12   9        AGAL     O6       OC311   -0.650000       15.9994           0
     12701 LPSA12   9        AGAL     HO6      HCP1     0.420000       1.00800           0
     12702 LPSA12   10       AGAL     C1       CC3162   0.290000       12.0110           0
     12703 LPSA12   10       AGAL     H1       HCA1     0.900000E-01   1.00800           0
     12704 LPSA12   10       AGAL     C5       CC3163   0.110000       12.0110           0
     12705 LPSA12   10       AGAL     H5       HCA1     0.900000E-01   1.00800           0
     12706 LPSA12   10       AGAL     O5       OC3C61  -0.400000       15.9994           0
     12707 LPSA12   10       AGAL     C2       CC3161   0.140000       12.0110           0
     12708 LPSA12   10       AGAL     H2       HCA1     0.900000E-01   1.00800           0
     12709 LPSA12   10       AGAL     O2       OC311   -0.650000       15.9994           0
     12710 LPSA12   10       AGAL     HO2      HCP1     0.420000       1.00800           0
     12711 LPSA12   10       AGAL     C3       CC3161   0.140000       12.0110           0
     12712 LPSA12   10       AGAL     H3       HCA1     0.900000E-01   1.00800           0
     12713 LPSA12   10       AGAL     O3       OC311   -0.650000       15.9994           0
     12714 LPSA12   10       AGAL     HO3      HCP1     0.420000       1.00800           0
     12715 LPSA12   10       AGAL     C4       CC3161   0.140000       12.0110           0
     12716 LPSA12   10       AGAL     H4       HCA1     0.900000E-01   1.00800           0
     12717 LPSA12   10       AGAL     O4       OC311   -0.650000       15.9994           0
     12718 LPSA12   10       AGAL     HO4      HCP1     0.420000       1.00800           0
     12719 LPSA12   10       AGAL     C6       CC321    0.500000E-01   12.0110           0
     12720 LPSA12   10       AGAL     H61      HCA2     0.900000E-01   1.00800           0
     12721 LPSA12   10       AGAL     H62      HCA2     0.900000E-01   1.00800           0
     12722 LPSA12   10       AGAL     O6       OC311   -0.650000       15.9994           0
     12723 LPSA12   10       AGAL     HO6      HCP1     0.420000       1.00800           0
     12724 LPSA12   11       BGLC     C1       CC3162   0.290000       12.0110           0
     12725 LPSA12   11       BGLC     H1       HCA1     0.900000E-01   1.00800           0
     12726 LPSA12   11       BGLC     C5       CC3163   0.110000       12.0110           0
     12727 LPSA12   11       BGLC     H5       HCA1     0.900000E-01   1.00800           0
     12728 LPSA12   11       BGLC     O5       OC3C61  -0.400000       15.9994           0
     12729 LPSA12   11       BGLC     C2       CC3161   0.140000       12.0110           0
     12730 LPSA12   11       BGLC     H2       HCA1     0.900000E-01   1.00800           0
     12731 LPSA12   11       BGLC     O2       OC311   -0.650000       15.9994           0
     12732 LPSA12   11       BGLC     HO2      HCP1     0.420000       1.00800           0
     12733 LPSA12   11       BGLC     C3       CC3161   0.900000E-01   12.0110           0
     12734 LPSA12   11       BGLC     H3       HCA1     0.900000E-01   1.00800           0
     12735 LPSA12   11       BGLC     O3       OC301   -0.360000       15.9994           0
     12736 LPSA12   11       BGLC     C4       CC3161   0.140000       12.0110           0
     12737 LPSA12   11       BGLC     H4       HCA1     0.900000E-01   1.00800           0
     12738 LPSA12   11       BGLC     O4       OC311   -0.650000       15.9994           0
     12739 LPSA12   11       BGLC     HO4      HCP1     0.420000       1.00800           0
     12740 LPSA12   11       BGLC     C6       CC321    0.500000E-01   12.0110           0
     12741 LPSA12   11       BGLC     H61      HCA2     0.900000E-01   1.00800           0
     12742 LPSA12   11       BGLC     H62      HCA2     0.900000E-01   1.00800           0
     12743 LPSA12   11       BGLC     O6       OC311   -0.650000       15.9994           0
     12744 LPSA12   11       BGLC     HO6      HCP1     0.420000       1.00800           0
     12745 LPSA12   12       BGLCNA   C1       CC3162   0.290000       12.0110           0
     12746 LPSA12   12       BGLCNA   H1       HCA1     0.900000E-01   1.00800           0
     12747 LPSA12   12       BGLCNA   C5       CC3163   0.110000       12.0110           0
     12748 LPSA12   12       BGLCNA   H5       HCA1     0.900000E-01   1.00800           0
     12749 LPSA12   12       BGLCNA   O5       OC3C61  -0.400000       15.9994           0
     12750 LPSA12   12       BGLCNA   C2       CC3161   0.700000E-01   12.0110           0
     12751 LPSA12   12       BGLCNA   H2       HCA1     0.900000E-01   1.00800           0
     12752 LPSA12   12       BGLCNA   N        NC2D1   -0.470000       14.0070           0
     12753 LPSA12   12       BGLCNA   HN       HCP1     0.310000       1.00800           0
     12754 LPSA12   12       BGLCNA   C        CC2O1    0.510000       12.0110           0
     12755 LPSA12   12       BGLCNA   O        OC2D1   -0.510000       15.9994           0
     12756 LPSA12   12       BGLCNA   CT       CC331   -0.270000       12.0110           0
     12757 LPSA12   12       BGLCNA   HT1      HCA3     0.900000E-01   1.00800           0
     12758 LPSA12   12       BGLCNA   HT2      HCA3     0.900000E-01   1.00800           0
     12759 LPSA12   12       BGLCNA   HT3      HCA3     0.900000E-01   1.00800           0
     12760 LPSA12   12       BGLCNA   C3       CC3161   0.900000E-01   12.0110           0
     12761 LPSA12   12       BGLCNA   H3       HCA1     0.900000E-01   1.00800           0
     12762 LPSA12   12       BGLCNA   O3       OC301   -0.360000       15.9994           0
     12763 LPSA12   12       BGLCNA   C4       CC3161   0.140000       12.0110           0
     12764 LPSA12   12       BGLCNA   H4       HCA1     0.900000E-01   1.00800           0
     12765 LPSA12   12       BGLCNA   O4       OC311   -0.650000       15.9994           0
     12766 LPSA12   12       BGLCNA   HO4      HCP1     0.420000       1.00800           0
     12767 LPSA12   12       BGLCNA   C6       CC321    0.500000E-01   12.0110           0
     12768 LPSA12   12       BGLCNA   H61      HCA2     0.900000E-01   1.00800           0
     12769 LPSA12   12       BGLCNA   H62      HCA2     0.900000E-01   1.00800           0
     12770 LPSA12   12       BGLCNA   O6       OC311   -0.650000       15.9994           0
     12771 LPSA12   12       BGLCNA   HO6      HCP1     0.420000       1.00800           0
     12772 LPSA12   13       AGAL     C1       CC3162   0.290000       12.0110           0
     12773 LPSA12   13       AGAL     H1       HCA1     0.900000E-01   1.00800           0
     12774 LPSA12   13       AGAL     C5       CC3163   0.110000       12.0110           0
     12775 LPSA12   13       AGAL     H5       HCA1     0.900000E-01   1.00800           0
     12776 LPSA12   13       AGAL     O5       OC3C61  -0.400000       15.9994           0
     12777 LPSA12   13       AGAL     C2       CC3161   0.900000E-01   12.0110           0
     12778 LPSA12   13       AGAL     H2       HCA1     0.900000E-01   1.00800           0
     12779 LPSA12   13       AGAL     O2       OC301   -0.360000       15.9994           0
     12780 LPSA12   13       AGAL     C3       CC3161   0.140000       12.0110           0
     12781 LPSA12   13       AGAL     H3       HCA1     0.900000E-01   1.00800           0
     12782 LPSA12   13       AGAL     O3       OC311   -0.650000       15.9994           0
     12783 LPSA12   13       AGAL     HO3      HCP1     0.420000       1.00800           0
     12784 LPSA12   13       AGAL     C4       CC3161   0.140000       12.0110           0
     12785 LPSA12   13       AGAL     H4       HCA1     0.900000E-01   1.00800           0
     12786 LPSA12   13       AGAL     O4       OC311   -0.650000       15.9994           0
     12787 LPSA12   13       AGAL     HO4      HCP1     0.420000       1.00800           0
     12788 LPSA12   13       AGAL     C6       CC321    0.500000E-01   12.0110           0
     12789 LPSA12   13       AGAL     H61      HCA2     0.900000E-01   1.00800           0
     12790 LPSA12   13       AGAL     H62      HCA2     0.900000E-01   1.00800           0
     12791 LPSA12   13       AGAL     O6       OC311   -0.650000       15.9994           0
     12792 LPSA12   13       AGAL     HO6      HCP1     0.420000       1.00800           0
     12793 LPSA12   14       ARHM     C1       CC3162   0.290000       12.0110           0
     12794 LPSA12   14       ARHM     H1       HCA1     0.900000E-01   1.00800           0
     12795 LPSA12   14       ARHM     C5       CC3163   0.110000       12.0110           0
     12796 LPSA12   14       ARHM     H5       HCA1     0.900000E-01   1.00800           0
     12797 LPSA12   14       ARHM     O5       OC3C61  -0.400000       15.9994           0
     12798 LPSA12   14       ARHM     C2       CC3161   0.900000E-01   12.0110           0
     12799 LPSA12   14       ARHM     H2       HCA1     0.900000E-01   1.00800           0
     12800 LPSA12   14       ARHM     O2       OC301   -0.360000       15.9994           0
     12801 LPSA12   14       ARHM     C3       CC3161   0.140000       12.0110           0
     12802 LPSA12   14       ARHM     H3       HCA1     0.900000E-01   1.00800           0
     12803 LPSA12   14       ARHM     O3       OC311   -0.650000       15.9994           0
     12804 LPSA12   14       ARHM     HO3      HCP1     0.420000       1.00800           0
     12805 LPSA12   14       ARHM     C4       CC3161   0.140000       12.0110           0
     12806 LPSA12   14       ARHM     H4       HCA1     0.900000E-01   1.00800           0
     12807 LPSA12   14       ARHM     O4       OC311   -0.650000       15.9994           0
     12808 LPSA12   14       ARHM     HO4      HCP1     0.420000       1.00800           0
     12809 LPSA12   14       ARHM     C6       CC331   -0.270000       12.0110           0
     12810 LPSA12   14       ARHM     H61      HCA3     0.900000E-01   1.00800           0
     12811 LPSA12   14       ARHM     H62      HCA3     0.900000E-01   1.00800           0
     12812 LPSA12   14       ARHM     H63      HCA3     0.900000E-01   1.00800           0
     12813 LPSA12   15       ARHM     C1       CC3162   0.290000       12.0110           0
     12814 LPSA12   15       ARHM     H1       HCA1     0.900000E-01   1.00800           0
     12815 LPSA12   15       ARHM     C5       CC3163   0.110000       12.0110           0
     12816 LPSA12   15       ARHM     H5       HCA1     0.900000E-01   1.00800           0
     12817 LPSA12   15       ARHM     O5       OC3C61  -0.400000       15.9994           0
     12818 LPSA12   15       ARHM     C2       CC3161   0.900000E-01   12.0110           0
     12819 LPSA12   15       ARHM     H2       HCA1     0.900000E-01   1.00800           0
     12820 LPSA12   15       ARHM     O2       OC301   -0.360000       15.9994           0
     12821 LPSA12   15       ARHM     C3       CC3161   0.900000E-01   12.0110           0
     12822 LPSA12   15       ARHM     H3       HCA1     0.900000E-01   1.00800           0
     12823 LPSA12   15       ARHM     O3       OC301   -0.360000       15.9994           0
     12824 LPSA12   15       ARHM     C4       CC3161   0.140000       12.0110           0
     12825 LPSA12   15       ARHM     H4       HCA1     0.900000E-01   1.00800           0
     12826 LPSA12   15       ARHM     O4       OC311   -0.650000       15.9994           0
     12827 LPSA12   15       ARHM     HO4      HCP1     0.420000       1.00800           0
     12828 LPSA12   15       ARHM     C6       CC331   -0.270000       12.0110           0
     12829 LPSA12   15       ARHM     H61      HCA3     0.900000E-01   1.00800           0
     12830 LPSA12   15       ARHM     H62      HCA3     0.900000E-01   1.00800           0
     12831 LPSA12   15       ARHM     H63      HCA3     0.900000E-01   1.00800           0
     12832 LPSA12   16       BMANNA   C1       CC3162   0.290000       12.0110           0
     12833 LPSA12   16       BMANNA   H1       HCA1     0.900000E-01   1.00800           0
     12834 LPSA12   16       BMANNA   C5       CC3163   0.110000       12.0110           0
     12835 LPSA12   16       BMANNA   H5       HCA1     0.900000E-01   1.00800           0
     12836 LPSA12   16       BMANNA   O5       OC3C61  -0.400000       15.9994           0
     12837 LPSA12   16       BMANNA   C2       CC3161   0.700000E-01   12.0110           0
     12838 LPSA12   16       BMANNA   H2       HCA1     0.900000E-01   1.00800           0
     12839 LPSA12   16       BMANNA   N        NC2D1   -0.470000       14.0070           0
     12840 LPSA12   16       BMANNA   HN       HCP1     0.310000       1.00800           0
     12841 LPSA12   16       BMANNA   C        CC2O1    0.510000       12.0110           0
     12842 LPSA12   16       BMANNA   O        OC2D1   -0.510000       15.9994           0
     12843 LPSA12   16       BMANNA   CT       CC331   -0.270000       12.0110           0
     12844 LPSA12   16       BMANNA   HT1      HCA3     0.900000E-01   1.00800           0
     12845 LPSA12   16       BMANNA   HT2      HCA3     0.900000E-01   1.00800           0
     12846 LPSA12   16       BMANNA   HT3      HCA3     0.900000E-01   1.00800           0
     12847 LPSA12   16       BMANNA   C3       CC3161   0.140000       12.0110           0
     12848 LPSA12   16       BMANNA   H3       HCA1     0.900000E-01   1.00800           0
     12849 LPSA12   16       BMANNA   O3       OC311   -0.650000       15.9994           0
     12850 LPSA12   16       BMANNA   HO3      HCP1     0.420000       1.00800           0
     12851 LPSA12   16       BMANNA   C4       CC3161   0.140000       12.0110           0
     12852 LPSA12   16       BMANNA   H4       HCA1     0.900000E-01   1.00800           0
     12853 LPSA12   16       BMANNA   O4       OC311   -0.650000       15.9994           0
     12854 LPSA12   16       BMANNA   HO4      HCP1     0.420000       1.00800           0
     12855 LPSA12   16       BMANNA   C6       CC321    0.500000E-01   12.0110           0
     12856 LPSA12   16       BMANNA   H61      HCA2     0.900000E-01   1.00800           0
     12857 LPSA12   16       BMANNA   H62      HCA2     0.900000E-01   1.00800           0
     12858 LPSA12   16       BMANNA   O6       OC311   -0.650000       15.9994           0
     12859 LPSA12   16       BMANNA   HO6      HCP1     0.420000       1.00800           0
     12860 LPSA12   17       BGLCNA   C1       CC3162   0.290000       12.0110           0
     12861 LPSA12   17       BGLCNA   H1       HCA1     0.900000E-01   1.00800           0
     12862 LPSA12   17       BGLCNA   C5       CC3163   0.110000       12.0110           0
     12863 LPSA12   17       BGLCNA   H5       HCA1     0.900000E-01   1.00800           0
     12864 LPSA12   17       BGLCNA   O5       OC3C61  -0.400000       15.9994           0
     12865 LPSA12   17       BGLCNA   C2       CC3161   0.700000E-01   12.0110           0
     12866 LPSA12   17       BGLCNA   H2       HCA1     0.900000E-01   1.00800           0
     12867 LPSA12   17       BGLCNA   N        NC2D1   -0.470000       14.0070           0
     12868 LPSA12   17       BGLCNA   HN       HCP1     0.310000       1.00800           0
     12869 LPSA12   17       BGLCNA   C        CC2O1    0.510000       12.0110           0
     12870 LPSA12   17       BGLCNA   O        OC2D1   -0.510000       15.9994           0
     12871 LPSA12   17       BGLCNA   CT       CC331   -0.270000       12.0110           0
     12872 LPSA12   17       BGLCNA   HT1      HCA3     0.900000E-01   1.00800           0
     12873 LPSA12   17       BGLCNA   HT2      HCA3     0.900000E-01   1.00800           0
     12874 LPSA12   17       BGLCNA   HT3      HCA3     0.900000E-01   1.00800           0
     12875 LPSA12   17       BGLCNA   C3       CC3161   0.900000E-01   12.0110           0
     12876 LPSA12   17       BGLCNA   H3       HCA1     0.900000E-01   1.00800           0
     12877 LPSA12   17       BGLCNA   O3       OC301   -0.360000       15.9994           0
     12878 LPSA12   17       BGLCNA   C4       CC3161   0.140000       12.0110           0
     12879 LPSA12   17       BGLCNA   H4       HCA1     0.900000E-01   1.00800           0
     12880 LPSA12   17       BGLCNA   O4       OC311   -0.650000       15.9994           0
     12881 LPSA12   17       BGLCNA   HO4      HCP1     0.420000       1.00800           0
     12882 LPSA12   17       BGLCNA   C6       CC321    0.500000E-01   12.0110           0
     12883 LPSA12   17       BGLCNA   H61      HCA2     0.900000E-01   1.00800           0
     12884 LPSA12   17       BGLCNA   H62      HCA2     0.900000E-01   1.00800           0
     12885 LPSA12   17       BGLCNA   O6       OC311   -0.650000       15.9994           0
     12886 LPSA12   17       BGLCNA   HO6      HCP1     0.420000       1.00800           0
     12887 LPSA12   18       AGAL     C1       CC3162   0.290000       12.0110           0
     12888 LPSA12   18       AGAL     H1       HCA1     0.900000E-01   1.00800           0
     12889 LPSA12   18       AGAL     C5       CC3163   0.110000       12.0110           0
     12890 LPSA12   18       AGAL     H5       HCA1     0.900000E-01   1.00800           0
     12891 LPSA12   18       AGAL     O5       OC3C61  -0.400000       15.9994           0
     12892 LPSA12   18       AGAL     C2       CC3161   0.900000E-01   12.0110           0
     12893 LPSA12   18       AGAL     H2       HCA1     0.900000E-01   1.00800           0
     12894 LPSA12   18       AGAL     O2       OC301   -0.360000       15.9994           0
     12895 LPSA12   18       AGAL     C3       CC3161   0.140000       12.0110           0
     12896 LPSA12   18       AGAL     H3       HCA1     0.900000E-01   1.00800           0
     12897 LPSA12   18       AGAL     O3       OC311   -0.650000       15.9994           0
     12898 LPSA12   18       AGAL     HO3      HCP1     0.420000       1.00800           0
     12899 LPSA12   18       AGAL     C4       CC3161   0.140000       12.0110           0
     12900 LPSA12   18       AGAL     H4       HCA1     0.900000E-01   1.00800           0
     12901 LPSA12   18       AGAL     O4       OC311   -0.650000       15.9994           0
     12902 LPSA12   18       AGAL     HO4      HCP1     0.420000       1.00800           0
     12903 LPSA12   18       AGAL     C6       CC321    0.500000E-01   12.0110           0
     12904 LPSA12   18       AGAL     H61      HCA2     0.900000E-01   1.00800           0
     12905 LPSA12   18       AGAL     H62      HCA2     0.900000E-01   1.00800           0
     12906 LPSA12   18       AGAL     O6       OC311   -0.650000       15.9994           0
     12907 LPSA12   18       AGAL     HO6      HCP1     0.420000       1.00800           0
     12908 LPSA12   19       ARHM     C1       CC3162   0.290000       12.0110           0
     12909 LPSA12   19       ARHM     H1       HCA1     0.900000E-01   1.00800           0
     12910 LPSA12   19       ARHM     C5       CC3163   0.110000       12.0110           0
     12911 LPSA12   19       ARHM     H5       HCA1     0.900000E-01   1.00800           0
     12912 LPSA12   19       ARHM     O5       OC3C61  -0.400000       15.9994           0
     12913 LPSA12   19       ARHM     C2       CC3161   0.900000E-01   12.0110           0
     12914 LPSA12   19       ARHM     H2       HCA1     0.900000E-01   1.00800           0
     12915 LPSA12   19       ARHM     O2       OC301   -0.360000       15.9994           0
     12916 LPSA12   19       ARHM     C3       CC3161   0.140000       12.0110           0
     12917 LPSA12   19       ARHM     H3       HCA1     0.900000E-01   1.00800           0
     12918 LPSA12   19       ARHM     O3       OC311   -0.650000       15.9994           0
     12919 LPSA12   19       ARHM     HO3      HCP1     0.420000       1.00800           0
     12920 LPSA12   19       ARHM     C4       CC3161   0.140000       12.0110           0
     12921 LPSA12   19       ARHM     H4       HCA1     0.900000E-01   1.00800           0
     12922 LPSA12   19       ARHM     O4       OC311   -0.650000       15.9994           0
     12923 LPSA12   19       ARHM     HO4      HCP1     0.420000       1.00800           0
     12924 LPSA12   19       ARHM     C6       CC331   -0.270000       12.0110           0
     12925 LPSA12   19       ARHM     H61      HCA3     0.900000E-01   1.00800           0
     12926 LPSA12   19       ARHM     H62      HCA3     0.900000E-01   1.00800           0
     12927 LPSA12   19       ARHM     H63      HCA3     0.900000E-01   1.00800           0
     12928 LPSA12   20       ARHM     C1       CC3162   0.290000       12.0110           0
     12929 LPSA12   20       ARHM     H1       HCA1     0.900000E-01   1.00800           0
     12930 LPSA12   20       ARHM     C5       CC3163   0.110000       12.0110           0
     12931 LPSA12   20       ARHM     H5       HCA1     0.900000E-01   1.00800           0
     12932 LPSA12   20       ARHM     O5       OC3C61  -0.400000       15.9994           0
     12933 LPSA12   20       ARHM     C2       CC3161   0.900000E-01   12.0110           0
     12934 LPSA12   20       ARHM     H2       HCA1     0.900000E-01   1.00800           0
     12935 LPSA12   20       ARHM     O2       OC301   -0.360000       15.9994           0
     12936 LPSA12   20       ARHM     C3       CC3161   0.900000E-01   12.0110           0
     12937 LPSA12   20       ARHM     H3       HCA1     0.900000E-01   1.00800           0
     12938 LPSA12   20       ARHM     O3       OC301   -0.360000       15.9994           0
     12939 LPSA12   20       ARHM     C4       CC3161   0.140000       12.0110           0
     12940 LPSA12   20       ARHM     H4       HCA1     0.900000E-01   1.00800           0
     12941 LPSA12   20       ARHM     O4       OC311   -0.650000       15.9994           0
     12942 LPSA12   20       ARHM     HO4      HCP1     0.420000       1.00800           0
     12943 LPSA12   20       ARHM     C6       CC331   -0.270000       12.0110           0
     12944 LPSA12   20       ARHM     H61      HCA3     0.900000E-01   1.00800           0
     12945 LPSA12   20       ARHM     H62      HCA3     0.900000E-01   1.00800           0
     12946 LPSA12   20       ARHM     H63      HCA3     0.900000E-01   1.00800           0
     12947 LPSA12   21       BMANNA   C1       CC3162   0.290000       12.0110           0
     12948 LPSA12   21       BMANNA   H1       HCA1     0.900000E-01   1.00800           0
     12949 LPSA12   21       BMANNA   C5       CC3163   0.110000       12.0110           0
     12950 LPSA12   21       BMANNA   H5       HCA1     0.900000E-01   1.00800           0
     12951 LPSA12   21       BMANNA   O5       OC3C61  -0.400000       15.9994           0
     12952 LPSA12   21       BMANNA   C2       CC3161   0.700000E-01   12.0110           0
     12953 LPSA12   21       BMANNA   H2       HCA1     0.900000E-01   1.00800           0
     12954 LPSA12   21       BMANNA   N        NC2D1   -0.470000       14.0070           0
     12955 LPSA12   21       BMANNA   HN       HCP1     0.310000       1.00800           0
     12956 LPSA12   21       BMANNA   C        CC2O1    0.510000       12.0110           0
     12957 LPSA12   21       BMANNA   O        OC2D1   -0.510000       15.9994           0
     12958 LPSA12   21       BMANNA   CT       CC331   -0.270000       12.0110           0
     12959 LPSA12   21       BMANNA   HT1      HCA3     0.900000E-01   1.00800           0
     12960 LPSA12   21       BMANNA   HT2      HCA3     0.900000E-01   1.00800           0
     12961 LPSA12   21       BMANNA   HT3      HCA3     0.900000E-01   1.00800           0
     12962 LPSA12   21       BMANNA   C3       CC3161   0.140000       12.0110           0
     12963 LPSA12   21       BMANNA   H3       HCA1     0.900000E-01   1.00800           0
     12964 LPSA12   21       BMANNA   O3       OC311   -0.650000       15.9994           0
     12965 LPSA12   21       BMANNA   HO3      HCP1     0.420000       1.00800           0
     12966 LPSA12   21       BMANNA   C4       CC3161   0.140000       12.0110           0
     12967 LPSA12   21       BMANNA   H4       HCA1     0.900000E-01   1.00800           0
     12968 LPSA12   21       BMANNA   O4       OC311   -0.650000       15.9994           0
     12969 LPSA12   21       BMANNA   HO4      HCP1     0.420000       1.00800           0
     12970 LPSA12   21       BMANNA   C6       CC321    0.500000E-01   12.0110           0
     12971 LPSA12   21       BMANNA   H61      HCA2     0.900000E-01   1.00800           0
     12972 LPSA12   21       BMANNA   H62      HCA2     0.900000E-01   1.00800           0
     12973 LPSA12   21       BMANNA   O6       OC311   -0.650000       15.9994           0
     12974 LPSA12   21       BMANNA   HO6      HCP1     0.420000       1.00800           0
     12975 LPSA12   22       BGLCNA   C1       CC3162   0.290000       12.0110           0
     12976 LPSA12   22       BGLCNA   H1       HCA1     0.900000E-01   1.00800           0
     12977 LPSA12   22       BGLCNA   C5       CC3163   0.110000       12.0110           0
     12978 LPSA12   22       BGLCNA   H5       HCA1     0.900000E-01   1.00800           0
     12979 LPSA12   22       BGLCNA   O5       OC3C61  -0.400000       15.9994           0
     12980 LPSA12   22       BGLCNA   C2       CC3161   0.700000E-01   12.0110           0
     12981 LPSA12   22       BGLCNA   H2       HCA1     0.900000E-01   1.00800           0
     12982 LPSA12   22       BGLCNA   N        NC2D1   -0.470000       14.0070           0
     12983 LPSA12   22       BGLCNA   HN       HCP1     0.310000       1.00800           0
     12984 LPSA12   22       BGLCNA   C        CC2O1    0.510000       12.0110           0
     12985 LPSA12   22       BGLCNA   O        OC2D1   -0.510000       15.9994           0
     12986 LPSA12   22       BGLCNA   CT       CC331   -0.270000       12.0110           0
     12987 LPSA12   22       BGLCNA   HT1      HCA3     0.900000E-01   1.00800           0
     12988 LPSA12   22       BGLCNA   HT2      HCA3     0.900000E-01   1.00800           0
     12989 LPSA12   22       BGLCNA   HT3      HCA3     0.900000E-01   1.00800           0
     12990 LPSA12   22       BGLCNA   C3       CC3161   0.900000E-01   12.0110           0
     12991 LPSA12   22       BGLCNA   H3       HCA1     0.900000E-01   1.00800           0
     12992 LPSA12   22       BGLCNA   O3       OC301   -0.360000       15.9994           0
     12993 LPSA12   22       BGLCNA   C4       CC3161   0.140000       12.0110           0
     12994 LPSA12   22       BGLCNA   H4       HCA1     0.900000E-01   1.00800           0
     12995 LPSA12   22       BGLCNA   O4       OC311   -0.650000       15.9994           0
     12996 LPSA12   22       BGLCNA   HO4      HCP1     0.420000       1.00800           0
     12997 LPSA12   22       BGLCNA   C6       CC321    0.500000E-01   12.0110           0
     12998 LPSA12   22       BGLCNA   H61      HCA2     0.900000E-01   1.00800           0
     12999 LPSA12   22       BGLCNA   H62      HCA2     0.900000E-01   1.00800           0
     13000 LPSA12   22       BGLCNA   O6       OC311   -0.650000       15.9994           0
     13001 LPSA12   22       BGLCNA   HO6      HCP1     0.420000       1.00800           0
     13002 LPSA12   23       AGAL     C1       CC3162   0.290000       12.0110           0
     13003 LPSA12   23       AGAL     H1       HCA1     0.900000E-01   1.00800           0
     13004 LPSA12   23       AGAL     C5       CC3163   0.110000       12.0110           0
     13005 LPSA12   23       AGAL     H5       HCA1     0.900000E-01   1.00800           0
     13006 LPSA12   23       AGAL     O5       OC3C61  -0.400000       15.9994           0
     13007 LPSA12   23       AGAL     C2       CC3161   0.900000E-01   12.0110           0
     13008 LPSA12   23       AGAL     H2       HCA1     0.900000E-01   1.00800           0
     13009 LPSA12   23       AGAL     O2       OC301   -0.360000       15.9994           0
     13010 LPSA12   23       AGAL     C3       CC3161   0.140000       12.0110           0
     13011 LPSA12   23       AGAL     H3       HCA1     0.900000E-01   1.00800           0
     13012 LPSA12   23       AGAL     O3       OC311   -0.650000       15.9994           0
     13013 LPSA12   23       AGAL     HO3      HCP1     0.420000       1.00800           0
     13014 LPSA12   23       AGAL     C4       CC3161   0.140000       12.0110           0
     13015 LPSA12   23       AGAL     H4       HCA1     0.900000E-01   1.00800           0
     13016 LPSA12   23       AGAL     O4       OC311   -0.650000       15.9994           0
     13017 LPSA12   23       AGAL     HO4      HCP1     0.420000       1.00800           0
     13018 LPSA12   23       AGAL     C6       CC321    0.500000E-01   12.0110           0
     13019 LPSA12   23       AGAL     H61      HCA2     0.900000E-01   1.00800           0
     13020 LPSA12   23       AGAL     H62      HCA2     0.900000E-01   1.00800           0
     13021 LPSA12   23       AGAL     O6       OC311   -0.650000       15.9994           0
     13022 LPSA12   23       AGAL     HO6      HCP1     0.420000       1.00800           0
     13023 LPSA12   24       ARHM     C1       CC3162   0.290000       12.0110           0
     13024 LPSA12   24       ARHM     H1       HCA1     0.900000E-01   1.00800           0
     13025 LPSA12   24       ARHM     C5       CC3163   0.110000       12.0110           0
     13026 LPSA12   24       ARHM     H5       HCA1     0.900000E-01   1.00800           0
     13027 LPSA12   24       ARHM     O5       OC3C61  -0.400000       15.9994           0
     13028 LPSA12   24       ARHM     C2       CC3161   0.900000E-01   12.0110           0
     13029 LPSA12   24       ARHM     H2       HCA1     0.900000E-01   1.00800           0
     13030 LPSA12   24       ARHM     O2       OC301   -0.360000       15.9994           0
     13031 LPSA12   24       ARHM     C3       CC3161   0.140000       12.0110           0
     13032 LPSA12   24       ARHM     H3       HCA1     0.900000E-01   1.00800           0
     13033 LPSA12   24       ARHM     O3       OC311   -0.650000       15.9994           0
     13034 LPSA12   24       ARHM     HO3      HCP1     0.420000       1.00800           0
     13035 LPSA12   24       ARHM     C4       CC3161   0.140000       12.0110           0
     13036 LPSA12   24       ARHM     H4       HCA1     0.900000E-01   1.00800           0
     13037 LPSA12   24       ARHM     O4       OC311   -0.650000       15.9994           0
     13038 LPSA12   24       ARHM     HO4      HCP1     0.420000       1.00800           0
     13039 LPSA12   24       ARHM     C6       CC331   -0.270000       12.0110           0
     13040 LPSA12   24       ARHM     H61      HCA3     0.900000E-01   1.00800           0
     13041 LPSA12   24       ARHM     H62      HCA3     0.900000E-01   1.00800           0
     13042 LPSA12   24       ARHM     H63      HCA3     0.900000E-01   1.00800           0
     13043 LPSA12   25       ARHM     C1       CC3162   0.290000       12.0110           0
     13044 LPSA12   25       ARHM     H1       HCA1     0.900000E-01   1.00800           0
     13045 LPSA12   25       ARHM     C5       CC3163   0.110000       12.0110           0
     13046 LPSA12   25       ARHM     H5       HCA1     0.900000E-01   1.00800           0
     13047 LPSA12   25       ARHM     O5       OC3C61  -0.400000       15.9994           0
     13048 LPSA12   25       ARHM     C2       CC3161   0.900000E-01   12.0110           0
     13049 LPSA12   25       ARHM     H2       HCA1     0.900000E-01   1.00800           0
     13050 LPSA12   25       ARHM     O2       OC301   -0.360000       15.9994           0
     13051 LPSA12   25       ARHM     C3       CC3161   0.900000E-01   12.0110           0
     13052 LPSA12   25       ARHM     H3       HCA1     0.900000E-01   1.00800           0
     13053 LPSA12   25       ARHM     O3       OC301   -0.360000       15.9994           0
     13054 LPSA12   25       ARHM     C4       CC3161   0.140000       12.0110           0
     13055 LPSA12   25       ARHM     H4       HCA1     0.900000E-01   1.00800           0
     13056 LPSA12   25       ARHM     O4       OC311   -0.650000       15.9994           0
     13057 LPSA12   25       ARHM     HO4      HCP1     0.420000       1.00800           0
     13058 LPSA12   25       ARHM     C6       CC331   -0.270000       12.0110           0
     13059 LPSA12   25       ARHM     H61      HCA3     0.900000E-01   1.00800           0
     13060 LPSA12   25       ARHM     H62      HCA3     0.900000E-01   1.00800           0
     13061 LPSA12   25       ARHM     H63      HCA3     0.900000E-01   1.00800           0
     13062 LPSA12   26       BMANNA   C1       CC3162   0.290000       12.0110           0
     13063 LPSA12   26       BMANNA   H1       HCA1     0.900000E-01   1.00800           0
     13064 LPSA12   26       BMANNA   C5       CC3163   0.110000       12.0110           0
     13065 LPSA12   26       BMANNA   H5       HCA1     0.900000E-01   1.00800           0
     13066 LPSA12   26       BMANNA   O5       OC3C61  -0.400000       15.9994           0
     13067 LPSA12   26       BMANNA   C2       CC3161   0.700000E-01   12.0110           0
     13068 LPSA12   26       BMANNA   H2       HCA1     0.900000E-01   1.00800           0
     13069 LPSA12   26       BMANNA   N        NC2D1   -0.470000       14.0070           0
     13070 LPSA12   26       BMANNA   HN       HCP1     0.310000       1.00800           0
     13071 LPSA12   26       BMANNA   C        CC2O1    0.510000       12.0110           0
     13072 LPSA12   26       BMANNA   O        OC2D1   -0.510000       15.9994           0
     13073 LPSA12   26       BMANNA   CT       CC331   -0.270000       12.0110           0
     13074 LPSA12   26       BMANNA   HT1      HCA3     0.900000E-01   1.00800           0
     13075 LPSA12   26       BMANNA   HT2      HCA3     0.900000E-01   1.00800           0
     13076 LPSA12   26       BMANNA   HT3      HCA3     0.900000E-01   1.00800           0
     13077 LPSA12   26       BMANNA   C3       CC3161   0.140000       12.0110           0
     13078 LPSA12   26       BMANNA   H3       HCA1     0.900000E-01   1.00800           0
     13079 LPSA12   26       BMANNA   O3       OC311   -0.650000       15.9994           0
     13080 LPSA12   26       BMANNA   HO3      HCP1     0.420000       1.00800           0
     13081 LPSA12   26       BMANNA   C4       CC3161   0.140000       12.0110           0
     13082 LPSA12   26       BMANNA   H4       HCA1     0.900000E-01   1.00800           0
     13083 LPSA12   26       BMANNA   O4       OC311   -0.650000       15.9994           0
     13084 LPSA12   26       BMANNA   HO4      HCP1     0.420000       1.00800           0
     13085 LPSA12   26       BMANNA   C6       CC321    0.500000E-01   12.0110           0
     13086 LPSA12   26       BMANNA   H61      HCA2     0.900000E-01   1.00800           0
     13087 LPSA12   26       BMANNA   H62      HCA2     0.900000E-01   1.00800           0
     13088 LPSA12   26       BMANNA   O6       OC311   -0.650000       15.9994           0
     13089 LPSA12   26       BMANNA   HO6      HCP1     0.420000       1.00800           0
     13090 LPSA12   27       BGLCNA   C1       CC3162   0.290000       12.0110           0
     13091 LPSA12   27       BGLCNA   H1       HCA1     0.900000E-01   1.00800           0
     13092 LPSA12   27       BGLCNA   C5       CC3163   0.110000       12.0110           0
     13093 LPSA12   27       BGLCNA   H5       HCA1     0.900000E-01   1.00800           0
     13094 LPSA12   27       BGLCNA   O5       OC3C61  -0.400000       15.9994           0
     13095 LPSA12   27       BGLCNA   C2       CC3161   0.700000E-01   12.0110           0
     13096 LPSA12   27       BGLCNA   H2       HCA1     0.900000E-01   1.00800           0
     13097 LPSA12   27       BGLCNA   N        NC2D1   -0.470000       14.0070           0
     13098 LPSA12   27       BGLCNA   HN       HCP1     0.310000       1.00800           0
     13099 LPSA12   27       BGLCNA   C        CC2O1    0.510000       12.0110           0
     13100 LPSA12   27       BGLCNA   O        OC2D1   -0.510000       15.9994           0
     13101 LPSA12   27       BGLCNA   CT       CC331   -0.270000       12.0110           0
     13102 LPSA12   27       BGLCNA   HT1      HCA3     0.900000E-01   1.00800           0
     13103 LPSA12   27       BGLCNA   HT2      HCA3     0.900000E-01   1.00800           0
     13104 LPSA12   27       BGLCNA   HT3      HCA3     0.900000E-01   1.00800           0
     13105 LPSA12   27       BGLCNA   C3       CC3161   0.900000E-01   12.0110           0
     13106 LPSA12   27       BGLCNA   H3       HCA1     0.900000E-01   1.00800           0
     13107 LPSA12   27       BGLCNA   O3       OC301   -0.360000       15.9994           0
     13108 LPSA12   27       BGLCNA   C4       CC3161   0.140000       12.0110           0
     13109 LPSA12   27       BGLCNA   H4       HCA1     0.900000E-01   1.00800           0
     13110 LPSA12   27       BGLCNA   O4       OC311   -0.650000       15.9994           0
     13111 LPSA12   27       BGLCNA   HO4      HCP1     0.420000       1.00800           0
     13112 LPSA12   27       BGLCNA   C6       CC321    0.500000E-01   12.0110           0
     13113 LPSA12   27       BGLCNA   H61      HCA2     0.900000E-01   1.00800           0
     13114 LPSA12   27       BGLCNA   H62      HCA2     0.900000E-01   1.00800           0
     13115 LPSA12   27       BGLCNA   O6       OC311   -0.650000       15.9994           0
     13116 LPSA12   27       BGLCNA   HO6      HCP1     0.420000       1.00800           0
     13117 LPSA12   28       AGAL     C1       CC3162   0.290000       12.0110           0
     13118 LPSA12   28       AGAL     H1       HCA1     0.900000E-01   1.00800           0
     13119 LPSA12   28       AGAL     C5       CC3163   0.110000       12.0110           0
     13120 LPSA12   28       AGAL     H5       HCA1     0.900000E-01   1.00800           0
     13121 LPSA12   28       AGAL     O5       OC3C61  -0.400000       15.9994           0
     13122 LPSA12   28       AGAL     C2       CC3161   0.900000E-01   12.0110           0
     13123 LPSA12   28       AGAL     H2       HCA1     0.900000E-01   1.00800           0
     13124 LPSA12   28       AGAL     O2       OC301   -0.360000       15.9994           0
     13125 LPSA12   28       AGAL     C3       CC3161   0.140000       12.0110           0
     13126 LPSA12   28       AGAL     H3       HCA1     0.900000E-01   1.00800           0
     13127 LPSA12   28       AGAL     O3       OC311   -0.650000       15.9994           0
     13128 LPSA12   28       AGAL     HO3      HCP1     0.420000       1.00800           0
     13129 LPSA12   28       AGAL     C4       CC3161   0.140000       12.0110           0
     13130 LPSA12   28       AGAL     H4       HCA1     0.900000E-01   1.00800           0
     13131 LPSA12   28       AGAL     O4       OC311   -0.650000       15.9994           0
     13132 LPSA12   28       AGAL     HO4      HCP1     0.420000       1.00800           0
     13133 LPSA12   28       AGAL     C6       CC321    0.500000E-01   12.0110           0
     13134 LPSA12   28       AGAL     H61      HCA2     0.900000E-01   1.00800           0
     13135 LPSA12   28       AGAL     H62      HCA2     0.900000E-01   1.00800           0
     13136 LPSA12   28       AGAL     O6       OC311   -0.650000       15.9994           0
     13137 LPSA12   28       AGAL     HO6      HCP1     0.420000       1.00800           0
     13138 LPSA12   29       ARHM     C1       CC3162   0.290000       12.0110           0
     13139 LPSA12   29       ARHM     H1       HCA1     0.900000E-01   1.00800           0
     13140 LPSA12   29       ARHM     C5       CC3163   0.110000       12.0110           0
     13141 LPSA12   29       ARHM     H5       HCA1     0.900000E-01   1.00800           0
     13142 LPSA12   29       ARHM     O5       OC3C61  -0.400000       15.9994           0
     13143 LPSA12   29       ARHM     C2       CC3161   0.900000E-01   12.0110           0
     13144 LPSA12   29       ARHM     H2       HCA1     0.900000E-01   1.00800           0
     13145 LPSA12   29       ARHM     O2       OC301   -0.360000       15.9994           0
     13146 LPSA12   29       ARHM     C3       CC3161   0.140000       12.0110           0
     13147 LPSA12   29       ARHM     H3       HCA1     0.900000E-01   1.00800           0
     13148 LPSA12   29       ARHM     O3       OC311   -0.650000       15.9994           0
     13149 LPSA12   29       ARHM     HO3      HCP1     0.420000       1.00800           0
     13150 LPSA12   29       ARHM     C4       CC3161   0.140000       12.0110           0
     13151 LPSA12   29       ARHM     H4       HCA1     0.900000E-01   1.00800           0
     13152 LPSA12   29       ARHM     O4       OC311   -0.650000       15.9994           0
     13153 LPSA12   29       ARHM     HO4      HCP1     0.420000       1.00800           0
     13154 LPSA12   29       ARHM     C6       CC331   -0.270000       12.0110           0
     13155 LPSA12   29       ARHM     H61      HCA3     0.900000E-01   1.00800           0
     13156 LPSA12   29       ARHM     H62      HCA3     0.900000E-01   1.00800           0
     13157 LPSA12   29       ARHM     H63      HCA3     0.900000E-01   1.00800           0
     13158 LPSA12   30       ARHM     C1       CC3162   0.290000       12.0110           0
     13159 LPSA12   30       ARHM     H1       HCA1     0.900000E-01   1.00800           0
     13160 LPSA12   30       ARHM     C5       CC3163   0.110000       12.0110           0
     13161 LPSA12   30       ARHM     H5       HCA1     0.900000E-01   1.00800           0
     13162 LPSA12   30       ARHM     O5       OC3C61  -0.400000       15.9994           0
     13163 LPSA12   30       ARHM     C2       CC3161   0.900000E-01   12.0110           0
     13164 LPSA12   30       ARHM     H2       HCA1     0.900000E-01   1.00800           0
     13165 LPSA12   30       ARHM     O2       OC301   -0.360000       15.9994           0
     13166 LPSA12   30       ARHM     C3       CC3161   0.900000E-01   12.0110           0
     13167 LPSA12   30       ARHM     H3       HCA1     0.900000E-01   1.00800           0
     13168 LPSA12   30       ARHM     O3       OC301   -0.360000       15.9994           0
     13169 LPSA12   30       ARHM     C4       CC3161   0.140000       12.0110           0
     13170 LPSA12   30       ARHM     H4       HCA1     0.900000E-01   1.00800           0
     13171 LPSA12   30       ARHM     O4       OC311   -0.650000       15.9994           0
     13172 LPSA12   30       ARHM     HO4      HCP1     0.420000       1.00800           0
     13173 LPSA12   30       ARHM     C6       CC331   -0.270000       12.0110           0
     13174 LPSA12   30       ARHM     H61      HCA3     0.900000E-01   1.00800           0
     13175 LPSA12   30       ARHM     H62      HCA3     0.900000E-01   1.00800           0
     13176 LPSA12   30       ARHM     H63      HCA3     0.900000E-01   1.00800           0
     13177 LPSA12   31       BMANNA   C1       CC3162   0.290000       12.0110           0
     13178 LPSA12   31       BMANNA   H1       HCA1     0.900000E-01   1.00800           0
     13179 LPSA12   31       BMANNA   C5       CC3163   0.110000       12.0110           0
     13180 LPSA12   31       BMANNA   H5       HCA1     0.900000E-01   1.00800           0
     13181 LPSA12   31       BMANNA   O5       OC3C61  -0.400000       15.9994           0
     13182 LPSA12   31       BMANNA   C2       CC3161   0.700000E-01   12.0110           0
     13183 LPSA12   31       BMANNA   H2       HCA1     0.900000E-01   1.00800           0
     13184 LPSA12   31       BMANNA   N        NC2D1   -0.470000       14.0070           0
     13185 LPSA12   31       BMANNA   HN       HCP1     0.310000       1.00800           0
     13186 LPSA12   31       BMANNA   C        CC2O1    0.510000       12.0110           0
     13187 LPSA12   31       BMANNA   O        OC2D1   -0.510000       15.9994           0
     13188 LPSA12   31       BMANNA   CT       CC331   -0.270000       12.0110           0
     13189 LPSA12   31       BMANNA   HT1      HCA3     0.900000E-01   1.00800           0
     13190 LPSA12   31       BMANNA   HT2      HCA3     0.900000E-01   1.00800           0
     13191 LPSA12   31       BMANNA   HT3      HCA3     0.900000E-01   1.00800           0
     13192 LPSA12   31       BMANNA   C3       CC3161   0.140000       12.0110           0
     13193 LPSA12   31       BMANNA   H3       HCA1     0.900000E-01   1.00800           0
     13194 LPSA12   31       BMANNA   O3       OC311   -0.650000       15.9994           0
     13195 LPSA12   31       BMANNA   HO3      HCP1     0.420000       1.00800           0
     13196 LPSA12   31       BMANNA   C4       CC3161   0.140000       12.0110           0
     13197 LPSA12   31       BMANNA   H4       HCA1     0.900000E-01   1.00800           0
     13198 LPSA12   31       BMANNA   O4       OC311   -0.650000       15.9994           0
     13199 LPSA12   31       BMANNA   HO4      HCP1     0.420000       1.00800           0
     13200 LPSA12   31       BMANNA   C6       CC321    0.500000E-01   12.0110           0
     13201 LPSA12   31       BMANNA   H61      HCA2     0.900000E-01   1.00800           0
     13202 LPSA12   31       BMANNA   H62      HCA2     0.900000E-01   1.00800           0
     13203 LPSA12   31       BMANNA   O6       OC311   -0.650000       15.9994           0
     13204 LPSA12   31       BMANNA   HO6      HCP1     0.420000       1.00800           0
     13205 LPSA12   32       BGLCNA   C1       CC3162   0.290000       12.0110           0
     13206 LPSA12   32       BGLCNA   H1       HCA1     0.900000E-01   1.00800           0
     13207 LPSA12   32       BGLCNA   C5       CC3163   0.110000       12.0110           0
     13208 LPSA12   32       BGLCNA   H5       HCA1     0.900000E-01   1.00800           0
     13209 LPSA12   32       BGLCNA   O5       OC3C61  -0.400000       15.9994           0
     13210 LPSA12   32       BGLCNA   C2       CC3161   0.700000E-01   12.0110           0
     13211 LPSA12   32       BGLCNA   H2       HCA1     0.900000E-01   1.00800           0
     13212 LPSA12   32       BGLCNA   N        NC2D1   -0.470000       14.0070           0
     13213 LPSA12   32       BGLCNA   HN       HCP1     0.310000       1.00800           0
     13214 LPSA12   32       BGLCNA   C        CC2O1    0.510000       12.0110           0
     13215 LPSA12   32       BGLCNA   O        OC2D1   -0.510000       15.9994           0
     13216 LPSA12   32       BGLCNA   CT       CC331   -0.270000       12.0110           0
     13217 LPSA12   32       BGLCNA   HT1      HCA3     0.900000E-01   1.00800           0
     13218 LPSA12   32       BGLCNA   HT2      HCA3     0.900000E-01   1.00800           0
     13219 LPSA12   32       BGLCNA   HT3      HCA3     0.900000E-01   1.00800           0
     13220 LPSA12   32       BGLCNA   C3       CC3161   0.900000E-01   12.0110           0
     13221 LPSA12   32       BGLCNA   H3       HCA1     0.900000E-01   1.00800           0
     13222 LPSA12   32       BGLCNA   O3       OC301   -0.360000       15.9994           0
     13223 LPSA12   32       BGLCNA   C4       CC3161   0.140000       12.0110           0
     13224 LPSA12   32       BGLCNA   H4       HCA1     0.900000E-01   1.00800           0
     13225 LPSA12   32       BGLCNA   O4       OC311   -0.650000       15.9994           0
     13226 LPSA12   32       BGLCNA   HO4      HCP1     0.420000       1.00800           0
     13227 LPSA12   32       BGLCNA   C6       CC321    0.500000E-01   12.0110           0
     13228 LPSA12   32       BGLCNA   H61      HCA2     0.900000E-01   1.00800           0
     13229 LPSA12   32       BGLCNA   H62      HCA2     0.900000E-01   1.00800           0
     13230 LPSA12   32       BGLCNA   O6       OC311   -0.650000       15.9994           0
     13231 LPSA12   32       BGLCNA   HO6      HCP1     0.420000       1.00800           0
     13232 LPSA12   33       AGAL     C1       CC3162   0.290000       12.0110           0
     13233 LPSA12   33       AGAL     H1       HCA1     0.900000E-01   1.00800           0
     13234 LPSA12   33       AGAL     C5       CC3163   0.110000       12.0110           0
     13235 LPSA12   33       AGAL     H5       HCA1     0.900000E-01   1.00800           0
     13236 LPSA12   33       AGAL     O5       OC3C61  -0.400000       15.9994           0
     13237 LPSA12   33       AGAL     C2       CC3161   0.900000E-01   12.0110           0
     13238 LPSA12   33       AGAL     H2       HCA1     0.900000E-01   1.00800           0
     13239 LPSA12   33       AGAL     O2       OC301   -0.360000       15.9994           0
     13240 LPSA12   33       AGAL     C3       CC3161   0.140000       12.0110           0
     13241 LPSA12   33       AGAL     H3       HCA1     0.900000E-01   1.00800           0
     13242 LPSA12   33       AGAL     O3       OC311   -0.650000       15.9994           0
     13243 LPSA12   33       AGAL     HO3      HCP1     0.420000       1.00800           0
     13244 LPSA12   33       AGAL     C4       CC3161   0.140000       12.0110           0
     13245 LPSA12   33       AGAL     H4       HCA1     0.900000E-01   1.00800           0
     13246 LPSA12   33       AGAL     O4       OC311   -0.650000       15.9994           0
     13247 LPSA12   33       AGAL     HO4      HCP1     0.420000       1.00800           0
     13248 LPSA12   33       AGAL     C6       CC321    0.500000E-01   12.0110           0
     13249 LPSA12   33       AGAL     H61      HCA2     0.900000E-01   1.00800           0
     13250 LPSA12   33       AGAL     H62      HCA2     0.900000E-01   1.00800           0
     13251 LPSA12   33       AGAL     O6       OC311   -0.650000       15.9994           0
     13252 LPSA12   33       AGAL     HO6      HCP1     0.420000       1.00800           0
     13253 LPSA12   34       ARHM     C1       CC3162   0.290000       12.0110           0
     13254 LPSA12   34       ARHM     H1       HCA1     0.900000E-01   1.00800           0
     13255 LPSA12   34       ARHM     C5       CC3163   0.110000       12.0110           0
     13256 LPSA12   34       ARHM     H5       HCA1     0.900000E-01   1.00800           0
     13257 LPSA12   34       ARHM     O5       OC3C61  -0.400000       15.9994           0
     13258 LPSA12   34       ARHM     C2       CC3161   0.900000E-01   12.0110           0
     13259 LPSA12   34       ARHM     H2       HCA1     0.900000E-01   1.00800           0
     13260 LPSA12   34       ARHM     O2       OC301   -0.360000       15.9994           0
     13261 LPSA12   34       ARHM     C3       CC3161   0.140000       12.0110           0
     13262 LPSA12   34       ARHM     H3       HCA1     0.900000E-01   1.00800           0
     13263 LPSA12   34       ARHM     O3       OC311   -0.650000       15.9994           0
     13264 LPSA12   34       ARHM     HO3      HCP1     0.420000       1.00800           0
     13265 LPSA12   34       ARHM     C4       CC3161   0.140000       12.0110           0
     13266 LPSA12   34       ARHM     H4       HCA1     0.900000E-01   1.00800           0
     13267 LPSA12   34       ARHM     O4       OC311   -0.650000       15.9994           0
     13268 LPSA12   34       ARHM     HO4      HCP1     0.420000       1.00800           0
     13269 LPSA12   34       ARHM     C6       CC331   -0.270000       12.0110           0
     13270 LPSA12   34       ARHM     H61      HCA3     0.900000E-01   1.00800           0
     13271 LPSA12   34       ARHM     H62      HCA3     0.900000E-01   1.00800           0
     13272 LPSA12   34       ARHM     H63      HCA3     0.900000E-01   1.00800           0
     13273 LPSA12   35       ARHM     C1       CC3162   0.290000       12.0110           0
     13274 LPSA12   35       ARHM     H1       HCA1     0.900000E-01   1.00800           0
     13275 LPSA12   35       ARHM     C5       CC3163   0.110000       12.0110           0
     13276 LPSA12   35       ARHM     H5       HCA1     0.900000E-01   1.00800           0
     13277 LPSA12   35       ARHM     O5       OC3C61  -0.400000       15.9994           0
     13278 LPSA12   35       ARHM     C2       CC3161   0.900000E-01   12.0110           0
     13279 LPSA12   35       ARHM     H2       HCA1     0.900000E-01   1.00800           0
     13280 LPSA12   35       ARHM     O2       OC301   -0.360000       15.9994           0
     13281 LPSA12   35       ARHM     C3       CC3161   0.140000       12.0110           0
     13282 LPSA12   35       ARHM     H3       HCA1     0.900000E-01   1.00800           0
     13283 LPSA12   35       ARHM     O3       OC311   -0.650000       15.9994           0
     13284 LPSA12   35       ARHM     HO3      HCP1     0.420000       1.00800           0
     13285 LPSA12   35       ARHM     C4       CC3161   0.140000       12.0110           0
     13286 LPSA12   35       ARHM     H4       HCA1     0.900000E-01   1.00800           0
     13287 LPSA12   35       ARHM     O4       OC311   -0.650000       15.9994           0
     13288 LPSA12   35       ARHM     HO4      HCP1     0.420000       1.00800           0
     13289 LPSA12   35       ARHM     C6       CC331   -0.270000       12.0110           0
     13290 LPSA12   35       ARHM     H61      HCA3     0.900000E-01   1.00800           0
     13291 LPSA12   35       ARHM     H62      HCA3     0.900000E-01   1.00800           0
     13292 LPSA12   35       ARHM     H63      HCA3     0.900000E-01   1.00800           0
     13293 LPSA12   36       BMANNA   C1       CC3162   0.290000       12.0110           0
     13294 LPSA12   36       BMANNA   H1       HCA1     0.900000E-01   1.00800           0
     13295 LPSA12   36       BMANNA   C5       CC3163   0.110000       12.0110           0
     13296 LPSA12   36       BMANNA   H5       HCA1     0.900000E-01   1.00800           0
     13297 LPSA12   36       BMANNA   O5       OC3C61  -0.400000       15.9994           0
     13298 LPSA12   36       BMANNA   C2       CC3161   0.700000E-01   12.0110           0
     13299 LPSA12   36       BMANNA   H2       HCA1     0.900000E-01   1.00800           0
     13300 LPSA12   36       BMANNA   N        NC2D1   -0.470000       14.0070           0
     13301 LPSA12   36       BMANNA   HN       HCP1     0.310000       1.00800           0
     13302 LPSA12   36       BMANNA   C        CC2O1    0.510000       12.0110           0
     13303 LPSA12   36       BMANNA   O        OC2D1   -0.510000       15.9994           0
     13304 LPSA12   36       BMANNA   CT       CC331   -0.270000       12.0110           0
     13305 LPSA12   36       BMANNA   HT1      HCA3     0.900000E-01   1.00800           0
     13306 LPSA12   36       BMANNA   HT2      HCA3     0.900000E-01   1.00800           0
     13307 LPSA12   36       BMANNA   HT3      HCA3     0.900000E-01   1.00800           0
     13308 LPSA12   36       BMANNA   C3       CC3161   0.140000       12.0110           0
     13309 LPSA12   36       BMANNA   H3       HCA1     0.900000E-01   1.00800           0
     13310 LPSA12   36       BMANNA   O3       OC311   -0.650000       15.9994           0
     13311 LPSA12   36       BMANNA   HO3      HCP1     0.420000       1.00800           0
     13312 LPSA12   36       BMANNA   C4       CC3161   0.140000       12.0110           0
     13313 LPSA12   36       BMANNA   H4       HCA1     0.900000E-01   1.00800           0
     13314 LPSA12   36       BMANNA   O4       OC311   -0.650000       15.9994           0
     13315 LPSA12   36       BMANNA   HO4      HCP1     0.420000       1.00800           0
     13316 LPSA12   36       BMANNA   C6       CC321    0.500000E-01   12.0110           0
     13317 LPSA12   36       BMANNA   H61      HCA2     0.900000E-01   1.00800           0
     13318 LPSA12   36       BMANNA   H62      HCA2     0.900000E-01   1.00800           0
     13319 LPSA12   36       BMANNA   O6       OC311   -0.650000       15.9994           0
     13320 LPSA12   36       BMANNA   HO6      HCP1     0.420000       1.00800           0
     13321 LPSA13   1        ECLIPA   HB6S     HCA2     0.900000E-01   1.00800           0
     13322 LPSA13   1        ECLIPA   OB6      OC301   -0.360000       15.9994           0
     13323 LPSA13   1        ECLIPA   CB6      CC321     0.00000       12.0110           0
     13324 LPSA13   1        ECLIPA   HB6R     HCA2     0.900000E-01   1.00800           0
     13325 LPSA13   1        ECLIPA   CB5      CC3163   0.110000       12.0110           0
     13326 LPSA13   1        ECLIPA   OB5      OC3C61  -0.400000       15.9994           0
     13327 LPSA13   1        ECLIPA   HB5      HCA1     0.900000E-01   1.00800           0
     13328 LPSA13   1        ECLIPA   CB1      CC3162   0.290000       12.0110           0
     13329 LPSA13   1        ECLIPA   HB1      HCA1     0.900000E-01   1.00800           0
     13330 LPSA13   1        ECLIPA   OA6      OC301   -0.360000       15.9994           0
     13331 LPSA13   1        ECLIPA   CA6      CC321     0.00000       12.0110           0
     13332 LPSA13   1        ECLIPA   HA6R     HCA2     0.900000E-01   1.00800           0
     13333 LPSA13   1        ECLIPA   HA6S     HCA2     0.900000E-01   1.00800           0
     13334 LPSA13   1        ECLIPA   CB4      CC3161  -0.900000E-01   12.0110           0
     13335 LPSA13   1        ECLIPA   HB4      HCA1     0.900000E-01   1.00800           0
     13336 LPSA13   1        ECLIPA   OB4      OC30P   -0.400000       15.9994           0
     13337 LPSA13   1        ECLIPA   PB       PC        1.10000       30.9740           0
     13338 LPSA13   1        ECLIPA   OPB4     OC2DP   -0.900000       15.9994           0
     13339 LPSA13   1        ECLIPA   OPB3     OC2DP   -0.900000       15.9994           0
     13340 LPSA13   1        ECLIPA   OPB2     OC2DP   -0.900000       15.9994           0
     13341 LPSA13   1        ECLIPA   CB3      CC3161   0.170000       12.0110           0
     13342 LPSA13   1        ECLIPA   OB3      OC301   -0.490000       15.9994           0
     13343 LPSA13   1        ECLIPA   HB3      HCA1     0.900000E-01   1.00800           0
     13344 LPSA13   1        ECLIPA   C71      CL       0.900000       12.0110           0
     13345 LPSA13   1        ECLIPA   O71      OBL     -0.630000       15.9994           0
     13346 LPSA13   1        ECLIPA   C72      CTL2    -0.220000       12.0110           0
     13347 LPSA13   1        ECLIPA   H72R     HAL2     0.900000E-01   1.00800           0
     13348 LPSA13   1        ECLIPA   H72S     HAL2     0.900000E-01   1.00800           0
     13349 LPSA13   1        ECLIPA   CB2      CC3161   0.700000E-01   12.0110           0
     13350 LPSA13   1        ECLIPA   HB2      HCA1     0.900000E-01   1.00800           0
     13351 LPSA13   1        ECLIPA   NB2      NC2D1   -0.470000       14.0070           0
     13352 LPSA13   1        ECLIPA   HNB2     HCP1     0.310000       1.00800           0
     13353 LPSA13   1        ECLIPA   CA4      CC3161   0.140000       12.0110           0
     13354 LPSA13   1        ECLIPA   HA4      HCA1     0.900000E-01   1.00800           0
     13355 LPSA13   1        ECLIPA   OA4      OC311   -0.650000       15.9994           0
     13356 LPSA13   1        ECLIPA   HOA4     HCP1     0.420000       1.00800           0
     13357 LPSA13   1        ECLIPA   CA5      CC3163   0.110000       12.0110           0
     13358 LPSA13   1        ECLIPA   HA5      HCA1     0.900000E-01   1.00800           0
     13359 LPSA13   1        ECLIPA   OA5      OC3C61  -0.400000       15.9994           0
     13360 LPSA13   1        ECLIPA   CA1      CC3162   0.110000       12.0110           0
     13361 LPSA13   1        ECLIPA   HA1      HCA1     0.900000E-01   1.00800           0
     13362 LPSA13   1        ECLIPA   OA1      OC30P   -0.400000       15.9994           0
     13363 LPSA13   1        ECLIPA   OPA2     OC2DP   -0.900000       15.9994           0
     13364 LPSA13   1        ECLIPA   OPA3     OC2DP   -0.900000       15.9994           0
     13365 LPSA13   1        ECLIPA   OPA4     OC2DP   -0.900000       15.9994           0
     13366 LPSA13   1        ECLIPA   PA       PC        1.10000       30.9740           0
     13367 LPSA13   1        ECLIPA   CA3      CC3161   0.170000       12.0110           0
     13368 LPSA13   1        ECLIPA   HA3      HCA1     0.900000E-01   1.00800           0
     13369 LPSA13   1        ECLIPA   OA3      OC301   -0.490000       15.9994           0
     13370 LPSA13   1        ECLIPA   C31      CL       0.900000       12.0110           0
     13371 LPSA13   1        ECLIPA   O31      OBL     -0.630000       15.9994           0
     13372 LPSA13   1        ECLIPA   C32      CTL2    -0.220000       12.0110           0
     13373 LPSA13   1        ECLIPA   H32R     HAL2     0.900000E-01   1.00800           0
     13374 LPSA13   1        ECLIPA   H32S     HAL2     0.900000E-01   1.00800           0
     13375 LPSA13   1        ECLIPA   CA2      CC3161   0.700000E-01   12.0110           0
     13376 LPSA13   1        ECLIPA   HA2      HCA1     0.900000E-01   1.00800           0
     13377 LPSA13   1        ECLIPA   NA2      NC2D1   -0.470000       14.0070           0
     13378 LPSA13   1        ECLIPA   HNA2     HCP1     0.310000       1.00800           0
     13379 LPSA13   1        ECLIPA   C73      CTL1     0.170000       12.0110           0
     13380 LPSA13   1        ECLIPA   H73R     HAL1     0.900000E-01   1.00800           0
     13381 LPSA13   1        ECLIPA   O73      OSL     -0.490000       15.9994           0
     13382 LPSA13   1        ECLIPA   C81      CL       0.900000       12.0110           0
     13383 LPSA13   1        ECLIPA   O81      OBL     -0.630000       15.9994           0
     13384 LPSA13   1        ECLIPA   C82      CTL2    -0.220000       12.0110           0
     13385 LPSA13   1        ECLIPA   H82R     HAL2     0.900000E-01   1.00800           0
     13386 LPSA13   1        ECLIPA   H82S     HAL2     0.900000E-01   1.00800           0
     13387 LPSA13   1        ECLIPA   C83      CTL2    -0.180000       12.0110           0
     13388 LPSA13   1        ECLIPA   H83R     HAL2     0.900000E-01   1.00800           0
     13389 LPSA13   1        ECLIPA   H83S     HAL2     0.900000E-01   1.00800           0
     13390 LPSA13   1        ECLIPA   C84      CTL2    -0.180000       12.0110           0
     13391 LPSA13   1        ECLIPA   H84R     HAL2     0.900000E-01   1.00800           0
     13392 LPSA13   1        ECLIPA   H84S     HAL2     0.900000E-01   1.00800           0
     13393 LPSA13   1        ECLIPA   C85      CTL2    -0.180000       12.0110           0
     13394 LPSA13   1        ECLIPA   H85R     HAL2     0.900000E-01   1.00800           0
     13395 LPSA13   1        ECLIPA   H85S     HAL2     0.900000E-01   1.00800           0
     13396 LPSA13   1        ECLIPA   C86      CTL2    -0.180000       12.0110           0
     13397 LPSA13   1        ECLIPA   H86R     HAL2     0.900000E-01   1.00800           0
     13398 LPSA13   1        ECLIPA   H86S     HAL2     0.900000E-01   1.00800           0
     13399 LPSA13   1        ECLIPA   C87      CTL2    -0.180000       12.0110           0
     13400 LPSA13   1        ECLIPA   H87R     HAL2     0.900000E-01   1.00800           0
     13401 LPSA13   1        ECLIPA   H87S     HAL2     0.900000E-01   1.00800           0
     13402 LPSA13   1        ECLIPA   C88      CTL2    -0.180000       12.0110           0
     13403 LPSA13   1        ECLIPA   H88R     HAL2     0.900000E-01   1.00800           0
     13404 LPSA13   1        ECLIPA   H88S     HAL2     0.900000E-01   1.00800           0
     13405 LPSA13   1        ECLIPA   C89      CTL2    -0.180000       12.0110           0
     13406 LPSA13   1        ECLIPA   H89R     HAL2     0.900000E-01   1.00800           0
     13407 LPSA13   1        ECLIPA   H89S     HAL2     0.900000E-01   1.00800           0
     13408 LPSA13   1        ECLIPA   C810     CTL2    -0.180000       12.0110           0
     13409 LPSA13   1        ECLIPA   H810R    HAL2     0.900000E-01   1.00800           0
     13410 LPSA13   1        ECLIPA   H810S    HAL2     0.900000E-01   1.00800           0
     13411 LPSA13   1        ECLIPA   C811     CTL2    -0.180000       12.0110           0
     13412 LPSA13   1        ECLIPA   H811R    HAL2     0.900000E-01   1.00800           0
     13413 LPSA13   1        ECLIPA   H811S    HAL2     0.900000E-01   1.00800           0
     13414 LPSA13   1        ECLIPA   C812     CTL2    -0.180000       12.0110           0
     13415 LPSA13   1        ECLIPA   H812R    HAL2     0.900000E-01   1.00800           0
     13416 LPSA13   1        ECLIPA   H812S    HAL2     0.900000E-01   1.00800           0
     13417 LPSA13   1        ECLIPA   C813     CTL2    -0.180000       12.0110           0
     13418 LPSA13   1        ECLIPA   H813R    HAL2     0.900000E-01   1.00800           0
     13419 LPSA13   1        ECLIPA   H813S    HAL2     0.900000E-01   1.00800           0
     13420 LPSA13   1        ECLIPA   C814     CTL3    -0.270000       12.0110           0
     13421 LPSA13   1        ECLIPA   H814R    HAL3     0.900000E-01   1.00800           0
     13422 LPSA13   1        ECLIPA   H814S    HAL3     0.900000E-01   1.00800           0
     13423 LPSA13   1        ECLIPA   H814T    HAL3     0.900000E-01   1.00800           0
     13424 LPSA13   1        ECLIPA   C74      CTL2    -0.180000       12.0110           0
     13425 LPSA13   1        ECLIPA   H74R     HAL2     0.900000E-01   1.00800           0
     13426 LPSA13   1        ECLIPA   H74S     HAL2     0.900000E-01   1.00800           0
     13427 LPSA13   1        ECLIPA   C75      CTL2    -0.180000       12.0110           0
     13428 LPSA13   1        ECLIPA   H75R     HAL2     0.900000E-01   1.00800           0
     13429 LPSA13   1        ECLIPA   H75S     HAL2     0.900000E-01   1.00800           0
     13430 LPSA13   1        ECLIPA   C76      CTL2    -0.180000       12.0110           0
     13431 LPSA13   1        ECLIPA   H76R     HAL2     0.900000E-01   1.00800           0
     13432 LPSA13   1        ECLIPA   H76S     HAL2     0.900000E-01   1.00800           0
     13433 LPSA13   1        ECLIPA   C77      CTL2    -0.180000       12.0110           0
     13434 LPSA13   1        ECLIPA   H77R     HAL2     0.900000E-01   1.00800           0
     13435 LPSA13   1        ECLIPA   H77S     HAL2     0.900000E-01   1.00800           0
     13436 LPSA13   1        ECLIPA   C78      CTL2    -0.180000       12.0110           0
     13437 LPSA13   1        ECLIPA   H78R     HAL2     0.900000E-01   1.00800           0
     13438 LPSA13   1        ECLIPA   H78S     HAL2     0.900000E-01   1.00800           0
     13439 LPSA13   1        ECLIPA   C79      CTL2    -0.180000       12.0110           0
     13440 LPSA13   1        ECLIPA   H79R     HAL2     0.900000E-01   1.00800           0
     13441 LPSA13   1        ECLIPA   H79S     HAL2     0.900000E-01   1.00800           0
     13442 LPSA13   1        ECLIPA   C710     CTL2    -0.180000       12.0110           0
     13443 LPSA13   1        ECLIPA   H710R    HAL2     0.900000E-01   1.00800           0
     13444 LPSA13   1        ECLIPA   H710S    HAL2     0.900000E-01   1.00800           0
     13445 LPSA13   1        ECLIPA   C711     CTL2    -0.180000       12.0110           0
     13446 LPSA13   1        ECLIPA   H711R    HAL2     0.900000E-01   1.00800           0
     13447 LPSA13   1        ECLIPA   H711S    HAL2     0.900000E-01   1.00800           0
     13448 LPSA13   1        ECLIPA   C712     CTL2    -0.180000       12.0110           0
     13449 LPSA13   1        ECLIPA   H712R    HAL2     0.900000E-01   1.00800           0
     13450 LPSA13   1        ECLIPA   H712S    HAL2     0.900000E-01   1.00800           0
     13451 LPSA13   1        ECLIPA   C713     CTL2    -0.180000       12.0110           0
     13452 LPSA13   1        ECLIPA   H713R    HAL2     0.900000E-01   1.00800           0
     13453 LPSA13   1        ECLIPA   H713S    HAL2     0.900000E-01   1.00800           0
     13454 LPSA13   1        ECLIPA   C714     CTL3    -0.270000       12.0110           0
     13455 LPSA13   1        ECLIPA   H714R    HAL3     0.900000E-01   1.00800           0
     13456 LPSA13   1        ECLIPA   H714S    HAL3     0.900000E-01   1.00800           0
     13457 LPSA13   1        ECLIPA   H714T    HAL3     0.900000E-01   1.00800           0
     13458 LPSA13   1        ECLIPA   C51      CC2O1    0.550000       12.0110           0
     13459 LPSA13   1        ECLIPA   O51      OC2D1   -0.550000       15.9994           0
     13460 LPSA13   1        ECLIPA   C52      CTL2    -0.180000       12.0110           0
     13461 LPSA13   1        ECLIPA   H52R     HAL2     0.900000E-01   1.00800           0
     13462 LPSA13   1        ECLIPA   H52S     HAL2     0.900000E-01   1.00800           0
     13463 LPSA13   1        ECLIPA   C53      CTL1     0.170000       12.0110           0
     13464 LPSA13   1        ECLIPA   H53R     HAL1     0.900000E-01   1.00800           0
     13465 LPSA13   1        ECLIPA   O53      OSL     -0.490000       15.9994           0
     13466 LPSA13   1        ECLIPA   C61      CL       0.900000       12.0110           0
     13467 LPSA13   1        ECLIPA   O61      OBL     -0.630000       15.9994           0
     13468 LPSA13   1        ECLIPA   C62      CTL2    -0.220000       12.0110           0
     13469 LPSA13   1        ECLIPA   H62R     HAL2     0.900000E-01   1.00800           0
     13470 LPSA13   1        ECLIPA   H62S     HAL2     0.900000E-01   1.00800           0
     13471 LPSA13   1        ECLIPA   C63      CTL2    -0.180000       12.0110           0
     13472 LPSA13   1        ECLIPA   H63R     HAL2     0.900000E-01   1.00800           0
     13473 LPSA13   1        ECLIPA   H63S     HAL2     0.900000E-01   1.00800           0
     13474 LPSA13   1        ECLIPA   C64      CTL2    -0.180000       12.0110           0
     13475 LPSA13   1        ECLIPA   H64R     HAL2     0.900000E-01   1.00800           0
     13476 LPSA13   1        ECLIPA   H64S     HAL2     0.900000E-01   1.00800           0
     13477 LPSA13   1        ECLIPA   C65      CTL2    -0.180000       12.0110           0
     13478 LPSA13   1        ECLIPA   H65R     HAL2     0.900000E-01   1.00800           0
     13479 LPSA13   1        ECLIPA   H65S     HAL2     0.900000E-01   1.00800           0
     13480 LPSA13   1        ECLIPA   C66      CTL2    -0.180000       12.0110           0
     13481 LPSA13   1        ECLIPA   H66R     HAL2     0.900000E-01   1.00800           0
     13482 LPSA13   1        ECLIPA   H66S     HAL2     0.900000E-01   1.00800           0
     13483 LPSA13   1        ECLIPA   C67      CTL2    -0.180000       12.0110           0
     13484 LPSA13   1        ECLIPA   H67R     HAL2     0.900000E-01   1.00800           0
     13485 LPSA13   1        ECLIPA   H67S     HAL2     0.900000E-01   1.00800           0
     13486 LPSA13   1        ECLIPA   C68      CTL2    -0.180000       12.0110           0
     13487 LPSA13   1        ECLIPA   H68R     HAL2     0.900000E-01   1.00800           0
     13488 LPSA13   1        ECLIPA   H68S     HAL2     0.900000E-01   1.00800           0
     13489 LPSA13   1        ECLIPA   C69      CTL2    -0.180000       12.0110           0
     13490 LPSA13   1        ECLIPA   H69R     HAL2     0.900000E-01   1.00800           0
     13491 LPSA13   1        ECLIPA   H69S     HAL2     0.900000E-01   1.00800           0
     13492 LPSA13   1        ECLIPA   C610     CTL2    -0.180000       12.0110           0
     13493 LPSA13   1        ECLIPA   H610R    HAL2     0.900000E-01   1.00800           0
     13494 LPSA13   1        ECLIPA   H610S    HAL2     0.900000E-01   1.00800           0
     13495 LPSA13   1        ECLIPA   C611     CTL2    -0.180000       12.0110           0
     13496 LPSA13   1        ECLIPA   H611R    HAL2     0.900000E-01   1.00800           0
     13497 LPSA13   1        ECLIPA   H611S    HAL2     0.900000E-01   1.00800           0
     13498 LPSA13   1        ECLIPA   C612     CTL3    -0.270000       12.0110           0
     13499 LPSA13   1        ECLIPA   H612R    HAL3     0.900000E-01   1.00800           0
     13500 LPSA13   1        ECLIPA   H612S    HAL3     0.900000E-01   1.00800           0
     13501 LPSA13   1        ECLIPA   H612T    HAL3     0.900000E-01   1.00800           0
     13502 LPSA13   1        ECLIPA   C54      CTL2    -0.180000       12.0110           0
     13503 LPSA13   1        ECLIPA   H54R     HAL2     0.900000E-01   1.00800           0
     13504 LPSA13   1        ECLIPA   H54S     HAL2     0.900000E-01   1.00800           0
     13505 LPSA13   1        ECLIPA   C55      CTL2    -0.180000       12.0110           0
     13506 LPSA13   1        ECLIPA   H55R     HAL2     0.900000E-01   1.00800           0
     13507 LPSA13   1        ECLIPA   H55S     HAL2     0.900000E-01   1.00800           0
     13508 LPSA13   1        ECLIPA   C56      CTL2    -0.180000       12.0110           0
     13509 LPSA13   1        ECLIPA   H56R     HAL2     0.900000E-01   1.00800           0
     13510 LPSA13   1        ECLIPA   H56S     HAL2     0.900000E-01   1.00800           0
     13511 LPSA13   1        ECLIPA   C57      CTL2    -0.180000       12.0110           0
     13512 LPSA13   1        ECLIPA   H57R     HAL2     0.900000E-01   1.00800           0
     13513 LPSA13   1        ECLIPA   H57S     HAL2     0.900000E-01   1.00800           0
     13514 LPSA13   1        ECLIPA   C58      CTL2    -0.180000       12.0110           0
     13515 LPSA13   1        ECLIPA   H58R     HAL2     0.900000E-01   1.00800           0
     13516 LPSA13   1        ECLIPA   H58S     HAL2     0.900000E-01   1.00800           0
     13517 LPSA13   1        ECLIPA   C59      CTL2    -0.180000       12.0110           0
     13518 LPSA13   1        ECLIPA   H59R     HAL2     0.900000E-01   1.00800           0
     13519 LPSA13   1        ECLIPA   H59S     HAL2     0.900000E-01   1.00800           0
     13520 LPSA13   1        ECLIPA   C510     CTL2    -0.180000       12.0110           0
     13521 LPSA13   1        ECLIPA   H510R    HAL2     0.900000E-01   1.00800           0
     13522 LPSA13   1        ECLIPA   H510S    HAL2     0.900000E-01   1.00800           0
     13523 LPSA13   1        ECLIPA   C511     CTL2    -0.180000       12.0110           0
     13524 LPSA13   1        ECLIPA   H511R    HAL2     0.900000E-01   1.00800           0
     13525 LPSA13   1        ECLIPA   H511S    HAL2     0.900000E-01   1.00800           0
     13526 LPSA13   1        ECLIPA   C512     CTL2    -0.180000       12.0110           0
     13527 LPSA13   1        ECLIPA   H512R    HAL2     0.900000E-01   1.00800           0
     13528 LPSA13   1        ECLIPA   H512S    HAL2     0.900000E-01   1.00800           0
     13529 LPSA13   1        ECLIPA   C513     CTL2    -0.180000       12.0110           0
     13530 LPSA13   1        ECLIPA   H513R    HAL2     0.900000E-01   1.00800           0
     13531 LPSA13   1        ECLIPA   H513S    HAL2     0.900000E-01   1.00800           0
     13532 LPSA13   1        ECLIPA   C514     CTL3    -0.270000       12.0110           0
     13533 LPSA13   1        ECLIPA   H514R    HAL3     0.900000E-01   1.00800           0
     13534 LPSA13   1        ECLIPA   H514S    HAL3     0.900000E-01   1.00800           0
     13535 LPSA13   1        ECLIPA   H514T    HAL3     0.900000E-01   1.00800           0
     13536 LPSA13   1        ECLIPA   C33      CTL1     0.140000       12.0110           0
     13537 LPSA13   1        ECLIPA   H33R     HAL1     0.900000E-01   1.00800           0
     13538 LPSA13   1        ECLIPA   O33      OH1     -0.660000       15.9994           0
     13539 LPSA13   1        ECLIPA   HO33     H        0.430000       1.00800           0
     13540 LPSA13   1        ECLIPA   C34      CTL2    -0.180000       12.0110           0
     13541 LPSA13   1        ECLIPA   H34R     HAL2     0.900000E-01   1.00800           0
     13542 LPSA13   1        ECLIPA   H34S     HAL2     0.900000E-01   1.00800           0
     13543 LPSA13   1        ECLIPA   C35      CTL2    -0.180000       12.0110           0
     13544 LPSA13   1        ECLIPA   H35R     HAL2     0.900000E-01   1.00800           0
     13545 LPSA13   1        ECLIPA   H35S     HAL2     0.900000E-01   1.00800           0
     13546 LPSA13   1        ECLIPA   C36      CTL2    -0.180000       12.0110           0
     13547 LPSA13   1        ECLIPA   H36R     HAL2     0.900000E-01   1.00800           0
     13548 LPSA13   1        ECLIPA   H36S     HAL2     0.900000E-01   1.00800           0
     13549 LPSA13   1        ECLIPA   C37      CTL2    -0.180000       12.0110           0
     13550 LPSA13   1        ECLIPA   H37R     HAL2     0.900000E-01   1.00800           0
     13551 LPSA13   1        ECLIPA   H37S     HAL2     0.900000E-01   1.00800           0
     13552 LPSA13   1        ECLIPA   C38      CTL2    -0.180000       12.0110           0
     13553 LPSA13   1        ECLIPA   H38R     HAL2     0.900000E-01   1.00800           0
     13554 LPSA13   1        ECLIPA   H38S     HAL2     0.900000E-01   1.00800           0
     13555 LPSA13   1        ECLIPA   C39      CTL2    -0.180000       12.0110           0
     13556 LPSA13   1        ECLIPA   H39R     HAL2     0.900000E-01   1.00800           0
     13557 LPSA13   1        ECLIPA   H39S     HAL2     0.900000E-01   1.00800           0
     13558 LPSA13   1        ECLIPA   C310     CTL2    -0.180000       12.0110           0
     13559 LPSA13   1        ECLIPA   H310R    HAL2     0.900000E-01   1.00800           0
     13560 LPSA13   1        ECLIPA   H310S    HAL2     0.900000E-01   1.00800           0
     13561 LPSA13   1        ECLIPA   C311     CTL2    -0.180000       12.0110           0
     13562 LPSA13   1        ECLIPA   H311R    HAL2     0.900000E-01   1.00800           0
     13563 LPSA13   1        ECLIPA   H311S    HAL2     0.900000E-01   1.00800           0
     13564 LPSA13   1        ECLIPA   C312     CTL2    -0.180000       12.0110           0
     13565 LPSA13   1        ECLIPA   H312R    HAL2     0.900000E-01   1.00800           0
     13566 LPSA13   1        ECLIPA   H312S    HAL2     0.900000E-01   1.00800           0
     13567 LPSA13   1        ECLIPA   C313     CTL2    -0.180000       12.0110           0
     13568 LPSA13   1        ECLIPA   H313R    HAL2     0.900000E-01   1.00800           0
     13569 LPSA13   1        ECLIPA   H313S    HAL2     0.900000E-01   1.00800           0
     13570 LPSA13   1        ECLIPA   C314     CTL3    -0.270000       12.0110           0
     13571 LPSA13   1        ECLIPA   H314R    HAL3     0.900000E-01   1.00800           0
     13572 LPSA13   1        ECLIPA   H314S    HAL3     0.900000E-01   1.00800           0
     13573 LPSA13   1        ECLIPA   H314T    HAL3     0.900000E-01   1.00800           0
     13574 LPSA13   1        ECLIPA   C11      CC2O1    0.550000       12.0110           0
     13575 LPSA13   1        ECLIPA   O11      OC2D1   -0.550000       15.9994           0
     13576 LPSA13   1        ECLIPA   C12      CTL2    -0.180000       12.0110           0
     13577 LPSA13   1        ECLIPA   H12R     HAL2     0.900000E-01   1.00800           0
     13578 LPSA13   1        ECLIPA   H12S     HAL2     0.900000E-01   1.00800           0
     13579 LPSA13   1        ECLIPA   C13      CTL1     0.140000       12.0110           0
     13580 LPSA13   1        ECLIPA   H13R     HAL1     0.900000E-01   1.00800           0
     13581 LPSA13   1        ECLIPA   O13      OH1     -0.660000       15.9994           0
     13582 LPSA13   1        ECLIPA   HO13     H        0.430000       1.00800           0
     13583 LPSA13   1        ECLIPA   C14      CTL2    -0.180000       12.0110           0
     13584 LPSA13   1        ECLIPA   H14R     HAL2     0.900000E-01   1.00800           0
     13585 LPSA13   1        ECLIPA   H14S     HAL2     0.900000E-01   1.00800           0
     13586 LPSA13   1        ECLIPA   C15      CTL2    -0.180000       12.0110           0
     13587 LPSA13   1        ECLIPA   H15R     HAL2     0.900000E-01   1.00800           0
     13588 LPSA13   1        ECLIPA   H15S     HAL2     0.900000E-01   1.00800           0
     13589 LPSA13   1        ECLIPA   C16      CTL2    -0.180000       12.0110           0
     13590 LPSA13   1        ECLIPA   H16R     HAL2     0.900000E-01   1.00800           0
     13591 LPSA13   1        ECLIPA   H16S     HAL2     0.900000E-01   1.00800           0
     13592 LPSA13   1        ECLIPA   C17      CTL2    -0.180000       12.0110           0
     13593 LPSA13   1        ECLIPA   H17R     HAL2     0.900000E-01   1.00800           0
     13594 LPSA13   1        ECLIPA   H17S     HAL2     0.900000E-01   1.00800           0
     13595 LPSA13   1        ECLIPA   C18      CTL2    -0.180000       12.0110           0
     13596 LPSA13   1        ECLIPA   H18R     HAL2     0.900000E-01   1.00800           0
     13597 LPSA13   1        ECLIPA   H18S     HAL2     0.900000E-01   1.00800           0
     13598 LPSA13   1        ECLIPA   C19      CTL2    -0.180000       12.0110           0
     13599 LPSA13   1        ECLIPA   H19R     HAL2     0.900000E-01   1.00800           0
     13600 LPSA13   1        ECLIPA   H19S     HAL2     0.900000E-01   1.00800           0
     13601 LPSA13   1        ECLIPA   C110     CTL2    -0.180000       12.0110           0
     13602 LPSA13   1        ECLIPA   H110R    HAL2     0.900000E-01   1.00800           0
     13603 LPSA13   1        ECLIPA   H110S    HAL2     0.900000E-01   1.00800           0
     13604 LPSA13   1        ECLIPA   C111     CTL2    -0.180000       12.0110           0
     13605 LPSA13   1        ECLIPA   H111R    HAL2     0.900000E-01   1.00800           0
     13606 LPSA13   1        ECLIPA   H111S    HAL2     0.900000E-01   1.00800           0
     13607 LPSA13   1        ECLIPA   C112     CTL2    -0.180000       12.0110           0
     13608 LPSA13   1        ECLIPA   H112R    HAL2     0.900000E-01   1.00800           0
     13609 LPSA13   1        ECLIPA   H112S    HAL2     0.900000E-01   1.00800           0
     13610 LPSA13   1        ECLIPA   C113     CTL2    -0.180000       12.0110           0
     13611 LPSA13   1        ECLIPA   H113R    HAL2     0.900000E-01   1.00800           0
     13612 LPSA13   1        ECLIPA   H113S    HAL2     0.900000E-01   1.00800           0
     13613 LPSA13   1        ECLIPA   C114     CTL3    -0.270000       12.0110           0
     13614 LPSA13   1        ECLIPA   H114R    HAL3     0.900000E-01   1.00800           0
     13615 LPSA13   1        ECLIPA   H114S    HAL3     0.900000E-01   1.00800           0
     13616 LPSA13   1        ECLIPA   H114T    HAL3     0.900000E-01   1.00800           0
     13617 LPSA13   2        AKDO     C1       CC2O2    0.300000       12.0110           0
     13618 LPSA13   2        AKDO     O11      OC2D2   -0.600000       15.9994           0
     13619 LPSA13   2        AKDO     O12      OC2D2   -0.600000       15.9994           0
     13620 LPSA13   2        AKDO     C2       CC3062   0.280000       12.0110           0
     13621 LPSA13   2        AKDO     C6       CC3163   0.110000       12.0110           0
     13622 LPSA13   2        AKDO     H6       HCA1     0.900000E-01   1.00800           0
     13623 LPSA13   2        AKDO     O6       OC3C61  -0.400000       15.9994           0
     13624 LPSA13   2        AKDO     C3       CC3261  -0.180000       12.0110           0
     13625 LPSA13   2        AKDO     H31      HCA2     0.900000E-01   1.00800           0
     13626 LPSA13   2        AKDO     H32      HCA2     0.900000E-01   1.00800           0
     13627 LPSA13   2        AKDO     C4       CC3161   0.900000E-01   12.0110           0
     13628 LPSA13   2        AKDO     H4       HCA1     0.900000E-01   1.00800           0
     13629 LPSA13   2        AKDO     O4       OC301   -0.360000       15.9994           0
     13630 LPSA13   2        AKDO     C5       CC3161   0.900000E-01   12.0110           0
     13631 LPSA13   2        AKDO     H5       HCA1     0.900000E-01   1.00800           0
     13632 LPSA13   2        AKDO     O5       OC301   -0.360000       15.9994           0
     13633 LPSA13   2        AKDO     C7       CC312    0.140000       12.0110           0
     13634 LPSA13   2        AKDO     H7       HCA1     0.900000E-01   1.00800           0
     13635 LPSA13   2        AKDO     O7       OC311   -0.650000       15.9994           0
     13636 LPSA13   2        AKDO     HO7      HCP1     0.420000       1.00800           0
     13637 LPSA13   2        AKDO     C8       CC322    0.500000E-01   12.0110           0
     13638 LPSA13   2        AKDO     H81      HCA2     0.900000E-01   1.00800           0
     13639 LPSA13   2        AKDO     H82      HCA2     0.900000E-01   1.00800           0
     13640 LPSA13   2        AKDO     O8       OC311   -0.650000       15.9994           0
     13641 LPSA13   2        AKDO     HO8      HCP1     0.420000       1.00800           0
     13642 LPSA13   3        AKDO     C1       CC2O2    0.300000       12.0110           0
     13643 LPSA13   3        AKDO     O11      OC2D2   -0.600000       15.9994           0
     13644 LPSA13   3        AKDO     O12      OC2D2   -0.600000       15.9994           0
     13645 LPSA13   3        AKDO     C2       CC3062   0.280000       12.0110           0
     13646 LPSA13   3        AKDO     C6       CC3163   0.110000       12.0110           0
     13647 LPSA13   3        AKDO     H6       HCA1     0.900000E-01   1.00800           0
     13648 LPSA13   3        AKDO     O6       OC3C61  -0.400000       15.9994           0
     13649 LPSA13   3        AKDO     C3       CC3261  -0.180000       12.0110           0
     13650 LPSA13   3        AKDO     H31      HCA2     0.900000E-01   1.00800           0
     13651 LPSA13   3        AKDO     H32      HCA2     0.900000E-01   1.00800           0
     13652 LPSA13   3        AKDO     C4       CC3161   0.140000       12.0110           0
     13653 LPSA13   3        AKDO     H4       HCA1     0.900000E-01   1.00800           0
     13654 LPSA13   3        AKDO     O4       OC311   -0.650000       15.9994           0
     13655 LPSA13   3        AKDO     HO4      HCP1     0.420000       1.00800           0
     13656 LPSA13   3        AKDO     C5       CC3161   0.140000       12.0110           0
     13657 LPSA13   3        AKDO     H5       HCA1     0.900000E-01   1.00800           0
     13658 LPSA13   3        AKDO     O5       OC311   -0.650000       15.9994           0
     13659 LPSA13   3        AKDO     HO5      HCP1     0.420000       1.00800           0
     13660 LPSA13   3        AKDO     C7       CC312    0.140000       12.0110           0
     13661 LPSA13   3        AKDO     H7       HCA1     0.900000E-01   1.00800           0
     13662 LPSA13   3        AKDO     O7       OC311   -0.650000       15.9994           0
     13663 LPSA13   3        AKDO     HO7      HCP1     0.420000       1.00800           0
     13664 LPSA13   3        AKDO     C8       CC322    0.500000E-01   12.0110           0
     13665 LPSA13   3        AKDO     H81      HCA2     0.900000E-01   1.00800           0
     13666 LPSA13   3        AKDO     H82      HCA2     0.900000E-01   1.00800           0
     13667 LPSA13   3        AKDO     O8       OC311   -0.650000       15.9994           0
     13668 LPSA13   3        AKDO     HO8      HCP1     0.420000       1.00800           0
     13669 LPSA13   4        AHEP     C1       CC3162   0.290000       12.0110           0
     13670 LPSA13   4        AHEP     H1       HCA1     0.900000E-01   1.00800           0
     13671 LPSA13   4        AHEP     C5       CC3163   0.110000       12.0110           0
     13672 LPSA13   4        AHEP     H5       HCA1     0.900000E-01   1.00800           0
     13673 LPSA13   4        AHEP     O5       OC3C61  -0.400000       15.9994           0
     13674 LPSA13   4        AHEP     C2       CC3161   0.140000       12.0110           0
     13675 LPSA13   4        AHEP     H2       HCA1     0.900000E-01   1.00800           0
     13676 LPSA13   4        AHEP     O2       OC311   -0.650000       15.9994           0
     13677 LPSA13   4        AHEP     HO2      HCP1     0.420000       1.00800           0
     13678 LPSA13   4        AHEP     C3       CC3161   0.900000E-01   12.0110           0
     13679 LPSA13   4        AHEP     H3       HCA1     0.900000E-01   1.00800           0
     13680 LPSA13   4        AHEP     O3       OC301   -0.360000       15.9994           0
     13681 LPSA13   4        AHEP     C4       CC3161  -0.900000E-01   12.0110           0
     13682 LPSA13   4        AHEP     H4       HCA1     0.900000E-01   1.00800           0
     13683 LPSA13   4        AHEP     O4       OC30P   -0.400000       15.9994           0
     13684 LPSA13   4        AHEP     P4       PC        1.10000       30.9740           0
     13685 LPSA13   4        AHEP     OP42     OC2DP   -0.900000       15.9994           0
     13686 LPSA13   4        AHEP     OP43     OC2DP   -0.900000       15.9994           0
     13687 LPSA13   4        AHEP     OP44     OC2DP   -0.900000       15.9994           0
     13688 LPSA13   4        AHEP     C6       CC312    0.140000       12.0110           0
     13689 LPSA13   4        AHEP     H6       HCA1     0.900000E-01   1.00800           0
     13690 LPSA13   4        AHEP     O6       OC311   -0.650000       15.9994           0
     13691 LPSA13   4        AHEP     HO6      HCP1     0.420000       1.00800           0
     13692 LPSA13   4        AHEP     C7       CC322    0.500000E-01   12.0110           0
     13693 LPSA13   4        AHEP     H71      HCA2     0.900000E-01   1.00800           0
     13694 LPSA13   4        AHEP     H72      HCA2     0.900000E-01   1.00800           0
     13695 LPSA13   4        AHEP     O7       OC311   -0.650000       15.9994           0
     13696 LPSA13   4        AHEP     HO7      HCP1     0.420000       1.00800           0
     13697 LPSA13   5        AHEP     C1       CC3162   0.290000       12.0110           0
     13698 LPSA13   5        AHEP     H1       HCA1     0.900000E-01   1.00800           0
     13699 LPSA13   5        AHEP     C5       CC3163   0.110000       12.0110           0
     13700 LPSA13   5        AHEP     H5       HCA1     0.900000E-01   1.00800           0
     13701 LPSA13   5        AHEP     O5       OC3C61  -0.400000       15.9994           0
     13702 LPSA13   5        AHEP     C2       CC3161   0.140000       12.0110           0
     13703 LPSA13   5        AHEP     H2       HCA1     0.900000E-01   1.00800           0
     13704 LPSA13   5        AHEP     O2       OC311   -0.650000       15.9994           0
     13705 LPSA13   5        AHEP     HO2      HCP1     0.420000       1.00800           0
     13706 LPSA13   5        AHEP     C3       CC3161   0.900000E-01   12.0110           0
     13707 LPSA13   5        AHEP     H3       HCA1     0.900000E-01   1.00800           0
     13708 LPSA13   5        AHEP     O3       OC301   -0.360000       15.9994           0
     13709 LPSA13   5        AHEP     C4       CC3161  -0.900000E-01   12.0110           0
     13710 LPSA13   5        AHEP     H4       HCA1     0.900000E-01   1.00800           0
     13711 LPSA13   5        AHEP     O4       OC30P   -0.400000       15.9994           0
     13712 LPSA13   5        AHEP     P4       PC        1.10000       30.9740           0
     13713 LPSA13   5        AHEP     OP42     OC2DP   -0.900000       15.9994           0
     13714 LPSA13   5        AHEP     OP43     OC2DP   -0.900000       15.9994           0
     13715 LPSA13   5        AHEP     OP44     OC2DP   -0.900000       15.9994           0
     13716 LPSA13   5        AHEP     C6       CC312    0.140000       12.0110           0
     13717 LPSA13   5        AHEP     H6       HCA1     0.900000E-01   1.00800           0
     13718 LPSA13   5        AHEP     O6       OC311   -0.650000       15.9994           0
     13719 LPSA13   5        AHEP     HO6      HCP1     0.420000       1.00800           0
     13720 LPSA13   5        AHEP     C7       CC322     0.00000       12.0110           0
     13721 LPSA13   5        AHEP     H71      HCA2     0.900000E-01   1.00800           0
     13722 LPSA13   5        AHEP     H72      HCA2     0.900000E-01   1.00800           0
     13723 LPSA13   5        AHEP     O7       OC301   -0.360000       15.9994           0
     13724 LPSA13   6        AHEP     C1       CC3162   0.290000       12.0110           0
     13725 LPSA13   6        AHEP     H1       HCA1     0.900000E-01   1.00800           0
     13726 LPSA13   6        AHEP     C5       CC3163   0.110000       12.0110           0
     13727 LPSA13   6        AHEP     H5       HCA1     0.900000E-01   1.00800           0
     13728 LPSA13   6        AHEP     O5       OC3C61  -0.400000       15.9994           0
     13729 LPSA13   6        AHEP     C2       CC3161   0.140000       12.0110           0
     13730 LPSA13   6        AHEP     H2       HCA1     0.900000E-01   1.00800           0
     13731 LPSA13   6        AHEP     O2       OC311   -0.650000       15.9994           0
     13732 LPSA13   6        AHEP     HO2      HCP1     0.420000       1.00800           0
     13733 LPSA13   6        AHEP     C3       CC3161   0.140000       12.0110           0
     13734 LPSA13   6        AHEP     H3       HCA1     0.900000E-01   1.00800           0
     13735 LPSA13   6        AHEP     O3       OC311   -0.650000       15.9994           0
     13736 LPSA13   6        AHEP     HO3      HCP1     0.420000       1.00800           0
     13737 LPSA13   6        AHEP     C4       CC3161   0.140000       12.0110           0
     13738 LPSA13   6        AHEP     H4       HCA1     0.900000E-01   1.00800           0
     13739 LPSA13   6        AHEP     O4       OC311   -0.650000       15.9994           0
     13740 LPSA13   6        AHEP     HO4      HCP1     0.420000       1.00800           0
     13741 LPSA13   6        AHEP     C6       CC312    0.140000       12.0110           0
     13742 LPSA13   6        AHEP     H6       HCA1     0.900000E-01   1.00800           0
     13743 LPSA13   6        AHEP     O6       OC311   -0.650000       15.9994           0
     13744 LPSA13   6        AHEP     HO6      HCP1     0.420000       1.00800           0
     13745 LPSA13   6        AHEP     C7       CC322    0.500000E-01   12.0110           0
     13746 LPSA13   6        AHEP     H71      HCA2     0.900000E-01   1.00800           0
     13747 LPSA13   6        AHEP     H72      HCA2     0.900000E-01   1.00800           0
     13748 LPSA13   6        AHEP     O7       OC311   -0.650000       15.9994           0
     13749 LPSA13   6        AHEP     HO7      HCP1     0.420000       1.00800           0
     13750 LPSA13   7        AGLC     C1       CC3162   0.290000       12.0110           0
     13751 LPSA13   7        AGLC     H1       HCA1     0.900000E-01   1.00800           0
     13752 LPSA13   7        AGLC     C5       CC3163   0.110000       12.0110           0
     13753 LPSA13   7        AGLC     H5       HCA1     0.900000E-01   1.00800           0
     13754 LPSA13   7        AGLC     O5       OC3C61  -0.400000       15.9994           0
     13755 LPSA13   7        AGLC     C2       CC3161   0.140000       12.0110           0
     13756 LPSA13   7        AGLC     H2       HCA1     0.900000E-01   1.00800           0
     13757 LPSA13   7        AGLC     O2       OC311   -0.650000       15.9994           0
     13758 LPSA13   7        AGLC     HO2      HCP1     0.420000       1.00800           0
     13759 LPSA13   7        AGLC     C3       CC3161   0.900000E-01   12.0110           0
     13760 LPSA13   7        AGLC     H3       HCA1     0.900000E-01   1.00800           0
     13761 LPSA13   7        AGLC     O3       OC301   -0.360000       15.9994           0
     13762 LPSA13   7        AGLC     C4       CC3161   0.140000       12.0110           0
     13763 LPSA13   7        AGLC     H4       HCA1     0.900000E-01   1.00800           0
     13764 LPSA13   7        AGLC     O4       OC311   -0.650000       15.9994           0
     13765 LPSA13   7        AGLC     HO4      HCP1     0.420000       1.00800           0
     13766 LPSA13   7        AGLC     C6       CC321    0.500000E-01   12.0110           0
     13767 LPSA13   7        AGLC     H61      HCA2     0.900000E-01   1.00800           0
     13768 LPSA13   7        AGLC     H62      HCA2     0.900000E-01   1.00800           0
     13769 LPSA13   7        AGLC     O6       OC311   -0.650000       15.9994           0
     13770 LPSA13   7        AGLC     HO6      HCP1     0.420000       1.00800           0
     13771 LPSA13   8        AGLC     C1       CC3162   0.290000       12.0110           0
     13772 LPSA13   8        AGLC     H1       HCA1     0.900000E-01   1.00800           0
     13773 LPSA13   8        AGLC     C5       CC3163   0.110000       12.0110           0
     13774 LPSA13   8        AGLC     H5       HCA1     0.900000E-01   1.00800           0
     13775 LPSA13   8        AGLC     O5       OC3C61  -0.400000       15.9994           0
     13776 LPSA13   8        AGLC     C2       CC3161   0.900000E-01   12.0110           0
     13777 LPSA13   8        AGLC     H2       HCA1     0.900000E-01   1.00800           0
     13778 LPSA13   8        AGLC     O2       OC301   -0.360000       15.9994           0
     13779 LPSA13   8        AGLC     C3       CC3161   0.900000E-01   12.0110           0
     13780 LPSA13   8        AGLC     H3       HCA1     0.900000E-01   1.00800           0
     13781 LPSA13   8        AGLC     O3       OC301   -0.360000       15.9994           0
     13782 LPSA13   8        AGLC     C4       CC3161   0.140000       12.0110           0
     13783 LPSA13   8        AGLC     H4       HCA1     0.900000E-01   1.00800           0
     13784 LPSA13   8        AGLC     O4       OC311   -0.650000       15.9994           0
     13785 LPSA13   8        AGLC     HO4      HCP1     0.420000       1.00800           0
     13786 LPSA13   8        AGLC     C6       CC321    0.500000E-01   12.0110           0
     13787 LPSA13   8        AGLC     H61      HCA2     0.900000E-01   1.00800           0
     13788 LPSA13   8        AGLC     H62      HCA2     0.900000E-01   1.00800           0
     13789 LPSA13   8        AGLC     O6       OC311   -0.650000       15.9994           0
     13790 LPSA13   8        AGLC     HO6      HCP1     0.420000       1.00800           0
     13791 LPSA13   9        AGAL     C1       CC3162   0.290000       12.0110           0
     13792 LPSA13   9        AGAL     H1       HCA1     0.900000E-01   1.00800           0
     13793 LPSA13   9        AGAL     C5       CC3163   0.110000       12.0110           0
     13794 LPSA13   9        AGAL     H5       HCA1     0.900000E-01   1.00800           0
     13795 LPSA13   9        AGAL     O5       OC3C61  -0.400000       15.9994           0
     13796 LPSA13   9        AGAL     C2       CC3161   0.900000E-01   12.0110           0
     13797 LPSA13   9        AGAL     H2       HCA1     0.900000E-01   1.00800           0
     13798 LPSA13   9        AGAL     O2       OC301   -0.360000       15.9994           0
     13799 LPSA13   9        AGAL     C3       CC3161   0.140000       12.0110           0
     13800 LPSA13   9        AGAL     H3       HCA1     0.900000E-01   1.00800           0
     13801 LPSA13   9        AGAL     O3       OC311   -0.650000       15.9994           0
     13802 LPSA13   9        AGAL     HO3      HCP1     0.420000       1.00800           0
     13803 LPSA13   9        AGAL     C4       CC3161   0.140000       12.0110           0
     13804 LPSA13   9        AGAL     H4       HCA1     0.900000E-01   1.00800           0
     13805 LPSA13   9        AGAL     O4       OC311   -0.650000       15.9994           0
     13806 LPSA13   9        AGAL     HO4      HCP1     0.420000       1.00800           0
     13807 LPSA13   9        AGAL     C6       CC321    0.500000E-01   12.0110           0
     13808 LPSA13   9        AGAL     H61      HCA2     0.900000E-01   1.00800           0
     13809 LPSA13   9        AGAL     H62      HCA2     0.900000E-01   1.00800           0
     13810 LPSA13   9        AGAL     O6       OC311   -0.650000       15.9994           0
     13811 LPSA13   9        AGAL     HO6      HCP1     0.420000       1.00800           0
     13812 LPSA13   10       AGAL     C1       CC3162   0.290000       12.0110           0
     13813 LPSA13   10       AGAL     H1       HCA1     0.900000E-01   1.00800           0
     13814 LPSA13   10       AGAL     C5       CC3163   0.110000       12.0110           0
     13815 LPSA13   10       AGAL     H5       HCA1     0.900000E-01   1.00800           0
     13816 LPSA13   10       AGAL     O5       OC3C61  -0.400000       15.9994           0
     13817 LPSA13   10       AGAL     C2       CC3161   0.140000       12.0110           0
     13818 LPSA13   10       AGAL     H2       HCA1     0.900000E-01   1.00800           0
     13819 LPSA13   10       AGAL     O2       OC311   -0.650000       15.9994           0
     13820 LPSA13   10       AGAL     HO2      HCP1     0.420000       1.00800           0
     13821 LPSA13   10       AGAL     C3       CC3161   0.140000       12.0110           0
     13822 LPSA13   10       AGAL     H3       HCA1     0.900000E-01   1.00800           0
     13823 LPSA13   10       AGAL     O3       OC311   -0.650000       15.9994           0
     13824 LPSA13   10       AGAL     HO3      HCP1     0.420000       1.00800           0
     13825 LPSA13   10       AGAL     C4       CC3161   0.140000       12.0110           0
     13826 LPSA13   10       AGAL     H4       HCA1     0.900000E-01   1.00800           0
     13827 LPSA13   10       AGAL     O4       OC311   -0.650000       15.9994           0
     13828 LPSA13   10       AGAL     HO4      HCP1     0.420000       1.00800           0
     13829 LPSA13   10       AGAL     C6       CC321    0.500000E-01   12.0110           0
     13830 LPSA13   10       AGAL     H61      HCA2     0.900000E-01   1.00800           0
     13831 LPSA13   10       AGAL     H62      HCA2     0.900000E-01   1.00800           0
     13832 LPSA13   10       AGAL     O6       OC311   -0.650000       15.9994           0
     13833 LPSA13   10       AGAL     HO6      HCP1     0.420000       1.00800           0
     13834 LPSA13   11       BGLC     C1       CC3162   0.290000       12.0110           0
     13835 LPSA13   11       BGLC     H1       HCA1     0.900000E-01   1.00800           0
     13836 LPSA13   11       BGLC     C5       CC3163   0.110000       12.0110           0
     13837 LPSA13   11       BGLC     H5       HCA1     0.900000E-01   1.00800           0
     13838 LPSA13   11       BGLC     O5       OC3C61  -0.400000       15.9994           0
     13839 LPSA13   11       BGLC     C2       CC3161   0.140000       12.0110           0
     13840 LPSA13   11       BGLC     H2       HCA1     0.900000E-01   1.00800           0
     13841 LPSA13   11       BGLC     O2       OC311   -0.650000       15.9994           0
     13842 LPSA13   11       BGLC     HO2      HCP1     0.420000       1.00800           0
     13843 LPSA13   11       BGLC     C3       CC3161   0.900000E-01   12.0110           0
     13844 LPSA13   11       BGLC     H3       HCA1     0.900000E-01   1.00800           0
     13845 LPSA13   11       BGLC     O3       OC301   -0.360000       15.9994           0
     13846 LPSA13   11       BGLC     C4       CC3161   0.140000       12.0110           0
     13847 LPSA13   11       BGLC     H4       HCA1     0.900000E-01   1.00800           0
     13848 LPSA13   11       BGLC     O4       OC311   -0.650000       15.9994           0
     13849 LPSA13   11       BGLC     HO4      HCP1     0.420000       1.00800           0
     13850 LPSA13   11       BGLC     C6       CC321    0.500000E-01   12.0110           0
     13851 LPSA13   11       BGLC     H61      HCA2     0.900000E-01   1.00800           0
     13852 LPSA13   11       BGLC     H62      HCA2     0.900000E-01   1.00800           0
     13853 LPSA13   11       BGLC     O6       OC311   -0.650000       15.9994           0
     13854 LPSA13   11       BGLC     HO6      HCP1     0.420000       1.00800           0
     13855 LPSA13   12       BGLCNA   C1       CC3162   0.290000       12.0110           0
     13856 LPSA13   12       BGLCNA   H1       HCA1     0.900000E-01   1.00800           0
     13857 LPSA13   12       BGLCNA   C5       CC3163   0.110000       12.0110           0
     13858 LPSA13   12       BGLCNA   H5       HCA1     0.900000E-01   1.00800           0
     13859 LPSA13   12       BGLCNA   O5       OC3C61  -0.400000       15.9994           0
     13860 LPSA13   12       BGLCNA   C2       CC3161   0.700000E-01   12.0110           0
     13861 LPSA13   12       BGLCNA   H2       HCA1     0.900000E-01   1.00800           0
     13862 LPSA13   12       BGLCNA   N        NC2D1   -0.470000       14.0070           0
     13863 LPSA13   12       BGLCNA   HN       HCP1     0.310000       1.00800           0
     13864 LPSA13   12       BGLCNA   C        CC2O1    0.510000       12.0110           0
     13865 LPSA13   12       BGLCNA   O        OC2D1   -0.510000       15.9994           0
     13866 LPSA13   12       BGLCNA   CT       CC331   -0.270000       12.0110           0
     13867 LPSA13   12       BGLCNA   HT1      HCA3     0.900000E-01   1.00800           0
     13868 LPSA13   12       BGLCNA   HT2      HCA3     0.900000E-01   1.00800           0
     13869 LPSA13   12       BGLCNA   HT3      HCA3     0.900000E-01   1.00800           0
     13870 LPSA13   12       BGLCNA   C3       CC3161   0.900000E-01   12.0110           0
     13871 LPSA13   12       BGLCNA   H3       HCA1     0.900000E-01   1.00800           0
     13872 LPSA13   12       BGLCNA   O3       OC301   -0.360000       15.9994           0
     13873 LPSA13   12       BGLCNA   C4       CC3161   0.140000       12.0110           0
     13874 LPSA13   12       BGLCNA   H4       HCA1     0.900000E-01   1.00800           0
     13875 LPSA13   12       BGLCNA   O4       OC311   -0.650000       15.9994           0
     13876 LPSA13   12       BGLCNA   HO4      HCP1     0.420000       1.00800           0
     13877 LPSA13   12       BGLCNA   C6       CC321    0.500000E-01   12.0110           0
     13878 LPSA13   12       BGLCNA   H61      HCA2     0.900000E-01   1.00800           0
     13879 LPSA13   12       BGLCNA   H62      HCA2     0.900000E-01   1.00800           0
     13880 LPSA13   12       BGLCNA   O6       OC311   -0.650000       15.9994           0
     13881 LPSA13   12       BGLCNA   HO6      HCP1     0.420000       1.00800           0
     13882 LPSA13   13       AGAL     C1       CC3162   0.290000       12.0110           0
     13883 LPSA13   13       AGAL     H1       HCA1     0.900000E-01   1.00800           0
     13884 LPSA13   13       AGAL     C5       CC3163   0.110000       12.0110           0
     13885 LPSA13   13       AGAL     H5       HCA1     0.900000E-01   1.00800           0
     13886 LPSA13   13       AGAL     O5       OC3C61  -0.400000       15.9994           0
     13887 LPSA13   13       AGAL     C2       CC3161   0.900000E-01   12.0110           0
     13888 LPSA13   13       AGAL     H2       HCA1     0.900000E-01   1.00800           0
     13889 LPSA13   13       AGAL     O2       OC301   -0.360000       15.9994           0
     13890 LPSA13   13       AGAL     C3       CC3161   0.140000       12.0110           0
     13891 LPSA13   13       AGAL     H3       HCA1     0.900000E-01   1.00800           0
     13892 LPSA13   13       AGAL     O3       OC311   -0.650000       15.9994           0
     13893 LPSA13   13       AGAL     HO3      HCP1     0.420000       1.00800           0
     13894 LPSA13   13       AGAL     C4       CC3161   0.140000       12.0110           0
     13895 LPSA13   13       AGAL     H4       HCA1     0.900000E-01   1.00800           0
     13896 LPSA13   13       AGAL     O4       OC311   -0.650000       15.9994           0
     13897 LPSA13   13       AGAL     HO4      HCP1     0.420000       1.00800           0
     13898 LPSA13   13       AGAL     C6       CC321    0.500000E-01   12.0110           0
     13899 LPSA13   13       AGAL     H61      HCA2     0.900000E-01   1.00800           0
     13900 LPSA13   13       AGAL     H62      HCA2     0.900000E-01   1.00800           0
     13901 LPSA13   13       AGAL     O6       OC311   -0.650000       15.9994           0
     13902 LPSA13   13       AGAL     HO6      HCP1     0.420000       1.00800           0
     13903 LPSA13   14       ARHM     C1       CC3162   0.290000       12.0110           0
     13904 LPSA13   14       ARHM     H1       HCA1     0.900000E-01   1.00800           0
     13905 LPSA13   14       ARHM     C5       CC3163   0.110000       12.0110           0
     13906 LPSA13   14       ARHM     H5       HCA1     0.900000E-01   1.00800           0
     13907 LPSA13   14       ARHM     O5       OC3C61  -0.400000       15.9994           0
     13908 LPSA13   14       ARHM     C2       CC3161   0.900000E-01   12.0110           0
     13909 LPSA13   14       ARHM     H2       HCA1     0.900000E-01   1.00800           0
     13910 LPSA13   14       ARHM     O2       OC301   -0.360000       15.9994           0
     13911 LPSA13   14       ARHM     C3       CC3161   0.140000       12.0110           0
     13912 LPSA13   14       ARHM     H3       HCA1     0.900000E-01   1.00800           0
     13913 LPSA13   14       ARHM     O3       OC311   -0.650000       15.9994           0
     13914 LPSA13   14       ARHM     HO3      HCP1     0.420000       1.00800           0
     13915 LPSA13   14       ARHM     C4       CC3161   0.140000       12.0110           0
     13916 LPSA13   14       ARHM     H4       HCA1     0.900000E-01   1.00800           0
     13917 LPSA13   14       ARHM     O4       OC311   -0.650000       15.9994           0
     13918 LPSA13   14       ARHM     HO4      HCP1     0.420000       1.00800           0
     13919 LPSA13   14       ARHM     C6       CC331   -0.270000       12.0110           0
     13920 LPSA13   14       ARHM     H61      HCA3     0.900000E-01   1.00800           0
     13921 LPSA13   14       ARHM     H62      HCA3     0.900000E-01   1.00800           0
     13922 LPSA13   14       ARHM     H63      HCA3     0.900000E-01   1.00800           0
     13923 LPSA13   15       ARHM     C1       CC3162   0.290000       12.0110           0
     13924 LPSA13   15       ARHM     H1       HCA1     0.900000E-01   1.00800           0
     13925 LPSA13   15       ARHM     C5       CC3163   0.110000       12.0110           0
     13926 LPSA13   15       ARHM     H5       HCA1     0.900000E-01   1.00800           0
     13927 LPSA13   15       ARHM     O5       OC3C61  -0.400000       15.9994           0
     13928 LPSA13   15       ARHM     C2       CC3161   0.900000E-01   12.0110           0
     13929 LPSA13   15       ARHM     H2       HCA1     0.900000E-01   1.00800           0
     13930 LPSA13   15       ARHM     O2       OC301   -0.360000       15.9994           0
     13931 LPSA13   15       ARHM     C3       CC3161   0.900000E-01   12.0110           0
     13932 LPSA13   15       ARHM     H3       HCA1     0.900000E-01   1.00800           0
     13933 LPSA13   15       ARHM     O3       OC301   -0.360000       15.9994           0
     13934 LPSA13   15       ARHM     C4       CC3161   0.140000       12.0110           0
     13935 LPSA13   15       ARHM     H4       HCA1     0.900000E-01   1.00800           0
     13936 LPSA13   15       ARHM     O4       OC311   -0.650000       15.9994           0
     13937 LPSA13   15       ARHM     HO4      HCP1     0.420000       1.00800           0
     13938 LPSA13   15       ARHM     C6       CC331   -0.270000       12.0110           0
     13939 LPSA13   15       ARHM     H61      HCA3     0.900000E-01   1.00800           0
     13940 LPSA13   15       ARHM     H62      HCA3     0.900000E-01   1.00800           0
     13941 LPSA13   15       ARHM     H63      HCA3     0.900000E-01   1.00800           0
     13942 LPSA13   16       BMANNA   C1       CC3162   0.290000       12.0110           0
     13943 LPSA13   16       BMANNA   H1       HCA1     0.900000E-01   1.00800           0
     13944 LPSA13   16       BMANNA   C5       CC3163   0.110000       12.0110           0
     13945 LPSA13   16       BMANNA   H5       HCA1     0.900000E-01   1.00800           0
     13946 LPSA13   16       BMANNA   O5       OC3C61  -0.400000       15.9994           0
     13947 LPSA13   16       BMANNA   C2       CC3161   0.700000E-01   12.0110           0
     13948 LPSA13   16       BMANNA   H2       HCA1     0.900000E-01   1.00800           0
     13949 LPSA13   16       BMANNA   N        NC2D1   -0.470000       14.0070           0
     13950 LPSA13   16       BMANNA   HN       HCP1     0.310000       1.00800           0
     13951 LPSA13   16       BMANNA   C        CC2O1    0.510000       12.0110           0
     13952 LPSA13   16       BMANNA   O        OC2D1   -0.510000       15.9994           0
     13953 LPSA13   16       BMANNA   CT       CC331   -0.270000       12.0110           0
     13954 LPSA13   16       BMANNA   HT1      HCA3     0.900000E-01   1.00800           0
     13955 LPSA13   16       BMANNA   HT2      HCA3     0.900000E-01   1.00800           0
     13956 LPSA13   16       BMANNA   HT3      HCA3     0.900000E-01   1.00800           0
     13957 LPSA13   16       BMANNA   C3       CC3161   0.140000       12.0110           0
     13958 LPSA13   16       BMANNA   H3       HCA1     0.900000E-01   1.00800           0
     13959 LPSA13   16       BMANNA   O3       OC311   -0.650000       15.9994           0
     13960 LPSA13   16       BMANNA   HO3      HCP1     0.420000       1.00800           0
     13961 LPSA13   16       BMANNA   C4       CC3161   0.140000       12.0110           0
     13962 LPSA13   16       BMANNA   H4       HCA1     0.900000E-01   1.00800           0
     13963 LPSA13   16       BMANNA   O4       OC311   -0.650000       15.9994           0
     13964 LPSA13   16       BMANNA   HO4      HCP1     0.420000       1.00800           0
     13965 LPSA13   16       BMANNA   C6       CC321    0.500000E-01   12.0110           0
     13966 LPSA13   16       BMANNA   H61      HCA2     0.900000E-01   1.00800           0
     13967 LPSA13   16       BMANNA   H62      HCA2     0.900000E-01   1.00800           0
     13968 LPSA13   16       BMANNA   O6       OC311   -0.650000       15.9994           0
     13969 LPSA13   16       BMANNA   HO6      HCP1     0.420000       1.00800           0
     13970 LPSA13   17       BGLCNA   C1       CC3162   0.290000       12.0110           0
     13971 LPSA13   17       BGLCNA   H1       HCA1     0.900000E-01   1.00800           0
     13972 LPSA13   17       BGLCNA   C5       CC3163   0.110000       12.0110           0
     13973 LPSA13   17       BGLCNA   H5       HCA1     0.900000E-01   1.00800           0
     13974 LPSA13   17       BGLCNA   O5       OC3C61  -0.400000       15.9994           0
     13975 LPSA13   17       BGLCNA   C2       CC3161   0.700000E-01   12.0110           0
     13976 LPSA13   17       BGLCNA   H2       HCA1     0.900000E-01   1.00800           0
     13977 LPSA13   17       BGLCNA   N        NC2D1   -0.470000       14.0070           0
     13978 LPSA13   17       BGLCNA   HN       HCP1     0.310000       1.00800           0
     13979 LPSA13   17       BGLCNA   C        CC2O1    0.510000       12.0110           0
     13980 LPSA13   17       BGLCNA   O        OC2D1   -0.510000       15.9994           0
     13981 LPSA13   17       BGLCNA   CT       CC331   -0.270000       12.0110           0
     13982 LPSA13   17       BGLCNA   HT1      HCA3     0.900000E-01   1.00800           0
     13983 LPSA13   17       BGLCNA   HT2      HCA3     0.900000E-01   1.00800           0
     13984 LPSA13   17       BGLCNA   HT3      HCA3     0.900000E-01   1.00800           0
     13985 LPSA13   17       BGLCNA   C3       CC3161   0.900000E-01   12.0110           0
     13986 LPSA13   17       BGLCNA   H3       HCA1     0.900000E-01   1.00800           0
     13987 LPSA13   17       BGLCNA   O3       OC301   -0.360000       15.9994           0
     13988 LPSA13   17       BGLCNA   C4       CC3161   0.140000       12.0110           0
     13989 LPSA13   17       BGLCNA   H4       HCA1     0.900000E-01   1.00800           0
     13990 LPSA13   17       BGLCNA   O4       OC311   -0.650000       15.9994           0
     13991 LPSA13   17       BGLCNA   HO4      HCP1     0.420000       1.00800           0
     13992 LPSA13   17       BGLCNA   C6       CC321    0.500000E-01   12.0110           0
     13993 LPSA13   17       BGLCNA   H61      HCA2     0.900000E-01   1.00800           0
     13994 LPSA13   17       BGLCNA   H62      HCA2     0.900000E-01   1.00800           0
     13995 LPSA13   17       BGLCNA   O6       OC311   -0.650000       15.9994           0
     13996 LPSA13   17       BGLCNA   HO6      HCP1     0.420000       1.00800           0
     13997 LPSA13   18       AGAL     C1       CC3162   0.290000       12.0110           0
     13998 LPSA13   18       AGAL     H1       HCA1     0.900000E-01   1.00800           0
     13999 LPSA13   18       AGAL     C5       CC3163   0.110000       12.0110           0
     14000 LPSA13   18       AGAL     H5       HCA1     0.900000E-01   1.00800           0
     14001 LPSA13   18       AGAL     O5       OC3C61  -0.400000       15.9994           0
     14002 LPSA13   18       AGAL     C2       CC3161   0.900000E-01   12.0110           0
     14003 LPSA13   18       AGAL     H2       HCA1     0.900000E-01   1.00800           0
     14004 LPSA13   18       AGAL     O2       OC301   -0.360000       15.9994           0
     14005 LPSA13   18       AGAL     C3       CC3161   0.140000       12.0110           0
     14006 LPSA13   18       AGAL     H3       HCA1     0.900000E-01   1.00800           0
     14007 LPSA13   18       AGAL     O3       OC311   -0.650000       15.9994           0
     14008 LPSA13   18       AGAL     HO3      HCP1     0.420000       1.00800           0
     14009 LPSA13   18       AGAL     C4       CC3161   0.140000       12.0110           0
     14010 LPSA13   18       AGAL     H4       HCA1     0.900000E-01   1.00800           0
     14011 LPSA13   18       AGAL     O4       OC311   -0.650000       15.9994           0
     14012 LPSA13   18       AGAL     HO4      HCP1     0.420000       1.00800           0
     14013 LPSA13   18       AGAL     C6       CC321    0.500000E-01   12.0110           0
     14014 LPSA13   18       AGAL     H61      HCA2     0.900000E-01   1.00800           0
     14015 LPSA13   18       AGAL     H62      HCA2     0.900000E-01   1.00800           0
     14016 LPSA13   18       AGAL     O6       OC311   -0.650000       15.9994           0
     14017 LPSA13   18       AGAL     HO6      HCP1     0.420000       1.00800           0
     14018 LPSA13   19       ARHM     C1       CC3162   0.290000       12.0110           0
     14019 LPSA13   19       ARHM     H1       HCA1     0.900000E-01   1.00800           0
     14020 LPSA13   19       ARHM     C5       CC3163   0.110000       12.0110           0
     14021 LPSA13   19       ARHM     H5       HCA1     0.900000E-01   1.00800           0
     14022 LPSA13   19       ARHM     O5       OC3C61  -0.400000       15.9994           0
     14023 LPSA13   19       ARHM     C2       CC3161   0.900000E-01   12.0110           0
     14024 LPSA13   19       ARHM     H2       HCA1     0.900000E-01   1.00800           0
     14025 LPSA13   19       ARHM     O2       OC301   -0.360000       15.9994           0
     14026 LPSA13   19       ARHM     C3       CC3161   0.140000       12.0110           0
     14027 LPSA13   19       ARHM     H3       HCA1     0.900000E-01   1.00800           0
     14028 LPSA13   19       ARHM     O3       OC311   -0.650000       15.9994           0
     14029 LPSA13   19       ARHM     HO3      HCP1     0.420000       1.00800           0
     14030 LPSA13   19       ARHM     C4       CC3161   0.140000       12.0110           0
     14031 LPSA13   19       ARHM     H4       HCA1     0.900000E-01   1.00800           0
     14032 LPSA13   19       ARHM     O4       OC311   -0.650000       15.9994           0
     14033 LPSA13   19       ARHM     HO4      HCP1     0.420000       1.00800           0
     14034 LPSA13   19       ARHM     C6       CC331   -0.270000       12.0110           0
     14035 LPSA13   19       ARHM     H61      HCA3     0.900000E-01   1.00800           0
     14036 LPSA13   19       ARHM     H62      HCA3     0.900000E-01   1.00800           0
     14037 LPSA13   19       ARHM     H63      HCA3     0.900000E-01   1.00800           0
     14038 LPSA13   20       ARHM     C1       CC3162   0.290000       12.0110           0
     14039 LPSA13   20       ARHM     H1       HCA1     0.900000E-01   1.00800           0
     14040 LPSA13   20       ARHM     C5       CC3163   0.110000       12.0110           0
     14041 LPSA13   20       ARHM     H5       HCA1     0.900000E-01   1.00800           0
     14042 LPSA13   20       ARHM     O5       OC3C61  -0.400000       15.9994           0
     14043 LPSA13   20       ARHM     C2       CC3161   0.900000E-01   12.0110           0
     14044 LPSA13   20       ARHM     H2       HCA1     0.900000E-01   1.00800           0
     14045 LPSA13   20       ARHM     O2       OC301   -0.360000       15.9994           0
     14046 LPSA13   20       ARHM     C3       CC3161   0.900000E-01   12.0110           0
     14047 LPSA13   20       ARHM     H3       HCA1     0.900000E-01   1.00800           0
     14048 LPSA13   20       ARHM     O3       OC301   -0.360000       15.9994           0
     14049 LPSA13   20       ARHM     C4       CC3161   0.140000       12.0110           0
     14050 LPSA13   20       ARHM     H4       HCA1     0.900000E-01   1.00800           0
     14051 LPSA13   20       ARHM     O4       OC311   -0.650000       15.9994           0
     14052 LPSA13   20       ARHM     HO4      HCP1     0.420000       1.00800           0
     14053 LPSA13   20       ARHM     C6       CC331   -0.270000       12.0110           0
     14054 LPSA13   20       ARHM     H61      HCA3     0.900000E-01   1.00800           0
     14055 LPSA13   20       ARHM     H62      HCA3     0.900000E-01   1.00800           0
     14056 LPSA13   20       ARHM     H63      HCA3     0.900000E-01   1.00800           0
     14057 LPSA13   21       BMANNA   C1       CC3162   0.290000       12.0110           0
     14058 LPSA13   21       BMANNA   H1       HCA1     0.900000E-01   1.00800           0
     14059 LPSA13   21       BMANNA   C5       CC3163   0.110000       12.0110           0
     14060 LPSA13   21       BMANNA   H5       HCA1     0.900000E-01   1.00800           0
     14061 LPSA13   21       BMANNA   O5       OC3C61  -0.400000       15.9994           0
     14062 LPSA13   21       BMANNA   C2       CC3161   0.700000E-01   12.0110           0
     14063 LPSA13   21       BMANNA   H2       HCA1     0.900000E-01   1.00800           0
     14064 LPSA13   21       BMANNA   N        NC2D1   -0.470000       14.0070           0
     14065 LPSA13   21       BMANNA   HN       HCP1     0.310000       1.00800           0
     14066 LPSA13   21       BMANNA   C        CC2O1    0.510000       12.0110           0
     14067 LPSA13   21       BMANNA   O        OC2D1   -0.510000       15.9994           0
     14068 LPSA13   21       BMANNA   CT       CC331   -0.270000       12.0110           0
     14069 LPSA13   21       BMANNA   HT1      HCA3     0.900000E-01   1.00800           0
     14070 LPSA13   21       BMANNA   HT2      HCA3     0.900000E-01   1.00800           0
     14071 LPSA13   21       BMANNA   HT3      HCA3     0.900000E-01   1.00800           0
     14072 LPSA13   21       BMANNA   C3       CC3161   0.140000       12.0110           0
     14073 LPSA13   21       BMANNA   H3       HCA1     0.900000E-01   1.00800           0
     14074 LPSA13   21       BMANNA   O3       OC311   -0.650000       15.9994           0
     14075 LPSA13   21       BMANNA   HO3      HCP1     0.420000       1.00800           0
     14076 LPSA13   21       BMANNA   C4       CC3161   0.140000       12.0110           0
     14077 LPSA13   21       BMANNA   H4       HCA1     0.900000E-01   1.00800           0
     14078 LPSA13   21       BMANNA   O4       OC311   -0.650000       15.9994           0
     14079 LPSA13   21       BMANNA   HO4      HCP1     0.420000       1.00800           0
     14080 LPSA13   21       BMANNA   C6       CC321    0.500000E-01   12.0110           0
     14081 LPSA13   21       BMANNA   H61      HCA2     0.900000E-01   1.00800           0
     14082 LPSA13   21       BMANNA   H62      HCA2     0.900000E-01   1.00800           0
     14083 LPSA13   21       BMANNA   O6       OC311   -0.650000       15.9994           0
     14084 LPSA13   21       BMANNA   HO6      HCP1     0.420000       1.00800           0
     14085 LPSA13   22       BGLCNA   C1       CC3162   0.290000       12.0110           0
     14086 LPSA13   22       BGLCNA   H1       HCA1     0.900000E-01   1.00800           0
     14087 LPSA13   22       BGLCNA   C5       CC3163   0.110000       12.0110           0
     14088 LPSA13   22       BGLCNA   H5       HCA1     0.900000E-01   1.00800           0
     14089 LPSA13   22       BGLCNA   O5       OC3C61  -0.400000       15.9994           0
     14090 LPSA13   22       BGLCNA   C2       CC3161   0.700000E-01   12.0110           0
     14091 LPSA13   22       BGLCNA   H2       HCA1     0.900000E-01   1.00800           0
     14092 LPSA13   22       BGLCNA   N        NC2D1   -0.470000       14.0070           0
     14093 LPSA13   22       BGLCNA   HN       HCP1     0.310000       1.00800           0
     14094 LPSA13   22       BGLCNA   C        CC2O1    0.510000       12.0110           0
     14095 LPSA13   22       BGLCNA   O        OC2D1   -0.510000       15.9994           0
     14096 LPSA13   22       BGLCNA   CT       CC331   -0.270000       12.0110           0
     14097 LPSA13   22       BGLCNA   HT1      HCA3     0.900000E-01   1.00800           0
     14098 LPSA13   22       BGLCNA   HT2      HCA3     0.900000E-01   1.00800           0
     14099 LPSA13   22       BGLCNA   HT3      HCA3     0.900000E-01   1.00800           0
     14100 LPSA13   22       BGLCNA   C3       CC3161   0.900000E-01   12.0110           0
     14101 LPSA13   22       BGLCNA   H3       HCA1     0.900000E-01   1.00800           0
     14102 LPSA13   22       BGLCNA   O3       OC301   -0.360000       15.9994           0
     14103 LPSA13   22       BGLCNA   C4       CC3161   0.140000       12.0110           0
     14104 LPSA13   22       BGLCNA   H4       HCA1     0.900000E-01   1.00800           0
     14105 LPSA13   22       BGLCNA   O4       OC311   -0.650000       15.9994           0
     14106 LPSA13   22       BGLCNA   HO4      HCP1     0.420000       1.00800           0
     14107 LPSA13   22       BGLCNA   C6       CC321    0.500000E-01   12.0110           0
     14108 LPSA13   22       BGLCNA   H61      HCA2     0.900000E-01   1.00800           0
     14109 LPSA13   22       BGLCNA   H62      HCA2     0.900000E-01   1.00800           0
     14110 LPSA13   22       BGLCNA   O6       OC311   -0.650000       15.9994           0
     14111 LPSA13   22       BGLCNA   HO6      HCP1     0.420000       1.00800           0
     14112 LPSA13   23       AGAL     C1       CC3162   0.290000       12.0110           0
     14113 LPSA13   23       AGAL     H1       HCA1     0.900000E-01   1.00800           0
     14114 LPSA13   23       AGAL     C5       CC3163   0.110000       12.0110           0
     14115 LPSA13   23       AGAL     H5       HCA1     0.900000E-01   1.00800           0
     14116 LPSA13   23       AGAL     O5       OC3C61  -0.400000       15.9994           0
     14117 LPSA13   23       AGAL     C2       CC3161   0.900000E-01   12.0110           0
     14118 LPSA13   23       AGAL     H2       HCA1     0.900000E-01   1.00800           0
     14119 LPSA13   23       AGAL     O2       OC301   -0.360000       15.9994           0
     14120 LPSA13   23       AGAL     C3       CC3161   0.140000       12.0110           0
     14121 LPSA13   23       AGAL     H3       HCA1     0.900000E-01   1.00800           0
     14122 LPSA13   23       AGAL     O3       OC311   -0.650000       15.9994           0
     14123 LPSA13   23       AGAL     HO3      HCP1     0.420000       1.00800           0
     14124 LPSA13   23       AGAL     C4       CC3161   0.140000       12.0110           0
     14125 LPSA13   23       AGAL     H4       HCA1     0.900000E-01   1.00800           0
     14126 LPSA13   23       AGAL     O4       OC311   -0.650000       15.9994           0
     14127 LPSA13   23       AGAL     HO4      HCP1     0.420000       1.00800           0
     14128 LPSA13   23       AGAL     C6       CC321    0.500000E-01   12.0110           0
     14129 LPSA13   23       AGAL     H61      HCA2     0.900000E-01   1.00800           0
     14130 LPSA13   23       AGAL     H62      HCA2     0.900000E-01   1.00800           0
     14131 LPSA13   23       AGAL     O6       OC311   -0.650000       15.9994           0
     14132 LPSA13   23       AGAL     HO6      HCP1     0.420000       1.00800           0
     14133 LPSA13   24       ARHM     C1       CC3162   0.290000       12.0110           0
     14134 LPSA13   24       ARHM     H1       HCA1     0.900000E-01   1.00800           0
     14135 LPSA13   24       ARHM     C5       CC3163   0.110000       12.0110           0
     14136 LPSA13   24       ARHM     H5       HCA1     0.900000E-01   1.00800           0
     14137 LPSA13   24       ARHM     O5       OC3C61  -0.400000       15.9994           0
     14138 LPSA13   24       ARHM     C2       CC3161   0.900000E-01   12.0110           0
     14139 LPSA13   24       ARHM     H2       HCA1     0.900000E-01   1.00800           0
     14140 LPSA13   24       ARHM     O2       OC301   -0.360000       15.9994           0
     14141 LPSA13   24       ARHM     C3       CC3161   0.140000       12.0110           0
     14142 LPSA13   24       ARHM     H3       HCA1     0.900000E-01   1.00800           0
     14143 LPSA13   24       ARHM     O3       OC311   -0.650000       15.9994           0
     14144 LPSA13   24       ARHM     HO3      HCP1     0.420000       1.00800           0
     14145 LPSA13   24       ARHM     C4       CC3161   0.140000       12.0110           0
     14146 LPSA13   24       ARHM     H4       HCA1     0.900000E-01   1.00800           0
     14147 LPSA13   24       ARHM     O4       OC311   -0.650000       15.9994           0
     14148 LPSA13   24       ARHM     HO4      HCP1     0.420000       1.00800           0
     14149 LPSA13   24       ARHM     C6       CC331   -0.270000       12.0110           0
     14150 LPSA13   24       ARHM     H61      HCA3     0.900000E-01   1.00800           0
     14151 LPSA13   24       ARHM     H62      HCA3     0.900000E-01   1.00800           0
     14152 LPSA13   24       ARHM     H63      HCA3     0.900000E-01   1.00800           0
     14153 LPSA13   25       ARHM     C1       CC3162   0.290000       12.0110           0
     14154 LPSA13   25       ARHM     H1       HCA1     0.900000E-01   1.00800           0
     14155 LPSA13   25       ARHM     C5       CC3163   0.110000       12.0110           0
     14156 LPSA13   25       ARHM     H5       HCA1     0.900000E-01   1.00800           0
     14157 LPSA13   25       ARHM     O5       OC3C61  -0.400000       15.9994           0
     14158 LPSA13   25       ARHM     C2       CC3161   0.900000E-01   12.0110           0
     14159 LPSA13   25       ARHM     H2       HCA1     0.900000E-01   1.00800           0
     14160 LPSA13   25       ARHM     O2       OC301   -0.360000       15.9994           0
     14161 LPSA13   25       ARHM     C3       CC3161   0.900000E-01   12.0110           0
     14162 LPSA13   25       ARHM     H3       HCA1     0.900000E-01   1.00800           0
     14163 LPSA13   25       ARHM     O3       OC301   -0.360000       15.9994           0
     14164 LPSA13   25       ARHM     C4       CC3161   0.140000       12.0110           0
     14165 LPSA13   25       ARHM     H4       HCA1     0.900000E-01   1.00800           0
     14166 LPSA13   25       ARHM     O4       OC311   -0.650000       15.9994           0
     14167 LPSA13   25       ARHM     HO4      HCP1     0.420000       1.00800           0
     14168 LPSA13   25       ARHM     C6       CC331   -0.270000       12.0110           0
     14169 LPSA13   25       ARHM     H61      HCA3     0.900000E-01   1.00800           0
     14170 LPSA13   25       ARHM     H62      HCA3     0.900000E-01   1.00800           0
     14171 LPSA13   25       ARHM     H63      HCA3     0.900000E-01   1.00800           0
     14172 LPSA13   26       BMANNA   C1       CC3162   0.290000       12.0110           0
     14173 LPSA13   26       BMANNA   H1       HCA1     0.900000E-01   1.00800           0
     14174 LPSA13   26       BMANNA   C5       CC3163   0.110000       12.0110           0
     14175 LPSA13   26       BMANNA   H5       HCA1     0.900000E-01   1.00800           0
     14176 LPSA13   26       BMANNA   O5       OC3C61  -0.400000       15.9994           0
     14177 LPSA13   26       BMANNA   C2       CC3161   0.700000E-01   12.0110           0
     14178 LPSA13   26       BMANNA   H2       HCA1     0.900000E-01   1.00800           0
     14179 LPSA13   26       BMANNA   N        NC2D1   -0.470000       14.0070           0
     14180 LPSA13   26       BMANNA   HN       HCP1     0.310000       1.00800           0
     14181 LPSA13   26       BMANNA   C        CC2O1    0.510000       12.0110           0
     14182 LPSA13   26       BMANNA   O        OC2D1   -0.510000       15.9994           0
     14183 LPSA13   26       BMANNA   CT       CC331   -0.270000       12.0110           0
     14184 LPSA13   26       BMANNA   HT1      HCA3     0.900000E-01   1.00800           0
     14185 LPSA13   26       BMANNA   HT2      HCA3     0.900000E-01   1.00800           0
     14186 LPSA13   26       BMANNA   HT3      HCA3     0.900000E-01   1.00800           0
     14187 LPSA13   26       BMANNA   C3       CC3161   0.140000       12.0110           0
     14188 LPSA13   26       BMANNA   H3       HCA1     0.900000E-01   1.00800           0
     14189 LPSA13   26       BMANNA   O3       OC311   -0.650000       15.9994           0
     14190 LPSA13   26       BMANNA   HO3      HCP1     0.420000       1.00800           0
     14191 LPSA13   26       BMANNA   C4       CC3161   0.140000       12.0110           0
     14192 LPSA13   26       BMANNA   H4       HCA1     0.900000E-01   1.00800           0
     14193 LPSA13   26       BMANNA   O4       OC311   -0.650000       15.9994           0
     14194 LPSA13   26       BMANNA   HO4      HCP1     0.420000       1.00800           0
     14195 LPSA13   26       BMANNA   C6       CC321    0.500000E-01   12.0110           0
     14196 LPSA13   26       BMANNA   H61      HCA2     0.900000E-01   1.00800           0
     14197 LPSA13   26       BMANNA   H62      HCA2     0.900000E-01   1.00800           0
     14198 LPSA13   26       BMANNA   O6       OC311   -0.650000       15.9994           0
     14199 LPSA13   26       BMANNA   HO6      HCP1     0.420000       1.00800           0
     14200 LPSA13   27       BGLCNA   C1       CC3162   0.290000       12.0110           0
     14201 LPSA13   27       BGLCNA   H1       HCA1     0.900000E-01   1.00800           0
     14202 LPSA13   27       BGLCNA   C5       CC3163   0.110000       12.0110           0
     14203 LPSA13   27       BGLCNA   H5       HCA1     0.900000E-01   1.00800           0
     14204 LPSA13   27       BGLCNA   O5       OC3C61  -0.400000       15.9994           0
     14205 LPSA13   27       BGLCNA   C2       CC3161   0.700000E-01   12.0110           0
     14206 LPSA13   27       BGLCNA   H2       HCA1     0.900000E-01   1.00800           0
     14207 LPSA13   27       BGLCNA   N        NC2D1   -0.470000       14.0070           0
     14208 LPSA13   27       BGLCNA   HN       HCP1     0.310000       1.00800           0
     14209 LPSA13   27       BGLCNA   C        CC2O1    0.510000       12.0110           0
     14210 LPSA13   27       BGLCNA   O        OC2D1   -0.510000       15.9994           0
     14211 LPSA13   27       BGLCNA   CT       CC331   -0.270000       12.0110           0
     14212 LPSA13   27       BGLCNA   HT1      HCA3     0.900000E-01   1.00800           0
     14213 LPSA13   27       BGLCNA   HT2      HCA3     0.900000E-01   1.00800           0
     14214 LPSA13   27       BGLCNA   HT3      HCA3     0.900000E-01   1.00800           0
     14215 LPSA13   27       BGLCNA   C3       CC3161   0.900000E-01   12.0110           0
     14216 LPSA13   27       BGLCNA   H3       HCA1     0.900000E-01   1.00800           0
     14217 LPSA13   27       BGLCNA   O3       OC301   -0.360000       15.9994           0
     14218 LPSA13   27       BGLCNA   C4       CC3161   0.140000       12.0110           0
     14219 LPSA13   27       BGLCNA   H4       HCA1     0.900000E-01   1.00800           0
     14220 LPSA13   27       BGLCNA   O4       OC311   -0.650000       15.9994           0
     14221 LPSA13   27       BGLCNA   HO4      HCP1     0.420000       1.00800           0
     14222 LPSA13   27       BGLCNA   C6       CC321    0.500000E-01   12.0110           0
     14223 LPSA13   27       BGLCNA   H61      HCA2     0.900000E-01   1.00800           0
     14224 LPSA13   27       BGLCNA   H62      HCA2     0.900000E-01   1.00800           0
     14225 LPSA13   27       BGLCNA   O6       OC311   -0.650000       15.9994           0
     14226 LPSA13   27       BGLCNA   HO6      HCP1     0.420000       1.00800           0
     14227 LPSA13   28       AGAL     C1       CC3162   0.290000       12.0110           0
     14228 LPSA13   28       AGAL     H1       HCA1     0.900000E-01   1.00800           0
     14229 LPSA13   28       AGAL     C5       CC3163   0.110000       12.0110           0
     14230 LPSA13   28       AGAL     H5       HCA1     0.900000E-01   1.00800           0
     14231 LPSA13   28       AGAL     O5       OC3C61  -0.400000       15.9994           0
     14232 LPSA13   28       AGAL     C2       CC3161   0.900000E-01   12.0110           0
     14233 LPSA13   28       AGAL     H2       HCA1     0.900000E-01   1.00800           0
     14234 LPSA13   28       AGAL     O2       OC301   -0.360000       15.9994           0
     14235 LPSA13   28       AGAL     C3       CC3161   0.140000       12.0110           0
     14236 LPSA13   28       AGAL     H3       HCA1     0.900000E-01   1.00800           0
     14237 LPSA13   28       AGAL     O3       OC311   -0.650000       15.9994           0
     14238 LPSA13   28       AGAL     HO3      HCP1     0.420000       1.00800           0
     14239 LPSA13   28       AGAL     C4       CC3161   0.140000       12.0110           0
     14240 LPSA13   28       AGAL     H4       HCA1     0.900000E-01   1.00800           0
     14241 LPSA13   28       AGAL     O4       OC311   -0.650000       15.9994           0
     14242 LPSA13   28       AGAL     HO4      HCP1     0.420000       1.00800           0
     14243 LPSA13   28       AGAL     C6       CC321    0.500000E-01   12.0110           0
     14244 LPSA13   28       AGAL     H61      HCA2     0.900000E-01   1.00800           0
     14245 LPSA13   28       AGAL     H62      HCA2     0.900000E-01   1.00800           0
     14246 LPSA13   28       AGAL     O6       OC311   -0.650000       15.9994           0
     14247 LPSA13   28       AGAL     HO6      HCP1     0.420000       1.00800           0
     14248 LPSA13   29       ARHM     C1       CC3162   0.290000       12.0110           0
     14249 LPSA13   29       ARHM     H1       HCA1     0.900000E-01   1.00800           0
     14250 LPSA13   29       ARHM     C5       CC3163   0.110000       12.0110           0
     14251 LPSA13   29       ARHM     H5       HCA1     0.900000E-01   1.00800           0
     14252 LPSA13   29       ARHM     O5       OC3C61  -0.400000       15.9994           0
     14253 LPSA13   29       ARHM     C2       CC3161   0.900000E-01   12.0110           0
     14254 LPSA13   29       ARHM     H2       HCA1     0.900000E-01   1.00800           0
     14255 LPSA13   29       ARHM     O2       OC301   -0.360000       15.9994           0
     14256 LPSA13   29       ARHM     C3       CC3161   0.140000       12.0110           0
     14257 LPSA13   29       ARHM     H3       HCA1     0.900000E-01   1.00800           0
     14258 LPSA13   29       ARHM     O3       OC311   -0.650000       15.9994           0
     14259 LPSA13   29       ARHM     HO3      HCP1     0.420000       1.00800           0
     14260 LPSA13   29       ARHM     C4       CC3161   0.140000       12.0110           0
     14261 LPSA13   29       ARHM     H4       HCA1     0.900000E-01   1.00800           0
     14262 LPSA13   29       ARHM     O4       OC311   -0.650000       15.9994           0
     14263 LPSA13   29       ARHM     HO4      HCP1     0.420000       1.00800           0
     14264 LPSA13   29       ARHM     C6       CC331   -0.270000       12.0110           0
     14265 LPSA13   29       ARHM     H61      HCA3     0.900000E-01   1.00800           0
     14266 LPSA13   29       ARHM     H62      HCA3     0.900000E-01   1.00800           0
     14267 LPSA13   29       ARHM     H63      HCA3     0.900000E-01   1.00800           0
     14268 LPSA13   30       ARHM     C1       CC3162   0.290000       12.0110           0
     14269 LPSA13   30       ARHM     H1       HCA1     0.900000E-01   1.00800           0
     14270 LPSA13   30       ARHM     C5       CC3163   0.110000       12.0110           0
     14271 LPSA13   30       ARHM     H5       HCA1     0.900000E-01   1.00800           0
     14272 LPSA13   30       ARHM     O5       OC3C61  -0.400000       15.9994           0
     14273 LPSA13   30       ARHM     C2       CC3161   0.900000E-01   12.0110           0
     14274 LPSA13   30       ARHM     H2       HCA1     0.900000E-01   1.00800           0
     14275 LPSA13   30       ARHM     O2       OC301   -0.360000       15.9994           0
     14276 LPSA13   30       ARHM     C3       CC3161   0.900000E-01   12.0110           0
     14277 LPSA13   30       ARHM     H3       HCA1     0.900000E-01   1.00800           0
     14278 LPSA13   30       ARHM     O3       OC301   -0.360000       15.9994           0
     14279 LPSA13   30       ARHM     C4       CC3161   0.140000       12.0110           0
     14280 LPSA13   30       ARHM     H4       HCA1     0.900000E-01   1.00800           0
     14281 LPSA13   30       ARHM     O4       OC311   -0.650000       15.9994           0
     14282 LPSA13   30       ARHM     HO4      HCP1     0.420000       1.00800           0
     14283 LPSA13   30       ARHM     C6       CC331   -0.270000       12.0110           0
     14284 LPSA13   30       ARHM     H61      HCA3     0.900000E-01   1.00800           0
     14285 LPSA13   30       ARHM     H62      HCA3     0.900000E-01   1.00800           0
     14286 LPSA13   30       ARHM     H63      HCA3     0.900000E-01   1.00800           0
     14287 LPSA13   31       BMANNA   C1       CC3162   0.290000       12.0110           0
     14288 LPSA13   31       BMANNA   H1       HCA1     0.900000E-01   1.00800           0
     14289 LPSA13   31       BMANNA   C5       CC3163   0.110000       12.0110           0
     14290 LPSA13   31       BMANNA   H5       HCA1     0.900000E-01   1.00800           0
     14291 LPSA13   31       BMANNA   O5       OC3C61  -0.400000       15.9994           0
     14292 LPSA13   31       BMANNA   C2       CC3161   0.700000E-01   12.0110           0
     14293 LPSA13   31       BMANNA   H2       HCA1     0.900000E-01   1.00800           0
     14294 LPSA13   31       BMANNA   N        NC2D1   -0.470000       14.0070           0
     14295 LPSA13   31       BMANNA   HN       HCP1     0.310000       1.00800           0
     14296 LPSA13   31       BMANNA   C        CC2O1    0.510000       12.0110           0
     14297 LPSA13   31       BMANNA   O        OC2D1   -0.510000       15.9994           0
     14298 LPSA13   31       BMANNA   CT       CC331   -0.270000       12.0110           0
     14299 LPSA13   31       BMANNA   HT1      HCA3     0.900000E-01   1.00800           0
     14300 LPSA13   31       BMANNA   HT2      HCA3     0.900000E-01   1.00800           0
     14301 LPSA13   31       BMANNA   HT3      HCA3     0.900000E-01   1.00800           0
     14302 LPSA13   31       BMANNA   C3       CC3161   0.140000       12.0110           0
     14303 LPSA13   31       BMANNA   H3       HCA1     0.900000E-01   1.00800           0
     14304 LPSA13   31       BMANNA   O3       OC311   -0.650000       15.9994           0
     14305 LPSA13   31       BMANNA   HO3      HCP1     0.420000       1.00800           0
     14306 LPSA13   31       BMANNA   C4       CC3161   0.140000       12.0110           0
     14307 LPSA13   31       BMANNA   H4       HCA1     0.900000E-01   1.00800           0
     14308 LPSA13   31       BMANNA   O4       OC311   -0.650000       15.9994           0
     14309 LPSA13   31       BMANNA   HO4      HCP1     0.420000       1.00800           0
     14310 LPSA13   31       BMANNA   C6       CC321    0.500000E-01   12.0110           0
     14311 LPSA13   31       BMANNA   H61      HCA2     0.900000E-01   1.00800           0
     14312 LPSA13   31       BMANNA   H62      HCA2     0.900000E-01   1.00800           0
     14313 LPSA13   31       BMANNA   O6       OC311   -0.650000       15.9994           0
     14314 LPSA13   31       BMANNA   HO6      HCP1     0.420000       1.00800           0
     14315 LPSA13   32       BGLCNA   C1       CC3162   0.290000       12.0110           0
     14316 LPSA13   32       BGLCNA   H1       HCA1     0.900000E-01   1.00800           0
     14317 LPSA13   32       BGLCNA   C5       CC3163   0.110000       12.0110           0
     14318 LPSA13   32       BGLCNA   H5       HCA1     0.900000E-01   1.00800           0
     14319 LPSA13   32       BGLCNA   O5       OC3C61  -0.400000       15.9994           0
     14320 LPSA13   32       BGLCNA   C2       CC3161   0.700000E-01   12.0110           0
     14321 LPSA13   32       BGLCNA   H2       HCA1     0.900000E-01   1.00800           0
     14322 LPSA13   32       BGLCNA   N        NC2D1   -0.470000       14.0070           0
     14323 LPSA13   32       BGLCNA   HN       HCP1     0.310000       1.00800           0
     14324 LPSA13   32       BGLCNA   C        CC2O1    0.510000       12.0110           0
     14325 LPSA13   32       BGLCNA   O        OC2D1   -0.510000       15.9994           0
     14326 LPSA13   32       BGLCNA   CT       CC331   -0.270000       12.0110           0
     14327 LPSA13   32       BGLCNA   HT1      HCA3     0.900000E-01   1.00800           0
     14328 LPSA13   32       BGLCNA   HT2      HCA3     0.900000E-01   1.00800           0
     14329 LPSA13   32       BGLCNA   HT3      HCA3     0.900000E-01   1.00800           0
     14330 LPSA13   32       BGLCNA   C3       CC3161   0.900000E-01   12.0110           0
     14331 LPSA13   32       BGLCNA   H3       HCA1     0.900000E-01   1.00800           0
     14332 LPSA13   32       BGLCNA   O3       OC301   -0.360000       15.9994           0
     14333 LPSA13   32       BGLCNA   C4       CC3161   0.140000       12.0110           0
     14334 LPSA13   32       BGLCNA   H4       HCA1     0.900000E-01   1.00800           0
     14335 LPSA13   32       BGLCNA   O4       OC311   -0.650000       15.9994           0
     14336 LPSA13   32       BGLCNA   HO4      HCP1     0.420000       1.00800           0
     14337 LPSA13   32       BGLCNA   C6       CC321    0.500000E-01   12.0110           0
     14338 LPSA13   32       BGLCNA   H61      HCA2     0.900000E-01   1.00800           0
     14339 LPSA13   32       BGLCNA   H62      HCA2     0.900000E-01   1.00800           0
     14340 LPSA13   32       BGLCNA   O6       OC311   -0.650000       15.9994           0
     14341 LPSA13   32       BGLCNA   HO6      HCP1     0.420000       1.00800           0
     14342 LPSA13   33       AGAL     C1       CC3162   0.290000       12.0110           0
     14343 LPSA13   33       AGAL     H1       HCA1     0.900000E-01   1.00800           0
     14344 LPSA13   33       AGAL     C5       CC3163   0.110000       12.0110           0
     14345 LPSA13   33       AGAL     H5       HCA1     0.900000E-01   1.00800           0
     14346 LPSA13   33       AGAL     O5       OC3C61  -0.400000       15.9994           0
     14347 LPSA13   33       AGAL     C2       CC3161   0.900000E-01   12.0110           0
     14348 LPSA13   33       AGAL     H2       HCA1     0.900000E-01   1.00800           0
     14349 LPSA13   33       AGAL     O2       OC301   -0.360000       15.9994           0
     14350 LPSA13   33       AGAL     C3       CC3161   0.140000       12.0110           0
     14351 LPSA13   33       AGAL     H3       HCA1     0.900000E-01   1.00800           0
     14352 LPSA13   33       AGAL     O3       OC311   -0.650000       15.9994           0
     14353 LPSA13   33       AGAL     HO3      HCP1     0.420000       1.00800           0
     14354 LPSA13   33       AGAL     C4       CC3161   0.140000       12.0110           0
     14355 LPSA13   33       AGAL     H4       HCA1     0.900000E-01   1.00800           0
     14356 LPSA13   33       AGAL     O4       OC311   -0.650000       15.9994           0
     14357 LPSA13   33       AGAL     HO4      HCP1     0.420000       1.00800           0
     14358 LPSA13   33       AGAL     C6       CC321    0.500000E-01   12.0110           0
     14359 LPSA13   33       AGAL     H61      HCA2     0.900000E-01   1.00800           0
     14360 LPSA13   33       AGAL     H62      HCA2     0.900000E-01   1.00800           0
     14361 LPSA13   33       AGAL     O6       OC311   -0.650000       15.9994           0
     14362 LPSA13   33       AGAL     HO6      HCP1     0.420000       1.00800           0
     14363 LPSA13   34       ARHM     C1       CC3162   0.290000       12.0110           0
     14364 LPSA13   34       ARHM     H1       HCA1     0.900000E-01   1.00800           0
     14365 LPSA13   34       ARHM     C5       CC3163   0.110000       12.0110           0
     14366 LPSA13   34       ARHM     H5       HCA1     0.900000E-01   1.00800           0
     14367 LPSA13   34       ARHM     O5       OC3C61  -0.400000       15.9994           0
     14368 LPSA13   34       ARHM     C2       CC3161   0.900000E-01   12.0110           0
     14369 LPSA13   34       ARHM     H2       HCA1     0.900000E-01   1.00800           0
     14370 LPSA13   34       ARHM     O2       OC301   -0.360000       15.9994           0
     14371 LPSA13   34       ARHM     C3       CC3161   0.140000       12.0110           0
     14372 LPSA13   34       ARHM     H3       HCA1     0.900000E-01   1.00800           0
     14373 LPSA13   34       ARHM     O3       OC311   -0.650000       15.9994           0
     14374 LPSA13   34       ARHM     HO3      HCP1     0.420000       1.00800           0
     14375 LPSA13   34       ARHM     C4       CC3161   0.140000       12.0110           0
     14376 LPSA13   34       ARHM     H4       HCA1     0.900000E-01   1.00800           0
     14377 LPSA13   34       ARHM     O4       OC311   -0.650000       15.9994           0
     14378 LPSA13   34       ARHM     HO4      HCP1     0.420000       1.00800           0
     14379 LPSA13   34       ARHM     C6       CC331   -0.270000       12.0110           0
     14380 LPSA13   34       ARHM     H61      HCA3     0.900000E-01   1.00800           0
     14381 LPSA13   34       ARHM     H62      HCA3     0.900000E-01   1.00800           0
     14382 LPSA13   34       ARHM     H63      HCA3     0.900000E-01   1.00800           0
     14383 LPSA13   35       ARHM     C1       CC3162   0.290000       12.0110           0
     14384 LPSA13   35       ARHM     H1       HCA1     0.900000E-01   1.00800           0
     14385 LPSA13   35       ARHM     C5       CC3163   0.110000       12.0110           0
     14386 LPSA13   35       ARHM     H5       HCA1     0.900000E-01   1.00800           0
     14387 LPSA13   35       ARHM     O5       OC3C61  -0.400000       15.9994           0
     14388 LPSA13   35       ARHM     C2       CC3161   0.900000E-01   12.0110           0
     14389 LPSA13   35       ARHM     H2       HCA1     0.900000E-01   1.00800           0
     14390 LPSA13   35       ARHM     O2       OC301   -0.360000       15.9994           0
     14391 LPSA13   35       ARHM     C3       CC3161   0.140000       12.0110           0
     14392 LPSA13   35       ARHM     H3       HCA1     0.900000E-01   1.00800           0
     14393 LPSA13   35       ARHM     O3       OC311   -0.650000       15.9994           0
     14394 LPSA13   35       ARHM     HO3      HCP1     0.420000       1.00800           0
     14395 LPSA13   35       ARHM     C4       CC3161   0.140000       12.0110           0
     14396 LPSA13   35       ARHM     H4       HCA1     0.900000E-01   1.00800           0
     14397 LPSA13   35       ARHM     O4       OC311   -0.650000       15.9994           0
     14398 LPSA13   35       ARHM     HO4      HCP1     0.420000       1.00800           0
     14399 LPSA13   35       ARHM     C6       CC331   -0.270000       12.0110           0
     14400 LPSA13   35       ARHM     H61      HCA3     0.900000E-01   1.00800           0
     14401 LPSA13   35       ARHM     H62      HCA3     0.900000E-01   1.00800           0
     14402 LPSA13   35       ARHM     H63      HCA3     0.900000E-01   1.00800           0
     14403 LPSA13   36       BMANNA   C1       CC3162   0.290000       12.0110           0
     14404 LPSA13   36       BMANNA   H1       HCA1     0.900000E-01   1.00800           0
     14405 LPSA13   36       BMANNA   C5       CC3163   0.110000       12.0110           0
     14406 LPSA13   36       BMANNA   H5       HCA1     0.900000E-01   1.00800           0
     14407 LPSA13   36       BMANNA   O5       OC3C61  -0.400000       15.9994           0
     14408 LPSA13   36       BMANNA   C2       CC3161   0.700000E-01   12.0110           0
     14409 LPSA13   36       BMANNA   H2       HCA1     0.900000E-01   1.00800           0
     14410 LPSA13   36       BMANNA   N        NC2D1   -0.470000       14.0070           0
     14411 LPSA13   36       BMANNA   HN       HCP1     0.310000       1.00800           0
     14412 LPSA13   36       BMANNA   C        CC2O1    0.510000       12.0110           0
     14413 LPSA13   36       BMANNA   O        OC2D1   -0.510000       15.9994           0
     14414 LPSA13   36       BMANNA   CT       CC331   -0.270000       12.0110           0
     14415 LPSA13   36       BMANNA   HT1      HCA3     0.900000E-01   1.00800           0
     14416 LPSA13   36       BMANNA   HT2      HCA3     0.900000E-01   1.00800           0
     14417 LPSA13   36       BMANNA   HT3      HCA3     0.900000E-01   1.00800           0
     14418 LPSA13   36       BMANNA   C3       CC3161   0.140000       12.0110           0
     14419 LPSA13   36       BMANNA   H3       HCA1     0.900000E-01   1.00800           0
     14420 LPSA13   36       BMANNA   O3       OC311   -0.650000       15.9994           0
     14421 LPSA13   36       BMANNA   HO3      HCP1     0.420000       1.00800           0
     14422 LPSA13   36       BMANNA   C4       CC3161   0.140000       12.0110           0
     14423 LPSA13   36       BMANNA   H4       HCA1     0.900000E-01   1.00800           0
     14424 LPSA13   36       BMANNA   O4       OC311   -0.650000       15.9994           0
     14425 LPSA13   36       BMANNA   HO4      HCP1     0.420000       1.00800           0
     14426 LPSA13   36       BMANNA   C6       CC321    0.500000E-01   12.0110           0
     14427 LPSA13   36       BMANNA   H61      HCA2     0.900000E-01   1.00800           0
     14428 LPSA13   36       BMANNA   H62      HCA2     0.900000E-01   1.00800           0
     14429 LPSA13   36       BMANNA   O6       OC311   -0.650000       15.9994           0
     14430 LPSA13   36       BMANNA   HO6      HCP1     0.420000       1.00800           0
     14431 LPSA14   1        ECLIPA   HB6S     HCA2     0.900000E-01   1.00800           0
     14432 LPSA14   1        ECLIPA   OB6      OC301   -0.360000       15.9994           0
     14433 LPSA14   1        ECLIPA   CB6      CC321     0.00000       12.0110           0
     14434 LPSA14   1        ECLIPA   HB6R     HCA2     0.900000E-01   1.00800           0
     14435 LPSA14   1        ECLIPA   CB5      CC3163   0.110000       12.0110           0
     14436 LPSA14   1        ECLIPA   OB5      OC3C61  -0.400000       15.9994           0
     14437 LPSA14   1        ECLIPA   HB5      HCA1     0.900000E-01   1.00800           0
     14438 LPSA14   1        ECLIPA   CB1      CC3162   0.290000       12.0110           0
     14439 LPSA14   1        ECLIPA   HB1      HCA1     0.900000E-01   1.00800           0
     14440 LPSA14   1        ECLIPA   OA6      OC301   -0.360000       15.9994           0
     14441 LPSA14   1        ECLIPA   CA6      CC321     0.00000       12.0110           0
     14442 LPSA14   1        ECLIPA   HA6R     HCA2     0.900000E-01   1.00800           0
     14443 LPSA14   1        ECLIPA   HA6S     HCA2     0.900000E-01   1.00800           0
     14444 LPSA14   1        ECLIPA   CB4      CC3161  -0.900000E-01   12.0110           0
     14445 LPSA14   1        ECLIPA   HB4      HCA1     0.900000E-01   1.00800           0
     14446 LPSA14   1        ECLIPA   OB4      OC30P   -0.400000       15.9994           0
     14447 LPSA14   1        ECLIPA   PB       PC        1.10000       30.9740           0
     14448 LPSA14   1        ECLIPA   OPB4     OC2DP   -0.900000       15.9994           0
     14449 LPSA14   1        ECLIPA   OPB3     OC2DP   -0.900000       15.9994           0
     14450 LPSA14   1        ECLIPA   OPB2     OC2DP   -0.900000       15.9994           0
     14451 LPSA14   1        ECLIPA   CB3      CC3161   0.170000       12.0110           0
     14452 LPSA14   1        ECLIPA   OB3      OC301   -0.490000       15.9994           0
     14453 LPSA14   1        ECLIPA   HB3      HCA1     0.900000E-01   1.00800           0
     14454 LPSA14   1        ECLIPA   C71      CL       0.900000       12.0110           0
     14455 LPSA14   1        ECLIPA   O71      OBL     -0.630000       15.9994           0
     14456 LPSA14   1        ECLIPA   C72      CTL2    -0.220000       12.0110           0
     14457 LPSA14   1        ECLIPA   H72R     HAL2     0.900000E-01   1.00800           0
     14458 LPSA14   1        ECLIPA   H72S     HAL2     0.900000E-01   1.00800           0
     14459 LPSA14   1        ECLIPA   CB2      CC3161   0.700000E-01   12.0110           0
     14460 LPSA14   1        ECLIPA   HB2      HCA1     0.900000E-01   1.00800           0
     14461 LPSA14   1        ECLIPA   NB2      NC2D1   -0.470000       14.0070           0
     14462 LPSA14   1        ECLIPA   HNB2     HCP1     0.310000       1.00800           0
     14463 LPSA14   1        ECLIPA   CA4      CC3161   0.140000       12.0110           0
     14464 LPSA14   1        ECLIPA   HA4      HCA1     0.900000E-01   1.00800           0
     14465 LPSA14   1        ECLIPA   OA4      OC311   -0.650000       15.9994           0
     14466 LPSA14   1        ECLIPA   HOA4     HCP1     0.420000       1.00800           0
     14467 LPSA14   1        ECLIPA   CA5      CC3163   0.110000       12.0110           0
     14468 LPSA14   1        ECLIPA   HA5      HCA1     0.900000E-01   1.00800           0
     14469 LPSA14   1        ECLIPA   OA5      OC3C61  -0.400000       15.9994           0
     14470 LPSA14   1        ECLIPA   CA1      CC3162   0.110000       12.0110           0
     14471 LPSA14   1        ECLIPA   HA1      HCA1     0.900000E-01   1.00800           0
     14472 LPSA14   1        ECLIPA   OA1      OC30P   -0.400000       15.9994           0
     14473 LPSA14   1        ECLIPA   OPA2     OC2DP   -0.900000       15.9994           0
     14474 LPSA14   1        ECLIPA   OPA3     OC2DP   -0.900000       15.9994           0
     14475 LPSA14   1        ECLIPA   OPA4     OC2DP   -0.900000       15.9994           0
     14476 LPSA14   1        ECLIPA   PA       PC        1.10000       30.9740           0
     14477 LPSA14   1        ECLIPA   CA3      CC3161   0.170000       12.0110           0
     14478 LPSA14   1        ECLIPA   HA3      HCA1     0.900000E-01   1.00800           0
     14479 LPSA14   1        ECLIPA   OA3      OC301   -0.490000       15.9994           0
     14480 LPSA14   1        ECLIPA   C31      CL       0.900000       12.0110           0
     14481 LPSA14   1        ECLIPA   O31      OBL     -0.630000       15.9994           0
     14482 LPSA14   1        ECLIPA   C32      CTL2    -0.220000       12.0110           0
     14483 LPSA14   1        ECLIPA   H32R     HAL2     0.900000E-01   1.00800           0
     14484 LPSA14   1        ECLIPA   H32S     HAL2     0.900000E-01   1.00800           0
     14485 LPSA14   1        ECLIPA   CA2      CC3161   0.700000E-01   12.0110           0
     14486 LPSA14   1        ECLIPA   HA2      HCA1     0.900000E-01   1.00800           0
     14487 LPSA14   1        ECLIPA   NA2      NC2D1   -0.470000       14.0070           0
     14488 LPSA14   1        ECLIPA   HNA2     HCP1     0.310000       1.00800           0
     14489 LPSA14   1        ECLIPA   C73      CTL1     0.170000       12.0110           0
     14490 LPSA14   1        ECLIPA   H73R     HAL1     0.900000E-01   1.00800           0
     14491 LPSA14   1        ECLIPA   O73      OSL     -0.490000       15.9994           0
     14492 LPSA14   1        ECLIPA   C81      CL       0.900000       12.0110           0
     14493 LPSA14   1        ECLIPA   O81      OBL     -0.630000       15.9994           0
     14494 LPSA14   1        ECLIPA   C82      CTL2    -0.220000       12.0110           0
     14495 LPSA14   1        ECLIPA   H82R     HAL2     0.900000E-01   1.00800           0
     14496 LPSA14   1        ECLIPA   H82S     HAL2     0.900000E-01   1.00800           0
     14497 LPSA14   1        ECLIPA   C83      CTL2    -0.180000       12.0110           0
     14498 LPSA14   1        ECLIPA   H83R     HAL2     0.900000E-01   1.00800           0
     14499 LPSA14   1        ECLIPA   H83S     HAL2     0.900000E-01   1.00800           0
     14500 LPSA14   1        ECLIPA   C84      CTL2    -0.180000       12.0110           0
     14501 LPSA14   1        ECLIPA   H84R     HAL2     0.900000E-01   1.00800           0
     14502 LPSA14   1        ECLIPA   H84S     HAL2     0.900000E-01   1.00800           0
     14503 LPSA14   1        ECLIPA   C85      CTL2    -0.180000       12.0110           0
     14504 LPSA14   1        ECLIPA   H85R     HAL2     0.900000E-01   1.00800           0
     14505 LPSA14   1        ECLIPA   H85S     HAL2     0.900000E-01   1.00800           0
     14506 LPSA14   1        ECLIPA   C86      CTL2    -0.180000       12.0110           0
     14507 LPSA14   1        ECLIPA   H86R     HAL2     0.900000E-01   1.00800           0
     14508 LPSA14   1        ECLIPA   H86S     HAL2     0.900000E-01   1.00800           0
     14509 LPSA14   1        ECLIPA   C87      CTL2    -0.180000       12.0110           0
     14510 LPSA14   1        ECLIPA   H87R     HAL2     0.900000E-01   1.00800           0
     14511 LPSA14   1        ECLIPA   H87S     HAL2     0.900000E-01   1.00800           0
     14512 LPSA14   1        ECLIPA   C88      CTL2    -0.180000       12.0110           0
     14513 LPSA14   1        ECLIPA   H88R     HAL2     0.900000E-01   1.00800           0
     14514 LPSA14   1        ECLIPA   H88S     HAL2     0.900000E-01   1.00800           0
     14515 LPSA14   1        ECLIPA   C89      CTL2    -0.180000       12.0110           0
     14516 LPSA14   1        ECLIPA   H89R     HAL2     0.900000E-01   1.00800           0
     14517 LPSA14   1        ECLIPA   H89S     HAL2     0.900000E-01   1.00800           0
     14518 LPSA14   1        ECLIPA   C810     CTL2    -0.180000       12.0110           0
     14519 LPSA14   1        ECLIPA   H810R    HAL2     0.900000E-01   1.00800           0
     14520 LPSA14   1        ECLIPA   H810S    HAL2     0.900000E-01   1.00800           0
     14521 LPSA14   1        ECLIPA   C811     CTL2    -0.180000       12.0110           0
     14522 LPSA14   1        ECLIPA   H811R    HAL2     0.900000E-01   1.00800           0
     14523 LPSA14   1        ECLIPA   H811S    HAL2     0.900000E-01   1.00800           0
     14524 LPSA14   1        ECLIPA   C812     CTL2    -0.180000       12.0110           0
     14525 LPSA14   1        ECLIPA   H812R    HAL2     0.900000E-01   1.00800           0
     14526 LPSA14   1        ECLIPA   H812S    HAL2     0.900000E-01   1.00800           0
     14527 LPSA14   1        ECLIPA   C813     CTL2    -0.180000       12.0110           0
     14528 LPSA14   1        ECLIPA   H813R    HAL2     0.900000E-01   1.00800           0
     14529 LPSA14   1        ECLIPA   H813S    HAL2     0.900000E-01   1.00800           0
     14530 LPSA14   1        ECLIPA   C814     CTL3    -0.270000       12.0110           0
     14531 LPSA14   1        ECLIPA   H814R    HAL3     0.900000E-01   1.00800           0
     14532 LPSA14   1        ECLIPA   H814S    HAL3     0.900000E-01   1.00800           0
     14533 LPSA14   1        ECLIPA   H814T    HAL3     0.900000E-01   1.00800           0
     14534 LPSA14   1        ECLIPA   C74      CTL2    -0.180000       12.0110           0
     14535 LPSA14   1        ECLIPA   H74R     HAL2     0.900000E-01   1.00800           0
     14536 LPSA14   1        ECLIPA   H74S     HAL2     0.900000E-01   1.00800           0
     14537 LPSA14   1        ECLIPA   C75      CTL2    -0.180000       12.0110           0
     14538 LPSA14   1        ECLIPA   H75R     HAL2     0.900000E-01   1.00800           0
     14539 LPSA14   1        ECLIPA   H75S     HAL2     0.900000E-01   1.00800           0
     14540 LPSA14   1        ECLIPA   C76      CTL2    -0.180000       12.0110           0
     14541 LPSA14   1        ECLIPA   H76R     HAL2     0.900000E-01   1.00800           0
     14542 LPSA14   1        ECLIPA   H76S     HAL2     0.900000E-01   1.00800           0
     14543 LPSA14   1        ECLIPA   C77      CTL2    -0.180000       12.0110           0
     14544 LPSA14   1        ECLIPA   H77R     HAL2     0.900000E-01   1.00800           0
     14545 LPSA14   1        ECLIPA   H77S     HAL2     0.900000E-01   1.00800           0
     14546 LPSA14   1        ECLIPA   C78      CTL2    -0.180000       12.0110           0
     14547 LPSA14   1        ECLIPA   H78R     HAL2     0.900000E-01   1.00800           0
     14548 LPSA14   1        ECLIPA   H78S     HAL2     0.900000E-01   1.00800           0
     14549 LPSA14   1        ECLIPA   C79      CTL2    -0.180000       12.0110           0
     14550 LPSA14   1        ECLIPA   H79R     HAL2     0.900000E-01   1.00800           0
     14551 LPSA14   1        ECLIPA   H79S     HAL2     0.900000E-01   1.00800           0
     14552 LPSA14   1        ECLIPA   C710     CTL2    -0.180000       12.0110           0
     14553 LPSA14   1        ECLIPA   H710R    HAL2     0.900000E-01   1.00800           0
     14554 LPSA14   1        ECLIPA   H710S    HAL2     0.900000E-01   1.00800           0
     14555 LPSA14   1        ECLIPA   C711     CTL2    -0.180000       12.0110           0
     14556 LPSA14   1        ECLIPA   H711R    HAL2     0.900000E-01   1.00800           0
     14557 LPSA14   1        ECLIPA   H711S    HAL2     0.900000E-01   1.00800           0
     14558 LPSA14   1        ECLIPA   C712     CTL2    -0.180000       12.0110           0
     14559 LPSA14   1        ECLIPA   H712R    HAL2     0.900000E-01   1.00800           0
     14560 LPSA14   1        ECLIPA   H712S    HAL2     0.900000E-01   1.00800           0
     14561 LPSA14   1        ECLIPA   C713     CTL2    -0.180000       12.0110           0
     14562 LPSA14   1        ECLIPA   H713R    HAL2     0.900000E-01   1.00800           0
     14563 LPSA14   1        ECLIPA   H713S    HAL2     0.900000E-01   1.00800           0
     14564 LPSA14   1        ECLIPA   C714     CTL3    -0.270000       12.0110           0
     14565 LPSA14   1        ECLIPA   H714R    HAL3     0.900000E-01   1.00800           0
     14566 LPSA14   1        ECLIPA   H714S    HAL3     0.900000E-01   1.00800           0
     14567 LPSA14   1        ECLIPA   H714T    HAL3     0.900000E-01   1.00800           0
     14568 LPSA14   1        ECLIPA   C51      CC2O1    0.550000       12.0110           0
     14569 LPSA14   1        ECLIPA   O51      OC2D1   -0.550000       15.9994           0
     14570 LPSA14   1        ECLIPA   C52      CTL2    -0.180000       12.0110           0
     14571 LPSA14   1        ECLIPA   H52R     HAL2     0.900000E-01   1.00800           0
     14572 LPSA14   1        ECLIPA   H52S     HAL2     0.900000E-01   1.00800           0
     14573 LPSA14   1        ECLIPA   C53      CTL1     0.170000       12.0110           0
     14574 LPSA14   1        ECLIPA   H53R     HAL1     0.900000E-01   1.00800           0
     14575 LPSA14   1        ECLIPA   O53      OSL     -0.490000       15.9994           0
     14576 LPSA14   1        ECLIPA   C61      CL       0.900000       12.0110           0
     14577 LPSA14   1        ECLIPA   O61      OBL     -0.630000       15.9994           0
     14578 LPSA14   1        ECLIPA   C62      CTL2    -0.220000       12.0110           0
     14579 LPSA14   1        ECLIPA   H62R     HAL2     0.900000E-01   1.00800           0
     14580 LPSA14   1        ECLIPA   H62S     HAL2     0.900000E-01   1.00800           0
     14581 LPSA14   1        ECLIPA   C63      CTL2    -0.180000       12.0110           0
     14582 LPSA14   1        ECLIPA   H63R     HAL2     0.900000E-01   1.00800           0
     14583 LPSA14   1        ECLIPA   H63S     HAL2     0.900000E-01   1.00800           0
     14584 LPSA14   1        ECLIPA   C64      CTL2    -0.180000       12.0110           0
     14585 LPSA14   1        ECLIPA   H64R     HAL2     0.900000E-01   1.00800           0
     14586 LPSA14   1        ECLIPA   H64S     HAL2     0.900000E-01   1.00800           0
     14587 LPSA14   1        ECLIPA   C65      CTL2    -0.180000       12.0110           0
     14588 LPSA14   1        ECLIPA   H65R     HAL2     0.900000E-01   1.00800           0
     14589 LPSA14   1        ECLIPA   H65S     HAL2     0.900000E-01   1.00800           0
     14590 LPSA14   1        ECLIPA   C66      CTL2    -0.180000       12.0110           0
     14591 LPSA14   1        ECLIPA   H66R     HAL2     0.900000E-01   1.00800           0
     14592 LPSA14   1        ECLIPA   H66S     HAL2     0.900000E-01   1.00800           0
     14593 LPSA14   1        ECLIPA   C67      CTL2    -0.180000       12.0110           0
     14594 LPSA14   1        ECLIPA   H67R     HAL2     0.900000E-01   1.00800           0
     14595 LPSA14   1        ECLIPA   H67S     HAL2     0.900000E-01   1.00800           0
     14596 LPSA14   1        ECLIPA   C68      CTL2    -0.180000       12.0110           0
     14597 LPSA14   1        ECLIPA   H68R     HAL2     0.900000E-01   1.00800           0
     14598 LPSA14   1        ECLIPA   H68S     HAL2     0.900000E-01   1.00800           0
     14599 LPSA14   1        ECLIPA   C69      CTL2    -0.180000       12.0110           0
     14600 LPSA14   1        ECLIPA   H69R     HAL2     0.900000E-01   1.00800           0
     14601 LPSA14   1        ECLIPA   H69S     HAL2     0.900000E-01   1.00800           0
     14602 LPSA14   1        ECLIPA   C610     CTL2    -0.180000       12.0110           0
     14603 LPSA14   1        ECLIPA   H610R    HAL2     0.900000E-01   1.00800           0
     14604 LPSA14   1        ECLIPA   H610S    HAL2     0.900000E-01   1.00800           0
     14605 LPSA14   1        ECLIPA   C611     CTL2    -0.180000       12.0110           0
     14606 LPSA14   1        ECLIPA   H611R    HAL2     0.900000E-01   1.00800           0
     14607 LPSA14   1        ECLIPA   H611S    HAL2     0.900000E-01   1.00800           0
     14608 LPSA14   1        ECLIPA   C612     CTL3    -0.270000       12.0110           0
     14609 LPSA14   1        ECLIPA   H612R    HAL3     0.900000E-01   1.00800           0
     14610 LPSA14   1        ECLIPA   H612S    HAL3     0.900000E-01   1.00800           0
     14611 LPSA14   1        ECLIPA   H612T    HAL3     0.900000E-01   1.00800           0
     14612 LPSA14   1        ECLIPA   C54      CTL2    -0.180000       12.0110           0
     14613 LPSA14   1        ECLIPA   H54R     HAL2     0.900000E-01   1.00800           0
     14614 LPSA14   1        ECLIPA   H54S     HAL2     0.900000E-01   1.00800           0
     14615 LPSA14   1        ECLIPA   C55      CTL2    -0.180000       12.0110           0
     14616 LPSA14   1        ECLIPA   H55R     HAL2     0.900000E-01   1.00800           0
     14617 LPSA14   1        ECLIPA   H55S     HAL2     0.900000E-01   1.00800           0
     14618 LPSA14   1        ECLIPA   C56      CTL2    -0.180000       12.0110           0
     14619 LPSA14   1        ECLIPA   H56R     HAL2     0.900000E-01   1.00800           0
     14620 LPSA14   1        ECLIPA   H56S     HAL2     0.900000E-01   1.00800           0
     14621 LPSA14   1        ECLIPA   C57      CTL2    -0.180000       12.0110           0
     14622 LPSA14   1        ECLIPA   H57R     HAL2     0.900000E-01   1.00800           0
     14623 LPSA14   1        ECLIPA   H57S     HAL2     0.900000E-01   1.00800           0
     14624 LPSA14   1        ECLIPA   C58      CTL2    -0.180000       12.0110           0
     14625 LPSA14   1        ECLIPA   H58R     HAL2     0.900000E-01   1.00800           0
     14626 LPSA14   1        ECLIPA   H58S     HAL2     0.900000E-01   1.00800           0
     14627 LPSA14   1        ECLIPA   C59      CTL2    -0.180000       12.0110           0
     14628 LPSA14   1        ECLIPA   H59R     HAL2     0.900000E-01   1.00800           0
     14629 LPSA14   1        ECLIPA   H59S     HAL2     0.900000E-01   1.00800           0
     14630 LPSA14   1        ECLIPA   C510     CTL2    -0.180000       12.0110           0
     14631 LPSA14   1        ECLIPA   H510R    HAL2     0.900000E-01   1.00800           0
     14632 LPSA14   1        ECLIPA   H510S    HAL2     0.900000E-01   1.00800           0
     14633 LPSA14   1        ECLIPA   C511     CTL2    -0.180000       12.0110           0
     14634 LPSA14   1        ECLIPA   H511R    HAL2     0.900000E-01   1.00800           0
     14635 LPSA14   1        ECLIPA   H511S    HAL2     0.900000E-01   1.00800           0
     14636 LPSA14   1        ECLIPA   C512     CTL2    -0.180000       12.0110           0
     14637 LPSA14   1        ECLIPA   H512R    HAL2     0.900000E-01   1.00800           0
     14638 LPSA14   1        ECLIPA   H512S    HAL2     0.900000E-01   1.00800           0
     14639 LPSA14   1        ECLIPA   C513     CTL2    -0.180000       12.0110           0
     14640 LPSA14   1        ECLIPA   H513R    HAL2     0.900000E-01   1.00800           0
     14641 LPSA14   1        ECLIPA   H513S    HAL2     0.900000E-01   1.00800           0
     14642 LPSA14   1        ECLIPA   C514     CTL3    -0.270000       12.0110           0
     14643 LPSA14   1        ECLIPA   H514R    HAL3     0.900000E-01   1.00800           0
     14644 LPSA14   1        ECLIPA   H514S    HAL3     0.900000E-01   1.00800           0
     14645 LPSA14   1        ECLIPA   H514T    HAL3     0.900000E-01   1.00800           0
     14646 LPSA14   1        ECLIPA   C33      CTL1     0.140000       12.0110           0
     14647 LPSA14   1        ECLIPA   H33R     HAL1     0.900000E-01   1.00800           0
     14648 LPSA14   1        ECLIPA   O33      OH1     -0.660000       15.9994           0
     14649 LPSA14   1        ECLIPA   HO33     H        0.430000       1.00800           0
     14650 LPSA14   1        ECLIPA   C34      CTL2    -0.180000       12.0110           0
     14651 LPSA14   1        ECLIPA   H34R     HAL2     0.900000E-01   1.00800           0
     14652 LPSA14   1        ECLIPA   H34S     HAL2     0.900000E-01   1.00800           0
     14653 LPSA14   1        ECLIPA   C35      CTL2    -0.180000       12.0110           0
     14654 LPSA14   1        ECLIPA   H35R     HAL2     0.900000E-01   1.00800           0
     14655 LPSA14   1        ECLIPA   H35S     HAL2     0.900000E-01   1.00800           0
     14656 LPSA14   1        ECLIPA   C36      CTL2    -0.180000       12.0110           0
     14657 LPSA14   1        ECLIPA   H36R     HAL2     0.900000E-01   1.00800           0
     14658 LPSA14   1        ECLIPA   H36S     HAL2     0.900000E-01   1.00800           0
     14659 LPSA14   1        ECLIPA   C37      CTL2    -0.180000       12.0110           0
     14660 LPSA14   1        ECLIPA   H37R     HAL2     0.900000E-01   1.00800           0
     14661 LPSA14   1        ECLIPA   H37S     HAL2     0.900000E-01   1.00800           0
     14662 LPSA14   1        ECLIPA   C38      CTL2    -0.180000       12.0110           0
     14663 LPSA14   1        ECLIPA   H38R     HAL2     0.900000E-01   1.00800           0
     14664 LPSA14   1        ECLIPA   H38S     HAL2     0.900000E-01   1.00800           0
     14665 LPSA14   1        ECLIPA   C39      CTL2    -0.180000       12.0110           0
     14666 LPSA14   1        ECLIPA   H39R     HAL2     0.900000E-01   1.00800           0
     14667 LPSA14   1        ECLIPA   H39S     HAL2     0.900000E-01   1.00800           0
     14668 LPSA14   1        ECLIPA   C310     CTL2    -0.180000       12.0110           0
     14669 LPSA14   1        ECLIPA   H310R    HAL2     0.900000E-01   1.00800           0
     14670 LPSA14   1        ECLIPA   H310S    HAL2     0.900000E-01   1.00800           0
     14671 LPSA14   1        ECLIPA   C311     CTL2    -0.180000       12.0110           0
     14672 LPSA14   1        ECLIPA   H311R    HAL2     0.900000E-01   1.00800           0
     14673 LPSA14   1        ECLIPA   H311S    HAL2     0.900000E-01   1.00800           0
     14674 LPSA14   1        ECLIPA   C312     CTL2    -0.180000       12.0110           0
     14675 LPSA14   1        ECLIPA   H312R    HAL2     0.900000E-01   1.00800           0
     14676 LPSA14   1        ECLIPA   H312S    HAL2     0.900000E-01   1.00800           0
     14677 LPSA14   1        ECLIPA   C313     CTL2    -0.180000       12.0110           0
     14678 LPSA14   1        ECLIPA   H313R    HAL2     0.900000E-01   1.00800           0
     14679 LPSA14   1        ECLIPA   H313S    HAL2     0.900000E-01   1.00800           0
     14680 LPSA14   1        ECLIPA   C314     CTL3    -0.270000       12.0110           0
     14681 LPSA14   1        ECLIPA   H314R    HAL3     0.900000E-01   1.00800           0
     14682 LPSA14   1        ECLIPA   H314S    HAL3     0.900000E-01   1.00800           0
     14683 LPSA14   1        ECLIPA   H314T    HAL3     0.900000E-01   1.00800           0
     14684 LPSA14   1        ECLIPA   C11      CC2O1    0.550000       12.0110           0
     14685 LPSA14   1        ECLIPA   O11      OC2D1   -0.550000       15.9994           0
     14686 LPSA14   1        ECLIPA   C12      CTL2    -0.180000       12.0110           0
     14687 LPSA14   1        ECLIPA   H12R     HAL2     0.900000E-01   1.00800           0
     14688 LPSA14   1        ECLIPA   H12S     HAL2     0.900000E-01   1.00800           0
     14689 LPSA14   1        ECLIPA   C13      CTL1     0.140000       12.0110           0
     14690 LPSA14   1        ECLIPA   H13R     HAL1     0.900000E-01   1.00800           0
     14691 LPSA14   1        ECLIPA   O13      OH1     -0.660000       15.9994           0
     14692 LPSA14   1        ECLIPA   HO13     H        0.430000       1.00800           0
     14693 LPSA14   1        ECLIPA   C14      CTL2    -0.180000       12.0110           0
     14694 LPSA14   1        ECLIPA   H14R     HAL2     0.900000E-01   1.00800           0
     14695 LPSA14   1        ECLIPA   H14S     HAL2     0.900000E-01   1.00800           0
     14696 LPSA14   1        ECLIPA   C15      CTL2    -0.180000       12.0110           0
     14697 LPSA14   1        ECLIPA   H15R     HAL2     0.900000E-01   1.00800           0
     14698 LPSA14   1        ECLIPA   H15S     HAL2     0.900000E-01   1.00800           0
     14699 LPSA14   1        ECLIPA   C16      CTL2    -0.180000       12.0110           0
     14700 LPSA14   1        ECLIPA   H16R     HAL2     0.900000E-01   1.00800           0
     14701 LPSA14   1        ECLIPA   H16S     HAL2     0.900000E-01   1.00800           0
     14702 LPSA14   1        ECLIPA   C17      CTL2    -0.180000       12.0110           0
     14703 LPSA14   1        ECLIPA   H17R     HAL2     0.900000E-01   1.00800           0
     14704 LPSA14   1        ECLIPA   H17S     HAL2     0.900000E-01   1.00800           0
     14705 LPSA14   1        ECLIPA   C18      CTL2    -0.180000       12.0110           0
     14706 LPSA14   1        ECLIPA   H18R     HAL2     0.900000E-01   1.00800           0
     14707 LPSA14   1        ECLIPA   H18S     HAL2     0.900000E-01   1.00800           0
     14708 LPSA14   1        ECLIPA   C19      CTL2    -0.180000       12.0110           0
     14709 LPSA14   1        ECLIPA   H19R     HAL2     0.900000E-01   1.00800           0
     14710 LPSA14   1        ECLIPA   H19S     HAL2     0.900000E-01   1.00800           0
     14711 LPSA14   1        ECLIPA   C110     CTL2    -0.180000       12.0110           0
     14712 LPSA14   1        ECLIPA   H110R    HAL2     0.900000E-01   1.00800           0
     14713 LPSA14   1        ECLIPA   H110S    HAL2     0.900000E-01   1.00800           0
     14714 LPSA14   1        ECLIPA   C111     CTL2    -0.180000       12.0110           0
     14715 LPSA14   1        ECLIPA   H111R    HAL2     0.900000E-01   1.00800           0
     14716 LPSA14   1        ECLIPA   H111S    HAL2     0.900000E-01   1.00800           0
     14717 LPSA14   1        ECLIPA   C112     CTL2    -0.180000       12.0110           0
     14718 LPSA14   1        ECLIPA   H112R    HAL2     0.900000E-01   1.00800           0
     14719 LPSA14   1        ECLIPA   H112S    HAL2     0.900000E-01   1.00800           0
     14720 LPSA14   1        ECLIPA   C113     CTL2    -0.180000       12.0110           0
     14721 LPSA14   1        ECLIPA   H113R    HAL2     0.900000E-01   1.00800           0
     14722 LPSA14   1        ECLIPA   H113S    HAL2     0.900000E-01   1.00800           0
     14723 LPSA14   1        ECLIPA   C114     CTL3    -0.270000       12.0110           0
     14724 LPSA14   1        ECLIPA   H114R    HAL3     0.900000E-01   1.00800           0
     14725 LPSA14   1        ECLIPA   H114S    HAL3     0.900000E-01   1.00800           0
     14726 LPSA14   1        ECLIPA   H114T    HAL3     0.900000E-01   1.00800           0
     14727 LPSA14   2        AKDO     C1       CC2O2    0.300000       12.0110           0
     14728 LPSA14   2        AKDO     O11      OC2D2   -0.600000       15.9994           0
     14729 LPSA14   2        AKDO     O12      OC2D2   -0.600000       15.9994           0
     14730 LPSA14   2        AKDO     C2       CC3062   0.280000       12.0110           0
     14731 LPSA14   2        AKDO     C6       CC3163   0.110000       12.0110           0
     14732 LPSA14   2        AKDO     H6       HCA1     0.900000E-01   1.00800           0
     14733 LPSA14   2        AKDO     O6       OC3C61  -0.400000       15.9994           0
     14734 LPSA14   2        AKDO     C3       CC3261  -0.180000       12.0110           0
     14735 LPSA14   2        AKDO     H31      HCA2     0.900000E-01   1.00800           0
     14736 LPSA14   2        AKDO     H32      HCA2     0.900000E-01   1.00800           0
     14737 LPSA14   2        AKDO     C4       CC3161   0.900000E-01   12.0110           0
     14738 LPSA14   2        AKDO     H4       HCA1     0.900000E-01   1.00800           0
     14739 LPSA14   2        AKDO     O4       OC301   -0.360000       15.9994           0
     14740 LPSA14   2        AKDO     C5       CC3161   0.900000E-01   12.0110           0
     14741 LPSA14   2        AKDO     H5       HCA1     0.900000E-01   1.00800           0
     14742 LPSA14   2        AKDO     O5       OC301   -0.360000       15.9994           0
     14743 LPSA14   2        AKDO     C7       CC312    0.140000       12.0110           0
     14744 LPSA14   2        AKDO     H7       HCA1     0.900000E-01   1.00800           0
     14745 LPSA14   2        AKDO     O7       OC311   -0.650000       15.9994           0
     14746 LPSA14   2        AKDO     HO7      HCP1     0.420000       1.00800           0
     14747 LPSA14   2        AKDO     C8       CC322    0.500000E-01   12.0110           0
     14748 LPSA14   2        AKDO     H81      HCA2     0.900000E-01   1.00800           0
     14749 LPSA14   2        AKDO     H82      HCA2     0.900000E-01   1.00800           0
     14750 LPSA14   2        AKDO     O8       OC311   -0.650000       15.9994           0
     14751 LPSA14   2        AKDO     HO8      HCP1     0.420000       1.00800           0
     14752 LPSA14   3        AKDO     C1       CC2O2    0.300000       12.0110           0
     14753 LPSA14   3        AKDO     O11      OC2D2   -0.600000       15.9994           0
     14754 LPSA14   3        AKDO     O12      OC2D2   -0.600000       15.9994           0
     14755 LPSA14   3        AKDO     C2       CC3062   0.280000       12.0110           0
     14756 LPSA14   3        AKDO     C6       CC3163   0.110000       12.0110           0
     14757 LPSA14   3        AKDO     H6       HCA1     0.900000E-01   1.00800           0
     14758 LPSA14   3        AKDO     O6       OC3C61  -0.400000       15.9994           0
     14759 LPSA14   3        AKDO     C3       CC3261  -0.180000       12.0110           0
     14760 LPSA14   3        AKDO     H31      HCA2     0.900000E-01   1.00800           0
     14761 LPSA14   3        AKDO     H32      HCA2     0.900000E-01   1.00800           0
     14762 LPSA14   3        AKDO     C4       CC3161   0.140000       12.0110           0
     14763 LPSA14   3        AKDO     H4       HCA1     0.900000E-01   1.00800           0
     14764 LPSA14   3        AKDO     O4       OC311   -0.650000       15.9994           0
     14765 LPSA14   3        AKDO     HO4      HCP1     0.420000       1.00800           0
     14766 LPSA14   3        AKDO     C5       CC3161   0.140000       12.0110           0
     14767 LPSA14   3        AKDO     H5       HCA1     0.900000E-01   1.00800           0
     14768 LPSA14   3        AKDO     O5       OC311   -0.650000       15.9994           0
     14769 LPSA14   3        AKDO     HO5      HCP1     0.420000       1.00800           0
     14770 LPSA14   3        AKDO     C7       CC312    0.140000       12.0110           0
     14771 LPSA14   3        AKDO     H7       HCA1     0.900000E-01   1.00800           0
     14772 LPSA14   3        AKDO     O7       OC311   -0.650000       15.9994           0
     14773 LPSA14   3        AKDO     HO7      HCP1     0.420000       1.00800           0
     14774 LPSA14   3        AKDO     C8       CC322    0.500000E-01   12.0110           0
     14775 LPSA14   3        AKDO     H81      HCA2     0.900000E-01   1.00800           0
     14776 LPSA14   3        AKDO     H82      HCA2     0.900000E-01   1.00800           0
     14777 LPSA14   3        AKDO     O8       OC311   -0.650000       15.9994           0
     14778 LPSA14   3        AKDO     HO8      HCP1     0.420000       1.00800           0
     14779 LPSA14   4        AHEP     C1       CC3162   0.290000       12.0110           0
     14780 LPSA14   4        AHEP     H1       HCA1     0.900000E-01   1.00800           0
     14781 LPSA14   4        AHEP     C5       CC3163   0.110000       12.0110           0
     14782 LPSA14   4        AHEP     H5       HCA1     0.900000E-01   1.00800           0
     14783 LPSA14   4        AHEP     O5       OC3C61  -0.400000       15.9994           0
     14784 LPSA14   4        AHEP     C2       CC3161   0.140000       12.0110           0
     14785 LPSA14   4        AHEP     H2       HCA1     0.900000E-01   1.00800           0
     14786 LPSA14   4        AHEP     O2       OC311   -0.650000       15.9994           0
     14787 LPSA14   4        AHEP     HO2      HCP1     0.420000       1.00800           0
     14788 LPSA14   4        AHEP     C3       CC3161   0.900000E-01   12.0110           0
     14789 LPSA14   4        AHEP     H3       HCA1     0.900000E-01   1.00800           0
     14790 LPSA14   4        AHEP     O3       OC301   -0.360000       15.9994           0
     14791 LPSA14   4        AHEP     C4       CC3161  -0.900000E-01   12.0110           0
     14792 LPSA14   4        AHEP     H4       HCA1     0.900000E-01   1.00800           0
     14793 LPSA14   4        AHEP     O4       OC30P   -0.400000       15.9994           0
     14794 LPSA14   4        AHEP     P4       PC        1.10000       30.9740           0
     14795 LPSA14   4        AHEP     OP42     OC2DP   -0.900000       15.9994           0
     14796 LPSA14   4        AHEP     OP43     OC2DP   -0.900000       15.9994           0
     14797 LPSA14   4        AHEP     OP44     OC2DP   -0.900000       15.9994           0
     14798 LPSA14   4        AHEP     C6       CC312    0.140000       12.0110           0
     14799 LPSA14   4        AHEP     H6       HCA1     0.900000E-01   1.00800           0
     14800 LPSA14   4        AHEP     O6       OC311   -0.650000       15.9994           0
     14801 LPSA14   4        AHEP     HO6      HCP1     0.420000       1.00800           0
     14802 LPSA14   4        AHEP     C7       CC322    0.500000E-01   12.0110           0
     14803 LPSA14   4        AHEP     H71      HCA2     0.900000E-01   1.00800           0
     14804 LPSA14   4        AHEP     H72      HCA2     0.900000E-01   1.00800           0
     14805 LPSA14   4        AHEP     O7       OC311   -0.650000       15.9994           0
     14806 LPSA14   4        AHEP     HO7      HCP1     0.420000       1.00800           0
     14807 LPSA14   5        AHEP     C1       CC3162   0.290000       12.0110           0
     14808 LPSA14   5        AHEP     H1       HCA1     0.900000E-01   1.00800           0
     14809 LPSA14   5        AHEP     C5       CC3163   0.110000       12.0110           0
     14810 LPSA14   5        AHEP     H5       HCA1     0.900000E-01   1.00800           0
     14811 LPSA14   5        AHEP     O5       OC3C61  -0.400000       15.9994           0
     14812 LPSA14   5        AHEP     C2       CC3161   0.140000       12.0110           0
     14813 LPSA14   5        AHEP     H2       HCA1     0.900000E-01   1.00800           0
     14814 LPSA14   5        AHEP     O2       OC311   -0.650000       15.9994           0
     14815 LPSA14   5        AHEP     HO2      HCP1     0.420000       1.00800           0
     14816 LPSA14   5        AHEP     C3       CC3161   0.900000E-01   12.0110           0
     14817 LPSA14   5        AHEP     H3       HCA1     0.900000E-01   1.00800           0
     14818 LPSA14   5        AHEP     O3       OC301   -0.360000       15.9994           0
     14819 LPSA14   5        AHEP     C4       CC3161  -0.900000E-01   12.0110           0
     14820 LPSA14   5        AHEP     H4       HCA1     0.900000E-01   1.00800           0
     14821 LPSA14   5        AHEP     O4       OC30P   -0.400000       15.9994           0
     14822 LPSA14   5        AHEP     P4       PC        1.10000       30.9740           0
     14823 LPSA14   5        AHEP     OP42     OC2DP   -0.900000       15.9994           0
     14824 LPSA14   5        AHEP     OP43     OC2DP   -0.900000       15.9994           0
     14825 LPSA14   5        AHEP     OP44     OC2DP   -0.900000       15.9994           0
     14826 LPSA14   5        AHEP     C6       CC312    0.140000       12.0110           0
     14827 LPSA14   5        AHEP     H6       HCA1     0.900000E-01   1.00800           0
     14828 LPSA14   5        AHEP     O6       OC311   -0.650000       15.9994           0
     14829 LPSA14   5        AHEP     HO6      HCP1     0.420000       1.00800           0
     14830 LPSA14   5        AHEP     C7       CC322     0.00000       12.0110           0
     14831 LPSA14   5        AHEP     H71      HCA2     0.900000E-01   1.00800           0
     14832 LPSA14   5        AHEP     H72      HCA2     0.900000E-01   1.00800           0
     14833 LPSA14   5        AHEP     O7       OC301   -0.360000       15.9994           0
     14834 LPSA14   6        AHEP     C1       CC3162   0.290000       12.0110           0
     14835 LPSA14   6        AHEP     H1       HCA1     0.900000E-01   1.00800           0
     14836 LPSA14   6        AHEP     C5       CC3163   0.110000       12.0110           0
     14837 LPSA14   6        AHEP     H5       HCA1     0.900000E-01   1.00800           0
     14838 LPSA14   6        AHEP     O5       OC3C61  -0.400000       15.9994           0
     14839 LPSA14   6        AHEP     C2       CC3161   0.140000       12.0110           0
     14840 LPSA14   6        AHEP     H2       HCA1     0.900000E-01   1.00800           0
     14841 LPSA14   6        AHEP     O2       OC311   -0.650000       15.9994           0
     14842 LPSA14   6        AHEP     HO2      HCP1     0.420000       1.00800           0
     14843 LPSA14   6        AHEP     C3       CC3161   0.140000       12.0110           0
     14844 LPSA14   6        AHEP     H3       HCA1     0.900000E-01   1.00800           0
     14845 LPSA14   6        AHEP     O3       OC311   -0.650000       15.9994           0
     14846 LPSA14   6        AHEP     HO3      HCP1     0.420000       1.00800           0
     14847 LPSA14   6        AHEP     C4       CC3161   0.140000       12.0110           0
     14848 LPSA14   6        AHEP     H4       HCA1     0.900000E-01   1.00800           0
     14849 LPSA14   6        AHEP     O4       OC311   -0.650000       15.9994           0
     14850 LPSA14   6        AHEP     HO4      HCP1     0.420000       1.00800           0
     14851 LPSA14   6        AHEP     C6       CC312    0.140000       12.0110           0
     14852 LPSA14   6        AHEP     H6       HCA1     0.900000E-01   1.00800           0
     14853 LPSA14   6        AHEP     O6       OC311   -0.650000       15.9994           0
     14854 LPSA14   6        AHEP     HO6      HCP1     0.420000       1.00800           0
     14855 LPSA14   6        AHEP     C7       CC322    0.500000E-01   12.0110           0
     14856 LPSA14   6        AHEP     H71      HCA2     0.900000E-01   1.00800           0
     14857 LPSA14   6        AHEP     H72      HCA2     0.900000E-01   1.00800           0
     14858 LPSA14   6        AHEP     O7       OC311   -0.650000       15.9994           0
     14859 LPSA14   6        AHEP     HO7      HCP1     0.420000       1.00800           0
     14860 LPSA14   7        AGLC     C1       CC3162   0.290000       12.0110           0
     14861 LPSA14   7        AGLC     H1       HCA1     0.900000E-01   1.00800           0
     14862 LPSA14   7        AGLC     C5       CC3163   0.110000       12.0110           0
     14863 LPSA14   7        AGLC     H5       HCA1     0.900000E-01   1.00800           0
     14864 LPSA14   7        AGLC     O5       OC3C61  -0.400000       15.9994           0
     14865 LPSA14   7        AGLC     C2       CC3161   0.140000       12.0110           0
     14866 LPSA14   7        AGLC     H2       HCA1     0.900000E-01   1.00800           0
     14867 LPSA14   7        AGLC     O2       OC311   -0.650000       15.9994           0
     14868 LPSA14   7        AGLC     HO2      HCP1     0.420000       1.00800           0
     14869 LPSA14   7        AGLC     C3       CC3161   0.900000E-01   12.0110           0
     14870 LPSA14   7        AGLC     H3       HCA1     0.900000E-01   1.00800           0
     14871 LPSA14   7        AGLC     O3       OC301   -0.360000       15.9994           0
     14872 LPSA14   7        AGLC     C4       CC3161   0.140000       12.0110           0
     14873 LPSA14   7        AGLC     H4       HCA1     0.900000E-01   1.00800           0
     14874 LPSA14   7        AGLC     O4       OC311   -0.650000       15.9994           0
     14875 LPSA14   7        AGLC     HO4      HCP1     0.420000       1.00800           0
     14876 LPSA14   7        AGLC     C6       CC321    0.500000E-01   12.0110           0
     14877 LPSA14   7        AGLC     H61      HCA2     0.900000E-01   1.00800           0
     14878 LPSA14   7        AGLC     H62      HCA2     0.900000E-01   1.00800           0
     14879 LPSA14   7        AGLC     O6       OC311   -0.650000       15.9994           0
     14880 LPSA14   7        AGLC     HO6      HCP1     0.420000       1.00800           0
     14881 LPSA14   8        AGLC     C1       CC3162   0.290000       12.0110           0
     14882 LPSA14   8        AGLC     H1       HCA1     0.900000E-01   1.00800           0
     14883 LPSA14   8        AGLC     C5       CC3163   0.110000       12.0110           0
     14884 LPSA14   8        AGLC     H5       HCA1     0.900000E-01   1.00800           0
     14885 LPSA14   8        AGLC     O5       OC3C61  -0.400000       15.9994           0
     14886 LPSA14   8        AGLC     C2       CC3161   0.900000E-01   12.0110           0
     14887 LPSA14   8        AGLC     H2       HCA1     0.900000E-01   1.00800           0
     14888 LPSA14   8        AGLC     O2       OC301   -0.360000       15.9994           0
     14889 LPSA14   8        AGLC     C3       CC3161   0.900000E-01   12.0110           0
     14890 LPSA14   8        AGLC     H3       HCA1     0.900000E-01   1.00800           0
     14891 LPSA14   8        AGLC     O3       OC301   -0.360000       15.9994           0
     14892 LPSA14   8        AGLC     C4       CC3161   0.140000       12.0110           0
     14893 LPSA14   8        AGLC     H4       HCA1     0.900000E-01   1.00800           0
     14894 LPSA14   8        AGLC     O4       OC311   -0.650000       15.9994           0
     14895 LPSA14   8        AGLC     HO4      HCP1     0.420000       1.00800           0
     14896 LPSA14   8        AGLC     C6       CC321    0.500000E-01   12.0110           0
     14897 LPSA14   8        AGLC     H61      HCA2     0.900000E-01   1.00800           0
     14898 LPSA14   8        AGLC     H62      HCA2     0.900000E-01   1.00800           0
     14899 LPSA14   8        AGLC     O6       OC311   -0.650000       15.9994           0
     14900 LPSA14   8        AGLC     HO6      HCP1     0.420000       1.00800           0
     14901 LPSA14   9        AGAL     C1       CC3162   0.290000       12.0110           0
     14902 LPSA14   9        AGAL     H1       HCA1     0.900000E-01   1.00800           0
     14903 LPSA14   9        AGAL     C5       CC3163   0.110000       12.0110           0
     14904 LPSA14   9        AGAL     H5       HCA1     0.900000E-01   1.00800           0
     14905 LPSA14   9        AGAL     O5       OC3C61  -0.400000       15.9994           0
     14906 LPSA14   9        AGAL     C2       CC3161   0.900000E-01   12.0110           0
     14907 LPSA14   9        AGAL     H2       HCA1     0.900000E-01   1.00800           0
     14908 LPSA14   9        AGAL     O2       OC301   -0.360000       15.9994           0
     14909 LPSA14   9        AGAL     C3       CC3161   0.140000       12.0110           0
     14910 LPSA14   9        AGAL     H3       HCA1     0.900000E-01   1.00800           0
     14911 LPSA14   9        AGAL     O3       OC311   -0.650000       15.9994           0
     14912 LPSA14   9        AGAL     HO3      HCP1     0.420000       1.00800           0
     14913 LPSA14   9        AGAL     C4       CC3161   0.140000       12.0110           0
     14914 LPSA14   9        AGAL     H4       HCA1     0.900000E-01   1.00800           0
     14915 LPSA14   9        AGAL     O4       OC311   -0.650000       15.9994           0
     14916 LPSA14   9        AGAL     HO4      HCP1     0.420000       1.00800           0
     14917 LPSA14   9        AGAL     C6       CC321    0.500000E-01   12.0110           0
     14918 LPSA14   9        AGAL     H61      HCA2     0.900000E-01   1.00800           0
     14919 LPSA14   9        AGAL     H62      HCA2     0.900000E-01   1.00800           0
     14920 LPSA14   9        AGAL     O6       OC311   -0.650000       15.9994           0
     14921 LPSA14   9        AGAL     HO6      HCP1     0.420000       1.00800           0
     14922 LPSA14   10       AGAL     C1       CC3162   0.290000       12.0110           0
     14923 LPSA14   10       AGAL     H1       HCA1     0.900000E-01   1.00800           0
     14924 LPSA14   10       AGAL     C5       CC3163   0.110000       12.0110           0
     14925 LPSA14   10       AGAL     H5       HCA1     0.900000E-01   1.00800           0
     14926 LPSA14   10       AGAL     O5       OC3C61  -0.400000       15.9994           0
     14927 LPSA14   10       AGAL     C2       CC3161   0.140000       12.0110           0
     14928 LPSA14   10       AGAL     H2       HCA1     0.900000E-01   1.00800           0
     14929 LPSA14   10       AGAL     O2       OC311   -0.650000       15.9994           0
     14930 LPSA14   10       AGAL     HO2      HCP1     0.420000       1.00800           0
     14931 LPSA14   10       AGAL     C3       CC3161   0.140000       12.0110           0
     14932 LPSA14   10       AGAL     H3       HCA1     0.900000E-01   1.00800           0
     14933 LPSA14   10       AGAL     O3       OC311   -0.650000       15.9994           0
     14934 LPSA14   10       AGAL     HO3      HCP1     0.420000       1.00800           0
     14935 LPSA14   10       AGAL     C4       CC3161   0.140000       12.0110           0
     14936 LPSA14   10       AGAL     H4       HCA1     0.900000E-01   1.00800           0
     14937 LPSA14   10       AGAL     O4       OC311   -0.650000       15.9994           0
     14938 LPSA14   10       AGAL     HO4      HCP1     0.420000       1.00800           0
     14939 LPSA14   10       AGAL     C6       CC321    0.500000E-01   12.0110           0
     14940 LPSA14   10       AGAL     H61      HCA2     0.900000E-01   1.00800           0
     14941 LPSA14   10       AGAL     H62      HCA2     0.900000E-01   1.00800           0
     14942 LPSA14   10       AGAL     O6       OC311   -0.650000       15.9994           0
     14943 LPSA14   10       AGAL     HO6      HCP1     0.420000       1.00800           0
     14944 LPSA14   11       BGLC     C1       CC3162   0.290000       12.0110           0
     14945 LPSA14   11       BGLC     H1       HCA1     0.900000E-01   1.00800           0
     14946 LPSA14   11       BGLC     C5       CC3163   0.110000       12.0110           0
     14947 LPSA14   11       BGLC     H5       HCA1     0.900000E-01   1.00800           0
     14948 LPSA14   11       BGLC     O5       OC3C61  -0.400000       15.9994           0
     14949 LPSA14   11       BGLC     C2       CC3161   0.140000       12.0110           0
     14950 LPSA14   11       BGLC     H2       HCA1     0.900000E-01   1.00800           0
     14951 LPSA14   11       BGLC     O2       OC311   -0.650000       15.9994           0
     14952 LPSA14   11       BGLC     HO2      HCP1     0.420000       1.00800           0
     14953 LPSA14   11       BGLC     C3       CC3161   0.900000E-01   12.0110           0
     14954 LPSA14   11       BGLC     H3       HCA1     0.900000E-01   1.00800           0
     14955 LPSA14   11       BGLC     O3       OC301   -0.360000       15.9994           0
     14956 LPSA14   11       BGLC     C4       CC3161   0.140000       12.0110           0
     14957 LPSA14   11       BGLC     H4       HCA1     0.900000E-01   1.00800           0
     14958 LPSA14   11       BGLC     O4       OC311   -0.650000       15.9994           0
     14959 LPSA14   11       BGLC     HO4      HCP1     0.420000       1.00800           0
     14960 LPSA14   11       BGLC     C6       CC321    0.500000E-01   12.0110           0
     14961 LPSA14   11       BGLC     H61      HCA2     0.900000E-01   1.00800           0
     14962 LPSA14   11       BGLC     H62      HCA2     0.900000E-01   1.00800           0
     14963 LPSA14   11       BGLC     O6       OC311   -0.650000       15.9994           0
     14964 LPSA14   11       BGLC     HO6      HCP1     0.420000       1.00800           0
     14965 LPSA14   12       BGLCNA   C1       CC3162   0.290000       12.0110           0
     14966 LPSA14   12       BGLCNA   H1       HCA1     0.900000E-01   1.00800           0
     14967 LPSA14   12       BGLCNA   C5       CC3163   0.110000       12.0110           0
     14968 LPSA14   12       BGLCNA   H5       HCA1     0.900000E-01   1.00800           0
     14969 LPSA14   12       BGLCNA   O5       OC3C61  -0.400000       15.9994           0
     14970 LPSA14   12       BGLCNA   C2       CC3161   0.700000E-01   12.0110           0
     14971 LPSA14   12       BGLCNA   H2       HCA1     0.900000E-01   1.00800           0
     14972 LPSA14   12       BGLCNA   N        NC2D1   -0.470000       14.0070           0
     14973 LPSA14   12       BGLCNA   HN       HCP1     0.310000       1.00800           0
     14974 LPSA14   12       BGLCNA   C        CC2O1    0.510000       12.0110           0
     14975 LPSA14   12       BGLCNA   O        OC2D1   -0.510000       15.9994           0
     14976 LPSA14   12       BGLCNA   CT       CC331   -0.270000       12.0110           0
     14977 LPSA14   12       BGLCNA   HT1      HCA3     0.900000E-01   1.00800           0
     14978 LPSA14   12       BGLCNA   HT2      HCA3     0.900000E-01   1.00800           0
     14979 LPSA14   12       BGLCNA   HT3      HCA3     0.900000E-01   1.00800           0
     14980 LPSA14   12       BGLCNA   C3       CC3161   0.900000E-01   12.0110           0
     14981 LPSA14   12       BGLCNA   H3       HCA1     0.900000E-01   1.00800           0
     14982 LPSA14   12       BGLCNA   O3       OC301   -0.360000       15.9994           0
     14983 LPSA14   12       BGLCNA   C4       CC3161   0.140000       12.0110           0
     14984 LPSA14   12       BGLCNA   H4       HCA1     0.900000E-01   1.00800           0
     14985 LPSA14   12       BGLCNA   O4       OC311   -0.650000       15.9994           0
     14986 LPSA14   12       BGLCNA   HO4      HCP1     0.420000       1.00800           0
     14987 LPSA14   12       BGLCNA   C6       CC321    0.500000E-01   12.0110           0
     14988 LPSA14   12       BGLCNA   H61      HCA2     0.900000E-01   1.00800           0
     14989 LPSA14   12       BGLCNA   H62      HCA2     0.900000E-01   1.00800           0
     14990 LPSA14   12       BGLCNA   O6       OC311   -0.650000       15.9994           0
     14991 LPSA14   12       BGLCNA   HO6      HCP1     0.420000       1.00800           0
     14992 LPSA14   13       AGAL     C1       CC3162   0.290000       12.0110           0
     14993 LPSA14   13       AGAL     H1       HCA1     0.900000E-01   1.00800           0
     14994 LPSA14   13       AGAL     C5       CC3163   0.110000       12.0110           0
     14995 LPSA14   13       AGAL     H5       HCA1     0.900000E-01   1.00800           0
     14996 LPSA14   13       AGAL     O5       OC3C61  -0.400000       15.9994           0
     14997 LPSA14   13       AGAL     C2       CC3161   0.900000E-01   12.0110           0
     14998 LPSA14   13       AGAL     H2       HCA1     0.900000E-01   1.00800           0
     14999 LPSA14   13       AGAL     O2       OC301   -0.360000       15.9994           0
     15000 LPSA14   13       AGAL     C3       CC3161   0.140000       12.0110           0
     15001 LPSA14   13       AGAL     H3       HCA1     0.900000E-01   1.00800           0
     15002 LPSA14   13       AGAL     O3       OC311   -0.650000       15.9994           0
     15003 LPSA14   13       AGAL     HO3      HCP1     0.420000       1.00800           0
     15004 LPSA14   13       AGAL     C4       CC3161   0.140000       12.0110           0
     15005 LPSA14   13       AGAL     H4       HCA1     0.900000E-01   1.00800           0
     15006 LPSA14   13       AGAL     O4       OC311   -0.650000       15.9994           0
     15007 LPSA14   13       AGAL     HO4      HCP1     0.420000       1.00800           0
     15008 LPSA14   13       AGAL     C6       CC321    0.500000E-01   12.0110           0
     15009 LPSA14   13       AGAL     H61      HCA2     0.900000E-01   1.00800           0
     15010 LPSA14   13       AGAL     H62      HCA2     0.900000E-01   1.00800           0
     15011 LPSA14   13       AGAL     O6       OC311   -0.650000       15.9994           0
     15012 LPSA14   13       AGAL     HO6      HCP1     0.420000       1.00800           0
     15013 LPSA14   14       ARHM     C1       CC3162   0.290000       12.0110           0
     15014 LPSA14   14       ARHM     H1       HCA1     0.900000E-01   1.00800           0
     15015 LPSA14   14       ARHM     C5       CC3163   0.110000       12.0110           0
     15016 LPSA14   14       ARHM     H5       HCA1     0.900000E-01   1.00800           0
     15017 LPSA14   14       ARHM     O5       OC3C61  -0.400000       15.9994           0
     15018 LPSA14   14       ARHM     C2       CC3161   0.900000E-01   12.0110           0
     15019 LPSA14   14       ARHM     H2       HCA1     0.900000E-01   1.00800           0
     15020 LPSA14   14       ARHM     O2       OC301   -0.360000       15.9994           0
     15021 LPSA14   14       ARHM     C3       CC3161   0.140000       12.0110           0
     15022 LPSA14   14       ARHM     H3       HCA1     0.900000E-01   1.00800           0
     15023 LPSA14   14       ARHM     O3       OC311   -0.650000       15.9994           0
     15024 LPSA14   14       ARHM     HO3      HCP1     0.420000       1.00800           0
     15025 LPSA14   14       ARHM     C4       CC3161   0.140000       12.0110           0
     15026 LPSA14   14       ARHM     H4       HCA1     0.900000E-01   1.00800           0
     15027 LPSA14   14       ARHM     O4       OC311   -0.650000       15.9994           0
     15028 LPSA14   14       ARHM     HO4      HCP1     0.420000       1.00800           0
     15029 LPSA14   14       ARHM     C6       CC331   -0.270000       12.0110           0
     15030 LPSA14   14       ARHM     H61      HCA3     0.900000E-01   1.00800           0
     15031 LPSA14   14       ARHM     H62      HCA3     0.900000E-01   1.00800           0
     15032 LPSA14   14       ARHM     H63      HCA3     0.900000E-01   1.00800           0
     15033 LPSA14   15       ARHM     C1       CC3162   0.290000       12.0110           0
     15034 LPSA14   15       ARHM     H1       HCA1     0.900000E-01   1.00800           0
     15035 LPSA14   15       ARHM     C5       CC3163   0.110000       12.0110           0
     15036 LPSA14   15       ARHM     H5       HCA1     0.900000E-01   1.00800           0
     15037 LPSA14   15       ARHM     O5       OC3C61  -0.400000       15.9994           0
     15038 LPSA14   15       ARHM     C2       CC3161   0.900000E-01   12.0110           0
     15039 LPSA14   15       ARHM     H2       HCA1     0.900000E-01   1.00800           0
     15040 LPSA14   15       ARHM     O2       OC301   -0.360000       15.9994           0
     15041 LPSA14   15       ARHM     C3       CC3161   0.900000E-01   12.0110           0
     15042 LPSA14   15       ARHM     H3       HCA1     0.900000E-01   1.00800           0
     15043 LPSA14   15       ARHM     O3       OC301   -0.360000       15.9994           0
     15044 LPSA14   15       ARHM     C4       CC3161   0.140000       12.0110           0
     15045 LPSA14   15       ARHM     H4       HCA1     0.900000E-01   1.00800           0
     15046 LPSA14   15       ARHM     O4       OC311   -0.650000       15.9994           0
     15047 LPSA14   15       ARHM     HO4      HCP1     0.420000       1.00800           0
     15048 LPSA14   15       ARHM     C6       CC331   -0.270000       12.0110           0
     15049 LPSA14   15       ARHM     H61      HCA3     0.900000E-01   1.00800           0
     15050 LPSA14   15       ARHM     H62      HCA3     0.900000E-01   1.00800           0
     15051 LPSA14   15       ARHM     H63      HCA3     0.900000E-01   1.00800           0
     15052 LPSA14   16       BMANNA   C1       CC3162   0.290000       12.0110           0
     15053 LPSA14   16       BMANNA   H1       HCA1     0.900000E-01   1.00800           0
     15054 LPSA14   16       BMANNA   C5       CC3163   0.110000       12.0110           0
     15055 LPSA14   16       BMANNA   H5       HCA1     0.900000E-01   1.00800           0
     15056 LPSA14   16       BMANNA   O5       OC3C61  -0.400000       15.9994           0
     15057 LPSA14   16       BMANNA   C2       CC3161   0.700000E-01   12.0110           0
     15058 LPSA14   16       BMANNA   H2       HCA1     0.900000E-01   1.00800           0
     15059 LPSA14   16       BMANNA   N        NC2D1   -0.470000       14.0070           0
     15060 LPSA14   16       BMANNA   HN       HCP1     0.310000       1.00800           0
     15061 LPSA14   16       BMANNA   C        CC2O1    0.510000       12.0110           0
     15062 LPSA14   16       BMANNA   O        OC2D1   -0.510000       15.9994           0
     15063 LPSA14   16       BMANNA   CT       CC331   -0.270000       12.0110           0
     15064 LPSA14   16       BMANNA   HT1      HCA3     0.900000E-01   1.00800           0
     15065 LPSA14   16       BMANNA   HT2      HCA3     0.900000E-01   1.00800           0
     15066 LPSA14   16       BMANNA   HT3      HCA3     0.900000E-01   1.00800           0
     15067 LPSA14   16       BMANNA   C3       CC3161   0.140000       12.0110           0
     15068 LPSA14   16       BMANNA   H3       HCA1     0.900000E-01   1.00800           0
     15069 LPSA14   16       BMANNA   O3       OC311   -0.650000       15.9994           0
     15070 LPSA14   16       BMANNA   HO3      HCP1     0.420000       1.00800           0
     15071 LPSA14   16       BMANNA   C4       CC3161   0.140000       12.0110           0
     15072 LPSA14   16       BMANNA   H4       HCA1     0.900000E-01   1.00800           0
     15073 LPSA14   16       BMANNA   O4       OC311   -0.650000       15.9994           0
     15074 LPSA14   16       BMANNA   HO4      HCP1     0.420000       1.00800           0
     15075 LPSA14   16       BMANNA   C6       CC321    0.500000E-01   12.0110           0
     15076 LPSA14   16       BMANNA   H61      HCA2     0.900000E-01   1.00800           0
     15077 LPSA14   16       BMANNA   H62      HCA2     0.900000E-01   1.00800           0
     15078 LPSA14   16       BMANNA   O6       OC311   -0.650000       15.9994           0
     15079 LPSA14   16       BMANNA   HO6      HCP1     0.420000       1.00800           0
     15080 LPSA14   17       BGLCNA   C1       CC3162   0.290000       12.0110           0
     15081 LPSA14   17       BGLCNA   H1       HCA1     0.900000E-01   1.00800           0
     15082 LPSA14   17       BGLCNA   C5       CC3163   0.110000       12.0110           0
     15083 LPSA14   17       BGLCNA   H5       HCA1     0.900000E-01   1.00800           0
     15084 LPSA14   17       BGLCNA   O5       OC3C61  -0.400000       15.9994           0
     15085 LPSA14   17       BGLCNA   C2       CC3161   0.700000E-01   12.0110           0
     15086 LPSA14   17       BGLCNA   H2       HCA1     0.900000E-01   1.00800           0
     15087 LPSA14   17       BGLCNA   N        NC2D1   -0.470000       14.0070           0
     15088 LPSA14   17       BGLCNA   HN       HCP1     0.310000       1.00800           0
     15089 LPSA14   17       BGLCNA   C        CC2O1    0.510000       12.0110           0
     15090 LPSA14   17       BGLCNA   O        OC2D1   -0.510000       15.9994           0
     15091 LPSA14   17       BGLCNA   CT       CC331   -0.270000       12.0110           0
     15092 LPSA14   17       BGLCNA   HT1      HCA3     0.900000E-01   1.00800           0
     15093 LPSA14   17       BGLCNA   HT2      HCA3     0.900000E-01   1.00800           0
     15094 LPSA14   17       BGLCNA   HT3      HCA3     0.900000E-01   1.00800           0
     15095 LPSA14   17       BGLCNA   C3       CC3161   0.900000E-01   12.0110           0
     15096 LPSA14   17       BGLCNA   H3       HCA1     0.900000E-01   1.00800           0
     15097 LPSA14   17       BGLCNA   O3       OC301   -0.360000       15.9994           0
     15098 LPSA14   17       BGLCNA   C4       CC3161   0.140000       12.0110           0
     15099 LPSA14   17       BGLCNA   H4       HCA1     0.900000E-01   1.00800           0
     15100 LPSA14   17       BGLCNA   O4       OC311   -0.650000       15.9994           0
     15101 LPSA14   17       BGLCNA   HO4      HCP1     0.420000       1.00800           0
     15102 LPSA14   17       BGLCNA   C6       CC321    0.500000E-01   12.0110           0
     15103 LPSA14   17       BGLCNA   H61      HCA2     0.900000E-01   1.00800           0
     15104 LPSA14   17       BGLCNA   H62      HCA2     0.900000E-01   1.00800           0
     15105 LPSA14   17       BGLCNA   O6       OC311   -0.650000       15.9994           0
     15106 LPSA14   17       BGLCNA   HO6      HCP1     0.420000       1.00800           0
     15107 LPSA14   18       AGAL     C1       CC3162   0.290000       12.0110           0
     15108 LPSA14   18       AGAL     H1       HCA1     0.900000E-01   1.00800           0
     15109 LPSA14   18       AGAL     C5       CC3163   0.110000       12.0110           0
     15110 LPSA14   18       AGAL     H5       HCA1     0.900000E-01   1.00800           0
     15111 LPSA14   18       AGAL     O5       OC3C61  -0.400000       15.9994           0
     15112 LPSA14   18       AGAL     C2       CC3161   0.900000E-01   12.0110           0
     15113 LPSA14   18       AGAL     H2       HCA1     0.900000E-01   1.00800           0
     15114 LPSA14   18       AGAL     O2       OC301   -0.360000       15.9994           0
     15115 LPSA14   18       AGAL     C3       CC3161   0.140000       12.0110           0
     15116 LPSA14   18       AGAL     H3       HCA1     0.900000E-01   1.00800           0
     15117 LPSA14   18       AGAL     O3       OC311   -0.650000       15.9994           0
     15118 LPSA14   18       AGAL     HO3      HCP1     0.420000       1.00800           0
     15119 LPSA14   18       AGAL     C4       CC3161   0.140000       12.0110           0
     15120 LPSA14   18       AGAL     H4       HCA1     0.900000E-01   1.00800           0
     15121 LPSA14   18       AGAL     O4       OC311   -0.650000       15.9994           0
     15122 LPSA14   18       AGAL     HO4      HCP1     0.420000       1.00800           0
     15123 LPSA14   18       AGAL     C6       CC321    0.500000E-01   12.0110           0
     15124 LPSA14   18       AGAL     H61      HCA2     0.900000E-01   1.00800           0
     15125 LPSA14   18       AGAL     H62      HCA2     0.900000E-01   1.00800           0
     15126 LPSA14   18       AGAL     O6       OC311   -0.650000       15.9994           0
     15127 LPSA14   18       AGAL     HO6      HCP1     0.420000       1.00800           0
     15128 LPSA14   19       ARHM     C1       CC3162   0.290000       12.0110           0
     15129 LPSA14   19       ARHM     H1       HCA1     0.900000E-01   1.00800           0
     15130 LPSA14   19       ARHM     C5       CC3163   0.110000       12.0110           0
     15131 LPSA14   19       ARHM     H5       HCA1     0.900000E-01   1.00800           0
     15132 LPSA14   19       ARHM     O5       OC3C61  -0.400000       15.9994           0
     15133 LPSA14   19       ARHM     C2       CC3161   0.900000E-01   12.0110           0
     15134 LPSA14   19       ARHM     H2       HCA1     0.900000E-01   1.00800           0
     15135 LPSA14   19       ARHM     O2       OC301   -0.360000       15.9994           0
     15136 LPSA14   19       ARHM     C3       CC3161   0.140000       12.0110           0
     15137 LPSA14   19       ARHM     H3       HCA1     0.900000E-01   1.00800           0
     15138 LPSA14   19       ARHM     O3       OC311   -0.650000       15.9994           0
     15139 LPSA14   19       ARHM     HO3      HCP1     0.420000       1.00800           0
     15140 LPSA14   19       ARHM     C4       CC3161   0.140000       12.0110           0
     15141 LPSA14   19       ARHM     H4       HCA1     0.900000E-01   1.00800           0
     15142 LPSA14   19       ARHM     O4       OC311   -0.650000       15.9994           0
     15143 LPSA14   19       ARHM     HO4      HCP1     0.420000       1.00800           0
     15144 LPSA14   19       ARHM     C6       CC331   -0.270000       12.0110           0
     15145 LPSA14   19       ARHM     H61      HCA3     0.900000E-01   1.00800           0
     15146 LPSA14   19       ARHM     H62      HCA3     0.900000E-01   1.00800           0
     15147 LPSA14   19       ARHM     H63      HCA3     0.900000E-01   1.00800           0
     15148 LPSA14   20       ARHM     C1       CC3162   0.290000       12.0110           0
     15149 LPSA14   20       ARHM     H1       HCA1     0.900000E-01   1.00800           0
     15150 LPSA14   20       ARHM     C5       CC3163   0.110000       12.0110           0
     15151 LPSA14   20       ARHM     H5       HCA1     0.900000E-01   1.00800           0
     15152 LPSA14   20       ARHM     O5       OC3C61  -0.400000       15.9994           0
     15153 LPSA14   20       ARHM     C2       CC3161   0.900000E-01   12.0110           0
     15154 LPSA14   20       ARHM     H2       HCA1     0.900000E-01   1.00800           0
     15155 LPSA14   20       ARHM     O2       OC301   -0.360000       15.9994           0
     15156 LPSA14   20       ARHM     C3       CC3161   0.900000E-01   12.0110           0
     15157 LPSA14   20       ARHM     H3       HCA1     0.900000E-01   1.00800           0
     15158 LPSA14   20       ARHM     O3       OC301   -0.360000       15.9994           0
     15159 LPSA14   20       ARHM     C4       CC3161   0.140000       12.0110           0
     15160 LPSA14   20       ARHM     H4       HCA1     0.900000E-01   1.00800           0
     15161 LPSA14   20       ARHM     O4       OC311   -0.650000       15.9994           0
     15162 LPSA14   20       ARHM     HO4      HCP1     0.420000       1.00800           0
     15163 LPSA14   20       ARHM     C6       CC331   -0.270000       12.0110           0
     15164 LPSA14   20       ARHM     H61      HCA3     0.900000E-01   1.00800           0
     15165 LPSA14   20       ARHM     H62      HCA3     0.900000E-01   1.00800           0
     15166 LPSA14   20       ARHM     H63      HCA3     0.900000E-01   1.00800           0
     15167 LPSA14   21       BMANNA   C1       CC3162   0.290000       12.0110           0
     15168 LPSA14   21       BMANNA   H1       HCA1     0.900000E-01   1.00800           0
     15169 LPSA14   21       BMANNA   C5       CC3163   0.110000       12.0110           0
     15170 LPSA14   21       BMANNA   H5       HCA1     0.900000E-01   1.00800           0
     15171 LPSA14   21       BMANNA   O5       OC3C61  -0.400000       15.9994           0
     15172 LPSA14   21       BMANNA   C2       CC3161   0.700000E-01   12.0110           0
     15173 LPSA14   21       BMANNA   H2       HCA1     0.900000E-01   1.00800           0
     15174 LPSA14   21       BMANNA   N        NC2D1   -0.470000       14.0070           0
     15175 LPSA14   21       BMANNA   HN       HCP1     0.310000       1.00800           0
     15176 LPSA14   21       BMANNA   C        CC2O1    0.510000       12.0110           0
     15177 LPSA14   21       BMANNA   O        OC2D1   -0.510000       15.9994           0
     15178 LPSA14   21       BMANNA   CT       CC331   -0.270000       12.0110           0
     15179 LPSA14   21       BMANNA   HT1      HCA3     0.900000E-01   1.00800           0
     15180 LPSA14   21       BMANNA   HT2      HCA3     0.900000E-01   1.00800           0
     15181 LPSA14   21       BMANNA   HT3      HCA3     0.900000E-01   1.00800           0
     15182 LPSA14   21       BMANNA   C3       CC3161   0.140000       12.0110           0
     15183 LPSA14   21       BMANNA   H3       HCA1     0.900000E-01   1.00800           0
     15184 LPSA14   21       BMANNA   O3       OC311   -0.650000       15.9994           0
     15185 LPSA14   21       BMANNA   HO3      HCP1     0.420000       1.00800           0
     15186 LPSA14   21       BMANNA   C4       CC3161   0.140000       12.0110           0
     15187 LPSA14   21       BMANNA   H4       HCA1     0.900000E-01   1.00800           0
     15188 LPSA14   21       BMANNA   O4       OC311   -0.650000       15.9994           0
     15189 LPSA14   21       BMANNA   HO4      HCP1     0.420000       1.00800           0
     15190 LPSA14   21       BMANNA   C6       CC321    0.500000E-01   12.0110           0
     15191 LPSA14   21       BMANNA   H61      HCA2     0.900000E-01   1.00800           0
     15192 LPSA14   21       BMANNA   H62      HCA2     0.900000E-01   1.00800           0
     15193 LPSA14   21       BMANNA   O6       OC311   -0.650000       15.9994           0
     15194 LPSA14   21       BMANNA   HO6      HCP1     0.420000       1.00800           0
     15195 LPSA14   22       BGLCNA   C1       CC3162   0.290000       12.0110           0
     15196 LPSA14   22       BGLCNA   H1       HCA1     0.900000E-01   1.00800           0
     15197 LPSA14   22       BGLCNA   C5       CC3163   0.110000       12.0110           0
     15198 LPSA14   22       BGLCNA   H5       HCA1     0.900000E-01   1.00800           0
     15199 LPSA14   22       BGLCNA   O5       OC3C61  -0.400000       15.9994           0
     15200 LPSA14   22       BGLCNA   C2       CC3161   0.700000E-01   12.0110           0
     15201 LPSA14   22       BGLCNA   H2       HCA1     0.900000E-01   1.00800           0
     15202 LPSA14   22       BGLCNA   N        NC2D1   -0.470000       14.0070           0
     15203 LPSA14   22       BGLCNA   HN       HCP1     0.310000       1.00800           0
     15204 LPSA14   22       BGLCNA   C        CC2O1    0.510000       12.0110           0
     15205 LPSA14   22       BGLCNA   O        OC2D1   -0.510000       15.9994           0
     15206 LPSA14   22       BGLCNA   CT       CC331   -0.270000       12.0110           0
     15207 LPSA14   22       BGLCNA   HT1      HCA3     0.900000E-01   1.00800           0
     15208 LPSA14   22       BGLCNA   HT2      HCA3     0.900000E-01   1.00800           0
     15209 LPSA14   22       BGLCNA   HT3      HCA3     0.900000E-01   1.00800           0
     15210 LPSA14   22       BGLCNA   C3       CC3161   0.900000E-01   12.0110           0
     15211 LPSA14   22       BGLCNA   H3       HCA1     0.900000E-01   1.00800           0
     15212 LPSA14   22       BGLCNA   O3       OC301   -0.360000       15.9994           0
     15213 LPSA14   22       BGLCNA   C4       CC3161   0.140000       12.0110           0
     15214 LPSA14   22       BGLCNA   H4       HCA1     0.900000E-01   1.00800           0
     15215 LPSA14   22       BGLCNA   O4       OC311   -0.650000       15.9994           0
     15216 LPSA14   22       BGLCNA   HO4      HCP1     0.420000       1.00800           0
     15217 LPSA14   22       BGLCNA   C6       CC321    0.500000E-01   12.0110           0
     15218 LPSA14   22       BGLCNA   H61      HCA2     0.900000E-01   1.00800           0
     15219 LPSA14   22       BGLCNA   H62      HCA2     0.900000E-01   1.00800           0
     15220 LPSA14   22       BGLCNA   O6       OC311   -0.650000       15.9994           0
     15221 LPSA14   22       BGLCNA   HO6      HCP1     0.420000       1.00800           0
     15222 LPSA14   23       AGAL     C1       CC3162   0.290000       12.0110           0
     15223 LPSA14   23       AGAL     H1       HCA1     0.900000E-01   1.00800           0
     15224 LPSA14   23       AGAL     C5       CC3163   0.110000       12.0110           0
     15225 LPSA14   23       AGAL     H5       HCA1     0.900000E-01   1.00800           0
     15226 LPSA14   23       AGAL     O5       OC3C61  -0.400000       15.9994           0
     15227 LPSA14   23       AGAL     C2       CC3161   0.900000E-01   12.0110           0
     15228 LPSA14   23       AGAL     H2       HCA1     0.900000E-01   1.00800           0
     15229 LPSA14   23       AGAL     O2       OC301   -0.360000       15.9994           0
     15230 LPSA14   23       AGAL     C3       CC3161   0.140000       12.0110           0
     15231 LPSA14   23       AGAL     H3       HCA1     0.900000E-01   1.00800           0
     15232 LPSA14   23       AGAL     O3       OC311   -0.650000       15.9994           0
     15233 LPSA14   23       AGAL     HO3      HCP1     0.420000       1.00800           0
     15234 LPSA14   23       AGAL     C4       CC3161   0.140000       12.0110           0
     15235 LPSA14   23       AGAL     H4       HCA1     0.900000E-01   1.00800           0
     15236 LPSA14   23       AGAL     O4       OC311   -0.650000       15.9994           0
     15237 LPSA14   23       AGAL     HO4      HCP1     0.420000       1.00800           0
     15238 LPSA14   23       AGAL     C6       CC321    0.500000E-01   12.0110           0
     15239 LPSA14   23       AGAL     H61      HCA2     0.900000E-01   1.00800           0
     15240 LPSA14   23       AGAL     H62      HCA2     0.900000E-01   1.00800           0
     15241 LPSA14   23       AGAL     O6       OC311   -0.650000       15.9994           0
     15242 LPSA14   23       AGAL     HO6      HCP1     0.420000       1.00800           0
     15243 LPSA14   24       ARHM     C1       CC3162   0.290000       12.0110           0
     15244 LPSA14   24       ARHM     H1       HCA1     0.900000E-01   1.00800           0
     15245 LPSA14   24       ARHM     C5       CC3163   0.110000       12.0110           0
     15246 LPSA14   24       ARHM     H5       HCA1     0.900000E-01   1.00800           0
     15247 LPSA14   24       ARHM     O5       OC3C61  -0.400000       15.9994           0
     15248 LPSA14   24       ARHM     C2       CC3161   0.900000E-01   12.0110           0
     15249 LPSA14   24       ARHM     H2       HCA1     0.900000E-01   1.00800           0
     15250 LPSA14   24       ARHM     O2       OC301   -0.360000       15.9994           0
     15251 LPSA14   24       ARHM     C3       CC3161   0.140000       12.0110           0
     15252 LPSA14   24       ARHM     H3       HCA1     0.900000E-01   1.00800           0
     15253 LPSA14   24       ARHM     O3       OC311   -0.650000       15.9994           0
     15254 LPSA14   24       ARHM     HO3      HCP1     0.420000       1.00800           0
     15255 LPSA14   24       ARHM     C4       CC3161   0.140000       12.0110           0
     15256 LPSA14   24       ARHM     H4       HCA1     0.900000E-01   1.00800           0
     15257 LPSA14   24       ARHM     O4       OC311   -0.650000       15.9994           0
     15258 LPSA14   24       ARHM     HO4      HCP1     0.420000       1.00800           0
     15259 LPSA14   24       ARHM     C6       CC331   -0.270000       12.0110           0
     15260 LPSA14   24       ARHM     H61      HCA3     0.900000E-01   1.00800           0
     15261 LPSA14   24       ARHM     H62      HCA3     0.900000E-01   1.00800           0
     15262 LPSA14   24       ARHM     H63      HCA3     0.900000E-01   1.00800           0
     15263 LPSA14   25       ARHM     C1       CC3162   0.290000       12.0110           0
     15264 LPSA14   25       ARHM     H1       HCA1     0.900000E-01   1.00800           0
     15265 LPSA14   25       ARHM     C5       CC3163   0.110000       12.0110           0
     15266 LPSA14   25       ARHM     H5       HCA1     0.900000E-01   1.00800           0
     15267 LPSA14   25       ARHM     O5       OC3C61  -0.400000       15.9994           0
     15268 LPSA14   25       ARHM     C2       CC3161   0.900000E-01   12.0110           0
     15269 LPSA14   25       ARHM     H2       HCA1     0.900000E-01   1.00800           0
     15270 LPSA14   25       ARHM     O2       OC301   -0.360000       15.9994           0
     15271 LPSA14   25       ARHM     C3       CC3161   0.900000E-01   12.0110           0
     15272 LPSA14   25       ARHM     H3       HCA1     0.900000E-01   1.00800           0
     15273 LPSA14   25       ARHM     O3       OC301   -0.360000       15.9994           0
     15274 LPSA14   25       ARHM     C4       CC3161   0.140000       12.0110           0
     15275 LPSA14   25       ARHM     H4       HCA1     0.900000E-01   1.00800           0
     15276 LPSA14   25       ARHM     O4       OC311   -0.650000       15.9994           0
     15277 LPSA14   25       ARHM     HO4      HCP1     0.420000       1.00800           0
     15278 LPSA14   25       ARHM     C6       CC331   -0.270000       12.0110           0
     15279 LPSA14   25       ARHM     H61      HCA3     0.900000E-01   1.00800           0
     15280 LPSA14   25       ARHM     H62      HCA3     0.900000E-01   1.00800           0
     15281 LPSA14   25       ARHM     H63      HCA3     0.900000E-01   1.00800           0
     15282 LPSA14   26       BMANNA   C1       CC3162   0.290000       12.0110           0
     15283 LPSA14   26       BMANNA   H1       HCA1     0.900000E-01   1.00800           0
     15284 LPSA14   26       BMANNA   C5       CC3163   0.110000       12.0110           0
     15285 LPSA14   26       BMANNA   H5       HCA1     0.900000E-01   1.00800           0
     15286 LPSA14   26       BMANNA   O5       OC3C61  -0.400000       15.9994           0
     15287 LPSA14   26       BMANNA   C2       CC3161   0.700000E-01   12.0110           0
     15288 LPSA14   26       BMANNA   H2       HCA1     0.900000E-01   1.00800           0
     15289 LPSA14   26       BMANNA   N        NC2D1   -0.470000       14.0070           0
     15290 LPSA14   26       BMANNA   HN       HCP1     0.310000       1.00800           0
     15291 LPSA14   26       BMANNA   C        CC2O1    0.510000       12.0110           0
     15292 LPSA14   26       BMANNA   O        OC2D1   -0.510000       15.9994           0
     15293 LPSA14   26       BMANNA   CT       CC331   -0.270000       12.0110           0
     15294 LPSA14   26       BMANNA   HT1      HCA3     0.900000E-01   1.00800           0
     15295 LPSA14   26       BMANNA   HT2      HCA3     0.900000E-01   1.00800           0
     15296 LPSA14   26       BMANNA   HT3      HCA3     0.900000E-01   1.00800           0
     15297 LPSA14   26       BMANNA   C3       CC3161   0.140000       12.0110           0
     15298 LPSA14   26       BMANNA   H3       HCA1     0.900000E-01   1.00800           0
     15299 LPSA14   26       BMANNA   O3       OC311   -0.650000       15.9994           0
     15300 LPSA14   26       BMANNA   HO3      HCP1     0.420000       1.00800           0
     15301 LPSA14   26       BMANNA   C4       CC3161   0.140000       12.0110           0
     15302 LPSA14   26       BMANNA   H4       HCA1     0.900000E-01   1.00800           0
     15303 LPSA14   26       BMANNA   O4       OC311   -0.650000       15.9994           0
     15304 LPSA14   26       BMANNA   HO4      HCP1     0.420000       1.00800           0
     15305 LPSA14   26       BMANNA   C6       CC321    0.500000E-01   12.0110           0
     15306 LPSA14   26       BMANNA   H61      HCA2     0.900000E-01   1.00800           0
     15307 LPSA14   26       BMANNA   H62      HCA2     0.900000E-01   1.00800           0
     15308 LPSA14   26       BMANNA   O6       OC311   -0.650000       15.9994           0
     15309 LPSA14   26       BMANNA   HO6      HCP1     0.420000       1.00800           0
     15310 LPSA14   27       BGLCNA   C1       CC3162   0.290000       12.0110           0
     15311 LPSA14   27       BGLCNA   H1       HCA1     0.900000E-01   1.00800           0
     15312 LPSA14   27       BGLCNA   C5       CC3163   0.110000       12.0110           0
     15313 LPSA14   27       BGLCNA   H5       HCA1     0.900000E-01   1.00800           0
     15314 LPSA14   27       BGLCNA   O5       OC3C61  -0.400000       15.9994           0
     15315 LPSA14   27       BGLCNA   C2       CC3161   0.700000E-01   12.0110           0
     15316 LPSA14   27       BGLCNA   H2       HCA1     0.900000E-01   1.00800           0
     15317 LPSA14   27       BGLCNA   N        NC2D1   -0.470000       14.0070           0
     15318 LPSA14   27       BGLCNA   HN       HCP1     0.310000       1.00800           0
     15319 LPSA14   27       BGLCNA   C        CC2O1    0.510000       12.0110           0
     15320 LPSA14   27       BGLCNA   O        OC2D1   -0.510000       15.9994           0
     15321 LPSA14   27       BGLCNA   CT       CC331   -0.270000       12.0110           0
     15322 LPSA14   27       BGLCNA   HT1      HCA3     0.900000E-01   1.00800           0
     15323 LPSA14   27       BGLCNA   HT2      HCA3     0.900000E-01   1.00800           0
     15324 LPSA14   27       BGLCNA   HT3      HCA3     0.900000E-01   1.00800           0
     15325 LPSA14   27       BGLCNA   C3       CC3161   0.900000E-01   12.0110           0
     15326 LPSA14   27       BGLCNA   H3       HCA1     0.900000E-01   1.00800           0
     15327 LPSA14   27       BGLCNA   O3       OC301   -0.360000       15.9994           0
     15328 LPSA14   27       BGLCNA   C4       CC3161   0.140000       12.0110           0
     15329 LPSA14   27       BGLCNA   H4       HCA1     0.900000E-01   1.00800           0
     15330 LPSA14   27       BGLCNA   O4       OC311   -0.650000       15.9994           0
     15331 LPSA14   27       BGLCNA   HO4      HCP1     0.420000       1.00800           0
     15332 LPSA14   27       BGLCNA   C6       CC321    0.500000E-01   12.0110           0
     15333 LPSA14   27       BGLCNA   H61      HCA2     0.900000E-01   1.00800           0
     15334 LPSA14   27       BGLCNA   H62      HCA2     0.900000E-01   1.00800           0
     15335 LPSA14   27       BGLCNA   O6       OC311   -0.650000       15.9994           0
     15336 LPSA14   27       BGLCNA   HO6      HCP1     0.420000       1.00800           0
     15337 LPSA14   28       AGAL     C1       CC3162   0.290000       12.0110           0
     15338 LPSA14   28       AGAL     H1       HCA1     0.900000E-01   1.00800           0
     15339 LPSA14   28       AGAL     C5       CC3163   0.110000       12.0110           0
     15340 LPSA14   28       AGAL     H5       HCA1     0.900000E-01   1.00800           0
     15341 LPSA14   28       AGAL     O5       OC3C61  -0.400000       15.9994           0
     15342 LPSA14   28       AGAL     C2       CC3161   0.900000E-01   12.0110           0
     15343 LPSA14   28       AGAL     H2       HCA1     0.900000E-01   1.00800           0
     15344 LPSA14   28       AGAL     O2       OC301   -0.360000       15.9994           0
     15345 LPSA14   28       AGAL     C3       CC3161   0.140000       12.0110           0
     15346 LPSA14   28       AGAL     H3       HCA1     0.900000E-01   1.00800           0
     15347 LPSA14   28       AGAL     O3       OC311   -0.650000       15.9994           0
     15348 LPSA14   28       AGAL     HO3      HCP1     0.420000       1.00800           0
     15349 LPSA14   28       AGAL     C4       CC3161   0.140000       12.0110           0
     15350 LPSA14   28       AGAL     H4       HCA1     0.900000E-01   1.00800           0
     15351 LPSA14   28       AGAL     O4       OC311   -0.650000       15.9994           0
     15352 LPSA14   28       AGAL     HO4      HCP1     0.420000       1.00800           0
     15353 LPSA14   28       AGAL     C6       CC321    0.500000E-01   12.0110           0
     15354 LPSA14   28       AGAL     H61      HCA2     0.900000E-01   1.00800           0
     15355 LPSA14   28       AGAL     H62      HCA2     0.900000E-01   1.00800           0
     15356 LPSA14   28       AGAL     O6       OC311   -0.650000       15.9994           0
     15357 LPSA14   28       AGAL     HO6      HCP1     0.420000       1.00800           0
     15358 LPSA14   29       ARHM     C1       CC3162   0.290000       12.0110           0
     15359 LPSA14   29       ARHM     H1       HCA1     0.900000E-01   1.00800           0
     15360 LPSA14   29       ARHM     C5       CC3163   0.110000       12.0110           0
     15361 LPSA14   29       ARHM     H5       HCA1     0.900000E-01   1.00800           0
     15362 LPSA14   29       ARHM     O5       OC3C61  -0.400000       15.9994           0
     15363 LPSA14   29       ARHM     C2       CC3161   0.900000E-01   12.0110           0
     15364 LPSA14   29       ARHM     H2       HCA1     0.900000E-01   1.00800           0
     15365 LPSA14   29       ARHM     O2       OC301   -0.360000       15.9994           0
     15366 LPSA14   29       ARHM     C3       CC3161   0.140000       12.0110           0
     15367 LPSA14   29       ARHM     H3       HCA1     0.900000E-01   1.00800           0
     15368 LPSA14   29       ARHM     O3       OC311   -0.650000       15.9994           0
     15369 LPSA14   29       ARHM     HO3      HCP1     0.420000       1.00800           0
     15370 LPSA14   29       ARHM     C4       CC3161   0.140000       12.0110           0
     15371 LPSA14   29       ARHM     H4       HCA1     0.900000E-01   1.00800           0
     15372 LPSA14   29       ARHM     O4       OC311   -0.650000       15.9994           0
     15373 LPSA14   29       ARHM     HO4      HCP1     0.420000       1.00800           0
     15374 LPSA14   29       ARHM     C6       CC331   -0.270000       12.0110           0
     15375 LPSA14   29       ARHM     H61      HCA3     0.900000E-01   1.00800           0
     15376 LPSA14   29       ARHM     H62      HCA3     0.900000E-01   1.00800           0
     15377 LPSA14   29       ARHM     H63      HCA3     0.900000E-01   1.00800           0
     15378 LPSA14   30       ARHM     C1       CC3162   0.290000       12.0110           0
     15379 LPSA14   30       ARHM     H1       HCA1     0.900000E-01   1.00800           0
     15380 LPSA14   30       ARHM     C5       CC3163   0.110000       12.0110           0
     15381 LPSA14   30       ARHM     H5       HCA1     0.900000E-01   1.00800           0
     15382 LPSA14   30       ARHM     O5       OC3C61  -0.400000       15.9994           0
     15383 LPSA14   30       ARHM     C2       CC3161   0.900000E-01   12.0110           0
     15384 LPSA14   30       ARHM     H2       HCA1     0.900000E-01   1.00800           0
     15385 LPSA14   30       ARHM     O2       OC301   -0.360000       15.9994           0
     15386 LPSA14   30       ARHM     C3       CC3161   0.900000E-01   12.0110           0
     15387 LPSA14   30       ARHM     H3       HCA1     0.900000E-01   1.00800           0
     15388 LPSA14   30       ARHM     O3       OC301   -0.360000       15.9994           0
     15389 LPSA14   30       ARHM     C4       CC3161   0.140000       12.0110           0
     15390 LPSA14   30       ARHM     H4       HCA1     0.900000E-01   1.00800           0
     15391 LPSA14   30       ARHM     O4       OC311   -0.650000       15.9994           0
     15392 LPSA14   30       ARHM     HO4      HCP1     0.420000       1.00800           0
     15393 LPSA14   30       ARHM     C6       CC331   -0.270000       12.0110           0
     15394 LPSA14   30       ARHM     H61      HCA3     0.900000E-01   1.00800           0
     15395 LPSA14   30       ARHM     H62      HCA3     0.900000E-01   1.00800           0
     15396 LPSA14   30       ARHM     H63      HCA3     0.900000E-01   1.00800           0
     15397 LPSA14   31       BMANNA   C1       CC3162   0.290000       12.0110           0
     15398 LPSA14   31       BMANNA   H1       HCA1     0.900000E-01   1.00800           0
     15399 LPSA14   31       BMANNA   C5       CC3163   0.110000       12.0110           0
     15400 LPSA14   31       BMANNA   H5       HCA1     0.900000E-01   1.00800           0
     15401 LPSA14   31       BMANNA   O5       OC3C61  -0.400000       15.9994           0
     15402 LPSA14   31       BMANNA   C2       CC3161   0.700000E-01   12.0110           0
     15403 LPSA14   31       BMANNA   H2       HCA1     0.900000E-01   1.00800           0
     15404 LPSA14   31       BMANNA   N        NC2D1   -0.470000       14.0070           0
     15405 LPSA14   31       BMANNA   HN       HCP1     0.310000       1.00800           0
     15406 LPSA14   31       BMANNA   C        CC2O1    0.510000       12.0110           0
     15407 LPSA14   31       BMANNA   O        OC2D1   -0.510000       15.9994           0
     15408 LPSA14   31       BMANNA   CT       CC331   -0.270000       12.0110           0
     15409 LPSA14   31       BMANNA   HT1      HCA3     0.900000E-01   1.00800           0
     15410 LPSA14   31       BMANNA   HT2      HCA3     0.900000E-01   1.00800           0
     15411 LPSA14   31       BMANNA   HT3      HCA3     0.900000E-01   1.00800           0
     15412 LPSA14   31       BMANNA   C3       CC3161   0.140000       12.0110           0
     15413 LPSA14   31       BMANNA   H3       HCA1     0.900000E-01   1.00800           0
     15414 LPSA14   31       BMANNA   O3       OC311   -0.650000       15.9994           0
     15415 LPSA14   31       BMANNA   HO3      HCP1     0.420000       1.00800           0
     15416 LPSA14   31       BMANNA   C4       CC3161   0.140000       12.0110           0
     15417 LPSA14   31       BMANNA   H4       HCA1     0.900000E-01   1.00800           0
     15418 LPSA14   31       BMANNA   O4       OC311   -0.650000       15.9994           0
     15419 LPSA14   31       BMANNA   HO4      HCP1     0.420000       1.00800           0
     15420 LPSA14   31       BMANNA   C6       CC321    0.500000E-01   12.0110           0
     15421 LPSA14   31       BMANNA   H61      HCA2     0.900000E-01   1.00800           0
     15422 LPSA14   31       BMANNA   H62      HCA2     0.900000E-01   1.00800           0
     15423 LPSA14   31       BMANNA   O6       OC311   -0.650000       15.9994           0
     15424 LPSA14   31       BMANNA   HO6      HCP1     0.420000       1.00800           0
     15425 LPSA14   32       BGLCNA   C1       CC3162   0.290000       12.0110           0
     15426 LPSA14   32       BGLCNA   H1       HCA1     0.900000E-01   1.00800           0
     15427 LPSA14   32       BGLCNA   C5       CC3163   0.110000       12.0110           0
     15428 LPSA14   32       BGLCNA   H5       HCA1     0.900000E-01   1.00800           0
     15429 LPSA14   32       BGLCNA   O5       OC3C61  -0.400000       15.9994           0
     15430 LPSA14   32       BGLCNA   C2       CC3161   0.700000E-01   12.0110           0
     15431 LPSA14   32       BGLCNA   H2       HCA1     0.900000E-01   1.00800           0
     15432 LPSA14   32       BGLCNA   N        NC2D1   -0.470000       14.0070           0
     15433 LPSA14   32       BGLCNA   HN       HCP1     0.310000       1.00800           0
     15434 LPSA14   32       BGLCNA   C        CC2O1    0.510000       12.0110           0
     15435 LPSA14   32       BGLCNA   O        OC2D1   -0.510000       15.9994           0
     15436 LPSA14   32       BGLCNA   CT       CC331   -0.270000       12.0110           0
     15437 LPSA14   32       BGLCNA   HT1      HCA3     0.900000E-01   1.00800           0
     15438 LPSA14   32       BGLCNA   HT2      HCA3     0.900000E-01   1.00800           0
     15439 LPSA14   32       BGLCNA   HT3      HCA3     0.900000E-01   1.00800           0
     15440 LPSA14   32       BGLCNA   C3       CC3161   0.900000E-01   12.0110           0
     15441 LPSA14   32       BGLCNA   H3       HCA1     0.900000E-01   1.00800           0
     15442 LPSA14   32       BGLCNA   O3       OC301   -0.360000       15.9994           0
     15443 LPSA14   32       BGLCNA   C4       CC3161   0.140000       12.0110           0
     15444 LPSA14   32       BGLCNA   H4       HCA1     0.900000E-01   1.00800           0
     15445 LPSA14   32       BGLCNA   O4       OC311   -0.650000       15.9994           0
     15446 LPSA14   32       BGLCNA   HO4      HCP1     0.420000       1.00800           0
     15447 LPSA14   32       BGLCNA   C6       CC321    0.500000E-01   12.0110           0
     15448 LPSA14   32       BGLCNA   H61      HCA2     0.900000E-01   1.00800           0
     15449 LPSA14   32       BGLCNA   H62      HCA2     0.900000E-01   1.00800           0
     15450 LPSA14   32       BGLCNA   O6       OC311   -0.650000       15.9994           0
     15451 LPSA14   32       BGLCNA   HO6      HCP1     0.420000       1.00800           0
     15452 LPSA14   33       AGAL     C1       CC3162   0.290000       12.0110           0
     15453 LPSA14   33       AGAL     H1       HCA1     0.900000E-01   1.00800           0
     15454 LPSA14   33       AGAL     C5       CC3163   0.110000       12.0110           0
     15455 LPSA14   33       AGAL     H5       HCA1     0.900000E-01   1.00800           0
     15456 LPSA14   33       AGAL     O5       OC3C61  -0.400000       15.9994           0
     15457 LPSA14   33       AGAL     C2       CC3161   0.900000E-01   12.0110           0
     15458 LPSA14   33       AGAL     H2       HCA1     0.900000E-01   1.00800           0
     15459 LPSA14   33       AGAL     O2       OC301   -0.360000       15.9994           0
     15460 LPSA14   33       AGAL     C3       CC3161   0.140000       12.0110           0
     15461 LPSA14   33       AGAL     H3       HCA1     0.900000E-01   1.00800           0
     15462 LPSA14   33       AGAL     O3       OC311   -0.650000       15.9994           0
     15463 LPSA14   33       AGAL     HO3      HCP1     0.420000       1.00800           0
     15464 LPSA14   33       AGAL     C4       CC3161   0.140000       12.0110           0
     15465 LPSA14   33       AGAL     H4       HCA1     0.900000E-01   1.00800           0
     15466 LPSA14   33       AGAL     O4       OC311   -0.650000       15.9994           0
     15467 LPSA14   33       AGAL     HO4      HCP1     0.420000       1.00800           0
     15468 LPSA14   33       AGAL     C6       CC321    0.500000E-01   12.0110           0
     15469 LPSA14   33       AGAL     H61      HCA2     0.900000E-01   1.00800           0
     15470 LPSA14   33       AGAL     H62      HCA2     0.900000E-01   1.00800           0
     15471 LPSA14   33       AGAL     O6       OC311   -0.650000       15.9994           0
     15472 LPSA14   33       AGAL     HO6      HCP1     0.420000       1.00800           0
     15473 LPSA14   34       ARHM     C1       CC3162   0.290000       12.0110           0
     15474 LPSA14   34       ARHM     H1       HCA1     0.900000E-01   1.00800           0
     15475 LPSA14   34       ARHM     C5       CC3163   0.110000       12.0110           0
     15476 LPSA14   34       ARHM     H5       HCA1     0.900000E-01   1.00800           0
     15477 LPSA14   34       ARHM     O5       OC3C61  -0.400000       15.9994           0
     15478 LPSA14   34       ARHM     C2       CC3161   0.900000E-01   12.0110           0
     15479 LPSA14   34       ARHM     H2       HCA1     0.900000E-01   1.00800           0
     15480 LPSA14   34       ARHM     O2       OC301   -0.360000       15.9994           0
     15481 LPSA14   34       ARHM     C3       CC3161   0.140000       12.0110           0
     15482 LPSA14   34       ARHM     H3       HCA1     0.900000E-01   1.00800           0
     15483 LPSA14   34       ARHM     O3       OC311   -0.650000       15.9994           0
     15484 LPSA14   34       ARHM     HO3      HCP1     0.420000       1.00800           0
     15485 LPSA14   34       ARHM     C4       CC3161   0.140000       12.0110           0
     15486 LPSA14   34       ARHM     H4       HCA1     0.900000E-01   1.00800           0
     15487 LPSA14   34       ARHM     O4       OC311   -0.650000       15.9994           0
     15488 LPSA14   34       ARHM     HO4      HCP1     0.420000       1.00800           0
     15489 LPSA14   34       ARHM     C6       CC331   -0.270000       12.0110           0
     15490 LPSA14   34       ARHM     H61      HCA3     0.900000E-01   1.00800           0
     15491 LPSA14   34       ARHM     H62      HCA3     0.900000E-01   1.00800           0
     15492 LPSA14   34       ARHM     H63      HCA3     0.900000E-01   1.00800           0
     15493 LPSA14   35       ARHM     C1       CC3162   0.290000       12.0110           0
     15494 LPSA14   35       ARHM     H1       HCA1     0.900000E-01   1.00800           0
     15495 LPSA14   35       ARHM     C5       CC3163   0.110000       12.0110           0
     15496 LPSA14   35       ARHM     H5       HCA1     0.900000E-01   1.00800           0
     15497 LPSA14   35       ARHM     O5       OC3C61  -0.400000       15.9994           0
     15498 LPSA14   35       ARHM     C2       CC3161   0.900000E-01   12.0110           0
     15499 LPSA14   35       ARHM     H2       HCA1     0.900000E-01   1.00800           0
     15500 LPSA14   35       ARHM     O2       OC301   -0.360000       15.9994           0
     15501 LPSA14   35       ARHM     C3       CC3161   0.140000       12.0110           0
     15502 LPSA14   35       ARHM     H3       HCA1     0.900000E-01   1.00800           0
     15503 LPSA14   35       ARHM     O3       OC311   -0.650000       15.9994           0
     15504 LPSA14   35       ARHM     HO3      HCP1     0.420000       1.00800           0
     15505 LPSA14   35       ARHM     C4       CC3161   0.140000       12.0110           0
     15506 LPSA14   35       ARHM     H4       HCA1     0.900000E-01   1.00800           0
     15507 LPSA14   35       ARHM     O4       OC311   -0.650000       15.9994           0
     15508 LPSA14   35       ARHM     HO4      HCP1     0.420000       1.00800           0
     15509 LPSA14   35       ARHM     C6       CC331   -0.270000       12.0110           0
     15510 LPSA14   35       ARHM     H61      HCA3     0.900000E-01   1.00800           0
     15511 LPSA14   35       ARHM     H62      HCA3     0.900000E-01   1.00800           0
     15512 LPSA14   35       ARHM     H63      HCA3     0.900000E-01   1.00800           0
     15513 LPSA14   36       BMANNA   C1       CC3162   0.290000       12.0110           0
     15514 LPSA14   36       BMANNA   H1       HCA1     0.900000E-01   1.00800           0
     15515 LPSA14   36       BMANNA   C5       CC3163   0.110000       12.0110           0
     15516 LPSA14   36       BMANNA   H5       HCA1     0.900000E-01   1.00800           0
     15517 LPSA14   36       BMANNA   O5       OC3C61  -0.400000       15.9994           0
     15518 LPSA14   36       BMANNA   C2       CC3161   0.700000E-01   12.0110           0
     15519 LPSA14   36       BMANNA   H2       HCA1     0.900000E-01   1.00800           0
     15520 LPSA14   36       BMANNA   N        NC2D1   -0.470000       14.0070           0
     15521 LPSA14   36       BMANNA   HN       HCP1     0.310000       1.00800           0
     15522 LPSA14   36       BMANNA   C        CC2O1    0.510000       12.0110           0
     15523 LPSA14   36       BMANNA   O        OC2D1   -0.510000       15.9994           0
     15524 LPSA14   36       BMANNA   CT       CC331   -0.270000       12.0110           0
     15525 LPSA14   36       BMANNA   HT1      HCA3     0.900000E-01   1.00800           0
     15526 LPSA14   36       BMANNA   HT2      HCA3     0.900000E-01   1.00800           0
     15527 LPSA14   36       BMANNA   HT3      HCA3     0.900000E-01   1.00800           0
     15528 LPSA14   36       BMANNA   C3       CC3161   0.140000       12.0110           0
     15529 LPSA14   36       BMANNA   H3       HCA1     0.900000E-01   1.00800           0
     15530 LPSA14   36       BMANNA   O3       OC311   -0.650000       15.9994           0
     15531 LPSA14   36       BMANNA   HO3      HCP1     0.420000       1.00800           0
     15532 LPSA14   36       BMANNA   C4       CC3161   0.140000       12.0110           0
     15533 LPSA14   36       BMANNA   H4       HCA1     0.900000E-01   1.00800           0
     15534 LPSA14   36       BMANNA   O4       OC311   -0.650000       15.9994           0
     15535 LPSA14   36       BMANNA   HO4      HCP1     0.420000       1.00800           0
     15536 LPSA14   36       BMANNA   C6       CC321    0.500000E-01   12.0110           0
     15537 LPSA14   36       BMANNA   H61      HCA2     0.900000E-01   1.00800           0
     15538 LPSA14   36       BMANNA   H62      HCA2     0.900000E-01   1.00800           0
     15539 LPSA14   36       BMANNA   O6       OC311   -0.650000       15.9994           0
     15540 LPSA14   36       BMANNA   HO6      HCP1     0.420000       1.00800           0
     15541 LPSA15   1        ECLIPA   HB6S     HCA2     0.900000E-01   1.00800           0
     15542 LPSA15   1        ECLIPA   OB6      OC301   -0.360000       15.9994           0
     15543 LPSA15   1        ECLIPA   CB6      CC321     0.00000       12.0110           0
     15544 LPSA15   1        ECLIPA   HB6R     HCA2     0.900000E-01   1.00800           0
     15545 LPSA15   1        ECLIPA   CB5      CC3163   0.110000       12.0110           0
     15546 LPSA15   1        ECLIPA   OB5      OC3C61  -0.400000       15.9994           0
     15547 LPSA15   1        ECLIPA   HB5      HCA1     0.900000E-01   1.00800           0
     15548 LPSA15   1        ECLIPA   CB1      CC3162   0.290000       12.0110           0
     15549 LPSA15   1        ECLIPA   HB1      HCA1     0.900000E-01   1.00800           0
     15550 LPSA15   1        ECLIPA   OA6      OC301   -0.360000       15.9994           0
     15551 LPSA15   1        ECLIPA   CA6      CC321     0.00000       12.0110           0
     15552 LPSA15   1        ECLIPA   HA6R     HCA2     0.900000E-01   1.00800           0
     15553 LPSA15   1        ECLIPA   HA6S     HCA2     0.900000E-01   1.00800           0
     15554 LPSA15   1        ECLIPA   CB4      CC3161  -0.900000E-01   12.0110           0
     15555 LPSA15   1        ECLIPA   HB4      HCA1     0.900000E-01   1.00800           0
     15556 LPSA15   1        ECLIPA   OB4      OC30P   -0.400000       15.9994           0
     15557 LPSA15   1        ECLIPA   PB       PC        1.10000       30.9740           0
     15558 LPSA15   1        ECLIPA   OPB4     OC2DP   -0.900000       15.9994           0
     15559 LPSA15   1        ECLIPA   OPB3     OC2DP   -0.900000       15.9994           0
     15560 LPSA15   1        ECLIPA   OPB2     OC2DP   -0.900000       15.9994           0
     15561 LPSA15   1        ECLIPA   CB3      CC3161   0.170000       12.0110           0
     15562 LPSA15   1        ECLIPA   OB3      OC301   -0.490000       15.9994           0
     15563 LPSA15   1        ECLIPA   HB3      HCA1     0.900000E-01   1.00800           0
     15564 LPSA15   1        ECLIPA   C71      CL       0.900000       12.0110           0
     15565 LPSA15   1        ECLIPA   O71      OBL     -0.630000       15.9994           0
     15566 LPSA15   1        ECLIPA   C72      CTL2    -0.220000       12.0110           0
     15567 LPSA15   1        ECLIPA   H72R     HAL2     0.900000E-01   1.00800           0
     15568 LPSA15   1        ECLIPA   H72S     HAL2     0.900000E-01   1.00800           0
     15569 LPSA15   1        ECLIPA   CB2      CC3161   0.700000E-01   12.0110           0
     15570 LPSA15   1        ECLIPA   HB2      HCA1     0.900000E-01   1.00800           0
     15571 LPSA15   1        ECLIPA   NB2      NC2D1   -0.470000       14.0070           0
     15572 LPSA15   1        ECLIPA   HNB2     HCP1     0.310000       1.00800           0
     15573 LPSA15   1        ECLIPA   CA4      CC3161   0.140000       12.0110           0
     15574 LPSA15   1        ECLIPA   HA4      HCA1     0.900000E-01   1.00800           0
     15575 LPSA15   1        ECLIPA   OA4      OC311   -0.650000       15.9994           0
     15576 LPSA15   1        ECLIPA   HOA4     HCP1     0.420000       1.00800           0
     15577 LPSA15   1        ECLIPA   CA5      CC3163   0.110000       12.0110           0
     15578 LPSA15   1        ECLIPA   HA5      HCA1     0.900000E-01   1.00800           0
     15579 LPSA15   1        ECLIPA   OA5      OC3C61  -0.400000       15.9994           0
     15580 LPSA15   1        ECLIPA   CA1      CC3162   0.110000       12.0110           0
     15581 LPSA15   1        ECLIPA   HA1      HCA1     0.900000E-01   1.00800           0
     15582 LPSA15   1        ECLIPA   OA1      OC30P   -0.400000       15.9994           0
     15583 LPSA15   1        ECLIPA   OPA2     OC2DP   -0.900000       15.9994           0
     15584 LPSA15   1        ECLIPA   OPA3     OC2DP   -0.900000       15.9994           0
     15585 LPSA15   1        ECLIPA   OPA4     OC2DP   -0.900000       15.9994           0
     15586 LPSA15   1        ECLIPA   PA       PC        1.10000       30.9740           0
     15587 LPSA15   1        ECLIPA   CA3      CC3161   0.170000       12.0110           0
     15588 LPSA15   1        ECLIPA   HA3      HCA1     0.900000E-01   1.00800           0
     15589 LPSA15   1        ECLIPA   OA3      OC301   -0.490000       15.9994           0
     15590 LPSA15   1        ECLIPA   C31      CL       0.900000       12.0110           0
     15591 LPSA15   1        ECLIPA   O31      OBL     -0.630000       15.9994           0
     15592 LPSA15   1        ECLIPA   C32      CTL2    -0.220000       12.0110           0
     15593 LPSA15   1        ECLIPA   H32R     HAL2     0.900000E-01   1.00800           0
     15594 LPSA15   1        ECLIPA   H32S     HAL2     0.900000E-01   1.00800           0
     15595 LPSA15   1        ECLIPA   CA2      CC3161   0.700000E-01   12.0110           0
     15596 LPSA15   1        ECLIPA   HA2      HCA1     0.900000E-01   1.00800           0
     15597 LPSA15   1        ECLIPA   NA2      NC2D1   -0.470000       14.0070           0
     15598 LPSA15   1        ECLIPA   HNA2     HCP1     0.310000       1.00800           0
     15599 LPSA15   1        ECLIPA   C73      CTL1     0.170000       12.0110           0
     15600 LPSA15   1        ECLIPA   H73R     HAL1     0.900000E-01   1.00800           0
     15601 LPSA15   1        ECLIPA   O73      OSL     -0.490000       15.9994           0
     15602 LPSA15   1        ECLIPA   C81      CL       0.900000       12.0110           0
     15603 LPSA15   1        ECLIPA   O81      OBL     -0.630000       15.9994           0
     15604 LPSA15   1        ECLIPA   C82      CTL2    -0.220000       12.0110           0
     15605 LPSA15   1        ECLIPA   H82R     HAL2     0.900000E-01   1.00800           0
     15606 LPSA15   1        ECLIPA   H82S     HAL2     0.900000E-01   1.00800           0
     15607 LPSA15   1        ECLIPA   C83      CTL2    -0.180000       12.0110           0
     15608 LPSA15   1        ECLIPA   H83R     HAL2     0.900000E-01   1.00800           0
     15609 LPSA15   1        ECLIPA   H83S     HAL2     0.900000E-01   1.00800           0
     15610 LPSA15   1        ECLIPA   C84      CTL2    -0.180000       12.0110           0
     15611 LPSA15   1        ECLIPA   H84R     HAL2     0.900000E-01   1.00800           0
     15612 LPSA15   1        ECLIPA   H84S     HAL2     0.900000E-01   1.00800           0
     15613 LPSA15   1        ECLIPA   C85      CTL2    -0.180000       12.0110           0
     15614 LPSA15   1        ECLIPA   H85R     HAL2     0.900000E-01   1.00800           0
     15615 LPSA15   1        ECLIPA   H85S     HAL2     0.900000E-01   1.00800           0
     15616 LPSA15   1        ECLIPA   C86      CTL2    -0.180000       12.0110           0
     15617 LPSA15   1        ECLIPA   H86R     HAL2     0.900000E-01   1.00800           0
     15618 LPSA15   1        ECLIPA   H86S     HAL2     0.900000E-01   1.00800           0
     15619 LPSA15   1        ECLIPA   C87      CTL2    -0.180000       12.0110           0
     15620 LPSA15   1        ECLIPA   H87R     HAL2     0.900000E-01   1.00800           0
     15621 LPSA15   1        ECLIPA   H87S     HAL2     0.900000E-01   1.00800           0
     15622 LPSA15   1        ECLIPA   C88      CTL2    -0.180000       12.0110           0
     15623 LPSA15   1        ECLIPA   H88R     HAL2     0.900000E-01   1.00800           0
     15624 LPSA15   1        ECLIPA   H88S     HAL2     0.900000E-01   1.00800           0
     15625 LPSA15   1        ECLIPA   C89      CTL2    -0.180000       12.0110           0
     15626 LPSA15   1        ECLIPA   H89R     HAL2     0.900000E-01   1.00800           0
     15627 LPSA15   1        ECLIPA   H89S     HAL2     0.900000E-01   1.00800           0
     15628 LPSA15   1        ECLIPA   C810     CTL2    -0.180000       12.0110           0
     15629 LPSA15   1        ECLIPA   H810R    HAL2     0.900000E-01   1.00800           0
     15630 LPSA15   1        ECLIPA   H810S    HAL2     0.900000E-01   1.00800           0
     15631 LPSA15   1        ECLIPA   C811     CTL2    -0.180000       12.0110           0
     15632 LPSA15   1        ECLIPA   H811R    HAL2     0.900000E-01   1.00800           0
     15633 LPSA15   1        ECLIPA   H811S    HAL2     0.900000E-01   1.00800           0
     15634 LPSA15   1        ECLIPA   C812     CTL2    -0.180000       12.0110           0
     15635 LPSA15   1        ECLIPA   H812R    HAL2     0.900000E-01   1.00800           0
     15636 LPSA15   1        ECLIPA   H812S    HAL2     0.900000E-01   1.00800           0
     15637 LPSA15   1        ECLIPA   C813     CTL2    -0.180000       12.0110           0
     15638 LPSA15   1        ECLIPA   H813R    HAL2     0.900000E-01   1.00800           0
     15639 LPSA15   1        ECLIPA   H813S    HAL2     0.900000E-01   1.00800           0
     15640 LPSA15   1        ECLIPA   C814     CTL3    -0.270000       12.0110           0
     15641 LPSA15   1        ECLIPA   H814R    HAL3     0.900000E-01   1.00800           0
     15642 LPSA15   1        ECLIPA   H814S    HAL3     0.900000E-01   1.00800           0
     15643 LPSA15   1        ECLIPA   H814T    HAL3     0.900000E-01   1.00800           0
     15644 LPSA15   1        ECLIPA   C74      CTL2    -0.180000       12.0110           0
     15645 LPSA15   1        ECLIPA   H74R     HAL2     0.900000E-01   1.00800           0
     15646 LPSA15   1        ECLIPA   H74S     HAL2     0.900000E-01   1.00800           0
     15647 LPSA15   1        ECLIPA   C75      CTL2    -0.180000       12.0110           0
     15648 LPSA15   1        ECLIPA   H75R     HAL2     0.900000E-01   1.00800           0
     15649 LPSA15   1        ECLIPA   H75S     HAL2     0.900000E-01   1.00800           0
     15650 LPSA15   1        ECLIPA   C76      CTL2    -0.180000       12.0110           0
     15651 LPSA15   1        ECLIPA   H76R     HAL2     0.900000E-01   1.00800           0
     15652 LPSA15   1        ECLIPA   H76S     HAL2     0.900000E-01   1.00800           0
     15653 LPSA15   1        ECLIPA   C77      CTL2    -0.180000       12.0110           0
     15654 LPSA15   1        ECLIPA   H77R     HAL2     0.900000E-01   1.00800           0
     15655 LPSA15   1        ECLIPA   H77S     HAL2     0.900000E-01   1.00800           0
     15656 LPSA15   1        ECLIPA   C78      CTL2    -0.180000       12.0110           0
     15657 LPSA15   1        ECLIPA   H78R     HAL2     0.900000E-01   1.00800           0
     15658 LPSA15   1        ECLIPA   H78S     HAL2     0.900000E-01   1.00800           0
     15659 LPSA15   1        ECLIPA   C79      CTL2    -0.180000       12.0110           0
     15660 LPSA15   1        ECLIPA   H79R     HAL2     0.900000E-01   1.00800           0
     15661 LPSA15   1        ECLIPA   H79S     HAL2     0.900000E-01   1.00800           0
     15662 LPSA15   1        ECLIPA   C710     CTL2    -0.180000       12.0110           0
     15663 LPSA15   1        ECLIPA   H710R    HAL2     0.900000E-01   1.00800           0
     15664 LPSA15   1        ECLIPA   H710S    HAL2     0.900000E-01   1.00800           0
     15665 LPSA15   1        ECLIPA   C711     CTL2    -0.180000       12.0110           0
     15666 LPSA15   1        ECLIPA   H711R    HAL2     0.900000E-01   1.00800           0
     15667 LPSA15   1        ECLIPA   H711S    HAL2     0.900000E-01   1.00800           0
     15668 LPSA15   1        ECLIPA   C712     CTL2    -0.180000       12.0110           0
     15669 LPSA15   1        ECLIPA   H712R    HAL2     0.900000E-01   1.00800           0
     15670 LPSA15   1        ECLIPA   H712S    HAL2     0.900000E-01   1.00800           0
     15671 LPSA15   1        ECLIPA   C713     CTL2    -0.180000       12.0110           0
     15672 LPSA15   1        ECLIPA   H713R    HAL2     0.900000E-01   1.00800           0
     15673 LPSA15   1        ECLIPA   H713S    HAL2     0.900000E-01   1.00800           0
     15674 LPSA15   1        ECLIPA   C714     CTL3    -0.270000       12.0110           0
     15675 LPSA15   1        ECLIPA   H714R    HAL3     0.900000E-01   1.00800           0
     15676 LPSA15   1        ECLIPA   H714S    HAL3     0.900000E-01   1.00800           0
     15677 LPSA15   1        ECLIPA   H714T    HAL3     0.900000E-01   1.00800           0
     15678 LPSA15   1        ECLIPA   C51      CC2O1    0.550000       12.0110           0
     15679 LPSA15   1        ECLIPA   O51      OC2D1   -0.550000       15.9994           0
     15680 LPSA15   1        ECLIPA   C52      CTL2    -0.180000       12.0110           0
     15681 LPSA15   1        ECLIPA   H52R     HAL2     0.900000E-01   1.00800           0
     15682 LPSA15   1        ECLIPA   H52S     HAL2     0.900000E-01   1.00800           0
     15683 LPSA15   1        ECLIPA   C53      CTL1     0.170000       12.0110           0
     15684 LPSA15   1        ECLIPA   H53R     HAL1     0.900000E-01   1.00800           0
     15685 LPSA15   1        ECLIPA   O53      OSL     -0.490000       15.9994           0
     15686 LPSA15   1        ECLIPA   C61      CL       0.900000       12.0110           0
     15687 LPSA15   1        ECLIPA   O61      OBL     -0.630000       15.9994           0
     15688 LPSA15   1        ECLIPA   C62      CTL2    -0.220000       12.0110           0
     15689 LPSA15   1        ECLIPA   H62R     HAL2     0.900000E-01   1.00800           0
     15690 LPSA15   1        ECLIPA   H62S     HAL2     0.900000E-01   1.00800           0
     15691 LPSA15   1        ECLIPA   C63      CTL2    -0.180000       12.0110           0
     15692 LPSA15   1        ECLIPA   H63R     HAL2     0.900000E-01   1.00800           0
     15693 LPSA15   1        ECLIPA   H63S     HAL2     0.900000E-01   1.00800           0
     15694 LPSA15   1        ECLIPA   C64      CTL2    -0.180000       12.0110           0
     15695 LPSA15   1        ECLIPA   H64R     HAL2     0.900000E-01   1.00800           0
     15696 LPSA15   1        ECLIPA   H64S     HAL2     0.900000E-01   1.00800           0
     15697 LPSA15   1        ECLIPA   C65      CTL2    -0.180000       12.0110           0
     15698 LPSA15   1        ECLIPA   H65R     HAL2     0.900000E-01   1.00800           0
     15699 LPSA15   1        ECLIPA   H65S     HAL2     0.900000E-01   1.00800           0
     15700 LPSA15   1        ECLIPA   C66      CTL2    -0.180000       12.0110           0
     15701 LPSA15   1        ECLIPA   H66R     HAL2     0.900000E-01   1.00800           0
     15702 LPSA15   1        ECLIPA   H66S     HAL2     0.900000E-01   1.00800           0
     15703 LPSA15   1        ECLIPA   C67      CTL2    -0.180000       12.0110           0
     15704 LPSA15   1        ECLIPA   H67R     HAL2     0.900000E-01   1.00800           0
     15705 LPSA15   1        ECLIPA   H67S     HAL2     0.900000E-01   1.00800           0
     15706 LPSA15   1        ECLIPA   C68      CTL2    -0.180000       12.0110           0
     15707 LPSA15   1        ECLIPA   H68R     HAL2     0.900000E-01   1.00800           0
     15708 LPSA15   1        ECLIPA   H68S     HAL2     0.900000E-01   1.00800           0
     15709 LPSA15   1        ECLIPA   C69      CTL2    -0.180000       12.0110           0
     15710 LPSA15   1        ECLIPA   H69R     HAL2     0.900000E-01   1.00800           0
     15711 LPSA15   1        ECLIPA   H69S     HAL2     0.900000E-01   1.00800           0
     15712 LPSA15   1        ECLIPA   C610     CTL2    -0.180000       12.0110           0
     15713 LPSA15   1        ECLIPA   H610R    HAL2     0.900000E-01   1.00800           0
     15714 LPSA15   1        ECLIPA   H610S    HAL2     0.900000E-01   1.00800           0
     15715 LPSA15   1        ECLIPA   C611     CTL2    -0.180000       12.0110           0
     15716 LPSA15   1        ECLIPA   H611R    HAL2     0.900000E-01   1.00800           0
     15717 LPSA15   1        ECLIPA   H611S    HAL2     0.900000E-01   1.00800           0
     15718 LPSA15   1        ECLIPA   C612     CTL3    -0.270000       12.0110           0
     15719 LPSA15   1        ECLIPA   H612R    HAL3     0.900000E-01   1.00800           0
     15720 LPSA15   1        ECLIPA   H612S    HAL3     0.900000E-01   1.00800           0
     15721 LPSA15   1        ECLIPA   H612T    HAL3     0.900000E-01   1.00800           0
     15722 LPSA15   1        ECLIPA   C54      CTL2    -0.180000       12.0110           0
     15723 LPSA15   1        ECLIPA   H54R     HAL2     0.900000E-01   1.00800           0
     15724 LPSA15   1        ECLIPA   H54S     HAL2     0.900000E-01   1.00800           0
     15725 LPSA15   1        ECLIPA   C55      CTL2    -0.180000       12.0110           0
     15726 LPSA15   1        ECLIPA   H55R     HAL2     0.900000E-01   1.00800           0
     15727 LPSA15   1        ECLIPA   H55S     HAL2     0.900000E-01   1.00800           0
     15728 LPSA15   1        ECLIPA   C56      CTL2    -0.180000       12.0110           0
     15729 LPSA15   1        ECLIPA   H56R     HAL2     0.900000E-01   1.00800           0
     15730 LPSA15   1        ECLIPA   H56S     HAL2     0.900000E-01   1.00800           0
     15731 LPSA15   1        ECLIPA   C57      CTL2    -0.180000       12.0110           0
     15732 LPSA15   1        ECLIPA   H57R     HAL2     0.900000E-01   1.00800           0
     15733 LPSA15   1        ECLIPA   H57S     HAL2     0.900000E-01   1.00800           0
     15734 LPSA15   1        ECLIPA   C58      CTL2    -0.180000       12.0110           0
     15735 LPSA15   1        ECLIPA   H58R     HAL2     0.900000E-01   1.00800           0
     15736 LPSA15   1        ECLIPA   H58S     HAL2     0.900000E-01   1.00800           0
     15737 LPSA15   1        ECLIPA   C59      CTL2    -0.180000       12.0110           0
     15738 LPSA15   1        ECLIPA   H59R     HAL2     0.900000E-01   1.00800           0
     15739 LPSA15   1        ECLIPA   H59S     HAL2     0.900000E-01   1.00800           0
     15740 LPSA15   1        ECLIPA   C510     CTL2    -0.180000       12.0110           0
     15741 LPSA15   1        ECLIPA   H510R    HAL2     0.900000E-01   1.00800           0
     15742 LPSA15   1        ECLIPA   H510S    HAL2     0.900000E-01   1.00800           0
     15743 LPSA15   1        ECLIPA   C511     CTL2    -0.180000       12.0110           0
     15744 LPSA15   1        ECLIPA   H511R    HAL2     0.900000E-01   1.00800           0
     15745 LPSA15   1        ECLIPA   H511S    HAL2     0.900000E-01   1.00800           0
     15746 LPSA15   1        ECLIPA   C512     CTL2    -0.180000       12.0110           0
     15747 LPSA15   1        ECLIPA   H512R    HAL2     0.900000E-01   1.00800           0
     15748 LPSA15   1        ECLIPA   H512S    HAL2     0.900000E-01   1.00800           0
     15749 LPSA15   1        ECLIPA   C513     CTL2    -0.180000       12.0110           0
     15750 LPSA15   1        ECLIPA   H513R    HAL2     0.900000E-01   1.00800           0
     15751 LPSA15   1        ECLIPA   H513S    HAL2     0.900000E-01   1.00800           0
     15752 LPSA15   1        ECLIPA   C514     CTL3    -0.270000       12.0110           0
     15753 LPSA15   1        ECLIPA   H514R    HAL3     0.900000E-01   1.00800           0
     15754 LPSA15   1        ECLIPA   H514S    HAL3     0.900000E-01   1.00800           0
     15755 LPSA15   1        ECLIPA   H514T    HAL3     0.900000E-01   1.00800           0
     15756 LPSA15   1        ECLIPA   C33      CTL1     0.140000       12.0110           0
     15757 LPSA15   1        ECLIPA   H33R     HAL1     0.900000E-01   1.00800           0
     15758 LPSA15   1        ECLIPA   O33      OH1     -0.660000       15.9994           0
     15759 LPSA15   1        ECLIPA   HO33     H        0.430000       1.00800           0
     15760 LPSA15   1        ECLIPA   C34      CTL2    -0.180000       12.0110           0
     15761 LPSA15   1        ECLIPA   H34R     HAL2     0.900000E-01   1.00800           0
     15762 LPSA15   1        ECLIPA   H34S     HAL2     0.900000E-01   1.00800           0
     15763 LPSA15   1        ECLIPA   C35      CTL2    -0.180000       12.0110           0
     15764 LPSA15   1        ECLIPA   H35R     HAL2     0.900000E-01   1.00800           0
     15765 LPSA15   1        ECLIPA   H35S     HAL2     0.900000E-01   1.00800           0
     15766 LPSA15   1        ECLIPA   C36      CTL2    -0.180000       12.0110           0
     15767 LPSA15   1        ECLIPA   H36R     HAL2     0.900000E-01   1.00800           0
     15768 LPSA15   1        ECLIPA   H36S     HAL2     0.900000E-01   1.00800           0
     15769 LPSA15   1        ECLIPA   C37      CTL2    -0.180000       12.0110           0
     15770 LPSA15   1        ECLIPA   H37R     HAL2     0.900000E-01   1.00800           0
     15771 LPSA15   1        ECLIPA   H37S     HAL2     0.900000E-01   1.00800           0
     15772 LPSA15   1        ECLIPA   C38      CTL2    -0.180000       12.0110           0
     15773 LPSA15   1        ECLIPA   H38R     HAL2     0.900000E-01   1.00800           0
     15774 LPSA15   1        ECLIPA   H38S     HAL2     0.900000E-01   1.00800           0
     15775 LPSA15   1        ECLIPA   C39      CTL2    -0.180000       12.0110           0
     15776 LPSA15   1        ECLIPA   H39R     HAL2     0.900000E-01   1.00800           0
     15777 LPSA15   1        ECLIPA   H39S     HAL2     0.900000E-01   1.00800           0
     15778 LPSA15   1        ECLIPA   C310     CTL2    -0.180000       12.0110           0
     15779 LPSA15   1        ECLIPA   H310R    HAL2     0.900000E-01   1.00800           0
     15780 LPSA15   1        ECLIPA   H310S    HAL2     0.900000E-01   1.00800           0
     15781 LPSA15   1        ECLIPA   C311     CTL2    -0.180000       12.0110           0
     15782 LPSA15   1        ECLIPA   H311R    HAL2     0.900000E-01   1.00800           0
     15783 LPSA15   1        ECLIPA   H311S    HAL2     0.900000E-01   1.00800           0
     15784 LPSA15   1        ECLIPA   C312     CTL2    -0.180000       12.0110           0
     15785 LPSA15   1        ECLIPA   H312R    HAL2     0.900000E-01   1.00800           0
     15786 LPSA15   1        ECLIPA   H312S    HAL2     0.900000E-01   1.00800           0
     15787 LPSA15   1        ECLIPA   C313     CTL2    -0.180000       12.0110           0
     15788 LPSA15   1        ECLIPA   H313R    HAL2     0.900000E-01   1.00800           0
     15789 LPSA15   1        ECLIPA   H313S    HAL2     0.900000E-01   1.00800           0
     15790 LPSA15   1        ECLIPA   C314     CTL3    -0.270000       12.0110           0
     15791 LPSA15   1        ECLIPA   H314R    HAL3     0.900000E-01   1.00800           0
     15792 LPSA15   1        ECLIPA   H314S    HAL3     0.900000E-01   1.00800           0
     15793 LPSA15   1        ECLIPA   H314T    HAL3     0.900000E-01   1.00800           0
     15794 LPSA15   1        ECLIPA   C11      CC2O1    0.550000       12.0110           0
     15795 LPSA15   1        ECLIPA   O11      OC2D1   -0.550000       15.9994           0
     15796 LPSA15   1        ECLIPA   C12      CTL2    -0.180000       12.0110           0
     15797 LPSA15   1        ECLIPA   H12R     HAL2     0.900000E-01   1.00800           0
     15798 LPSA15   1        ECLIPA   H12S     HAL2     0.900000E-01   1.00800           0
     15799 LPSA15   1        ECLIPA   C13      CTL1     0.140000       12.0110           0
     15800 LPSA15   1        ECLIPA   H13R     HAL1     0.900000E-01   1.00800           0
     15801 LPSA15   1        ECLIPA   O13      OH1     -0.660000       15.9994           0
     15802 LPSA15   1        ECLIPA   HO13     H        0.430000       1.00800           0
     15803 LPSA15   1        ECLIPA   C14      CTL2    -0.180000       12.0110           0
     15804 LPSA15   1        ECLIPA   H14R     HAL2     0.900000E-01   1.00800           0
     15805 LPSA15   1        ECLIPA   H14S     HAL2     0.900000E-01   1.00800           0
     15806 LPSA15   1        ECLIPA   C15      CTL2    -0.180000       12.0110           0
     15807 LPSA15   1        ECLIPA   H15R     HAL2     0.900000E-01   1.00800           0
     15808 LPSA15   1        ECLIPA   H15S     HAL2     0.900000E-01   1.00800           0
     15809 LPSA15   1        ECLIPA   C16      CTL2    -0.180000       12.0110           0
     15810 LPSA15   1        ECLIPA   H16R     HAL2     0.900000E-01   1.00800           0
     15811 LPSA15   1        ECLIPA   H16S     HAL2     0.900000E-01   1.00800           0
     15812 LPSA15   1        ECLIPA   C17      CTL2    -0.180000       12.0110           0
     15813 LPSA15   1        ECLIPA   H17R     HAL2     0.900000E-01   1.00800           0
     15814 LPSA15   1        ECLIPA   H17S     HAL2     0.900000E-01   1.00800           0
     15815 LPSA15   1        ECLIPA   C18      CTL2    -0.180000       12.0110           0
     15816 LPSA15   1        ECLIPA   H18R     HAL2     0.900000E-01   1.00800           0
     15817 LPSA15   1        ECLIPA   H18S     HAL2     0.900000E-01   1.00800           0
     15818 LPSA15   1        ECLIPA   C19      CTL2    -0.180000       12.0110           0
     15819 LPSA15   1        ECLIPA   H19R     HAL2     0.900000E-01   1.00800           0
     15820 LPSA15   1        ECLIPA   H19S     HAL2     0.900000E-01   1.00800           0
     15821 LPSA15   1        ECLIPA   C110     CTL2    -0.180000       12.0110           0
     15822 LPSA15   1        ECLIPA   H110R    HAL2     0.900000E-01   1.00800           0
     15823 LPSA15   1        ECLIPA   H110S    HAL2     0.900000E-01   1.00800           0
     15824 LPSA15   1        ECLIPA   C111     CTL2    -0.180000       12.0110           0
     15825 LPSA15   1        ECLIPA   H111R    HAL2     0.900000E-01   1.00800           0
     15826 LPSA15   1        ECLIPA   H111S    HAL2     0.900000E-01   1.00800           0
     15827 LPSA15   1        ECLIPA   C112     CTL2    -0.180000       12.0110           0
     15828 LPSA15   1        ECLIPA   H112R    HAL2     0.900000E-01   1.00800           0
     15829 LPSA15   1        ECLIPA   H112S    HAL2     0.900000E-01   1.00800           0
     15830 LPSA15   1        ECLIPA   C113     CTL2    -0.180000       12.0110           0
     15831 LPSA15   1        ECLIPA   H113R    HAL2     0.900000E-01   1.00800           0
     15832 LPSA15   1        ECLIPA   H113S    HAL2     0.900000E-01   1.00800           0
     15833 LPSA15   1        ECLIPA   C114     CTL3    -0.270000       12.0110           0
     15834 LPSA15   1        ECLIPA   H114R    HAL3     0.900000E-01   1.00800           0
     15835 LPSA15   1        ECLIPA   H114S    HAL3     0.900000E-01   1.00800           0
     15836 LPSA15   1        ECLIPA   H114T    HAL3     0.900000E-01   1.00800           0
     15837 LPSA15   2        AKDO     C1       CC2O2    0.300000       12.0110           0
     15838 LPSA15   2        AKDO     O11      OC2D2   -0.600000       15.9994           0
     15839 LPSA15   2        AKDO     O12      OC2D2   -0.600000       15.9994           0
     15840 LPSA15   2        AKDO     C2       CC3062   0.280000       12.0110           0
     15841 LPSA15   2        AKDO     C6       CC3163   0.110000       12.0110           0
     15842 LPSA15   2        AKDO     H6       HCA1     0.900000E-01   1.00800           0
     15843 LPSA15   2        AKDO     O6       OC3C61  -0.400000       15.9994           0
     15844 LPSA15   2        AKDO     C3       CC3261  -0.180000       12.0110           0
     15845 LPSA15   2        AKDO     H31      HCA2     0.900000E-01   1.00800           0
     15846 LPSA15   2        AKDO     H32      HCA2     0.900000E-01   1.00800           0
     15847 LPSA15   2        AKDO     C4       CC3161   0.900000E-01   12.0110           0
     15848 LPSA15   2        AKDO     H4       HCA1     0.900000E-01   1.00800           0
     15849 LPSA15   2        AKDO     O4       OC301   -0.360000       15.9994           0
     15850 LPSA15   2        AKDO     C5       CC3161   0.900000E-01   12.0110           0
     15851 LPSA15   2        AKDO     H5       HCA1     0.900000E-01   1.00800           0
     15852 LPSA15   2        AKDO     O5       OC301   -0.360000       15.9994           0
     15853 LPSA15   2        AKDO     C7       CC312    0.140000       12.0110           0
     15854 LPSA15   2        AKDO     H7       HCA1     0.900000E-01   1.00800           0
     15855 LPSA15   2        AKDO     O7       OC311   -0.650000       15.9994           0
     15856 LPSA15   2        AKDO     HO7      HCP1     0.420000       1.00800           0
     15857 LPSA15   2        AKDO     C8       CC322    0.500000E-01   12.0110           0
     15858 LPSA15   2        AKDO     H81      HCA2     0.900000E-01   1.00800           0
     15859 LPSA15   2        AKDO     H82      HCA2     0.900000E-01   1.00800           0
     15860 LPSA15   2        AKDO     O8       OC311   -0.650000       15.9994           0
     15861 LPSA15   2        AKDO     HO8      HCP1     0.420000       1.00800           0
     15862 LPSA15   3        AKDO     C1       CC2O2    0.300000       12.0110           0
     15863 LPSA15   3        AKDO     O11      OC2D2   -0.600000       15.9994           0
     15864 LPSA15   3        AKDO     O12      OC2D2   -0.600000       15.9994           0
     15865 LPSA15   3        AKDO     C2       CC3062   0.280000       12.0110           0
     15866 LPSA15   3        AKDO     C6       CC3163   0.110000       12.0110           0
     15867 LPSA15   3        AKDO     H6       HCA1     0.900000E-01   1.00800           0
     15868 LPSA15   3        AKDO     O6       OC3C61  -0.400000       15.9994           0
     15869 LPSA15   3        AKDO     C3       CC3261  -0.180000       12.0110           0
     15870 LPSA15   3        AKDO     H31      HCA2     0.900000E-01   1.00800           0
     15871 LPSA15   3        AKDO     H32      HCA2     0.900000E-01   1.00800           0
     15872 LPSA15   3        AKDO     C4       CC3161   0.140000       12.0110           0
     15873 LPSA15   3        AKDO     H4       HCA1     0.900000E-01   1.00800           0
     15874 LPSA15   3        AKDO     O4       OC311   -0.650000       15.9994           0
     15875 LPSA15   3        AKDO     HO4      HCP1     0.420000       1.00800           0
     15876 LPSA15   3        AKDO     C5       CC3161   0.140000       12.0110           0
     15877 LPSA15   3        AKDO     H5       HCA1     0.900000E-01   1.00800           0
     15878 LPSA15   3        AKDO     O5       OC311   -0.650000       15.9994           0
     15879 LPSA15   3        AKDO     HO5      HCP1     0.420000       1.00800           0
     15880 LPSA15   3        AKDO     C7       CC312    0.140000       12.0110           0
     15881 LPSA15   3        AKDO     H7       HCA1     0.900000E-01   1.00800           0
     15882 LPSA15   3        AKDO     O7       OC311   -0.650000       15.9994           0
     15883 LPSA15   3        AKDO     HO7      HCP1     0.420000       1.00800           0
     15884 LPSA15   3        AKDO     C8       CC322    0.500000E-01   12.0110           0
     15885 LPSA15   3        AKDO     H81      HCA2     0.900000E-01   1.00800           0
     15886 LPSA15   3        AKDO     H82      HCA2     0.900000E-01   1.00800           0
     15887 LPSA15   3        AKDO     O8       OC311   -0.650000       15.9994           0
     15888 LPSA15   3        AKDO     HO8      HCP1     0.420000       1.00800           0
     15889 LPSA15   4        AHEP     C1       CC3162   0.290000       12.0110           0
     15890 LPSA15   4        AHEP     H1       HCA1     0.900000E-01   1.00800           0
     15891 LPSA15   4        AHEP     C5       CC3163   0.110000       12.0110           0
     15892 LPSA15   4        AHEP     H5       HCA1     0.900000E-01   1.00800           0
     15893 LPSA15   4        AHEP     O5       OC3C61  -0.400000       15.9994           0
     15894 LPSA15   4        AHEP     C2       CC3161   0.140000       12.0110           0
     15895 LPSA15   4        AHEP     H2       HCA1     0.900000E-01   1.00800           0
     15896 LPSA15   4        AHEP     O2       OC311   -0.650000       15.9994           0
     15897 LPSA15   4        AHEP     HO2      HCP1     0.420000       1.00800           0
     15898 LPSA15   4        AHEP     C3       CC3161   0.900000E-01   12.0110           0
     15899 LPSA15   4        AHEP     H3       HCA1     0.900000E-01   1.00800           0
     15900 LPSA15   4        AHEP     O3       OC301   -0.360000       15.9994           0
     15901 LPSA15   4        AHEP     C4       CC3161  -0.900000E-01   12.0110           0
     15902 LPSA15   4        AHEP     H4       HCA1     0.900000E-01   1.00800           0
     15903 LPSA15   4        AHEP     O4       OC30P   -0.400000       15.9994           0
     15904 LPSA15   4        AHEP     P4       PC        1.10000       30.9740           0
     15905 LPSA15   4        AHEP     OP42     OC2DP   -0.900000       15.9994           0
     15906 LPSA15   4        AHEP     OP43     OC2DP   -0.900000       15.9994           0
     15907 LPSA15   4        AHEP     OP44     OC2DP   -0.900000       15.9994           0
     15908 LPSA15   4        AHEP     C6       CC312    0.140000       12.0110           0
     15909 LPSA15   4        AHEP     H6       HCA1     0.900000E-01   1.00800           0
     15910 LPSA15   4        AHEP     O6       OC311   -0.650000       15.9994           0
     15911 LPSA15   4        AHEP     HO6      HCP1     0.420000       1.00800           0
     15912 LPSA15   4        AHEP     C7       CC322    0.500000E-01   12.0110           0
     15913 LPSA15   4        AHEP     H71      HCA2     0.900000E-01   1.00800           0
     15914 LPSA15   4        AHEP     H72      HCA2     0.900000E-01   1.00800           0
     15915 LPSA15   4        AHEP     O7       OC311   -0.650000       15.9994           0
     15916 LPSA15   4        AHEP     HO7      HCP1     0.420000       1.00800           0
     15917 LPSA15   5        AHEP     C1       CC3162   0.290000       12.0110           0
     15918 LPSA15   5        AHEP     H1       HCA1     0.900000E-01   1.00800           0
     15919 LPSA15   5        AHEP     C5       CC3163   0.110000       12.0110           0
     15920 LPSA15   5        AHEP     H5       HCA1     0.900000E-01   1.00800           0
     15921 LPSA15   5        AHEP     O5       OC3C61  -0.400000       15.9994           0
     15922 LPSA15   5        AHEP     C2       CC3161   0.140000       12.0110           0
     15923 LPSA15   5        AHEP     H2       HCA1     0.900000E-01   1.00800           0
     15924 LPSA15   5        AHEP     O2       OC311   -0.650000       15.9994           0
     15925 LPSA15   5        AHEP     HO2      HCP1     0.420000       1.00800           0
     15926 LPSA15   5        AHEP     C3       CC3161   0.900000E-01   12.0110           0
     15927 LPSA15   5        AHEP     H3       HCA1     0.900000E-01   1.00800           0
     15928 LPSA15   5        AHEP     O3       OC301   -0.360000       15.9994           0
     15929 LPSA15   5        AHEP     C4       CC3161  -0.900000E-01   12.0110           0
     15930 LPSA15   5        AHEP     H4       HCA1     0.900000E-01   1.00800           0
     15931 LPSA15   5        AHEP     O4       OC30P   -0.400000       15.9994           0
     15932 LPSA15   5        AHEP     P4       PC        1.10000       30.9740           0
     15933 LPSA15   5        AHEP     OP42     OC2DP   -0.900000       15.9994           0
     15934 LPSA15   5        AHEP     OP43     OC2DP   -0.900000       15.9994           0
     15935 LPSA15   5        AHEP     OP44     OC2DP   -0.900000       15.9994           0
     15936 LPSA15   5        AHEP     C6       CC312    0.140000       12.0110           0
     15937 LPSA15   5        AHEP     H6       HCA1     0.900000E-01   1.00800           0
     15938 LPSA15   5        AHEP     O6       OC311   -0.650000       15.9994           0
     15939 LPSA15   5        AHEP     HO6      HCP1     0.420000       1.00800           0
     15940 LPSA15   5        AHEP     C7       CC322     0.00000       12.0110           0
     15941 LPSA15   5        AHEP     H71      HCA2     0.900000E-01   1.00800           0
     15942 LPSA15   5        AHEP     H72      HCA2     0.900000E-01   1.00800           0
     15943 LPSA15   5        AHEP     O7       OC301   -0.360000       15.9994           0
     15944 LPSA15   6        AHEP     C1       CC3162   0.290000       12.0110           0
     15945 LPSA15   6        AHEP     H1       HCA1     0.900000E-01   1.00800           0
     15946 LPSA15   6        AHEP     C5       CC3163   0.110000       12.0110           0
     15947 LPSA15   6        AHEP     H5       HCA1     0.900000E-01   1.00800           0
     15948 LPSA15   6        AHEP     O5       OC3C61  -0.400000       15.9994           0
     15949 LPSA15   6        AHEP     C2       CC3161   0.140000       12.0110           0
     15950 LPSA15   6        AHEP     H2       HCA1     0.900000E-01   1.00800           0
     15951 LPSA15   6        AHEP     O2       OC311   -0.650000       15.9994           0
     15952 LPSA15   6        AHEP     HO2      HCP1     0.420000       1.00800           0
     15953 LPSA15   6        AHEP     C3       CC3161   0.140000       12.0110           0
     15954 LPSA15   6        AHEP     H3       HCA1     0.900000E-01   1.00800           0
     15955 LPSA15   6        AHEP     O3       OC311   -0.650000       15.9994           0
     15956 LPSA15   6        AHEP     HO3      HCP1     0.420000       1.00800           0
     15957 LPSA15   6        AHEP     C4       CC3161   0.140000       12.0110           0
     15958 LPSA15   6        AHEP     H4       HCA1     0.900000E-01   1.00800           0
     15959 LPSA15   6        AHEP     O4       OC311   -0.650000       15.9994           0
     15960 LPSA15   6        AHEP     HO4      HCP1     0.420000       1.00800           0
     15961 LPSA15   6        AHEP     C6       CC312    0.140000       12.0110           0
     15962 LPSA15   6        AHEP     H6       HCA1     0.900000E-01   1.00800           0
     15963 LPSA15   6        AHEP     O6       OC311   -0.650000       15.9994           0
     15964 LPSA15   6        AHEP     HO6      HCP1     0.420000       1.00800           0
     15965 LPSA15   6        AHEP     C7       CC322    0.500000E-01   12.0110           0
     15966 LPSA15   6        AHEP     H71      HCA2     0.900000E-01   1.00800           0
     15967 LPSA15   6        AHEP     H72      HCA2     0.900000E-01   1.00800           0
     15968 LPSA15   6        AHEP     O7       OC311   -0.650000       15.9994           0
     15969 LPSA15   6        AHEP     HO7      HCP1     0.420000       1.00800           0
     15970 LPSA15   7        AGLC     C1       CC3162   0.290000       12.0110           0
     15971 LPSA15   7        AGLC     H1       HCA1     0.900000E-01   1.00800           0
     15972 LPSA15   7        AGLC     C5       CC3163   0.110000       12.0110           0
     15973 LPSA15   7        AGLC     H5       HCA1     0.900000E-01   1.00800           0
     15974 LPSA15   7        AGLC     O5       OC3C61  -0.400000       15.9994           0
     15975 LPSA15   7        AGLC     C2       CC3161   0.140000       12.0110           0
     15976 LPSA15   7        AGLC     H2       HCA1     0.900000E-01   1.00800           0
     15977 LPSA15   7        AGLC     O2       OC311   -0.650000       15.9994           0
     15978 LPSA15   7        AGLC     HO2      HCP1     0.420000       1.00800           0
     15979 LPSA15   7        AGLC     C3       CC3161   0.900000E-01   12.0110           0
     15980 LPSA15   7        AGLC     H3       HCA1     0.900000E-01   1.00800           0
     15981 LPSA15   7        AGLC     O3       OC301   -0.360000       15.9994           0
     15982 LPSA15   7        AGLC     C4       CC3161   0.140000       12.0110           0
     15983 LPSA15   7        AGLC     H4       HCA1     0.900000E-01   1.00800           0
     15984 LPSA15   7        AGLC     O4       OC311   -0.650000       15.9994           0
     15985 LPSA15   7        AGLC     HO4      HCP1     0.420000       1.00800           0
     15986 LPSA15   7        AGLC     C6       CC321    0.500000E-01   12.0110           0
     15987 LPSA15   7        AGLC     H61      HCA2     0.900000E-01   1.00800           0
     15988 LPSA15   7        AGLC     H62      HCA2     0.900000E-01   1.00800           0
     15989 LPSA15   7        AGLC     O6       OC311   -0.650000       15.9994           0
     15990 LPSA15   7        AGLC     HO6      HCP1     0.420000       1.00800           0
     15991 LPSA15   8        AGLC     C1       CC3162   0.290000       12.0110           0
     15992 LPSA15   8        AGLC     H1       HCA1     0.900000E-01   1.00800           0
     15993 LPSA15   8        AGLC     C5       CC3163   0.110000       12.0110           0
     15994 LPSA15   8        AGLC     H5       HCA1     0.900000E-01   1.00800           0
     15995 LPSA15   8        AGLC     O5       OC3C61  -0.400000       15.9994           0
     15996 LPSA15   8        AGLC     C2       CC3161   0.900000E-01   12.0110           0
     15997 LPSA15   8        AGLC     H2       HCA1     0.900000E-01   1.00800           0
     15998 LPSA15   8        AGLC     O2       OC301   -0.360000       15.9994           0
     15999 LPSA15   8        AGLC     C3       CC3161   0.900000E-01   12.0110           0
     16000 LPSA15   8        AGLC     H3       HCA1     0.900000E-01   1.00800           0
     16001 LPSA15   8        AGLC     O3       OC301   -0.360000       15.9994           0
     16002 LPSA15   8        AGLC     C4       CC3161   0.140000       12.0110           0
     16003 LPSA15   8        AGLC     H4       HCA1     0.900000E-01   1.00800           0
     16004 LPSA15   8        AGLC     O4       OC311   -0.650000       15.9994           0
     16005 LPSA15   8        AGLC     HO4      HCP1     0.420000       1.00800           0
     16006 LPSA15   8        AGLC     C6       CC321    0.500000E-01   12.0110           0
     16007 LPSA15   8        AGLC     H61      HCA2     0.900000E-01   1.00800           0
     16008 LPSA15   8        AGLC     H62      HCA2     0.900000E-01   1.00800           0
     16009 LPSA15   8        AGLC     O6       OC311   -0.650000       15.9994           0
     16010 LPSA15   8        AGLC     HO6      HCP1     0.420000       1.00800           0
     16011 LPSA15   9        AGAL     C1       CC3162   0.290000       12.0110           0
     16012 LPSA15   9        AGAL     H1       HCA1     0.900000E-01   1.00800           0
     16013 LPSA15   9        AGAL     C5       CC3163   0.110000       12.0110           0
     16014 LPSA15   9        AGAL     H5       HCA1     0.900000E-01   1.00800           0
     16015 LPSA15   9        AGAL     O5       OC3C61  -0.400000       15.9994           0
     16016 LPSA15   9        AGAL     C2       CC3161   0.900000E-01   12.0110           0
     16017 LPSA15   9        AGAL     H2       HCA1     0.900000E-01   1.00800           0
     16018 LPSA15   9        AGAL     O2       OC301   -0.360000       15.9994           0
     16019 LPSA15   9        AGAL     C3       CC3161   0.140000       12.0110           0
     16020 LPSA15   9        AGAL     H3       HCA1     0.900000E-01   1.00800           0
     16021 LPSA15   9        AGAL     O3       OC311   -0.650000       15.9994           0
     16022 LPSA15   9        AGAL     HO3      HCP1     0.420000       1.00800           0
     16023 LPSA15   9        AGAL     C4       CC3161   0.140000       12.0110           0
     16024 LPSA15   9        AGAL     H4       HCA1     0.900000E-01   1.00800           0
     16025 LPSA15   9        AGAL     O4       OC311   -0.650000       15.9994           0
     16026 LPSA15   9        AGAL     HO4      HCP1     0.420000       1.00800           0
     16027 LPSA15   9        AGAL     C6       CC321    0.500000E-01   12.0110           0
     16028 LPSA15   9        AGAL     H61      HCA2     0.900000E-01   1.00800           0
     16029 LPSA15   9        AGAL     H62      HCA2     0.900000E-01   1.00800           0
     16030 LPSA15   9        AGAL     O6       OC311   -0.650000       15.9994           0
     16031 LPSA15   9        AGAL     HO6      HCP1     0.420000       1.00800           0
     16032 LPSA15   10       AGAL     C1       CC3162   0.290000       12.0110           0
     16033 LPSA15   10       AGAL     H1       HCA1     0.900000E-01   1.00800           0
     16034 LPSA15   10       AGAL     C5       CC3163   0.110000       12.0110           0
     16035 LPSA15   10       AGAL     H5       HCA1     0.900000E-01   1.00800           0
     16036 LPSA15   10       AGAL     O5       OC3C61  -0.400000       15.9994           0
     16037 LPSA15   10       AGAL     C2       CC3161   0.140000       12.0110           0
     16038 LPSA15   10       AGAL     H2       HCA1     0.900000E-01   1.00800           0
     16039 LPSA15   10       AGAL     O2       OC311   -0.650000       15.9994           0
     16040 LPSA15   10       AGAL     HO2      HCP1     0.420000       1.00800           0
     16041 LPSA15   10       AGAL     C3       CC3161   0.140000       12.0110           0
     16042 LPSA15   10       AGAL     H3       HCA1     0.900000E-01   1.00800           0
     16043 LPSA15   10       AGAL     O3       OC311   -0.650000       15.9994           0
     16044 LPSA15   10       AGAL     HO3      HCP1     0.420000       1.00800           0
     16045 LPSA15   10       AGAL     C4       CC3161   0.140000       12.0110           0
     16046 LPSA15   10       AGAL     H4       HCA1     0.900000E-01   1.00800           0
     16047 LPSA15   10       AGAL     O4       OC311   -0.650000       15.9994           0
     16048 LPSA15   10       AGAL     HO4      HCP1     0.420000       1.00800           0
     16049 LPSA15   10       AGAL     C6       CC321    0.500000E-01   12.0110           0
     16050 LPSA15   10       AGAL     H61      HCA2     0.900000E-01   1.00800           0
     16051 LPSA15   10       AGAL     H62      HCA2     0.900000E-01   1.00800           0
     16052 LPSA15   10       AGAL     O6       OC311   -0.650000       15.9994           0
     16053 LPSA15   10       AGAL     HO6      HCP1     0.420000       1.00800           0
     16054 LPSA15   11       BGLC     C1       CC3162   0.290000       12.0110           0
     16055 LPSA15   11       BGLC     H1       HCA1     0.900000E-01   1.00800           0
     16056 LPSA15   11       BGLC     C5       CC3163   0.110000       12.0110           0
     16057 LPSA15   11       BGLC     H5       HCA1     0.900000E-01   1.00800           0
     16058 LPSA15   11       BGLC     O5       OC3C61  -0.400000       15.9994           0
     16059 LPSA15   11       BGLC     C2       CC3161   0.140000       12.0110           0
     16060 LPSA15   11       BGLC     H2       HCA1     0.900000E-01   1.00800           0
     16061 LPSA15   11       BGLC     O2       OC311   -0.650000       15.9994           0
     16062 LPSA15   11       BGLC     HO2      HCP1     0.420000       1.00800           0
     16063 LPSA15   11       BGLC     C3       CC3161   0.900000E-01   12.0110           0
     16064 LPSA15   11       BGLC     H3       HCA1     0.900000E-01   1.00800           0
     16065 LPSA15   11       BGLC     O3       OC301   -0.360000       15.9994           0
     16066 LPSA15   11       BGLC     C4       CC3161   0.140000       12.0110           0
     16067 LPSA15   11       BGLC     H4       HCA1     0.900000E-01   1.00800           0
     16068 LPSA15   11       BGLC     O4       OC311   -0.650000       15.9994           0
     16069 LPSA15   11       BGLC     HO4      HCP1     0.420000       1.00800           0
     16070 LPSA15   11       BGLC     C6       CC321    0.500000E-01   12.0110           0
     16071 LPSA15   11       BGLC     H61      HCA2     0.900000E-01   1.00800           0
     16072 LPSA15   11       BGLC     H62      HCA2     0.900000E-01   1.00800           0
     16073 LPSA15   11       BGLC     O6       OC311   -0.650000       15.9994           0
     16074 LPSA15   11       BGLC     HO6      HCP1     0.420000       1.00800           0
     16075 LPSA15   12       BGLCNA   C1       CC3162   0.290000       12.0110           0
     16076 LPSA15   12       BGLCNA   H1       HCA1     0.900000E-01   1.00800           0
     16077 LPSA15   12       BGLCNA   C5       CC3163   0.110000       12.0110           0
     16078 LPSA15   12       BGLCNA   H5       HCA1     0.900000E-01   1.00800           0
     16079 LPSA15   12       BGLCNA   O5       OC3C61  -0.400000       15.9994           0
     16080 LPSA15   12       BGLCNA   C2       CC3161   0.700000E-01   12.0110           0
     16081 LPSA15   12       BGLCNA   H2       HCA1     0.900000E-01   1.00800           0
     16082 LPSA15   12       BGLCNA   N        NC2D1   -0.470000       14.0070           0
     16083 LPSA15   12       BGLCNA   HN       HCP1     0.310000       1.00800           0
     16084 LPSA15   12       BGLCNA   C        CC2O1    0.510000       12.0110           0
     16085 LPSA15   12       BGLCNA   O        OC2D1   -0.510000       15.9994           0
     16086 LPSA15   12       BGLCNA   CT       CC331   -0.270000       12.0110           0
     16087 LPSA15   12       BGLCNA   HT1      HCA3     0.900000E-01   1.00800           0
     16088 LPSA15   12       BGLCNA   HT2      HCA3     0.900000E-01   1.00800           0
     16089 LPSA15   12       BGLCNA   HT3      HCA3     0.900000E-01   1.00800           0
     16090 LPSA15   12       BGLCNA   C3       CC3161   0.900000E-01   12.0110           0
     16091 LPSA15   12       BGLCNA   H3       HCA1     0.900000E-01   1.00800           0
     16092 LPSA15   12       BGLCNA   O3       OC301   -0.360000       15.9994           0
     16093 LPSA15   12       BGLCNA   C4       CC3161   0.140000       12.0110           0
     16094 LPSA15   12       BGLCNA   H4       HCA1     0.900000E-01   1.00800           0
     16095 LPSA15   12       BGLCNA   O4       OC311   -0.650000       15.9994           0
     16096 LPSA15   12       BGLCNA   HO4      HCP1     0.420000       1.00800           0
     16097 LPSA15   12       BGLCNA   C6       CC321    0.500000E-01   12.0110           0
     16098 LPSA15   12       BGLCNA   H61      HCA2     0.900000E-01   1.00800           0
     16099 LPSA15   12       BGLCNA   H62      HCA2     0.900000E-01   1.00800           0
     16100 LPSA15   12       BGLCNA   O6       OC311   -0.650000       15.9994           0
     16101 LPSA15   12       BGLCNA   HO6      HCP1     0.420000       1.00800           0
     16102 LPSA15   13       AGAL     C1       CC3162   0.290000       12.0110           0
     16103 LPSA15   13       AGAL     H1       HCA1     0.900000E-01   1.00800           0
     16104 LPSA15   13       AGAL     C5       CC3163   0.110000       12.0110           0
     16105 LPSA15   13       AGAL     H5       HCA1     0.900000E-01   1.00800           0
     16106 LPSA15   13       AGAL     O5       OC3C61  -0.400000       15.9994           0
     16107 LPSA15   13       AGAL     C2       CC3161   0.900000E-01   12.0110           0
     16108 LPSA15   13       AGAL     H2       HCA1     0.900000E-01   1.00800           0
     16109 LPSA15   13       AGAL     O2       OC301   -0.360000       15.9994           0
     16110 LPSA15   13       AGAL     C3       CC3161   0.140000       12.0110           0
     16111 LPSA15   13       AGAL     H3       HCA1     0.900000E-01   1.00800           0
     16112 LPSA15   13       AGAL     O3       OC311   -0.650000       15.9994           0
     16113 LPSA15   13       AGAL     HO3      HCP1     0.420000       1.00800           0
     16114 LPSA15   13       AGAL     C4       CC3161   0.140000       12.0110           0
     16115 LPSA15   13       AGAL     H4       HCA1     0.900000E-01   1.00800           0
     16116 LPSA15   13       AGAL     O4       OC311   -0.650000       15.9994           0
     16117 LPSA15   13       AGAL     HO4      HCP1     0.420000       1.00800           0
     16118 LPSA15   13       AGAL     C6       CC321    0.500000E-01   12.0110           0
     16119 LPSA15   13       AGAL     H61      HCA2     0.900000E-01   1.00800           0
     16120 LPSA15   13       AGAL     H62      HCA2     0.900000E-01   1.00800           0
     16121 LPSA15   13       AGAL     O6       OC311   -0.650000       15.9994           0
     16122 LPSA15   13       AGAL     HO6      HCP1     0.420000       1.00800           0
     16123 LPSA15   14       ARHM     C1       CC3162   0.290000       12.0110           0
     16124 LPSA15   14       ARHM     H1       HCA1     0.900000E-01   1.00800           0
     16125 LPSA15   14       ARHM     C5       CC3163   0.110000       12.0110           0
     16126 LPSA15   14       ARHM     H5       HCA1     0.900000E-01   1.00800           0
     16127 LPSA15   14       ARHM     O5       OC3C61  -0.400000       15.9994           0
     16128 LPSA15   14       ARHM     C2       CC3161   0.900000E-01   12.0110           0
     16129 LPSA15   14       ARHM     H2       HCA1     0.900000E-01   1.00800           0
     16130 LPSA15   14       ARHM     O2       OC301   -0.360000       15.9994           0
     16131 LPSA15   14       ARHM     C3       CC3161   0.140000       12.0110           0
     16132 LPSA15   14       ARHM     H3       HCA1     0.900000E-01   1.00800           0
     16133 LPSA15   14       ARHM     O3       OC311   -0.650000       15.9994           0
     16134 LPSA15   14       ARHM     HO3      HCP1     0.420000       1.00800           0
     16135 LPSA15   14       ARHM     C4       CC3161   0.140000       12.0110           0
     16136 LPSA15   14       ARHM     H4       HCA1     0.900000E-01   1.00800           0
     16137 LPSA15   14       ARHM     O4       OC311   -0.650000       15.9994           0
     16138 LPSA15   14       ARHM     HO4      HCP1     0.420000       1.00800           0
     16139 LPSA15   14       ARHM     C6       CC331   -0.270000       12.0110           0
     16140 LPSA15   14       ARHM     H61      HCA3     0.900000E-01   1.00800           0
     16141 LPSA15   14       ARHM     H62      HCA3     0.900000E-01   1.00800           0
     16142 LPSA15   14       ARHM     H63      HCA3     0.900000E-01   1.00800           0
     16143 LPSA15   15       ARHM     C1       CC3162   0.290000       12.0110           0
     16144 LPSA15   15       ARHM     H1       HCA1     0.900000E-01   1.00800           0
     16145 LPSA15   15       ARHM     C5       CC3163   0.110000       12.0110           0
     16146 LPSA15   15       ARHM     H5       HCA1     0.900000E-01   1.00800           0
     16147 LPSA15   15       ARHM     O5       OC3C61  -0.400000       15.9994           0
     16148 LPSA15   15       ARHM     C2       CC3161   0.900000E-01   12.0110           0
     16149 LPSA15   15       ARHM     H2       HCA1     0.900000E-01   1.00800           0
     16150 LPSA15   15       ARHM     O2       OC301   -0.360000       15.9994           0
     16151 LPSA15   15       ARHM     C3       CC3161   0.900000E-01   12.0110           0
     16152 LPSA15   15       ARHM     H3       HCA1     0.900000E-01   1.00800           0
     16153 LPSA15   15       ARHM     O3       OC301   -0.360000       15.9994           0
     16154 LPSA15   15       ARHM     C4       CC3161   0.140000       12.0110           0
     16155 LPSA15   15       ARHM     H4       HCA1     0.900000E-01   1.00800           0
     16156 LPSA15   15       ARHM     O4       OC311   -0.650000       15.9994           0
     16157 LPSA15   15       ARHM     HO4      HCP1     0.420000       1.00800           0
     16158 LPSA15   15       ARHM     C6       CC331   -0.270000       12.0110           0
     16159 LPSA15   15       ARHM     H61      HCA3     0.900000E-01   1.00800           0
     16160 LPSA15   15       ARHM     H62      HCA3     0.900000E-01   1.00800           0
     16161 LPSA15   15       ARHM     H63      HCA3     0.900000E-01   1.00800           0
     16162 LPSA15   16       BMANNA   C1       CC3162   0.290000       12.0110           0
     16163 LPSA15   16       BMANNA   H1       HCA1     0.900000E-01   1.00800           0
     16164 LPSA15   16       BMANNA   C5       CC3163   0.110000       12.0110           0
     16165 LPSA15   16       BMANNA   H5       HCA1     0.900000E-01   1.00800           0
     16166 LPSA15   16       BMANNA   O5       OC3C61  -0.400000       15.9994           0
     16167 LPSA15   16       BMANNA   C2       CC3161   0.700000E-01   12.0110           0
     16168 LPSA15   16       BMANNA   H2       HCA1     0.900000E-01   1.00800           0
     16169 LPSA15   16       BMANNA   N        NC2D1   -0.470000       14.0070           0
     16170 LPSA15   16       BMANNA   HN       HCP1     0.310000       1.00800           0
     16171 LPSA15   16       BMANNA   C        CC2O1    0.510000       12.0110           0
     16172 LPSA15   16       BMANNA   O        OC2D1   -0.510000       15.9994           0
     16173 LPSA15   16       BMANNA   CT       CC331   -0.270000       12.0110           0
     16174 LPSA15   16       BMANNA   HT1      HCA3     0.900000E-01   1.00800           0
     16175 LPSA15   16       BMANNA   HT2      HCA3     0.900000E-01   1.00800           0
     16176 LPSA15   16       BMANNA   HT3      HCA3     0.900000E-01   1.00800           0
     16177 LPSA15   16       BMANNA   C3       CC3161   0.140000       12.0110           0
     16178 LPSA15   16       BMANNA   H3       HCA1     0.900000E-01   1.00800           0
     16179 LPSA15   16       BMANNA   O3       OC311   -0.650000       15.9994           0
     16180 LPSA15   16       BMANNA   HO3      HCP1     0.420000       1.00800           0
     16181 LPSA15   16       BMANNA   C4       CC3161   0.140000       12.0110           0
     16182 LPSA15   16       BMANNA   H4       HCA1     0.900000E-01   1.00800           0
     16183 LPSA15   16       BMANNA   O4       OC311   -0.650000       15.9994           0
     16184 LPSA15   16       BMANNA   HO4      HCP1     0.420000       1.00800           0
     16185 LPSA15   16       BMANNA   C6       CC321    0.500000E-01   12.0110           0
     16186 LPSA15   16       BMANNA   H61      HCA2     0.900000E-01   1.00800           0
     16187 LPSA15   16       BMANNA   H62      HCA2     0.900000E-01   1.00800           0
     16188 LPSA15   16       BMANNA   O6       OC311   -0.650000       15.9994           0
     16189 LPSA15   16       BMANNA   HO6      HCP1     0.420000       1.00800           0
     16190 LPSA15   17       BGLCNA   C1       CC3162   0.290000       12.0110           0
     16191 LPSA15   17       BGLCNA   H1       HCA1     0.900000E-01   1.00800           0
     16192 LPSA15   17       BGLCNA   C5       CC3163   0.110000       12.0110           0
     16193 LPSA15   17       BGLCNA   H5       HCA1     0.900000E-01   1.00800           0
     16194 LPSA15   17       BGLCNA   O5       OC3C61  -0.400000       15.9994           0
     16195 LPSA15   17       BGLCNA   C2       CC3161   0.700000E-01   12.0110           0
     16196 LPSA15   17       BGLCNA   H2       HCA1     0.900000E-01   1.00800           0
     16197 LPSA15   17       BGLCNA   N        NC2D1   -0.470000       14.0070           0
     16198 LPSA15   17       BGLCNA   HN       HCP1     0.310000       1.00800           0
     16199 LPSA15   17       BGLCNA   C        CC2O1    0.510000       12.0110           0
     16200 LPSA15   17       BGLCNA   O        OC2D1   -0.510000       15.9994           0
     16201 LPSA15   17       BGLCNA   CT       CC331   -0.270000       12.0110           0
     16202 LPSA15   17       BGLCNA   HT1      HCA3     0.900000E-01   1.00800           0
     16203 LPSA15   17       BGLCNA   HT2      HCA3     0.900000E-01   1.00800           0
     16204 LPSA15   17       BGLCNA   HT3      HCA3     0.900000E-01   1.00800           0
     16205 LPSA15   17       BGLCNA   C3       CC3161   0.900000E-01   12.0110           0
     16206 LPSA15   17       BGLCNA   H3       HCA1     0.900000E-01   1.00800           0
     16207 LPSA15   17       BGLCNA   O3       OC301   -0.360000       15.9994           0
     16208 LPSA15   17       BGLCNA   C4       CC3161   0.140000       12.0110           0
     16209 LPSA15   17       BGLCNA   H4       HCA1     0.900000E-01   1.00800           0
     16210 LPSA15   17       BGLCNA   O4       OC311   -0.650000       15.9994           0
     16211 LPSA15   17       BGLCNA   HO4      HCP1     0.420000       1.00800           0
     16212 LPSA15   17       BGLCNA   C6       CC321    0.500000E-01   12.0110           0
     16213 LPSA15   17       BGLCNA   H61      HCA2     0.900000E-01   1.00800           0
     16214 LPSA15   17       BGLCNA   H62      HCA2     0.900000E-01   1.00800           0
     16215 LPSA15   17       BGLCNA   O6       OC311   -0.650000       15.9994           0
     16216 LPSA15   17       BGLCNA   HO6      HCP1     0.420000       1.00800           0
     16217 LPSA15   18       AGAL     C1       CC3162   0.290000       12.0110           0
     16218 LPSA15   18       AGAL     H1       HCA1     0.900000E-01   1.00800           0
     16219 LPSA15   18       AGAL     C5       CC3163   0.110000       12.0110           0
     16220 LPSA15   18       AGAL     H5       HCA1     0.900000E-01   1.00800           0
     16221 LPSA15   18       AGAL     O5       OC3C61  -0.400000       15.9994           0
     16222 LPSA15   18       AGAL     C2       CC3161   0.900000E-01   12.0110           0
     16223 LPSA15   18       AGAL     H2       HCA1     0.900000E-01   1.00800           0
     16224 LPSA15   18       AGAL     O2       OC301   -0.360000       15.9994           0
     16225 LPSA15   18       AGAL     C3       CC3161   0.140000       12.0110           0
     16226 LPSA15   18       AGAL     H3       HCA1     0.900000E-01   1.00800           0
     16227 LPSA15   18       AGAL     O3       OC311   -0.650000       15.9994           0
     16228 LPSA15   18       AGAL     HO3      HCP1     0.420000       1.00800           0
     16229 LPSA15   18       AGAL     C4       CC3161   0.140000       12.0110           0
     16230 LPSA15   18       AGAL     H4       HCA1     0.900000E-01   1.00800           0
     16231 LPSA15   18       AGAL     O4       OC311   -0.650000       15.9994           0
     16232 LPSA15   18       AGAL     HO4      HCP1     0.420000       1.00800           0
     16233 LPSA15   18       AGAL     C6       CC321    0.500000E-01   12.0110           0
     16234 LPSA15   18       AGAL     H61      HCA2     0.900000E-01   1.00800           0
     16235 LPSA15   18       AGAL     H62      HCA2     0.900000E-01   1.00800           0
     16236 LPSA15   18       AGAL     O6       OC311   -0.650000       15.9994           0
     16237 LPSA15   18       AGAL     HO6      HCP1     0.420000       1.00800           0
     16238 LPSA15   19       ARHM     C1       CC3162   0.290000       12.0110           0
     16239 LPSA15   19       ARHM     H1       HCA1     0.900000E-01   1.00800           0
     16240 LPSA15   19       ARHM     C5       CC3163   0.110000       12.0110           0
     16241 LPSA15   19       ARHM     H5       HCA1     0.900000E-01   1.00800           0
     16242 LPSA15   19       ARHM     O5       OC3C61  -0.400000       15.9994           0
     16243 LPSA15   19       ARHM     C2       CC3161   0.900000E-01   12.0110           0
     16244 LPSA15   19       ARHM     H2       HCA1     0.900000E-01   1.00800           0
     16245 LPSA15   19       ARHM     O2       OC301   -0.360000       15.9994           0
     16246 LPSA15   19       ARHM     C3       CC3161   0.140000       12.0110           0
     16247 LPSA15   19       ARHM     H3       HCA1     0.900000E-01   1.00800           0
     16248 LPSA15   19       ARHM     O3       OC311   -0.650000       15.9994           0
     16249 LPSA15   19       ARHM     HO3      HCP1     0.420000       1.00800           0
     16250 LPSA15   19       ARHM     C4       CC3161   0.140000       12.0110           0
     16251 LPSA15   19       ARHM     H4       HCA1     0.900000E-01   1.00800           0
     16252 LPSA15   19       ARHM     O4       OC311   -0.650000       15.9994           0
     16253 LPSA15   19       ARHM     HO4      HCP1     0.420000       1.00800           0
     16254 LPSA15   19       ARHM     C6       CC331   -0.270000       12.0110           0
     16255 LPSA15   19       ARHM     H61      HCA3     0.900000E-01   1.00800           0
     16256 LPSA15   19       ARHM     H62      HCA3     0.900000E-01   1.00800           0
     16257 LPSA15   19       ARHM     H63      HCA3     0.900000E-01   1.00800           0
     16258 LPSA15   20       ARHM     C1       CC3162   0.290000       12.0110           0
     16259 LPSA15   20       ARHM     H1       HCA1     0.900000E-01   1.00800           0
     16260 LPSA15   20       ARHM     C5       CC3163   0.110000       12.0110           0
     16261 LPSA15   20       ARHM     H5       HCA1     0.900000E-01   1.00800           0
     16262 LPSA15   20       ARHM     O5       OC3C61  -0.400000       15.9994           0
     16263 LPSA15   20       ARHM     C2       CC3161   0.900000E-01   12.0110           0
     16264 LPSA15   20       ARHM     H2       HCA1     0.900000E-01   1.00800           0
     16265 LPSA15   20       ARHM     O2       OC301   -0.360000       15.9994           0
     16266 LPSA15   20       ARHM     C3       CC3161   0.900000E-01   12.0110           0
     16267 LPSA15   20       ARHM     H3       HCA1     0.900000E-01   1.00800           0
     16268 LPSA15   20       ARHM     O3       OC301   -0.360000       15.9994           0
     16269 LPSA15   20       ARHM     C4       CC3161   0.140000       12.0110           0
     16270 LPSA15   20       ARHM     H4       HCA1     0.900000E-01   1.00800           0
     16271 LPSA15   20       ARHM     O4       OC311   -0.650000       15.9994           0
     16272 LPSA15   20       ARHM     HO4      HCP1     0.420000       1.00800           0
     16273 LPSA15   20       ARHM     C6       CC331   -0.270000       12.0110           0
     16274 LPSA15   20       ARHM     H61      HCA3     0.900000E-01   1.00800           0
     16275 LPSA15   20       ARHM     H62      HCA3     0.900000E-01   1.00800           0
     16276 LPSA15   20       ARHM     H63      HCA3     0.900000E-01   1.00800           0
     16277 LPSA15   21       BMANNA   C1       CC3162   0.290000       12.0110           0
     16278 LPSA15   21       BMANNA   H1       HCA1     0.900000E-01   1.00800           0
     16279 LPSA15   21       BMANNA   C5       CC3163   0.110000       12.0110           0
     16280 LPSA15   21       BMANNA   H5       HCA1     0.900000E-01   1.00800           0
     16281 LPSA15   21       BMANNA   O5       OC3C61  -0.400000       15.9994           0
     16282 LPSA15   21       BMANNA   C2       CC3161   0.700000E-01   12.0110           0
     16283 LPSA15   21       BMANNA   H2       HCA1     0.900000E-01   1.00800           0
     16284 LPSA15   21       BMANNA   N        NC2D1   -0.470000       14.0070           0
     16285 LPSA15   21       BMANNA   HN       HCP1     0.310000       1.00800           0
     16286 LPSA15   21       BMANNA   C        CC2O1    0.510000       12.0110           0
     16287 LPSA15   21       BMANNA   O        OC2D1   -0.510000       15.9994           0
     16288 LPSA15   21       BMANNA   CT       CC331   -0.270000       12.0110           0
     16289 LPSA15   21       BMANNA   HT1      HCA3     0.900000E-01   1.00800           0
     16290 LPSA15   21       BMANNA   HT2      HCA3     0.900000E-01   1.00800           0
     16291 LPSA15   21       BMANNA   HT3      HCA3     0.900000E-01   1.00800           0
     16292 LPSA15   21       BMANNA   C3       CC3161   0.140000       12.0110           0
     16293 LPSA15   21       BMANNA   H3       HCA1     0.900000E-01   1.00800           0
     16294 LPSA15   21       BMANNA   O3       OC311   -0.650000       15.9994           0
     16295 LPSA15   21       BMANNA   HO3      HCP1     0.420000       1.00800           0
     16296 LPSA15   21       BMANNA   C4       CC3161   0.140000       12.0110           0
     16297 LPSA15   21       BMANNA   H4       HCA1     0.900000E-01   1.00800           0
     16298 LPSA15   21       BMANNA   O4       OC311   -0.650000       15.9994           0
     16299 LPSA15   21       BMANNA   HO4      HCP1     0.420000       1.00800           0
     16300 LPSA15   21       BMANNA   C6       CC321    0.500000E-01   12.0110           0
     16301 LPSA15   21       BMANNA   H61      HCA2     0.900000E-01   1.00800           0
     16302 LPSA15   21       BMANNA   H62      HCA2     0.900000E-01   1.00800           0
     16303 LPSA15   21       BMANNA   O6       OC311   -0.650000       15.9994           0
     16304 LPSA15   21       BMANNA   HO6      HCP1     0.420000       1.00800           0
     16305 LPSA15   22       BGLCNA   C1       CC3162   0.290000       12.0110           0
     16306 LPSA15   22       BGLCNA   H1       HCA1     0.900000E-01   1.00800           0
     16307 LPSA15   22       BGLCNA   C5       CC3163   0.110000       12.0110           0
     16308 LPSA15   22       BGLCNA   H5       HCA1     0.900000E-01   1.00800           0
     16309 LPSA15   22       BGLCNA   O5       OC3C61  -0.400000       15.9994           0
     16310 LPSA15   22       BGLCNA   C2       CC3161   0.700000E-01   12.0110           0
     16311 LPSA15   22       BGLCNA   H2       HCA1     0.900000E-01   1.00800           0
     16312 LPSA15   22       BGLCNA   N        NC2D1   -0.470000       14.0070           0
     16313 LPSA15   22       BGLCNA   HN       HCP1     0.310000       1.00800           0
     16314 LPSA15   22       BGLCNA   C        CC2O1    0.510000       12.0110           0
     16315 LPSA15   22       BGLCNA   O        OC2D1   -0.510000       15.9994           0
     16316 LPSA15   22       BGLCNA   CT       CC331   -0.270000       12.0110           0
     16317 LPSA15   22       BGLCNA   HT1      HCA3     0.900000E-01   1.00800           0
     16318 LPSA15   22       BGLCNA   HT2      HCA3     0.900000E-01   1.00800           0
     16319 LPSA15   22       BGLCNA   HT3      HCA3     0.900000E-01   1.00800           0
     16320 LPSA15   22       BGLCNA   C3       CC3161   0.900000E-01   12.0110           0
     16321 LPSA15   22       BGLCNA   H3       HCA1     0.900000E-01   1.00800           0
     16322 LPSA15   22       BGLCNA   O3       OC301   -0.360000       15.9994           0
     16323 LPSA15   22       BGLCNA   C4       CC3161   0.140000       12.0110           0
     16324 LPSA15   22       BGLCNA   H4       HCA1     0.900000E-01   1.00800           0
     16325 LPSA15   22       BGLCNA   O4       OC311   -0.650000       15.9994           0
     16326 LPSA15   22       BGLCNA   HO4      HCP1     0.420000       1.00800           0
     16327 LPSA15   22       BGLCNA   C6       CC321    0.500000E-01   12.0110           0
     16328 LPSA15   22       BGLCNA   H61      HCA2     0.900000E-01   1.00800           0
     16329 LPSA15   22       BGLCNA   H62      HCA2     0.900000E-01   1.00800           0
     16330 LPSA15   22       BGLCNA   O6       OC311   -0.650000       15.9994           0
     16331 LPSA15   22       BGLCNA   HO6      HCP1     0.420000       1.00800           0
     16332 LPSA15   23       AGAL     C1       CC3162   0.290000       12.0110           0
     16333 LPSA15   23       AGAL     H1       HCA1     0.900000E-01   1.00800           0
     16334 LPSA15   23       AGAL     C5       CC3163   0.110000       12.0110           0
     16335 LPSA15   23       AGAL     H5       HCA1     0.900000E-01   1.00800           0
     16336 LPSA15   23       AGAL     O5       OC3C61  -0.400000       15.9994           0
     16337 LPSA15   23       AGAL     C2       CC3161   0.900000E-01   12.0110           0
     16338 LPSA15   23       AGAL     H2       HCA1     0.900000E-01   1.00800           0
     16339 LPSA15   23       AGAL     O2       OC301   -0.360000       15.9994           0
     16340 LPSA15   23       AGAL     C3       CC3161   0.140000       12.0110           0
     16341 LPSA15   23       AGAL     H3       HCA1     0.900000E-01   1.00800           0
     16342 LPSA15   23       AGAL     O3       OC311   -0.650000       15.9994           0
     16343 LPSA15   23       AGAL     HO3      HCP1     0.420000       1.00800           0
     16344 LPSA15   23       AGAL     C4       CC3161   0.140000       12.0110           0
     16345 LPSA15   23       AGAL     H4       HCA1     0.900000E-01   1.00800           0
     16346 LPSA15   23       AGAL     O4       OC311   -0.650000       15.9994           0
     16347 LPSA15   23       AGAL     HO4      HCP1     0.420000       1.00800           0
     16348 LPSA15   23       AGAL     C6       CC321    0.500000E-01   12.0110           0
     16349 LPSA15   23       AGAL     H61      HCA2     0.900000E-01   1.00800           0
     16350 LPSA15   23       AGAL     H62      HCA2     0.900000E-01   1.00800           0
     16351 LPSA15   23       AGAL     O6       OC311   -0.650000       15.9994           0
     16352 LPSA15   23       AGAL     HO6      HCP1     0.420000       1.00800           0
     16353 LPSA15   24       ARHM     C1       CC3162   0.290000       12.0110           0
     16354 LPSA15   24       ARHM     H1       HCA1     0.900000E-01   1.00800           0
     16355 LPSA15   24       ARHM     C5       CC3163   0.110000       12.0110           0
     16356 LPSA15   24       ARHM     H5       HCA1     0.900000E-01   1.00800           0
     16357 LPSA15   24       ARHM     O5       OC3C61  -0.400000       15.9994           0
     16358 LPSA15   24       ARHM     C2       CC3161   0.900000E-01   12.0110           0
     16359 LPSA15   24       ARHM     H2       HCA1     0.900000E-01   1.00800           0
     16360 LPSA15   24       ARHM     O2       OC301   -0.360000       15.9994           0
     16361 LPSA15   24       ARHM     C3       CC3161   0.140000       12.0110           0
     16362 LPSA15   24       ARHM     H3       HCA1     0.900000E-01   1.00800           0
     16363 LPSA15   24       ARHM     O3       OC311   -0.650000       15.9994           0
     16364 LPSA15   24       ARHM     HO3      HCP1     0.420000       1.00800           0
     16365 LPSA15   24       ARHM     C4       CC3161   0.140000       12.0110           0
     16366 LPSA15   24       ARHM     H4       HCA1     0.900000E-01   1.00800           0
     16367 LPSA15   24       ARHM     O4       OC311   -0.650000       15.9994           0
     16368 LPSA15   24       ARHM     HO4      HCP1     0.420000       1.00800           0
     16369 LPSA15   24       ARHM     C6       CC331   -0.270000       12.0110           0
     16370 LPSA15   24       ARHM     H61      HCA3     0.900000E-01   1.00800           0
     16371 LPSA15   24       ARHM     H62      HCA3     0.900000E-01   1.00800           0
     16372 LPSA15   24       ARHM     H63      HCA3     0.900000E-01   1.00800           0
     16373 LPSA15   25       ARHM     C1       CC3162   0.290000       12.0110           0
     16374 LPSA15   25       ARHM     H1       HCA1     0.900000E-01   1.00800           0
     16375 LPSA15   25       ARHM     C5       CC3163   0.110000       12.0110           0
     16376 LPSA15   25       ARHM     H5       HCA1     0.900000E-01   1.00800           0
     16377 LPSA15   25       ARHM     O5       OC3C61  -0.400000       15.9994           0
     16378 LPSA15   25       ARHM     C2       CC3161   0.900000E-01   12.0110           0
     16379 LPSA15   25       ARHM     H2       HCA1     0.900000E-01   1.00800           0
     16380 LPSA15   25       ARHM     O2       OC301   -0.360000       15.9994           0
     16381 LPSA15   25       ARHM     C3       CC3161   0.900000E-01   12.0110           0
     16382 LPSA15   25       ARHM     H3       HCA1     0.900000E-01   1.00800           0
     16383 LPSA15   25       ARHM     O3       OC301   -0.360000       15.9994           0
     16384 LPSA15   25       ARHM     C4       CC3161   0.140000       12.0110           0
     16385 LPSA15   25       ARHM     H4       HCA1     0.900000E-01   1.00800           0
     16386 LPSA15   25       ARHM     O4       OC311   -0.650000       15.9994           0
     16387 LPSA15   25       ARHM     HO4      HCP1     0.420000       1.00800           0
     16388 LPSA15   25       ARHM     C6       CC331   -0.270000       12.0110           0
     16389 LPSA15   25       ARHM     H61      HCA3     0.900000E-01   1.00800           0
     16390 LPSA15   25       ARHM     H62      HCA3     0.900000E-01   1.00800           0
     16391 LPSA15   25       ARHM     H63      HCA3     0.900000E-01   1.00800           0
     16392 LPSA15   26       BMANNA   C1       CC3162   0.290000       12.0110           0
     16393 LPSA15   26       BMANNA   H1       HCA1     0.900000E-01   1.00800           0
     16394 LPSA15   26       BMANNA   C5       CC3163   0.110000       12.0110           0
     16395 LPSA15   26       BMANNA   H5       HCA1     0.900000E-01   1.00800           0
     16396 LPSA15   26       BMANNA   O5       OC3C61  -0.400000       15.9994           0
     16397 LPSA15   26       BMANNA   C2       CC3161   0.700000E-01   12.0110           0
     16398 LPSA15   26       BMANNA   H2       HCA1     0.900000E-01   1.00800           0
     16399 LPSA15   26       BMANNA   N        NC2D1   -0.470000       14.0070           0
     16400 LPSA15   26       BMANNA   HN       HCP1     0.310000       1.00800           0
     16401 LPSA15   26       BMANNA   C        CC2O1    0.510000       12.0110           0
     16402 LPSA15   26       BMANNA   O        OC2D1   -0.510000       15.9994           0
     16403 LPSA15   26       BMANNA   CT       CC331   -0.270000       12.0110           0
     16404 LPSA15   26       BMANNA   HT1      HCA3     0.900000E-01   1.00800           0
     16405 LPSA15   26       BMANNA   HT2      HCA3     0.900000E-01   1.00800           0
     16406 LPSA15   26       BMANNA   HT3      HCA3     0.900000E-01   1.00800           0
     16407 LPSA15   26       BMANNA   C3       CC3161   0.140000       12.0110           0
     16408 LPSA15   26       BMANNA   H3       HCA1     0.900000E-01   1.00800           0
     16409 LPSA15   26       BMANNA   O3       OC311   -0.650000       15.9994           0
     16410 LPSA15   26       BMANNA   HO3      HCP1     0.420000       1.00800           0
     16411 LPSA15   26       BMANNA   C4       CC3161   0.140000       12.0110           0
     16412 LPSA15   26       BMANNA   H4       HCA1     0.900000E-01   1.00800           0
     16413 LPSA15   26       BMANNA   O4       OC311   -0.650000       15.9994           0
     16414 LPSA15   26       BMANNA   HO4      HCP1     0.420000       1.00800           0
     16415 LPSA15   26       BMANNA   C6       CC321    0.500000E-01   12.0110           0
     16416 LPSA15   26       BMANNA   H61      HCA2     0.900000E-01   1.00800           0
     16417 LPSA15   26       BMANNA   H62      HCA2     0.900000E-01   1.00800           0
     16418 LPSA15   26       BMANNA   O6       OC311   -0.650000       15.9994           0
     16419 LPSA15   26       BMANNA   HO6      HCP1     0.420000       1.00800           0
     16420 LPSA15   27       BGLCNA   C1       CC3162   0.290000       12.0110           0
     16421 LPSA15   27       BGLCNA   H1       HCA1     0.900000E-01   1.00800           0
     16422 LPSA15   27       BGLCNA   C5       CC3163   0.110000       12.0110           0
     16423 LPSA15   27       BGLCNA   H5       HCA1     0.900000E-01   1.00800           0
     16424 LPSA15   27       BGLCNA   O5       OC3C61  -0.400000       15.9994           0
     16425 LPSA15   27       BGLCNA   C2       CC3161   0.700000E-01   12.0110           0
     16426 LPSA15   27       BGLCNA   H2       HCA1     0.900000E-01   1.00800           0
     16427 LPSA15   27       BGLCNA   N        NC2D1   -0.470000       14.0070           0
     16428 LPSA15   27       BGLCNA   HN       HCP1     0.310000       1.00800           0
     16429 LPSA15   27       BGLCNA   C        CC2O1    0.510000       12.0110           0
     16430 LPSA15   27       BGLCNA   O        OC2D1   -0.510000       15.9994           0
     16431 LPSA15   27       BGLCNA   CT       CC331   -0.270000       12.0110           0
     16432 LPSA15   27       BGLCNA   HT1      HCA3     0.900000E-01   1.00800           0
     16433 LPSA15   27       BGLCNA   HT2      HCA3     0.900000E-01   1.00800           0
     16434 LPSA15   27       BGLCNA   HT3      HCA3     0.900000E-01   1.00800           0
     16435 LPSA15   27       BGLCNA   C3       CC3161   0.900000E-01   12.0110           0
     16436 LPSA15   27       BGLCNA   H3       HCA1     0.900000E-01   1.00800           0
     16437 LPSA15   27       BGLCNA   O3       OC301   -0.360000       15.9994           0
     16438 LPSA15   27       BGLCNA   C4       CC3161   0.140000       12.0110           0
     16439 LPSA15   27       BGLCNA   H4       HCA1     0.900000E-01   1.00800           0
     16440 LPSA15   27       BGLCNA   O4       OC311   -0.650000       15.9994           0
     16441 LPSA15   27       BGLCNA   HO4      HCP1     0.420000       1.00800           0
     16442 LPSA15   27       BGLCNA   C6       CC321    0.500000E-01   12.0110           0
     16443 LPSA15   27       BGLCNA   H61      HCA2     0.900000E-01   1.00800           0
     16444 LPSA15   27       BGLCNA   H62      HCA2     0.900000E-01   1.00800           0
     16445 LPSA15   27       BGLCNA   O6       OC311   -0.650000       15.9994           0
     16446 LPSA15   27       BGLCNA   HO6      HCP1     0.420000       1.00800           0
     16447 LPSA15   28       AGAL     C1       CC3162   0.290000       12.0110           0
     16448 LPSA15   28       AGAL     H1       HCA1     0.900000E-01   1.00800           0
     16449 LPSA15   28       AGAL     C5       CC3163   0.110000       12.0110           0
     16450 LPSA15   28       AGAL     H5       HCA1     0.900000E-01   1.00800           0
     16451 LPSA15   28       AGAL     O5       OC3C61  -0.400000       15.9994           0
     16452 LPSA15   28       AGAL     C2       CC3161   0.900000E-01   12.0110           0
     16453 LPSA15   28       AGAL     H2       HCA1     0.900000E-01   1.00800           0
     16454 LPSA15   28       AGAL     O2       OC301   -0.360000       15.9994           0
     16455 LPSA15   28       AGAL     C3       CC3161   0.140000       12.0110           0
     16456 LPSA15   28       AGAL     H3       HCA1     0.900000E-01   1.00800           0
     16457 LPSA15   28       AGAL     O3       OC311   -0.650000       15.9994           0
     16458 LPSA15   28       AGAL     HO3      HCP1     0.420000       1.00800           0
     16459 LPSA15   28       AGAL     C4       CC3161   0.140000       12.0110           0
     16460 LPSA15   28       AGAL     H4       HCA1     0.900000E-01   1.00800           0
     16461 LPSA15   28       AGAL     O4       OC311   -0.650000       15.9994           0
     16462 LPSA15   28       AGAL     HO4      HCP1     0.420000       1.00800           0
     16463 LPSA15   28       AGAL     C6       CC321    0.500000E-01   12.0110           0
     16464 LPSA15   28       AGAL     H61      HCA2     0.900000E-01   1.00800           0
     16465 LPSA15   28       AGAL     H62      HCA2     0.900000E-01   1.00800           0
     16466 LPSA15   28       AGAL     O6       OC311   -0.650000       15.9994           0
     16467 LPSA15   28       AGAL     HO6      HCP1     0.420000       1.00800           0
     16468 LPSA15   29       ARHM     C1       CC3162   0.290000       12.0110           0
     16469 LPSA15   29       ARHM     H1       HCA1     0.900000E-01   1.00800           0
     16470 LPSA15   29       ARHM     C5       CC3163   0.110000       12.0110           0
     16471 LPSA15   29       ARHM     H5       HCA1     0.900000E-01   1.00800           0
     16472 LPSA15   29       ARHM     O5       OC3C61  -0.400000       15.9994           0
     16473 LPSA15   29       ARHM     C2       CC3161   0.900000E-01   12.0110           0
     16474 LPSA15   29       ARHM     H2       HCA1     0.900000E-01   1.00800           0
     16475 LPSA15   29       ARHM     O2       OC301   -0.360000       15.9994           0
     16476 LPSA15   29       ARHM     C3       CC3161   0.140000       12.0110           0
     16477 LPSA15   29       ARHM     H3       HCA1     0.900000E-01   1.00800           0
     16478 LPSA15   29       ARHM     O3       OC311   -0.650000       15.9994           0
     16479 LPSA15   29       ARHM     HO3      HCP1     0.420000       1.00800           0
     16480 LPSA15   29       ARHM     C4       CC3161   0.140000       12.0110           0
     16481 LPSA15   29       ARHM     H4       HCA1     0.900000E-01   1.00800           0
     16482 LPSA15   29       ARHM     O4       OC311   -0.650000       15.9994           0
     16483 LPSA15   29       ARHM     HO4      HCP1     0.420000       1.00800           0
     16484 LPSA15   29       ARHM     C6       CC331   -0.270000       12.0110           0
     16485 LPSA15   29       ARHM     H61      HCA3     0.900000E-01   1.00800           0
     16486 LPSA15   29       ARHM     H62      HCA3     0.900000E-01   1.00800           0
     16487 LPSA15   29       ARHM     H63      HCA3     0.900000E-01   1.00800           0
     16488 LPSA15   30       ARHM     C1       CC3162   0.290000       12.0110           0
     16489 LPSA15   30       ARHM     H1       HCA1     0.900000E-01   1.00800           0
     16490 LPSA15   30       ARHM     C5       CC3163   0.110000       12.0110           0
     16491 LPSA15   30       ARHM     H5       HCA1     0.900000E-01   1.00800           0
     16492 LPSA15   30       ARHM     O5       OC3C61  -0.400000       15.9994           0
     16493 LPSA15   30       ARHM     C2       CC3161   0.900000E-01   12.0110           0
     16494 LPSA15   30       ARHM     H2       HCA1     0.900000E-01   1.00800           0
     16495 LPSA15   30       ARHM     O2       OC301   -0.360000       15.9994           0
     16496 LPSA15   30       ARHM     C3       CC3161   0.900000E-01   12.0110           0
     16497 LPSA15   30       ARHM     H3       HCA1     0.900000E-01   1.00800           0
     16498 LPSA15   30       ARHM     O3       OC301   -0.360000       15.9994           0
     16499 LPSA15   30       ARHM     C4       CC3161   0.140000       12.0110           0
     16500 LPSA15   30       ARHM     H4       HCA1     0.900000E-01   1.00800           0
     16501 LPSA15   30       ARHM     O4       OC311   -0.650000       15.9994           0
     16502 LPSA15   30       ARHM     HO4      HCP1     0.420000       1.00800           0
     16503 LPSA15   30       ARHM     C6       CC331   -0.270000       12.0110           0
     16504 LPSA15   30       ARHM     H61      HCA3     0.900000E-01   1.00800           0
     16505 LPSA15   30       ARHM     H62      HCA3     0.900000E-01   1.00800           0
     16506 LPSA15   30       ARHM     H63      HCA3     0.900000E-01   1.00800           0
     16507 LPSA15   31       BMANNA   C1       CC3162   0.290000       12.0110           0
     16508 LPSA15   31       BMANNA   H1       HCA1     0.900000E-01   1.00800           0
     16509 LPSA15   31       BMANNA   C5       CC3163   0.110000       12.0110           0
     16510 LPSA15   31       BMANNA   H5       HCA1     0.900000E-01   1.00800           0
     16511 LPSA15   31       BMANNA   O5       OC3C61  -0.400000       15.9994           0
     16512 LPSA15   31       BMANNA   C2       CC3161   0.700000E-01   12.0110           0
     16513 LPSA15   31       BMANNA   H2       HCA1     0.900000E-01   1.00800           0
     16514 LPSA15   31       BMANNA   N        NC2D1   -0.470000       14.0070           0
     16515 LPSA15   31       BMANNA   HN       HCP1     0.310000       1.00800           0
     16516 LPSA15   31       BMANNA   C        CC2O1    0.510000       12.0110           0
     16517 LPSA15   31       BMANNA   O        OC2D1   -0.510000       15.9994           0
     16518 LPSA15   31       BMANNA   CT       CC331   -0.270000       12.0110           0
     16519 LPSA15   31       BMANNA   HT1      HCA3     0.900000E-01   1.00800           0
     16520 LPSA15   31       BMANNA   HT2      HCA3     0.900000E-01   1.00800           0
     16521 LPSA15   31       BMANNA   HT3      HCA3     0.900000E-01   1.00800           0
     16522 LPSA15   31       BMANNA   C3       CC3161   0.140000       12.0110           0
     16523 LPSA15   31       BMANNA   H3       HCA1     0.900000E-01   1.00800           0
     16524 LPSA15   31       BMANNA   O3       OC311   -0.650000       15.9994           0
     16525 LPSA15   31       BMANNA   HO3      HCP1     0.420000       1.00800           0
     16526 LPSA15   31       BMANNA   C4       CC3161   0.140000       12.0110           0
     16527 LPSA15   31       BMANNA   H4       HCA1     0.900000E-01   1.00800           0
     16528 LPSA15   31       BMANNA   O4       OC311   -0.650000       15.9994           0
     16529 LPSA15   31       BMANNA   HO4      HCP1     0.420000       1.00800           0
     16530 LPSA15   31       BMANNA   C6       CC321    0.500000E-01   12.0110           0
     16531 LPSA15   31       BMANNA   H61      HCA2     0.900000E-01   1.00800           0
     16532 LPSA15   31       BMANNA   H62      HCA2     0.900000E-01   1.00800           0
     16533 LPSA15   31       BMANNA   O6       OC311   -0.650000       15.9994           0
     16534 LPSA15   31       BMANNA   HO6      HCP1     0.420000       1.00800           0
     16535 LPSA15   32       BGLCNA   C1       CC3162   0.290000       12.0110           0
     16536 LPSA15   32       BGLCNA   H1       HCA1     0.900000E-01   1.00800           0
     16537 LPSA15   32       BGLCNA   C5       CC3163   0.110000       12.0110           0
     16538 LPSA15   32       BGLCNA   H5       HCA1     0.900000E-01   1.00800           0
     16539 LPSA15   32       BGLCNA   O5       OC3C61  -0.400000       15.9994           0
     16540 LPSA15   32       BGLCNA   C2       CC3161   0.700000E-01   12.0110           0
     16541 LPSA15   32       BGLCNA   H2       HCA1     0.900000E-01   1.00800           0
     16542 LPSA15   32       BGLCNA   N        NC2D1   -0.470000       14.0070           0
     16543 LPSA15   32       BGLCNA   HN       HCP1     0.310000       1.00800           0
     16544 LPSA15   32       BGLCNA   C        CC2O1    0.510000       12.0110           0
     16545 LPSA15   32       BGLCNA   O        OC2D1   -0.510000       15.9994           0
     16546 LPSA15   32       BGLCNA   CT       CC331   -0.270000       12.0110           0
     16547 LPSA15   32       BGLCNA   HT1      HCA3     0.900000E-01   1.00800           0
     16548 LPSA15   32       BGLCNA   HT2      HCA3     0.900000E-01   1.00800           0
     16549 LPSA15   32       BGLCNA   HT3      HCA3     0.900000E-01   1.00800           0
     16550 LPSA15   32       BGLCNA   C3       CC3161   0.900000E-01   12.0110           0
     16551 LPSA15   32       BGLCNA   H3       HCA1     0.900000E-01   1.00800           0
     16552 LPSA15   32       BGLCNA   O3       OC301   -0.360000       15.9994           0
     16553 LPSA15   32       BGLCNA   C4       CC3161   0.140000       12.0110           0
     16554 LPSA15   32       BGLCNA   H4       HCA1     0.900000E-01   1.00800           0
     16555 LPSA15   32       BGLCNA   O4       OC311   -0.650000       15.9994           0
     16556 LPSA15   32       BGLCNA   HO4      HCP1     0.420000       1.00800           0
     16557 LPSA15   32       BGLCNA   C6       CC321    0.500000E-01   12.0110           0
     16558 LPSA15   32       BGLCNA   H61      HCA2     0.900000E-01   1.00800           0
     16559 LPSA15   32       BGLCNA   H62      HCA2     0.900000E-01   1.00800           0
     16560 LPSA15   32       BGLCNA   O6       OC311   -0.650000       15.9994           0
     16561 LPSA15   32       BGLCNA   HO6      HCP1     0.420000       1.00800           0
     16562 LPSA15   33       AGAL     C1       CC3162   0.290000       12.0110           0
     16563 LPSA15   33       AGAL     H1       HCA1     0.900000E-01   1.00800           0
     16564 LPSA15   33       AGAL     C5       CC3163   0.110000       12.0110           0
     16565 LPSA15   33       AGAL     H5       HCA1     0.900000E-01   1.00800           0
     16566 LPSA15   33       AGAL     O5       OC3C61  -0.400000       15.9994           0
     16567 LPSA15   33       AGAL     C2       CC3161   0.900000E-01   12.0110           0
     16568 LPSA15   33       AGAL     H2       HCA1     0.900000E-01   1.00800           0
     16569 LPSA15   33       AGAL     O2       OC301   -0.360000       15.9994           0
     16570 LPSA15   33       AGAL     C3       CC3161   0.140000       12.0110           0
     16571 LPSA15   33       AGAL     H3       HCA1     0.900000E-01   1.00800           0
     16572 LPSA15   33       AGAL     O3       OC311   -0.650000       15.9994           0
     16573 LPSA15   33       AGAL     HO3      HCP1     0.420000       1.00800           0
     16574 LPSA15   33       AGAL     C4       CC3161   0.140000       12.0110           0
     16575 LPSA15   33       AGAL     H4       HCA1     0.900000E-01   1.00800           0
     16576 LPSA15   33       AGAL     O4       OC311   -0.650000       15.9994           0
     16577 LPSA15   33       AGAL     HO4      HCP1     0.420000       1.00800           0
     16578 LPSA15   33       AGAL     C6       CC321    0.500000E-01   12.0110           0
     16579 LPSA15   33       AGAL     H61      HCA2     0.900000E-01   1.00800           0
     16580 LPSA15   33       AGAL     H62      HCA2     0.900000E-01   1.00800           0
     16581 LPSA15   33       AGAL     O6       OC311   -0.650000       15.9994           0
     16582 LPSA15   33       AGAL     HO6      HCP1     0.420000       1.00800           0
     16583 LPSA15   34       ARHM     C1       CC3162   0.290000       12.0110           0
     16584 LPSA15   34       ARHM     H1       HCA1     0.900000E-01   1.00800           0
     16585 LPSA15   34       ARHM     C5       CC3163   0.110000       12.0110           0
     16586 LPSA15   34       ARHM     H5       HCA1     0.900000E-01   1.00800           0
     16587 LPSA15   34       ARHM     O5       OC3C61  -0.400000       15.9994           0
     16588 LPSA15   34       ARHM     C2       CC3161   0.900000E-01   12.0110           0
     16589 LPSA15   34       ARHM     H2       HCA1     0.900000E-01   1.00800           0
     16590 LPSA15   34       ARHM     O2       OC301   -0.360000       15.9994           0
     16591 LPSA15   34       ARHM     C3       CC3161   0.140000       12.0110           0
     16592 LPSA15   34       ARHM     H3       HCA1     0.900000E-01   1.00800           0
     16593 LPSA15   34       ARHM     O3       OC311   -0.650000       15.9994           0
     16594 LPSA15   34       ARHM     HO3      HCP1     0.420000       1.00800           0
     16595 LPSA15   34       ARHM     C4       CC3161   0.140000       12.0110           0
     16596 LPSA15   34       ARHM     H4       HCA1     0.900000E-01   1.00800           0
     16597 LPSA15   34       ARHM     O4       OC311   -0.650000       15.9994           0
     16598 LPSA15   34       ARHM     HO4      HCP1     0.420000       1.00800           0
     16599 LPSA15   34       ARHM     C6       CC331   -0.270000       12.0110           0
     16600 LPSA15   34       ARHM     H61      HCA3     0.900000E-01   1.00800           0
     16601 LPSA15   34       ARHM     H62      HCA3     0.900000E-01   1.00800           0
     16602 LPSA15   34       ARHM     H63      HCA3     0.900000E-01   1.00800           0
     16603 LPSA15   35       ARHM     C1       CC3162   0.290000       12.0110           0
     16604 LPSA15   35       ARHM     H1       HCA1     0.900000E-01   1.00800           0
     16605 LPSA15   35       ARHM     C5       CC3163   0.110000       12.0110           0
     16606 LPSA15   35       ARHM     H5       HCA1     0.900000E-01   1.00800           0
     16607 LPSA15   35       ARHM     O5       OC3C61  -0.400000       15.9994           0
     16608 LPSA15   35       ARHM     C2       CC3161   0.900000E-01   12.0110           0
     16609 LPSA15   35       ARHM     H2       HCA1     0.900000E-01   1.00800           0
     16610 LPSA15   35       ARHM     O2       OC301   -0.360000       15.9994           0
     16611 LPSA15   35       ARHM     C3       CC3161   0.140000       12.0110           0
     16612 LPSA15   35       ARHM     H3       HCA1     0.900000E-01   1.00800           0
     16613 LPSA15   35       ARHM     O3       OC311   -0.650000       15.9994           0
     16614 LPSA15   35       ARHM     HO3      HCP1     0.420000       1.00800           0
     16615 LPSA15   35       ARHM     C4       CC3161   0.140000       12.0110           0
     16616 LPSA15   35       ARHM     H4       HCA1     0.900000E-01   1.00800           0
     16617 LPSA15   35       ARHM     O4       OC311   -0.650000       15.9994           0
     16618 LPSA15   35       ARHM     HO4      HCP1     0.420000       1.00800           0
     16619 LPSA15   35       ARHM     C6       CC331   -0.270000       12.0110           0
     16620 LPSA15   35       ARHM     H61      HCA3     0.900000E-01   1.00800           0
     16621 LPSA15   35       ARHM     H62      HCA3     0.900000E-01   1.00800           0
     16622 LPSA15   35       ARHM     H63      HCA3     0.900000E-01   1.00800           0
     16623 LPSA15   36       BMANNA   C1       CC3162   0.290000       12.0110           0
     16624 LPSA15   36       BMANNA   H1       HCA1     0.900000E-01   1.00800           0
     16625 LPSA15   36       BMANNA   C5       CC3163   0.110000       12.0110           0
     16626 LPSA15   36       BMANNA   H5       HCA1     0.900000E-01   1.00800           0
     16627 LPSA15   36       BMANNA   O5       OC3C61  -0.400000       15.9994           0
     16628 LPSA15   36       BMANNA   C2       CC3161   0.700000E-01   12.0110           0
     16629 LPSA15   36       BMANNA   H2       HCA1     0.900000E-01   1.00800           0
     16630 LPSA15   36       BMANNA   N        NC2D1   -0.470000       14.0070           0
     16631 LPSA15   36       BMANNA   HN       HCP1     0.310000       1.00800           0
     16632 LPSA15   36       BMANNA   C        CC2O1    0.510000       12.0110           0
     16633 LPSA15   36       BMANNA   O        OC2D1   -0.510000       15.9994           0
     16634 LPSA15   36       BMANNA   CT       CC331   -0.270000       12.0110           0
     16635 LPSA15   36       BMANNA   HT1      HCA3     0.900000E-01   1.00800           0
     16636 LPSA15   36       BMANNA   HT2      HCA3     0.900000E-01   1.00800           0
     16637 LPSA15   36       BMANNA   HT3      HCA3     0.900000E-01   1.00800           0
     16638 LPSA15   36       BMANNA   C3       CC3161   0.140000       12.0110           0
     16639 LPSA15   36       BMANNA   H3       HCA1     0.900000E-01   1.00800           0
     16640 LPSA15   36       BMANNA   O3       OC311   -0.650000       15.9994           0
     16641 LPSA15   36       BMANNA   HO3      HCP1     0.420000       1.00800           0
     16642 LPSA15   36       BMANNA   C4       CC3161   0.140000       12.0110           0
     16643 LPSA15   36       BMANNA   H4       HCA1     0.900000E-01   1.00800           0
     16644 LPSA15   36       BMANNA   O4       OC311   -0.650000       15.9994           0
     16645 LPSA15   36       BMANNA   HO4      HCP1     0.420000       1.00800           0
     16646 LPSA15   36       BMANNA   C6       CC321    0.500000E-01   12.0110           0
     16647 LPSA15   36       BMANNA   H61      HCA2     0.900000E-01   1.00800           0
     16648 LPSA15   36       BMANNA   H62      HCA2     0.900000E-01   1.00800           0
     16649 LPSA15   36       BMANNA   O6       OC311   -0.650000       15.9994           0
     16650 LPSA15   36       BMANNA   HO6      HCP1     0.420000       1.00800           0
     16651 LPSA16   1        ECLIPA   HB6S     HCA2     0.900000E-01   1.00800           0
     16652 LPSA16   1        ECLIPA   OB6      OC301   -0.360000       15.9994           0
     16653 LPSA16   1        ECLIPA   CB6      CC321     0.00000       12.0110           0
     16654 LPSA16   1        ECLIPA   HB6R     HCA2     0.900000E-01   1.00800           0
     16655 LPSA16   1        ECLIPA   CB5      CC3163   0.110000       12.0110           0
     16656 LPSA16   1        ECLIPA   OB5      OC3C61  -0.400000       15.9994           0
     16657 LPSA16   1        ECLIPA   HB5      HCA1     0.900000E-01   1.00800           0
     16658 LPSA16   1        ECLIPA   CB1      CC3162   0.290000       12.0110           0
     16659 LPSA16   1        ECLIPA   HB1      HCA1     0.900000E-01   1.00800           0
     16660 LPSA16   1        ECLIPA   OA6      OC301   -0.360000       15.9994           0
     16661 LPSA16   1        ECLIPA   CA6      CC321     0.00000       12.0110           0
     16662 LPSA16   1        ECLIPA   HA6R     HCA2     0.900000E-01   1.00800           0
     16663 LPSA16   1        ECLIPA   HA6S     HCA2     0.900000E-01   1.00800           0
     16664 LPSA16   1        ECLIPA   CB4      CC3161  -0.900000E-01   12.0110           0
     16665 LPSA16   1        ECLIPA   HB4      HCA1     0.900000E-01   1.00800           0
     16666 LPSA16   1        ECLIPA   OB4      OC30P   -0.400000       15.9994           0
     16667 LPSA16   1        ECLIPA   PB       PC        1.10000       30.9740           0
     16668 LPSA16   1        ECLIPA   OPB4     OC2DP   -0.900000       15.9994           0
     16669 LPSA16   1        ECLIPA   OPB3     OC2DP   -0.900000       15.9994           0
     16670 LPSA16   1        ECLIPA   OPB2     OC2DP   -0.900000       15.9994           0
     16671 LPSA16   1        ECLIPA   CB3      CC3161   0.170000       12.0110           0
     16672 LPSA16   1        ECLIPA   OB3      OC301   -0.490000       15.9994           0
     16673 LPSA16   1        ECLIPA   HB3      HCA1     0.900000E-01   1.00800           0
     16674 LPSA16   1        ECLIPA   C71      CL       0.900000       12.0110           0
     16675 LPSA16   1        ECLIPA   O71      OBL     -0.630000       15.9994           0
     16676 LPSA16   1        ECLIPA   C72      CTL2    -0.220000       12.0110           0
     16677 LPSA16   1        ECLIPA   H72R     HAL2     0.900000E-01   1.00800           0
     16678 LPSA16   1        ECLIPA   H72S     HAL2     0.900000E-01   1.00800           0
     16679 LPSA16   1        ECLIPA   CB2      CC3161   0.700000E-01   12.0110           0
     16680 LPSA16   1        ECLIPA   HB2      HCA1     0.900000E-01   1.00800           0
     16681 LPSA16   1        ECLIPA   NB2      NC2D1   -0.470000       14.0070           0
     16682 LPSA16   1        ECLIPA   HNB2     HCP1     0.310000       1.00800           0
     16683 LPSA16   1        ECLIPA   CA4      CC3161   0.140000       12.0110           0
     16684 LPSA16   1        ECLIPA   HA4      HCA1     0.900000E-01   1.00800           0
     16685 LPSA16   1        ECLIPA   OA4      OC311   -0.650000       15.9994           0
     16686 LPSA16   1        ECLIPA   HOA4     HCP1     0.420000       1.00800           0
     16687 LPSA16   1        ECLIPA   CA5      CC3163   0.110000       12.0110           0
     16688 LPSA16   1        ECLIPA   HA5      HCA1     0.900000E-01   1.00800           0
     16689 LPSA16   1        ECLIPA   OA5      OC3C61  -0.400000       15.9994           0
     16690 LPSA16   1        ECLIPA   CA1      CC3162   0.110000       12.0110           0
     16691 LPSA16   1        ECLIPA   HA1      HCA1     0.900000E-01   1.00800           0
     16692 LPSA16   1        ECLIPA   OA1      OC30P   -0.400000       15.9994           0
     16693 LPSA16   1        ECLIPA   OPA2     OC2DP   -0.900000       15.9994           0
     16694 LPSA16   1        ECLIPA   OPA3     OC2DP   -0.900000       15.9994           0
     16695 LPSA16   1        ECLIPA   OPA4     OC2DP   -0.900000       15.9994           0
     16696 LPSA16   1        ECLIPA   PA       PC        1.10000       30.9740           0
     16697 LPSA16   1        ECLIPA   CA3      CC3161   0.170000       12.0110           0
     16698 LPSA16   1        ECLIPA   HA3      HCA1     0.900000E-01   1.00800           0
     16699 LPSA16   1        ECLIPA   OA3      OC301   -0.490000       15.9994           0
     16700 LPSA16   1        ECLIPA   C31      CL       0.900000       12.0110           0
     16701 LPSA16   1        ECLIPA   O31      OBL     -0.630000       15.9994           0
     16702 LPSA16   1        ECLIPA   C32      CTL2    -0.220000       12.0110           0
     16703 LPSA16   1        ECLIPA   H32R     HAL2     0.900000E-01   1.00800           0
     16704 LPSA16   1        ECLIPA   H32S     HAL2     0.900000E-01   1.00800           0
     16705 LPSA16   1        ECLIPA   CA2      CC3161   0.700000E-01   12.0110           0
     16706 LPSA16   1        ECLIPA   HA2      HCA1     0.900000E-01   1.00800           0
     16707 LPSA16   1        ECLIPA   NA2      NC2D1   -0.470000       14.0070           0
     16708 LPSA16   1        ECLIPA   HNA2     HCP1     0.310000       1.00800           0
     16709 LPSA16   1        ECLIPA   C73      CTL1     0.170000       12.0110           0
     16710 LPSA16   1        ECLIPA   H73R     HAL1     0.900000E-01   1.00800           0
     16711 LPSA16   1        ECLIPA   O73      OSL     -0.490000       15.9994           0
     16712 LPSA16   1        ECLIPA   C81      CL       0.900000       12.0110           0
     16713 LPSA16   1        ECLIPA   O81      OBL     -0.630000       15.9994           0
     16714 LPSA16   1        ECLIPA   C82      CTL2    -0.220000       12.0110           0
     16715 LPSA16   1        ECLIPA   H82R     HAL2     0.900000E-01   1.00800           0
     16716 LPSA16   1        ECLIPA   H82S     HAL2     0.900000E-01   1.00800           0
     16717 LPSA16   1        ECLIPA   C83      CTL2    -0.180000       12.0110           0
     16718 LPSA16   1        ECLIPA   H83R     HAL2     0.900000E-01   1.00800           0
     16719 LPSA16   1        ECLIPA   H83S     HAL2     0.900000E-01   1.00800           0
     16720 LPSA16   1        ECLIPA   C84      CTL2    -0.180000       12.0110           0
     16721 LPSA16   1        ECLIPA   H84R     HAL2     0.900000E-01   1.00800           0
     16722 LPSA16   1        ECLIPA   H84S     HAL2     0.900000E-01   1.00800           0
     16723 LPSA16   1        ECLIPA   C85      CTL2    -0.180000       12.0110           0
     16724 LPSA16   1        ECLIPA   H85R     HAL2     0.900000E-01   1.00800           0
     16725 LPSA16   1        ECLIPA   H85S     HAL2     0.900000E-01   1.00800           0
     16726 LPSA16   1        ECLIPA   C86      CTL2    -0.180000       12.0110           0
     16727 LPSA16   1        ECLIPA   H86R     HAL2     0.900000E-01   1.00800           0
     16728 LPSA16   1        ECLIPA   H86S     HAL2     0.900000E-01   1.00800           0
     16729 LPSA16   1        ECLIPA   C87      CTL2    -0.180000       12.0110           0
     16730 LPSA16   1        ECLIPA   H87R     HAL2     0.900000E-01   1.00800           0
     16731 LPSA16   1        ECLIPA   H87S     HAL2     0.900000E-01   1.00800           0
     16732 LPSA16   1        ECLIPA   C88      CTL2    -0.180000       12.0110           0
     16733 LPSA16   1        ECLIPA   H88R     HAL2     0.900000E-01   1.00800           0
     16734 LPSA16   1        ECLIPA   H88S     HAL2     0.900000E-01   1.00800           0
     16735 LPSA16   1        ECLIPA   C89      CTL2    -0.180000       12.0110           0
     16736 LPSA16   1        ECLIPA   H89R     HAL2     0.900000E-01   1.00800           0
     16737 LPSA16   1        ECLIPA   H89S     HAL2     0.900000E-01   1.00800           0
     16738 LPSA16   1        ECLIPA   C810     CTL2    -0.180000       12.0110           0
     16739 LPSA16   1        ECLIPA   H810R    HAL2     0.900000E-01   1.00800           0
     16740 LPSA16   1        ECLIPA   H810S    HAL2     0.900000E-01   1.00800           0
     16741 LPSA16   1        ECLIPA   C811     CTL2    -0.180000       12.0110           0
     16742 LPSA16   1        ECLIPA   H811R    HAL2     0.900000E-01   1.00800           0
     16743 LPSA16   1        ECLIPA   H811S    HAL2     0.900000E-01   1.00800           0
     16744 LPSA16   1        ECLIPA   C812     CTL2    -0.180000       12.0110           0
     16745 LPSA16   1        ECLIPA   H812R    HAL2     0.900000E-01   1.00800           0
     16746 LPSA16   1        ECLIPA   H812S    HAL2     0.900000E-01   1.00800           0
     16747 LPSA16   1        ECLIPA   C813     CTL2    -0.180000       12.0110           0
     16748 LPSA16   1        ECLIPA   H813R    HAL2     0.900000E-01   1.00800           0
     16749 LPSA16   1        ECLIPA   H813S    HAL2     0.900000E-01   1.00800           0
     16750 LPSA16   1        ECLIPA   C814     CTL3    -0.270000       12.0110           0
     16751 LPSA16   1        ECLIPA   H814R    HAL3     0.900000E-01   1.00800           0
     16752 LPSA16   1        ECLIPA   H814S    HAL3     0.900000E-01   1.00800           0
     16753 LPSA16   1        ECLIPA   H814T    HAL3     0.900000E-01   1.00800           0
     16754 LPSA16   1        ECLIPA   C74      CTL2    -0.180000       12.0110           0
     16755 LPSA16   1        ECLIPA   H74R     HAL2     0.900000E-01   1.00800           0
     16756 LPSA16   1        ECLIPA   H74S     HAL2     0.900000E-01   1.00800           0
     16757 LPSA16   1        ECLIPA   C75      CTL2    -0.180000       12.0110           0
     16758 LPSA16   1        ECLIPA   H75R     HAL2     0.900000E-01   1.00800           0
     16759 LPSA16   1        ECLIPA   H75S     HAL2     0.900000E-01   1.00800           0
     16760 LPSA16   1        ECLIPA   C76      CTL2    -0.180000       12.0110           0
     16761 LPSA16   1        ECLIPA   H76R     HAL2     0.900000E-01   1.00800           0
     16762 LPSA16   1        ECLIPA   H76S     HAL2     0.900000E-01   1.00800           0
     16763 LPSA16   1        ECLIPA   C77      CTL2    -0.180000       12.0110           0
     16764 LPSA16   1        ECLIPA   H77R     HAL2     0.900000E-01   1.00800           0
     16765 LPSA16   1        ECLIPA   H77S     HAL2     0.900000E-01   1.00800           0
     16766 LPSA16   1        ECLIPA   C78      CTL2    -0.180000       12.0110           0
     16767 LPSA16   1        ECLIPA   H78R     HAL2     0.900000E-01   1.00800           0
     16768 LPSA16   1        ECLIPA   H78S     HAL2     0.900000E-01   1.00800           0
     16769 LPSA16   1        ECLIPA   C79      CTL2    -0.180000       12.0110           0
     16770 LPSA16   1        ECLIPA   H79R     HAL2     0.900000E-01   1.00800           0
     16771 LPSA16   1        ECLIPA   H79S     HAL2     0.900000E-01   1.00800           0
     16772 LPSA16   1        ECLIPA   C710     CTL2    -0.180000       12.0110           0
     16773 LPSA16   1        ECLIPA   H710R    HAL2     0.900000E-01   1.00800           0
     16774 LPSA16   1        ECLIPA   H710S    HAL2     0.900000E-01   1.00800           0
     16775 LPSA16   1        ECLIPA   C711     CTL2    -0.180000       12.0110           0
     16776 LPSA16   1        ECLIPA   H711R    HAL2     0.900000E-01   1.00800           0
     16777 LPSA16   1        ECLIPA   H711S    HAL2     0.900000E-01   1.00800           0
     16778 LPSA16   1        ECLIPA   C712     CTL2    -0.180000       12.0110           0
     16779 LPSA16   1        ECLIPA   H712R    HAL2     0.900000E-01   1.00800           0
     16780 LPSA16   1        ECLIPA   H712S    HAL2     0.900000E-01   1.00800           0
     16781 LPSA16   1        ECLIPA   C713     CTL2    -0.180000       12.0110           0
     16782 LPSA16   1        ECLIPA   H713R    HAL2     0.900000E-01   1.00800           0
     16783 LPSA16   1        ECLIPA   H713S    HAL2     0.900000E-01   1.00800           0
     16784 LPSA16   1        ECLIPA   C714     CTL3    -0.270000       12.0110           0
     16785 LPSA16   1        ECLIPA   H714R    HAL3     0.900000E-01   1.00800           0
     16786 LPSA16   1        ECLIPA   H714S    HAL3     0.900000E-01   1.00800           0
     16787 LPSA16   1        ECLIPA   H714T    HAL3     0.900000E-01   1.00800           0
     16788 LPSA16   1        ECLIPA   C51      CC2O1    0.550000       12.0110           0
     16789 LPSA16   1        ECLIPA   O51      OC2D1   -0.550000       15.9994           0
     16790 LPSA16   1        ECLIPA   C52      CTL2    -0.180000       12.0110           0
     16791 LPSA16   1        ECLIPA   H52R     HAL2     0.900000E-01   1.00800           0
     16792 LPSA16   1        ECLIPA   H52S     HAL2     0.900000E-01   1.00800           0
     16793 LPSA16   1        ECLIPA   C53      CTL1     0.170000       12.0110           0
     16794 LPSA16   1        ECLIPA   H53R     HAL1     0.900000E-01   1.00800           0
     16795 LPSA16   1        ECLIPA   O53      OSL     -0.490000       15.9994           0
     16796 LPSA16   1        ECLIPA   C61      CL       0.900000       12.0110           0
     16797 LPSA16   1        ECLIPA   O61      OBL     -0.630000       15.9994           0
     16798 LPSA16   1        ECLIPA   C62      CTL2    -0.220000       12.0110           0
     16799 LPSA16   1        ECLIPA   H62R     HAL2     0.900000E-01   1.00800           0
     16800 LPSA16   1        ECLIPA   H62S     HAL2     0.900000E-01   1.00800           0
     16801 LPSA16   1        ECLIPA   C63      CTL2    -0.180000       12.0110           0
     16802 LPSA16   1        ECLIPA   H63R     HAL2     0.900000E-01   1.00800           0
     16803 LPSA16   1        ECLIPA   H63S     HAL2     0.900000E-01   1.00800           0
     16804 LPSA16   1        ECLIPA   C64      CTL2    -0.180000       12.0110           0
     16805 LPSA16   1        ECLIPA   H64R     HAL2     0.900000E-01   1.00800           0
     16806 LPSA16   1        ECLIPA   H64S     HAL2     0.900000E-01   1.00800           0
     16807 LPSA16   1        ECLIPA   C65      CTL2    -0.180000       12.0110           0
     16808 LPSA16   1        ECLIPA   H65R     HAL2     0.900000E-01   1.00800           0
     16809 LPSA16   1        ECLIPA   H65S     HAL2     0.900000E-01   1.00800           0
     16810 LPSA16   1        ECLIPA   C66      CTL2    -0.180000       12.0110           0
     16811 LPSA16   1        ECLIPA   H66R     HAL2     0.900000E-01   1.00800           0
     16812 LPSA16   1        ECLIPA   H66S     HAL2     0.900000E-01   1.00800           0
     16813 LPSA16   1        ECLIPA   C67      CTL2    -0.180000       12.0110           0
     16814 LPSA16   1        ECLIPA   H67R     HAL2     0.900000E-01   1.00800           0
     16815 LPSA16   1        ECLIPA   H67S     HAL2     0.900000E-01   1.00800           0
     16816 LPSA16   1        ECLIPA   C68      CTL2    -0.180000       12.0110           0
     16817 LPSA16   1        ECLIPA   H68R     HAL2     0.900000E-01   1.00800           0
     16818 LPSA16   1        ECLIPA   H68S     HAL2     0.900000E-01   1.00800           0
     16819 LPSA16   1        ECLIPA   C69      CTL2    -0.180000       12.0110           0
     16820 LPSA16   1        ECLIPA   H69R     HAL2     0.900000E-01   1.00800           0
     16821 LPSA16   1        ECLIPA   H69S     HAL2     0.900000E-01   1.00800           0
     16822 LPSA16   1        ECLIPA   C610     CTL2    -0.180000       12.0110           0
     16823 LPSA16   1        ECLIPA   H610R    HAL2     0.900000E-01   1.00800           0
     16824 LPSA16   1        ECLIPA   H610S    HAL2     0.900000E-01   1.00800           0
     16825 LPSA16   1        ECLIPA   C611     CTL2    -0.180000       12.0110           0
     16826 LPSA16   1        ECLIPA   H611R    HAL2     0.900000E-01   1.00800           0
     16827 LPSA16   1        ECLIPA   H611S    HAL2     0.900000E-01   1.00800           0
     16828 LPSA16   1        ECLIPA   C612     CTL3    -0.270000       12.0110           0
     16829 LPSA16   1        ECLIPA   H612R    HAL3     0.900000E-01   1.00800           0
     16830 LPSA16   1        ECLIPA   H612S    HAL3     0.900000E-01   1.00800           0
     16831 LPSA16   1        ECLIPA   H612T    HAL3     0.900000E-01   1.00800           0
     16832 LPSA16   1        ECLIPA   C54      CTL2    -0.180000       12.0110           0
     16833 LPSA16   1        ECLIPA   H54R     HAL2     0.900000E-01   1.00800           0
     16834 LPSA16   1        ECLIPA   H54S     HAL2     0.900000E-01   1.00800           0
     16835 LPSA16   1        ECLIPA   C55      CTL2    -0.180000       12.0110           0
     16836 LPSA16   1        ECLIPA   H55R     HAL2     0.900000E-01   1.00800           0
     16837 LPSA16   1        ECLIPA   H55S     HAL2     0.900000E-01   1.00800           0
     16838 LPSA16   1        ECLIPA   C56      CTL2    -0.180000       12.0110           0
     16839 LPSA16   1        ECLIPA   H56R     HAL2     0.900000E-01   1.00800           0
     16840 LPSA16   1        ECLIPA   H56S     HAL2     0.900000E-01   1.00800           0
     16841 LPSA16   1        ECLIPA   C57      CTL2    -0.180000       12.0110           0
     16842 LPSA16   1        ECLIPA   H57R     HAL2     0.900000E-01   1.00800           0
     16843 LPSA16   1        ECLIPA   H57S     HAL2     0.900000E-01   1.00800           0
     16844 LPSA16   1        ECLIPA   C58      CTL2    -0.180000       12.0110           0
     16845 LPSA16   1        ECLIPA   H58R     HAL2     0.900000E-01   1.00800           0
     16846 LPSA16   1        ECLIPA   H58S     HAL2     0.900000E-01   1.00800           0
     16847 LPSA16   1        ECLIPA   C59      CTL2    -0.180000       12.0110           0
     16848 LPSA16   1        ECLIPA   H59R     HAL2     0.900000E-01   1.00800           0
     16849 LPSA16   1        ECLIPA   H59S     HAL2     0.900000E-01   1.00800           0
     16850 LPSA16   1        ECLIPA   C510     CTL2    -0.180000       12.0110           0
     16851 LPSA16   1        ECLIPA   H510R    HAL2     0.900000E-01   1.00800           0
     16852 LPSA16   1        ECLIPA   H510S    HAL2     0.900000E-01   1.00800           0
     16853 LPSA16   1        ECLIPA   C511     CTL2    -0.180000       12.0110           0
     16854 LPSA16   1        ECLIPA   H511R    HAL2     0.900000E-01   1.00800           0
     16855 LPSA16   1        ECLIPA   H511S    HAL2     0.900000E-01   1.00800           0
     16856 LPSA16   1        ECLIPA   C512     CTL2    -0.180000       12.0110           0
     16857 LPSA16   1        ECLIPA   H512R    HAL2     0.900000E-01   1.00800           0
     16858 LPSA16   1        ECLIPA   H512S    HAL2     0.900000E-01   1.00800           0
     16859 LPSA16   1        ECLIPA   C513     CTL2    -0.180000       12.0110           0
     16860 LPSA16   1        ECLIPA   H513R    HAL2     0.900000E-01   1.00800           0
     16861 LPSA16   1        ECLIPA   H513S    HAL2     0.900000E-01   1.00800           0
     16862 LPSA16   1        ECLIPA   C514     CTL3    -0.270000       12.0110           0
     16863 LPSA16   1        ECLIPA   H514R    HAL3     0.900000E-01   1.00800           0
     16864 LPSA16   1        ECLIPA   H514S    HAL3     0.900000E-01   1.00800           0
     16865 LPSA16   1        ECLIPA   H514T    HAL3     0.900000E-01   1.00800           0
     16866 LPSA16   1        ECLIPA   C33      CTL1     0.140000       12.0110           0
     16867 LPSA16   1        ECLIPA   H33R     HAL1     0.900000E-01   1.00800           0
     16868 LPSA16   1        ECLIPA   O33      OH1     -0.660000       15.9994           0
     16869 LPSA16   1        ECLIPA   HO33     H        0.430000       1.00800           0
     16870 LPSA16   1        ECLIPA   C34      CTL2    -0.180000       12.0110           0
     16871 LPSA16   1        ECLIPA   H34R     HAL2     0.900000E-01   1.00800           0
     16872 LPSA16   1        ECLIPA   H34S     HAL2     0.900000E-01   1.00800           0
     16873 LPSA16   1        ECLIPA   C35      CTL2    -0.180000       12.0110           0
     16874 LPSA16   1        ECLIPA   H35R     HAL2     0.900000E-01   1.00800           0
     16875 LPSA16   1        ECLIPA   H35S     HAL2     0.900000E-01   1.00800           0
     16876 LPSA16   1        ECLIPA   C36      CTL2    -0.180000       12.0110           0
     16877 LPSA16   1        ECLIPA   H36R     HAL2     0.900000E-01   1.00800           0
     16878 LPSA16   1        ECLIPA   H36S     HAL2     0.900000E-01   1.00800           0
     16879 LPSA16   1        ECLIPA   C37      CTL2    -0.180000       12.0110           0
     16880 LPSA16   1        ECLIPA   H37R     HAL2     0.900000E-01   1.00800           0
     16881 LPSA16   1        ECLIPA   H37S     HAL2     0.900000E-01   1.00800           0
     16882 LPSA16   1        ECLIPA   C38      CTL2    -0.180000       12.0110           0
     16883 LPSA16   1        ECLIPA   H38R     HAL2     0.900000E-01   1.00800           0
     16884 LPSA16   1        ECLIPA   H38S     HAL2     0.900000E-01   1.00800           0
     16885 LPSA16   1        ECLIPA   C39      CTL2    -0.180000       12.0110           0
     16886 LPSA16   1        ECLIPA   H39R     HAL2     0.900000E-01   1.00800           0
     16887 LPSA16   1        ECLIPA   H39S     HAL2     0.900000E-01   1.00800           0
     16888 LPSA16   1        ECLIPA   C310     CTL2    -0.180000       12.0110           0
     16889 LPSA16   1        ECLIPA   H310R    HAL2     0.900000E-01   1.00800           0
     16890 LPSA16   1        ECLIPA   H310S    HAL2     0.900000E-01   1.00800           0
     16891 LPSA16   1        ECLIPA   C311     CTL2    -0.180000       12.0110           0
     16892 LPSA16   1        ECLIPA   H311R    HAL2     0.900000E-01   1.00800           0
     16893 LPSA16   1        ECLIPA   H311S    HAL2     0.900000E-01   1.00800           0
     16894 LPSA16   1        ECLIPA   C312     CTL2    -0.180000       12.0110           0
     16895 LPSA16   1        ECLIPA   H312R    HAL2     0.900000E-01   1.00800           0
     16896 LPSA16   1        ECLIPA   H312S    HAL2     0.900000E-01   1.00800           0
     16897 LPSA16   1        ECLIPA   C313     CTL2    -0.180000       12.0110           0
     16898 LPSA16   1        ECLIPA   H313R    HAL2     0.900000E-01   1.00800           0
     16899 LPSA16   1        ECLIPA   H313S    HAL2     0.900000E-01   1.00800           0
     16900 LPSA16   1        ECLIPA   C314     CTL3    -0.270000       12.0110           0
     16901 LPSA16   1        ECLIPA   H314R    HAL3     0.900000E-01   1.00800           0
     16902 LPSA16   1        ECLIPA   H314S    HAL3     0.900000E-01   1.00800           0
     16903 LPSA16   1        ECLIPA   H314T    HAL3     0.900000E-01   1.00800           0
     16904 LPSA16   1        ECLIPA   C11      CC2O1    0.550000       12.0110           0
     16905 LPSA16   1        ECLIPA   O11      OC2D1   -0.550000       15.9994           0
     16906 LPSA16   1        ECLIPA   C12      CTL2    -0.180000       12.0110           0
     16907 LPSA16   1        ECLIPA   H12R     HAL2     0.900000E-01   1.00800           0
     16908 LPSA16   1        ECLIPA   H12S     HAL2     0.900000E-01   1.00800           0
     16909 LPSA16   1        ECLIPA   C13      CTL1     0.140000       12.0110           0
     16910 LPSA16   1        ECLIPA   H13R     HAL1     0.900000E-01   1.00800           0
     16911 LPSA16   1        ECLIPA   O13      OH1     -0.660000       15.9994           0
     16912 LPSA16   1        ECLIPA   HO13     H        0.430000       1.00800           0
     16913 LPSA16   1        ECLIPA   C14      CTL2    -0.180000       12.0110           0
     16914 LPSA16   1        ECLIPA   H14R     HAL2     0.900000E-01   1.00800           0
     16915 LPSA16   1        ECLIPA   H14S     HAL2     0.900000E-01   1.00800           0
     16916 LPSA16   1        ECLIPA   C15      CTL2    -0.180000       12.0110           0
     16917 LPSA16   1        ECLIPA   H15R     HAL2     0.900000E-01   1.00800           0
     16918 LPSA16   1        ECLIPA   H15S     HAL2     0.900000E-01   1.00800           0
     16919 LPSA16   1        ECLIPA   C16      CTL2    -0.180000       12.0110           0
     16920 LPSA16   1        ECLIPA   H16R     HAL2     0.900000E-01   1.00800           0
     16921 LPSA16   1        ECLIPA   H16S     HAL2     0.900000E-01   1.00800           0
     16922 LPSA16   1        ECLIPA   C17      CTL2    -0.180000       12.0110           0
     16923 LPSA16   1        ECLIPA   H17R     HAL2     0.900000E-01   1.00800           0
     16924 LPSA16   1        ECLIPA   H17S     HAL2     0.900000E-01   1.00800           0
     16925 LPSA16   1        ECLIPA   C18      CTL2    -0.180000       12.0110           0
     16926 LPSA16   1        ECLIPA   H18R     HAL2     0.900000E-01   1.00800           0
     16927 LPSA16   1        ECLIPA   H18S     HAL2     0.900000E-01   1.00800           0
     16928 LPSA16   1        ECLIPA   C19      CTL2    -0.180000       12.0110           0
     16929 LPSA16   1        ECLIPA   H19R     HAL2     0.900000E-01   1.00800           0
     16930 LPSA16   1        ECLIPA   H19S     HAL2     0.900000E-01   1.00800           0
     16931 LPSA16   1        ECLIPA   C110     CTL2    -0.180000       12.0110           0
     16932 LPSA16   1        ECLIPA   H110R    HAL2     0.900000E-01   1.00800           0
     16933 LPSA16   1        ECLIPA   H110S    HAL2     0.900000E-01   1.00800           0
     16934 LPSA16   1        ECLIPA   C111     CTL2    -0.180000       12.0110           0
     16935 LPSA16   1        ECLIPA   H111R    HAL2     0.900000E-01   1.00800           0
     16936 LPSA16   1        ECLIPA   H111S    HAL2     0.900000E-01   1.00800           0
     16937 LPSA16   1        ECLIPA   C112     CTL2    -0.180000       12.0110           0
     16938 LPSA16   1        ECLIPA   H112R    HAL2     0.900000E-01   1.00800           0
     16939 LPSA16   1        ECLIPA   H112S    HAL2     0.900000E-01   1.00800           0
     16940 LPSA16   1        ECLIPA   C113     CTL2    -0.180000       12.0110           0
     16941 LPSA16   1        ECLIPA   H113R    HAL2     0.900000E-01   1.00800           0
     16942 LPSA16   1        ECLIPA   H113S    HAL2     0.900000E-01   1.00800           0
     16943 LPSA16   1        ECLIPA   C114     CTL3    -0.270000       12.0110           0
     16944 LPSA16   1        ECLIPA   H114R    HAL3     0.900000E-01   1.00800           0
     16945 LPSA16   1        ECLIPA   H114S    HAL3     0.900000E-01   1.00800           0
     16946 LPSA16   1        ECLIPA   H114T    HAL3     0.900000E-01   1.00800           0
     16947 LPSA16   2        AKDO     C1       CC2O2    0.300000       12.0110           0
     16948 LPSA16   2        AKDO     O11      OC2D2   -0.600000       15.9994           0
     16949 LPSA16   2        AKDO     O12      OC2D2   -0.600000       15.9994           0
     16950 LPSA16   2        AKDO     C2       CC3062   0.280000       12.0110           0
     16951 LPSA16   2        AKDO     C6       CC3163   0.110000       12.0110           0
     16952 LPSA16   2        AKDO     H6       HCA1     0.900000E-01   1.00800           0
     16953 LPSA16   2        AKDO     O6       OC3C61  -0.400000       15.9994           0
     16954 LPSA16   2        AKDO     C3       CC3261  -0.180000       12.0110           0
     16955 LPSA16   2        AKDO     H31      HCA2     0.900000E-01   1.00800           0
     16956 LPSA16   2        AKDO     H32      HCA2     0.900000E-01   1.00800           0
     16957 LPSA16   2        AKDO     C4       CC3161   0.900000E-01   12.0110           0
     16958 LPSA16   2        AKDO     H4       HCA1     0.900000E-01   1.00800           0
     16959 LPSA16   2        AKDO     O4       OC301   -0.360000       15.9994           0
     16960 LPSA16   2        AKDO     C5       CC3161   0.900000E-01   12.0110           0
     16961 LPSA16   2        AKDO     H5       HCA1     0.900000E-01   1.00800           0
     16962 LPSA16   2        AKDO     O5       OC301   -0.360000       15.9994           0
     16963 LPSA16   2        AKDO     C7       CC312    0.140000       12.0110           0
     16964 LPSA16   2        AKDO     H7       HCA1     0.900000E-01   1.00800           0
     16965 LPSA16   2        AKDO     O7       OC311   -0.650000       15.9994           0
     16966 LPSA16   2        AKDO     HO7      HCP1     0.420000       1.00800           0
     16967 LPSA16   2        AKDO     C8       CC322    0.500000E-01   12.0110           0
     16968 LPSA16   2        AKDO     H81      HCA2     0.900000E-01   1.00800           0
     16969 LPSA16   2        AKDO     H82      HCA2     0.900000E-01   1.00800           0
     16970 LPSA16   2        AKDO     O8       OC311   -0.650000       15.9994           0
     16971 LPSA16   2        AKDO     HO8      HCP1     0.420000       1.00800           0
     16972 LPSA16   3        AKDO     C1       CC2O2    0.300000       12.0110           0
     16973 LPSA16   3        AKDO     O11      OC2D2   -0.600000       15.9994           0
     16974 LPSA16   3        AKDO     O12      OC2D2   -0.600000       15.9994           0
     16975 LPSA16   3        AKDO     C2       CC3062   0.280000       12.0110           0
     16976 LPSA16   3        AKDO     C6       CC3163   0.110000       12.0110           0
     16977 LPSA16   3        AKDO     H6       HCA1     0.900000E-01   1.00800           0
     16978 LPSA16   3        AKDO     O6       OC3C61  -0.400000       15.9994           0
     16979 LPSA16   3        AKDO     C3       CC3261  -0.180000       12.0110           0
     16980 LPSA16   3        AKDO     H31      HCA2     0.900000E-01   1.00800           0
     16981 LPSA16   3        AKDO     H32      HCA2     0.900000E-01   1.00800           0
     16982 LPSA16   3        AKDO     C4       CC3161   0.140000       12.0110           0
     16983 LPSA16   3        AKDO     H4       HCA1     0.900000E-01   1.00800           0
     16984 LPSA16   3        AKDO     O4       OC311   -0.650000       15.9994           0
     16985 LPSA16   3        AKDO     HO4      HCP1     0.420000       1.00800           0
     16986 LPSA16   3        AKDO     C5       CC3161   0.140000       12.0110           0
     16987 LPSA16   3        AKDO     H5       HCA1     0.900000E-01   1.00800           0
     16988 LPSA16   3        AKDO     O5       OC311   -0.650000       15.9994           0
     16989 LPSA16   3        AKDO     HO5      HCP1     0.420000       1.00800           0
     16990 LPSA16   3        AKDO     C7       CC312    0.140000       12.0110           0
     16991 LPSA16   3        AKDO     H7       HCA1     0.900000E-01   1.00800           0
     16992 LPSA16   3        AKDO     O7       OC311   -0.650000       15.9994           0
     16993 LPSA16   3        AKDO     HO7      HCP1     0.420000       1.00800           0
     16994 LPSA16   3        AKDO     C8       CC322    0.500000E-01   12.0110           0
     16995 LPSA16   3        AKDO     H81      HCA2     0.900000E-01   1.00800           0
     16996 LPSA16   3        AKDO     H82      HCA2     0.900000E-01   1.00800           0
     16997 LPSA16   3        AKDO     O8       OC311   -0.650000       15.9994           0
     16998 LPSA16   3        AKDO     HO8      HCP1     0.420000       1.00800           0
     16999 LPSA16   4        AHEP     C1       CC3162   0.290000       12.0110           0
     17000 LPSA16   4        AHEP     H1       HCA1     0.900000E-01   1.00800           0
     17001 LPSA16   4        AHEP     C5       CC3163   0.110000       12.0110           0
     17002 LPSA16   4        AHEP     H5       HCA1     0.900000E-01   1.00800           0
     17003 LPSA16   4        AHEP     O5       OC3C61  -0.400000       15.9994           0
     17004 LPSA16   4        AHEP     C2       CC3161   0.140000       12.0110           0
     17005 LPSA16   4        AHEP     H2       HCA1     0.900000E-01   1.00800           0
     17006 LPSA16   4        AHEP     O2       OC311   -0.650000       15.9994           0
     17007 LPSA16   4        AHEP     HO2      HCP1     0.420000       1.00800           0
     17008 LPSA16   4        AHEP     C3       CC3161   0.900000E-01   12.0110           0
     17009 LPSA16   4        AHEP     H3       HCA1     0.900000E-01   1.00800           0
     17010 LPSA16   4        AHEP     O3       OC301   -0.360000       15.9994           0
     17011 LPSA16   4        AHEP     C4       CC3161  -0.900000E-01   12.0110           0
     17012 LPSA16   4        AHEP     H4       HCA1     0.900000E-01   1.00800           0
     17013 LPSA16   4        AHEP     O4       OC30P   -0.400000       15.9994           0
     17014 LPSA16   4        AHEP     P4       PC        1.10000       30.9740           0
     17015 LPSA16   4        AHEP     OP42     OC2DP   -0.900000       15.9994           0
     17016 LPSA16   4        AHEP     OP43     OC2DP   -0.900000       15.9994           0
     17017 LPSA16   4        AHEP     OP44     OC2DP   -0.900000       15.9994           0
     17018 LPSA16   4        AHEP     C6       CC312    0.140000       12.0110           0
     17019 LPSA16   4        AHEP     H6       HCA1     0.900000E-01   1.00800           0
     17020 LPSA16   4        AHEP     O6       OC311   -0.650000       15.9994           0
     17021 LPSA16   4        AHEP     HO6      HCP1     0.420000       1.00800           0
     17022 LPSA16   4        AHEP     C7       CC322    0.500000E-01   12.0110           0
     17023 LPSA16   4        AHEP     H71      HCA2     0.900000E-01   1.00800           0
     17024 LPSA16   4        AHEP     H72      HCA2     0.900000E-01   1.00800           0
     17025 LPSA16   4        AHEP     O7       OC311   -0.650000       15.9994           0
     17026 LPSA16   4        AHEP     HO7      HCP1     0.420000       1.00800           0
     17027 LPSA16   5        AHEP     C1       CC3162   0.290000       12.0110           0
     17028 LPSA16   5        AHEP     H1       HCA1     0.900000E-01   1.00800           0
     17029 LPSA16   5        AHEP     C5       CC3163   0.110000       12.0110           0
     17030 LPSA16   5        AHEP     H5       HCA1     0.900000E-01   1.00800           0
     17031 LPSA16   5        AHEP     O5       OC3C61  -0.400000       15.9994           0
     17032 LPSA16   5        AHEP     C2       CC3161   0.140000       12.0110           0
     17033 LPSA16   5        AHEP     H2       HCA1     0.900000E-01   1.00800           0
     17034 LPSA16   5        AHEP     O2       OC311   -0.650000       15.9994           0
     17035 LPSA16   5        AHEP     HO2      HCP1     0.420000       1.00800           0
     17036 LPSA16   5        AHEP     C3       CC3161   0.900000E-01   12.0110           0
     17037 LPSA16   5        AHEP     H3       HCA1     0.900000E-01   1.00800           0
     17038 LPSA16   5        AHEP     O3       OC301   -0.360000       15.9994           0
     17039 LPSA16   5        AHEP     C4       CC3161  -0.900000E-01   12.0110           0
     17040 LPSA16   5        AHEP     H4       HCA1     0.900000E-01   1.00800           0
     17041 LPSA16   5        AHEP     O4       OC30P   -0.400000       15.9994           0
     17042 LPSA16   5        AHEP     P4       PC        1.10000       30.9740           0
     17043 LPSA16   5        AHEP     OP42     OC2DP   -0.900000       15.9994           0
     17044 LPSA16   5        AHEP     OP43     OC2DP   -0.900000       15.9994           0
     17045 LPSA16   5        AHEP     OP44     OC2DP   -0.900000       15.9994           0
     17046 LPSA16   5        AHEP     C6       CC312    0.140000       12.0110           0
     17047 LPSA16   5        AHEP     H6       HCA1     0.900000E-01   1.00800           0
     17048 LPSA16   5        AHEP     O6       OC311   -0.650000       15.9994           0
     17049 LPSA16   5        AHEP     HO6      HCP1     0.420000       1.00800           0
     17050 LPSA16   5        AHEP     C7       CC322     0.00000       12.0110           0
     17051 LPSA16   5        AHEP     H71      HCA2     0.900000E-01   1.00800           0
     17052 LPSA16   5        AHEP     H72      HCA2     0.900000E-01   1.00800           0
     17053 LPSA16   5        AHEP     O7       OC301   -0.360000       15.9994           0
     17054 LPSA16   6        AHEP     C1       CC3162   0.290000       12.0110           0
     17055 LPSA16   6        AHEP     H1       HCA1     0.900000E-01   1.00800           0
     17056 LPSA16   6        AHEP     C5       CC3163   0.110000       12.0110           0
     17057 LPSA16   6        AHEP     H5       HCA1     0.900000E-01   1.00800           0
     17058 LPSA16   6        AHEP     O5       OC3C61  -0.400000       15.9994           0
     17059 LPSA16   6        AHEP     C2       CC3161   0.140000       12.0110           0
     17060 LPSA16   6        AHEP     H2       HCA1     0.900000E-01   1.00800           0
     17061 LPSA16   6        AHEP     O2       OC311   -0.650000       15.9994           0
     17062 LPSA16   6        AHEP     HO2      HCP1     0.420000       1.00800           0
     17063 LPSA16   6        AHEP     C3       CC3161   0.140000       12.0110           0
     17064 LPSA16   6        AHEP     H3       HCA1     0.900000E-01   1.00800           0
     17065 LPSA16   6        AHEP     O3       OC311   -0.650000       15.9994           0
     17066 LPSA16   6        AHEP     HO3      HCP1     0.420000       1.00800           0
     17067 LPSA16   6        AHEP     C4       CC3161   0.140000       12.0110           0
     17068 LPSA16   6        AHEP     H4       HCA1     0.900000E-01   1.00800           0
     17069 LPSA16   6        AHEP     O4       OC311   -0.650000       15.9994           0
     17070 LPSA16   6        AHEP     HO4      HCP1     0.420000       1.00800           0
     17071 LPSA16   6        AHEP     C6       CC312    0.140000       12.0110           0
     17072 LPSA16   6        AHEP     H6       HCA1     0.900000E-01   1.00800           0
     17073 LPSA16   6        AHEP     O6       OC311   -0.650000       15.9994           0
     17074 LPSA16   6        AHEP     HO6      HCP1     0.420000       1.00800           0
     17075 LPSA16   6        AHEP     C7       CC322    0.500000E-01   12.0110           0
     17076 LPSA16   6        AHEP     H71      HCA2     0.900000E-01   1.00800           0
     17077 LPSA16   6        AHEP     H72      HCA2     0.900000E-01   1.00800           0
     17078 LPSA16   6        AHEP     O7       OC311   -0.650000       15.9994           0
     17079 LPSA16   6        AHEP     HO7      HCP1     0.420000       1.00800           0
     17080 LPSA16   7        AGLC     C1       CC3162   0.290000       12.0110           0
     17081 LPSA16   7        AGLC     H1       HCA1     0.900000E-01   1.00800           0
     17082 LPSA16   7        AGLC     C5       CC3163   0.110000       12.0110           0
     17083 LPSA16   7        AGLC     H5       HCA1     0.900000E-01   1.00800           0
     17084 LPSA16   7        AGLC     O5       OC3C61  -0.400000       15.9994           0
     17085 LPSA16   7        AGLC     C2       CC3161   0.140000       12.0110           0
     17086 LPSA16   7        AGLC     H2       HCA1     0.900000E-01   1.00800           0
     17087 LPSA16   7        AGLC     O2       OC311   -0.650000       15.9994           0
     17088 LPSA16   7        AGLC     HO2      HCP1     0.420000       1.00800           0
     17089 LPSA16   7        AGLC     C3       CC3161   0.900000E-01   12.0110           0
     17090 LPSA16   7        AGLC     H3       HCA1     0.900000E-01   1.00800           0
     17091 LPSA16   7        AGLC     O3       OC301   -0.360000       15.9994           0
     17092 LPSA16   7        AGLC     C4       CC3161   0.140000       12.0110           0
     17093 LPSA16   7        AGLC     H4       HCA1     0.900000E-01   1.00800           0
     17094 LPSA16   7        AGLC     O4       OC311   -0.650000       15.9994           0
     17095 LPSA16   7        AGLC     HO4      HCP1     0.420000       1.00800           0
     17096 LPSA16   7        AGLC     C6       CC321    0.500000E-01   12.0110           0
     17097 LPSA16   7        AGLC     H61      HCA2     0.900000E-01   1.00800           0
     17098 LPSA16   7        AGLC     H62      HCA2     0.900000E-01   1.00800           0
     17099 LPSA16   7        AGLC     O6       OC311   -0.650000       15.9994           0
     17100 LPSA16   7        AGLC     HO6      HCP1     0.420000       1.00800           0
     17101 LPSA16   8        AGLC     C1       CC3162   0.290000       12.0110           0
     17102 LPSA16   8        AGLC     H1       HCA1     0.900000E-01   1.00800           0
     17103 LPSA16   8        AGLC     C5       CC3163   0.110000       12.0110           0
     17104 LPSA16   8        AGLC     H5       HCA1     0.900000E-01   1.00800           0
     17105 LPSA16   8        AGLC     O5       OC3C61  -0.400000       15.9994           0
     17106 LPSA16   8        AGLC     C2       CC3161   0.900000E-01   12.0110           0
     17107 LPSA16   8        AGLC     H2       HCA1     0.900000E-01   1.00800           0
     17108 LPSA16   8        AGLC     O2       OC301   -0.360000       15.9994           0
     17109 LPSA16   8        AGLC     C3       CC3161   0.900000E-01   12.0110           0
     17110 LPSA16   8        AGLC     H3       HCA1     0.900000E-01   1.00800           0
     17111 LPSA16   8        AGLC     O3       OC301   -0.360000       15.9994           0
     17112 LPSA16   8        AGLC     C4       CC3161   0.140000       12.0110           0
     17113 LPSA16   8        AGLC     H4       HCA1     0.900000E-01   1.00800           0
     17114 LPSA16   8        AGLC     O4       OC311   -0.650000       15.9994           0
     17115 LPSA16   8        AGLC     HO4      HCP1     0.420000       1.00800           0
     17116 LPSA16   8        AGLC     C6       CC321    0.500000E-01   12.0110           0
     17117 LPSA16   8        AGLC     H61      HCA2     0.900000E-01   1.00800           0
     17118 LPSA16   8        AGLC     H62      HCA2     0.900000E-01   1.00800           0
     17119 LPSA16   8        AGLC     O6       OC311   -0.650000       15.9994           0
     17120 LPSA16   8        AGLC     HO6      HCP1     0.420000       1.00800           0
     17121 LPSA16   9        AGAL     C1       CC3162   0.290000       12.0110           0
     17122 LPSA16   9        AGAL     H1       HCA1     0.900000E-01   1.00800           0
     17123 LPSA16   9        AGAL     C5       CC3163   0.110000       12.0110           0
     17124 LPSA16   9        AGAL     H5       HCA1     0.900000E-01   1.00800           0
     17125 LPSA16   9        AGAL     O5       OC3C61  -0.400000       15.9994           0
     17126 LPSA16   9        AGAL     C2       CC3161   0.900000E-01   12.0110           0
     17127 LPSA16   9        AGAL     H2       HCA1     0.900000E-01   1.00800           0
     17128 LPSA16   9        AGAL     O2       OC301   -0.360000       15.9994           0
     17129 LPSA16   9        AGAL     C3       CC3161   0.140000       12.0110           0
     17130 LPSA16   9        AGAL     H3       HCA1     0.900000E-01   1.00800           0
     17131 LPSA16   9        AGAL     O3       OC311   -0.650000       15.9994           0
     17132 LPSA16   9        AGAL     HO3      HCP1     0.420000       1.00800           0
     17133 LPSA16   9        AGAL     C4       CC3161   0.140000       12.0110           0
     17134 LPSA16   9        AGAL     H4       HCA1     0.900000E-01   1.00800           0
     17135 LPSA16   9        AGAL     O4       OC311   -0.650000       15.9994           0
     17136 LPSA16   9        AGAL     HO4      HCP1     0.420000       1.00800           0
     17137 LPSA16   9        AGAL     C6       CC321    0.500000E-01   12.0110           0
     17138 LPSA16   9        AGAL     H61      HCA2     0.900000E-01   1.00800           0
     17139 LPSA16   9        AGAL     H62      HCA2     0.900000E-01   1.00800           0
     17140 LPSA16   9        AGAL     O6       OC311   -0.650000       15.9994           0
     17141 LPSA16   9        AGAL     HO6      HCP1     0.420000       1.00800           0
     17142 LPSA16   10       AGAL     C1       CC3162   0.290000       12.0110           0
     17143 LPSA16   10       AGAL     H1       HCA1     0.900000E-01   1.00800           0
     17144 LPSA16   10       AGAL     C5       CC3163   0.110000       12.0110           0
     17145 LPSA16   10       AGAL     H5       HCA1     0.900000E-01   1.00800           0
     17146 LPSA16   10       AGAL     O5       OC3C61  -0.400000       15.9994           0
     17147 LPSA16   10       AGAL     C2       CC3161   0.140000       12.0110           0
     17148 LPSA16   10       AGAL     H2       HCA1     0.900000E-01   1.00800           0
     17149 LPSA16   10       AGAL     O2       OC311   -0.650000       15.9994           0
     17150 LPSA16   10       AGAL     HO2      HCP1     0.420000       1.00800           0
     17151 LPSA16   10       AGAL     C3       CC3161   0.140000       12.0110           0
     17152 LPSA16   10       AGAL     H3       HCA1     0.900000E-01   1.00800           0
     17153 LPSA16   10       AGAL     O3       OC311   -0.650000       15.9994           0
     17154 LPSA16   10       AGAL     HO3      HCP1     0.420000       1.00800           0
     17155 LPSA16   10       AGAL     C4       CC3161   0.140000       12.0110           0
     17156 LPSA16   10       AGAL     H4       HCA1     0.900000E-01   1.00800           0
     17157 LPSA16   10       AGAL     O4       OC311   -0.650000       15.9994           0
     17158 LPSA16   10       AGAL     HO4      HCP1     0.420000       1.00800           0
     17159 LPSA16   10       AGAL     C6       CC321    0.500000E-01   12.0110           0
     17160 LPSA16   10       AGAL     H61      HCA2     0.900000E-01   1.00800           0
     17161 LPSA16   10       AGAL     H62      HCA2     0.900000E-01   1.00800           0
     17162 LPSA16   10       AGAL     O6       OC311   -0.650000       15.9994           0
     17163 LPSA16   10       AGAL     HO6      HCP1     0.420000       1.00800           0
     17164 LPSA16   11       BGLC     C1       CC3162   0.290000       12.0110           0
     17165 LPSA16   11       BGLC     H1       HCA1     0.900000E-01   1.00800           0
     17166 LPSA16   11       BGLC     C5       CC3163   0.110000       12.0110           0
     17167 LPSA16   11       BGLC     H5       HCA1     0.900000E-01   1.00800           0
     17168 LPSA16   11       BGLC     O5       OC3C61  -0.400000       15.9994           0
     17169 LPSA16   11       BGLC     C2       CC3161   0.140000       12.0110           0
     17170 LPSA16   11       BGLC     H2       HCA1     0.900000E-01   1.00800           0
     17171 LPSA16   11       BGLC     O2       OC311   -0.650000       15.9994           0
     17172 LPSA16   11       BGLC     HO2      HCP1     0.420000       1.00800           0
     17173 LPSA16   11       BGLC     C3       CC3161   0.900000E-01   12.0110           0
     17174 LPSA16   11       BGLC     H3       HCA1     0.900000E-01   1.00800           0
     17175 LPSA16   11       BGLC     O3       OC301   -0.360000       15.9994           0
     17176 LPSA16   11       BGLC     C4       CC3161   0.140000       12.0110           0
     17177 LPSA16   11       BGLC     H4       HCA1     0.900000E-01   1.00800           0
     17178 LPSA16   11       BGLC     O4       OC311   -0.650000       15.9994           0
     17179 LPSA16   11       BGLC     HO4      HCP1     0.420000       1.00800           0
     17180 LPSA16   11       BGLC     C6       CC321    0.500000E-01   12.0110           0
     17181 LPSA16   11       BGLC     H61      HCA2     0.900000E-01   1.00800           0
     17182 LPSA16   11       BGLC     H62      HCA2     0.900000E-01   1.00800           0
     17183 LPSA16   11       BGLC     O6       OC311   -0.650000       15.9994           0
     17184 LPSA16   11       BGLC     HO6      HCP1     0.420000       1.00800           0
     17185 LPSA16   12       BGLCNA   C1       CC3162   0.290000       12.0110           0
     17186 LPSA16   12       BGLCNA   H1       HCA1     0.900000E-01   1.00800           0
     17187 LPSA16   12       BGLCNA   C5       CC3163   0.110000       12.0110           0
     17188 LPSA16   12       BGLCNA   H5       HCA1     0.900000E-01   1.00800           0
     17189 LPSA16   12       BGLCNA   O5       OC3C61  -0.400000       15.9994           0
     17190 LPSA16   12       BGLCNA   C2       CC3161   0.700000E-01   12.0110           0
     17191 LPSA16   12       BGLCNA   H2       HCA1     0.900000E-01   1.00800           0
     17192 LPSA16   12       BGLCNA   N        NC2D1   -0.470000       14.0070           0
     17193 LPSA16   12       BGLCNA   HN       HCP1     0.310000       1.00800           0
     17194 LPSA16   12       BGLCNA   C        CC2O1    0.510000       12.0110           0
     17195 LPSA16   12       BGLCNA   O        OC2D1   -0.510000       15.9994           0
     17196 LPSA16   12       BGLCNA   CT       CC331   -0.270000       12.0110           0
     17197 LPSA16   12       BGLCNA   HT1      HCA3     0.900000E-01   1.00800           0
     17198 LPSA16   12       BGLCNA   HT2      HCA3     0.900000E-01   1.00800           0
     17199 LPSA16   12       BGLCNA   HT3      HCA3     0.900000E-01   1.00800           0
     17200 LPSA16   12       BGLCNA   C3       CC3161   0.900000E-01   12.0110           0
     17201 LPSA16   12       BGLCNA   H3       HCA1     0.900000E-01   1.00800           0
     17202 LPSA16   12       BGLCNA   O3       OC301   -0.360000       15.9994           0
     17203 LPSA16   12       BGLCNA   C4       CC3161   0.140000       12.0110           0
     17204 LPSA16   12       BGLCNA   H4       HCA1     0.900000E-01   1.00800           0
     17205 LPSA16   12       BGLCNA   O4       OC311   -0.650000       15.9994           0
     17206 LPSA16   12       BGLCNA   HO4      HCP1     0.420000       1.00800           0
     17207 LPSA16   12       BGLCNA   C6       CC321    0.500000E-01   12.0110           0
     17208 LPSA16   12       BGLCNA   H61      HCA2     0.900000E-01   1.00800           0
     17209 LPSA16   12       BGLCNA   H62      HCA2     0.900000E-01   1.00800           0
     17210 LPSA16   12       BGLCNA   O6       OC311   -0.650000       15.9994           0
     17211 LPSA16   12       BGLCNA   HO6      HCP1     0.420000       1.00800           0
     17212 LPSA16   13       AGAL     C1       CC3162   0.290000       12.0110           0
     17213 LPSA16   13       AGAL     H1       HCA1     0.900000E-01   1.00800           0
     17214 LPSA16   13       AGAL     C5       CC3163   0.110000       12.0110           0
     17215 LPSA16   13       AGAL     H5       HCA1     0.900000E-01   1.00800           0
     17216 LPSA16   13       AGAL     O5       OC3C61  -0.400000       15.9994           0
     17217 LPSA16   13       AGAL     C2       CC3161   0.900000E-01   12.0110           0
     17218 LPSA16   13       AGAL     H2       HCA1     0.900000E-01   1.00800           0
     17219 LPSA16   13       AGAL     O2       OC301   -0.360000       15.9994           0
     17220 LPSA16   13       AGAL     C3       CC3161   0.140000       12.0110           0
     17221 LPSA16   13       AGAL     H3       HCA1     0.900000E-01   1.00800           0
     17222 LPSA16   13       AGAL     O3       OC311   -0.650000       15.9994           0
     17223 LPSA16   13       AGAL     HO3      HCP1     0.420000       1.00800           0
     17224 LPSA16   13       AGAL     C4       CC3161   0.140000       12.0110           0
     17225 LPSA16   13       AGAL     H4       HCA1     0.900000E-01   1.00800           0
     17226 LPSA16   13       AGAL     O4       OC311   -0.650000       15.9994           0
     17227 LPSA16   13       AGAL     HO4      HCP1     0.420000       1.00800           0
     17228 LPSA16   13       AGAL     C6       CC321    0.500000E-01   12.0110           0
     17229 LPSA16   13       AGAL     H61      HCA2     0.900000E-01   1.00800           0
     17230 LPSA16   13       AGAL     H62      HCA2     0.900000E-01   1.00800           0
     17231 LPSA16   13       AGAL     O6       OC311   -0.650000       15.9994           0
     17232 LPSA16   13       AGAL     HO6      HCP1     0.420000       1.00800           0
     17233 LPSA16   14       ARHM     C1       CC3162   0.290000       12.0110           0
     17234 LPSA16   14       ARHM     H1       HCA1     0.900000E-01   1.00800           0
     17235 LPSA16   14       ARHM     C5       CC3163   0.110000       12.0110           0
     17236 LPSA16   14       ARHM     H5       HCA1     0.900000E-01   1.00800           0
     17237 LPSA16   14       ARHM     O5       OC3C61  -0.400000       15.9994           0
     17238 LPSA16   14       ARHM     C2       CC3161   0.900000E-01   12.0110           0
     17239 LPSA16   14       ARHM     H2       HCA1     0.900000E-01   1.00800           0
     17240 LPSA16   14       ARHM     O2       OC301   -0.360000       15.9994           0
     17241 LPSA16   14       ARHM     C3       CC3161   0.140000       12.0110           0
     17242 LPSA16   14       ARHM     H3       HCA1     0.900000E-01   1.00800           0
     17243 LPSA16   14       ARHM     O3       OC311   -0.650000       15.9994           0
     17244 LPSA16   14       ARHM     HO3      HCP1     0.420000       1.00800           0
     17245 LPSA16   14       ARHM     C4       CC3161   0.140000       12.0110           0
     17246 LPSA16   14       ARHM     H4       HCA1     0.900000E-01   1.00800           0
     17247 LPSA16   14       ARHM     O4       OC311   -0.650000       15.9994           0
     17248 LPSA16   14       ARHM     HO4      HCP1     0.420000       1.00800           0
     17249 LPSA16   14       ARHM     C6       CC331   -0.270000       12.0110           0
     17250 LPSA16   14       ARHM     H61      HCA3     0.900000E-01   1.00800           0
     17251 LPSA16   14       ARHM     H62      HCA3     0.900000E-01   1.00800           0
     17252 LPSA16   14       ARHM     H63      HCA3     0.900000E-01   1.00800           0
     17253 LPSA16   15       ARHM     C1       CC3162   0.290000       12.0110           0
     17254 LPSA16   15       ARHM     H1       HCA1     0.900000E-01   1.00800           0
     17255 LPSA16   15       ARHM     C5       CC3163   0.110000       12.0110           0
     17256 LPSA16   15       ARHM     H5       HCA1     0.900000E-01   1.00800           0
     17257 LPSA16   15       ARHM     O5       OC3C61  -0.400000       15.9994           0
     17258 LPSA16   15       ARHM     C2       CC3161   0.900000E-01   12.0110           0
     17259 LPSA16   15       ARHM     H2       HCA1     0.900000E-01   1.00800           0
     17260 LPSA16   15       ARHM     O2       OC301   -0.360000       15.9994           0
     17261 LPSA16   15       ARHM     C3       CC3161   0.900000E-01   12.0110           0
     17262 LPSA16   15       ARHM     H3       HCA1     0.900000E-01   1.00800           0
     17263 LPSA16   15       ARHM     O3       OC301   -0.360000       15.9994           0
     17264 LPSA16   15       ARHM     C4       CC3161   0.140000       12.0110           0
     17265 LPSA16   15       ARHM     H4       HCA1     0.900000E-01   1.00800           0
     17266 LPSA16   15       ARHM     O4       OC311   -0.650000       15.9994           0
     17267 LPSA16   15       ARHM     HO4      HCP1     0.420000       1.00800           0
     17268 LPSA16   15       ARHM     C6       CC331   -0.270000       12.0110           0
     17269 LPSA16   15       ARHM     H61      HCA3     0.900000E-01   1.00800           0
     17270 LPSA16   15       ARHM     H62      HCA3     0.900000E-01   1.00800           0
     17271 LPSA16   15       ARHM     H63      HCA3     0.900000E-01   1.00800           0
     17272 LPSA16   16       BMANNA   C1       CC3162   0.290000       12.0110           0
     17273 LPSA16   16       BMANNA   H1       HCA1     0.900000E-01   1.00800           0
     17274 LPSA16   16       BMANNA   C5       CC3163   0.110000       12.0110           0
     17275 LPSA16   16       BMANNA   H5       HCA1     0.900000E-01   1.00800           0
     17276 LPSA16   16       BMANNA   O5       OC3C61  -0.400000       15.9994           0
     17277 LPSA16   16       BMANNA   C2       CC3161   0.700000E-01   12.0110           0
     17278 LPSA16   16       BMANNA   H2       HCA1     0.900000E-01   1.00800           0
     17279 LPSA16   16       BMANNA   N        NC2D1   -0.470000       14.0070           0
     17280 LPSA16   16       BMANNA   HN       HCP1     0.310000       1.00800           0
     17281 LPSA16   16       BMANNA   C        CC2O1    0.510000       12.0110           0
     17282 LPSA16   16       BMANNA   O        OC2D1   -0.510000       15.9994           0
     17283 LPSA16   16       BMANNA   CT       CC331   -0.270000       12.0110           0
     17284 LPSA16   16       BMANNA   HT1      HCA3     0.900000E-01   1.00800           0
     17285 LPSA16   16       BMANNA   HT2      HCA3     0.900000E-01   1.00800           0
     17286 LPSA16   16       BMANNA   HT3      HCA3     0.900000E-01   1.00800           0
     17287 LPSA16   16       BMANNA   C3       CC3161   0.140000       12.0110           0
     17288 LPSA16   16       BMANNA   H3       HCA1     0.900000E-01   1.00800           0
     17289 LPSA16   16       BMANNA   O3       OC311   -0.650000       15.9994           0
     17290 LPSA16   16       BMANNA   HO3      HCP1     0.420000       1.00800           0
     17291 LPSA16   16       BMANNA   C4       CC3161   0.140000       12.0110           0
     17292 LPSA16   16       BMANNA   H4       HCA1     0.900000E-01   1.00800           0
     17293 LPSA16   16       BMANNA   O4       OC311   -0.650000       15.9994           0
     17294 LPSA16   16       BMANNA   HO4      HCP1     0.420000       1.00800           0
     17295 LPSA16   16       BMANNA   C6       CC321    0.500000E-01   12.0110           0
     17296 LPSA16   16       BMANNA   H61      HCA2     0.900000E-01   1.00800           0
     17297 LPSA16   16       BMANNA   H62      HCA2     0.900000E-01   1.00800           0
     17298 LPSA16   16       BMANNA   O6       OC311   -0.650000       15.9994           0
     17299 LPSA16   16       BMANNA   HO6      HCP1     0.420000       1.00800           0
     17300 LPSA16   17       BGLCNA   C1       CC3162   0.290000       12.0110           0
     17301 LPSA16   17       BGLCNA   H1       HCA1     0.900000E-01   1.00800           0
     17302 LPSA16   17       BGLCNA   C5       CC3163   0.110000       12.0110           0
     17303 LPSA16   17       BGLCNA   H5       HCA1     0.900000E-01   1.00800           0
     17304 LPSA16   17       BGLCNA   O5       OC3C61  -0.400000       15.9994           0
     17305 LPSA16   17       BGLCNA   C2       CC3161   0.700000E-01   12.0110           0
     17306 LPSA16   17       BGLCNA   H2       HCA1     0.900000E-01   1.00800           0
     17307 LPSA16   17       BGLCNA   N        NC2D1   -0.470000       14.0070           0
     17308 LPSA16   17       BGLCNA   HN       HCP1     0.310000       1.00800           0
     17309 LPSA16   17       BGLCNA   C        CC2O1    0.510000       12.0110           0
     17310 LPSA16   17       BGLCNA   O        OC2D1   -0.510000       15.9994           0
     17311 LPSA16   17       BGLCNA   CT       CC331   -0.270000       12.0110           0
     17312 LPSA16   17       BGLCNA   HT1      HCA3     0.900000E-01   1.00800           0
     17313 LPSA16   17       BGLCNA   HT2      HCA3     0.900000E-01   1.00800           0
     17314 LPSA16   17       BGLCNA   HT3      HCA3     0.900000E-01   1.00800           0
     17315 LPSA16   17       BGLCNA   C3       CC3161   0.900000E-01   12.0110           0
     17316 LPSA16   17       BGLCNA   H3       HCA1     0.900000E-01   1.00800           0
     17317 LPSA16   17       BGLCNA   O3       OC301   -0.360000       15.9994           0
     17318 LPSA16   17       BGLCNA   C4       CC3161   0.140000       12.0110           0
     17319 LPSA16   17       BGLCNA   H4       HCA1     0.900000E-01   1.00800           0
     17320 LPSA16   17       BGLCNA   O4       OC311   -0.650000       15.9994           0
     17321 LPSA16   17       BGLCNA   HO4      HCP1     0.420000       1.00800           0
     17322 LPSA16   17       BGLCNA   C6       CC321    0.500000E-01   12.0110           0
     17323 LPSA16   17       BGLCNA   H61      HCA2     0.900000E-01   1.00800           0
     17324 LPSA16   17       BGLCNA   H62      HCA2     0.900000E-01   1.00800           0
     17325 LPSA16   17       BGLCNA   O6       OC311   -0.650000       15.9994           0
     17326 LPSA16   17       BGLCNA   HO6      HCP1     0.420000       1.00800           0
     17327 LPSA16   18       AGAL     C1       CC3162   0.290000       12.0110           0
     17328 LPSA16   18       AGAL     H1       HCA1     0.900000E-01   1.00800           0
     17329 LPSA16   18       AGAL     C5       CC3163   0.110000       12.0110           0
     17330 LPSA16   18       AGAL     H5       HCA1     0.900000E-01   1.00800           0
     17331 LPSA16   18       AGAL     O5       OC3C61  -0.400000       15.9994           0
     17332 LPSA16   18       AGAL     C2       CC3161   0.900000E-01   12.0110           0
     17333 LPSA16   18       AGAL     H2       HCA1     0.900000E-01   1.00800           0
     17334 LPSA16   18       AGAL     O2       OC301   -0.360000       15.9994           0
     17335 LPSA16   18       AGAL     C3       CC3161   0.140000       12.0110           0
     17336 LPSA16   18       AGAL     H3       HCA1     0.900000E-01   1.00800           0
     17337 LPSA16   18       AGAL     O3       OC311   -0.650000       15.9994           0
     17338 LPSA16   18       AGAL     HO3      HCP1     0.420000       1.00800           0
     17339 LPSA16   18       AGAL     C4       CC3161   0.140000       12.0110           0
     17340 LPSA16   18       AGAL     H4       HCA1     0.900000E-01   1.00800           0
     17341 LPSA16   18       AGAL     O4       OC311   -0.650000       15.9994           0
     17342 LPSA16   18       AGAL     HO4      HCP1     0.420000       1.00800           0
     17343 LPSA16   18       AGAL     C6       CC321    0.500000E-01   12.0110           0
     17344 LPSA16   18       AGAL     H61      HCA2     0.900000E-01   1.00800           0
     17345 LPSA16   18       AGAL     H62      HCA2     0.900000E-01   1.00800           0
     17346 LPSA16   18       AGAL     O6       OC311   -0.650000       15.9994           0
     17347 LPSA16   18       AGAL     HO6      HCP1     0.420000       1.00800           0
     17348 LPSA16   19       ARHM     C1       CC3162   0.290000       12.0110           0
     17349 LPSA16   19       ARHM     H1       HCA1     0.900000E-01   1.00800           0
     17350 LPSA16   19       ARHM     C5       CC3163   0.110000       12.0110           0
     17351 LPSA16   19       ARHM     H5       HCA1     0.900000E-01   1.00800           0
     17352 LPSA16   19       ARHM     O5       OC3C61  -0.400000       15.9994           0
     17353 LPSA16   19       ARHM     C2       CC3161   0.900000E-01   12.0110           0
     17354 LPSA16   19       ARHM     H2       HCA1     0.900000E-01   1.00800           0
     17355 LPSA16   19       ARHM     O2       OC301   -0.360000       15.9994           0
     17356 LPSA16   19       ARHM     C3       CC3161   0.140000       12.0110           0
     17357 LPSA16   19       ARHM     H3       HCA1     0.900000E-01   1.00800           0
     17358 LPSA16   19       ARHM     O3       OC311   -0.650000       15.9994           0
     17359 LPSA16   19       ARHM     HO3      HCP1     0.420000       1.00800           0
     17360 LPSA16   19       ARHM     C4       CC3161   0.140000       12.0110           0
     17361 LPSA16   19       ARHM     H4       HCA1     0.900000E-01   1.00800           0
     17362 LPSA16   19       ARHM     O4       OC311   -0.650000       15.9994           0
     17363 LPSA16   19       ARHM     HO4      HCP1     0.420000       1.00800           0
     17364 LPSA16   19       ARHM     C6       CC331   -0.270000       12.0110           0
     17365 LPSA16   19       ARHM     H61      HCA3     0.900000E-01   1.00800           0
     17366 LPSA16   19       ARHM     H62      HCA3     0.900000E-01   1.00800           0
     17367 LPSA16   19       ARHM     H63      HCA3     0.900000E-01   1.00800           0
     17368 LPSA16   20       ARHM     C1       CC3162   0.290000       12.0110           0
     17369 LPSA16   20       ARHM     H1       HCA1     0.900000E-01   1.00800           0
     17370 LPSA16   20       ARHM     C5       CC3163   0.110000       12.0110           0
     17371 LPSA16   20       ARHM     H5       HCA1     0.900000E-01   1.00800           0
     17372 LPSA16   20       ARHM     O5       OC3C61  -0.400000       15.9994           0
     17373 LPSA16   20       ARHM     C2       CC3161   0.900000E-01   12.0110           0
     17374 LPSA16   20       ARHM     H2       HCA1     0.900000E-01   1.00800           0
     17375 LPSA16   20       ARHM     O2       OC301   -0.360000       15.9994           0
     17376 LPSA16   20       ARHM     C3       CC3161   0.900000E-01   12.0110           0
     17377 LPSA16   20       ARHM     H3       HCA1     0.900000E-01   1.00800           0
     17378 LPSA16   20       ARHM     O3       OC301   -0.360000       15.9994           0
     17379 LPSA16   20       ARHM     C4       CC3161   0.140000       12.0110           0
     17380 LPSA16   20       ARHM     H4       HCA1     0.900000E-01   1.00800           0
     17381 LPSA16   20       ARHM     O4       OC311   -0.650000       15.9994           0
     17382 LPSA16   20       ARHM     HO4      HCP1     0.420000       1.00800           0
     17383 LPSA16   20       ARHM     C6       CC331   -0.270000       12.0110           0
     17384 LPSA16   20       ARHM     H61      HCA3     0.900000E-01   1.00800           0
     17385 LPSA16   20       ARHM     H62      HCA3     0.900000E-01   1.00800           0
     17386 LPSA16   20       ARHM     H63      HCA3     0.900000E-01   1.00800           0
     17387 LPSA16   21       BMANNA   C1       CC3162   0.290000       12.0110           0
     17388 LPSA16   21       BMANNA   H1       HCA1     0.900000E-01   1.00800           0
     17389 LPSA16   21       BMANNA   C5       CC3163   0.110000       12.0110           0
     17390 LPSA16   21       BMANNA   H5       HCA1     0.900000E-01   1.00800           0
     17391 LPSA16   21       BMANNA   O5       OC3C61  -0.400000       15.9994           0
     17392 LPSA16   21       BMANNA   C2       CC3161   0.700000E-01   12.0110           0
     17393 LPSA16   21       BMANNA   H2       HCA1     0.900000E-01   1.00800           0
     17394 LPSA16   21       BMANNA   N        NC2D1   -0.470000       14.0070           0
     17395 LPSA16   21       BMANNA   HN       HCP1     0.310000       1.00800           0
     17396 LPSA16   21       BMANNA   C        CC2O1    0.510000       12.0110           0
     17397 LPSA16   21       BMANNA   O        OC2D1   -0.510000       15.9994           0
     17398 LPSA16   21       BMANNA   CT       CC331   -0.270000       12.0110           0
     17399 LPSA16   21       BMANNA   HT1      HCA3     0.900000E-01   1.00800           0
     17400 LPSA16   21       BMANNA   HT2      HCA3     0.900000E-01   1.00800           0
     17401 LPSA16   21       BMANNA   HT3      HCA3     0.900000E-01   1.00800           0
     17402 LPSA16   21       BMANNA   C3       CC3161   0.140000       12.0110           0
     17403 LPSA16   21       BMANNA   H3       HCA1     0.900000E-01   1.00800           0
     17404 LPSA16   21       BMANNA   O3       OC311   -0.650000       15.9994           0
     17405 LPSA16   21       BMANNA   HO3      HCP1     0.420000       1.00800           0
     17406 LPSA16   21       BMANNA   C4       CC3161   0.140000       12.0110           0
     17407 LPSA16   21       BMANNA   H4       HCA1     0.900000E-01   1.00800           0
     17408 LPSA16   21       BMANNA   O4       OC311   -0.650000       15.9994           0
     17409 LPSA16   21       BMANNA   HO4      HCP1     0.420000       1.00800           0
     17410 LPSA16   21       BMANNA   C6       CC321    0.500000E-01   12.0110           0
     17411 LPSA16   21       BMANNA   H61      HCA2     0.900000E-01   1.00800           0
     17412 LPSA16   21       BMANNA   H62      HCA2     0.900000E-01   1.00800           0
     17413 LPSA16   21       BMANNA   O6       OC311   -0.650000       15.9994           0
     17414 LPSA16   21       BMANNA   HO6      HCP1     0.420000       1.00800           0
     17415 LPSA16   22       BGLCNA   C1       CC3162   0.290000       12.0110           0
     17416 LPSA16   22       BGLCNA   H1       HCA1     0.900000E-01   1.00800           0
     17417 LPSA16   22       BGLCNA   C5       CC3163   0.110000       12.0110           0
     17418 LPSA16   22       BGLCNA   H5       HCA1     0.900000E-01   1.00800           0
     17419 LPSA16   22       BGLCNA   O5       OC3C61  -0.400000       15.9994           0
     17420 LPSA16   22       BGLCNA   C2       CC3161   0.700000E-01   12.0110           0
     17421 LPSA16   22       BGLCNA   H2       HCA1     0.900000E-01   1.00800           0
     17422 LPSA16   22       BGLCNA   N        NC2D1   -0.470000       14.0070           0
     17423 LPSA16   22       BGLCNA   HN       HCP1     0.310000       1.00800           0
     17424 LPSA16   22       BGLCNA   C        CC2O1    0.510000       12.0110           0
     17425 LPSA16   22       BGLCNA   O        OC2D1   -0.510000       15.9994           0
     17426 LPSA16   22       BGLCNA   CT       CC331   -0.270000       12.0110           0
     17427 LPSA16   22       BGLCNA   HT1      HCA3     0.900000E-01   1.00800           0
     17428 LPSA16   22       BGLCNA   HT2      HCA3     0.900000E-01   1.00800           0
     17429 LPSA16   22       BGLCNA   HT3      HCA3     0.900000E-01   1.00800           0
     17430 LPSA16   22       BGLCNA   C3       CC3161   0.900000E-01   12.0110           0
     17431 LPSA16   22       BGLCNA   H3       HCA1     0.900000E-01   1.00800           0
     17432 LPSA16   22       BGLCNA   O3       OC301   -0.360000       15.9994           0
     17433 LPSA16   22       BGLCNA   C4       CC3161   0.140000       12.0110           0
     17434 LPSA16   22       BGLCNA   H4       HCA1     0.900000E-01   1.00800           0
     17435 LPSA16   22       BGLCNA   O4       OC311   -0.650000       15.9994           0
     17436 LPSA16   22       BGLCNA   HO4      HCP1     0.420000       1.00800           0
     17437 LPSA16   22       BGLCNA   C6       CC321    0.500000E-01   12.0110           0
     17438 LPSA16   22       BGLCNA   H61      HCA2     0.900000E-01   1.00800           0
     17439 LPSA16   22       BGLCNA   H62      HCA2     0.900000E-01   1.00800           0
     17440 LPSA16   22       BGLCNA   O6       OC311   -0.650000       15.9994           0
     17441 LPSA16   22       BGLCNA   HO6      HCP1     0.420000       1.00800           0
     17442 LPSA16   23       AGAL     C1       CC3162   0.290000       12.0110           0
     17443 LPSA16   23       AGAL     H1       HCA1     0.900000E-01   1.00800           0
     17444 LPSA16   23       AGAL     C5       CC3163   0.110000       12.0110           0
     17445 LPSA16   23       AGAL     H5       HCA1     0.900000E-01   1.00800           0
     17446 LPSA16   23       AGAL     O5       OC3C61  -0.400000       15.9994           0
     17447 LPSA16   23       AGAL     C2       CC3161   0.900000E-01   12.0110           0
     17448 LPSA16   23       AGAL     H2       HCA1     0.900000E-01   1.00800           0
     17449 LPSA16   23       AGAL     O2       OC301   -0.360000       15.9994           0
     17450 LPSA16   23       AGAL     C3       CC3161   0.140000       12.0110           0
     17451 LPSA16   23       AGAL     H3       HCA1     0.900000E-01   1.00800           0
     17452 LPSA16   23       AGAL     O3       OC311   -0.650000       15.9994           0
     17453 LPSA16   23       AGAL     HO3      HCP1     0.420000       1.00800           0
     17454 LPSA16   23       AGAL     C4       CC3161   0.140000       12.0110           0
     17455 LPSA16   23       AGAL     H4       HCA1     0.900000E-01   1.00800           0
     17456 LPSA16   23       AGAL     O4       OC311   -0.650000       15.9994           0
     17457 LPSA16   23       AGAL     HO4      HCP1     0.420000       1.00800           0
     17458 LPSA16   23       AGAL     C6       CC321    0.500000E-01   12.0110           0
     17459 LPSA16   23       AGAL     H61      HCA2     0.900000E-01   1.00800           0
     17460 LPSA16   23       AGAL     H62      HCA2     0.900000E-01   1.00800           0
     17461 LPSA16   23       AGAL     O6       OC311   -0.650000       15.9994           0
     17462 LPSA16   23       AGAL     HO6      HCP1     0.420000       1.00800           0
     17463 LPSA16   24       ARHM     C1       CC3162   0.290000       12.0110           0
     17464 LPSA16   24       ARHM     H1       HCA1     0.900000E-01   1.00800           0
     17465 LPSA16   24       ARHM     C5       CC3163   0.110000       12.0110           0
     17466 LPSA16   24       ARHM     H5       HCA1     0.900000E-01   1.00800           0
     17467 LPSA16   24       ARHM     O5       OC3C61  -0.400000       15.9994           0
     17468 LPSA16   24       ARHM     C2       CC3161   0.900000E-01   12.0110           0
     17469 LPSA16   24       ARHM     H2       HCA1     0.900000E-01   1.00800           0
     17470 LPSA16   24       ARHM     O2       OC301   -0.360000       15.9994           0
     17471 LPSA16   24       ARHM     C3       CC3161   0.140000       12.0110           0
     17472 LPSA16   24       ARHM     H3       HCA1     0.900000E-01   1.00800           0
     17473 LPSA16   24       ARHM     O3       OC311   -0.650000       15.9994           0
     17474 LPSA16   24       ARHM     HO3      HCP1     0.420000       1.00800           0
     17475 LPSA16   24       ARHM     C4       CC3161   0.140000       12.0110           0
     17476 LPSA16   24       ARHM     H4       HCA1     0.900000E-01   1.00800           0
     17477 LPSA16   24       ARHM     O4       OC311   -0.650000       15.9994           0
     17478 LPSA16   24       ARHM     HO4      HCP1     0.420000       1.00800           0
     17479 LPSA16   24       ARHM     C6       CC331   -0.270000       12.0110           0
     17480 LPSA16   24       ARHM     H61      HCA3     0.900000E-01   1.00800           0
     17481 LPSA16   24       ARHM     H62      HCA3     0.900000E-01   1.00800           0
     17482 LPSA16   24       ARHM     H63      HCA3     0.900000E-01   1.00800           0
     17483 LPSA16   25       ARHM     C1       CC3162   0.290000       12.0110           0
     17484 LPSA16   25       ARHM     H1       HCA1     0.900000E-01   1.00800           0
     17485 LPSA16   25       ARHM     C5       CC3163   0.110000       12.0110           0
     17486 LPSA16   25       ARHM     H5       HCA1     0.900000E-01   1.00800           0
     17487 LPSA16   25       ARHM     O5       OC3C61  -0.400000       15.9994           0
     17488 LPSA16   25       ARHM     C2       CC3161   0.900000E-01   12.0110           0
     17489 LPSA16   25       ARHM     H2       HCA1     0.900000E-01   1.00800           0
     17490 LPSA16   25       ARHM     O2       OC301   -0.360000       15.9994           0
     17491 LPSA16   25       ARHM     C3       CC3161   0.900000E-01   12.0110           0
     17492 LPSA16   25       ARHM     H3       HCA1     0.900000E-01   1.00800           0
     17493 LPSA16   25       ARHM     O3       OC301   -0.360000       15.9994           0
     17494 LPSA16   25       ARHM     C4       CC3161   0.140000       12.0110           0
     17495 LPSA16   25       ARHM     H4       HCA1     0.900000E-01   1.00800           0
     17496 LPSA16   25       ARHM     O4       OC311   -0.650000       15.9994           0
     17497 LPSA16   25       ARHM     HO4      HCP1     0.420000       1.00800           0
     17498 LPSA16   25       ARHM     C6       CC331   -0.270000       12.0110           0
     17499 LPSA16   25       ARHM     H61      HCA3     0.900000E-01   1.00800           0
     17500 LPSA16   25       ARHM     H62      HCA3     0.900000E-01   1.00800           0
     17501 LPSA16   25       ARHM     H63      HCA3     0.900000E-01   1.00800           0
     17502 LPSA16   26       BMANNA   C1       CC3162   0.290000       12.0110           0
     17503 LPSA16   26       BMANNA   H1       HCA1     0.900000E-01   1.00800           0
     17504 LPSA16   26       BMANNA   C5       CC3163   0.110000       12.0110           0
     17505 LPSA16   26       BMANNA   H5       HCA1     0.900000E-01   1.00800           0
     17506 LPSA16   26       BMANNA   O5       OC3C61  -0.400000       15.9994           0
     17507 LPSA16   26       BMANNA   C2       CC3161   0.700000E-01   12.0110           0
     17508 LPSA16   26       BMANNA   H2       HCA1     0.900000E-01   1.00800           0
     17509 LPSA16   26       BMANNA   N        NC2D1   -0.470000       14.0070           0
     17510 LPSA16   26       BMANNA   HN       HCP1     0.310000       1.00800           0
     17511 LPSA16   26       BMANNA   C        CC2O1    0.510000       12.0110           0
     17512 LPSA16   26       BMANNA   O        OC2D1   -0.510000       15.9994           0
     17513 LPSA16   26       BMANNA   CT       CC331   -0.270000       12.0110           0
     17514 LPSA16   26       BMANNA   HT1      HCA3     0.900000E-01   1.00800           0
     17515 LPSA16   26       BMANNA   HT2      HCA3     0.900000E-01   1.00800           0
     17516 LPSA16   26       BMANNA   HT3      HCA3     0.900000E-01   1.00800           0
     17517 LPSA16   26       BMANNA   C3       CC3161   0.140000       12.0110           0
     17518 LPSA16   26       BMANNA   H3       HCA1     0.900000E-01   1.00800           0
     17519 LPSA16   26       BMANNA   O3       OC311   -0.650000       15.9994           0
     17520 LPSA16   26       BMANNA   HO3      HCP1     0.420000       1.00800           0
     17521 LPSA16   26       BMANNA   C4       CC3161   0.140000       12.0110           0
     17522 LPSA16   26       BMANNA   H4       HCA1     0.900000E-01   1.00800           0
     17523 LPSA16   26       BMANNA   O4       OC311   -0.650000       15.9994           0
     17524 LPSA16   26       BMANNA   HO4      HCP1     0.420000       1.00800           0
     17525 LPSA16   26       BMANNA   C6       CC321    0.500000E-01   12.0110           0
     17526 LPSA16   26       BMANNA   H61      HCA2     0.900000E-01   1.00800           0
     17527 LPSA16   26       BMANNA   H62      HCA2     0.900000E-01   1.00800           0
     17528 LPSA16   26       BMANNA   O6       OC311   -0.650000       15.9994           0
     17529 LPSA16   26       BMANNA   HO6      HCP1     0.420000       1.00800           0
     17530 LPSA16   27       BGLCNA   C1       CC3162   0.290000       12.0110           0
     17531 LPSA16   27       BGLCNA   H1       HCA1     0.900000E-01   1.00800           0
     17532 LPSA16   27       BGLCNA   C5       CC3163   0.110000       12.0110           0
     17533 LPSA16   27       BGLCNA   H5       HCA1     0.900000E-01   1.00800           0
     17534 LPSA16   27       BGLCNA   O5       OC3C61  -0.400000       15.9994           0
     17535 LPSA16   27       BGLCNA   C2       CC3161   0.700000E-01   12.0110           0
     17536 LPSA16   27       BGLCNA   H2       HCA1     0.900000E-01   1.00800           0
     17537 LPSA16   27       BGLCNA   N        NC2D1   -0.470000       14.0070           0
     17538 LPSA16   27       BGLCNA   HN       HCP1     0.310000       1.00800           0
     17539 LPSA16   27       BGLCNA   C        CC2O1    0.510000       12.0110           0
     17540 LPSA16   27       BGLCNA   O        OC2D1   -0.510000       15.9994           0
     17541 LPSA16   27       BGLCNA   CT       CC331   -0.270000       12.0110           0
     17542 LPSA16   27       BGLCNA   HT1      HCA3     0.900000E-01   1.00800           0
     17543 LPSA16   27       BGLCNA   HT2      HCA3     0.900000E-01   1.00800           0
     17544 LPSA16   27       BGLCNA   HT3      HCA3     0.900000E-01   1.00800           0
     17545 LPSA16   27       BGLCNA   C3       CC3161   0.900000E-01   12.0110           0
     17546 LPSA16   27       BGLCNA   H3       HCA1     0.900000E-01   1.00800           0
     17547 LPSA16   27       BGLCNA   O3       OC301   -0.360000       15.9994           0
     17548 LPSA16   27       BGLCNA   C4       CC3161   0.140000       12.0110           0
     17549 LPSA16   27       BGLCNA   H4       HCA1     0.900000E-01   1.00800           0
     17550 LPSA16   27       BGLCNA   O4       OC311   -0.650000       15.9994           0
     17551 LPSA16   27       BGLCNA   HO4      HCP1     0.420000       1.00800           0
     17552 LPSA16   27       BGLCNA   C6       CC321    0.500000E-01   12.0110           0
     17553 LPSA16   27       BGLCNA   H61      HCA2     0.900000E-01   1.00800           0
     17554 LPSA16   27       BGLCNA   H62      HCA2     0.900000E-01   1.00800           0
     17555 LPSA16   27       BGLCNA   O6       OC311   -0.650000       15.9994           0
     17556 LPSA16   27       BGLCNA   HO6      HCP1     0.420000       1.00800           0
     17557 LPSA16   28       AGAL     C1       CC3162   0.290000       12.0110           0
     17558 LPSA16   28       AGAL     H1       HCA1     0.900000E-01   1.00800           0
     17559 LPSA16   28       AGAL     C5       CC3163   0.110000       12.0110           0
     17560 LPSA16   28       AGAL     H5       HCA1     0.900000E-01   1.00800           0
     17561 LPSA16   28       AGAL     O5       OC3C61  -0.400000       15.9994           0
     17562 LPSA16   28       AGAL     C2       CC3161   0.900000E-01   12.0110           0
     17563 LPSA16   28       AGAL     H2       HCA1     0.900000E-01   1.00800           0
     17564 LPSA16   28       AGAL     O2       OC301   -0.360000       15.9994           0
     17565 LPSA16   28       AGAL     C3       CC3161   0.140000       12.0110           0
     17566 LPSA16   28       AGAL     H3       HCA1     0.900000E-01   1.00800           0
     17567 LPSA16   28       AGAL     O3       OC311   -0.650000       15.9994           0
     17568 LPSA16   28       AGAL     HO3      HCP1     0.420000       1.00800           0
     17569 LPSA16   28       AGAL     C4       CC3161   0.140000       12.0110           0
     17570 LPSA16   28       AGAL     H4       HCA1     0.900000E-01   1.00800           0
     17571 LPSA16   28       AGAL     O4       OC311   -0.650000       15.9994           0
     17572 LPSA16   28       AGAL     HO4      HCP1     0.420000       1.00800           0
     17573 LPSA16   28       AGAL     C6       CC321    0.500000E-01   12.0110           0
     17574 LPSA16   28       AGAL     H61      HCA2     0.900000E-01   1.00800           0
     17575 LPSA16   28       AGAL     H62      HCA2     0.900000E-01   1.00800           0
     17576 LPSA16   28       AGAL     O6       OC311   -0.650000       15.9994           0
     17577 LPSA16   28       AGAL     HO6      HCP1     0.420000       1.00800           0
     17578 LPSA16   29       ARHM     C1       CC3162   0.290000       12.0110           0
     17579 LPSA16   29       ARHM     H1       HCA1     0.900000E-01   1.00800           0
     17580 LPSA16   29       ARHM     C5       CC3163   0.110000       12.0110           0
     17581 LPSA16   29       ARHM     H5       HCA1     0.900000E-01   1.00800           0
     17582 LPSA16   29       ARHM     O5       OC3C61  -0.400000       15.9994           0
     17583 LPSA16   29       ARHM     C2       CC3161   0.900000E-01   12.0110           0
     17584 LPSA16   29       ARHM     H2       HCA1     0.900000E-01   1.00800           0
     17585 LPSA16   29       ARHM     O2       OC301   -0.360000       15.9994           0
     17586 LPSA16   29       ARHM     C3       CC3161   0.140000       12.0110           0
     17587 LPSA16   29       ARHM     H3       HCA1     0.900000E-01   1.00800           0
     17588 LPSA16   29       ARHM     O3       OC311   -0.650000       15.9994           0
     17589 LPSA16   29       ARHM     HO3      HCP1     0.420000       1.00800           0
     17590 LPSA16   29       ARHM     C4       CC3161   0.140000       12.0110           0
     17591 LPSA16   29       ARHM     H4       HCA1     0.900000E-01   1.00800           0
     17592 LPSA16   29       ARHM     O4       OC311   -0.650000       15.9994           0
     17593 LPSA16   29       ARHM     HO4      HCP1     0.420000       1.00800           0
     17594 LPSA16   29       ARHM     C6       CC331   -0.270000       12.0110           0
     17595 LPSA16   29       ARHM     H61      HCA3     0.900000E-01   1.00800           0
     17596 LPSA16   29       ARHM     H62      HCA3     0.900000E-01   1.00800           0
     17597 LPSA16   29       ARHM     H63      HCA3     0.900000E-01   1.00800           0
     17598 LPSA16   30       ARHM     C1       CC3162   0.290000       12.0110           0
     17599 LPSA16   30       ARHM     H1       HCA1     0.900000E-01   1.00800           0
     17600 LPSA16   30       ARHM     C5       CC3163   0.110000       12.0110           0
     17601 LPSA16   30       ARHM     H5       HCA1     0.900000E-01   1.00800           0
     17602 LPSA16   30       ARHM     O5       OC3C61  -0.400000       15.9994           0
     17603 LPSA16   30       ARHM     C2       CC3161   0.900000E-01   12.0110           0
     17604 LPSA16   30       ARHM     H2       HCA1     0.900000E-01   1.00800           0
     17605 LPSA16   30       ARHM     O2       OC301   -0.360000       15.9994           0
     17606 LPSA16   30       ARHM     C3       CC3161   0.900000E-01   12.0110           0
     17607 LPSA16   30       ARHM     H3       HCA1     0.900000E-01   1.00800           0
     17608 LPSA16   30       ARHM     O3       OC301   -0.360000       15.9994           0
     17609 LPSA16   30       ARHM     C4       CC3161   0.140000       12.0110           0
     17610 LPSA16   30       ARHM     H4       HCA1     0.900000E-01   1.00800           0
     17611 LPSA16   30       ARHM     O4       OC311   -0.650000       15.9994           0
     17612 LPSA16   30       ARHM     HO4      HCP1     0.420000       1.00800           0
     17613 LPSA16   30       ARHM     C6       CC331   -0.270000       12.0110           0
     17614 LPSA16   30       ARHM     H61      HCA3     0.900000E-01   1.00800           0
     17615 LPSA16   30       ARHM     H62      HCA3     0.900000E-01   1.00800           0
     17616 LPSA16   30       ARHM     H63      HCA3     0.900000E-01   1.00800           0
     17617 LPSA16   31       BMANNA   C1       CC3162   0.290000       12.0110           0
     17618 LPSA16   31       BMANNA   H1       HCA1     0.900000E-01   1.00800           0
     17619 LPSA16   31       BMANNA   C5       CC3163   0.110000       12.0110           0
     17620 LPSA16   31       BMANNA   H5       HCA1     0.900000E-01   1.00800           0
     17621 LPSA16   31       BMANNA   O5       OC3C61  -0.400000       15.9994           0
     17622 LPSA16   31       BMANNA   C2       CC3161   0.700000E-01   12.0110           0
     17623 LPSA16   31       BMANNA   H2       HCA1     0.900000E-01   1.00800           0
     17624 LPSA16   31       BMANNA   N        NC2D1   -0.470000       14.0070           0
     17625 LPSA16   31       BMANNA   HN       HCP1     0.310000       1.00800           0
     17626 LPSA16   31       BMANNA   C        CC2O1    0.510000       12.0110           0
     17627 LPSA16   31       BMANNA   O        OC2D1   -0.510000       15.9994           0
     17628 LPSA16   31       BMANNA   CT       CC331   -0.270000       12.0110           0
     17629 LPSA16   31       BMANNA   HT1      HCA3     0.900000E-01   1.00800           0
     17630 LPSA16   31       BMANNA   HT2      HCA3     0.900000E-01   1.00800           0
     17631 LPSA16   31       BMANNA   HT3      HCA3     0.900000E-01   1.00800           0
     17632 LPSA16   31       BMANNA   C3       CC3161   0.140000       12.0110           0
     17633 LPSA16   31       BMANNA   H3       HCA1     0.900000E-01   1.00800           0
     17634 LPSA16   31       BMANNA   O3       OC311   -0.650000       15.9994           0
     17635 LPSA16   31       BMANNA   HO3      HCP1     0.420000       1.00800           0
     17636 LPSA16   31       BMANNA   C4       CC3161   0.140000       12.0110           0
     17637 LPSA16   31       BMANNA   H4       HCA1     0.900000E-01   1.00800           0
     17638 LPSA16   31       BMANNA   O4       OC311   -0.650000       15.9994           0
     17639 LPSA16   31       BMANNA   HO4      HCP1     0.420000       1.00800           0
     17640 LPSA16   31       BMANNA   C6       CC321    0.500000E-01   12.0110           0
     17641 LPSA16   31       BMANNA   H61      HCA2     0.900000E-01   1.00800           0
     17642 LPSA16   31       BMANNA   H62      HCA2     0.900000E-01   1.00800           0
     17643 LPSA16   31       BMANNA   O6       OC311   -0.650000       15.9994           0
     17644 LPSA16   31       BMANNA   HO6      HCP1     0.420000       1.00800           0
     17645 LPSA16   32       BGLCNA   C1       CC3162   0.290000       12.0110           0
     17646 LPSA16   32       BGLCNA   H1       HCA1     0.900000E-01   1.00800           0
     17647 LPSA16   32       BGLCNA   C5       CC3163   0.110000       12.0110           0
     17648 LPSA16   32       BGLCNA   H5       HCA1     0.900000E-01   1.00800           0
     17649 LPSA16   32       BGLCNA   O5       OC3C61  -0.400000       15.9994           0
     17650 LPSA16   32       BGLCNA   C2       CC3161   0.700000E-01   12.0110           0
     17651 LPSA16   32       BGLCNA   H2       HCA1     0.900000E-01   1.00800           0
     17652 LPSA16   32       BGLCNA   N        NC2D1   -0.470000       14.0070           0
     17653 LPSA16   32       BGLCNA   HN       HCP1     0.310000       1.00800           0
     17654 LPSA16   32       BGLCNA   C        CC2O1    0.510000       12.0110           0
     17655 LPSA16   32       BGLCNA   O        OC2D1   -0.510000       15.9994           0
     17656 LPSA16   32       BGLCNA   CT       CC331   -0.270000       12.0110           0
     17657 LPSA16   32       BGLCNA   HT1      HCA3     0.900000E-01   1.00800           0
     17658 LPSA16   32       BGLCNA   HT2      HCA3     0.900000E-01   1.00800           0
     17659 LPSA16   32       BGLCNA   HT3      HCA3     0.900000E-01   1.00800           0
     17660 LPSA16   32       BGLCNA   C3       CC3161   0.900000E-01   12.0110           0
     17661 LPSA16   32       BGLCNA   H3       HCA1     0.900000E-01   1.00800           0
     17662 LPSA16   32       BGLCNA   O3       OC301   -0.360000       15.9994           0
     17663 LPSA16   32       BGLCNA   C4       CC3161   0.140000       12.0110           0
     17664 LPSA16   32       BGLCNA   H4       HCA1     0.900000E-01   1.00800           0
     17665 LPSA16   32       BGLCNA   O4       OC311   -0.650000       15.9994           0
     17666 LPSA16   32       BGLCNA   HO4      HCP1     0.420000       1.00800           0
     17667 LPSA16   32       BGLCNA   C6       CC321    0.500000E-01   12.0110           0
     17668 LPSA16   32       BGLCNA   H61      HCA2     0.900000E-01   1.00800           0
     17669 LPSA16   32       BGLCNA   H62      HCA2     0.900000E-01   1.00800           0
     17670 LPSA16   32       BGLCNA   O6       OC311   -0.650000       15.9994           0
     17671 LPSA16   32       BGLCNA   HO6      HCP1     0.420000       1.00800           0
     17672 LPSA16   33       AGAL     C1       CC3162   0.290000       12.0110           0
     17673 LPSA16   33       AGAL     H1       HCA1     0.900000E-01   1.00800           0
     17674 LPSA16   33       AGAL     C5       CC3163   0.110000       12.0110           0
     17675 LPSA16   33       AGAL     H5       HCA1     0.900000E-01   1.00800           0
     17676 LPSA16   33       AGAL     O5       OC3C61  -0.400000       15.9994           0
     17677 LPSA16   33       AGAL     C2       CC3161   0.900000E-01   12.0110           0
     17678 LPSA16   33       AGAL     H2       HCA1     0.900000E-01   1.00800           0
     17679 LPSA16   33       AGAL     O2       OC301   -0.360000       15.9994           0
     17680 LPSA16   33       AGAL     C3       CC3161   0.140000       12.0110           0
     17681 LPSA16   33       AGAL     H3       HCA1     0.900000E-01   1.00800           0
     17682 LPSA16   33       AGAL     O3       OC311   -0.650000       15.9994           0
     17683 LPSA16   33       AGAL     HO3      HCP1     0.420000       1.00800           0
     17684 LPSA16   33       AGAL     C4       CC3161   0.140000       12.0110           0
     17685 LPSA16   33       AGAL     H4       HCA1     0.900000E-01   1.00800           0
     17686 LPSA16   33       AGAL     O4       OC311   -0.650000       15.9994           0
     17687 LPSA16   33       AGAL     HO4      HCP1     0.420000       1.00800           0
     17688 LPSA16   33       AGAL     C6       CC321    0.500000E-01   12.0110           0
     17689 LPSA16   33       AGAL     H61      HCA2     0.900000E-01   1.00800           0
     17690 LPSA16   33       AGAL     H62      HCA2     0.900000E-01   1.00800           0
     17691 LPSA16   33       AGAL     O6       OC311   -0.650000       15.9994           0
     17692 LPSA16   33       AGAL     HO6      HCP1     0.420000       1.00800           0
     17693 LPSA16   34       ARHM     C1       CC3162   0.290000       12.0110           0
     17694 LPSA16   34       ARHM     H1       HCA1     0.900000E-01   1.00800           0
     17695 LPSA16   34       ARHM     C5       CC3163   0.110000       12.0110           0
     17696 LPSA16   34       ARHM     H5       HCA1     0.900000E-01   1.00800           0
     17697 LPSA16   34       ARHM     O5       OC3C61  -0.400000       15.9994           0
     17698 LPSA16   34       ARHM     C2       CC3161   0.900000E-01   12.0110           0
     17699 LPSA16   34       ARHM     H2       HCA1     0.900000E-01   1.00800           0
     17700 LPSA16   34       ARHM     O2       OC301   -0.360000       15.9994           0
     17701 LPSA16   34       ARHM     C3       CC3161   0.140000       12.0110           0
     17702 LPSA16   34       ARHM     H3       HCA1     0.900000E-01   1.00800           0
     17703 LPSA16   34       ARHM     O3       OC311   -0.650000       15.9994           0
     17704 LPSA16   34       ARHM     HO3      HCP1     0.420000       1.00800           0
     17705 LPSA16   34       ARHM     C4       CC3161   0.140000       12.0110           0
     17706 LPSA16   34       ARHM     H4       HCA1     0.900000E-01   1.00800           0
     17707 LPSA16   34       ARHM     O4       OC311   -0.650000       15.9994           0
     17708 LPSA16   34       ARHM     HO4      HCP1     0.420000       1.00800           0
     17709 LPSA16   34       ARHM     C6       CC331   -0.270000       12.0110           0
     17710 LPSA16   34       ARHM     H61      HCA3     0.900000E-01   1.00800           0
     17711 LPSA16   34       ARHM     H62      HCA3     0.900000E-01   1.00800           0
     17712 LPSA16   34       ARHM     H63      HCA3     0.900000E-01   1.00800           0
     17713 LPSA16   35       ARHM     C1       CC3162   0.290000       12.0110           0
     17714 LPSA16   35       ARHM     H1       HCA1     0.900000E-01   1.00800           0
     17715 LPSA16   35       ARHM     C5       CC3163   0.110000       12.0110           0
     17716 LPSA16   35       ARHM     H5       HCA1     0.900000E-01   1.00800           0
     17717 LPSA16   35       ARHM     O5       OC3C61  -0.400000       15.9994           0
     17718 LPSA16   35       ARHM     C2       CC3161   0.900000E-01   12.0110           0
     17719 LPSA16   35       ARHM     H2       HCA1     0.900000E-01   1.00800           0
     17720 LPSA16   35       ARHM     O2       OC301   -0.360000       15.9994           0
     17721 LPSA16   35       ARHM     C3       CC3161   0.140000       12.0110           0
     17722 LPSA16   35       ARHM     H3       HCA1     0.900000E-01   1.00800           0
     17723 LPSA16   35       ARHM     O3       OC311   -0.650000       15.9994           0
     17724 LPSA16   35       ARHM     HO3      HCP1     0.420000       1.00800           0
     17725 LPSA16   35       ARHM     C4       CC3161   0.140000       12.0110           0
     17726 LPSA16   35       ARHM     H4       HCA1     0.900000E-01   1.00800           0
     17727 LPSA16   35       ARHM     O4       OC311   -0.650000       15.9994           0
     17728 LPSA16   35       ARHM     HO4      HCP1     0.420000       1.00800           0
     17729 LPSA16   35       ARHM     C6       CC331   -0.270000       12.0110           0
     17730 LPSA16   35       ARHM     H61      HCA3     0.900000E-01   1.00800           0
     17731 LPSA16   35       ARHM     H62      HCA3     0.900000E-01   1.00800           0
     17732 LPSA16   35       ARHM     H63      HCA3     0.900000E-01   1.00800           0
     17733 LPSA16   36       BMANNA   C1       CC3162   0.290000       12.0110           0
     17734 LPSA16   36       BMANNA   H1       HCA1     0.900000E-01   1.00800           0
     17735 LPSA16   36       BMANNA   C5       CC3163   0.110000       12.0110           0
     17736 LPSA16   36       BMANNA   H5       HCA1     0.900000E-01   1.00800           0
     17737 LPSA16   36       BMANNA   O5       OC3C61  -0.400000       15.9994           0
     17738 LPSA16   36       BMANNA   C2       CC3161   0.700000E-01   12.0110           0
     17739 LPSA16   36       BMANNA   H2       HCA1     0.900000E-01   1.00800           0
     17740 LPSA16   36       BMANNA   N        NC2D1   -0.470000       14.0070           0
     17741 LPSA16   36       BMANNA   HN       HCP1     0.310000       1.00800           0
     17742 LPSA16   36       BMANNA   C        CC2O1    0.510000       12.0110           0
     17743 LPSA16   36       BMANNA   O        OC2D1   -0.510000       15.9994           0
     17744 LPSA16   36       BMANNA   CT       CC331   -0.270000       12.0110           0
     17745 LPSA16   36       BMANNA   HT1      HCA3     0.900000E-01   1.00800           0
     17746 LPSA16   36       BMANNA   HT2      HCA3     0.900000E-01   1.00800           0
     17747 LPSA16   36       BMANNA   HT3      HCA3     0.900000E-01   1.00800           0
     17748 LPSA16   36       BMANNA   C3       CC3161   0.140000       12.0110           0
     17749 LPSA16   36       BMANNA   H3       HCA1     0.900000E-01   1.00800           0
     17750 LPSA16   36       BMANNA   O3       OC311   -0.650000       15.9994           0
     17751 LPSA16   36       BMANNA   HO3      HCP1     0.420000       1.00800           0
     17752 LPSA16   36       BMANNA   C4       CC3161   0.140000       12.0110           0
     17753 LPSA16   36       BMANNA   H4       HCA1     0.900000E-01   1.00800           0
     17754 LPSA16   36       BMANNA   O4       OC311   -0.650000       15.9994           0
     17755 LPSA16   36       BMANNA   HO4      HCP1     0.420000       1.00800           0
     17756 LPSA16   36       BMANNA   C6       CC321    0.500000E-01   12.0110           0
     17757 LPSA16   36       BMANNA   H61      HCA2     0.900000E-01   1.00800           0
     17758 LPSA16   36       BMANNA   H62      HCA2     0.900000E-01   1.00800           0
     17759 LPSA16   36       BMANNA   O6       OC311   -0.650000       15.9994           0
     17760 LPSA16   36       BMANNA   HO6      HCP1     0.420000       1.00800           0
     17761 LPSA17   1        ECLIPA   HB6S     HCA2     0.900000E-01   1.00800           0
     17762 LPSA17   1        ECLIPA   OB6      OC301   -0.360000       15.9994           0
     17763 LPSA17   1        ECLIPA   CB6      CC321     0.00000       12.0110           0
     17764 LPSA17   1        ECLIPA   HB6R     HCA2     0.900000E-01   1.00800           0
     17765 LPSA17   1        ECLIPA   CB5      CC3163   0.110000       12.0110           0
     17766 LPSA17   1        ECLIPA   OB5      OC3C61  -0.400000       15.9994           0
     17767 LPSA17   1        ECLIPA   HB5      HCA1     0.900000E-01   1.00800           0
     17768 LPSA17   1        ECLIPA   CB1      CC3162   0.290000       12.0110           0
     17769 LPSA17   1        ECLIPA   HB1      HCA1     0.900000E-01   1.00800           0
     17770 LPSA17   1        ECLIPA   OA6      OC301   -0.360000       15.9994           0
     17771 LPSA17   1        ECLIPA   CA6      CC321     0.00000       12.0110           0
     17772 LPSA17   1        ECLIPA   HA6R     HCA2     0.900000E-01   1.00800           0
     17773 LPSA17   1        ECLIPA   HA6S     HCA2     0.900000E-01   1.00800           0
     17774 LPSA17   1        ECLIPA   CB4      CC3161  -0.900000E-01   12.0110           0
     17775 LPSA17   1        ECLIPA   HB4      HCA1     0.900000E-01   1.00800           0
     17776 LPSA17   1        ECLIPA   OB4      OC30P   -0.400000       15.9994           0
     17777 LPSA17   1        ECLIPA   PB       PC        1.10000       30.9740           0
     17778 LPSA17   1        ECLIPA   OPB4     OC2DP   -0.900000       15.9994           0
     17779 LPSA17   1        ECLIPA   OPB3     OC2DP   -0.900000       15.9994           0
     17780 LPSA17   1        ECLIPA   OPB2     OC2DP   -0.900000       15.9994           0
     17781 LPSA17   1        ECLIPA   CB3      CC3161   0.170000       12.0110           0
     17782 LPSA17   1        ECLIPA   OB3      OC301   -0.490000       15.9994           0
     17783 LPSA17   1        ECLIPA   HB3      HCA1     0.900000E-01   1.00800           0
     17784 LPSA17   1        ECLIPA   C71      CL       0.900000       12.0110           0
     17785 LPSA17   1        ECLIPA   O71      OBL     -0.630000       15.9994           0
     17786 LPSA17   1        ECLIPA   C72      CTL2    -0.220000       12.0110           0
     17787 LPSA17   1        ECLIPA   H72R     HAL2     0.900000E-01   1.00800           0
     17788 LPSA17   1        ECLIPA   H72S     HAL2     0.900000E-01   1.00800           0
     17789 LPSA17   1        ECLIPA   CB2      CC3161   0.700000E-01   12.0110           0
     17790 LPSA17   1        ECLIPA   HB2      HCA1     0.900000E-01   1.00800           0
     17791 LPSA17   1        ECLIPA   NB2      NC2D1   -0.470000       14.0070           0
     17792 LPSA17   1        ECLIPA   HNB2     HCP1     0.310000       1.00800           0
     17793 LPSA17   1        ECLIPA   CA4      CC3161   0.140000       12.0110           0
     17794 LPSA17   1        ECLIPA   HA4      HCA1     0.900000E-01   1.00800           0
     17795 LPSA17   1        ECLIPA   OA4      OC311   -0.650000       15.9994           0
     17796 LPSA17   1        ECLIPA   HOA4     HCP1     0.420000       1.00800           0
     17797 LPSA17   1        ECLIPA   CA5      CC3163   0.110000       12.0110           0
     17798 LPSA17   1        ECLIPA   HA5      HCA1     0.900000E-01   1.00800           0
     17799 LPSA17   1        ECLIPA   OA5      OC3C61  -0.400000       15.9994           0
     17800 LPSA17   1        ECLIPA   CA1      CC3162   0.110000       12.0110           0
     17801 LPSA17   1        ECLIPA   HA1      HCA1     0.900000E-01   1.00800           0
     17802 LPSA17   1        ECLIPA   OA1      OC30P   -0.400000       15.9994           0
     17803 LPSA17   1        ECLIPA   OPA2     OC2DP   -0.900000       15.9994           0
     17804 LPSA17   1        ECLIPA   OPA3     OC2DP   -0.900000       15.9994           0
     17805 LPSA17   1        ECLIPA   OPA4     OC2DP   -0.900000       15.9994           0
     17806 LPSA17   1        ECLIPA   PA       PC        1.10000       30.9740           0
     17807 LPSA17   1        ECLIPA   CA3      CC3161   0.170000       12.0110           0
     17808 LPSA17   1        ECLIPA   HA3      HCA1     0.900000E-01   1.00800           0
     17809 LPSA17   1        ECLIPA   OA3      OC301   -0.490000       15.9994           0
     17810 LPSA17   1        ECLIPA   C31      CL       0.900000       12.0110           0
     17811 LPSA17   1        ECLIPA   O31      OBL     -0.630000       15.9994           0
     17812 LPSA17   1        ECLIPA   C32      CTL2    -0.220000       12.0110           0
     17813 LPSA17   1        ECLIPA   H32R     HAL2     0.900000E-01   1.00800           0
     17814 LPSA17   1        ECLIPA   H32S     HAL2     0.900000E-01   1.00800           0
     17815 LPSA17   1        ECLIPA   CA2      CC3161   0.700000E-01   12.0110           0
     17816 LPSA17   1        ECLIPA   HA2      HCA1     0.900000E-01   1.00800           0
     17817 LPSA17   1        ECLIPA   NA2      NC2D1   -0.470000       14.0070           0
     17818 LPSA17   1        ECLIPA   HNA2     HCP1     0.310000       1.00800           0
     17819 LPSA17   1        ECLIPA   C73      CTL1     0.170000       12.0110           0
     17820 LPSA17   1        ECLIPA   H73R     HAL1     0.900000E-01   1.00800           0
     17821 LPSA17   1        ECLIPA   O73      OSL     -0.490000       15.9994           0
     17822 LPSA17   1        ECLIPA   C81      CL       0.900000       12.0110           0
     17823 LPSA17   1        ECLIPA   O81      OBL     -0.630000       15.9994           0
     17824 LPSA17   1        ECLIPA   C82      CTL2    -0.220000       12.0110           0
     17825 LPSA17   1        ECLIPA   H82R     HAL2     0.900000E-01   1.00800           0
     17826 LPSA17   1        ECLIPA   H82S     HAL2     0.900000E-01   1.00800           0
     17827 LPSA17   1        ECLIPA   C83      CTL2    -0.180000       12.0110           0
     17828 LPSA17   1        ECLIPA   H83R     HAL2     0.900000E-01   1.00800           0
     17829 LPSA17   1        ECLIPA   H83S     HAL2     0.900000E-01   1.00800           0
     17830 LPSA17   1        ECLIPA   C84      CTL2    -0.180000       12.0110           0
     17831 LPSA17   1        ECLIPA   H84R     HAL2     0.900000E-01   1.00800           0
     17832 LPSA17   1        ECLIPA   H84S     HAL2     0.900000E-01   1.00800           0
     17833 LPSA17   1        ECLIPA   C85      CTL2    -0.180000       12.0110           0
     17834 LPSA17   1        ECLIPA   H85R     HAL2     0.900000E-01   1.00800           0
     17835 LPSA17   1        ECLIPA   H85S     HAL2     0.900000E-01   1.00800           0
     17836 LPSA17   1        ECLIPA   C86      CTL2    -0.180000       12.0110           0
     17837 LPSA17   1        ECLIPA   H86R     HAL2     0.900000E-01   1.00800           0
     17838 LPSA17   1        ECLIPA   H86S     HAL2     0.900000E-01   1.00800           0
     17839 LPSA17   1        ECLIPA   C87      CTL2    -0.180000       12.0110           0
     17840 LPSA17   1        ECLIPA   H87R     HAL2     0.900000E-01   1.00800           0
     17841 LPSA17   1        ECLIPA   H87S     HAL2     0.900000E-01   1.00800           0
     17842 LPSA17   1        ECLIPA   C88      CTL2    -0.180000       12.0110           0
     17843 LPSA17   1        ECLIPA   H88R     HAL2     0.900000E-01   1.00800           0
     17844 LPSA17   1        ECLIPA   H88S     HAL2     0.900000E-01   1.00800           0
     17845 LPSA17   1        ECLIPA   C89      CTL2    -0.180000       12.0110           0
     17846 LPSA17   1        ECLIPA   H89R     HAL2     0.900000E-01   1.00800           0
     17847 LPSA17   1        ECLIPA   H89S     HAL2     0.900000E-01   1.00800           0
     17848 LPSA17   1        ECLIPA   C810     CTL2    -0.180000       12.0110           0
     17849 LPSA17   1        ECLIPA   H810R    HAL2     0.900000E-01   1.00800           0
     17850 LPSA17   1        ECLIPA   H810S    HAL2     0.900000E-01   1.00800           0
     17851 LPSA17   1        ECLIPA   C811     CTL2    -0.180000       12.0110           0
     17852 LPSA17   1        ECLIPA   H811R    HAL2     0.900000E-01   1.00800           0
     17853 LPSA17   1        ECLIPA   H811S    HAL2     0.900000E-01   1.00800           0
     17854 LPSA17   1        ECLIPA   C812     CTL2    -0.180000       12.0110           0
     17855 LPSA17   1        ECLIPA   H812R    HAL2     0.900000E-01   1.00800           0
     17856 LPSA17   1        ECLIPA   H812S    HAL2     0.900000E-01   1.00800           0
     17857 LPSA17   1        ECLIPA   C813     CTL2    -0.180000       12.0110           0
     17858 LPSA17   1        ECLIPA   H813R    HAL2     0.900000E-01   1.00800           0
     17859 LPSA17   1        ECLIPA   H813S    HAL2     0.900000E-01   1.00800           0
     17860 LPSA17   1        ECLIPA   C814     CTL3    -0.270000       12.0110           0
     17861 LPSA17   1        ECLIPA   H814R    HAL3     0.900000E-01   1.00800           0
     17862 LPSA17   1        ECLIPA   H814S    HAL3     0.900000E-01   1.00800           0
     17863 LPSA17   1        ECLIPA   H814T    HAL3     0.900000E-01   1.00800           0
     17864 LPSA17   1        ECLIPA   C74      CTL2    -0.180000       12.0110           0
     17865 LPSA17   1        ECLIPA   H74R     HAL2     0.900000E-01   1.00800           0
     17866 LPSA17   1        ECLIPA   H74S     HAL2     0.900000E-01   1.00800           0
     17867 LPSA17   1        ECLIPA   C75      CTL2    -0.180000       12.0110           0
     17868 LPSA17   1        ECLIPA   H75R     HAL2     0.900000E-01   1.00800           0
     17869 LPSA17   1        ECLIPA   H75S     HAL2     0.900000E-01   1.00800           0
     17870 LPSA17   1        ECLIPA   C76      CTL2    -0.180000       12.0110           0
     17871 LPSA17   1        ECLIPA   H76R     HAL2     0.900000E-01   1.00800           0
     17872 LPSA17   1        ECLIPA   H76S     HAL2     0.900000E-01   1.00800           0
     17873 LPSA17   1        ECLIPA   C77      CTL2    -0.180000       12.0110           0
     17874 LPSA17   1        ECLIPA   H77R     HAL2     0.900000E-01   1.00800           0
     17875 LPSA17   1        ECLIPA   H77S     HAL2     0.900000E-01   1.00800           0
     17876 LPSA17   1        ECLIPA   C78      CTL2    -0.180000       12.0110           0
     17877 LPSA17   1        ECLIPA   H78R     HAL2     0.900000E-01   1.00800           0
     17878 LPSA17   1        ECLIPA   H78S     HAL2     0.900000E-01   1.00800           0
     17879 LPSA17   1        ECLIPA   C79      CTL2    -0.180000       12.0110           0
     17880 LPSA17   1        ECLIPA   H79R     HAL2     0.900000E-01   1.00800           0
     17881 LPSA17   1        ECLIPA   H79S     HAL2     0.900000E-01   1.00800           0
     17882 LPSA17   1        ECLIPA   C710     CTL2    -0.180000       12.0110           0
     17883 LPSA17   1        ECLIPA   H710R    HAL2     0.900000E-01   1.00800           0
     17884 LPSA17   1        ECLIPA   H710S    HAL2     0.900000E-01   1.00800           0
     17885 LPSA17   1        ECLIPA   C711     CTL2    -0.180000       12.0110           0
     17886 LPSA17   1        ECLIPA   H711R    HAL2     0.900000E-01   1.00800           0
     17887 LPSA17   1        ECLIPA   H711S    HAL2     0.900000E-01   1.00800           0
     17888 LPSA17   1        ECLIPA   C712     CTL2    -0.180000       12.0110           0
     17889 LPSA17   1        ECLIPA   H712R    HAL2     0.900000E-01   1.00800           0
     17890 LPSA17   1        ECLIPA   H712S    HAL2     0.900000E-01   1.00800           0
     17891 LPSA17   1        ECLIPA   C713     CTL2    -0.180000       12.0110           0
     17892 LPSA17   1        ECLIPA   H713R    HAL2     0.900000E-01   1.00800           0
     17893 LPSA17   1        ECLIPA   H713S    HAL2     0.900000E-01   1.00800           0
     17894 LPSA17   1        ECLIPA   C714     CTL3    -0.270000       12.0110           0
     17895 LPSA17   1        ECLIPA   H714R    HAL3     0.900000E-01   1.00800           0
     17896 LPSA17   1        ECLIPA   H714S    HAL3     0.900000E-01   1.00800           0
     17897 LPSA17   1        ECLIPA   H714T    HAL3     0.900000E-01   1.00800           0
     17898 LPSA17   1        ECLIPA   C51      CC2O1    0.550000       12.0110           0
     17899 LPSA17   1        ECLIPA   O51      OC2D1   -0.550000       15.9994           0
     17900 LPSA17   1        ECLIPA   C52      CTL2    -0.180000       12.0110           0
     17901 LPSA17   1        ECLIPA   H52R     HAL2     0.900000E-01   1.00800           0
     17902 LPSA17   1        ECLIPA   H52S     HAL2     0.900000E-01   1.00800           0
     17903 LPSA17   1        ECLIPA   C53      CTL1     0.170000       12.0110           0
     17904 LPSA17   1        ECLIPA   H53R     HAL1     0.900000E-01   1.00800           0
     17905 LPSA17   1        ECLIPA   O53      OSL     -0.490000       15.9994           0
     17906 LPSA17   1        ECLIPA   C61      CL       0.900000       12.0110           0
     17907 LPSA17   1        ECLIPA   O61      OBL     -0.630000       15.9994           0
     17908 LPSA17   1        ECLIPA   C62      CTL2    -0.220000       12.0110           0
     17909 LPSA17   1        ECLIPA   H62R     HAL2     0.900000E-01   1.00800           0
     17910 LPSA17   1        ECLIPA   H62S     HAL2     0.900000E-01   1.00800           0
     17911 LPSA17   1        ECLIPA   C63      CTL2    -0.180000       12.0110           0
     17912 LPSA17   1        ECLIPA   H63R     HAL2     0.900000E-01   1.00800           0
     17913 LPSA17   1        ECLIPA   H63S     HAL2     0.900000E-01   1.00800           0
     17914 LPSA17   1        ECLIPA   C64      CTL2    -0.180000       12.0110           0
     17915 LPSA17   1        ECLIPA   H64R     HAL2     0.900000E-01   1.00800           0
     17916 LPSA17   1        ECLIPA   H64S     HAL2     0.900000E-01   1.00800           0
     17917 LPSA17   1        ECLIPA   C65      CTL2    -0.180000       12.0110           0
     17918 LPSA17   1        ECLIPA   H65R     HAL2     0.900000E-01   1.00800           0
     17919 LPSA17   1        ECLIPA   H65S     HAL2     0.900000E-01   1.00800           0
     17920 LPSA17   1        ECLIPA   C66      CTL2    -0.180000       12.0110           0
     17921 LPSA17   1        ECLIPA   H66R     HAL2     0.900000E-01   1.00800           0
     17922 LPSA17   1        ECLIPA   H66S     HAL2     0.900000E-01   1.00800           0
     17923 LPSA17   1        ECLIPA   C67      CTL2    -0.180000       12.0110           0
     17924 LPSA17   1        ECLIPA   H67R     HAL2     0.900000E-01   1.00800           0
     17925 LPSA17   1        ECLIPA   H67S     HAL2     0.900000E-01   1.00800           0
     17926 LPSA17   1        ECLIPA   C68      CTL2    -0.180000       12.0110           0
     17927 LPSA17   1        ECLIPA   H68R     HAL2     0.900000E-01   1.00800           0
     17928 LPSA17   1        ECLIPA   H68S     HAL2     0.900000E-01   1.00800           0
     17929 LPSA17   1        ECLIPA   C69      CTL2    -0.180000       12.0110           0
     17930 LPSA17   1        ECLIPA   H69R     HAL2     0.900000E-01   1.00800           0
     17931 LPSA17   1        ECLIPA   H69S     HAL2     0.900000E-01   1.00800           0
     17932 LPSA17   1        ECLIPA   C610     CTL2    -0.180000       12.0110           0
     17933 LPSA17   1        ECLIPA   H610R    HAL2     0.900000E-01   1.00800           0
     17934 LPSA17   1        ECLIPA   H610S    HAL2     0.900000E-01   1.00800           0
     17935 LPSA17   1        ECLIPA   C611     CTL2    -0.180000       12.0110           0
     17936 LPSA17   1        ECLIPA   H611R    HAL2     0.900000E-01   1.00800           0
     17937 LPSA17   1        ECLIPA   H611S    HAL2     0.900000E-01   1.00800           0
     17938 LPSA17   1        ECLIPA   C612     CTL3    -0.270000       12.0110           0
     17939 LPSA17   1        ECLIPA   H612R    HAL3     0.900000E-01   1.00800           0
     17940 LPSA17   1        ECLIPA   H612S    HAL3     0.900000E-01   1.00800           0
     17941 LPSA17   1        ECLIPA   H612T    HAL3     0.900000E-01   1.00800           0
     17942 LPSA17   1        ECLIPA   C54      CTL2    -0.180000       12.0110           0
     17943 LPSA17   1        ECLIPA   H54R     HAL2     0.900000E-01   1.00800           0
     17944 LPSA17   1        ECLIPA   H54S     HAL2     0.900000E-01   1.00800           0
     17945 LPSA17   1        ECLIPA   C55      CTL2    -0.180000       12.0110           0
     17946 LPSA17   1        ECLIPA   H55R     HAL2     0.900000E-01   1.00800           0
     17947 LPSA17   1        ECLIPA   H55S     HAL2     0.900000E-01   1.00800           0
     17948 LPSA17   1        ECLIPA   C56      CTL2    -0.180000       12.0110           0
     17949 LPSA17   1        ECLIPA   H56R     HAL2     0.900000E-01   1.00800           0
     17950 LPSA17   1        ECLIPA   H56S     HAL2     0.900000E-01   1.00800           0
     17951 LPSA17   1        ECLIPA   C57      CTL2    -0.180000       12.0110           0
     17952 LPSA17   1        ECLIPA   H57R     HAL2     0.900000E-01   1.00800           0
     17953 LPSA17   1        ECLIPA   H57S     HAL2     0.900000E-01   1.00800           0
     17954 LPSA17   1        ECLIPA   C58      CTL2    -0.180000       12.0110           0
     17955 LPSA17   1        ECLIPA   H58R     HAL2     0.900000E-01   1.00800           0
     17956 LPSA17   1        ECLIPA   H58S     HAL2     0.900000E-01   1.00800           0
     17957 LPSA17   1        ECLIPA   C59      CTL2    -0.180000       12.0110           0
     17958 LPSA17   1        ECLIPA   H59R     HAL2     0.900000E-01   1.00800           0
     17959 LPSA17   1        ECLIPA   H59S     HAL2     0.900000E-01   1.00800           0
     17960 LPSA17   1        ECLIPA   C510     CTL2    -0.180000       12.0110           0
     17961 LPSA17   1        ECLIPA   H510R    HAL2     0.900000E-01   1.00800           0
     17962 LPSA17   1        ECLIPA   H510S    HAL2     0.900000E-01   1.00800           0
     17963 LPSA17   1        ECLIPA   C511     CTL2    -0.180000       12.0110           0
     17964 LPSA17   1        ECLIPA   H511R    HAL2     0.900000E-01   1.00800           0
     17965 LPSA17   1        ECLIPA   H511S    HAL2     0.900000E-01   1.00800           0
     17966 LPSA17   1        ECLIPA   C512     CTL2    -0.180000       12.0110           0
     17967 LPSA17   1        ECLIPA   H512R    HAL2     0.900000E-01   1.00800           0
     17968 LPSA17   1        ECLIPA   H512S    HAL2     0.900000E-01   1.00800           0
     17969 LPSA17   1        ECLIPA   C513     CTL2    -0.180000       12.0110           0
     17970 LPSA17   1        ECLIPA   H513R    HAL2     0.900000E-01   1.00800           0
     17971 LPSA17   1        ECLIPA   H513S    HAL2     0.900000E-01   1.00800           0
     17972 LPSA17   1        ECLIPA   C514     CTL3    -0.270000       12.0110           0
     17973 LPSA17   1        ECLIPA   H514R    HAL3     0.900000E-01   1.00800           0
     17974 LPSA17   1        ECLIPA   H514S    HAL3     0.900000E-01   1.00800           0
     17975 LPSA17   1        ECLIPA   H514T    HAL3     0.900000E-01   1.00800           0
     17976 LPSA17   1        ECLIPA   C33      CTL1     0.140000       12.0110           0
     17977 LPSA17   1        ECLIPA   H33R     HAL1     0.900000E-01   1.00800           0
     17978 LPSA17   1        ECLIPA   O33      OH1     -0.660000       15.9994           0
     17979 LPSA17   1        ECLIPA   HO33     H        0.430000       1.00800           0
     17980 LPSA17   1        ECLIPA   C34      CTL2    -0.180000       12.0110           0
     17981 LPSA17   1        ECLIPA   H34R     HAL2     0.900000E-01   1.00800           0
     17982 LPSA17   1        ECLIPA   H34S     HAL2     0.900000E-01   1.00800           0
     17983 LPSA17   1        ECLIPA   C35      CTL2    -0.180000       12.0110           0
     17984 LPSA17   1        ECLIPA   H35R     HAL2     0.900000E-01   1.00800           0
     17985 LPSA17   1        ECLIPA   H35S     HAL2     0.900000E-01   1.00800           0
     17986 LPSA17   1        ECLIPA   C36      CTL2    -0.180000       12.0110           0
     17987 LPSA17   1        ECLIPA   H36R     HAL2     0.900000E-01   1.00800           0
     17988 LPSA17   1        ECLIPA   H36S     HAL2     0.900000E-01   1.00800           0
     17989 LPSA17   1        ECLIPA   C37      CTL2    -0.180000       12.0110           0
     17990 LPSA17   1        ECLIPA   H37R     HAL2     0.900000E-01   1.00800           0
     17991 LPSA17   1        ECLIPA   H37S     HAL2     0.900000E-01   1.00800           0
     17992 LPSA17   1        ECLIPA   C38      CTL2    -0.180000       12.0110           0
     17993 LPSA17   1        ECLIPA   H38R     HAL2     0.900000E-01   1.00800           0
     17994 LPSA17   1        ECLIPA   H38S     HAL2     0.900000E-01   1.00800           0
     17995 LPSA17   1        ECLIPA   C39      CTL2    -0.180000       12.0110           0
     17996 LPSA17   1        ECLIPA   H39R     HAL2     0.900000E-01   1.00800           0
     17997 LPSA17   1        ECLIPA   H39S     HAL2     0.900000E-01   1.00800           0
     17998 LPSA17   1        ECLIPA   C310     CTL2    -0.180000       12.0110           0
     17999 LPSA17   1        ECLIPA   H310R    HAL2     0.900000E-01   1.00800           0
     18000 LPSA17   1        ECLIPA   H310S    HAL2     0.900000E-01   1.00800           0
     18001 LPSA17   1        ECLIPA   C311     CTL2    -0.180000       12.0110           0
     18002 LPSA17   1        ECLIPA   H311R    HAL2     0.900000E-01   1.00800           0
     18003 LPSA17   1        ECLIPA   H311S    HAL2     0.900000E-01   1.00800           0
     18004 LPSA17   1        ECLIPA   C312     CTL2    -0.180000       12.0110           0
     18005 LPSA17   1        ECLIPA   H312R    HAL2     0.900000E-01   1.00800           0
     18006 LPSA17   1        ECLIPA   H312S    HAL2     0.900000E-01   1.00800           0
     18007 LPSA17   1        ECLIPA   C313     CTL2    -0.180000       12.0110           0
     18008 LPSA17   1        ECLIPA   H313R    HAL2     0.900000E-01   1.00800           0
     18009 LPSA17   1        ECLIPA   H313S    HAL2     0.900000E-01   1.00800           0
     18010 LPSA17   1        ECLIPA   C314     CTL3    -0.270000       12.0110           0
     18011 LPSA17   1        ECLIPA   H314R    HAL3     0.900000E-01   1.00800           0
     18012 LPSA17   1        ECLIPA   H314S    HAL3     0.900000E-01   1.00800           0
     18013 LPSA17   1        ECLIPA   H314T    HAL3     0.900000E-01   1.00800           0
     18014 LPSA17   1        ECLIPA   C11      CC2O1    0.550000       12.0110           0
     18015 LPSA17   1        ECLIPA   O11      OC2D1   -0.550000       15.9994           0
     18016 LPSA17   1        ECLIPA   C12      CTL2    -0.180000       12.0110           0
     18017 LPSA17   1        ECLIPA   H12R     HAL2     0.900000E-01   1.00800           0
     18018 LPSA17   1        ECLIPA   H12S     HAL2     0.900000E-01   1.00800           0
     18019 LPSA17   1        ECLIPA   C13      CTL1     0.140000       12.0110           0
     18020 LPSA17   1        ECLIPA   H13R     HAL1     0.900000E-01   1.00800           0
     18021 LPSA17   1        ECLIPA   O13      OH1     -0.660000       15.9994           0
     18022 LPSA17   1        ECLIPA   HO13     H        0.430000       1.00800           0
     18023 LPSA17   1        ECLIPA   C14      CTL2    -0.180000       12.0110           0
     18024 LPSA17   1        ECLIPA   H14R     HAL2     0.900000E-01   1.00800           0
     18025 LPSA17   1        ECLIPA   H14S     HAL2     0.900000E-01   1.00800           0
     18026 LPSA17   1        ECLIPA   C15      CTL2    -0.180000       12.0110           0
     18027 LPSA17   1        ECLIPA   H15R     HAL2     0.900000E-01   1.00800           0
     18028 LPSA17   1        ECLIPA   H15S     HAL2     0.900000E-01   1.00800           0
     18029 LPSA17   1        ECLIPA   C16      CTL2    -0.180000       12.0110           0
     18030 LPSA17   1        ECLIPA   H16R     HAL2     0.900000E-01   1.00800           0
     18031 LPSA17   1        ECLIPA   H16S     HAL2     0.900000E-01   1.00800           0
     18032 LPSA17   1        ECLIPA   C17      CTL2    -0.180000       12.0110           0
     18033 LPSA17   1        ECLIPA   H17R     HAL2     0.900000E-01   1.00800           0
     18034 LPSA17   1        ECLIPA   H17S     HAL2     0.900000E-01   1.00800           0
     18035 LPSA17   1        ECLIPA   C18      CTL2    -0.180000       12.0110           0
     18036 LPSA17   1        ECLIPA   H18R     HAL2     0.900000E-01   1.00800           0
     18037 LPSA17   1        ECLIPA   H18S     HAL2     0.900000E-01   1.00800           0
     18038 LPSA17   1        ECLIPA   C19      CTL2    -0.180000       12.0110           0
     18039 LPSA17   1        ECLIPA   H19R     HAL2     0.900000E-01   1.00800           0
     18040 LPSA17   1        ECLIPA   H19S     HAL2     0.900000E-01   1.00800           0
     18041 LPSA17   1        ECLIPA   C110     CTL2    -0.180000       12.0110           0
     18042 LPSA17   1        ECLIPA   H110R    HAL2     0.900000E-01   1.00800           0
     18043 LPSA17   1        ECLIPA   H110S    HAL2     0.900000E-01   1.00800           0
     18044 LPSA17   1        ECLIPA   C111     CTL2    -0.180000       12.0110           0
     18045 LPSA17   1        ECLIPA   H111R    HAL2     0.900000E-01   1.00800           0
     18046 LPSA17   1        ECLIPA   H111S    HAL2     0.900000E-01   1.00800           0
     18047 LPSA17   1        ECLIPA   C112     CTL2    -0.180000       12.0110           0
     18048 LPSA17   1        ECLIPA   H112R    HAL2     0.900000E-01   1.00800           0
     18049 LPSA17   1        ECLIPA   H112S    HAL2     0.900000E-01   1.00800           0
     18050 LPSA17   1        ECLIPA   C113     CTL2    -0.180000       12.0110           0
     18051 LPSA17   1        ECLIPA   H113R    HAL2     0.900000E-01   1.00800           0
     18052 LPSA17   1        ECLIPA   H113S    HAL2     0.900000E-01   1.00800           0
     18053 LPSA17   1        ECLIPA   C114     CTL3    -0.270000       12.0110           0
     18054 LPSA17   1        ECLIPA   H114R    HAL3     0.900000E-01   1.00800           0
     18055 LPSA17   1        ECLIPA   H114S    HAL3     0.900000E-01   1.00800           0
     18056 LPSA17   1        ECLIPA   H114T    HAL3     0.900000E-01   1.00800           0
     18057 LPSA17   2        AKDO     C1       CC2O2    0.300000       12.0110           0
     18058 LPSA17   2        AKDO     O11      OC2D2   -0.600000       15.9994           0
     18059 LPSA17   2        AKDO     O12      OC2D2   -0.600000       15.9994           0
     18060 LPSA17   2        AKDO     C2       CC3062   0.280000       12.0110           0
     18061 LPSA17   2        AKDO     C6       CC3163   0.110000       12.0110           0
     18062 LPSA17   2        AKDO     H6       HCA1     0.900000E-01   1.00800           0
     18063 LPSA17   2        AKDO     O6       OC3C61  -0.400000       15.9994           0
     18064 LPSA17   2        AKDO     C3       CC3261  -0.180000       12.0110           0
     18065 LPSA17   2        AKDO     H31      HCA2     0.900000E-01   1.00800           0
     18066 LPSA17   2        AKDO     H32      HCA2     0.900000E-01   1.00800           0
     18067 LPSA17   2        AKDO     C4       CC3161   0.900000E-01   12.0110           0
     18068 LPSA17   2        AKDO     H4       HCA1     0.900000E-01   1.00800           0
     18069 LPSA17   2        AKDO     O4       OC301   -0.360000       15.9994           0
     18070 LPSA17   2        AKDO     C5       CC3161   0.900000E-01   12.0110           0
     18071 LPSA17   2        AKDO     H5       HCA1     0.900000E-01   1.00800           0
     18072 LPSA17   2        AKDO     O5       OC301   -0.360000       15.9994           0
     18073 LPSA17   2        AKDO     C7       CC312    0.140000       12.0110           0
     18074 LPSA17   2        AKDO     H7       HCA1     0.900000E-01   1.00800           0
     18075 LPSA17   2        AKDO     O7       OC311   -0.650000       15.9994           0
     18076 LPSA17   2        AKDO     HO7      HCP1     0.420000       1.00800           0
     18077 LPSA17   2        AKDO     C8       CC322    0.500000E-01   12.0110           0
     18078 LPSA17   2        AKDO     H81      HCA2     0.900000E-01   1.00800           0
     18079 LPSA17   2        AKDO     H82      HCA2     0.900000E-01   1.00800           0
     18080 LPSA17   2        AKDO     O8       OC311   -0.650000       15.9994           0
     18081 LPSA17   2        AKDO     HO8      HCP1     0.420000       1.00800           0
     18082 LPSA17   3        AKDO     C1       CC2O2    0.300000       12.0110           0
     18083 LPSA17   3        AKDO     O11      OC2D2   -0.600000       15.9994           0
     18084 LPSA17   3        AKDO     O12      OC2D2   -0.600000       15.9994           0
     18085 LPSA17   3        AKDO     C2       CC3062   0.280000       12.0110           0
     18086 LPSA17   3        AKDO     C6       CC3163   0.110000       12.0110           0
     18087 LPSA17   3        AKDO     H6       HCA1     0.900000E-01   1.00800           0
     18088 LPSA17   3        AKDO     O6       OC3C61  -0.400000       15.9994           0
     18089 LPSA17   3        AKDO     C3       CC3261  -0.180000       12.0110           0
     18090 LPSA17   3        AKDO     H31      HCA2     0.900000E-01   1.00800           0
     18091 LPSA17   3        AKDO     H32      HCA2     0.900000E-01   1.00800           0
     18092 LPSA17   3        AKDO     C4       CC3161   0.140000       12.0110           0
     18093 LPSA17   3        AKDO     H4       HCA1     0.900000E-01   1.00800           0
     18094 LPSA17   3        AKDO     O4       OC311   -0.650000       15.9994           0
     18095 LPSA17   3        AKDO     HO4      HCP1     0.420000       1.00800           0
     18096 LPSA17   3        AKDO     C5       CC3161   0.140000       12.0110           0
     18097 LPSA17   3        AKDO     H5       HCA1     0.900000E-01   1.00800           0
     18098 LPSA17   3        AKDO     O5       OC311   -0.650000       15.9994           0
     18099 LPSA17   3        AKDO     HO5      HCP1     0.420000       1.00800           0
     18100 LPSA17   3        AKDO     C7       CC312    0.140000       12.0110           0
     18101 LPSA17   3        AKDO     H7       HCA1     0.900000E-01   1.00800           0
     18102 LPSA17   3        AKDO     O7       OC311   -0.650000       15.9994           0
     18103 LPSA17   3        AKDO     HO7      HCP1     0.420000       1.00800           0
     18104 LPSA17   3        AKDO     C8       CC322    0.500000E-01   12.0110           0
     18105 LPSA17   3        AKDO     H81      HCA2     0.900000E-01   1.00800           0
     18106 LPSA17   3        AKDO     H82      HCA2     0.900000E-01   1.00800           0
     18107 LPSA17   3        AKDO     O8       OC311   -0.650000       15.9994           0
     18108 LPSA17   3        AKDO     HO8      HCP1     0.420000       1.00800           0
     18109 LPSA17   4        AHEP     C1       CC3162   0.290000       12.0110           0
     18110 LPSA17   4        AHEP     H1       HCA1     0.900000E-01   1.00800           0
     18111 LPSA17   4        AHEP     C5       CC3163   0.110000       12.0110           0
     18112 LPSA17   4        AHEP     H5       HCA1     0.900000E-01   1.00800           0
     18113 LPSA17   4        AHEP     O5       OC3C61  -0.400000       15.9994           0
     18114 LPSA17   4        AHEP     C2       CC3161   0.140000       12.0110           0
     18115 LPSA17   4        AHEP     H2       HCA1     0.900000E-01   1.00800           0
     18116 LPSA17   4        AHEP     O2       OC311   -0.650000       15.9994           0
     18117 LPSA17   4        AHEP     HO2      HCP1     0.420000       1.00800           0
     18118 LPSA17   4        AHEP     C3       CC3161   0.900000E-01   12.0110           0
     18119 LPSA17   4        AHEP     H3       HCA1     0.900000E-01   1.00800           0
     18120 LPSA17   4        AHEP     O3       OC301   -0.360000       15.9994           0
     18121 LPSA17   4        AHEP     C4       CC3161  -0.900000E-01   12.0110           0
     18122 LPSA17   4        AHEP     H4       HCA1     0.900000E-01   1.00800           0
     18123 LPSA17   4        AHEP     O4       OC30P   -0.400000       15.9994           0
     18124 LPSA17   4        AHEP     P4       PC        1.10000       30.9740           0
     18125 LPSA17   4        AHEP     OP42     OC2DP   -0.900000       15.9994           0
     18126 LPSA17   4        AHEP     OP43     OC2DP   -0.900000       15.9994           0
     18127 LPSA17   4        AHEP     OP44     OC2DP   -0.900000       15.9994           0
     18128 LPSA17   4        AHEP     C6       CC312    0.140000       12.0110           0
     18129 LPSA17   4        AHEP     H6       HCA1     0.900000E-01   1.00800           0
     18130 LPSA17   4        AHEP     O6       OC311   -0.650000       15.9994           0
     18131 LPSA17   4        AHEP     HO6      HCP1     0.420000       1.00800           0
     18132 LPSA17   4        AHEP     C7       CC322    0.500000E-01   12.0110           0
     18133 LPSA17   4        AHEP     H71      HCA2     0.900000E-01   1.00800           0
     18134 LPSA17   4        AHEP     H72      HCA2     0.900000E-01   1.00800           0
     18135 LPSA17   4        AHEP     O7       OC311   -0.650000       15.9994           0
     18136 LPSA17   4        AHEP     HO7      HCP1     0.420000       1.00800           0
     18137 LPSA17   5        AHEP     C1       CC3162   0.290000       12.0110           0
     18138 LPSA17   5        AHEP     H1       HCA1     0.900000E-01   1.00800           0
     18139 LPSA17   5        AHEP     C5       CC3163   0.110000       12.0110           0
     18140 LPSA17   5        AHEP     H5       HCA1     0.900000E-01   1.00800           0
     18141 LPSA17   5        AHEP     O5       OC3C61  -0.400000       15.9994           0
     18142 LPSA17   5        AHEP     C2       CC3161   0.140000       12.0110           0
     18143 LPSA17   5        AHEP     H2       HCA1     0.900000E-01   1.00800           0
     18144 LPSA17   5        AHEP     O2       OC311   -0.650000       15.9994           0
     18145 LPSA17   5        AHEP     HO2      HCP1     0.420000       1.00800           0
     18146 LPSA17   5        AHEP     C3       CC3161   0.900000E-01   12.0110           0
     18147 LPSA17   5        AHEP     H3       HCA1     0.900000E-01   1.00800           0
     18148 LPSA17   5        AHEP     O3       OC301   -0.360000       15.9994           0
     18149 LPSA17   5        AHEP     C4       CC3161  -0.900000E-01   12.0110           0
     18150 LPSA17   5        AHEP     H4       HCA1     0.900000E-01   1.00800           0
     18151 LPSA17   5        AHEP     O4       OC30P   -0.400000       15.9994           0
     18152 LPSA17   5        AHEP     P4       PC        1.10000       30.9740           0
     18153 LPSA17   5        AHEP     OP42     OC2DP   -0.900000       15.9994           0
     18154 LPSA17   5        AHEP     OP43     OC2DP   -0.900000       15.9994           0
     18155 LPSA17   5        AHEP     OP44     OC2DP   -0.900000       15.9994           0
     18156 LPSA17   5        AHEP     C6       CC312    0.140000       12.0110           0
     18157 LPSA17   5        AHEP     H6       HCA1     0.900000E-01   1.00800           0
     18158 LPSA17   5        AHEP     O6       OC311   -0.650000       15.9994           0
     18159 LPSA17   5        AHEP     HO6      HCP1     0.420000       1.00800           0
     18160 LPSA17   5        AHEP     C7       CC322     0.00000       12.0110           0
     18161 LPSA17   5        AHEP     H71      HCA2     0.900000E-01   1.00800           0
     18162 LPSA17   5        AHEP     H72      HCA2     0.900000E-01   1.00800           0
     18163 LPSA17   5        AHEP     O7       OC301   -0.360000       15.9994           0
     18164 LPSA17   6        AHEP     C1       CC3162   0.290000       12.0110           0
     18165 LPSA17   6        AHEP     H1       HCA1     0.900000E-01   1.00800           0
     18166 LPSA17   6        AHEP     C5       CC3163   0.110000       12.0110           0
     18167 LPSA17   6        AHEP     H5       HCA1     0.900000E-01   1.00800           0
     18168 LPSA17   6        AHEP     O5       OC3C61  -0.400000       15.9994           0
     18169 LPSA17   6        AHEP     C2       CC3161   0.140000       12.0110           0
     18170 LPSA17   6        AHEP     H2       HCA1     0.900000E-01   1.00800           0
     18171 LPSA17   6        AHEP     O2       OC311   -0.650000       15.9994           0
     18172 LPSA17   6        AHEP     HO2      HCP1     0.420000       1.00800           0
     18173 LPSA17   6        AHEP     C3       CC3161   0.140000       12.0110           0
     18174 LPSA17   6        AHEP     H3       HCA1     0.900000E-01   1.00800           0
     18175 LPSA17   6        AHEP     O3       OC311   -0.650000       15.9994           0
     18176 LPSA17   6        AHEP     HO3      HCP1     0.420000       1.00800           0
     18177 LPSA17   6        AHEP     C4       CC3161   0.140000       12.0110           0
     18178 LPSA17   6        AHEP     H4       HCA1     0.900000E-01   1.00800           0
     18179 LPSA17   6        AHEP     O4       OC311   -0.650000       15.9994           0
     18180 LPSA17   6        AHEP     HO4      HCP1     0.420000       1.00800           0
     18181 LPSA17   6        AHEP     C6       CC312    0.140000       12.0110           0
     18182 LPSA17   6        AHEP     H6       HCA1     0.900000E-01   1.00800           0
     18183 LPSA17   6        AHEP     O6       OC311   -0.650000       15.9994           0
     18184 LPSA17   6        AHEP     HO6      HCP1     0.420000       1.00800           0
     18185 LPSA17   6        AHEP     C7       CC322    0.500000E-01   12.0110           0
     18186 LPSA17   6        AHEP     H71      HCA2     0.900000E-01   1.00800           0
     18187 LPSA17   6        AHEP     H72      HCA2     0.900000E-01   1.00800           0
     18188 LPSA17   6        AHEP     O7       OC311   -0.650000       15.9994           0
     18189 LPSA17   6        AHEP     HO7      HCP1     0.420000       1.00800           0
     18190 LPSA17   7        AGLC     C1       CC3162   0.290000       12.0110           0
     18191 LPSA17   7        AGLC     H1       HCA1     0.900000E-01   1.00800           0
     18192 LPSA17   7        AGLC     C5       CC3163   0.110000       12.0110           0
     18193 LPSA17   7        AGLC     H5       HCA1     0.900000E-01   1.00800           0
     18194 LPSA17   7        AGLC     O5       OC3C61  -0.400000       15.9994           0
     18195 LPSA17   7        AGLC     C2       CC3161   0.140000       12.0110           0
     18196 LPSA17   7        AGLC     H2       HCA1     0.900000E-01   1.00800           0
     18197 LPSA17   7        AGLC     O2       OC311   -0.650000       15.9994           0
     18198 LPSA17   7        AGLC     HO2      HCP1     0.420000       1.00800           0
     18199 LPSA17   7        AGLC     C3       CC3161   0.900000E-01   12.0110           0
     18200 LPSA17   7        AGLC     H3       HCA1     0.900000E-01   1.00800           0
     18201 LPSA17   7        AGLC     O3       OC301   -0.360000       15.9994           0
     18202 LPSA17   7        AGLC     C4       CC3161   0.140000       12.0110           0
     18203 LPSA17   7        AGLC     H4       HCA1     0.900000E-01   1.00800           0
     18204 LPSA17   7        AGLC     O4       OC311   -0.650000       15.9994           0
     18205 LPSA17   7        AGLC     HO4      HCP1     0.420000       1.00800           0
     18206 LPSA17   7        AGLC     C6       CC321    0.500000E-01   12.0110           0
     18207 LPSA17   7        AGLC     H61      HCA2     0.900000E-01   1.00800           0
     18208 LPSA17   7        AGLC     H62      HCA2     0.900000E-01   1.00800           0
     18209 LPSA17   7        AGLC     O6       OC311   -0.650000       15.9994           0
     18210 LPSA17   7        AGLC     HO6      HCP1     0.420000       1.00800           0
     18211 LPSA17   8        AGLC     C1       CC3162   0.290000       12.0110           0
     18212 LPSA17   8        AGLC     H1       HCA1     0.900000E-01   1.00800           0
     18213 LPSA17   8        AGLC     C5       CC3163   0.110000       12.0110           0
     18214 LPSA17   8        AGLC     H5       HCA1     0.900000E-01   1.00800           0
     18215 LPSA17   8        AGLC     O5       OC3C61  -0.400000       15.9994           0
     18216 LPSA17   8        AGLC     C2       CC3161   0.900000E-01   12.0110           0
     18217 LPSA17   8        AGLC     H2       HCA1     0.900000E-01   1.00800           0
     18218 LPSA17   8        AGLC     O2       OC301   -0.360000       15.9994           0
     18219 LPSA17   8        AGLC     C3       CC3161   0.900000E-01   12.0110           0
     18220 LPSA17   8        AGLC     H3       HCA1     0.900000E-01   1.00800           0
     18221 LPSA17   8        AGLC     O3       OC301   -0.360000       15.9994           0
     18222 LPSA17   8        AGLC     C4       CC3161   0.140000       12.0110           0
     18223 LPSA17   8        AGLC     H4       HCA1     0.900000E-01   1.00800           0
     18224 LPSA17   8        AGLC     O4       OC311   -0.650000       15.9994           0
     18225 LPSA17   8        AGLC     HO4      HCP1     0.420000       1.00800           0
     18226 LPSA17   8        AGLC     C6       CC321    0.500000E-01   12.0110           0
     18227 LPSA17   8        AGLC     H61      HCA2     0.900000E-01   1.00800           0
     18228 LPSA17   8        AGLC     H62      HCA2     0.900000E-01   1.00800           0
     18229 LPSA17   8        AGLC     O6       OC311   -0.650000       15.9994           0
     18230 LPSA17   8        AGLC     HO6      HCP1     0.420000       1.00800           0
     18231 LPSA17   9        AGAL     C1       CC3162   0.290000       12.0110           0
     18232 LPSA17   9        AGAL     H1       HCA1     0.900000E-01   1.00800           0
     18233 LPSA17   9        AGAL     C5       CC3163   0.110000       12.0110           0
     18234 LPSA17   9        AGAL     H5       HCA1     0.900000E-01   1.00800           0
     18235 LPSA17   9        AGAL     O5       OC3C61  -0.400000       15.9994           0
     18236 LPSA17   9        AGAL     C2       CC3161   0.900000E-01   12.0110           0
     18237 LPSA17   9        AGAL     H2       HCA1     0.900000E-01   1.00800           0
     18238 LPSA17   9        AGAL     O2       OC301   -0.360000       15.9994           0
     18239 LPSA17   9        AGAL     C3       CC3161   0.140000       12.0110           0
     18240 LPSA17   9        AGAL     H3       HCA1     0.900000E-01   1.00800           0
     18241 LPSA17   9        AGAL     O3       OC311   -0.650000       15.9994           0
     18242 LPSA17   9        AGAL     HO3      HCP1     0.420000       1.00800           0
     18243 LPSA17   9        AGAL     C4       CC3161   0.140000       12.0110           0
     18244 LPSA17   9        AGAL     H4       HCA1     0.900000E-01   1.00800           0
     18245 LPSA17   9        AGAL     O4       OC311   -0.650000       15.9994           0
     18246 LPSA17   9        AGAL     HO4      HCP1     0.420000       1.00800           0
     18247 LPSA17   9        AGAL     C6       CC321    0.500000E-01   12.0110           0
     18248 LPSA17   9        AGAL     H61      HCA2     0.900000E-01   1.00800           0
     18249 LPSA17   9        AGAL     H62      HCA2     0.900000E-01   1.00800           0
     18250 LPSA17   9        AGAL     O6       OC311   -0.650000       15.9994           0
     18251 LPSA17   9        AGAL     HO6      HCP1     0.420000       1.00800           0
     18252 LPSA17   10       AGAL     C1       CC3162   0.290000       12.0110           0
     18253 LPSA17   10       AGAL     H1       HCA1     0.900000E-01   1.00800           0
     18254 LPSA17   10       AGAL     C5       CC3163   0.110000       12.0110           0
     18255 LPSA17   10       AGAL     H5       HCA1     0.900000E-01   1.00800           0
     18256 LPSA17   10       AGAL     O5       OC3C61  -0.400000       15.9994           0
     18257 LPSA17   10       AGAL     C2       CC3161   0.140000       12.0110           0
     18258 LPSA17   10       AGAL     H2       HCA1     0.900000E-01   1.00800           0
     18259 LPSA17   10       AGAL     O2       OC311   -0.650000       15.9994           0
     18260 LPSA17   10       AGAL     HO2      HCP1     0.420000       1.00800           0
     18261 LPSA17   10       AGAL     C3       CC3161   0.140000       12.0110           0
     18262 LPSA17   10       AGAL     H3       HCA1     0.900000E-01   1.00800           0
     18263 LPSA17   10       AGAL     O3       OC311   -0.650000       15.9994           0
     18264 LPSA17   10       AGAL     HO3      HCP1     0.420000       1.00800           0
     18265 LPSA17   10       AGAL     C4       CC3161   0.140000       12.0110           0
     18266 LPSA17   10       AGAL     H4       HCA1     0.900000E-01   1.00800           0
     18267 LPSA17   10       AGAL     O4       OC311   -0.650000       15.9994           0
     18268 LPSA17   10       AGAL     HO4      HCP1     0.420000       1.00800           0
     18269 LPSA17   10       AGAL     C6       CC321    0.500000E-01   12.0110           0
     18270 LPSA17   10       AGAL     H61      HCA2     0.900000E-01   1.00800           0
     18271 LPSA17   10       AGAL     H62      HCA2     0.900000E-01   1.00800           0
     18272 LPSA17   10       AGAL     O6       OC311   -0.650000       15.9994           0
     18273 LPSA17   10       AGAL     HO6      HCP1     0.420000       1.00800           0
     18274 LPSA17   11       BGLC     C1       CC3162   0.290000       12.0110           0
     18275 LPSA17   11       BGLC     H1       HCA1     0.900000E-01   1.00800           0
     18276 LPSA17   11       BGLC     C5       CC3163   0.110000       12.0110           0
     18277 LPSA17   11       BGLC     H5       HCA1     0.900000E-01   1.00800           0
     18278 LPSA17   11       BGLC     O5       OC3C61  -0.400000       15.9994           0
     18279 LPSA17   11       BGLC     C2       CC3161   0.140000       12.0110           0
     18280 LPSA17   11       BGLC     H2       HCA1     0.900000E-01   1.00800           0
     18281 LPSA17   11       BGLC     O2       OC311   -0.650000       15.9994           0
     18282 LPSA17   11       BGLC     HO2      HCP1     0.420000       1.00800           0
     18283 LPSA17   11       BGLC     C3       CC3161   0.900000E-01   12.0110           0
     18284 LPSA17   11       BGLC     H3       HCA1     0.900000E-01   1.00800           0
     18285 LPSA17   11       BGLC     O3       OC301   -0.360000       15.9994           0
     18286 LPSA17   11       BGLC     C4       CC3161   0.140000       12.0110           0
     18287 LPSA17   11       BGLC     H4       HCA1     0.900000E-01   1.00800           0
     18288 LPSA17   11       BGLC     O4       OC311   -0.650000       15.9994           0
     18289 LPSA17   11       BGLC     HO4      HCP1     0.420000       1.00800           0
     18290 LPSA17   11       BGLC     C6       CC321    0.500000E-01   12.0110           0
     18291 LPSA17   11       BGLC     H61      HCA2     0.900000E-01   1.00800           0
     18292 LPSA17   11       BGLC     H62      HCA2     0.900000E-01   1.00800           0
     18293 LPSA17   11       BGLC     O6       OC311   -0.650000       15.9994           0
     18294 LPSA17   11       BGLC     HO6      HCP1     0.420000       1.00800           0
     18295 LPSA17   12       BGLCNA   C1       CC3162   0.290000       12.0110           0
     18296 LPSA17   12       BGLCNA   H1       HCA1     0.900000E-01   1.00800           0
     18297 LPSA17   12       BGLCNA   C5       CC3163   0.110000       12.0110           0
     18298 LPSA17   12       BGLCNA   H5       HCA1     0.900000E-01   1.00800           0
     18299 LPSA17   12       BGLCNA   O5       OC3C61  -0.400000       15.9994           0
     18300 LPSA17   12       BGLCNA   C2       CC3161   0.700000E-01   12.0110           0
     18301 LPSA17   12       BGLCNA   H2       HCA1     0.900000E-01   1.00800           0
     18302 LPSA17   12       BGLCNA   N        NC2D1   -0.470000       14.0070           0
     18303 LPSA17   12       BGLCNA   HN       HCP1     0.310000       1.00800           0
     18304 LPSA17   12       BGLCNA   C        CC2O1    0.510000       12.0110           0
     18305 LPSA17   12       BGLCNA   O        OC2D1   -0.510000       15.9994           0
     18306 LPSA17   12       BGLCNA   CT       CC331   -0.270000       12.0110           0
     18307 LPSA17   12       BGLCNA   HT1      HCA3     0.900000E-01   1.00800           0
     18308 LPSA17   12       BGLCNA   HT2      HCA3     0.900000E-01   1.00800           0
     18309 LPSA17   12       BGLCNA   HT3      HCA3     0.900000E-01   1.00800           0
     18310 LPSA17   12       BGLCNA   C3       CC3161   0.900000E-01   12.0110           0
     18311 LPSA17   12       BGLCNA   H3       HCA1     0.900000E-01   1.00800           0
     18312 LPSA17   12       BGLCNA   O3       OC301   -0.360000       15.9994           0
     18313 LPSA17   12       BGLCNA   C4       CC3161   0.140000       12.0110           0
     18314 LPSA17   12       BGLCNA   H4       HCA1     0.900000E-01   1.00800           0
     18315 LPSA17   12       BGLCNA   O4       OC311   -0.650000       15.9994           0
     18316 LPSA17   12       BGLCNA   HO4      HCP1     0.420000       1.00800           0
     18317 LPSA17   12       BGLCNA   C6       CC321    0.500000E-01   12.0110           0
     18318 LPSA17   12       BGLCNA   H61      HCA2     0.900000E-01   1.00800           0
     18319 LPSA17   12       BGLCNA   H62      HCA2     0.900000E-01   1.00800           0
     18320 LPSA17   12       BGLCNA   O6       OC311   -0.650000       15.9994           0
     18321 LPSA17   12       BGLCNA   HO6      HCP1     0.420000       1.00800           0
     18322 LPSA17   13       AGAL     C1       CC3162   0.290000       12.0110           0
     18323 LPSA17   13       AGAL     H1       HCA1     0.900000E-01   1.00800           0
     18324 LPSA17   13       AGAL     C5       CC3163   0.110000       12.0110           0
     18325 LPSA17   13       AGAL     H5       HCA1     0.900000E-01   1.00800           0
     18326 LPSA17   13       AGAL     O5       OC3C61  -0.400000       15.9994           0
     18327 LPSA17   13       AGAL     C2       CC3161   0.900000E-01   12.0110           0
     18328 LPSA17   13       AGAL     H2       HCA1     0.900000E-01   1.00800           0
     18329 LPSA17   13       AGAL     O2       OC301   -0.360000       15.9994           0
     18330 LPSA17   13       AGAL     C3       CC3161   0.140000       12.0110           0
     18331 LPSA17   13       AGAL     H3       HCA1     0.900000E-01   1.00800           0
     18332 LPSA17   13       AGAL     O3       OC311   -0.650000       15.9994           0
     18333 LPSA17   13       AGAL     HO3      HCP1     0.420000       1.00800           0
     18334 LPSA17   13       AGAL     C4       CC3161   0.140000       12.0110           0
     18335 LPSA17   13       AGAL     H4       HCA1     0.900000E-01   1.00800           0
     18336 LPSA17   13       AGAL     O4       OC311   -0.650000       15.9994           0
     18337 LPSA17   13       AGAL     HO4      HCP1     0.420000       1.00800           0
     18338 LPSA17   13       AGAL     C6       CC321    0.500000E-01   12.0110           0
     18339 LPSA17   13       AGAL     H61      HCA2     0.900000E-01   1.00800           0
     18340 LPSA17   13       AGAL     H62      HCA2     0.900000E-01   1.00800           0
     18341 LPSA17   13       AGAL     O6       OC311   -0.650000       15.9994           0
     18342 LPSA17   13       AGAL     HO6      HCP1     0.420000       1.00800           0
     18343 LPSA17   14       ARHM     C1       CC3162   0.290000       12.0110           0
     18344 LPSA17   14       ARHM     H1       HCA1     0.900000E-01   1.00800           0
     18345 LPSA17   14       ARHM     C5       CC3163   0.110000       12.0110           0
     18346 LPSA17   14       ARHM     H5       HCA1     0.900000E-01   1.00800           0
     18347 LPSA17   14       ARHM     O5       OC3C61  -0.400000       15.9994           0
     18348 LPSA17   14       ARHM     C2       CC3161   0.900000E-01   12.0110           0
     18349 LPSA17   14       ARHM     H2       HCA1     0.900000E-01   1.00800           0
     18350 LPSA17   14       ARHM     O2       OC301   -0.360000       15.9994           0
     18351 LPSA17   14       ARHM     C3       CC3161   0.140000       12.0110           0
     18352 LPSA17   14       ARHM     H3       HCA1     0.900000E-01   1.00800           0
     18353 LPSA17   14       ARHM     O3       OC311   -0.650000       15.9994           0
     18354 LPSA17   14       ARHM     HO3      HCP1     0.420000       1.00800           0
     18355 LPSA17   14       ARHM     C4       CC3161   0.140000       12.0110           0
     18356 LPSA17   14       ARHM     H4       HCA1     0.900000E-01   1.00800           0
     18357 LPSA17   14       ARHM     O4       OC311   -0.650000       15.9994           0
     18358 LPSA17   14       ARHM     HO4      HCP1     0.420000       1.00800           0
     18359 LPSA17   14       ARHM     C6       CC331   -0.270000       12.0110           0
     18360 LPSA17   14       ARHM     H61      HCA3     0.900000E-01   1.00800           0
     18361 LPSA17   14       ARHM     H62      HCA3     0.900000E-01   1.00800           0
     18362 LPSA17   14       ARHM     H63      HCA3     0.900000E-01   1.00800           0
     18363 LPSA17   15       ARHM     C1       CC3162   0.290000       12.0110           0
     18364 LPSA17   15       ARHM     H1       HCA1     0.900000E-01   1.00800           0
     18365 LPSA17   15       ARHM     C5       CC3163   0.110000       12.0110           0
     18366 LPSA17   15       ARHM     H5       HCA1     0.900000E-01   1.00800           0
     18367 LPSA17   15       ARHM     O5       OC3C61  -0.400000       15.9994           0
     18368 LPSA17   15       ARHM     C2       CC3161   0.900000E-01   12.0110           0
     18369 LPSA17   15       ARHM     H2       HCA1     0.900000E-01   1.00800           0
     18370 LPSA17   15       ARHM     O2       OC301   -0.360000       15.9994           0
     18371 LPSA17   15       ARHM     C3       CC3161   0.900000E-01   12.0110           0
     18372 LPSA17   15       ARHM     H3       HCA1     0.900000E-01   1.00800           0
     18373 LPSA17   15       ARHM     O3       OC301   -0.360000       15.9994           0
     18374 LPSA17   15       ARHM     C4       CC3161   0.140000       12.0110           0
     18375 LPSA17   15       ARHM     H4       HCA1     0.900000E-01   1.00800           0
     18376 LPSA17   15       ARHM     O4       OC311   -0.650000       15.9994           0
     18377 LPSA17   15       ARHM     HO4      HCP1     0.420000       1.00800           0
     18378 LPSA17   15       ARHM     C6       CC331   -0.270000       12.0110           0
     18379 LPSA17   15       ARHM     H61      HCA3     0.900000E-01   1.00800           0
     18380 LPSA17   15       ARHM     H62      HCA3     0.900000E-01   1.00800           0
     18381 LPSA17   15       ARHM     H63      HCA3     0.900000E-01   1.00800           0
     18382 LPSA17   16       BMANNA   C1       CC3162   0.290000       12.0110           0
     18383 LPSA17   16       BMANNA   H1       HCA1     0.900000E-01   1.00800           0
     18384 LPSA17   16       BMANNA   C5       CC3163   0.110000       12.0110           0
     18385 LPSA17   16       BMANNA   H5       HCA1     0.900000E-01   1.00800           0
     18386 LPSA17   16       BMANNA   O5       OC3C61  -0.400000       15.9994           0
     18387 LPSA17   16       BMANNA   C2       CC3161   0.700000E-01   12.0110           0
     18388 LPSA17   16       BMANNA   H2       HCA1     0.900000E-01   1.00800           0
     18389 LPSA17   16       BMANNA   N        NC2D1   -0.470000       14.0070           0
     18390 LPSA17   16       BMANNA   HN       HCP1     0.310000       1.00800           0
     18391 LPSA17   16       BMANNA   C        CC2O1    0.510000       12.0110           0
     18392 LPSA17   16       BMANNA   O        OC2D1   -0.510000       15.9994           0
     18393 LPSA17   16       BMANNA   CT       CC331   -0.270000       12.0110           0
     18394 LPSA17   16       BMANNA   HT1      HCA3     0.900000E-01   1.00800           0
     18395 LPSA17   16       BMANNA   HT2      HCA3     0.900000E-01   1.00800           0
     18396 LPSA17   16       BMANNA   HT3      HCA3     0.900000E-01   1.00800           0
     18397 LPSA17   16       BMANNA   C3       CC3161   0.140000       12.0110           0
     18398 LPSA17   16       BMANNA   H3       HCA1     0.900000E-01   1.00800           0
     18399 LPSA17   16       BMANNA   O3       OC311   -0.650000       15.9994           0
     18400 LPSA17   16       BMANNA   HO3      HCP1     0.420000       1.00800           0
     18401 LPSA17   16       BMANNA   C4       CC3161   0.140000       12.0110           0
     18402 LPSA17   16       BMANNA   H4       HCA1     0.900000E-01   1.00800           0
     18403 LPSA17   16       BMANNA   O4       OC311   -0.650000       15.9994           0
     18404 LPSA17   16       BMANNA   HO4      HCP1     0.420000       1.00800           0
     18405 LPSA17   16       BMANNA   C6       CC321    0.500000E-01   12.0110           0
     18406 LPSA17   16       BMANNA   H61      HCA2     0.900000E-01   1.00800           0
     18407 LPSA17   16       BMANNA   H62      HCA2     0.900000E-01   1.00800           0
     18408 LPSA17   16       BMANNA   O6       OC311   -0.650000       15.9994           0
     18409 LPSA17   16       BMANNA   HO6      HCP1     0.420000       1.00800           0
     18410 LPSA17   17       BGLCNA   C1       CC3162   0.290000       12.0110           0
     18411 LPSA17   17       BGLCNA   H1       HCA1     0.900000E-01   1.00800           0
     18412 LPSA17   17       BGLCNA   C5       CC3163   0.110000       12.0110           0
     18413 LPSA17   17       BGLCNA   H5       HCA1     0.900000E-01   1.00800           0
     18414 LPSA17   17       BGLCNA   O5       OC3C61  -0.400000       15.9994           0
     18415 LPSA17   17       BGLCNA   C2       CC3161   0.700000E-01   12.0110           0
     18416 LPSA17   17       BGLCNA   H2       HCA1     0.900000E-01   1.00800           0
     18417 LPSA17   17       BGLCNA   N        NC2D1   -0.470000       14.0070           0
     18418 LPSA17   17       BGLCNA   HN       HCP1     0.310000       1.00800           0
     18419 LPSA17   17       BGLCNA   C        CC2O1    0.510000       12.0110           0
     18420 LPSA17   17       BGLCNA   O        OC2D1   -0.510000       15.9994           0
     18421 LPSA17   17       BGLCNA   CT       CC331   -0.270000       12.0110           0
     18422 LPSA17   17       BGLCNA   HT1      HCA3     0.900000E-01   1.00800           0
     18423 LPSA17   17       BGLCNA   HT2      HCA3     0.900000E-01   1.00800           0
     18424 LPSA17   17       BGLCNA   HT3      HCA3     0.900000E-01   1.00800           0
     18425 LPSA17   17       BGLCNA   C3       CC3161   0.900000E-01   12.0110           0
     18426 LPSA17   17       BGLCNA   H3       HCA1     0.900000E-01   1.00800           0
     18427 LPSA17   17       BGLCNA   O3       OC301   -0.360000       15.9994           0
     18428 LPSA17   17       BGLCNA   C4       CC3161   0.140000       12.0110           0
     18429 LPSA17   17       BGLCNA   H4       HCA1     0.900000E-01   1.00800           0
     18430 LPSA17   17       BGLCNA   O4       OC311   -0.650000       15.9994           0
     18431 LPSA17   17       BGLCNA   HO4      HCP1     0.420000       1.00800           0
     18432 LPSA17   17       BGLCNA   C6       CC321    0.500000E-01   12.0110           0
     18433 LPSA17   17       BGLCNA   H61      HCA2     0.900000E-01   1.00800           0
     18434 LPSA17   17       BGLCNA   H62      HCA2     0.900000E-01   1.00800           0
     18435 LPSA17   17       BGLCNA   O6       OC311   -0.650000       15.9994           0
     18436 LPSA17   17       BGLCNA   HO6      HCP1     0.420000       1.00800           0
     18437 LPSA17   18       AGAL     C1       CC3162   0.290000       12.0110           0
     18438 LPSA17   18       AGAL     H1       HCA1     0.900000E-01   1.00800           0
     18439 LPSA17   18       AGAL     C5       CC3163   0.110000       12.0110           0
     18440 LPSA17   18       AGAL     H5       HCA1     0.900000E-01   1.00800           0
     18441 LPSA17   18       AGAL     O5       OC3C61  -0.400000       15.9994           0
     18442 LPSA17   18       AGAL     C2       CC3161   0.900000E-01   12.0110           0
     18443 LPSA17   18       AGAL     H2       HCA1     0.900000E-01   1.00800           0
     18444 LPSA17   18       AGAL     O2       OC301   -0.360000       15.9994           0
     18445 LPSA17   18       AGAL     C3       CC3161   0.140000       12.0110           0
     18446 LPSA17   18       AGAL     H3       HCA1     0.900000E-01   1.00800           0
     18447 LPSA17   18       AGAL     O3       OC311   -0.650000       15.9994           0
     18448 LPSA17   18       AGAL     HO3      HCP1     0.420000       1.00800           0
     18449 LPSA17   18       AGAL     C4       CC3161   0.140000       12.0110           0
     18450 LPSA17   18       AGAL     H4       HCA1     0.900000E-01   1.00800           0
     18451 LPSA17   18       AGAL     O4       OC311   -0.650000       15.9994           0
     18452 LPSA17   18       AGAL     HO4      HCP1     0.420000       1.00800           0
     18453 LPSA17   18       AGAL     C6       CC321    0.500000E-01   12.0110           0
     18454 LPSA17   18       AGAL     H61      HCA2     0.900000E-01   1.00800           0
     18455 LPSA17   18       AGAL     H62      HCA2     0.900000E-01   1.00800           0
     18456 LPSA17   18       AGAL     O6       OC311   -0.650000       15.9994           0
     18457 LPSA17   18       AGAL     HO6      HCP1     0.420000       1.00800           0
     18458 LPSA17   19       ARHM     C1       CC3162   0.290000       12.0110           0
     18459 LPSA17   19       ARHM     H1       HCA1     0.900000E-01   1.00800           0
     18460 LPSA17   19       ARHM     C5       CC3163   0.110000       12.0110           0
     18461 LPSA17   19       ARHM     H5       HCA1     0.900000E-01   1.00800           0
     18462 LPSA17   19       ARHM     O5       OC3C61  -0.400000       15.9994           0
     18463 LPSA17   19       ARHM     C2       CC3161   0.900000E-01   12.0110           0
     18464 LPSA17   19       ARHM     H2       HCA1     0.900000E-01   1.00800           0
     18465 LPSA17   19       ARHM     O2       OC301   -0.360000       15.9994           0
     18466 LPSA17   19       ARHM     C3       CC3161   0.140000       12.0110           0
     18467 LPSA17   19       ARHM     H3       HCA1     0.900000E-01   1.00800           0
     18468 LPSA17   19       ARHM     O3       OC311   -0.650000       15.9994           0
     18469 LPSA17   19       ARHM     HO3      HCP1     0.420000       1.00800           0
     18470 LPSA17   19       ARHM     C4       CC3161   0.140000       12.0110           0
     18471 LPSA17   19       ARHM     H4       HCA1     0.900000E-01   1.00800           0
     18472 LPSA17   19       ARHM     O4       OC311   -0.650000       15.9994           0
     18473 LPSA17   19       ARHM     HO4      HCP1     0.420000       1.00800           0
     18474 LPSA17   19       ARHM     C6       CC331   -0.270000       12.0110           0
     18475 LPSA17   19       ARHM     H61      HCA3     0.900000E-01   1.00800           0
     18476 LPSA17   19       ARHM     H62      HCA3     0.900000E-01   1.00800           0
     18477 LPSA17   19       ARHM     H63      HCA3     0.900000E-01   1.00800           0
     18478 LPSA17   20       ARHM     C1       CC3162   0.290000       12.0110           0
     18479 LPSA17   20       ARHM     H1       HCA1     0.900000E-01   1.00800           0
     18480 LPSA17   20       ARHM     C5       CC3163   0.110000       12.0110           0
     18481 LPSA17   20       ARHM     H5       HCA1     0.900000E-01   1.00800           0
     18482 LPSA17   20       ARHM     O5       OC3C61  -0.400000       15.9994           0
     18483 LPSA17   20       ARHM     C2       CC3161   0.900000E-01   12.0110           0
     18484 LPSA17   20       ARHM     H2       HCA1     0.900000E-01   1.00800           0
     18485 LPSA17   20       ARHM     O2       OC301   -0.360000       15.9994           0
     18486 LPSA17   20       ARHM     C3       CC3161   0.900000E-01   12.0110           0
     18487 LPSA17   20       ARHM     H3       HCA1     0.900000E-01   1.00800           0
     18488 LPSA17   20       ARHM     O3       OC301   -0.360000       15.9994           0
     18489 LPSA17   20       ARHM     C4       CC3161   0.140000       12.0110           0
     18490 LPSA17   20       ARHM     H4       HCA1     0.900000E-01   1.00800           0
     18491 LPSA17   20       ARHM     O4       OC311   -0.650000       15.9994           0
     18492 LPSA17   20       ARHM     HO4      HCP1     0.420000       1.00800           0
     18493 LPSA17   20       ARHM     C6       CC331   -0.270000       12.0110           0
     18494 LPSA17   20       ARHM     H61      HCA3     0.900000E-01   1.00800           0
     18495 LPSA17   20       ARHM     H62      HCA3     0.900000E-01   1.00800           0
     18496 LPSA17   20       ARHM     H63      HCA3     0.900000E-01   1.00800           0
     18497 LPSA17   21       BMANNA   C1       CC3162   0.290000       12.0110           0
     18498 LPSA17   21       BMANNA   H1       HCA1     0.900000E-01   1.00800           0
     18499 LPSA17   21       BMANNA   C5       CC3163   0.110000       12.0110           0
     18500 LPSA17   21       BMANNA   H5       HCA1     0.900000E-01   1.00800           0
     18501 LPSA17   21       BMANNA   O5       OC3C61  -0.400000       15.9994           0
     18502 LPSA17   21       BMANNA   C2       CC3161   0.700000E-01   12.0110           0
     18503 LPSA17   21       BMANNA   H2       HCA1     0.900000E-01   1.00800           0
     18504 LPSA17   21       BMANNA   N        NC2D1   -0.470000       14.0070           0
     18505 LPSA17   21       BMANNA   HN       HCP1     0.310000       1.00800           0
     18506 LPSA17   21       BMANNA   C        CC2O1    0.510000       12.0110           0
     18507 LPSA17   21       BMANNA   O        OC2D1   -0.510000       15.9994           0
     18508 LPSA17   21       BMANNA   CT       CC331   -0.270000       12.0110           0
     18509 LPSA17   21       BMANNA   HT1      HCA3     0.900000E-01   1.00800           0
     18510 LPSA17   21       BMANNA   HT2      HCA3     0.900000E-01   1.00800           0
     18511 LPSA17   21       BMANNA   HT3      HCA3     0.900000E-01   1.00800           0
     18512 LPSA17   21       BMANNA   C3       CC3161   0.140000       12.0110           0
     18513 LPSA17   21       BMANNA   H3       HCA1     0.900000E-01   1.00800           0
     18514 LPSA17   21       BMANNA   O3       OC311   -0.650000       15.9994           0
     18515 LPSA17   21       BMANNA   HO3      HCP1     0.420000       1.00800           0
     18516 LPSA17   21       BMANNA   C4       CC3161   0.140000       12.0110           0
     18517 LPSA17   21       BMANNA   H4       HCA1     0.900000E-01   1.00800           0
     18518 LPSA17   21       BMANNA   O4       OC311   -0.650000       15.9994           0
     18519 LPSA17   21       BMANNA   HO4      HCP1     0.420000       1.00800           0
     18520 LPSA17   21       BMANNA   C6       CC321    0.500000E-01   12.0110           0
     18521 LPSA17   21       BMANNA   H61      HCA2     0.900000E-01   1.00800           0
     18522 LPSA17   21       BMANNA   H62      HCA2     0.900000E-01   1.00800           0
     18523 LPSA17   21       BMANNA   O6       OC311   -0.650000       15.9994           0
     18524 LPSA17   21       BMANNA   HO6      HCP1     0.420000       1.00800           0
     18525 LPSA17   22       BGLCNA   C1       CC3162   0.290000       12.0110           0
     18526 LPSA17   22       BGLCNA   H1       HCA1     0.900000E-01   1.00800           0
     18527 LPSA17   22       BGLCNA   C5       CC3163   0.110000       12.0110           0
     18528 LPSA17   22       BGLCNA   H5       HCA1     0.900000E-01   1.00800           0
     18529 LPSA17   22       BGLCNA   O5       OC3C61  -0.400000       15.9994           0
     18530 LPSA17   22       BGLCNA   C2       CC3161   0.700000E-01   12.0110           0
     18531 LPSA17   22       BGLCNA   H2       HCA1     0.900000E-01   1.00800           0
     18532 LPSA17   22       BGLCNA   N        NC2D1   -0.470000       14.0070           0
     18533 LPSA17   22       BGLCNA   HN       HCP1     0.310000       1.00800           0
     18534 LPSA17   22       BGLCNA   C        CC2O1    0.510000       12.0110           0
     18535 LPSA17   22       BGLCNA   O        OC2D1   -0.510000       15.9994           0
     18536 LPSA17   22       BGLCNA   CT       CC331   -0.270000       12.0110           0
     18537 LPSA17   22       BGLCNA   HT1      HCA3     0.900000E-01   1.00800           0
     18538 LPSA17   22       BGLCNA   HT2      HCA3     0.900000E-01   1.00800           0
     18539 LPSA17   22       BGLCNA   HT3      HCA3     0.900000E-01   1.00800           0
     18540 LPSA17   22       BGLCNA   C3       CC3161   0.900000E-01   12.0110           0
     18541 LPSA17   22       BGLCNA   H3       HCA1     0.900000E-01   1.00800           0
     18542 LPSA17   22       BGLCNA   O3       OC301   -0.360000       15.9994           0
     18543 LPSA17   22       BGLCNA   C4       CC3161   0.140000       12.0110           0
     18544 LPSA17   22       BGLCNA   H4       HCA1     0.900000E-01   1.00800           0
     18545 LPSA17   22       BGLCNA   O4       OC311   -0.650000       15.9994           0
     18546 LPSA17   22       BGLCNA   HO4      HCP1     0.420000       1.00800           0
     18547 LPSA17   22       BGLCNA   C6       CC321    0.500000E-01   12.0110           0
     18548 LPSA17   22       BGLCNA   H61      HCA2     0.900000E-01   1.00800           0
     18549 LPSA17   22       BGLCNA   H62      HCA2     0.900000E-01   1.00800           0
     18550 LPSA17   22       BGLCNA   O6       OC311   -0.650000       15.9994           0
     18551 LPSA17   22       BGLCNA   HO6      HCP1     0.420000       1.00800           0
     18552 LPSA17   23       AGAL     C1       CC3162   0.290000       12.0110           0
     18553 LPSA17   23       AGAL     H1       HCA1     0.900000E-01   1.00800           0
     18554 LPSA17   23       AGAL     C5       CC3163   0.110000       12.0110           0
     18555 LPSA17   23       AGAL     H5       HCA1     0.900000E-01   1.00800           0
     18556 LPSA17   23       AGAL     O5       OC3C61  -0.400000       15.9994           0
     18557 LPSA17   23       AGAL     C2       CC3161   0.900000E-01   12.0110           0
     18558 LPSA17   23       AGAL     H2       HCA1     0.900000E-01   1.00800           0
     18559 LPSA17   23       AGAL     O2       OC301   -0.360000       15.9994           0
     18560 LPSA17   23       AGAL     C3       CC3161   0.140000       12.0110           0
     18561 LPSA17   23       AGAL     H3       HCA1     0.900000E-01   1.00800           0
     18562 LPSA17   23       AGAL     O3       OC311   -0.650000       15.9994           0
     18563 LPSA17   23       AGAL     HO3      HCP1     0.420000       1.00800           0
     18564 LPSA17   23       AGAL     C4       CC3161   0.140000       12.0110           0
     18565 LPSA17   23       AGAL     H4       HCA1     0.900000E-01   1.00800           0
     18566 LPSA17   23       AGAL     O4       OC311   -0.650000       15.9994           0
     18567 LPSA17   23       AGAL     HO4      HCP1     0.420000       1.00800           0
     18568 LPSA17   23       AGAL     C6       CC321    0.500000E-01   12.0110           0
     18569 LPSA17   23       AGAL     H61      HCA2     0.900000E-01   1.00800           0
     18570 LPSA17   23       AGAL     H62      HCA2     0.900000E-01   1.00800           0
     18571 LPSA17   23       AGAL     O6       OC311   -0.650000       15.9994           0
     18572 LPSA17   23       AGAL     HO6      HCP1     0.420000       1.00800           0
     18573 LPSA17   24       ARHM     C1       CC3162   0.290000       12.0110           0
     18574 LPSA17   24       ARHM     H1       HCA1     0.900000E-01   1.00800           0
     18575 LPSA17   24       ARHM     C5       CC3163   0.110000       12.0110           0
     18576 LPSA17   24       ARHM     H5       HCA1     0.900000E-01   1.00800           0
     18577 LPSA17   24       ARHM     O5       OC3C61  -0.400000       15.9994           0
     18578 LPSA17   24       ARHM     C2       CC3161   0.900000E-01   12.0110           0
     18579 LPSA17   24       ARHM     H2       HCA1     0.900000E-01   1.00800           0
     18580 LPSA17   24       ARHM     O2       OC301   -0.360000       15.9994           0
     18581 LPSA17   24       ARHM     C3       CC3161   0.140000       12.0110           0
     18582 LPSA17   24       ARHM     H3       HCA1     0.900000E-01   1.00800           0
     18583 LPSA17   24       ARHM     O3       OC311   -0.650000       15.9994           0
     18584 LPSA17   24       ARHM     HO3      HCP1     0.420000       1.00800           0
     18585 LPSA17   24       ARHM     C4       CC3161   0.140000       12.0110           0
     18586 LPSA17   24       ARHM     H4       HCA1     0.900000E-01   1.00800           0
     18587 LPSA17   24       ARHM     O4       OC311   -0.650000       15.9994           0
     18588 LPSA17   24       ARHM     HO4      HCP1     0.420000       1.00800           0
     18589 LPSA17   24       ARHM     C6       CC331   -0.270000       12.0110           0
     18590 LPSA17   24       ARHM     H61      HCA3     0.900000E-01   1.00800           0
     18591 LPSA17   24       ARHM     H62      HCA3     0.900000E-01   1.00800           0
     18592 LPSA17   24       ARHM     H63      HCA3     0.900000E-01   1.00800           0
     18593 LPSA17   25       ARHM     C1       CC3162   0.290000       12.0110           0
     18594 LPSA17   25       ARHM     H1       HCA1     0.900000E-01   1.00800           0
     18595 LPSA17   25       ARHM     C5       CC3163   0.110000       12.0110           0
     18596 LPSA17   25       ARHM     H5       HCA1     0.900000E-01   1.00800           0
     18597 LPSA17   25       ARHM     O5       OC3C61  -0.400000       15.9994           0
     18598 LPSA17   25       ARHM     C2       CC3161   0.900000E-01   12.0110           0
     18599 LPSA17   25       ARHM     H2       HCA1     0.900000E-01   1.00800           0
     18600 LPSA17   25       ARHM     O2       OC301   -0.360000       15.9994           0
     18601 LPSA17   25       ARHM     C3       CC3161   0.900000E-01   12.0110           0
     18602 LPSA17   25       ARHM     H3       HCA1     0.900000E-01   1.00800           0
     18603 LPSA17   25       ARHM     O3       OC301   -0.360000       15.9994           0
     18604 LPSA17   25       ARHM     C4       CC3161   0.140000       12.0110           0
     18605 LPSA17   25       ARHM     H4       HCA1     0.900000E-01   1.00800           0
     18606 LPSA17   25       ARHM     O4       OC311   -0.650000       15.9994           0
     18607 LPSA17   25       ARHM     HO4      HCP1     0.420000       1.00800           0
     18608 LPSA17   25       ARHM     C6       CC331   -0.270000       12.0110           0
     18609 LPSA17   25       ARHM     H61      HCA3     0.900000E-01   1.00800           0
     18610 LPSA17   25       ARHM     H62      HCA3     0.900000E-01   1.00800           0
     18611 LPSA17   25       ARHM     H63      HCA3     0.900000E-01   1.00800           0
     18612 LPSA17   26       BMANNA   C1       CC3162   0.290000       12.0110           0
     18613 LPSA17   26       BMANNA   H1       HCA1     0.900000E-01   1.00800           0
     18614 LPSA17   26       BMANNA   C5       CC3163   0.110000       12.0110           0
     18615 LPSA17   26       BMANNA   H5       HCA1     0.900000E-01   1.00800           0
     18616 LPSA17   26       BMANNA   O5       OC3C61  -0.400000       15.9994           0
     18617 LPSA17   26       BMANNA   C2       CC3161   0.700000E-01   12.0110           0
     18618 LPSA17   26       BMANNA   H2       HCA1     0.900000E-01   1.00800           0
     18619 LPSA17   26       BMANNA   N        NC2D1   -0.470000       14.0070           0
     18620 LPSA17   26       BMANNA   HN       HCP1     0.310000       1.00800           0
     18621 LPSA17   26       BMANNA   C        CC2O1    0.510000       12.0110           0
     18622 LPSA17   26       BMANNA   O        OC2D1   -0.510000       15.9994           0
     18623 LPSA17   26       BMANNA   CT       CC331   -0.270000       12.0110           0
     18624 LPSA17   26       BMANNA   HT1      HCA3     0.900000E-01   1.00800           0
     18625 LPSA17   26       BMANNA   HT2      HCA3     0.900000E-01   1.00800           0
     18626 LPSA17   26       BMANNA   HT3      HCA3     0.900000E-01   1.00800           0
     18627 LPSA17   26       BMANNA   C3       CC3161   0.140000       12.0110           0
     18628 LPSA17   26       BMANNA   H3       HCA1     0.900000E-01   1.00800           0
     18629 LPSA17   26       BMANNA   O3       OC311   -0.650000       15.9994           0
     18630 LPSA17   26       BMANNA   HO3      HCP1     0.420000       1.00800           0
     18631 LPSA17   26       BMANNA   C4       CC3161   0.140000       12.0110           0
     18632 LPSA17   26       BMANNA   H4       HCA1     0.900000E-01   1.00800           0
     18633 LPSA17   26       BMANNA   O4       OC311   -0.650000       15.9994           0
     18634 LPSA17   26       BMANNA   HO4      HCP1     0.420000       1.00800           0
     18635 LPSA17   26       BMANNA   C6       CC321    0.500000E-01   12.0110           0
     18636 LPSA17   26       BMANNA   H61      HCA2     0.900000E-01   1.00800           0
     18637 LPSA17   26       BMANNA   H62      HCA2     0.900000E-01   1.00800           0
     18638 LPSA17   26       BMANNA   O6       OC311   -0.650000       15.9994           0
     18639 LPSA17   26       BMANNA   HO6      HCP1     0.420000       1.00800           0
     18640 LPSA17   27       BGLCNA   C1       CC3162   0.290000       12.0110           0
     18641 LPSA17   27       BGLCNA   H1       HCA1     0.900000E-01   1.00800           0
     18642 LPSA17   27       BGLCNA   C5       CC3163   0.110000       12.0110           0
     18643 LPSA17   27       BGLCNA   H5       HCA1     0.900000E-01   1.00800           0
     18644 LPSA17   27       BGLCNA   O5       OC3C61  -0.400000       15.9994           0
     18645 LPSA17   27       BGLCNA   C2       CC3161   0.700000E-01   12.0110           0
     18646 LPSA17   27       BGLCNA   H2       HCA1     0.900000E-01   1.00800           0
     18647 LPSA17   27       BGLCNA   N        NC2D1   -0.470000       14.0070           0
     18648 LPSA17   27       BGLCNA   HN       HCP1     0.310000       1.00800           0
     18649 LPSA17   27       BGLCNA   C        CC2O1    0.510000       12.0110           0
     18650 LPSA17   27       BGLCNA   O        OC2D1   -0.510000       15.9994           0
     18651 LPSA17   27       BGLCNA   CT       CC331   -0.270000       12.0110           0
     18652 LPSA17   27       BGLCNA   HT1      HCA3     0.900000E-01   1.00800           0
     18653 LPSA17   27       BGLCNA   HT2      HCA3     0.900000E-01   1.00800           0
     18654 LPSA17   27       BGLCNA   HT3      HCA3     0.900000E-01   1.00800           0
     18655 LPSA17   27       BGLCNA   C3       CC3161   0.900000E-01   12.0110           0
     18656 LPSA17   27       BGLCNA   H3       HCA1     0.900000E-01   1.00800           0
     18657 LPSA17   27       BGLCNA   O3       OC301   -0.360000       15.9994           0
     18658 LPSA17   27       BGLCNA   C4       CC3161   0.140000       12.0110           0
     18659 LPSA17   27       BGLCNA   H4       HCA1     0.900000E-01   1.00800           0
     18660 LPSA17   27       BGLCNA   O4       OC311   -0.650000       15.9994           0
     18661 LPSA17   27       BGLCNA   HO4      HCP1     0.420000       1.00800           0
     18662 LPSA17   27       BGLCNA   C6       CC321    0.500000E-01   12.0110           0
     18663 LPSA17   27       BGLCNA   H61      HCA2     0.900000E-01   1.00800           0
     18664 LPSA17   27       BGLCNA   H62      HCA2     0.900000E-01   1.00800           0
     18665 LPSA17   27       BGLCNA   O6       OC311   -0.650000       15.9994           0
     18666 LPSA17   27       BGLCNA   HO6      HCP1     0.420000       1.00800           0
     18667 LPSA17   28       AGAL     C1       CC3162   0.290000       12.0110           0
     18668 LPSA17   28       AGAL     H1       HCA1     0.900000E-01   1.00800           0
     18669 LPSA17   28       AGAL     C5       CC3163   0.110000       12.0110           0
     18670 LPSA17   28       AGAL     H5       HCA1     0.900000E-01   1.00800           0
     18671 LPSA17   28       AGAL     O5       OC3C61  -0.400000       15.9994           0
     18672 LPSA17   28       AGAL     C2       CC3161   0.900000E-01   12.0110           0
     18673 LPSA17   28       AGAL     H2       HCA1     0.900000E-01   1.00800           0
     18674 LPSA17   28       AGAL     O2       OC301   -0.360000       15.9994           0
     18675 LPSA17   28       AGAL     C3       CC3161   0.140000       12.0110           0
     18676 LPSA17   28       AGAL     H3       HCA1     0.900000E-01   1.00800           0
     18677 LPSA17   28       AGAL     O3       OC311   -0.650000       15.9994           0
     18678 LPSA17   28       AGAL     HO3      HCP1     0.420000       1.00800           0
     18679 LPSA17   28       AGAL     C4       CC3161   0.140000       12.0110           0
     18680 LPSA17   28       AGAL     H4       HCA1     0.900000E-01   1.00800           0
     18681 LPSA17   28       AGAL     O4       OC311   -0.650000       15.9994           0
     18682 LPSA17   28       AGAL     HO4      HCP1     0.420000       1.00800           0
     18683 LPSA17   28       AGAL     C6       CC321    0.500000E-01   12.0110           0
     18684 LPSA17   28       AGAL     H61      HCA2     0.900000E-01   1.00800           0
     18685 LPSA17   28       AGAL     H62      HCA2     0.900000E-01   1.00800           0
     18686 LPSA17   28       AGAL     O6       OC311   -0.650000       15.9994           0
     18687 LPSA17   28       AGAL     HO6      HCP1     0.420000       1.00800           0
     18688 LPSA17   29       ARHM     C1       CC3162   0.290000       12.0110           0
     18689 LPSA17   29       ARHM     H1       HCA1     0.900000E-01   1.00800           0
     18690 LPSA17   29       ARHM     C5       CC3163   0.110000       12.0110           0
     18691 LPSA17   29       ARHM     H5       HCA1     0.900000E-01   1.00800           0
     18692 LPSA17   29       ARHM     O5       OC3C61  -0.400000       15.9994           0
     18693 LPSA17   29       ARHM     C2       CC3161   0.900000E-01   12.0110           0
     18694 LPSA17   29       ARHM     H2       HCA1     0.900000E-01   1.00800           0
     18695 LPSA17   29       ARHM     O2       OC301   -0.360000       15.9994           0
     18696 LPSA17   29       ARHM     C3       CC3161   0.140000       12.0110           0
     18697 LPSA17   29       ARHM     H3       HCA1     0.900000E-01   1.00800           0
     18698 LPSA17   29       ARHM     O3       OC311   -0.650000       15.9994           0
     18699 LPSA17   29       ARHM     HO3      HCP1     0.420000       1.00800           0
     18700 LPSA17   29       ARHM     C4       CC3161   0.140000       12.0110           0
     18701 LPSA17   29       ARHM     H4       HCA1     0.900000E-01   1.00800           0
     18702 LPSA17   29       ARHM     O4       OC311   -0.650000       15.9994           0
     18703 LPSA17   29       ARHM     HO4      HCP1     0.420000       1.00800           0
     18704 LPSA17   29       ARHM     C6       CC331   -0.270000       12.0110           0
     18705 LPSA17   29       ARHM     H61      HCA3     0.900000E-01   1.00800           0
     18706 LPSA17   29       ARHM     H62      HCA3     0.900000E-01   1.00800           0
     18707 LPSA17   29       ARHM     H63      HCA3     0.900000E-01   1.00800           0
     18708 LPSA17   30       ARHM     C1       CC3162   0.290000       12.0110           0
     18709 LPSA17   30       ARHM     H1       HCA1     0.900000E-01   1.00800           0
     18710 LPSA17   30       ARHM     C5       CC3163   0.110000       12.0110           0
     18711 LPSA17   30       ARHM     H5       HCA1     0.900000E-01   1.00800           0
     18712 LPSA17   30       ARHM     O5       OC3C61  -0.400000       15.9994           0
     18713 LPSA17   30       ARHM     C2       CC3161   0.900000E-01   12.0110           0
     18714 LPSA17   30       ARHM     H2       HCA1     0.900000E-01   1.00800           0
     18715 LPSA17   30       ARHM     O2       OC301   -0.360000       15.9994           0
     18716 LPSA17   30       ARHM     C3       CC3161   0.900000E-01   12.0110           0
     18717 LPSA17   30       ARHM     H3       HCA1     0.900000E-01   1.00800           0
     18718 LPSA17   30       ARHM     O3       OC301   -0.360000       15.9994           0
     18719 LPSA17   30       ARHM     C4       CC3161   0.140000       12.0110           0
     18720 LPSA17   30       ARHM     H4       HCA1     0.900000E-01   1.00800           0
     18721 LPSA17   30       ARHM     O4       OC311   -0.650000       15.9994           0
     18722 LPSA17   30       ARHM     HO4      HCP1     0.420000       1.00800           0
     18723 LPSA17   30       ARHM     C6       CC331   -0.270000       12.0110           0
     18724 LPSA17   30       ARHM     H61      HCA3     0.900000E-01   1.00800           0
     18725 LPSA17   30       ARHM     H62      HCA3     0.900000E-01   1.00800           0
     18726 LPSA17   30       ARHM     H63      HCA3     0.900000E-01   1.00800           0
     18727 LPSA17   31       BMANNA   C1       CC3162   0.290000       12.0110           0
     18728 LPSA17   31       BMANNA   H1       HCA1     0.900000E-01   1.00800           0
     18729 LPSA17   31       BMANNA   C5       CC3163   0.110000       12.0110           0
     18730 LPSA17   31       BMANNA   H5       HCA1     0.900000E-01   1.00800           0
     18731 LPSA17   31       BMANNA   O5       OC3C61  -0.400000       15.9994           0
     18732 LPSA17   31       BMANNA   C2       CC3161   0.700000E-01   12.0110           0
     18733 LPSA17   31       BMANNA   H2       HCA1     0.900000E-01   1.00800           0
     18734 LPSA17   31       BMANNA   N        NC2D1   -0.470000       14.0070           0
     18735 LPSA17   31       BMANNA   HN       HCP1     0.310000       1.00800           0
     18736 LPSA17   31       BMANNA   C        CC2O1    0.510000       12.0110           0
     18737 LPSA17   31       BMANNA   O        OC2D1   -0.510000       15.9994           0
     18738 LPSA17   31       BMANNA   CT       CC331   -0.270000       12.0110           0
     18739 LPSA17   31       BMANNA   HT1      HCA3     0.900000E-01   1.00800           0
     18740 LPSA17   31       BMANNA   HT2      HCA3     0.900000E-01   1.00800           0
     18741 LPSA17   31       BMANNA   HT3      HCA3     0.900000E-01   1.00800           0
     18742 LPSA17   31       BMANNA   C3       CC3161   0.140000       12.0110           0
     18743 LPSA17   31       BMANNA   H3       HCA1     0.900000E-01   1.00800           0
     18744 LPSA17   31       BMANNA   O3       OC311   -0.650000       15.9994           0
     18745 LPSA17   31       BMANNA   HO3      HCP1     0.420000       1.00800           0
     18746 LPSA17   31       BMANNA   C4       CC3161   0.140000       12.0110           0
     18747 LPSA17   31       BMANNA   H4       HCA1     0.900000E-01   1.00800           0
     18748 LPSA17   31       BMANNA   O4       OC311   -0.650000       15.9994           0
     18749 LPSA17   31       BMANNA   HO4      HCP1     0.420000       1.00800           0
     18750 LPSA17   31       BMANNA   C6       CC321    0.500000E-01   12.0110           0
     18751 LPSA17   31       BMANNA   H61      HCA2     0.900000E-01   1.00800           0
     18752 LPSA17   31       BMANNA   H62      HCA2     0.900000E-01   1.00800           0
     18753 LPSA17   31       BMANNA   O6       OC311   -0.650000       15.9994           0
     18754 LPSA17   31       BMANNA   HO6      HCP1     0.420000       1.00800           0
     18755 LPSA17   32       BGLCNA   C1       CC3162   0.290000       12.0110           0
     18756 LPSA17   32       BGLCNA   H1       HCA1     0.900000E-01   1.00800           0
     18757 LPSA17   32       BGLCNA   C5       CC3163   0.110000       12.0110           0
     18758 LPSA17   32       BGLCNA   H5       HCA1     0.900000E-01   1.00800           0
     18759 LPSA17   32       BGLCNA   O5       OC3C61  -0.400000       15.9994           0
     18760 LPSA17   32       BGLCNA   C2       CC3161   0.700000E-01   12.0110           0
     18761 LPSA17   32       BGLCNA   H2       HCA1     0.900000E-01   1.00800           0
     18762 LPSA17   32       BGLCNA   N        NC2D1   -0.470000       14.0070           0
     18763 LPSA17   32       BGLCNA   HN       HCP1     0.310000       1.00800           0
     18764 LPSA17   32       BGLCNA   C        CC2O1    0.510000       12.0110           0
     18765 LPSA17   32       BGLCNA   O        OC2D1   -0.510000       15.9994           0
     18766 LPSA17   32       BGLCNA   CT       CC331   -0.270000       12.0110           0
     18767 LPSA17   32       BGLCNA   HT1      HCA3     0.900000E-01   1.00800           0
     18768 LPSA17   32       BGLCNA   HT2      HCA3     0.900000E-01   1.00800           0
     18769 LPSA17   32       BGLCNA   HT3      HCA3     0.900000E-01   1.00800           0
     18770 LPSA17   32       BGLCNA   C3       CC3161   0.900000E-01   12.0110           0
     18771 LPSA17   32       BGLCNA   H3       HCA1     0.900000E-01   1.00800           0
     18772 LPSA17   32       BGLCNA   O3       OC301   -0.360000       15.9994           0
     18773 LPSA17   32       BGLCNA   C4       CC3161   0.140000       12.0110           0
     18774 LPSA17   32       BGLCNA   H4       HCA1     0.900000E-01   1.00800           0
     18775 LPSA17   32       BGLCNA   O4       OC311   -0.650000       15.9994           0
     18776 LPSA17   32       BGLCNA   HO4      HCP1     0.420000       1.00800           0
     18777 LPSA17   32       BGLCNA   C6       CC321    0.500000E-01   12.0110           0
     18778 LPSA17   32       BGLCNA   H61      HCA2     0.900000E-01   1.00800           0
     18779 LPSA17   32       BGLCNA   H62      HCA2     0.900000E-01   1.00800           0
     18780 LPSA17   32       BGLCNA   O6       OC311   -0.650000       15.9994           0
     18781 LPSA17   32       BGLCNA   HO6      HCP1     0.420000       1.00800           0
     18782 LPSA17   33       AGAL     C1       CC3162   0.290000       12.0110           0
     18783 LPSA17   33       AGAL     H1       HCA1     0.900000E-01   1.00800           0
     18784 LPSA17   33       AGAL     C5       CC3163   0.110000       12.0110           0
     18785 LPSA17   33       AGAL     H5       HCA1     0.900000E-01   1.00800           0
     18786 LPSA17   33       AGAL     O5       OC3C61  -0.400000       15.9994           0
     18787 LPSA17   33       AGAL     C2       CC3161   0.900000E-01   12.0110           0
     18788 LPSA17   33       AGAL     H2       HCA1     0.900000E-01   1.00800           0
     18789 LPSA17   33       AGAL     O2       OC301   -0.360000       15.9994           0
     18790 LPSA17   33       AGAL     C3       CC3161   0.140000       12.0110           0
     18791 LPSA17   33       AGAL     H3       HCA1     0.900000E-01   1.00800           0
     18792 LPSA17   33       AGAL     O3       OC311   -0.650000       15.9994           0
     18793 LPSA17   33       AGAL     HO3      HCP1     0.420000       1.00800           0
     18794 LPSA17   33       AGAL     C4       CC3161   0.140000       12.0110           0
     18795 LPSA17   33       AGAL     H4       HCA1     0.900000E-01   1.00800           0
     18796 LPSA17   33       AGAL     O4       OC311   -0.650000       15.9994           0
     18797 LPSA17   33       AGAL     HO4      HCP1     0.420000       1.00800           0
     18798 LPSA17   33       AGAL     C6       CC321    0.500000E-01   12.0110           0
     18799 LPSA17   33       AGAL     H61      HCA2     0.900000E-01   1.00800           0
     18800 LPSA17   33       AGAL     H62      HCA2     0.900000E-01   1.00800           0
     18801 LPSA17   33       AGAL     O6       OC311   -0.650000       15.9994           0
     18802 LPSA17   33       AGAL     HO6      HCP1     0.420000       1.00800           0
     18803 LPSA17   34       ARHM     C1       CC3162   0.290000       12.0110           0
     18804 LPSA17   34       ARHM     H1       HCA1     0.900000E-01   1.00800           0
     18805 LPSA17   34       ARHM     C5       CC3163   0.110000       12.0110           0
     18806 LPSA17   34       ARHM     H5       HCA1     0.900000E-01   1.00800           0
     18807 LPSA17   34       ARHM     O5       OC3C61  -0.400000       15.9994           0
     18808 LPSA17   34       ARHM     C2       CC3161   0.900000E-01   12.0110           0
     18809 LPSA17   34       ARHM     H2       HCA1     0.900000E-01   1.00800           0
     18810 LPSA17   34       ARHM     O2       OC301   -0.360000       15.9994           0
     18811 LPSA17   34       ARHM     C3       CC3161   0.140000       12.0110           0
     18812 LPSA17   34       ARHM     H3       HCA1     0.900000E-01   1.00800           0
     18813 LPSA17   34       ARHM     O3       OC311   -0.650000       15.9994           0
     18814 LPSA17   34       ARHM     HO3      HCP1     0.420000       1.00800           0
     18815 LPSA17   34       ARHM     C4       CC3161   0.140000       12.0110           0
     18816 LPSA17   34       ARHM     H4       HCA1     0.900000E-01   1.00800           0
     18817 LPSA17   34       ARHM     O4       OC311   -0.650000       15.9994           0
     18818 LPSA17   34       ARHM     HO4      HCP1     0.420000       1.00800           0
     18819 LPSA17   34       ARHM     C6       CC331   -0.270000       12.0110           0
     18820 LPSA17   34       ARHM     H61      HCA3     0.900000E-01   1.00800           0
     18821 LPSA17   34       ARHM     H62      HCA3     0.900000E-01   1.00800           0
     18822 LPSA17   34       ARHM     H63      HCA3     0.900000E-01   1.00800           0
     18823 LPSA17   35       ARHM     C1       CC3162   0.290000       12.0110           0
     18824 LPSA17   35       ARHM     H1       HCA1     0.900000E-01   1.00800           0
     18825 LPSA17   35       ARHM     C5       CC3163   0.110000       12.0110           0
     18826 LPSA17   35       ARHM     H5       HCA1     0.900000E-01   1.00800           0
     18827 LPSA17   35       ARHM     O5       OC3C61  -0.400000       15.9994           0
     18828 LPSA17   35       ARHM     C2       CC3161   0.900000E-01   12.0110           0
     18829 LPSA17   35       ARHM     H2       HCA1     0.900000E-01   1.00800           0
     18830 LPSA17   35       ARHM     O2       OC301   -0.360000       15.9994           0
     18831 LPSA17   35       ARHM     C3       CC3161   0.140000       12.0110           0
     18832 LPSA17   35       ARHM     H3       HCA1     0.900000E-01   1.00800           0
     18833 LPSA17   35       ARHM     O3       OC311   -0.650000       15.9994           0
     18834 LPSA17   35       ARHM     HO3      HCP1     0.420000       1.00800           0
     18835 LPSA17   35       ARHM     C4       CC3161   0.140000       12.0110           0
     18836 LPSA17   35       ARHM     H4       HCA1     0.900000E-01   1.00800           0
     18837 LPSA17   35       ARHM     O4       OC311   -0.650000       15.9994           0
     18838 LPSA17   35       ARHM     HO4      HCP1     0.420000       1.00800           0
     18839 LPSA17   35       ARHM     C6       CC331   -0.270000       12.0110           0
     18840 LPSA17   35       ARHM     H61      HCA3     0.900000E-01   1.00800           0
     18841 LPSA17   35       ARHM     H62      HCA3     0.900000E-01   1.00800           0
     18842 LPSA17   35       ARHM     H63      HCA3     0.900000E-01   1.00800           0
     18843 LPSA17   36       BMANNA   C1       CC3162   0.290000       12.0110           0
     18844 LPSA17   36       BMANNA   H1       HCA1     0.900000E-01   1.00800           0
     18845 LPSA17   36       BMANNA   C5       CC3163   0.110000       12.0110           0
     18846 LPSA17   36       BMANNA   H5       HCA1     0.900000E-01   1.00800           0
     18847 LPSA17   36       BMANNA   O5       OC3C61  -0.400000       15.9994           0
     18848 LPSA17   36       BMANNA   C2       CC3161   0.700000E-01   12.0110           0
     18849 LPSA17   36       BMANNA   H2       HCA1     0.900000E-01   1.00800           0
     18850 LPSA17   36       BMANNA   N        NC2D1   -0.470000       14.0070           0
     18851 LPSA17   36       BMANNA   HN       HCP1     0.310000       1.00800           0
     18852 LPSA17   36       BMANNA   C        CC2O1    0.510000       12.0110           0
     18853 LPSA17   36       BMANNA   O        OC2D1   -0.510000       15.9994           0
     18854 LPSA17   36       BMANNA   CT       CC331   -0.270000       12.0110           0
     18855 LPSA17   36       BMANNA   HT1      HCA3     0.900000E-01   1.00800           0
     18856 LPSA17   36       BMANNA   HT2      HCA3     0.900000E-01   1.00800           0
     18857 LPSA17   36       BMANNA   HT3      HCA3     0.900000E-01   1.00800           0
     18858 LPSA17   36       BMANNA   C3       CC3161   0.140000       12.0110           0
     18859 LPSA17   36       BMANNA   H3       HCA1     0.900000E-01   1.00800           0
     18860 LPSA17   36       BMANNA   O3       OC311   -0.650000       15.9994           0
     18861 LPSA17   36       BMANNA   HO3      HCP1     0.420000       1.00800           0
     18862 LPSA17   36       BMANNA   C4       CC3161   0.140000       12.0110           0
     18863 LPSA17   36       BMANNA   H4       HCA1     0.900000E-01   1.00800           0
     18864 LPSA17   36       BMANNA   O4       OC311   -0.650000       15.9994           0
     18865 LPSA17   36       BMANNA   HO4      HCP1     0.420000       1.00800           0
     18866 LPSA17   36       BMANNA   C6       CC321    0.500000E-01   12.0110           0
     18867 LPSA17   36       BMANNA   H61      HCA2     0.900000E-01   1.00800           0
     18868 LPSA17   36       BMANNA   H62      HCA2     0.900000E-01   1.00800           0
     18869 LPSA17   36       BMANNA   O6       OC311   -0.650000       15.9994           0
     18870 LPSA17   36       BMANNA   HO6      HCP1     0.420000       1.00800           0
     18871 LPSA18   1        ECLIPA   HB6S     HCA2     0.900000E-01   1.00800           0
     18872 LPSA18   1        ECLIPA   OB6      OC301   -0.360000       15.9994           0
     18873 LPSA18   1        ECLIPA   CB6      CC321     0.00000       12.0110           0
     18874 LPSA18   1        ECLIPA   HB6R     HCA2     0.900000E-01   1.00800           0
     18875 LPSA18   1        ECLIPA   CB5      CC3163   0.110000       12.0110           0
     18876 LPSA18   1        ECLIPA   OB5      OC3C61  -0.400000       15.9994           0
     18877 LPSA18   1        ECLIPA   HB5      HCA1     0.900000E-01   1.00800           0
     18878 LPSA18   1        ECLIPA   CB1      CC3162   0.290000       12.0110           0
     18879 LPSA18   1        ECLIPA   HB1      HCA1     0.900000E-01   1.00800           0
     18880 LPSA18   1        ECLIPA   OA6      OC301   -0.360000       15.9994           0
     18881 LPSA18   1        ECLIPA   CA6      CC321     0.00000       12.0110           0
     18882 LPSA18   1        ECLIPA   HA6R     HCA2     0.900000E-01   1.00800           0
     18883 LPSA18   1        ECLIPA   HA6S     HCA2     0.900000E-01   1.00800           0
     18884 LPSA18   1        ECLIPA   CB4      CC3161  -0.900000E-01   12.0110           0
     18885 LPSA18   1        ECLIPA   HB4      HCA1     0.900000E-01   1.00800           0
     18886 LPSA18   1        ECLIPA   OB4      OC30P   -0.400000       15.9994           0
     18887 LPSA18   1        ECLIPA   PB       PC        1.10000       30.9740           0
     18888 LPSA18   1        ECLIPA   OPB4     OC2DP   -0.900000       15.9994           0
     18889 LPSA18   1        ECLIPA   OPB3     OC2DP   -0.900000       15.9994           0
     18890 LPSA18   1        ECLIPA   OPB2     OC2DP   -0.900000       15.9994           0
     18891 LPSA18   1        ECLIPA   CB3      CC3161   0.170000       12.0110           0
     18892 LPSA18   1        ECLIPA   OB3      OC301   -0.490000       15.9994           0
     18893 LPSA18   1        ECLIPA   HB3      HCA1     0.900000E-01   1.00800           0
     18894 LPSA18   1        ECLIPA   C71      CL       0.900000       12.0110           0
     18895 LPSA18   1        ECLIPA   O71      OBL     -0.630000       15.9994           0
     18896 LPSA18   1        ECLIPA   C72      CTL2    -0.220000       12.0110           0
     18897 LPSA18   1        ECLIPA   H72R     HAL2     0.900000E-01   1.00800           0
     18898 LPSA18   1        ECLIPA   H72S     HAL2     0.900000E-01   1.00800           0
     18899 LPSA18   1        ECLIPA   CB2      CC3161   0.700000E-01   12.0110           0
     18900 LPSA18   1        ECLIPA   HB2      HCA1     0.900000E-01   1.00800           0
     18901 LPSA18   1        ECLIPA   NB2      NC2D1   -0.470000       14.0070           0
     18902 LPSA18   1        ECLIPA   HNB2     HCP1     0.310000       1.00800           0
     18903 LPSA18   1        ECLIPA   CA4      CC3161   0.140000       12.0110           0
     18904 LPSA18   1        ECLIPA   HA4      HCA1     0.900000E-01   1.00800           0
     18905 LPSA18   1        ECLIPA   OA4      OC311   -0.650000       15.9994           0
     18906 LPSA18   1        ECLIPA   HOA4     HCP1     0.420000       1.00800           0
     18907 LPSA18   1        ECLIPA   CA5      CC3163   0.110000       12.0110           0
     18908 LPSA18   1        ECLIPA   HA5      HCA1     0.900000E-01   1.00800           0
     18909 LPSA18   1        ECLIPA   OA5      OC3C61  -0.400000       15.9994           0
     18910 LPSA18   1        ECLIPA   CA1      CC3162   0.110000       12.0110           0
     18911 LPSA18   1        ECLIPA   HA1      HCA1     0.900000E-01   1.00800           0
     18912 LPSA18   1        ECLIPA   OA1      OC30P   -0.400000       15.9994           0
     18913 LPSA18   1        ECLIPA   OPA2     OC2DP   -0.900000       15.9994           0
     18914 LPSA18   1        ECLIPA   OPA3     OC2DP   -0.900000       15.9994           0
     18915 LPSA18   1        ECLIPA   OPA4     OC2DP   -0.900000       15.9994           0
     18916 LPSA18   1        ECLIPA   PA       PC        1.10000       30.9740           0
     18917 LPSA18   1        ECLIPA   CA3      CC3161   0.170000       12.0110           0
     18918 LPSA18   1        ECLIPA   HA3      HCA1     0.900000E-01   1.00800           0
     18919 LPSA18   1        ECLIPA   OA3      OC301   -0.490000       15.9994           0
     18920 LPSA18   1        ECLIPA   C31      CL       0.900000       12.0110           0
     18921 LPSA18   1        ECLIPA   O31      OBL     -0.630000       15.9994           0
     18922 LPSA18   1        ECLIPA   C32      CTL2    -0.220000       12.0110           0
     18923 LPSA18   1        ECLIPA   H32R     HAL2     0.900000E-01   1.00800           0
     18924 LPSA18   1        ECLIPA   H32S     HAL2     0.900000E-01   1.00800           0
     18925 LPSA18   1        ECLIPA   CA2      CC3161   0.700000E-01   12.0110           0
     18926 LPSA18   1        ECLIPA   HA2      HCA1     0.900000E-01   1.00800           0
     18927 LPSA18   1        ECLIPA   NA2      NC2D1   -0.470000       14.0070           0
     18928 LPSA18   1        ECLIPA   HNA2     HCP1     0.310000       1.00800           0
     18929 LPSA18   1        ECLIPA   C73      CTL1     0.170000       12.0110           0
     18930 LPSA18   1        ECLIPA   H73R     HAL1     0.900000E-01   1.00800           0
     18931 LPSA18   1        ECLIPA   O73      OSL     -0.490000       15.9994           0
     18932 LPSA18   1        ECLIPA   C81      CL       0.900000       12.0110           0
     18933 LPSA18   1        ECLIPA   O81      OBL     -0.630000       15.9994           0
     18934 LPSA18   1        ECLIPA   C82      CTL2    -0.220000       12.0110           0
     18935 LPSA18   1        ECLIPA   H82R     HAL2     0.900000E-01   1.00800           0
     18936 LPSA18   1        ECLIPA   H82S     HAL2     0.900000E-01   1.00800           0
     18937 LPSA18   1        ECLIPA   C83      CTL2    -0.180000       12.0110           0
     18938 LPSA18   1        ECLIPA   H83R     HAL2     0.900000E-01   1.00800           0
     18939 LPSA18   1        ECLIPA   H83S     HAL2     0.900000E-01   1.00800           0
     18940 LPSA18   1        ECLIPA   C84      CTL2    -0.180000       12.0110           0
     18941 LPSA18   1        ECLIPA   H84R     HAL2     0.900000E-01   1.00800           0
     18942 LPSA18   1        ECLIPA   H84S     HAL2     0.900000E-01   1.00800           0
     18943 LPSA18   1        ECLIPA   C85      CTL2    -0.180000       12.0110           0
     18944 LPSA18   1        ECLIPA   H85R     HAL2     0.900000E-01   1.00800           0
     18945 LPSA18   1        ECLIPA   H85S     HAL2     0.900000E-01   1.00800           0
     18946 LPSA18   1        ECLIPA   C86      CTL2    -0.180000       12.0110           0
     18947 LPSA18   1        ECLIPA   H86R     HAL2     0.900000E-01   1.00800           0
     18948 LPSA18   1        ECLIPA   H86S     HAL2     0.900000E-01   1.00800           0
     18949 LPSA18   1        ECLIPA   C87      CTL2    -0.180000       12.0110           0
     18950 LPSA18   1        ECLIPA   H87R     HAL2     0.900000E-01   1.00800           0
     18951 LPSA18   1        ECLIPA   H87S     HAL2     0.900000E-01   1.00800           0
     18952 LPSA18   1        ECLIPA   C88      CTL2    -0.180000       12.0110           0
     18953 LPSA18   1        ECLIPA   H88R     HAL2     0.900000E-01   1.00800           0
     18954 LPSA18   1        ECLIPA   H88S     HAL2     0.900000E-01   1.00800           0
     18955 LPSA18   1        ECLIPA   C89      CTL2    -0.180000       12.0110           0
     18956 LPSA18   1        ECLIPA   H89R     HAL2     0.900000E-01   1.00800           0
     18957 LPSA18   1        ECLIPA   H89S     HAL2     0.900000E-01   1.00800           0
     18958 LPSA18   1        ECLIPA   C810     CTL2    -0.180000       12.0110           0
     18959 LPSA18   1        ECLIPA   H810R    HAL2     0.900000E-01   1.00800           0
     18960 LPSA18   1        ECLIPA   H810S    HAL2     0.900000E-01   1.00800           0
     18961 LPSA18   1        ECLIPA   C811     CTL2    -0.180000       12.0110           0
     18962 LPSA18   1        ECLIPA   H811R    HAL2     0.900000E-01   1.00800           0
     18963 LPSA18   1        ECLIPA   H811S    HAL2     0.900000E-01   1.00800           0
     18964 LPSA18   1        ECLIPA   C812     CTL2    -0.180000       12.0110           0
     18965 LPSA18   1        ECLIPA   H812R    HAL2     0.900000E-01   1.00800           0
     18966 LPSA18   1        ECLIPA   H812S    HAL2     0.900000E-01   1.00800           0
     18967 LPSA18   1        ECLIPA   C813     CTL2    -0.180000       12.0110           0
     18968 LPSA18   1        ECLIPA   H813R    HAL2     0.900000E-01   1.00800           0
     18969 LPSA18   1        ECLIPA   H813S    HAL2     0.900000E-01   1.00800           0
     18970 LPSA18   1        ECLIPA   C814     CTL3    -0.270000       12.0110           0
     18971 LPSA18   1        ECLIPA   H814R    HAL3     0.900000E-01   1.00800           0
     18972 LPSA18   1        ECLIPA   H814S    HAL3     0.900000E-01   1.00800           0
     18973 LPSA18   1        ECLIPA   H814T    HAL3     0.900000E-01   1.00800           0
     18974 LPSA18   1        ECLIPA   C74      CTL2    -0.180000       12.0110           0
     18975 LPSA18   1        ECLIPA   H74R     HAL2     0.900000E-01   1.00800           0
     18976 LPSA18   1        ECLIPA   H74S     HAL2     0.900000E-01   1.00800           0
     18977 LPSA18   1        ECLIPA   C75      CTL2    -0.180000       12.0110           0
     18978 LPSA18   1        ECLIPA   H75R     HAL2     0.900000E-01   1.00800           0
     18979 LPSA18   1        ECLIPA   H75S     HAL2     0.900000E-01   1.00800           0
     18980 LPSA18   1        ECLIPA   C76      CTL2    -0.180000       12.0110           0
     18981 LPSA18   1        ECLIPA   H76R     HAL2     0.900000E-01   1.00800           0
     18982 LPSA18   1        ECLIPA   H76S     HAL2     0.900000E-01   1.00800           0
     18983 LPSA18   1        ECLIPA   C77      CTL2    -0.180000       12.0110           0
     18984 LPSA18   1        ECLIPA   H77R     HAL2     0.900000E-01   1.00800           0
     18985 LPSA18   1        ECLIPA   H77S     HAL2     0.900000E-01   1.00800           0
     18986 LPSA18   1        ECLIPA   C78      CTL2    -0.180000       12.0110           0
     18987 LPSA18   1        ECLIPA   H78R     HAL2     0.900000E-01   1.00800           0
     18988 LPSA18   1        ECLIPA   H78S     HAL2     0.900000E-01   1.00800           0
     18989 LPSA18   1        ECLIPA   C79      CTL2    -0.180000       12.0110           0
     18990 LPSA18   1        ECLIPA   H79R     HAL2     0.900000E-01   1.00800           0
     18991 LPSA18   1        ECLIPA   H79S     HAL2     0.900000E-01   1.00800           0
     18992 LPSA18   1        ECLIPA   C710     CTL2    -0.180000       12.0110           0
     18993 LPSA18   1        ECLIPA   H710R    HAL2     0.900000E-01   1.00800           0
     18994 LPSA18   1        ECLIPA   H710S    HAL2     0.900000E-01   1.00800           0
     18995 LPSA18   1        ECLIPA   C711     CTL2    -0.180000       12.0110           0
     18996 LPSA18   1        ECLIPA   H711R    HAL2     0.900000E-01   1.00800           0
     18997 LPSA18   1        ECLIPA   H711S    HAL2     0.900000E-01   1.00800           0
     18998 LPSA18   1        ECLIPA   C712     CTL2    -0.180000       12.0110           0
     18999 LPSA18   1        ECLIPA   H712R    HAL2     0.900000E-01   1.00800           0
     19000 LPSA18   1        ECLIPA   H712S    HAL2     0.900000E-01   1.00800           0
     19001 LPSA18   1        ECLIPA   C713     CTL2    -0.180000       12.0110           0
     19002 LPSA18   1        ECLIPA   H713R    HAL2     0.900000E-01   1.00800           0
     19003 LPSA18   1        ECLIPA   H713S    HAL2     0.900000E-01   1.00800           0
     19004 LPSA18   1        ECLIPA   C714     CTL3    -0.270000       12.0110           0
     19005 LPSA18   1        ECLIPA   H714R    HAL3     0.900000E-01   1.00800           0
     19006 LPSA18   1        ECLIPA   H714S    HAL3     0.900000E-01   1.00800           0
     19007 LPSA18   1        ECLIPA   H714T    HAL3     0.900000E-01   1.00800           0
     19008 LPSA18   1        ECLIPA   C51      CC2O1    0.550000       12.0110           0
     19009 LPSA18   1        ECLIPA   O51      OC2D1   -0.550000       15.9994           0
     19010 LPSA18   1        ECLIPA   C52      CTL2    -0.180000       12.0110           0
     19011 LPSA18   1        ECLIPA   H52R     HAL2     0.900000E-01   1.00800           0
     19012 LPSA18   1        ECLIPA   H52S     HAL2     0.900000E-01   1.00800           0
     19013 LPSA18   1        ECLIPA   C53      CTL1     0.170000       12.0110           0
     19014 LPSA18   1        ECLIPA   H53R     HAL1     0.900000E-01   1.00800           0
     19015 LPSA18   1        ECLIPA   O53      OSL     -0.490000       15.9994           0
     19016 LPSA18   1        ECLIPA   C61      CL       0.900000       12.0110           0
     19017 LPSA18   1        ECLIPA   O61      OBL     -0.630000       15.9994           0
     19018 LPSA18   1        ECLIPA   C62      CTL2    -0.220000       12.0110           0
     19019 LPSA18   1        ECLIPA   H62R     HAL2     0.900000E-01   1.00800           0
     19020 LPSA18   1        ECLIPA   H62S     HAL2     0.900000E-01   1.00800           0
     19021 LPSA18   1        ECLIPA   C63      CTL2    -0.180000       12.0110           0
     19022 LPSA18   1        ECLIPA   H63R     HAL2     0.900000E-01   1.00800           0
     19023 LPSA18   1        ECLIPA   H63S     HAL2     0.900000E-01   1.00800           0
     19024 LPSA18   1        ECLIPA   C64      CTL2    -0.180000       12.0110           0
     19025 LPSA18   1        ECLIPA   H64R     HAL2     0.900000E-01   1.00800           0
     19026 LPSA18   1        ECLIPA   H64S     HAL2     0.900000E-01   1.00800           0
     19027 LPSA18   1        ECLIPA   C65      CTL2    -0.180000       12.0110           0
     19028 LPSA18   1        ECLIPA   H65R     HAL2     0.900000E-01   1.00800           0
     19029 LPSA18   1        ECLIPA   H65S     HAL2     0.900000E-01   1.00800           0
     19030 LPSA18   1        ECLIPA   C66      CTL2    -0.180000       12.0110           0
     19031 LPSA18   1        ECLIPA   H66R     HAL2     0.900000E-01   1.00800           0
     19032 LPSA18   1        ECLIPA   H66S     HAL2     0.900000E-01   1.00800           0
     19033 LPSA18   1        ECLIPA   C67      CTL2    -0.180000       12.0110           0
     19034 LPSA18   1        ECLIPA   H67R     HAL2     0.900000E-01   1.00800           0
     19035 LPSA18   1        ECLIPA   H67S     HAL2     0.900000E-01   1.00800           0
     19036 LPSA18   1        ECLIPA   C68      CTL2    -0.180000       12.0110           0
     19037 LPSA18   1        ECLIPA   H68R     HAL2     0.900000E-01   1.00800           0
     19038 LPSA18   1        ECLIPA   H68S     HAL2     0.900000E-01   1.00800           0
     19039 LPSA18   1        ECLIPA   C69      CTL2    -0.180000       12.0110           0
     19040 LPSA18   1        ECLIPA   H69R     HAL2     0.900000E-01   1.00800           0
     19041 LPSA18   1        ECLIPA   H69S     HAL2     0.900000E-01   1.00800           0
     19042 LPSA18   1        ECLIPA   C610     CTL2    -0.180000       12.0110           0
     19043 LPSA18   1        ECLIPA   H610R    HAL2     0.900000E-01   1.00800           0
     19044 LPSA18   1        ECLIPA   H610S    HAL2     0.900000E-01   1.00800           0
     19045 LPSA18   1        ECLIPA   C611     CTL2    -0.180000       12.0110           0
     19046 LPSA18   1        ECLIPA   H611R    HAL2     0.900000E-01   1.00800           0
     19047 LPSA18   1        ECLIPA   H611S    HAL2     0.900000E-01   1.00800           0
     19048 LPSA18   1        ECLIPA   C612     CTL3    -0.270000       12.0110           0
     19049 LPSA18   1        ECLIPA   H612R    HAL3     0.900000E-01   1.00800           0
     19050 LPSA18   1        ECLIPA   H612S    HAL3     0.900000E-01   1.00800           0
     19051 LPSA18   1        ECLIPA   H612T    HAL3     0.900000E-01   1.00800           0
     19052 LPSA18   1        ECLIPA   C54      CTL2    -0.180000       12.0110           0
     19053 LPSA18   1        ECLIPA   H54R     HAL2     0.900000E-01   1.00800           0
     19054 LPSA18   1        ECLIPA   H54S     HAL2     0.900000E-01   1.00800           0
     19055 LPSA18   1        ECLIPA   C55      CTL2    -0.180000       12.0110           0
     19056 LPSA18   1        ECLIPA   H55R     HAL2     0.900000E-01   1.00800           0
     19057 LPSA18   1        ECLIPA   H55S     HAL2     0.900000E-01   1.00800           0
     19058 LPSA18   1        ECLIPA   C56      CTL2    -0.180000       12.0110           0
     19059 LPSA18   1        ECLIPA   H56R     HAL2     0.900000E-01   1.00800           0
     19060 LPSA18   1        ECLIPA   H56S     HAL2     0.900000E-01   1.00800           0
     19061 LPSA18   1        ECLIPA   C57      CTL2    -0.180000       12.0110           0
     19062 LPSA18   1        ECLIPA   H57R     HAL2     0.900000E-01   1.00800           0
     19063 LPSA18   1        ECLIPA   H57S     HAL2     0.900000E-01   1.00800           0
     19064 LPSA18   1        ECLIPA   C58      CTL2    -0.180000       12.0110           0
     19065 LPSA18   1        ECLIPA   H58R     HAL2     0.900000E-01   1.00800           0
     19066 LPSA18   1        ECLIPA   H58S     HAL2     0.900000E-01   1.00800           0
     19067 LPSA18   1        ECLIPA   C59      CTL2    -0.180000       12.0110           0
     19068 LPSA18   1        ECLIPA   H59R     HAL2     0.900000E-01   1.00800           0
     19069 LPSA18   1        ECLIPA   H59S     HAL2     0.900000E-01   1.00800           0
     19070 LPSA18   1        ECLIPA   C510     CTL2    -0.180000       12.0110           0
     19071 LPSA18   1        ECLIPA   H510R    HAL2     0.900000E-01   1.00800           0
     19072 LPSA18   1        ECLIPA   H510S    HAL2     0.900000E-01   1.00800           0
     19073 LPSA18   1        ECLIPA   C511     CTL2    -0.180000       12.0110           0
     19074 LPSA18   1        ECLIPA   H511R    HAL2     0.900000E-01   1.00800           0
     19075 LPSA18   1        ECLIPA   H511S    HAL2     0.900000E-01   1.00800           0
     19076 LPSA18   1        ECLIPA   C512     CTL2    -0.180000       12.0110           0
     19077 LPSA18   1        ECLIPA   H512R    HAL2     0.900000E-01   1.00800           0
     19078 LPSA18   1        ECLIPA   H512S    HAL2     0.900000E-01   1.00800           0
     19079 LPSA18   1        ECLIPA   C513     CTL2    -0.180000       12.0110           0
     19080 LPSA18   1        ECLIPA   H513R    HAL2     0.900000E-01   1.00800           0
     19081 LPSA18   1        ECLIPA   H513S    HAL2     0.900000E-01   1.00800           0
     19082 LPSA18   1        ECLIPA   C514     CTL3    -0.270000       12.0110           0
     19083 LPSA18   1        ECLIPA   H514R    HAL3     0.900000E-01   1.00800           0
     19084 LPSA18   1        ECLIPA   H514S    HAL3     0.900000E-01   1.00800           0
     19085 LPSA18   1        ECLIPA   H514T    HAL3     0.900000E-01   1.00800           0
     19086 LPSA18   1        ECLIPA   C33      CTL1     0.140000       12.0110           0
     19087 LPSA18   1        ECLIPA   H33R     HAL1     0.900000E-01   1.00800           0
     19088 LPSA18   1        ECLIPA   O33      OH1     -0.660000       15.9994           0
     19089 LPSA18   1        ECLIPA   HO33     H        0.430000       1.00800           0
     19090 LPSA18   1        ECLIPA   C34      CTL2    -0.180000       12.0110           0
     19091 LPSA18   1        ECLIPA   H34R     HAL2     0.900000E-01   1.00800           0
     19092 LPSA18   1        ECLIPA   H34S     HAL2     0.900000E-01   1.00800           0
     19093 LPSA18   1        ECLIPA   C35      CTL2    -0.180000       12.0110           0
     19094 LPSA18   1        ECLIPA   H35R     HAL2     0.900000E-01   1.00800           0
     19095 LPSA18   1        ECLIPA   H35S     HAL2     0.900000E-01   1.00800           0
     19096 LPSA18   1        ECLIPA   C36      CTL2    -0.180000       12.0110           0
     19097 LPSA18   1        ECLIPA   H36R     HAL2     0.900000E-01   1.00800           0
     19098 LPSA18   1        ECLIPA   H36S     HAL2     0.900000E-01   1.00800           0
     19099 LPSA18   1        ECLIPA   C37      CTL2    -0.180000       12.0110           0
     19100 LPSA18   1        ECLIPA   H37R     HAL2     0.900000E-01   1.00800           0
     19101 LPSA18   1        ECLIPA   H37S     HAL2     0.900000E-01   1.00800           0
     19102 LPSA18   1        ECLIPA   C38      CTL2    -0.180000       12.0110           0
     19103 LPSA18   1        ECLIPA   H38R     HAL2     0.900000E-01   1.00800           0
     19104 LPSA18   1        ECLIPA   H38S     HAL2     0.900000E-01   1.00800           0
     19105 LPSA18   1        ECLIPA   C39      CTL2    -0.180000       12.0110           0
     19106 LPSA18   1        ECLIPA   H39R     HAL2     0.900000E-01   1.00800           0
     19107 LPSA18   1        ECLIPA   H39S     HAL2     0.900000E-01   1.00800           0
     19108 LPSA18   1        ECLIPA   C310     CTL2    -0.180000       12.0110           0
     19109 LPSA18   1        ECLIPA   H310R    HAL2     0.900000E-01   1.00800           0
     19110 LPSA18   1        ECLIPA   H310S    HAL2     0.900000E-01   1.00800           0
     19111 LPSA18   1        ECLIPA   C311     CTL2    -0.180000       12.0110           0
     19112 LPSA18   1        ECLIPA   H311R    HAL2     0.900000E-01   1.00800           0
     19113 LPSA18   1        ECLIPA   H311S    HAL2     0.900000E-01   1.00800           0
     19114 LPSA18   1        ECLIPA   C312     CTL2    -0.180000       12.0110           0
     19115 LPSA18   1        ECLIPA   H312R    HAL2     0.900000E-01   1.00800           0
     19116 LPSA18   1        ECLIPA   H312S    HAL2     0.900000E-01   1.00800           0
     19117 LPSA18   1        ECLIPA   C313     CTL2    -0.180000       12.0110           0
     19118 LPSA18   1        ECLIPA   H313R    HAL2     0.900000E-01   1.00800           0
     19119 LPSA18   1        ECLIPA   H313S    HAL2     0.900000E-01   1.00800           0
     19120 LPSA18   1        ECLIPA   C314     CTL3    -0.270000       12.0110           0
     19121 LPSA18   1        ECLIPA   H314R    HAL3     0.900000E-01   1.00800           0
     19122 LPSA18   1        ECLIPA   H314S    HAL3     0.900000E-01   1.00800           0
     19123 LPSA18   1        ECLIPA   H314T    HAL3     0.900000E-01   1.00800           0
     19124 LPSA18   1        ECLIPA   C11      CC2O1    0.550000       12.0110           0
     19125 LPSA18   1        ECLIPA   O11      OC2D1   -0.550000       15.9994           0
     19126 LPSA18   1        ECLIPA   C12      CTL2    -0.180000       12.0110           0
     19127 LPSA18   1        ECLIPA   H12R     HAL2     0.900000E-01   1.00800           0
     19128 LPSA18   1        ECLIPA   H12S     HAL2     0.900000E-01   1.00800           0
     19129 LPSA18   1        ECLIPA   C13      CTL1     0.140000       12.0110           0
     19130 LPSA18   1        ECLIPA   H13R     HAL1     0.900000E-01   1.00800           0
     19131 LPSA18   1        ECLIPA   O13      OH1     -0.660000       15.9994           0
     19132 LPSA18   1        ECLIPA   HO13     H        0.430000       1.00800           0
     19133 LPSA18   1        ECLIPA   C14      CTL2    -0.180000       12.0110           0
     19134 LPSA18   1        ECLIPA   H14R     HAL2     0.900000E-01   1.00800           0
     19135 LPSA18   1        ECLIPA   H14S     HAL2     0.900000E-01   1.00800           0
     19136 LPSA18   1        ECLIPA   C15      CTL2    -0.180000       12.0110           0
     19137 LPSA18   1        ECLIPA   H15R     HAL2     0.900000E-01   1.00800           0
     19138 LPSA18   1        ECLIPA   H15S     HAL2     0.900000E-01   1.00800           0
     19139 LPSA18   1        ECLIPA   C16      CTL2    -0.180000       12.0110           0
     19140 LPSA18   1        ECLIPA   H16R     HAL2     0.900000E-01   1.00800           0
     19141 LPSA18   1        ECLIPA   H16S     HAL2     0.900000E-01   1.00800           0
     19142 LPSA18   1        ECLIPA   C17      CTL2    -0.180000       12.0110           0
     19143 LPSA18   1        ECLIPA   H17R     HAL2     0.900000E-01   1.00800           0
     19144 LPSA18   1        ECLIPA   H17S     HAL2     0.900000E-01   1.00800           0
     19145 LPSA18   1        ECLIPA   C18      CTL2    -0.180000       12.0110           0
     19146 LPSA18   1        ECLIPA   H18R     HAL2     0.900000E-01   1.00800           0
     19147 LPSA18   1        ECLIPA   H18S     HAL2     0.900000E-01   1.00800           0
     19148 LPSA18   1        ECLIPA   C19      CTL2    -0.180000       12.0110           0
     19149 LPSA18   1        ECLIPA   H19R     HAL2     0.900000E-01   1.00800           0
     19150 LPSA18   1        ECLIPA   H19S     HAL2     0.900000E-01   1.00800           0
     19151 LPSA18   1        ECLIPA   C110     CTL2    -0.180000       12.0110           0
     19152 LPSA18   1        ECLIPA   H110R    HAL2     0.900000E-01   1.00800           0
     19153 LPSA18   1        ECLIPA   H110S    HAL2     0.900000E-01   1.00800           0
     19154 LPSA18   1        ECLIPA   C111     CTL2    -0.180000       12.0110           0
     19155 LPSA18   1        ECLIPA   H111R    HAL2     0.900000E-01   1.00800           0
     19156 LPSA18   1        ECLIPA   H111S    HAL2     0.900000E-01   1.00800           0
     19157 LPSA18   1        ECLIPA   C112     CTL2    -0.180000       12.0110           0
     19158 LPSA18   1        ECLIPA   H112R    HAL2     0.900000E-01   1.00800           0
     19159 LPSA18   1        ECLIPA   H112S    HAL2     0.900000E-01   1.00800           0
     19160 LPSA18   1        ECLIPA   C113     CTL2    -0.180000       12.0110           0
     19161 LPSA18   1        ECLIPA   H113R    HAL2     0.900000E-01   1.00800           0
     19162 LPSA18   1        ECLIPA   H113S    HAL2     0.900000E-01   1.00800           0
     19163 LPSA18   1        ECLIPA   C114     CTL3    -0.270000       12.0110           0
     19164 LPSA18   1        ECLIPA   H114R    HAL3     0.900000E-01   1.00800           0
     19165 LPSA18   1        ECLIPA   H114S    HAL3     0.900000E-01   1.00800           0
     19166 LPSA18   1        ECLIPA   H114T    HAL3     0.900000E-01   1.00800           0
     19167 LPSA18   2        AKDO     C1       CC2O2    0.300000       12.0110           0
     19168 LPSA18   2        AKDO     O11      OC2D2   -0.600000       15.9994           0
     19169 LPSA18   2        AKDO     O12      OC2D2   -0.600000       15.9994           0
     19170 LPSA18   2        AKDO     C2       CC3062   0.280000       12.0110           0
     19171 LPSA18   2        AKDO     C6       CC3163   0.110000       12.0110           0
     19172 LPSA18   2        AKDO     H6       HCA1     0.900000E-01   1.00800           0
     19173 LPSA18   2        AKDO     O6       OC3C61  -0.400000       15.9994           0
     19174 LPSA18   2        AKDO     C3       CC3261  -0.180000       12.0110           0
     19175 LPSA18   2        AKDO     H31      HCA2     0.900000E-01   1.00800           0
     19176 LPSA18   2        AKDO     H32      HCA2     0.900000E-01   1.00800           0
     19177 LPSA18   2        AKDO     C4       CC3161   0.900000E-01   12.0110           0
     19178 LPSA18   2        AKDO     H4       HCA1     0.900000E-01   1.00800           0
     19179 LPSA18   2        AKDO     O4       OC301   -0.360000       15.9994           0
     19180 LPSA18   2        AKDO     C5       CC3161   0.900000E-01   12.0110           0
     19181 LPSA18   2        AKDO     H5       HCA1     0.900000E-01   1.00800           0
     19182 LPSA18   2        AKDO     O5       OC301   -0.360000       15.9994           0
     19183 LPSA18   2        AKDO     C7       CC312    0.140000       12.0110           0
     19184 LPSA18   2        AKDO     H7       HCA1     0.900000E-01   1.00800           0
     19185 LPSA18   2        AKDO     O7       OC311   -0.650000       15.9994           0
     19186 LPSA18   2        AKDO     HO7      HCP1     0.420000       1.00800           0
     19187 LPSA18   2        AKDO     C8       CC322    0.500000E-01   12.0110           0
     19188 LPSA18   2        AKDO     H81      HCA2     0.900000E-01   1.00800           0
     19189 LPSA18   2        AKDO     H82      HCA2     0.900000E-01   1.00800           0
     19190 LPSA18   2        AKDO     O8       OC311   -0.650000       15.9994           0
     19191 LPSA18   2        AKDO     HO8      HCP1     0.420000       1.00800           0
     19192 LPSA18   3        AKDO     C1       CC2O2    0.300000       12.0110           0
     19193 LPSA18   3        AKDO     O11      OC2D2   -0.600000       15.9994           0
     19194 LPSA18   3        AKDO     O12      OC2D2   -0.600000       15.9994           0
     19195 LPSA18   3        AKDO     C2       CC3062   0.280000       12.0110           0
     19196 LPSA18   3        AKDO     C6       CC3163   0.110000       12.0110           0
     19197 LPSA18   3        AKDO     H6       HCA1     0.900000E-01   1.00800           0
     19198 LPSA18   3        AKDO     O6       OC3C61  -0.400000       15.9994           0
     19199 LPSA18   3        AKDO     C3       CC3261  -0.180000       12.0110           0
     19200 LPSA18   3        AKDO     H31      HCA2     0.900000E-01   1.00800           0
     19201 LPSA18   3        AKDO     H32      HCA2     0.900000E-01   1.00800           0
     19202 LPSA18   3        AKDO     C4       CC3161   0.140000       12.0110           0
     19203 LPSA18   3        AKDO     H4       HCA1     0.900000E-01   1.00800           0
     19204 LPSA18   3        AKDO     O4       OC311   -0.650000       15.9994           0
     19205 LPSA18   3        AKDO     HO4      HCP1     0.420000       1.00800           0
     19206 LPSA18   3        AKDO     C5       CC3161   0.140000       12.0110           0
     19207 LPSA18   3        AKDO     H5       HCA1     0.900000E-01   1.00800           0
     19208 LPSA18   3        AKDO     O5       OC311   -0.650000       15.9994           0
     19209 LPSA18   3        AKDO     HO5      HCP1     0.420000       1.00800           0
     19210 LPSA18   3        AKDO     C7       CC312    0.140000       12.0110           0
     19211 LPSA18   3        AKDO     H7       HCA1     0.900000E-01   1.00800           0
     19212 LPSA18   3        AKDO     O7       OC311   -0.650000       15.9994           0
     19213 LPSA18   3        AKDO     HO7      HCP1     0.420000       1.00800           0
     19214 LPSA18   3        AKDO     C8       CC322    0.500000E-01   12.0110           0
     19215 LPSA18   3        AKDO     H81      HCA2     0.900000E-01   1.00800           0
     19216 LPSA18   3        AKDO     H82      HCA2     0.900000E-01   1.00800           0
     19217 LPSA18   3        AKDO     O8       OC311   -0.650000       15.9994           0
     19218 LPSA18   3        AKDO     HO8      HCP1     0.420000       1.00800           0
     19219 LPSA18   4        AHEP     C1       CC3162   0.290000       12.0110           0
     19220 LPSA18   4        AHEP     H1       HCA1     0.900000E-01   1.00800           0
     19221 LPSA18   4        AHEP     C5       CC3163   0.110000       12.0110           0
     19222 LPSA18   4        AHEP     H5       HCA1     0.900000E-01   1.00800           0
     19223 LPSA18   4        AHEP     O5       OC3C61  -0.400000       15.9994           0
     19224 LPSA18   4        AHEP     C2       CC3161   0.140000       12.0110           0
     19225 LPSA18   4        AHEP     H2       HCA1     0.900000E-01   1.00800           0
     19226 LPSA18   4        AHEP     O2       OC311   -0.650000       15.9994           0
     19227 LPSA18   4        AHEP     HO2      HCP1     0.420000       1.00800           0
     19228 LPSA18   4        AHEP     C3       CC3161   0.900000E-01   12.0110           0
     19229 LPSA18   4        AHEP     H3       HCA1     0.900000E-01   1.00800           0
     19230 LPSA18   4        AHEP     O3       OC301   -0.360000       15.9994           0
     19231 LPSA18   4        AHEP     C4       CC3161  -0.900000E-01   12.0110           0
     19232 LPSA18   4        AHEP     H4       HCA1     0.900000E-01   1.00800           0
     19233 LPSA18   4        AHEP     O4       OC30P   -0.400000       15.9994           0
     19234 LPSA18   4        AHEP     P4       PC        1.10000       30.9740           0
     19235 LPSA18   4        AHEP     OP42     OC2DP   -0.900000       15.9994           0
     19236 LPSA18   4        AHEP     OP43     OC2DP   -0.900000       15.9994           0
     19237 LPSA18   4        AHEP     OP44     OC2DP   -0.900000       15.9994           0
     19238 LPSA18   4        AHEP     C6       CC312    0.140000       12.0110           0
     19239 LPSA18   4        AHEP     H6       HCA1     0.900000E-01   1.00800           0
     19240 LPSA18   4        AHEP     O6       OC311   -0.650000       15.9994           0
     19241 LPSA18   4        AHEP     HO6      HCP1     0.420000       1.00800           0
     19242 LPSA18   4        AHEP     C7       CC322    0.500000E-01   12.0110           0
     19243 LPSA18   4        AHEP     H71      HCA2     0.900000E-01   1.00800           0
     19244 LPSA18   4        AHEP     H72      HCA2     0.900000E-01   1.00800           0
     19245 LPSA18   4        AHEP     O7       OC311   -0.650000       15.9994           0
     19246 LPSA18   4        AHEP     HO7      HCP1     0.420000       1.00800           0
     19247 LPSA18   5        AHEP     C1       CC3162   0.290000       12.0110           0
     19248 LPSA18   5        AHEP     H1       HCA1     0.900000E-01   1.00800           0
     19249 LPSA18   5        AHEP     C5       CC3163   0.110000       12.0110           0
     19250 LPSA18   5        AHEP     H5       HCA1     0.900000E-01   1.00800           0
     19251 LPSA18   5        AHEP     O5       OC3C61  -0.400000       15.9994           0
     19252 LPSA18   5        AHEP     C2       CC3161   0.140000       12.0110           0
     19253 LPSA18   5        AHEP     H2       HCA1     0.900000E-01   1.00800           0
     19254 LPSA18   5        AHEP     O2       OC311   -0.650000       15.9994           0
     19255 LPSA18   5        AHEP     HO2      HCP1     0.420000       1.00800           0
     19256 LPSA18   5        AHEP     C3       CC3161   0.900000E-01   12.0110           0
     19257 LPSA18   5        AHEP     H3       HCA1     0.900000E-01   1.00800           0
     19258 LPSA18   5        AHEP     O3       OC301   -0.360000       15.9994           0
     19259 LPSA18   5        AHEP     C4       CC3161  -0.900000E-01   12.0110           0
     19260 LPSA18   5        AHEP     H4       HCA1     0.900000E-01   1.00800           0
     19261 LPSA18   5        AHEP     O4       OC30P   -0.400000       15.9994           0
     19262 LPSA18   5        AHEP     P4       PC        1.10000       30.9740           0
     19263 LPSA18   5        AHEP     OP42     OC2DP   -0.900000       15.9994           0
     19264 LPSA18   5        AHEP     OP43     OC2DP   -0.900000       15.9994           0
     19265 LPSA18   5        AHEP     OP44     OC2DP   -0.900000       15.9994           0
     19266 LPSA18   5        AHEP     C6       CC312    0.140000       12.0110           0
     19267 LPSA18   5        AHEP     H6       HCA1     0.900000E-01   1.00800           0
     19268 LPSA18   5        AHEP     O6       OC311   -0.650000       15.9994           0
     19269 LPSA18   5        AHEP     HO6      HCP1     0.420000       1.00800           0
     19270 LPSA18   5        AHEP     C7       CC322     0.00000       12.0110           0
     19271 LPSA18   5        AHEP     H71      HCA2     0.900000E-01   1.00800           0
     19272 LPSA18   5        AHEP     H72      HCA2     0.900000E-01   1.00800           0
     19273 LPSA18   5        AHEP     O7       OC301   -0.360000       15.9994           0
     19274 LPSA18   6        AHEP     C1       CC3162   0.290000       12.0110           0
     19275 LPSA18   6        AHEP     H1       HCA1     0.900000E-01   1.00800           0
     19276 LPSA18   6        AHEP     C5       CC3163   0.110000       12.0110           0
     19277 LPSA18   6        AHEP     H5       HCA1     0.900000E-01   1.00800           0
     19278 LPSA18   6        AHEP     O5       OC3C61  -0.400000       15.9994           0
     19279 LPSA18   6        AHEP     C2       CC3161   0.140000       12.0110           0
     19280 LPSA18   6        AHEP     H2       HCA1     0.900000E-01   1.00800           0
     19281 LPSA18   6        AHEP     O2       OC311   -0.650000       15.9994           0
     19282 LPSA18   6        AHEP     HO2      HCP1     0.420000       1.00800           0
     19283 LPSA18   6        AHEP     C3       CC3161   0.140000       12.0110           0
     19284 LPSA18   6        AHEP     H3       HCA1     0.900000E-01   1.00800           0
     19285 LPSA18   6        AHEP     O3       OC311   -0.650000       15.9994           0
     19286 LPSA18   6        AHEP     HO3      HCP1     0.420000       1.00800           0
     19287 LPSA18   6        AHEP     C4       CC3161   0.140000       12.0110           0
     19288 LPSA18   6        AHEP     H4       HCA1     0.900000E-01   1.00800           0
     19289 LPSA18   6        AHEP     O4       OC311   -0.650000       15.9994           0
     19290 LPSA18   6        AHEP     HO4      HCP1     0.420000       1.00800           0
     19291 LPSA18   6        AHEP     C6       CC312    0.140000       12.0110           0
     19292 LPSA18   6        AHEP     H6       HCA1     0.900000E-01   1.00800           0
     19293 LPSA18   6        AHEP     O6       OC311   -0.650000       15.9994           0
     19294 LPSA18   6        AHEP     HO6      HCP1     0.420000       1.00800           0
     19295 LPSA18   6        AHEP     C7       CC322    0.500000E-01   12.0110           0
     19296 LPSA18   6        AHEP     H71      HCA2     0.900000E-01   1.00800           0
     19297 LPSA18   6        AHEP     H72      HCA2     0.900000E-01   1.00800           0
     19298 LPSA18   6        AHEP     O7       OC311   -0.650000       15.9994           0
     19299 LPSA18   6        AHEP     HO7      HCP1     0.420000       1.00800           0
     19300 LPSA18   7        AGLC     C1       CC3162   0.290000       12.0110           0
     19301 LPSA18   7        AGLC     H1       HCA1     0.900000E-01   1.00800           0
     19302 LPSA18   7        AGLC     C5       CC3163   0.110000       12.0110           0
     19303 LPSA18   7        AGLC     H5       HCA1     0.900000E-01   1.00800           0
     19304 LPSA18   7        AGLC     O5       OC3C61  -0.400000       15.9994           0
     19305 LPSA18   7        AGLC     C2       CC3161   0.140000       12.0110           0
     19306 LPSA18   7        AGLC     H2       HCA1     0.900000E-01   1.00800           0
     19307 LPSA18   7        AGLC     O2       OC311   -0.650000       15.9994           0
     19308 LPSA18   7        AGLC     HO2      HCP1     0.420000       1.00800           0
     19309 LPSA18   7        AGLC     C3       CC3161   0.900000E-01   12.0110           0
     19310 LPSA18   7        AGLC     H3       HCA1     0.900000E-01   1.00800           0
     19311 LPSA18   7        AGLC     O3       OC301   -0.360000       15.9994           0
     19312 LPSA18   7        AGLC     C4       CC3161   0.140000       12.0110           0
     19313 LPSA18   7        AGLC     H4       HCA1     0.900000E-01   1.00800           0
     19314 LPSA18   7        AGLC     O4       OC311   -0.650000       15.9994           0
     19315 LPSA18   7        AGLC     HO4      HCP1     0.420000       1.00800           0
     19316 LPSA18   7        AGLC     C6       CC321    0.500000E-01   12.0110           0
     19317 LPSA18   7        AGLC     H61      HCA2     0.900000E-01   1.00800           0
     19318 LPSA18   7        AGLC     H62      HCA2     0.900000E-01   1.00800           0
     19319 LPSA18   7        AGLC     O6       OC311   -0.650000       15.9994           0
     19320 LPSA18   7        AGLC     HO6      HCP1     0.420000       1.00800           0
     19321 LPSA18   8        AGLC     C1       CC3162   0.290000       12.0110           0
     19322 LPSA18   8        AGLC     H1       HCA1     0.900000E-01   1.00800           0
     19323 LPSA18   8        AGLC     C5       CC3163   0.110000       12.0110           0
     19324 LPSA18   8        AGLC     H5       HCA1     0.900000E-01   1.00800           0
     19325 LPSA18   8        AGLC     O5       OC3C61  -0.400000       15.9994           0
     19326 LPSA18   8        AGLC     C2       CC3161   0.900000E-01   12.0110           0
     19327 LPSA18   8        AGLC     H2       HCA1     0.900000E-01   1.00800           0
     19328 LPSA18   8        AGLC     O2       OC301   -0.360000       15.9994           0
     19329 LPSA18   8        AGLC     C3       CC3161   0.900000E-01   12.0110           0
     19330 LPSA18   8        AGLC     H3       HCA1     0.900000E-01   1.00800           0
     19331 LPSA18   8        AGLC     O3       OC301   -0.360000       15.9994           0
     19332 LPSA18   8        AGLC     C4       CC3161   0.140000       12.0110           0
     19333 LPSA18   8        AGLC     H4       HCA1     0.900000E-01   1.00800           0
     19334 LPSA18   8        AGLC     O4       OC311   -0.650000       15.9994           0
     19335 LPSA18   8        AGLC     HO4      HCP1     0.420000       1.00800           0
     19336 LPSA18   8        AGLC     C6       CC321    0.500000E-01   12.0110           0
     19337 LPSA18   8        AGLC     H61      HCA2     0.900000E-01   1.00800           0
     19338 LPSA18   8        AGLC     H62      HCA2     0.900000E-01   1.00800           0
     19339 LPSA18   8        AGLC     O6       OC311   -0.650000       15.9994           0
     19340 LPSA18   8        AGLC     HO6      HCP1     0.420000       1.00800           0
     19341 LPSA18   9        AGAL     C1       CC3162   0.290000       12.0110           0
     19342 LPSA18   9        AGAL     H1       HCA1     0.900000E-01   1.00800           0
     19343 LPSA18   9        AGAL     C5       CC3163   0.110000       12.0110           0
     19344 LPSA18   9        AGAL     H5       HCA1     0.900000E-01   1.00800           0
     19345 LPSA18   9        AGAL     O5       OC3C61  -0.400000       15.9994           0
     19346 LPSA18   9        AGAL     C2       CC3161   0.900000E-01   12.0110           0
     19347 LPSA18   9        AGAL     H2       HCA1     0.900000E-01   1.00800           0
     19348 LPSA18   9        AGAL     O2       OC301   -0.360000       15.9994           0
     19349 LPSA18   9        AGAL     C3       CC3161   0.140000       12.0110           0
     19350 LPSA18   9        AGAL     H3       HCA1     0.900000E-01   1.00800           0
     19351 LPSA18   9        AGAL     O3       OC311   -0.650000       15.9994           0
     19352 LPSA18   9        AGAL     HO3      HCP1     0.420000       1.00800           0
     19353 LPSA18   9        AGAL     C4       CC3161   0.140000       12.0110           0
     19354 LPSA18   9        AGAL     H4       HCA1     0.900000E-01   1.00800           0
     19355 LPSA18   9        AGAL     O4       OC311   -0.650000       15.9994           0
     19356 LPSA18   9        AGAL     HO4      HCP1     0.420000       1.00800           0
     19357 LPSA18   9        AGAL     C6       CC321    0.500000E-01   12.0110           0
     19358 LPSA18   9        AGAL     H61      HCA2     0.900000E-01   1.00800           0
     19359 LPSA18   9        AGAL     H62      HCA2     0.900000E-01   1.00800           0
     19360 LPSA18   9        AGAL     O6       OC311   -0.650000       15.9994           0
     19361 LPSA18   9        AGAL     HO6      HCP1     0.420000       1.00800           0
     19362 LPSA18   10       AGAL     C1       CC3162   0.290000       12.0110           0
     19363 LPSA18   10       AGAL     H1       HCA1     0.900000E-01   1.00800           0
     19364 LPSA18   10       AGAL     C5       CC3163   0.110000       12.0110           0
     19365 LPSA18   10       AGAL     H5       HCA1     0.900000E-01   1.00800           0
     19366 LPSA18   10       AGAL     O5       OC3C61  -0.400000       15.9994           0
     19367 LPSA18   10       AGAL     C2       CC3161   0.140000       12.0110           0
     19368 LPSA18   10       AGAL     H2       HCA1     0.900000E-01   1.00800           0
     19369 LPSA18   10       AGAL     O2       OC311   -0.650000       15.9994           0
     19370 LPSA18   10       AGAL     HO2      HCP1     0.420000       1.00800           0
     19371 LPSA18   10       AGAL     C3       CC3161   0.140000       12.0110           0
     19372 LPSA18   10       AGAL     H3       HCA1     0.900000E-01   1.00800           0
     19373 LPSA18   10       AGAL     O3       OC311   -0.650000       15.9994           0
     19374 LPSA18   10       AGAL     HO3      HCP1     0.420000       1.00800           0
     19375 LPSA18   10       AGAL     C4       CC3161   0.140000       12.0110           0
     19376 LPSA18   10       AGAL     H4       HCA1     0.900000E-01   1.00800           0
     19377 LPSA18   10       AGAL     O4       OC311   -0.650000       15.9994           0
     19378 LPSA18   10       AGAL     HO4      HCP1     0.420000       1.00800           0
     19379 LPSA18   10       AGAL     C6       CC321    0.500000E-01   12.0110           0
     19380 LPSA18   10       AGAL     H61      HCA2     0.900000E-01   1.00800           0
     19381 LPSA18   10       AGAL     H62      HCA2     0.900000E-01   1.00800           0
     19382 LPSA18   10       AGAL     O6       OC311   -0.650000       15.9994           0
     19383 LPSA18   10       AGAL     HO6      HCP1     0.420000       1.00800           0
     19384 LPSA18   11       BGLC     C1       CC3162   0.290000       12.0110           0
     19385 LPSA18   11       BGLC     H1       HCA1     0.900000E-01   1.00800           0
     19386 LPSA18   11       BGLC     C5       CC3163   0.110000       12.0110           0
     19387 LPSA18   11       BGLC     H5       HCA1     0.900000E-01   1.00800           0
     19388 LPSA18   11       BGLC     O5       OC3C61  -0.400000       15.9994           0
     19389 LPSA18   11       BGLC     C2       CC3161   0.140000       12.0110           0
     19390 LPSA18   11       BGLC     H2       HCA1     0.900000E-01   1.00800           0
     19391 LPSA18   11       BGLC     O2       OC311   -0.650000       15.9994           0
     19392 LPSA18   11       BGLC     HO2      HCP1     0.420000       1.00800           0
     19393 LPSA18   11       BGLC     C3       CC3161   0.900000E-01   12.0110           0
     19394 LPSA18   11       BGLC     H3       HCA1     0.900000E-01   1.00800           0
     19395 LPSA18   11       BGLC     O3       OC301   -0.360000       15.9994           0
     19396 LPSA18   11       BGLC     C4       CC3161   0.140000       12.0110           0
     19397 LPSA18   11       BGLC     H4       HCA1     0.900000E-01   1.00800           0
     19398 LPSA18   11       BGLC     O4       OC311   -0.650000       15.9994           0
     19399 LPSA18   11       BGLC     HO4      HCP1     0.420000       1.00800           0
     19400 LPSA18   11       BGLC     C6       CC321    0.500000E-01   12.0110           0
     19401 LPSA18   11       BGLC     H61      HCA2     0.900000E-01   1.00800           0
     19402 LPSA18   11       BGLC     H62      HCA2     0.900000E-01   1.00800           0
     19403 LPSA18   11       BGLC     O6       OC311   -0.650000       15.9994           0
     19404 LPSA18   11       BGLC     HO6      HCP1     0.420000       1.00800           0
     19405 LPSA18   12       BGLCNA   C1       CC3162   0.290000       12.0110           0
     19406 LPSA18   12       BGLCNA   H1       HCA1     0.900000E-01   1.00800           0
     19407 LPSA18   12       BGLCNA   C5       CC3163   0.110000       12.0110           0
     19408 LPSA18   12       BGLCNA   H5       HCA1     0.900000E-01   1.00800           0
     19409 LPSA18   12       BGLCNA   O5       OC3C61  -0.400000       15.9994           0
     19410 LPSA18   12       BGLCNA   C2       CC3161   0.700000E-01   12.0110           0
     19411 LPSA18   12       BGLCNA   H2       HCA1     0.900000E-01   1.00800           0
     19412 LPSA18   12       BGLCNA   N        NC2D1   -0.470000       14.0070           0
     19413 LPSA18   12       BGLCNA   HN       HCP1     0.310000       1.00800           0
     19414 LPSA18   12       BGLCNA   C        CC2O1    0.510000       12.0110           0
     19415 LPSA18   12       BGLCNA   O        OC2D1   -0.510000       15.9994           0
     19416 LPSA18   12       BGLCNA   CT       CC331   -0.270000       12.0110           0
     19417 LPSA18   12       BGLCNA   HT1      HCA3     0.900000E-01   1.00800           0
     19418 LPSA18   12       BGLCNA   HT2      HCA3     0.900000E-01   1.00800           0
     19419 LPSA18   12       BGLCNA   HT3      HCA3     0.900000E-01   1.00800           0
     19420 LPSA18   12       BGLCNA   C3       CC3161   0.900000E-01   12.0110           0
     19421 LPSA18   12       BGLCNA   H3       HCA1     0.900000E-01   1.00800           0
     19422 LPSA18   12       BGLCNA   O3       OC301   -0.360000       15.9994           0
     19423 LPSA18   12       BGLCNA   C4       CC3161   0.140000       12.0110           0
     19424 LPSA18   12       BGLCNA   H4       HCA1     0.900000E-01   1.00800           0
     19425 LPSA18   12       BGLCNA   O4       OC311   -0.650000       15.9994           0
     19426 LPSA18   12       BGLCNA   HO4      HCP1     0.420000       1.00800           0
     19427 LPSA18   12       BGLCNA   C6       CC321    0.500000E-01   12.0110           0
     19428 LPSA18   12       BGLCNA   H61      HCA2     0.900000E-01   1.00800           0
     19429 LPSA18   12       BGLCNA   H62      HCA2     0.900000E-01   1.00800           0
     19430 LPSA18   12       BGLCNA   O6       OC311   -0.650000       15.9994           0
     19431 LPSA18   12       BGLCNA   HO6      HCP1     0.420000       1.00800           0
     19432 LPSA18   13       AGAL     C1       CC3162   0.290000       12.0110           0
     19433 LPSA18   13       AGAL     H1       HCA1     0.900000E-01   1.00800           0
     19434 LPSA18   13       AGAL     C5       CC3163   0.110000       12.0110           0
     19435 LPSA18   13       AGAL     H5       HCA1     0.900000E-01   1.00800           0
     19436 LPSA18   13       AGAL     O5       OC3C61  -0.400000       15.9994           0
     19437 LPSA18   13       AGAL     C2       CC3161   0.900000E-01   12.0110           0
     19438 LPSA18   13       AGAL     H2       HCA1     0.900000E-01   1.00800           0
     19439 LPSA18   13       AGAL     O2       OC301   -0.360000       15.9994           0
     19440 LPSA18   13       AGAL     C3       CC3161   0.140000       12.0110           0
     19441 LPSA18   13       AGAL     H3       HCA1     0.900000E-01   1.00800           0
     19442 LPSA18   13       AGAL     O3       OC311   -0.650000       15.9994           0
     19443 LPSA18   13       AGAL     HO3      HCP1     0.420000       1.00800           0
     19444 LPSA18   13       AGAL     C4       CC3161   0.140000       12.0110           0
     19445 LPSA18   13       AGAL     H4       HCA1     0.900000E-01   1.00800           0
     19446 LPSA18   13       AGAL     O4       OC311   -0.650000       15.9994           0
     19447 LPSA18   13       AGAL     HO4      HCP1     0.420000       1.00800           0
     19448 LPSA18   13       AGAL     C6       CC321    0.500000E-01   12.0110           0
     19449 LPSA18   13       AGAL     H61      HCA2     0.900000E-01   1.00800           0
     19450 LPSA18   13       AGAL     H62      HCA2     0.900000E-01   1.00800           0
     19451 LPSA18   13       AGAL     O6       OC311   -0.650000       15.9994           0
     19452 LPSA18   13       AGAL     HO6      HCP1     0.420000       1.00800           0
     19453 LPSA18   14       ARHM     C1       CC3162   0.290000       12.0110           0
     19454 LPSA18   14       ARHM     H1       HCA1     0.900000E-01   1.00800           0
     19455 LPSA18   14       ARHM     C5       CC3163   0.110000       12.0110           0
     19456 LPSA18   14       ARHM     H5       HCA1     0.900000E-01   1.00800           0
     19457 LPSA18   14       ARHM     O5       OC3C61  -0.400000       15.9994           0
     19458 LPSA18   14       ARHM     C2       CC3161   0.900000E-01   12.0110           0
     19459 LPSA18   14       ARHM     H2       HCA1     0.900000E-01   1.00800           0
     19460 LPSA18   14       ARHM     O2       OC301   -0.360000       15.9994           0
     19461 LPSA18   14       ARHM     C3       CC3161   0.140000       12.0110           0
     19462 LPSA18   14       ARHM     H3       HCA1     0.900000E-01   1.00800           0
     19463 LPSA18   14       ARHM     O3       OC311   -0.650000       15.9994           0
     19464 LPSA18   14       ARHM     HO3      HCP1     0.420000       1.00800           0
     19465 LPSA18   14       ARHM     C4       CC3161   0.140000       12.0110           0
     19466 LPSA18   14       ARHM     H4       HCA1     0.900000E-01   1.00800           0
     19467 LPSA18   14       ARHM     O4       OC311   -0.650000       15.9994           0
     19468 LPSA18   14       ARHM     HO4      HCP1     0.420000       1.00800           0
     19469 LPSA18   14       ARHM     C6       CC331   -0.270000       12.0110           0
     19470 LPSA18   14       ARHM     H61      HCA3     0.900000E-01   1.00800           0
     19471 LPSA18   14       ARHM     H62      HCA3     0.900000E-01   1.00800           0
     19472 LPSA18   14       ARHM     H63      HCA3     0.900000E-01   1.00800           0
     19473 LPSA18   15       ARHM     C1       CC3162   0.290000       12.0110           0
     19474 LPSA18   15       ARHM     H1       HCA1     0.900000E-01   1.00800           0
     19475 LPSA18   15       ARHM     C5       CC3163   0.110000       12.0110           0
     19476 LPSA18   15       ARHM     H5       HCA1     0.900000E-01   1.00800           0
     19477 LPSA18   15       ARHM     O5       OC3C61  -0.400000       15.9994           0
     19478 LPSA18   15       ARHM     C2       CC3161   0.900000E-01   12.0110           0
     19479 LPSA18   15       ARHM     H2       HCA1     0.900000E-01   1.00800           0
     19480 LPSA18   15       ARHM     O2       OC301   -0.360000       15.9994           0
     19481 LPSA18   15       ARHM     C3       CC3161   0.900000E-01   12.0110           0
     19482 LPSA18   15       ARHM     H3       HCA1     0.900000E-01   1.00800           0
     19483 LPSA18   15       ARHM     O3       OC301   -0.360000       15.9994           0
     19484 LPSA18   15       ARHM     C4       CC3161   0.140000       12.0110           0
     19485 LPSA18   15       ARHM     H4       HCA1     0.900000E-01   1.00800           0
     19486 LPSA18   15       ARHM     O4       OC311   -0.650000       15.9994           0
     19487 LPSA18   15       ARHM     HO4      HCP1     0.420000       1.00800           0
     19488 LPSA18   15       ARHM     C6       CC331   -0.270000       12.0110           0
     19489 LPSA18   15       ARHM     H61      HCA3     0.900000E-01   1.00800           0
     19490 LPSA18   15       ARHM     H62      HCA3     0.900000E-01   1.00800           0
     19491 LPSA18   15       ARHM     H63      HCA3     0.900000E-01   1.00800           0
     19492 LPSA18   16       BMANNA   C1       CC3162   0.290000       12.0110           0
     19493 LPSA18   16       BMANNA   H1       HCA1     0.900000E-01   1.00800           0
     19494 LPSA18   16       BMANNA   C5       CC3163   0.110000       12.0110           0
     19495 LPSA18   16       BMANNA   H5       HCA1     0.900000E-01   1.00800           0
     19496 LPSA18   16       BMANNA   O5       OC3C61  -0.400000       15.9994           0
     19497 LPSA18   16       BMANNA   C2       CC3161   0.700000E-01   12.0110           0
     19498 LPSA18   16       BMANNA   H2       HCA1     0.900000E-01   1.00800           0
     19499 LPSA18   16       BMANNA   N        NC2D1   -0.470000       14.0070           0
     19500 LPSA18   16       BMANNA   HN       HCP1     0.310000       1.00800           0
     19501 LPSA18   16       BMANNA   C        CC2O1    0.510000       12.0110           0
     19502 LPSA18   16       BMANNA   O        OC2D1   -0.510000       15.9994           0
     19503 LPSA18   16       BMANNA   CT       CC331   -0.270000       12.0110           0
     19504 LPSA18   16       BMANNA   HT1      HCA3     0.900000E-01   1.00800           0
     19505 LPSA18   16       BMANNA   HT2      HCA3     0.900000E-01   1.00800           0
     19506 LPSA18   16       BMANNA   HT3      HCA3     0.900000E-01   1.00800           0
     19507 LPSA18   16       BMANNA   C3       CC3161   0.140000       12.0110           0
     19508 LPSA18   16       BMANNA   H3       HCA1     0.900000E-01   1.00800           0
     19509 LPSA18   16       BMANNA   O3       OC311   -0.650000       15.9994           0
     19510 LPSA18   16       BMANNA   HO3      HCP1     0.420000       1.00800           0
     19511 LPSA18   16       BMANNA   C4       CC3161   0.140000       12.0110           0
     19512 LPSA18   16       BMANNA   H4       HCA1     0.900000E-01   1.00800           0
     19513 LPSA18   16       BMANNA   O4       OC311   -0.650000       15.9994           0
     19514 LPSA18   16       BMANNA   HO4      HCP1     0.420000       1.00800           0
     19515 LPSA18   16       BMANNA   C6       CC321    0.500000E-01   12.0110           0
     19516 LPSA18   16       BMANNA   H61      HCA2     0.900000E-01   1.00800           0
     19517 LPSA18   16       BMANNA   H62      HCA2     0.900000E-01   1.00800           0
     19518 LPSA18   16       BMANNA   O6       OC311   -0.650000       15.9994           0
     19519 LPSA18   16       BMANNA   HO6      HCP1     0.420000       1.00800           0
     19520 LPSA18   17       BGLCNA   C1       CC3162   0.290000       12.0110           0
     19521 LPSA18   17       BGLCNA   H1       HCA1     0.900000E-01   1.00800           0
     19522 LPSA18   17       BGLCNA   C5       CC3163   0.110000       12.0110           0
     19523 LPSA18   17       BGLCNA   H5       HCA1     0.900000E-01   1.00800           0
     19524 LPSA18   17       BGLCNA   O5       OC3C61  -0.400000       15.9994           0
     19525 LPSA18   17       BGLCNA   C2       CC3161   0.700000E-01   12.0110           0
     19526 LPSA18   17       BGLCNA   H2       HCA1     0.900000E-01   1.00800           0
     19527 LPSA18   17       BGLCNA   N        NC2D1   -0.470000       14.0070           0
     19528 LPSA18   17       BGLCNA   HN       HCP1     0.310000       1.00800           0
     19529 LPSA18   17       BGLCNA   C        CC2O1    0.510000       12.0110           0
     19530 LPSA18   17       BGLCNA   O        OC2D1   -0.510000       15.9994           0
     19531 LPSA18   17       BGLCNA   CT       CC331   -0.270000       12.0110           0
     19532 LPSA18   17       BGLCNA   HT1      HCA3     0.900000E-01   1.00800           0
     19533 LPSA18   17       BGLCNA   HT2      HCA3     0.900000E-01   1.00800           0
     19534 LPSA18   17       BGLCNA   HT3      HCA3     0.900000E-01   1.00800           0
     19535 LPSA18   17       BGLCNA   C3       CC3161   0.900000E-01   12.0110           0
     19536 LPSA18   17       BGLCNA   H3       HCA1     0.900000E-01   1.00800           0
     19537 LPSA18   17       BGLCNA   O3       OC301   -0.360000       15.9994           0
     19538 LPSA18   17       BGLCNA   C4       CC3161   0.140000       12.0110           0
     19539 LPSA18   17       BGLCNA   H4       HCA1     0.900000E-01   1.00800           0
     19540 LPSA18   17       BGLCNA   O4       OC311   -0.650000       15.9994           0
     19541 LPSA18   17       BGLCNA   HO4      HCP1     0.420000       1.00800           0
     19542 LPSA18   17       BGLCNA   C6       CC321    0.500000E-01   12.0110           0
     19543 LPSA18   17       BGLCNA   H61      HCA2     0.900000E-01   1.00800           0
     19544 LPSA18   17       BGLCNA   H62      HCA2     0.900000E-01   1.00800           0
     19545 LPSA18   17       BGLCNA   O6       OC311   -0.650000       15.9994           0
     19546 LPSA18   17       BGLCNA   HO6      HCP1     0.420000       1.00800           0
     19547 LPSA18   18       AGAL     C1       CC3162   0.290000       12.0110           0
     19548 LPSA18   18       AGAL     H1       HCA1     0.900000E-01   1.00800           0
     19549 LPSA18   18       AGAL     C5       CC3163   0.110000       12.0110           0
     19550 LPSA18   18       AGAL     H5       HCA1     0.900000E-01   1.00800           0
     19551 LPSA18   18       AGAL     O5       OC3C61  -0.400000       15.9994           0
     19552 LPSA18   18       AGAL     C2       CC3161   0.900000E-01   12.0110           0
     19553 LPSA18   18       AGAL     H2       HCA1     0.900000E-01   1.00800           0
     19554 LPSA18   18       AGAL     O2       OC301   -0.360000       15.9994           0
     19555 LPSA18   18       AGAL     C3       CC3161   0.140000       12.0110           0
     19556 LPSA18   18       AGAL     H3       HCA1     0.900000E-01   1.00800           0
     19557 LPSA18   18       AGAL     O3       OC311   -0.650000       15.9994           0
     19558 LPSA18   18       AGAL     HO3      HCP1     0.420000       1.00800           0
     19559 LPSA18   18       AGAL     C4       CC3161   0.140000       12.0110           0
     19560 LPSA18   18       AGAL     H4       HCA1     0.900000E-01   1.00800           0
     19561 LPSA18   18       AGAL     O4       OC311   -0.650000       15.9994           0
     19562 LPSA18   18       AGAL     HO4      HCP1     0.420000       1.00800           0
     19563 LPSA18   18       AGAL     C6       CC321    0.500000E-01   12.0110           0
     19564 LPSA18   18       AGAL     H61      HCA2     0.900000E-01   1.00800           0
     19565 LPSA18   18       AGAL     H62      HCA2     0.900000E-01   1.00800           0
     19566 LPSA18   18       AGAL     O6       OC311   -0.650000       15.9994           0
     19567 LPSA18   18       AGAL     HO6      HCP1     0.420000       1.00800           0
     19568 LPSA18   19       ARHM     C1       CC3162   0.290000       12.0110           0
     19569 LPSA18   19       ARHM     H1       HCA1     0.900000E-01   1.00800           0
     19570 LPSA18   19       ARHM     C5       CC3163   0.110000       12.0110           0
     19571 LPSA18   19       ARHM     H5       HCA1     0.900000E-01   1.00800           0
     19572 LPSA18   19       ARHM     O5       OC3C61  -0.400000       15.9994           0
     19573 LPSA18   19       ARHM     C2       CC3161   0.900000E-01   12.0110           0
     19574 LPSA18   19       ARHM     H2       HCA1     0.900000E-01   1.00800           0
     19575 LPSA18   19       ARHM     O2       OC301   -0.360000       15.9994           0
     19576 LPSA18   19       ARHM     C3       CC3161   0.140000       12.0110           0
     19577 LPSA18   19       ARHM     H3       HCA1     0.900000E-01   1.00800           0
     19578 LPSA18   19       ARHM     O3       OC311   -0.650000       15.9994           0
     19579 LPSA18   19       ARHM     HO3      HCP1     0.420000       1.00800           0
     19580 LPSA18   19       ARHM     C4       CC3161   0.140000       12.0110           0
     19581 LPSA18   19       ARHM     H4       HCA1     0.900000E-01   1.00800           0
     19582 LPSA18   19       ARHM     O4       OC311   -0.650000       15.9994           0
     19583 LPSA18   19       ARHM     HO4      HCP1     0.420000       1.00800           0
     19584 LPSA18   19       ARHM     C6       CC331   -0.270000       12.0110           0
     19585 LPSA18   19       ARHM     H61      HCA3     0.900000E-01   1.00800           0
     19586 LPSA18   19       ARHM     H62      HCA3     0.900000E-01   1.00800           0
     19587 LPSA18   19       ARHM     H63      HCA3     0.900000E-01   1.00800           0
     19588 LPSA18   20       ARHM     C1       CC3162   0.290000       12.0110           0
     19589 LPSA18   20       ARHM     H1       HCA1     0.900000E-01   1.00800           0
     19590 LPSA18   20       ARHM     C5       CC3163   0.110000       12.0110           0
     19591 LPSA18   20       ARHM     H5       HCA1     0.900000E-01   1.00800           0
     19592 LPSA18   20       ARHM     O5       OC3C61  -0.400000       15.9994           0
     19593 LPSA18   20       ARHM     C2       CC3161   0.900000E-01   12.0110           0
     19594 LPSA18   20       ARHM     H2       HCA1     0.900000E-01   1.00800           0
     19595 LPSA18   20       ARHM     O2       OC301   -0.360000       15.9994           0
     19596 LPSA18   20       ARHM     C3       CC3161   0.900000E-01   12.0110           0
     19597 LPSA18   20       ARHM     H3       HCA1     0.900000E-01   1.00800           0
     19598 LPSA18   20       ARHM     O3       OC301   -0.360000       15.9994           0
     19599 LPSA18   20       ARHM     C4       CC3161   0.140000       12.0110           0
     19600 LPSA18   20       ARHM     H4       HCA1     0.900000E-01   1.00800           0
     19601 LPSA18   20       ARHM     O4       OC311   -0.650000       15.9994           0
     19602 LPSA18   20       ARHM     HO4      HCP1     0.420000       1.00800           0
     19603 LPSA18   20       ARHM     C6       CC331   -0.270000       12.0110           0
     19604 LPSA18   20       ARHM     H61      HCA3     0.900000E-01   1.00800           0
     19605 LPSA18   20       ARHM     H62      HCA3     0.900000E-01   1.00800           0
     19606 LPSA18   20       ARHM     H63      HCA3     0.900000E-01   1.00800           0
     19607 LPSA18   21       BMANNA   C1       CC3162   0.290000       12.0110           0
     19608 LPSA18   21       BMANNA   H1       HCA1     0.900000E-01   1.00800           0
     19609 LPSA18   21       BMANNA   C5       CC3163   0.110000       12.0110           0
     19610 LPSA18   21       BMANNA   H5       HCA1     0.900000E-01   1.00800           0
     19611 LPSA18   21       BMANNA   O5       OC3C61  -0.400000       15.9994           0
     19612 LPSA18   21       BMANNA   C2       CC3161   0.700000E-01   12.0110           0
     19613 LPSA18   21       BMANNA   H2       HCA1     0.900000E-01   1.00800           0
     19614 LPSA18   21       BMANNA   N        NC2D1   -0.470000       14.0070           0
     19615 LPSA18   21       BMANNA   HN       HCP1     0.310000       1.00800           0
     19616 LPSA18   21       BMANNA   C        CC2O1    0.510000       12.0110           0
     19617 LPSA18   21       BMANNA   O        OC2D1   -0.510000       15.9994           0
     19618 LPSA18   21       BMANNA   CT       CC331   -0.270000       12.0110           0
     19619 LPSA18   21       BMANNA   HT1      HCA3     0.900000E-01   1.00800           0
     19620 LPSA18   21       BMANNA   HT2      HCA3     0.900000E-01   1.00800           0
     19621 LPSA18   21       BMANNA   HT3      HCA3     0.900000E-01   1.00800           0
     19622 LPSA18   21       BMANNA   C3       CC3161   0.140000       12.0110           0
     19623 LPSA18   21       BMANNA   H3       HCA1     0.900000E-01   1.00800           0
     19624 LPSA18   21       BMANNA   O3       OC311   -0.650000       15.9994           0
     19625 LPSA18   21       BMANNA   HO3      HCP1     0.420000       1.00800           0
     19626 LPSA18   21       BMANNA   C4       CC3161   0.140000       12.0110           0
     19627 LPSA18   21       BMANNA   H4       HCA1     0.900000E-01   1.00800           0
     19628 LPSA18   21       BMANNA   O4       OC311   -0.650000       15.9994           0
     19629 LPSA18   21       BMANNA   HO4      HCP1     0.420000       1.00800           0
     19630 LPSA18   21       BMANNA   C6       CC321    0.500000E-01   12.0110           0
     19631 LPSA18   21       BMANNA   H61      HCA2     0.900000E-01   1.00800           0
     19632 LPSA18   21       BMANNA   H62      HCA2     0.900000E-01   1.00800           0
     19633 LPSA18   21       BMANNA   O6       OC311   -0.650000       15.9994           0
     19634 LPSA18   21       BMANNA   HO6      HCP1     0.420000       1.00800           0
     19635 LPSA18   22       BGLCNA   C1       CC3162   0.290000       12.0110           0
     19636 LPSA18   22       BGLCNA   H1       HCA1     0.900000E-01   1.00800           0
     19637 LPSA18   22       BGLCNA   C5       CC3163   0.110000       12.0110           0
     19638 LPSA18   22       BGLCNA   H5       HCA1     0.900000E-01   1.00800           0
     19639 LPSA18   22       BGLCNA   O5       OC3C61  -0.400000       15.9994           0
     19640 LPSA18   22       BGLCNA   C2       CC3161   0.700000E-01   12.0110           0
     19641 LPSA18   22       BGLCNA   H2       HCA1     0.900000E-01   1.00800           0
     19642 LPSA18   22       BGLCNA   N        NC2D1   -0.470000       14.0070           0
     19643 LPSA18   22       BGLCNA   HN       HCP1     0.310000       1.00800           0
     19644 LPSA18   22       BGLCNA   C        CC2O1    0.510000       12.0110           0
     19645 LPSA18   22       BGLCNA   O        OC2D1   -0.510000       15.9994           0
     19646 LPSA18   22       BGLCNA   CT       CC331   -0.270000       12.0110           0
     19647 LPSA18   22       BGLCNA   HT1      HCA3     0.900000E-01   1.00800           0
     19648 LPSA18   22       BGLCNA   HT2      HCA3     0.900000E-01   1.00800           0
     19649 LPSA18   22       BGLCNA   HT3      HCA3     0.900000E-01   1.00800           0
     19650 LPSA18   22       BGLCNA   C3       CC3161   0.900000E-01   12.0110           0
     19651 LPSA18   22       BGLCNA   H3       HCA1     0.900000E-01   1.00800           0
     19652 LPSA18   22       BGLCNA   O3       OC301   -0.360000       15.9994           0
     19653 LPSA18   22       BGLCNA   C4       CC3161   0.140000       12.0110           0
     19654 LPSA18   22       BGLCNA   H4       HCA1     0.900000E-01   1.00800           0
     19655 LPSA18   22       BGLCNA   O4       OC311   -0.650000       15.9994           0
     19656 LPSA18   22       BGLCNA   HO4      HCP1     0.420000       1.00800           0
     19657 LPSA18   22       BGLCNA   C6       CC321    0.500000E-01   12.0110           0
     19658 LPSA18   22       BGLCNA   H61      HCA2     0.900000E-01   1.00800           0
     19659 LPSA18   22       BGLCNA   H62      HCA2     0.900000E-01   1.00800           0
     19660 LPSA18   22       BGLCNA   O6       OC311   -0.650000       15.9994           0
     19661 LPSA18   22       BGLCNA   HO6      HCP1     0.420000       1.00800           0
     19662 LPSA18   23       AGAL     C1       CC3162   0.290000       12.0110           0
     19663 LPSA18   23       AGAL     H1       HCA1     0.900000E-01   1.00800           0
     19664 LPSA18   23       AGAL     C5       CC3163   0.110000       12.0110           0
     19665 LPSA18   23       AGAL     H5       HCA1     0.900000E-01   1.00800           0
     19666 LPSA18   23       AGAL     O5       OC3C61  -0.400000       15.9994           0
     19667 LPSA18   23       AGAL     C2       CC3161   0.900000E-01   12.0110           0
     19668 LPSA18   23       AGAL     H2       HCA1     0.900000E-01   1.00800           0
     19669 LPSA18   23       AGAL     O2       OC301   -0.360000       15.9994           0
     19670 LPSA18   23       AGAL     C3       CC3161   0.140000       12.0110           0
     19671 LPSA18   23       AGAL     H3       HCA1     0.900000E-01   1.00800           0
     19672 LPSA18   23       AGAL     O3       OC311   -0.650000       15.9994           0
     19673 LPSA18   23       AGAL     HO3      HCP1     0.420000       1.00800           0
     19674 LPSA18   23       AGAL     C4       CC3161   0.140000       12.0110           0
     19675 LPSA18   23       AGAL     H4       HCA1     0.900000E-01   1.00800           0
     19676 LPSA18   23       AGAL     O4       OC311   -0.650000       15.9994           0
     19677 LPSA18   23       AGAL     HO4      HCP1     0.420000       1.00800           0
     19678 LPSA18   23       AGAL     C6       CC321    0.500000E-01   12.0110           0
     19679 LPSA18   23       AGAL     H61      HCA2     0.900000E-01   1.00800           0
     19680 LPSA18   23       AGAL     H62      HCA2     0.900000E-01   1.00800           0
     19681 LPSA18   23       AGAL     O6       OC311   -0.650000       15.9994           0
     19682 LPSA18   23       AGAL     HO6      HCP1     0.420000       1.00800           0
     19683 LPSA18   24       ARHM     C1       CC3162   0.290000       12.0110           0
     19684 LPSA18   24       ARHM     H1       HCA1     0.900000E-01   1.00800           0
     19685 LPSA18   24       ARHM     C5       CC3163   0.110000       12.0110           0
     19686 LPSA18   24       ARHM     H5       HCA1     0.900000E-01   1.00800           0
     19687 LPSA18   24       ARHM     O5       OC3C61  -0.400000       15.9994           0
     19688 LPSA18   24       ARHM     C2       CC3161   0.900000E-01   12.0110           0
     19689 LPSA18   24       ARHM     H2       HCA1     0.900000E-01   1.00800           0
     19690 LPSA18   24       ARHM     O2       OC301   -0.360000       15.9994           0
     19691 LPSA18   24       ARHM     C3       CC3161   0.140000       12.0110           0
     19692 LPSA18   24       ARHM     H3       HCA1     0.900000E-01   1.00800           0
     19693 LPSA18   24       ARHM     O3       OC311   -0.650000       15.9994           0
     19694 LPSA18   24       ARHM     HO3      HCP1     0.420000       1.00800           0
     19695 LPSA18   24       ARHM     C4       CC3161   0.140000       12.0110           0
     19696 LPSA18   24       ARHM     H4       HCA1     0.900000E-01   1.00800           0
     19697 LPSA18   24       ARHM     O4       OC311   -0.650000       15.9994           0
     19698 LPSA18   24       ARHM     HO4      HCP1     0.420000       1.00800           0
     19699 LPSA18   24       ARHM     C6       CC331   -0.270000       12.0110           0
     19700 LPSA18   24       ARHM     H61      HCA3     0.900000E-01   1.00800           0
     19701 LPSA18   24       ARHM     H62      HCA3     0.900000E-01   1.00800           0
     19702 LPSA18   24       ARHM     H63      HCA3     0.900000E-01   1.00800           0
     19703 LPSA18   25       ARHM     C1       CC3162   0.290000       12.0110           0
     19704 LPSA18   25       ARHM     H1       HCA1     0.900000E-01   1.00800           0
     19705 LPSA18   25       ARHM     C5       CC3163   0.110000       12.0110           0
     19706 LPSA18   25       ARHM     H5       HCA1     0.900000E-01   1.00800           0
     19707 LPSA18   25       ARHM     O5       OC3C61  -0.400000       15.9994           0
     19708 LPSA18   25       ARHM     C2       CC3161   0.900000E-01   12.0110           0
     19709 LPSA18   25       ARHM     H2       HCA1     0.900000E-01   1.00800           0
     19710 LPSA18   25       ARHM     O2       OC301   -0.360000       15.9994           0
     19711 LPSA18   25       ARHM     C3       CC3161   0.900000E-01   12.0110           0
     19712 LPSA18   25       ARHM     H3       HCA1     0.900000E-01   1.00800           0
     19713 LPSA18   25       ARHM     O3       OC301   -0.360000       15.9994           0
     19714 LPSA18   25       ARHM     C4       CC3161   0.140000       12.0110           0
     19715 LPSA18   25       ARHM     H4       HCA1     0.900000E-01   1.00800           0
     19716 LPSA18   25       ARHM     O4       OC311   -0.650000       15.9994           0
     19717 LPSA18   25       ARHM     HO4      HCP1     0.420000       1.00800           0
     19718 LPSA18   25       ARHM     C6       CC331   -0.270000       12.0110           0
     19719 LPSA18   25       ARHM     H61      HCA3     0.900000E-01   1.00800           0
     19720 LPSA18   25       ARHM     H62      HCA3     0.900000E-01   1.00800           0
     19721 LPSA18   25       ARHM     H63      HCA3     0.900000E-01   1.00800           0
     19722 LPSA18   26       BMANNA   C1       CC3162   0.290000       12.0110           0
     19723 LPSA18   26       BMANNA   H1       HCA1     0.900000E-01   1.00800           0
     19724 LPSA18   26       BMANNA   C5       CC3163   0.110000       12.0110           0
     19725 LPSA18   26       BMANNA   H5       HCA1     0.900000E-01   1.00800           0
     19726 LPSA18   26       BMANNA   O5       OC3C61  -0.400000       15.9994           0
     19727 LPSA18   26       BMANNA   C2       CC3161   0.700000E-01   12.0110           0
     19728 LPSA18   26       BMANNA   H2       HCA1     0.900000E-01   1.00800           0
     19729 LPSA18   26       BMANNA   N        NC2D1   -0.470000       14.0070           0
     19730 LPSA18   26       BMANNA   HN       HCP1     0.310000       1.00800           0
     19731 LPSA18   26       BMANNA   C        CC2O1    0.510000       12.0110           0
     19732 LPSA18   26       BMANNA   O        OC2D1   -0.510000       15.9994           0
     19733 LPSA18   26       BMANNA   CT       CC331   -0.270000       12.0110           0
     19734 LPSA18   26       BMANNA   HT1      HCA3     0.900000E-01   1.00800           0
     19735 LPSA18   26       BMANNA   HT2      HCA3     0.900000E-01   1.00800           0
     19736 LPSA18   26       BMANNA   HT3      HCA3     0.900000E-01   1.00800           0
     19737 LPSA18   26       BMANNA   C3       CC3161   0.140000       12.0110           0
     19738 LPSA18   26       BMANNA   H3       HCA1     0.900000E-01   1.00800           0
     19739 LPSA18   26       BMANNA   O3       OC311   -0.650000       15.9994           0
     19740 LPSA18   26       BMANNA   HO3      HCP1     0.420000       1.00800           0
     19741 LPSA18   26       BMANNA   C4       CC3161   0.140000       12.0110           0
     19742 LPSA18   26       BMANNA   H4       HCA1     0.900000E-01   1.00800           0
     19743 LPSA18   26       BMANNA   O4       OC311   -0.650000       15.9994           0
     19744 LPSA18   26       BMANNA   HO4      HCP1     0.420000       1.00800           0
     19745 LPSA18   26       BMANNA   C6       CC321    0.500000E-01   12.0110           0
     19746 LPSA18   26       BMANNA   H61      HCA2     0.900000E-01   1.00800           0
     19747 LPSA18   26       BMANNA   H62      HCA2     0.900000E-01   1.00800           0
     19748 LPSA18   26       BMANNA   O6       OC311   -0.650000       15.9994           0
     19749 LPSA18   26       BMANNA   HO6      HCP1     0.420000       1.00800           0
     19750 LPSA18   27       BGLCNA   C1       CC3162   0.290000       12.0110           0
     19751 LPSA18   27       BGLCNA   H1       HCA1     0.900000E-01   1.00800           0
     19752 LPSA18   27       BGLCNA   C5       CC3163   0.110000       12.0110           0
     19753 LPSA18   27       BGLCNA   H5       HCA1     0.900000E-01   1.00800           0
     19754 LPSA18   27       BGLCNA   O5       OC3C61  -0.400000       15.9994           0
     19755 LPSA18   27       BGLCNA   C2       CC3161   0.700000E-01   12.0110           0
     19756 LPSA18   27       BGLCNA   H2       HCA1     0.900000E-01   1.00800           0
     19757 LPSA18   27       BGLCNA   N        NC2D1   -0.470000       14.0070           0
     19758 LPSA18   27       BGLCNA   HN       HCP1     0.310000       1.00800           0
     19759 LPSA18   27       BGLCNA   C        CC2O1    0.510000       12.0110           0
     19760 LPSA18   27       BGLCNA   O        OC2D1   -0.510000       15.9994           0
     19761 LPSA18   27       BGLCNA   CT       CC331   -0.270000       12.0110           0
     19762 LPSA18   27       BGLCNA   HT1      HCA3     0.900000E-01   1.00800           0
     19763 LPSA18   27       BGLCNA   HT2      HCA3     0.900000E-01   1.00800           0
     19764 LPSA18   27       BGLCNA   HT3      HCA3     0.900000E-01   1.00800           0
     19765 LPSA18   27       BGLCNA   C3       CC3161   0.900000E-01   12.0110           0
     19766 LPSA18   27       BGLCNA   H3       HCA1     0.900000E-01   1.00800           0
     19767 LPSA18   27       BGLCNA   O3       OC301   -0.360000       15.9994           0
     19768 LPSA18   27       BGLCNA   C4       CC3161   0.140000       12.0110           0
     19769 LPSA18   27       BGLCNA   H4       HCA1     0.900000E-01   1.00800           0
     19770 LPSA18   27       BGLCNA   O4       OC311   -0.650000       15.9994           0
     19771 LPSA18   27       BGLCNA   HO4      HCP1     0.420000       1.00800           0
     19772 LPSA18   27       BGLCNA   C6       CC321    0.500000E-01   12.0110           0
     19773 LPSA18   27       BGLCNA   H61      HCA2     0.900000E-01   1.00800           0
     19774 LPSA18   27       BGLCNA   H62      HCA2     0.900000E-01   1.00800           0
     19775 LPSA18   27       BGLCNA   O6       OC311   -0.650000       15.9994           0
     19776 LPSA18   27       BGLCNA   HO6      HCP1     0.420000       1.00800           0
     19777 LPSA18   28       AGAL     C1       CC3162   0.290000       12.0110           0
     19778 LPSA18   28       AGAL     H1       HCA1     0.900000E-01   1.00800           0
     19779 LPSA18   28       AGAL     C5       CC3163   0.110000       12.0110           0
     19780 LPSA18   28       AGAL     H5       HCA1     0.900000E-01   1.00800           0
     19781 LPSA18   28       AGAL     O5       OC3C61  -0.400000       15.9994           0
     19782 LPSA18   28       AGAL     C2       CC3161   0.900000E-01   12.0110           0
     19783 LPSA18   28       AGAL     H2       HCA1     0.900000E-01   1.00800           0
     19784 LPSA18   28       AGAL     O2       OC301   -0.360000       15.9994           0
     19785 LPSA18   28       AGAL     C3       CC3161   0.140000       12.0110           0
     19786 LPSA18   28       AGAL     H3       HCA1     0.900000E-01   1.00800           0
     19787 LPSA18   28       AGAL     O3       OC311   -0.650000       15.9994           0
     19788 LPSA18   28       AGAL     HO3      HCP1     0.420000       1.00800           0
     19789 LPSA18   28       AGAL     C4       CC3161   0.140000       12.0110           0
     19790 LPSA18   28       AGAL     H4       HCA1     0.900000E-01   1.00800           0
     19791 LPSA18   28       AGAL     O4       OC311   -0.650000       15.9994           0
     19792 LPSA18   28       AGAL     HO4      HCP1     0.420000       1.00800           0
     19793 LPSA18   28       AGAL     C6       CC321    0.500000E-01   12.0110           0
     19794 LPSA18   28       AGAL     H61      HCA2     0.900000E-01   1.00800           0
     19795 LPSA18   28       AGAL     H62      HCA2     0.900000E-01   1.00800           0
     19796 LPSA18   28       AGAL     O6       OC311   -0.650000       15.9994           0
     19797 LPSA18   28       AGAL     HO6      HCP1     0.420000       1.00800           0
     19798 LPSA18   29       ARHM     C1       CC3162   0.290000       12.0110           0
     19799 LPSA18   29       ARHM     H1       HCA1     0.900000E-01   1.00800           0
     19800 LPSA18   29       ARHM     C5       CC3163   0.110000       12.0110           0
     19801 LPSA18   29       ARHM     H5       HCA1     0.900000E-01   1.00800           0
     19802 LPSA18   29       ARHM     O5       OC3C61  -0.400000       15.9994           0
     19803 LPSA18   29       ARHM     C2       CC3161   0.900000E-01   12.0110           0
     19804 LPSA18   29       ARHM     H2       HCA1     0.900000E-01   1.00800           0
     19805 LPSA18   29       ARHM     O2       OC301   -0.360000       15.9994           0
     19806 LPSA18   29       ARHM     C3       CC3161   0.140000       12.0110           0
     19807 LPSA18   29       ARHM     H3       HCA1     0.900000E-01   1.00800           0
     19808 LPSA18   29       ARHM     O3       OC311   -0.650000       15.9994           0
     19809 LPSA18   29       ARHM     HO3      HCP1     0.420000       1.00800           0
     19810 LPSA18   29       ARHM     C4       CC3161   0.140000       12.0110           0
     19811 LPSA18   29       ARHM     H4       HCA1     0.900000E-01   1.00800           0
     19812 LPSA18   29       ARHM     O4       OC311   -0.650000       15.9994           0
     19813 LPSA18   29       ARHM     HO4      HCP1     0.420000       1.00800           0
     19814 LPSA18   29       ARHM     C6       CC331   -0.270000       12.0110           0
     19815 LPSA18   29       ARHM     H61      HCA3     0.900000E-01   1.00800           0
     19816 LPSA18   29       ARHM     H62      HCA3     0.900000E-01   1.00800           0
     19817 LPSA18   29       ARHM     H63      HCA3     0.900000E-01   1.00800           0
     19818 LPSA18   30       ARHM     C1       CC3162   0.290000       12.0110           0
     19819 LPSA18   30       ARHM     H1       HCA1     0.900000E-01   1.00800           0
     19820 LPSA18   30       ARHM     C5       CC3163   0.110000       12.0110           0
     19821 LPSA18   30       ARHM     H5       HCA1     0.900000E-01   1.00800           0
     19822 LPSA18   30       ARHM     O5       OC3C61  -0.400000       15.9994           0
     19823 LPSA18   30       ARHM     C2       CC3161   0.900000E-01   12.0110           0
     19824 LPSA18   30       ARHM     H2       HCA1     0.900000E-01   1.00800           0
     19825 LPSA18   30       ARHM     O2       OC301   -0.360000       15.9994           0
     19826 LPSA18   30       ARHM     C3       CC3161   0.900000E-01   12.0110           0
     19827 LPSA18   30       ARHM     H3       HCA1     0.900000E-01   1.00800           0
     19828 LPSA18   30       ARHM     O3       OC301   -0.360000       15.9994           0
     19829 LPSA18   30       ARHM     C4       CC3161   0.140000       12.0110           0
     19830 LPSA18   30       ARHM     H4       HCA1     0.900000E-01   1.00800           0
     19831 LPSA18   30       ARHM     O4       OC311   -0.650000       15.9994           0
     19832 LPSA18   30       ARHM     HO4      HCP1     0.420000       1.00800           0
     19833 LPSA18   30       ARHM     C6       CC331   -0.270000       12.0110           0
     19834 LPSA18   30       ARHM     H61      HCA3     0.900000E-01   1.00800           0
     19835 LPSA18   30       ARHM     H62      HCA3     0.900000E-01   1.00800           0
     19836 LPSA18   30       ARHM     H63      HCA3     0.900000E-01   1.00800           0
     19837 LPSA18   31       BMANNA   C1       CC3162   0.290000       12.0110           0
     19838 LPSA18   31       BMANNA   H1       HCA1     0.900000E-01   1.00800           0
     19839 LPSA18   31       BMANNA   C5       CC3163   0.110000       12.0110           0
     19840 LPSA18   31       BMANNA   H5       HCA1     0.900000E-01   1.00800           0
     19841 LPSA18   31       BMANNA   O5       OC3C61  -0.400000       15.9994           0
     19842 LPSA18   31       BMANNA   C2       CC3161   0.700000E-01   12.0110           0
     19843 LPSA18   31       BMANNA   H2       HCA1     0.900000E-01   1.00800           0
     19844 LPSA18   31       BMANNA   N        NC2D1   -0.470000       14.0070           0
     19845 LPSA18   31       BMANNA   HN       HCP1     0.310000       1.00800           0
     19846 LPSA18   31       BMANNA   C        CC2O1    0.510000       12.0110           0
     19847 LPSA18   31       BMANNA   O        OC2D1   -0.510000       15.9994           0
     19848 LPSA18   31       BMANNA   CT       CC331   -0.270000       12.0110           0
     19849 LPSA18   31       BMANNA   HT1      HCA3     0.900000E-01   1.00800           0
     19850 LPSA18   31       BMANNA   HT2      HCA3     0.900000E-01   1.00800           0
     19851 LPSA18   31       BMANNA   HT3      HCA3     0.900000E-01   1.00800           0
     19852 LPSA18   31       BMANNA   C3       CC3161   0.140000       12.0110           0
     19853 LPSA18   31       BMANNA   H3       HCA1     0.900000E-01   1.00800           0
     19854 LPSA18   31       BMANNA   O3       OC311   -0.650000       15.9994           0
     19855 LPSA18   31       BMANNA   HO3      HCP1     0.420000       1.00800           0
     19856 LPSA18   31       BMANNA   C4       CC3161   0.140000       12.0110           0
     19857 LPSA18   31       BMANNA   H4       HCA1     0.900000E-01   1.00800           0
     19858 LPSA18   31       BMANNA   O4       OC311   -0.650000       15.9994           0
     19859 LPSA18   31       BMANNA   HO4      HCP1     0.420000       1.00800           0
     19860 LPSA18   31       BMANNA   C6       CC321    0.500000E-01   12.0110           0
     19861 LPSA18   31       BMANNA   H61      HCA2     0.900000E-01   1.00800           0
     19862 LPSA18   31       BMANNA   H62      HCA2     0.900000E-01   1.00800           0
     19863 LPSA18   31       BMANNA   O6       OC311   -0.650000       15.9994           0
     19864 LPSA18   31       BMANNA   HO6      HCP1     0.420000       1.00800           0
     19865 LPSA18   32       BGLCNA   C1       CC3162   0.290000       12.0110           0
     19866 LPSA18   32       BGLCNA   H1       HCA1     0.900000E-01   1.00800           0
     19867 LPSA18   32       BGLCNA   C5       CC3163   0.110000       12.0110           0
     19868 LPSA18   32       BGLCNA   H5       HCA1     0.900000E-01   1.00800           0
     19869 LPSA18   32       BGLCNA   O5       OC3C61  -0.400000       15.9994           0
     19870 LPSA18   32       BGLCNA   C2       CC3161   0.700000E-01   12.0110           0
     19871 LPSA18   32       BGLCNA   H2       HCA1     0.900000E-01   1.00800           0
     19872 LPSA18   32       BGLCNA   N        NC2D1   -0.470000       14.0070           0
     19873 LPSA18   32       BGLCNA   HN       HCP1     0.310000       1.00800           0
     19874 LPSA18   32       BGLCNA   C        CC2O1    0.510000       12.0110           0
     19875 LPSA18   32       BGLCNA   O        OC2D1   -0.510000       15.9994           0
     19876 LPSA18   32       BGLCNA   CT       CC331   -0.270000       12.0110           0
     19877 LPSA18   32       BGLCNA   HT1      HCA3     0.900000E-01   1.00800           0
     19878 LPSA18   32       BGLCNA   HT2      HCA3     0.900000E-01   1.00800           0
     19879 LPSA18   32       BGLCNA   HT3      HCA3     0.900000E-01   1.00800           0
     19880 LPSA18   32       BGLCNA   C3       CC3161   0.900000E-01   12.0110           0
     19881 LPSA18   32       BGLCNA   H3       HCA1     0.900000E-01   1.00800           0
     19882 LPSA18   32       BGLCNA   O3       OC301   -0.360000       15.9994           0
     19883 LPSA18   32       BGLCNA   C4       CC3161   0.140000       12.0110           0
     19884 LPSA18   32       BGLCNA   H4       HCA1     0.900000E-01   1.00800           0
     19885 LPSA18   32       BGLCNA   O4       OC311   -0.650000       15.9994           0
     19886 LPSA18   32       BGLCNA   HO4      HCP1     0.420000       1.00800           0
     19887 LPSA18   32       BGLCNA   C6       CC321    0.500000E-01   12.0110           0
     19888 LPSA18   32       BGLCNA   H61      HCA2     0.900000E-01   1.00800           0
     19889 LPSA18   32       BGLCNA   H62      HCA2     0.900000E-01   1.00800           0
     19890 LPSA18   32       BGLCNA   O6       OC311   -0.650000       15.9994           0
     19891 LPSA18   32       BGLCNA   HO6      HCP1     0.420000       1.00800           0
     19892 LPSA18   33       AGAL     C1       CC3162   0.290000       12.0110           0
     19893 LPSA18   33       AGAL     H1       HCA1     0.900000E-01   1.00800           0
     19894 LPSA18   33       AGAL     C5       CC3163   0.110000       12.0110           0
     19895 LPSA18   33       AGAL     H5       HCA1     0.900000E-01   1.00800           0
     19896 LPSA18   33       AGAL     O5       OC3C61  -0.400000       15.9994           0
     19897 LPSA18   33       AGAL     C2       CC3161   0.900000E-01   12.0110           0
     19898 LPSA18   33       AGAL     H2       HCA1     0.900000E-01   1.00800           0
     19899 LPSA18   33       AGAL     O2       OC301   -0.360000       15.9994           0
     19900 LPSA18   33       AGAL     C3       CC3161   0.140000       12.0110           0
     19901 LPSA18   33       AGAL     H3       HCA1     0.900000E-01   1.00800           0
     19902 LPSA18   33       AGAL     O3       OC311   -0.650000       15.9994           0
     19903 LPSA18   33       AGAL     HO3      HCP1     0.420000       1.00800           0
     19904 LPSA18   33       AGAL     C4       CC3161   0.140000       12.0110           0
     19905 LPSA18   33       AGAL     H4       HCA1     0.900000E-01   1.00800           0
     19906 LPSA18   33       AGAL     O4       OC311   -0.650000       15.9994           0
     19907 LPSA18   33       AGAL     HO4      HCP1     0.420000       1.00800           0
     19908 LPSA18   33       AGAL     C6       CC321    0.500000E-01   12.0110           0
     19909 LPSA18   33       AGAL     H61      HCA2     0.900000E-01   1.00800           0
     19910 LPSA18   33       AGAL     H62      HCA2     0.900000E-01   1.00800           0
     19911 LPSA18   33       AGAL     O6       OC311   -0.650000       15.9994           0
     19912 LPSA18   33       AGAL     HO6      HCP1     0.420000       1.00800           0
     19913 LPSA18   34       ARHM     C1       CC3162   0.290000       12.0110           0
     19914 LPSA18   34       ARHM     H1       HCA1     0.900000E-01   1.00800           0
     19915 LPSA18   34       ARHM     C5       CC3163   0.110000       12.0110           0
     19916 LPSA18   34       ARHM     H5       HCA1     0.900000E-01   1.00800           0
     19917 LPSA18   34       ARHM     O5       OC3C61  -0.400000       15.9994           0
     19918 LPSA18   34       ARHM     C2       CC3161   0.900000E-01   12.0110           0
     19919 LPSA18   34       ARHM     H2       HCA1     0.900000E-01   1.00800           0
     19920 LPSA18   34       ARHM     O2       OC301   -0.360000       15.9994           0
     19921 LPSA18   34       ARHM     C3       CC3161   0.140000       12.0110           0
     19922 LPSA18   34       ARHM     H3       HCA1     0.900000E-01   1.00800           0
     19923 LPSA18   34       ARHM     O3       OC311   -0.650000       15.9994           0
     19924 LPSA18   34       ARHM     HO3      HCP1     0.420000       1.00800           0
     19925 LPSA18   34       ARHM     C4       CC3161   0.140000       12.0110           0
     19926 LPSA18   34       ARHM     H4       HCA1     0.900000E-01   1.00800           0
     19927 LPSA18   34       ARHM     O4       OC311   -0.650000       15.9994           0
     19928 LPSA18   34       ARHM     HO4      HCP1     0.420000       1.00800           0
     19929 LPSA18   34       ARHM     C6       CC331   -0.270000       12.0110           0
     19930 LPSA18   34       ARHM     H61      HCA3     0.900000E-01   1.00800           0
     19931 LPSA18   34       ARHM     H62      HCA3     0.900000E-01   1.00800           0
     19932 LPSA18   34       ARHM     H63      HCA3     0.900000E-01   1.00800           0
     19933 LPSA18   35       ARHM     C1       CC3162   0.290000       12.0110           0
     19934 LPSA18   35       ARHM     H1       HCA1     0.900000E-01   1.00800           0
     19935 LPSA18   35       ARHM     C5       CC3163   0.110000       12.0110           0
     19936 LPSA18   35       ARHM     H5       HCA1     0.900000E-01   1.00800           0
     19937 LPSA18   35       ARHM     O5       OC3C61  -0.400000       15.9994           0
     19938 LPSA18   35       ARHM     C2       CC3161   0.900000E-01   12.0110           0
     19939 LPSA18   35       ARHM     H2       HCA1     0.900000E-01   1.00800           0
     19940 LPSA18   35       ARHM     O2       OC301   -0.360000       15.9994           0
     19941 LPSA18   35       ARHM     C3       CC3161   0.140000       12.0110           0
     19942 LPSA18   35       ARHM     H3       HCA1     0.900000E-01   1.00800           0
     19943 LPSA18   35       ARHM     O3       OC311   -0.650000       15.9994           0
     19944 LPSA18   35       ARHM     HO3      HCP1     0.420000       1.00800           0
     19945 LPSA18   35       ARHM     C4       CC3161   0.140000       12.0110           0
     19946 LPSA18   35       ARHM     H4       HCA1     0.900000E-01   1.00800           0
     19947 LPSA18   35       ARHM     O4       OC311   -0.650000       15.9994           0
     19948 LPSA18   35       ARHM     HO4      HCP1     0.420000       1.00800           0
     19949 LPSA18   35       ARHM     C6       CC331   -0.270000       12.0110           0
     19950 LPSA18   35       ARHM     H61      HCA3     0.900000E-01   1.00800           0
     19951 LPSA18   35       ARHM     H62      HCA3     0.900000E-01   1.00800           0
     19952 LPSA18   35       ARHM     H63      HCA3     0.900000E-01   1.00800           0
     19953 LPSA18   36       BMANNA   C1       CC3162   0.290000       12.0110           0
     19954 LPSA18   36       BMANNA   H1       HCA1     0.900000E-01   1.00800           0
     19955 LPSA18   36       BMANNA   C5       CC3163   0.110000       12.0110           0
     19956 LPSA18   36       BMANNA   H5       HCA1     0.900000E-01   1.00800           0
     19957 LPSA18   36       BMANNA   O5       OC3C61  -0.400000       15.9994           0
     19958 LPSA18   36       BMANNA   C2       CC3161   0.700000E-01   12.0110           0
     19959 LPSA18   36       BMANNA   H2       HCA1     0.900000E-01   1.00800           0
     19960 LPSA18   36       BMANNA   N        NC2D1   -0.470000       14.0070           0
     19961 LPSA18   36       BMANNA   HN       HCP1     0.310000       1.00800           0
     19962 LPSA18   36       BMANNA   C        CC2O1    0.510000       12.0110           0
     19963 LPSA18   36       BMANNA   O        OC2D1   -0.510000       15.9994           0
     19964 LPSA18   36       BMANNA   CT       CC331   -0.270000       12.0110           0
     19965 LPSA18   36       BMANNA   HT1      HCA3     0.900000E-01   1.00800           0
     19966 LPSA18   36       BMANNA   HT2      HCA3     0.900000E-01   1.00800           0
     19967 LPSA18   36       BMANNA   HT3      HCA3     0.900000E-01   1.00800           0
     19968 LPSA18   36       BMANNA   C3       CC3161   0.140000       12.0110           0
     19969 LPSA18   36       BMANNA   H3       HCA1     0.900000E-01   1.00800           0
     19970 LPSA18   36       BMANNA   O3       OC311   -0.650000       15.9994           0
     19971 LPSA18   36       BMANNA   HO3      HCP1     0.420000       1.00800           0
     19972 LPSA18   36       BMANNA   C4       CC3161   0.140000       12.0110           0
     19973 LPSA18   36       BMANNA   H4       HCA1     0.900000E-01   1.00800           0
     19974 LPSA18   36       BMANNA   O4       OC311   -0.650000       15.9994           0
     19975 LPSA18   36       BMANNA   HO4      HCP1     0.420000       1.00800           0
     19976 LPSA18   36       BMANNA   C6       CC321    0.500000E-01   12.0110           0
     19977 LPSA18   36       BMANNA   H61      HCA2     0.900000E-01   1.00800           0
     19978 LPSA18   36       BMANNA   H62      HCA2     0.900000E-01   1.00800           0
     19979 LPSA18   36       BMANNA   O6       OC311   -0.650000       15.9994           0
     19980 LPSA18   36       BMANNA   HO6      HCP1     0.420000       1.00800           0
     19981 LPSA19   1        ECLIPA   HB6S     HCA2     0.900000E-01   1.00800           0
     19982 LPSA19   1        ECLIPA   OB6      OC301   -0.360000       15.9994           0
     19983 LPSA19   1        ECLIPA   CB6      CC321     0.00000       12.0110           0
     19984 LPSA19   1        ECLIPA   HB6R     HCA2     0.900000E-01   1.00800           0
     19985 LPSA19   1        ECLIPA   CB5      CC3163   0.110000       12.0110           0
     19986 LPSA19   1        ECLIPA   OB5      OC3C61  -0.400000       15.9994           0
     19987 LPSA19   1        ECLIPA   HB5      HCA1     0.900000E-01   1.00800           0
     19988 LPSA19   1        ECLIPA   CB1      CC3162   0.290000       12.0110           0
     19989 LPSA19   1        ECLIPA   HB1      HCA1     0.900000E-01   1.00800           0
     19990 LPSA19   1        ECLIPA   OA6      OC301   -0.360000       15.9994           0
     19991 LPSA19   1        ECLIPA   CA6      CC321     0.00000       12.0110           0
     19992 LPSA19   1        ECLIPA   HA6R     HCA2     0.900000E-01   1.00800           0
     19993 LPSA19   1        ECLIPA   HA6S     HCA2     0.900000E-01   1.00800           0
     19994 LPSA19   1        ECLIPA   CB4      CC3161  -0.900000E-01   12.0110           0
     19995 LPSA19   1        ECLIPA   HB4      HCA1     0.900000E-01   1.00800           0
     19996 LPSA19   1        ECLIPA   OB4      OC30P   -0.400000       15.9994           0
     19997 LPSA19   1        ECLIPA   PB       PC        1.10000       30.9740           0
     19998 LPSA19   1        ECLIPA   OPB4     OC2DP   -0.900000       15.9994           0
     19999 LPSA19   1        ECLIPA   OPB3     OC2DP   -0.900000       15.9994           0
     20000 LPSA19   1        ECLIPA   OPB2     OC2DP   -0.900000       15.9994           0
     20001 LPSA19   1        ECLIPA   CB3      CC3161   0.170000       12.0110           0
     20002 LPSA19   1        ECLIPA   OB3      OC301   -0.490000       15.9994           0
     20003 LPSA19   1        ECLIPA   HB3      HCA1     0.900000E-01   1.00800           0
     20004 LPSA19   1        ECLIPA   C71      CL       0.900000       12.0110           0
     20005 LPSA19   1        ECLIPA   O71      OBL     -0.630000       15.9994           0
     20006 LPSA19   1        ECLIPA   C72      CTL2    -0.220000       12.0110           0
     20007 LPSA19   1        ECLIPA   H72R     HAL2     0.900000E-01   1.00800           0
     20008 LPSA19   1        ECLIPA   H72S     HAL2     0.900000E-01   1.00800           0
     20009 LPSA19   1        ECLIPA   CB2      CC3161   0.700000E-01   12.0110           0
     20010 LPSA19   1        ECLIPA   HB2      HCA1     0.900000E-01   1.00800           0
     20011 LPSA19   1        ECLIPA   NB2      NC2D1   -0.470000       14.0070           0
     20012 LPSA19   1        ECLIPA   HNB2     HCP1     0.310000       1.00800           0
     20013 LPSA19   1        ECLIPA   CA4      CC3161   0.140000       12.0110           0
     20014 LPSA19   1        ECLIPA   HA4      HCA1     0.900000E-01   1.00800           0
     20015 LPSA19   1        ECLIPA   OA4      OC311   -0.650000       15.9994           0
     20016 LPSA19   1        ECLIPA   HOA4     HCP1     0.420000       1.00800           0
     20017 LPSA19   1        ECLIPA   CA5      CC3163   0.110000       12.0110           0
     20018 LPSA19   1        ECLIPA   HA5      HCA1     0.900000E-01   1.00800           0
     20019 LPSA19   1        ECLIPA   OA5      OC3C61  -0.400000       15.9994           0
     20020 LPSA19   1        ECLIPA   CA1      CC3162   0.110000       12.0110           0
     20021 LPSA19   1        ECLIPA   HA1      HCA1     0.900000E-01   1.00800           0
     20022 LPSA19   1        ECLIPA   OA1      OC30P   -0.400000       15.9994           0
     20023 LPSA19   1        ECLIPA   OPA2     OC2DP   -0.900000       15.9994           0
     20024 LPSA19   1        ECLIPA   OPA3     OC2DP   -0.900000       15.9994           0
     20025 LPSA19   1        ECLIPA   OPA4     OC2DP   -0.900000       15.9994           0
     20026 LPSA19   1        ECLIPA   PA       PC        1.10000       30.9740           0
     20027 LPSA19   1        ECLIPA   CA3      CC3161   0.170000       12.0110           0
     20028 LPSA19   1        ECLIPA   HA3      HCA1     0.900000E-01   1.00800           0
     20029 LPSA19   1        ECLIPA   OA3      OC301   -0.490000       15.9994           0
     20030 LPSA19   1        ECLIPA   C31      CL       0.900000       12.0110           0
     20031 LPSA19   1        ECLIPA   O31      OBL     -0.630000       15.9994           0
     20032 LPSA19   1        ECLIPA   C32      CTL2    -0.220000       12.0110           0
     20033 LPSA19   1        ECLIPA   H32R     HAL2     0.900000E-01   1.00800           0
     20034 LPSA19   1        ECLIPA   H32S     HAL2     0.900000E-01   1.00800           0
     20035 LPSA19   1        ECLIPA   CA2      CC3161   0.700000E-01   12.0110           0
     20036 LPSA19   1        ECLIPA   HA2      HCA1     0.900000E-01   1.00800           0
     20037 LPSA19   1        ECLIPA   NA2      NC2D1   -0.470000       14.0070           0
     20038 LPSA19   1        ECLIPA   HNA2     HCP1     0.310000       1.00800           0
     20039 LPSA19   1        ECLIPA   C73      CTL1     0.170000       12.0110           0
     20040 LPSA19   1        ECLIPA   H73R     HAL1     0.900000E-01   1.00800           0
     20041 LPSA19   1        ECLIPA   O73      OSL     -0.490000       15.9994           0
     20042 LPSA19   1        ECLIPA   C81      CL       0.900000       12.0110           0
     20043 LPSA19   1        ECLIPA   O81      OBL     -0.630000       15.9994           0
     20044 LPSA19   1        ECLIPA   C82      CTL2    -0.220000       12.0110           0
     20045 LPSA19   1        ECLIPA   H82R     HAL2     0.900000E-01   1.00800           0
     20046 LPSA19   1        ECLIPA   H82S     HAL2     0.900000E-01   1.00800           0
     20047 LPSA19   1        ECLIPA   C83      CTL2    -0.180000       12.0110           0
     20048 LPSA19   1        ECLIPA   H83R     HAL2     0.900000E-01   1.00800           0
     20049 LPSA19   1        ECLIPA   H83S     HAL2     0.900000E-01   1.00800           0
     20050 LPSA19   1        ECLIPA   C84      CTL2    -0.180000       12.0110           0
     20051 LPSA19   1        ECLIPA   H84R     HAL2     0.900000E-01   1.00800           0
     20052 LPSA19   1        ECLIPA   H84S     HAL2     0.900000E-01   1.00800           0
     20053 LPSA19   1        ECLIPA   C85      CTL2    -0.180000       12.0110           0
     20054 LPSA19   1        ECLIPA   H85R     HAL2     0.900000E-01   1.00800           0
     20055 LPSA19   1        ECLIPA   H85S     HAL2     0.900000E-01   1.00800           0
     20056 LPSA19   1        ECLIPA   C86      CTL2    -0.180000       12.0110           0
     20057 LPSA19   1        ECLIPA   H86R     HAL2     0.900000E-01   1.00800           0
     20058 LPSA19   1        ECLIPA   H86S     HAL2     0.900000E-01   1.00800           0
     20059 LPSA19   1        ECLIPA   C87      CTL2    -0.180000       12.0110           0
     20060 LPSA19   1        ECLIPA   H87R     HAL2     0.900000E-01   1.00800           0
     20061 LPSA19   1        ECLIPA   H87S     HAL2     0.900000E-01   1.00800           0
     20062 LPSA19   1        ECLIPA   C88      CTL2    -0.180000       12.0110           0
     20063 LPSA19   1        ECLIPA   H88R     HAL2     0.900000E-01   1.00800           0
     20064 LPSA19   1        ECLIPA   H88S     HAL2     0.900000E-01   1.00800           0
     20065 LPSA19   1        ECLIPA   C89      CTL2    -0.180000       12.0110           0
     20066 LPSA19   1        ECLIPA   H89R     HAL2     0.900000E-01   1.00800           0
     20067 LPSA19   1        ECLIPA   H89S     HAL2     0.900000E-01   1.00800           0
     20068 LPSA19   1        ECLIPA   C810     CTL2    -0.180000       12.0110           0
     20069 LPSA19   1        ECLIPA   H810R    HAL2     0.900000E-01   1.00800           0
     20070 LPSA19   1        ECLIPA   H810S    HAL2     0.900000E-01   1.00800           0
     20071 LPSA19   1        ECLIPA   C811     CTL2    -0.180000       12.0110           0
     20072 LPSA19   1        ECLIPA   H811R    HAL2     0.900000E-01   1.00800           0
     20073 LPSA19   1        ECLIPA   H811S    HAL2     0.900000E-01   1.00800           0
     20074 LPSA19   1        ECLIPA   C812     CTL2    -0.180000       12.0110           0
     20075 LPSA19   1        ECLIPA   H812R    HAL2     0.900000E-01   1.00800           0
     20076 LPSA19   1        ECLIPA   H812S    HAL2     0.900000E-01   1.00800           0
     20077 LPSA19   1        ECLIPA   C813     CTL2    -0.180000       12.0110           0
     20078 LPSA19   1        ECLIPA   H813R    HAL2     0.900000E-01   1.00800           0
     20079 LPSA19   1        ECLIPA   H813S    HAL2     0.900000E-01   1.00800           0
     20080 LPSA19   1        ECLIPA   C814     CTL3    -0.270000       12.0110           0
     20081 LPSA19   1        ECLIPA   H814R    HAL3     0.900000E-01   1.00800           0
     20082 LPSA19   1        ECLIPA   H814S    HAL3     0.900000E-01   1.00800           0
     20083 LPSA19   1        ECLIPA   H814T    HAL3     0.900000E-01   1.00800           0
     20084 LPSA19   1        ECLIPA   C74      CTL2    -0.180000       12.0110           0
     20085 LPSA19   1        ECLIPA   H74R     HAL2     0.900000E-01   1.00800           0
     20086 LPSA19   1        ECLIPA   H74S     HAL2     0.900000E-01   1.00800           0
     20087 LPSA19   1        ECLIPA   C75      CTL2    -0.180000       12.0110           0
     20088 LPSA19   1        ECLIPA   H75R     HAL2     0.900000E-01   1.00800           0
     20089 LPSA19   1        ECLIPA   H75S     HAL2     0.900000E-01   1.00800           0
     20090 LPSA19   1        ECLIPA   C76      CTL2    -0.180000       12.0110           0
     20091 LPSA19   1        ECLIPA   H76R     HAL2     0.900000E-01   1.00800           0
     20092 LPSA19   1        ECLIPA   H76S     HAL2     0.900000E-01   1.00800           0
     20093 LPSA19   1        ECLIPA   C77      CTL2    -0.180000       12.0110           0
     20094 LPSA19   1        ECLIPA   H77R     HAL2     0.900000E-01   1.00800           0
     20095 LPSA19   1        ECLIPA   H77S     HAL2     0.900000E-01   1.00800           0
     20096 LPSA19   1        ECLIPA   C78      CTL2    -0.180000       12.0110           0
     20097 LPSA19   1        ECLIPA   H78R     HAL2     0.900000E-01   1.00800           0
     20098 LPSA19   1        ECLIPA   H78S     HAL2     0.900000E-01   1.00800           0
     20099 LPSA19   1        ECLIPA   C79      CTL2    -0.180000       12.0110           0
     20100 LPSA19   1        ECLIPA   H79R     HAL2     0.900000E-01   1.00800           0
     20101 LPSA19   1        ECLIPA   H79S     HAL2     0.900000E-01   1.00800           0
     20102 LPSA19   1        ECLIPA   C710     CTL2    -0.180000       12.0110           0
     20103 LPSA19   1        ECLIPA   H710R    HAL2     0.900000E-01   1.00800           0
     20104 LPSA19   1        ECLIPA   H710S    HAL2     0.900000E-01   1.00800           0
     20105 LPSA19   1        ECLIPA   C711     CTL2    -0.180000       12.0110           0
     20106 LPSA19   1        ECLIPA   H711R    HAL2     0.900000E-01   1.00800           0
     20107 LPSA19   1        ECLIPA   H711S    HAL2     0.900000E-01   1.00800           0
     20108 LPSA19   1        ECLIPA   C712     CTL2    -0.180000       12.0110           0
     20109 LPSA19   1        ECLIPA   H712R    HAL2     0.900000E-01   1.00800           0
     20110 LPSA19   1        ECLIPA   H712S    HAL2     0.900000E-01   1.00800           0
     20111 LPSA19   1        ECLIPA   C713     CTL2    -0.180000       12.0110           0
     20112 LPSA19   1        ECLIPA   H713R    HAL2     0.900000E-01   1.00800           0
     20113 LPSA19   1        ECLIPA   H713S    HAL2     0.900000E-01   1.00800           0
     20114 LPSA19   1        ECLIPA   C714     CTL3    -0.270000       12.0110           0
     20115 LPSA19   1        ECLIPA   H714R    HAL3     0.900000E-01   1.00800           0
     20116 LPSA19   1        ECLIPA   H714S    HAL3     0.900000E-01   1.00800           0
     20117 LPSA19   1        ECLIPA   H714T    HAL3     0.900000E-01   1.00800           0
     20118 LPSA19   1        ECLIPA   C51      CC2O1    0.550000       12.0110           0
     20119 LPSA19   1        ECLIPA   O51      OC2D1   -0.550000       15.9994           0
     20120 LPSA19   1        ECLIPA   C52      CTL2    -0.180000       12.0110           0
     20121 LPSA19   1        ECLIPA   H52R     HAL2     0.900000E-01   1.00800           0
     20122 LPSA19   1        ECLIPA   H52S     HAL2     0.900000E-01   1.00800           0
     20123 LPSA19   1        ECLIPA   C53      CTL1     0.170000       12.0110           0
     20124 LPSA19   1        ECLIPA   H53R     HAL1     0.900000E-01   1.00800           0
     20125 LPSA19   1        ECLIPA   O53      OSL     -0.490000       15.9994           0
     20126 LPSA19   1        ECLIPA   C61      CL       0.900000       12.0110           0
     20127 LPSA19   1        ECLIPA   O61      OBL     -0.630000       15.9994           0
     20128 LPSA19   1        ECLIPA   C62      CTL2    -0.220000       12.0110           0
     20129 LPSA19   1        ECLIPA   H62R     HAL2     0.900000E-01   1.00800           0
     20130 LPSA19   1        ECLIPA   H62S     HAL2     0.900000E-01   1.00800           0
     20131 LPSA19   1        ECLIPA   C63      CTL2    -0.180000       12.0110           0
     20132 LPSA19   1        ECLIPA   H63R     HAL2     0.900000E-01   1.00800           0
     20133 LPSA19   1        ECLIPA   H63S     HAL2     0.900000E-01   1.00800           0
     20134 LPSA19   1        ECLIPA   C64      CTL2    -0.180000       12.0110           0
     20135 LPSA19   1        ECLIPA   H64R     HAL2     0.900000E-01   1.00800           0
     20136 LPSA19   1        ECLIPA   H64S     HAL2     0.900000E-01   1.00800           0
     20137 LPSA19   1        ECLIPA   C65      CTL2    -0.180000       12.0110           0
     20138 LPSA19   1        ECLIPA   H65R     HAL2     0.900000E-01   1.00800           0
     20139 LPSA19   1        ECLIPA   H65S     HAL2     0.900000E-01   1.00800           0
     20140 LPSA19   1        ECLIPA   C66      CTL2    -0.180000       12.0110           0
     20141 LPSA19   1        ECLIPA   H66R     HAL2     0.900000E-01   1.00800           0
     20142 LPSA19   1        ECLIPA   H66S     HAL2     0.900000E-01   1.00800           0
     20143 LPSA19   1        ECLIPA   C67      CTL2    -0.180000       12.0110           0
     20144 LPSA19   1        ECLIPA   H67R     HAL2     0.900000E-01   1.00800           0
     20145 LPSA19   1        ECLIPA   H67S     HAL2     0.900000E-01   1.00800           0
     20146 LPSA19   1        ECLIPA   C68      CTL2    -0.180000       12.0110           0
     20147 LPSA19   1        ECLIPA   H68R     HAL2     0.900000E-01   1.00800           0
     20148 LPSA19   1        ECLIPA   H68S     HAL2     0.900000E-01   1.00800           0
     20149 LPSA19   1        ECLIPA   C69      CTL2    -0.180000       12.0110           0
     20150 LPSA19   1        ECLIPA   H69R     HAL2     0.900000E-01   1.00800           0
     20151 LPSA19   1        ECLIPA   H69S     HAL2     0.900000E-01   1.00800           0
     20152 LPSA19   1        ECLIPA   C610     CTL2    -0.180000       12.0110           0
     20153 LPSA19   1        ECLIPA   H610R    HAL2     0.900000E-01   1.00800           0
     20154 LPSA19   1        ECLIPA   H610S    HAL2     0.900000E-01   1.00800           0
     20155 LPSA19   1        ECLIPA   C611     CTL2    -0.180000       12.0110           0
     20156 LPSA19   1        ECLIPA   H611R    HAL2     0.900000E-01   1.00800           0
     20157 LPSA19   1        ECLIPA   H611S    HAL2     0.900000E-01   1.00800           0
     20158 LPSA19   1        ECLIPA   C612     CTL3    -0.270000       12.0110           0
     20159 LPSA19   1        ECLIPA   H612R    HAL3     0.900000E-01   1.00800           0
     20160 LPSA19   1        ECLIPA   H612S    HAL3     0.900000E-01   1.00800           0
     20161 LPSA19   1        ECLIPA   H612T    HAL3     0.900000E-01   1.00800           0
     20162 LPSA19   1        ECLIPA   C54      CTL2    -0.180000       12.0110           0
     20163 LPSA19   1        ECLIPA   H54R     HAL2     0.900000E-01   1.00800           0
     20164 LPSA19   1        ECLIPA   H54S     HAL2     0.900000E-01   1.00800           0
     20165 LPSA19   1        ECLIPA   C55      CTL2    -0.180000       12.0110           0
     20166 LPSA19   1        ECLIPA   H55R     HAL2     0.900000E-01   1.00800           0
     20167 LPSA19   1        ECLIPA   H55S     HAL2     0.900000E-01   1.00800           0
     20168 LPSA19   1        ECLIPA   C56      CTL2    -0.180000       12.0110           0
     20169 LPSA19   1        ECLIPA   H56R     HAL2     0.900000E-01   1.00800           0
     20170 LPSA19   1        ECLIPA   H56S     HAL2     0.900000E-01   1.00800           0
     20171 LPSA19   1        ECLIPA   C57      CTL2    -0.180000       12.0110           0
     20172 LPSA19   1        ECLIPA   H57R     HAL2     0.900000E-01   1.00800           0
     20173 LPSA19   1        ECLIPA   H57S     HAL2     0.900000E-01   1.00800           0
     20174 LPSA19   1        ECLIPA   C58      CTL2    -0.180000       12.0110           0
     20175 LPSA19   1        ECLIPA   H58R     HAL2     0.900000E-01   1.00800           0
     20176 LPSA19   1        ECLIPA   H58S     HAL2     0.900000E-01   1.00800           0
     20177 LPSA19   1        ECLIPA   C59      CTL2    -0.180000       12.0110           0
     20178 LPSA19   1        ECLIPA   H59R     HAL2     0.900000E-01   1.00800           0
     20179 LPSA19   1        ECLIPA   H59S     HAL2     0.900000E-01   1.00800           0
     20180 LPSA19   1        ECLIPA   C510     CTL2    -0.180000       12.0110           0
     20181 LPSA19   1        ECLIPA   H510R    HAL2     0.900000E-01   1.00800           0
     20182 LPSA19   1        ECLIPA   H510S    HAL2     0.900000E-01   1.00800           0
     20183 LPSA19   1        ECLIPA   C511     CTL2    -0.180000       12.0110           0
     20184 LPSA19   1        ECLIPA   H511R    HAL2     0.900000E-01   1.00800           0
     20185 LPSA19   1        ECLIPA   H511S    HAL2     0.900000E-01   1.00800           0
     20186 LPSA19   1        ECLIPA   C512     CTL2    -0.180000       12.0110           0
     20187 LPSA19   1        ECLIPA   H512R    HAL2     0.900000E-01   1.00800           0
     20188 LPSA19   1        ECLIPA   H512S    HAL2     0.900000E-01   1.00800           0
     20189 LPSA19   1        ECLIPA   C513     CTL2    -0.180000       12.0110           0
     20190 LPSA19   1        ECLIPA   H513R    HAL2     0.900000E-01   1.00800           0
     20191 LPSA19   1        ECLIPA   H513S    HAL2     0.900000E-01   1.00800           0
     20192 LPSA19   1        ECLIPA   C514     CTL3    -0.270000       12.0110           0
     20193 LPSA19   1        ECLIPA   H514R    HAL3     0.900000E-01   1.00800           0
     20194 LPSA19   1        ECLIPA   H514S    HAL3     0.900000E-01   1.00800           0
     20195 LPSA19   1        ECLIPA   H514T    HAL3     0.900000E-01   1.00800           0
     20196 LPSA19   1        ECLIPA   C33      CTL1     0.140000       12.0110           0
     20197 LPSA19   1        ECLIPA   H33R     HAL1     0.900000E-01   1.00800           0
     20198 LPSA19   1        ECLIPA   O33      OH1     -0.660000       15.9994           0
     20199 LPSA19   1        ECLIPA   HO33     H        0.430000       1.00800           0
     20200 LPSA19   1        ECLIPA   C34      CTL2    -0.180000       12.0110           0
     20201 LPSA19   1        ECLIPA   H34R     HAL2     0.900000E-01   1.00800           0
     20202 LPSA19   1        ECLIPA   H34S     HAL2     0.900000E-01   1.00800           0
     20203 LPSA19   1        ECLIPA   C35      CTL2    -0.180000       12.0110           0
     20204 LPSA19   1        ECLIPA   H35R     HAL2     0.900000E-01   1.00800           0
     20205 LPSA19   1        ECLIPA   H35S     HAL2     0.900000E-01   1.00800           0
     20206 LPSA19   1        ECLIPA   C36      CTL2    -0.180000       12.0110           0
     20207 LPSA19   1        ECLIPA   H36R     HAL2     0.900000E-01   1.00800           0
     20208 LPSA19   1        ECLIPA   H36S     HAL2     0.900000E-01   1.00800           0
     20209 LPSA19   1        ECLIPA   C37      CTL2    -0.180000       12.0110           0
     20210 LPSA19   1        ECLIPA   H37R     HAL2     0.900000E-01   1.00800           0
     20211 LPSA19   1        ECLIPA   H37S     HAL2     0.900000E-01   1.00800           0
     20212 LPSA19   1        ECLIPA   C38      CTL2    -0.180000       12.0110           0
     20213 LPSA19   1        ECLIPA   H38R     HAL2     0.900000E-01   1.00800           0
     20214 LPSA19   1        ECLIPA   H38S     HAL2     0.900000E-01   1.00800           0
     20215 LPSA19   1        ECLIPA   C39      CTL2    -0.180000       12.0110           0
     20216 LPSA19   1        ECLIPA   H39R     HAL2     0.900000E-01   1.00800           0
     20217 LPSA19   1        ECLIPA   H39S     HAL2     0.900000E-01   1.00800           0
     20218 LPSA19   1        ECLIPA   C310     CTL2    -0.180000       12.0110           0
     20219 LPSA19   1        ECLIPA   H310R    HAL2     0.900000E-01   1.00800           0
     20220 LPSA19   1        ECLIPA   H310S    HAL2     0.900000E-01   1.00800           0
     20221 LPSA19   1        ECLIPA   C311     CTL2    -0.180000       12.0110           0
     20222 LPSA19   1        ECLIPA   H311R    HAL2     0.900000E-01   1.00800           0
     20223 LPSA19   1        ECLIPA   H311S    HAL2     0.900000E-01   1.00800           0
     20224 LPSA19   1        ECLIPA   C312     CTL2    -0.180000       12.0110           0
     20225 LPSA19   1        ECLIPA   H312R    HAL2     0.900000E-01   1.00800           0
     20226 LPSA19   1        ECLIPA   H312S    HAL2     0.900000E-01   1.00800           0
     20227 LPSA19   1        ECLIPA   C313     CTL2    -0.180000       12.0110           0
     20228 LPSA19   1        ECLIPA   H313R    HAL2     0.900000E-01   1.00800           0
     20229 LPSA19   1        ECLIPA   H313S    HAL2     0.900000E-01   1.00800           0
     20230 LPSA19   1        ECLIPA   C314     CTL3    -0.270000       12.0110           0
     20231 LPSA19   1        ECLIPA   H314R    HAL3     0.900000E-01   1.00800           0
     20232 LPSA19   1        ECLIPA   H314S    HAL3     0.900000E-01   1.00800           0
     20233 LPSA19   1        ECLIPA   H314T    HAL3     0.900000E-01   1.00800           0
     20234 LPSA19   1        ECLIPA   C11      CC2O1    0.550000       12.0110           0
     20235 LPSA19   1        ECLIPA   O11      OC2D1   -0.550000       15.9994           0
     20236 LPSA19   1        ECLIPA   C12      CTL2    -0.180000       12.0110           0
     20237 LPSA19   1        ECLIPA   H12R     HAL2     0.900000E-01   1.00800           0
     20238 LPSA19   1        ECLIPA   H12S     HAL2     0.900000E-01   1.00800           0
     20239 LPSA19   1        ECLIPA   C13      CTL1     0.140000       12.0110           0
     20240 LPSA19   1        ECLIPA   H13R     HAL1     0.900000E-01   1.00800           0
     20241 LPSA19   1        ECLIPA   O13      OH1     -0.660000       15.9994           0
     20242 LPSA19   1        ECLIPA   HO13     H        0.430000       1.00800           0
     20243 LPSA19   1        ECLIPA   C14      CTL2    -0.180000       12.0110           0
     20244 LPSA19   1        ECLIPA   H14R     HAL2     0.900000E-01   1.00800           0
     20245 LPSA19   1        ECLIPA   H14S     HAL2     0.900000E-01   1.00800           0
     20246 LPSA19   1        ECLIPA   C15      CTL2    -0.180000       12.0110           0
     20247 LPSA19   1        ECLIPA   H15R     HAL2     0.900000E-01   1.00800           0
     20248 LPSA19   1        ECLIPA   H15S     HAL2     0.900000E-01   1.00800           0
     20249 LPSA19   1        ECLIPA   C16      CTL2    -0.180000       12.0110           0
     20250 LPSA19   1        ECLIPA   H16R     HAL2     0.900000E-01   1.00800           0
     20251 LPSA19   1        ECLIPA   H16S     HAL2     0.900000E-01   1.00800           0
     20252 LPSA19   1        ECLIPA   C17      CTL2    -0.180000       12.0110           0
     20253 LPSA19   1        ECLIPA   H17R     HAL2     0.900000E-01   1.00800           0
     20254 LPSA19   1        ECLIPA   H17S     HAL2     0.900000E-01   1.00800           0
     20255 LPSA19   1        ECLIPA   C18      CTL2    -0.180000       12.0110           0
     20256 LPSA19   1        ECLIPA   H18R     HAL2     0.900000E-01   1.00800           0
     20257 LPSA19   1        ECLIPA   H18S     HAL2     0.900000E-01   1.00800           0
     20258 LPSA19   1        ECLIPA   C19      CTL2    -0.180000       12.0110           0
     20259 LPSA19   1        ECLIPA   H19R     HAL2     0.900000E-01   1.00800           0
     20260 LPSA19   1        ECLIPA   H19S     HAL2     0.900000E-01   1.00800           0
     20261 LPSA19   1        ECLIPA   C110     CTL2    -0.180000       12.0110           0
     20262 LPSA19   1        ECLIPA   H110R    HAL2     0.900000E-01   1.00800           0
     20263 LPSA19   1        ECLIPA   H110S    HAL2     0.900000E-01   1.00800           0
     20264 LPSA19   1        ECLIPA   C111     CTL2    -0.180000       12.0110           0
     20265 LPSA19   1        ECLIPA   H111R    HAL2     0.900000E-01   1.00800           0
     20266 LPSA19   1        ECLIPA   H111S    HAL2     0.900000E-01   1.00800           0
     20267 LPSA19   1        ECLIPA   C112     CTL2    -0.180000       12.0110           0
     20268 LPSA19   1        ECLIPA   H112R    HAL2     0.900000E-01   1.00800           0
     20269 LPSA19   1        ECLIPA   H112S    HAL2     0.900000E-01   1.00800           0
     20270 LPSA19   1        ECLIPA   C113     CTL2    -0.180000       12.0110           0
     20271 LPSA19   1        ECLIPA   H113R    HAL2     0.900000E-01   1.00800           0
     20272 LPSA19   1        ECLIPA   H113S    HAL2     0.900000E-01   1.00800           0
     20273 LPSA19   1        ECLIPA   C114     CTL3    -0.270000       12.0110           0
     20274 LPSA19   1        ECLIPA   H114R    HAL3     0.900000E-01   1.00800           0
     20275 LPSA19   1        ECLIPA   H114S    HAL3     0.900000E-01   1.00800           0
     20276 LPSA19   1        ECLIPA   H114T    HAL3     0.900000E-01   1.00800           0
     20277 LPSA19   2        AKDO     C1       CC2O2    0.300000       12.0110           0
     20278 LPSA19   2        AKDO     O11      OC2D2   -0.600000       15.9994           0
     20279 LPSA19   2        AKDO     O12      OC2D2   -0.600000       15.9994           0
     20280 LPSA19   2        AKDO     C2       CC3062   0.280000       12.0110           0
     20281 LPSA19   2        AKDO     C6       CC3163   0.110000       12.0110           0
     20282 LPSA19   2        AKDO     H6       HCA1     0.900000E-01   1.00800           0
     20283 LPSA19   2        AKDO     O6       OC3C61  -0.400000       15.9994           0
     20284 LPSA19   2        AKDO     C3       CC3261  -0.180000       12.0110           0
     20285 LPSA19   2        AKDO     H31      HCA2     0.900000E-01   1.00800           0
     20286 LPSA19   2        AKDO     H32      HCA2     0.900000E-01   1.00800           0
     20287 LPSA19   2        AKDO     C4       CC3161   0.900000E-01   12.0110           0
     20288 LPSA19   2        AKDO     H4       HCA1     0.900000E-01   1.00800           0
     20289 LPSA19   2        AKDO     O4       OC301   -0.360000       15.9994           0
     20290 LPSA19   2        AKDO     C5       CC3161   0.900000E-01   12.0110           0
     20291 LPSA19   2        AKDO     H5       HCA1     0.900000E-01   1.00800           0
     20292 LPSA19   2        AKDO     O5       OC301   -0.360000       15.9994           0
     20293 LPSA19   2        AKDO     C7       CC312    0.140000       12.0110           0
     20294 LPSA19   2        AKDO     H7       HCA1     0.900000E-01   1.00800           0
     20295 LPSA19   2        AKDO     O7       OC311   -0.650000       15.9994           0
     20296 LPSA19   2        AKDO     HO7      HCP1     0.420000       1.00800           0
     20297 LPSA19   2        AKDO     C8       CC322    0.500000E-01   12.0110           0
     20298 LPSA19   2        AKDO     H81      HCA2     0.900000E-01   1.00800           0
     20299 LPSA19   2        AKDO     H82      HCA2     0.900000E-01   1.00800           0
     20300 LPSA19   2        AKDO     O8       OC311   -0.650000       15.9994           0
     20301 LPSA19   2        AKDO     HO8      HCP1     0.420000       1.00800           0
     20302 LPSA19   3        AKDO     C1       CC2O2    0.300000       12.0110           0
     20303 LPSA19   3        AKDO     O11      OC2D2   -0.600000       15.9994           0
     20304 LPSA19   3        AKDO     O12      OC2D2   -0.600000       15.9994           0
     20305 LPSA19   3        AKDO     C2       CC3062   0.280000       12.0110           0
     20306 LPSA19   3        AKDO     C6       CC3163   0.110000       12.0110           0
     20307 LPSA19   3        AKDO     H6       HCA1     0.900000E-01   1.00800           0
     20308 LPSA19   3        AKDO     O6       OC3C61  -0.400000       15.9994           0
     20309 LPSA19   3        AKDO     C3       CC3261  -0.180000       12.0110           0
     20310 LPSA19   3        AKDO     H31      HCA2     0.900000E-01   1.00800           0
     20311 LPSA19   3        AKDO     H32      HCA2     0.900000E-01   1.00800           0
     20312 LPSA19   3        AKDO     C4       CC3161   0.140000       12.0110           0
     20313 LPSA19   3        AKDO     H4       HCA1     0.900000E-01   1.00800           0
     20314 LPSA19   3        AKDO     O4       OC311   -0.650000       15.9994           0
     20315 LPSA19   3        AKDO     HO4      HCP1     0.420000       1.00800           0
     20316 LPSA19   3        AKDO     C5       CC3161   0.140000       12.0110           0
     20317 LPSA19   3        AKDO     H5       HCA1     0.900000E-01   1.00800           0
     20318 LPSA19   3        AKDO     O5       OC311   -0.650000       15.9994           0
     20319 LPSA19   3        AKDO     HO5      HCP1     0.420000       1.00800           0
     20320 LPSA19   3        AKDO     C7       CC312    0.140000       12.0110           0
     20321 LPSA19   3        AKDO     H7       HCA1     0.900000E-01   1.00800           0
     20322 LPSA19   3        AKDO     O7       OC311   -0.650000       15.9994           0
     20323 LPSA19   3        AKDO     HO7      HCP1     0.420000       1.00800           0
     20324 LPSA19   3        AKDO     C8       CC322    0.500000E-01   12.0110           0
     20325 LPSA19   3        AKDO     H81      HCA2     0.900000E-01   1.00800           0
     20326 LPSA19   3        AKDO     H82      HCA2     0.900000E-01   1.00800           0
     20327 LPSA19   3        AKDO     O8       OC311   -0.650000       15.9994           0
     20328 LPSA19   3        AKDO     HO8      HCP1     0.420000       1.00800           0
     20329 LPSA19   4        AHEP     C1       CC3162   0.290000       12.0110           0
     20330 LPSA19   4        AHEP     H1       HCA1     0.900000E-01   1.00800           0
     20331 LPSA19   4        AHEP     C5       CC3163   0.110000       12.0110           0
     20332 LPSA19   4        AHEP     H5       HCA1     0.900000E-01   1.00800           0
     20333 LPSA19   4        AHEP     O5       OC3C61  -0.400000       15.9994           0
     20334 LPSA19   4        AHEP     C2       CC3161   0.140000       12.0110           0
     20335 LPSA19   4        AHEP     H2       HCA1     0.900000E-01   1.00800           0
     20336 LPSA19   4        AHEP     O2       OC311   -0.650000       15.9994           0
     20337 LPSA19   4        AHEP     HO2      HCP1     0.420000       1.00800           0
     20338 LPSA19   4        AHEP     C3       CC3161   0.900000E-01   12.0110           0
     20339 LPSA19   4        AHEP     H3       HCA1     0.900000E-01   1.00800           0
     20340 LPSA19   4        AHEP     O3       OC301   -0.360000       15.9994           0
     20341 LPSA19   4        AHEP     C4       CC3161  -0.900000E-01   12.0110           0
     20342 LPSA19   4        AHEP     H4       HCA1     0.900000E-01   1.00800           0
     20343 LPSA19   4        AHEP     O4       OC30P   -0.400000       15.9994           0
     20344 LPSA19   4        AHEP     P4       PC        1.10000       30.9740           0
     20345 LPSA19   4        AHEP     OP42     OC2DP   -0.900000       15.9994           0
     20346 LPSA19   4        AHEP     OP43     OC2DP   -0.900000       15.9994           0
     20347 LPSA19   4        AHEP     OP44     OC2DP   -0.900000       15.9994           0
     20348 LPSA19   4        AHEP     C6       CC312    0.140000       12.0110           0
     20349 LPSA19   4        AHEP     H6       HCA1     0.900000E-01   1.00800           0
     20350 LPSA19   4        AHEP     O6       OC311   -0.650000       15.9994           0
     20351 LPSA19   4        AHEP     HO6      HCP1     0.420000       1.00800           0
     20352 LPSA19   4        AHEP     C7       CC322    0.500000E-01   12.0110           0
     20353 LPSA19   4        AHEP     H71      HCA2     0.900000E-01   1.00800           0
     20354 LPSA19   4        AHEP     H72      HCA2     0.900000E-01   1.00800           0
     20355 LPSA19   4        AHEP     O7       OC311   -0.650000       15.9994           0
     20356 LPSA19   4        AHEP     HO7      HCP1     0.420000       1.00800           0
     20357 LPSA19   5        AHEP     C1       CC3162   0.290000       12.0110           0
     20358 LPSA19   5        AHEP     H1       HCA1     0.900000E-01   1.00800           0
     20359 LPSA19   5        AHEP     C5       CC3163   0.110000       12.0110           0
     20360 LPSA19   5        AHEP     H5       HCA1     0.900000E-01   1.00800           0
     20361 LPSA19   5        AHEP     O5       OC3C61  -0.400000       15.9994           0
     20362 LPSA19   5        AHEP     C2       CC3161   0.140000       12.0110           0
     20363 LPSA19   5        AHEP     H2       HCA1     0.900000E-01   1.00800           0
     20364 LPSA19   5        AHEP     O2       OC311   -0.650000       15.9994           0
     20365 LPSA19   5        AHEP     HO2      HCP1     0.420000       1.00800           0
     20366 LPSA19   5        AHEP     C3       CC3161   0.900000E-01   12.0110           0
     20367 LPSA19   5        AHEP     H3       HCA1     0.900000E-01   1.00800           0
     20368 LPSA19   5        AHEP     O3       OC301   -0.360000       15.9994           0
     20369 LPSA19   5        AHEP     C4       CC3161  -0.900000E-01   12.0110           0
     20370 LPSA19   5        AHEP     H4       HCA1     0.900000E-01   1.00800           0
     20371 LPSA19   5        AHEP     O4       OC30P   -0.400000       15.9994           0
     20372 LPSA19   5        AHEP     P4       PC        1.10000       30.9740           0
     20373 LPSA19   5        AHEP     OP42     OC2DP   -0.900000       15.9994           0
     20374 LPSA19   5        AHEP     OP43     OC2DP   -0.900000       15.9994           0
     20375 LPSA19   5        AHEP     OP44     OC2DP   -0.900000       15.9994           0
     20376 LPSA19   5        AHEP     C6       CC312    0.140000       12.0110           0
     20377 LPSA19   5        AHEP     H6       HCA1     0.900000E-01   1.00800           0
     20378 LPSA19   5        AHEP     O6       OC311   -0.650000       15.9994           0
     20379 LPSA19   5        AHEP     HO6      HCP1     0.420000       1.00800           0
     20380 LPSA19   5        AHEP     C7       CC322     0.00000       12.0110           0
     20381 LPSA19   5        AHEP     H71      HCA2     0.900000E-01   1.00800           0
     20382 LPSA19   5        AHEP     H72      HCA2     0.900000E-01   1.00800           0
     20383 LPSA19   5        AHEP     O7       OC301   -0.360000       15.9994           0
     20384 LPSA19   6        AHEP     C1       CC3162   0.290000       12.0110           0
     20385 LPSA19   6        AHEP     H1       HCA1     0.900000E-01   1.00800           0
     20386 LPSA19   6        AHEP     C5       CC3163   0.110000       12.0110           0
     20387 LPSA19   6        AHEP     H5       HCA1     0.900000E-01   1.00800           0
     20388 LPSA19   6        AHEP     O5       OC3C61  -0.400000       15.9994           0
     20389 LPSA19   6        AHEP     C2       CC3161   0.140000       12.0110           0
     20390 LPSA19   6        AHEP     H2       HCA1     0.900000E-01   1.00800           0
     20391 LPSA19   6        AHEP     O2       OC311   -0.650000       15.9994           0
     20392 LPSA19   6        AHEP     HO2      HCP1     0.420000       1.00800           0
     20393 LPSA19   6        AHEP     C3       CC3161   0.140000       12.0110           0
     20394 LPSA19   6        AHEP     H3       HCA1     0.900000E-01   1.00800           0
     20395 LPSA19   6        AHEP     O3       OC311   -0.650000       15.9994           0
     20396 LPSA19   6        AHEP     HO3      HCP1     0.420000       1.00800           0
     20397 LPSA19   6        AHEP     C4       CC3161   0.140000       12.0110           0
     20398 LPSA19   6        AHEP     H4       HCA1     0.900000E-01   1.00800           0
     20399 LPSA19   6        AHEP     O4       OC311   -0.650000       15.9994           0
     20400 LPSA19   6        AHEP     HO4      HCP1     0.420000       1.00800           0
     20401 LPSA19   6        AHEP     C6       CC312    0.140000       12.0110           0
     20402 LPSA19   6        AHEP     H6       HCA1     0.900000E-01   1.00800           0
     20403 LPSA19   6        AHEP     O6       OC311   -0.650000       15.9994           0
     20404 LPSA19   6        AHEP     HO6      HCP1     0.420000       1.00800           0
     20405 LPSA19   6        AHEP     C7       CC322    0.500000E-01   12.0110           0
     20406 LPSA19   6        AHEP     H71      HCA2     0.900000E-01   1.00800           0
     20407 LPSA19   6        AHEP     H72      HCA2     0.900000E-01   1.00800           0
     20408 LPSA19   6        AHEP     O7       OC311   -0.650000       15.9994           0
     20409 LPSA19   6        AHEP     HO7      HCP1     0.420000       1.00800           0
     20410 LPSA19   7        AGLC     C1       CC3162   0.290000       12.0110           0
     20411 LPSA19   7        AGLC     H1       HCA1     0.900000E-01   1.00800           0
     20412 LPSA19   7        AGLC     C5       CC3163   0.110000       12.0110           0
     20413 LPSA19   7        AGLC     H5       HCA1     0.900000E-01   1.00800           0
     20414 LPSA19   7        AGLC     O5       OC3C61  -0.400000       15.9994           0
     20415 LPSA19   7        AGLC     C2       CC3161   0.140000       12.0110           0
     20416 LPSA19   7        AGLC     H2       HCA1     0.900000E-01   1.00800           0
     20417 LPSA19   7        AGLC     O2       OC311   -0.650000       15.9994           0
     20418 LPSA19   7        AGLC     HO2      HCP1     0.420000       1.00800           0
     20419 LPSA19   7        AGLC     C3       CC3161   0.900000E-01   12.0110           0
     20420 LPSA19   7        AGLC     H3       HCA1     0.900000E-01   1.00800           0
     20421 LPSA19   7        AGLC     O3       OC301   -0.360000       15.9994           0
     20422 LPSA19   7        AGLC     C4       CC3161   0.140000       12.0110           0
     20423 LPSA19   7        AGLC     H4       HCA1     0.900000E-01   1.00800           0
     20424 LPSA19   7        AGLC     O4       OC311   -0.650000       15.9994           0
     20425 LPSA19   7        AGLC     HO4      HCP1     0.420000       1.00800           0
     20426 LPSA19   7        AGLC     C6       CC321    0.500000E-01   12.0110           0
     20427 LPSA19   7        AGLC     H61      HCA2     0.900000E-01   1.00800           0
     20428 LPSA19   7        AGLC     H62      HCA2     0.900000E-01   1.00800           0
     20429 LPSA19   7        AGLC     O6       OC311   -0.650000       15.9994           0
     20430 LPSA19   7        AGLC     HO6      HCP1     0.420000       1.00800           0
     20431 LPSA19   8        AGLC     C1       CC3162   0.290000       12.0110           0
     20432 LPSA19   8        AGLC     H1       HCA1     0.900000E-01   1.00800           0
     20433 LPSA19   8        AGLC     C5       CC3163   0.110000       12.0110           0
     20434 LPSA19   8        AGLC     H5       HCA1     0.900000E-01   1.00800           0
     20435 LPSA19   8        AGLC     O5       OC3C61  -0.400000       15.9994           0
     20436 LPSA19   8        AGLC     C2       CC3161   0.900000E-01   12.0110           0
     20437 LPSA19   8        AGLC     H2       HCA1     0.900000E-01   1.00800           0
     20438 LPSA19   8        AGLC     O2       OC301   -0.360000       15.9994           0
     20439 LPSA19   8        AGLC     C3       CC3161   0.900000E-01   12.0110           0
     20440 LPSA19   8        AGLC     H3       HCA1     0.900000E-01   1.00800           0
     20441 LPSA19   8        AGLC     O3       OC301   -0.360000       15.9994           0
     20442 LPSA19   8        AGLC     C4       CC3161   0.140000       12.0110           0
     20443 LPSA19   8        AGLC     H4       HCA1     0.900000E-01   1.00800           0
     20444 LPSA19   8        AGLC     O4       OC311   -0.650000       15.9994           0
     20445 LPSA19   8        AGLC     HO4      HCP1     0.420000       1.00800           0
     20446 LPSA19   8        AGLC     C6       CC321    0.500000E-01   12.0110           0
     20447 LPSA19   8        AGLC     H61      HCA2     0.900000E-01   1.00800           0
     20448 LPSA19   8        AGLC     H62      HCA2     0.900000E-01   1.00800           0
     20449 LPSA19   8        AGLC     O6       OC311   -0.650000       15.9994           0
     20450 LPSA19   8        AGLC     HO6      HCP1     0.420000       1.00800           0
     20451 LPSA19   9        AGAL     C1       CC3162   0.290000       12.0110           0
     20452 LPSA19   9        AGAL     H1       HCA1     0.900000E-01   1.00800           0
     20453 LPSA19   9        AGAL     C5       CC3163   0.110000       12.0110           0
     20454 LPSA19   9        AGAL     H5       HCA1     0.900000E-01   1.00800           0
     20455 LPSA19   9        AGAL     O5       OC3C61  -0.400000       15.9994           0
     20456 LPSA19   9        AGAL     C2       CC3161   0.900000E-01   12.0110           0
     20457 LPSA19   9        AGAL     H2       HCA1     0.900000E-01   1.00800           0
     20458 LPSA19   9        AGAL     O2       OC301   -0.360000       15.9994           0
     20459 LPSA19   9        AGAL     C3       CC3161   0.140000       12.0110           0
     20460 LPSA19   9        AGAL     H3       HCA1     0.900000E-01   1.00800           0
     20461 LPSA19   9        AGAL     O3       OC311   -0.650000       15.9994           0
     20462 LPSA19   9        AGAL     HO3      HCP1     0.420000       1.00800           0
     20463 LPSA19   9        AGAL     C4       CC3161   0.140000       12.0110           0
     20464 LPSA19   9        AGAL     H4       HCA1     0.900000E-01   1.00800           0
     20465 LPSA19   9        AGAL     O4       OC311   -0.650000       15.9994           0
     20466 LPSA19   9        AGAL     HO4      HCP1     0.420000       1.00800           0
     20467 LPSA19   9        AGAL     C6       CC321    0.500000E-01   12.0110           0
     20468 LPSA19   9        AGAL     H61      HCA2     0.900000E-01   1.00800           0
     20469 LPSA19   9        AGAL     H62      HCA2     0.900000E-01   1.00800           0
     20470 LPSA19   9        AGAL     O6       OC311   -0.650000       15.9994           0
     20471 LPSA19   9        AGAL     HO6      HCP1     0.420000       1.00800           0
     20472 LPSA19   10       AGAL     C1       CC3162   0.290000       12.0110           0
     20473 LPSA19   10       AGAL     H1       HCA1     0.900000E-01   1.00800           0
     20474 LPSA19   10       AGAL     C5       CC3163   0.110000       12.0110           0
     20475 LPSA19   10       AGAL     H5       HCA1     0.900000E-01   1.00800           0
     20476 LPSA19   10       AGAL     O5       OC3C61  -0.400000       15.9994           0
     20477 LPSA19   10       AGAL     C2       CC3161   0.140000       12.0110           0
     20478 LPSA19   10       AGAL     H2       HCA1     0.900000E-01   1.00800           0
     20479 LPSA19   10       AGAL     O2       OC311   -0.650000       15.9994           0
     20480 LPSA19   10       AGAL     HO2      HCP1     0.420000       1.00800           0
     20481 LPSA19   10       AGAL     C3       CC3161   0.140000       12.0110           0
     20482 LPSA19   10       AGAL     H3       HCA1     0.900000E-01   1.00800           0
     20483 LPSA19   10       AGAL     O3       OC311   -0.650000       15.9994           0
     20484 LPSA19   10       AGAL     HO3      HCP1     0.420000       1.00800           0
     20485 LPSA19   10       AGAL     C4       CC3161   0.140000       12.0110           0
     20486 LPSA19   10       AGAL     H4       HCA1     0.900000E-01   1.00800           0
     20487 LPSA19   10       AGAL     O4       OC311   -0.650000       15.9994           0
     20488 LPSA19   10       AGAL     HO4      HCP1     0.420000       1.00800           0
     20489 LPSA19   10       AGAL     C6       CC321    0.500000E-01   12.0110           0
     20490 LPSA19   10       AGAL     H61      HCA2     0.900000E-01   1.00800           0
     20491 LPSA19   10       AGAL     H62      HCA2     0.900000E-01   1.00800           0
     20492 LPSA19   10       AGAL     O6       OC311   -0.650000       15.9994           0
     20493 LPSA19   10       AGAL     HO6      HCP1     0.420000       1.00800           0
     20494 LPSA19   11       BGLC     C1       CC3162   0.290000       12.0110           0
     20495 LPSA19   11       BGLC     H1       HCA1     0.900000E-01   1.00800           0
     20496 LPSA19   11       BGLC     C5       CC3163   0.110000       12.0110           0
     20497 LPSA19   11       BGLC     H5       HCA1     0.900000E-01   1.00800           0
     20498 LPSA19   11       BGLC     O5       OC3C61  -0.400000       15.9994           0
     20499 LPSA19   11       BGLC     C2       CC3161   0.140000       12.0110           0
     20500 LPSA19   11       BGLC     H2       HCA1     0.900000E-01   1.00800           0
     20501 LPSA19   11       BGLC     O2       OC311   -0.650000       15.9994           0
     20502 LPSA19   11       BGLC     HO2      HCP1     0.420000       1.00800           0
     20503 LPSA19   11       BGLC     C3       CC3161   0.900000E-01   12.0110           0
     20504 LPSA19   11       BGLC     H3       HCA1     0.900000E-01   1.00800           0
     20505 LPSA19   11       BGLC     O3       OC301   -0.360000       15.9994           0
     20506 LPSA19   11       BGLC     C4       CC3161   0.140000       12.0110           0
     20507 LPSA19   11       BGLC     H4       HCA1     0.900000E-01   1.00800           0
     20508 LPSA19   11       BGLC     O4       OC311   -0.650000       15.9994           0
     20509 LPSA19   11       BGLC     HO4      HCP1     0.420000       1.00800           0
     20510 LPSA19   11       BGLC     C6       CC321    0.500000E-01   12.0110           0
     20511 LPSA19   11       BGLC     H61      HCA2     0.900000E-01   1.00800           0
     20512 LPSA19   11       BGLC     H62      HCA2     0.900000E-01   1.00800           0
     20513 LPSA19   11       BGLC     O6       OC311   -0.650000       15.9994           0
     20514 LPSA19   11       BGLC     HO6      HCP1     0.420000       1.00800           0
     20515 LPSA19   12       BGLCNA   C1       CC3162   0.290000       12.0110           0
     20516 LPSA19   12       BGLCNA   H1       HCA1     0.900000E-01   1.00800           0
     20517 LPSA19   12       BGLCNA   C5       CC3163   0.110000       12.0110           0
     20518 LPSA19   12       BGLCNA   H5       HCA1     0.900000E-01   1.00800           0
     20519 LPSA19   12       BGLCNA   O5       OC3C61  -0.400000       15.9994           0
     20520 LPSA19   12       BGLCNA   C2       CC3161   0.700000E-01   12.0110           0
     20521 LPSA19   12       BGLCNA   H2       HCA1     0.900000E-01   1.00800           0
     20522 LPSA19   12       BGLCNA   N        NC2D1   -0.470000       14.0070           0
     20523 LPSA19   12       BGLCNA   HN       HCP1     0.310000       1.00800           0
     20524 LPSA19   12       BGLCNA   C        CC2O1    0.510000       12.0110           0
     20525 LPSA19   12       BGLCNA   O        OC2D1   -0.510000       15.9994           0
     20526 LPSA19   12       BGLCNA   CT       CC331   -0.270000       12.0110           0
     20527 LPSA19   12       BGLCNA   HT1      HCA3     0.900000E-01   1.00800           0
     20528 LPSA19   12       BGLCNA   HT2      HCA3     0.900000E-01   1.00800           0
     20529 LPSA19   12       BGLCNA   HT3      HCA3     0.900000E-01   1.00800           0
     20530 LPSA19   12       BGLCNA   C3       CC3161   0.900000E-01   12.0110           0
     20531 LPSA19   12       BGLCNA   H3       HCA1     0.900000E-01   1.00800           0
     20532 LPSA19   12       BGLCNA   O3       OC301   -0.360000       15.9994           0
     20533 LPSA19   12       BGLCNA   C4       CC3161   0.140000       12.0110           0
     20534 LPSA19   12       BGLCNA   H4       HCA1     0.900000E-01   1.00800           0
     20535 LPSA19   12       BGLCNA   O4       OC311   -0.650000       15.9994           0
     20536 LPSA19   12       BGLCNA   HO4      HCP1     0.420000       1.00800           0
     20537 LPSA19   12       BGLCNA   C6       CC321    0.500000E-01   12.0110           0
     20538 LPSA19   12       BGLCNA   H61      HCA2     0.900000E-01   1.00800           0
     20539 LPSA19   12       BGLCNA   H62      HCA2     0.900000E-01   1.00800           0
     20540 LPSA19   12       BGLCNA   O6       OC311   -0.650000       15.9994           0
     20541 LPSA19   12       BGLCNA   HO6      HCP1     0.420000       1.00800           0
     20542 LPSA19   13       AGAL     C1       CC3162   0.290000       12.0110           0
     20543 LPSA19   13       AGAL     H1       HCA1     0.900000E-01   1.00800           0
     20544 LPSA19   13       AGAL     C5       CC3163   0.110000       12.0110           0
     20545 LPSA19   13       AGAL     H5       HCA1     0.900000E-01   1.00800           0
     20546 LPSA19   13       AGAL     O5       OC3C61  -0.400000       15.9994           0
     20547 LPSA19   13       AGAL     C2       CC3161   0.900000E-01   12.0110           0
     20548 LPSA19   13       AGAL     H2       HCA1     0.900000E-01   1.00800           0
     20549 LPSA19   13       AGAL     O2       OC301   -0.360000       15.9994           0
     20550 LPSA19   13       AGAL     C3       CC3161   0.140000       12.0110           0
     20551 LPSA19   13       AGAL     H3       HCA1     0.900000E-01   1.00800           0
     20552 LPSA19   13       AGAL     O3       OC311   -0.650000       15.9994           0
     20553 LPSA19   13       AGAL     HO3      HCP1     0.420000       1.00800           0
     20554 LPSA19   13       AGAL     C4       CC3161   0.140000       12.0110           0
     20555 LPSA19   13       AGAL     H4       HCA1     0.900000E-01   1.00800           0
     20556 LPSA19   13       AGAL     O4       OC311   -0.650000       15.9994           0
     20557 LPSA19   13       AGAL     HO4      HCP1     0.420000       1.00800           0
     20558 LPSA19   13       AGAL     C6       CC321    0.500000E-01   12.0110           0
     20559 LPSA19   13       AGAL     H61      HCA2     0.900000E-01   1.00800           0
     20560 LPSA19   13       AGAL     H62      HCA2     0.900000E-01   1.00800           0
     20561 LPSA19   13       AGAL     O6       OC311   -0.650000       15.9994           0
     20562 LPSA19   13       AGAL     HO6      HCP1     0.420000       1.00800           0
     20563 LPSA19   14       ARHM     C1       CC3162   0.290000       12.0110           0
     20564 LPSA19   14       ARHM     H1       HCA1     0.900000E-01   1.00800           0
     20565 LPSA19   14       ARHM     C5       CC3163   0.110000       12.0110           0
     20566 LPSA19   14       ARHM     H5       HCA1     0.900000E-01   1.00800           0
     20567 LPSA19   14       ARHM     O5       OC3C61  -0.400000       15.9994           0
     20568 LPSA19   14       ARHM     C2       CC3161   0.900000E-01   12.0110           0
     20569 LPSA19   14       ARHM     H2       HCA1     0.900000E-01   1.00800           0
     20570 LPSA19   14       ARHM     O2       OC301   -0.360000       15.9994           0
     20571 LPSA19   14       ARHM     C3       CC3161   0.140000       12.0110           0
     20572 LPSA19   14       ARHM     H3       HCA1     0.900000E-01   1.00800           0
     20573 LPSA19   14       ARHM     O3       OC311   -0.650000       15.9994           0
     20574 LPSA19   14       ARHM     HO3      HCP1     0.420000       1.00800           0
     20575 LPSA19   14       ARHM     C4       CC3161   0.140000       12.0110           0
     20576 LPSA19   14       ARHM     H4       HCA1     0.900000E-01   1.00800           0
     20577 LPSA19   14       ARHM     O4       OC311   -0.650000       15.9994           0
     20578 LPSA19   14       ARHM     HO4      HCP1     0.420000       1.00800           0
     20579 LPSA19   14       ARHM     C6       CC331   -0.270000       12.0110           0
     20580 LPSA19   14       ARHM     H61      HCA3     0.900000E-01   1.00800           0
     20581 LPSA19   14       ARHM     H62      HCA3     0.900000E-01   1.00800           0
     20582 LPSA19   14       ARHM     H63      HCA3     0.900000E-01   1.00800           0
     20583 LPSA19   15       ARHM     C1       CC3162   0.290000       12.0110           0
     20584 LPSA19   15       ARHM     H1       HCA1     0.900000E-01   1.00800           0
     20585 LPSA19   15       ARHM     C5       CC3163   0.110000       12.0110           0
     20586 LPSA19   15       ARHM     H5       HCA1     0.900000E-01   1.00800           0
     20587 LPSA19   15       ARHM     O5       OC3C61  -0.400000       15.9994           0
     20588 LPSA19   15       ARHM     C2       CC3161   0.900000E-01   12.0110           0
     20589 LPSA19   15       ARHM     H2       HCA1     0.900000E-01   1.00800           0
     20590 LPSA19   15       ARHM     O2       OC301   -0.360000       15.9994           0
     20591 LPSA19   15       ARHM     C3       CC3161   0.900000E-01   12.0110           0
     20592 LPSA19   15       ARHM     H3       HCA1     0.900000E-01   1.00800           0
     20593 LPSA19   15       ARHM     O3       OC301   -0.360000       15.9994           0
     20594 LPSA19   15       ARHM     C4       CC3161   0.140000       12.0110           0
     20595 LPSA19   15       ARHM     H4       HCA1     0.900000E-01   1.00800           0
     20596 LPSA19   15       ARHM     O4       OC311   -0.650000       15.9994           0
     20597 LPSA19   15       ARHM     HO4      HCP1     0.420000       1.00800           0
     20598 LPSA19   15       ARHM     C6       CC331   -0.270000       12.0110           0
     20599 LPSA19   15       ARHM     H61      HCA3     0.900000E-01   1.00800           0
     20600 LPSA19   15       ARHM     H62      HCA3     0.900000E-01   1.00800           0
     20601 LPSA19   15       ARHM     H63      HCA3     0.900000E-01   1.00800           0
     20602 LPSA19   16       BMANNA   C1       CC3162   0.290000       12.0110           0
     20603 LPSA19   16       BMANNA   H1       HCA1     0.900000E-01   1.00800           0
     20604 LPSA19   16       BMANNA   C5       CC3163   0.110000       12.0110           0
     20605 LPSA19   16       BMANNA   H5       HCA1     0.900000E-01   1.00800           0
     20606 LPSA19   16       BMANNA   O5       OC3C61  -0.400000       15.9994           0
     20607 LPSA19   16       BMANNA   C2       CC3161   0.700000E-01   12.0110           0
     20608 LPSA19   16       BMANNA   H2       HCA1     0.900000E-01   1.00800           0
     20609 LPSA19   16       BMANNA   N        NC2D1   -0.470000       14.0070           0
     20610 LPSA19   16       BMANNA   HN       HCP1     0.310000       1.00800           0
     20611 LPSA19   16       BMANNA   C        CC2O1    0.510000       12.0110           0
     20612 LPSA19   16       BMANNA   O        OC2D1   -0.510000       15.9994           0
     20613 LPSA19   16       BMANNA   CT       CC331   -0.270000       12.0110           0
     20614 LPSA19   16       BMANNA   HT1      HCA3     0.900000E-01   1.00800           0
     20615 LPSA19   16       BMANNA   HT2      HCA3     0.900000E-01   1.00800           0
     20616 LPSA19   16       BMANNA   HT3      HCA3     0.900000E-01   1.00800           0
     20617 LPSA19   16       BMANNA   C3       CC3161   0.140000       12.0110           0
     20618 LPSA19   16       BMANNA   H3       HCA1     0.900000E-01   1.00800           0
     20619 LPSA19   16       BMANNA   O3       OC311   -0.650000       15.9994           0
     20620 LPSA19   16       BMANNA   HO3      HCP1     0.420000       1.00800           0
     20621 LPSA19   16       BMANNA   C4       CC3161   0.140000       12.0110           0
     20622 LPSA19   16       BMANNA   H4       HCA1     0.900000E-01   1.00800           0
     20623 LPSA19   16       BMANNA   O4       OC311   -0.650000       15.9994           0
     20624 LPSA19   16       BMANNA   HO4      HCP1     0.420000       1.00800           0
     20625 LPSA19   16       BMANNA   C6       CC321    0.500000E-01   12.0110           0
     20626 LPSA19   16       BMANNA   H61      HCA2     0.900000E-01   1.00800           0
     20627 LPSA19   16       BMANNA   H62      HCA2     0.900000E-01   1.00800           0
     20628 LPSA19   16       BMANNA   O6       OC311   -0.650000       15.9994           0
     20629 LPSA19   16       BMANNA   HO6      HCP1     0.420000       1.00800           0
     20630 LPSA19   17       BGLCNA   C1       CC3162   0.290000       12.0110           0
     20631 LPSA19   17       BGLCNA   H1       HCA1     0.900000E-01   1.00800           0
     20632 LPSA19   17       BGLCNA   C5       CC3163   0.110000       12.0110           0
     20633 LPSA19   17       BGLCNA   H5       HCA1     0.900000E-01   1.00800           0
     20634 LPSA19   17       BGLCNA   O5       OC3C61  -0.400000       15.9994           0
     20635 LPSA19   17       BGLCNA   C2       CC3161   0.700000E-01   12.0110           0
     20636 LPSA19   17       BGLCNA   H2       HCA1     0.900000E-01   1.00800           0
     20637 LPSA19   17       BGLCNA   N        NC2D1   -0.470000       14.0070           0
     20638 LPSA19   17       BGLCNA   HN       HCP1     0.310000       1.00800           0
     20639 LPSA19   17       BGLCNA   C        CC2O1    0.510000       12.0110           0
     20640 LPSA19   17       BGLCNA   O        OC2D1   -0.510000       15.9994           0
     20641 LPSA19   17       BGLCNA   CT       CC331   -0.270000       12.0110           0
     20642 LPSA19   17       BGLCNA   HT1      HCA3     0.900000E-01   1.00800           0
     20643 LPSA19   17       BGLCNA   HT2      HCA3     0.900000E-01   1.00800           0
     20644 LPSA19   17       BGLCNA   HT3      HCA3     0.900000E-01   1.00800           0
     20645 LPSA19   17       BGLCNA   C3       CC3161   0.900000E-01   12.0110           0
     20646 LPSA19   17       BGLCNA   H3       HCA1     0.900000E-01   1.00800           0
     20647 LPSA19   17       BGLCNA   O3       OC301   -0.360000       15.9994           0
     20648 LPSA19   17       BGLCNA   C4       CC3161   0.140000       12.0110           0
     20649 LPSA19   17       BGLCNA   H4       HCA1     0.900000E-01   1.00800           0
     20650 LPSA19   17       BGLCNA   O4       OC311   -0.650000       15.9994           0
     20651 LPSA19   17       BGLCNA   HO4      HCP1     0.420000       1.00800           0
     20652 LPSA19   17       BGLCNA   C6       CC321    0.500000E-01   12.0110           0
     20653 LPSA19   17       BGLCNA   H61      HCA2     0.900000E-01   1.00800           0
     20654 LPSA19   17       BGLCNA   H62      HCA2     0.900000E-01   1.00800           0
     20655 LPSA19   17       BGLCNA   O6       OC311   -0.650000       15.9994           0
     20656 LPSA19   17       BGLCNA   HO6      HCP1     0.420000       1.00800           0
     20657 LPSA19   18       AGAL     C1       CC3162   0.290000       12.0110           0
     20658 LPSA19   18       AGAL     H1       HCA1     0.900000E-01   1.00800           0
     20659 LPSA19   18       AGAL     C5       CC3163   0.110000       12.0110           0
     20660 LPSA19   18       AGAL     H5       HCA1     0.900000E-01   1.00800           0
     20661 LPSA19   18       AGAL     O5       OC3C61  -0.400000       15.9994           0
     20662 LPSA19   18       AGAL     C2       CC3161   0.900000E-01   12.0110           0
     20663 LPSA19   18       AGAL     H2       HCA1     0.900000E-01   1.00800           0
     20664 LPSA19   18       AGAL     O2       OC301   -0.360000       15.9994           0
     20665 LPSA19   18       AGAL     C3       CC3161   0.140000       12.0110           0
     20666 LPSA19   18       AGAL     H3       HCA1     0.900000E-01   1.00800           0
     20667 LPSA19   18       AGAL     O3       OC311   -0.650000       15.9994           0
     20668 LPSA19   18       AGAL     HO3      HCP1     0.420000       1.00800           0
     20669 LPSA19   18       AGAL     C4       CC3161   0.140000       12.0110           0
     20670 LPSA19   18       AGAL     H4       HCA1     0.900000E-01   1.00800           0
     20671 LPSA19   18       AGAL     O4       OC311   -0.650000       15.9994           0
     20672 LPSA19   18       AGAL     HO4      HCP1     0.420000       1.00800           0
     20673 LPSA19   18       AGAL     C6       CC321    0.500000E-01   12.0110           0
     20674 LPSA19   18       AGAL     H61      HCA2     0.900000E-01   1.00800           0
     20675 LPSA19   18       AGAL     H62      HCA2     0.900000E-01   1.00800           0
     20676 LPSA19   18       AGAL     O6       OC311   -0.650000       15.9994           0
     20677 LPSA19   18       AGAL     HO6      HCP1     0.420000       1.00800           0
     20678 LPSA19   19       ARHM     C1       CC3162   0.290000       12.0110           0
     20679 LPSA19   19       ARHM     H1       HCA1     0.900000E-01   1.00800           0
     20680 LPSA19   19       ARHM     C5       CC3163   0.110000       12.0110           0
     20681 LPSA19   19       ARHM     H5       HCA1     0.900000E-01   1.00800           0
     20682 LPSA19   19       ARHM     O5       OC3C61  -0.400000       15.9994           0
     20683 LPSA19   19       ARHM     C2       CC3161   0.900000E-01   12.0110           0
     20684 LPSA19   19       ARHM     H2       HCA1     0.900000E-01   1.00800           0
     20685 LPSA19   19       ARHM     O2       OC301   -0.360000       15.9994           0
     20686 LPSA19   19       ARHM     C3       CC3161   0.140000       12.0110           0
     20687 LPSA19   19       ARHM     H3       HCA1     0.900000E-01   1.00800           0
     20688 LPSA19   19       ARHM     O3       OC311   -0.650000       15.9994           0
     20689 LPSA19   19       ARHM     HO3      HCP1     0.420000       1.00800           0
     20690 LPSA19   19       ARHM     C4       CC3161   0.140000       12.0110           0
     20691 LPSA19   19       ARHM     H4       HCA1     0.900000E-01   1.00800           0
     20692 LPSA19   19       ARHM     O4       OC311   -0.650000       15.9994           0
     20693 LPSA19   19       ARHM     HO4      HCP1     0.420000       1.00800           0
     20694 LPSA19   19       ARHM     C6       CC331   -0.270000       12.0110           0
     20695 LPSA19   19       ARHM     H61      HCA3     0.900000E-01   1.00800           0
     20696 LPSA19   19       ARHM     H62      HCA3     0.900000E-01   1.00800           0
     20697 LPSA19   19       ARHM     H63      HCA3     0.900000E-01   1.00800           0
     20698 LPSA19   20       ARHM     C1       CC3162   0.290000       12.0110           0
     20699 LPSA19   20       ARHM     H1       HCA1     0.900000E-01   1.00800           0
     20700 LPSA19   20       ARHM     C5       CC3163   0.110000       12.0110           0
     20701 LPSA19   20       ARHM     H5       HCA1     0.900000E-01   1.00800           0
     20702 LPSA19   20       ARHM     O5       OC3C61  -0.400000       15.9994           0
     20703 LPSA19   20       ARHM     C2       CC3161   0.900000E-01   12.0110           0
     20704 LPSA19   20       ARHM     H2       HCA1     0.900000E-01   1.00800           0
     20705 LPSA19   20       ARHM     O2       OC301   -0.360000       15.9994           0
     20706 LPSA19   20       ARHM     C3       CC3161   0.900000E-01   12.0110           0
     20707 LPSA19   20       ARHM     H3       HCA1     0.900000E-01   1.00800           0
     20708 LPSA19   20       ARHM     O3       OC301   -0.360000       15.9994           0
     20709 LPSA19   20       ARHM     C4       CC3161   0.140000       12.0110           0
     20710 LPSA19   20       ARHM     H4       HCA1     0.900000E-01   1.00800           0
     20711 LPSA19   20       ARHM     O4       OC311   -0.650000       15.9994           0
     20712 LPSA19   20       ARHM     HO4      HCP1     0.420000       1.00800           0
     20713 LPSA19   20       ARHM     C6       CC331   -0.270000       12.0110           0
     20714 LPSA19   20       ARHM     H61      HCA3     0.900000E-01   1.00800           0
     20715 LPSA19   20       ARHM     H62      HCA3     0.900000E-01   1.00800           0
     20716 LPSA19   20       ARHM     H63      HCA3     0.900000E-01   1.00800           0
     20717 LPSA19   21       BMANNA   C1       CC3162   0.290000       12.0110           0
     20718 LPSA19   21       BMANNA   H1       HCA1     0.900000E-01   1.00800           0
     20719 LPSA19   21       BMANNA   C5       CC3163   0.110000       12.0110           0
     20720 LPSA19   21       BMANNA   H5       HCA1     0.900000E-01   1.00800           0
     20721 LPSA19   21       BMANNA   O5       OC3C61  -0.400000       15.9994           0
     20722 LPSA19   21       BMANNA   C2       CC3161   0.700000E-01   12.0110           0
     20723 LPSA19   21       BMANNA   H2       HCA1     0.900000E-01   1.00800           0
     20724 LPSA19   21       BMANNA   N        NC2D1   -0.470000       14.0070           0
     20725 LPSA19   21       BMANNA   HN       HCP1     0.310000       1.00800           0
     20726 LPSA19   21       BMANNA   C        CC2O1    0.510000       12.0110           0
     20727 LPSA19   21       BMANNA   O        OC2D1   -0.510000       15.9994           0
     20728 LPSA19   21       BMANNA   CT       CC331   -0.270000       12.0110           0
     20729 LPSA19   21       BMANNA   HT1      HCA3     0.900000E-01   1.00800           0
     20730 LPSA19   21       BMANNA   HT2      HCA3     0.900000E-01   1.00800           0
     20731 LPSA19   21       BMANNA   HT3      HCA3     0.900000E-01   1.00800           0
     20732 LPSA19   21       BMANNA   C3       CC3161   0.140000       12.0110           0
     20733 LPSA19   21       BMANNA   H3       HCA1     0.900000E-01   1.00800           0
     20734 LPSA19   21       BMANNA   O3       OC311   -0.650000       15.9994           0
     20735 LPSA19   21       BMANNA   HO3      HCP1     0.420000       1.00800           0
     20736 LPSA19   21       BMANNA   C4       CC3161   0.140000       12.0110           0
     20737 LPSA19   21       BMANNA   H4       HCA1     0.900000E-01   1.00800           0
     20738 LPSA19   21       BMANNA   O4       OC311   -0.650000       15.9994           0
     20739 LPSA19   21       BMANNA   HO4      HCP1     0.420000       1.00800           0
     20740 LPSA19   21       BMANNA   C6       CC321    0.500000E-01   12.0110           0
     20741 LPSA19   21       BMANNA   H61      HCA2     0.900000E-01   1.00800           0
     20742 LPSA19   21       BMANNA   H62      HCA2     0.900000E-01   1.00800           0
     20743 LPSA19   21       BMANNA   O6       OC311   -0.650000       15.9994           0
     20744 LPSA19   21       BMANNA   HO6      HCP1     0.420000       1.00800           0
     20745 LPSA19   22       BGLCNA   C1       CC3162   0.290000       12.0110           0
     20746 LPSA19   22       BGLCNA   H1       HCA1     0.900000E-01   1.00800           0
     20747 LPSA19   22       BGLCNA   C5       CC3163   0.110000       12.0110           0
     20748 LPSA19   22       BGLCNA   H5       HCA1     0.900000E-01   1.00800           0
     20749 LPSA19   22       BGLCNA   O5       OC3C61  -0.400000       15.9994           0
     20750 LPSA19   22       BGLCNA   C2       CC3161   0.700000E-01   12.0110           0
     20751 LPSA19   22       BGLCNA   H2       HCA1     0.900000E-01   1.00800           0
     20752 LPSA19   22       BGLCNA   N        NC2D1   -0.470000       14.0070           0
     20753 LPSA19   22       BGLCNA   HN       HCP1     0.310000       1.00800           0
     20754 LPSA19   22       BGLCNA   C        CC2O1    0.510000       12.0110           0
     20755 LPSA19   22       BGLCNA   O        OC2D1   -0.510000       15.9994           0
     20756 LPSA19   22       BGLCNA   CT       CC331   -0.270000       12.0110           0
     20757 LPSA19   22       BGLCNA   HT1      HCA3     0.900000E-01   1.00800           0
     20758 LPSA19   22       BGLCNA   HT2      HCA3     0.900000E-01   1.00800           0
     20759 LPSA19   22       BGLCNA   HT3      HCA3     0.900000E-01   1.00800           0
     20760 LPSA19   22       BGLCNA   C3       CC3161   0.900000E-01   12.0110           0
     20761 LPSA19   22       BGLCNA   H3       HCA1     0.900000E-01   1.00800           0
     20762 LPSA19   22       BGLCNA   O3       OC301   -0.360000       15.9994           0
     20763 LPSA19   22       BGLCNA   C4       CC3161   0.140000       12.0110           0
     20764 LPSA19   22       BGLCNA   H4       HCA1     0.900000E-01   1.00800           0
     20765 LPSA19   22       BGLCNA   O4       OC311   -0.650000       15.9994           0
     20766 LPSA19   22       BGLCNA   HO4      HCP1     0.420000       1.00800           0
     20767 LPSA19   22       BGLCNA   C6       CC321    0.500000E-01   12.0110           0
     20768 LPSA19   22       BGLCNA   H61      HCA2     0.900000E-01   1.00800           0
     20769 LPSA19   22       BGLCNA   H62      HCA2     0.900000E-01   1.00800           0
     20770 LPSA19   22       BGLCNA   O6       OC311   -0.650000       15.9994           0
     20771 LPSA19   22       BGLCNA   HO6      HCP1     0.420000       1.00800           0
     20772 LPSA19   23       AGAL     C1       CC3162   0.290000       12.0110           0
     20773 LPSA19   23       AGAL     H1       HCA1     0.900000E-01   1.00800           0
     20774 LPSA19   23       AGAL     C5       CC3163   0.110000       12.0110           0
     20775 LPSA19   23       AGAL     H5       HCA1     0.900000E-01   1.00800           0
     20776 LPSA19   23       AGAL     O5       OC3C61  -0.400000       15.9994           0
     20777 LPSA19   23       AGAL     C2       CC3161   0.900000E-01   12.0110           0
     20778 LPSA19   23       AGAL     H2       HCA1     0.900000E-01   1.00800           0
     20779 LPSA19   23       AGAL     O2       OC301   -0.360000       15.9994           0
     20780 LPSA19   23       AGAL     C3       CC3161   0.140000       12.0110           0
     20781 LPSA19   23       AGAL     H3       HCA1     0.900000E-01   1.00800           0
     20782 LPSA19   23       AGAL     O3       OC311   -0.650000       15.9994           0
     20783 LPSA19   23       AGAL     HO3      HCP1     0.420000       1.00800           0
     20784 LPSA19   23       AGAL     C4       CC3161   0.140000       12.0110           0
     20785 LPSA19   23       AGAL     H4       HCA1     0.900000E-01   1.00800           0
     20786 LPSA19   23       AGAL     O4       OC311   -0.650000       15.9994           0
     20787 LPSA19   23       AGAL     HO4      HCP1     0.420000       1.00800           0
     20788 LPSA19   23       AGAL     C6       CC321    0.500000E-01   12.0110           0
     20789 LPSA19   23       AGAL     H61      HCA2     0.900000E-01   1.00800           0
     20790 LPSA19   23       AGAL     H62      HCA2     0.900000E-01   1.00800           0
     20791 LPSA19   23       AGAL     O6       OC311   -0.650000       15.9994           0
     20792 LPSA19   23       AGAL     HO6      HCP1     0.420000       1.00800           0
     20793 LPSA19   24       ARHM     C1       CC3162   0.290000       12.0110           0
     20794 LPSA19   24       ARHM     H1       HCA1     0.900000E-01   1.00800           0
     20795 LPSA19   24       ARHM     C5       CC3163   0.110000       12.0110           0
     20796 LPSA19   24       ARHM     H5       HCA1     0.900000E-01   1.00800           0
     20797 LPSA19   24       ARHM     O5       OC3C61  -0.400000       15.9994           0
     20798 LPSA19   24       ARHM     C2       CC3161   0.900000E-01   12.0110           0
     20799 LPSA19   24       ARHM     H2       HCA1     0.900000E-01   1.00800           0
     20800 LPSA19   24       ARHM     O2       OC301   -0.360000       15.9994           0
     20801 LPSA19   24       ARHM     C3       CC3161   0.140000       12.0110           0
     20802 LPSA19   24       ARHM     H3       HCA1     0.900000E-01   1.00800           0
     20803 LPSA19   24       ARHM     O3       OC311   -0.650000       15.9994           0
     20804 LPSA19   24       ARHM     HO3      HCP1     0.420000       1.00800           0
     20805 LPSA19   24       ARHM     C4       CC3161   0.140000       12.0110           0
     20806 LPSA19   24       ARHM     H4       HCA1     0.900000E-01   1.00800           0
     20807 LPSA19   24       ARHM     O4       OC311   -0.650000       15.9994           0
     20808 LPSA19   24       ARHM     HO4      HCP1     0.420000       1.00800           0
     20809 LPSA19   24       ARHM     C6       CC331   -0.270000       12.0110           0
     20810 LPSA19   24       ARHM     H61      HCA3     0.900000E-01   1.00800           0
     20811 LPSA19   24       ARHM     H62      HCA3     0.900000E-01   1.00800           0
     20812 LPSA19   24       ARHM     H63      HCA3     0.900000E-01   1.00800           0
     20813 LPSA19   25       ARHM     C1       CC3162   0.290000       12.0110           0
     20814 LPSA19   25       ARHM     H1       HCA1     0.900000E-01   1.00800           0
     20815 LPSA19   25       ARHM     C5       CC3163   0.110000       12.0110           0
     20816 LPSA19   25       ARHM     H5       HCA1     0.900000E-01   1.00800           0
     20817 LPSA19   25       ARHM     O5       OC3C61  -0.400000       15.9994           0
     20818 LPSA19   25       ARHM     C2       CC3161   0.900000E-01   12.0110           0
     20819 LPSA19   25       ARHM     H2       HCA1     0.900000E-01   1.00800           0
     20820 LPSA19   25       ARHM     O2       OC301   -0.360000       15.9994           0
     20821 LPSA19   25       ARHM     C3       CC3161   0.900000E-01   12.0110           0
     20822 LPSA19   25       ARHM     H3       HCA1     0.900000E-01   1.00800           0
     20823 LPSA19   25       ARHM     O3       OC301   -0.360000       15.9994           0
     20824 LPSA19   25       ARHM     C4       CC3161   0.140000       12.0110           0
     20825 LPSA19   25       ARHM     H4       HCA1     0.900000E-01   1.00800           0
     20826 LPSA19   25       ARHM     O4       OC311   -0.650000       15.9994           0
     20827 LPSA19   25       ARHM     HO4      HCP1     0.420000       1.00800           0
     20828 LPSA19   25       ARHM     C6       CC331   -0.270000       12.0110           0
     20829 LPSA19   25       ARHM     H61      HCA3     0.900000E-01   1.00800           0
     20830 LPSA19   25       ARHM     H62      HCA3     0.900000E-01   1.00800           0
     20831 LPSA19   25       ARHM     H63      HCA3     0.900000E-01   1.00800           0
     20832 LPSA19   26       BMANNA   C1       CC3162   0.290000       12.0110           0
     20833 LPSA19   26       BMANNA   H1       HCA1     0.900000E-01   1.00800           0
     20834 LPSA19   26       BMANNA   C5       CC3163   0.110000       12.0110           0
     20835 LPSA19   26       BMANNA   H5       HCA1     0.900000E-01   1.00800           0
     20836 LPSA19   26       BMANNA   O5       OC3C61  -0.400000       15.9994           0
     20837 LPSA19   26       BMANNA   C2       CC3161   0.700000E-01   12.0110           0
     20838 LPSA19   26       BMANNA   H2       HCA1     0.900000E-01   1.00800           0
     20839 LPSA19   26       BMANNA   N        NC2D1   -0.470000       14.0070           0
     20840 LPSA19   26       BMANNA   HN       HCP1     0.310000       1.00800           0
     20841 LPSA19   26       BMANNA   C        CC2O1    0.510000       12.0110           0
     20842 LPSA19   26       BMANNA   O        OC2D1   -0.510000       15.9994           0
     20843 LPSA19   26       BMANNA   CT       CC331   -0.270000       12.0110           0
     20844 LPSA19   26       BMANNA   HT1      HCA3     0.900000E-01   1.00800           0
     20845 LPSA19   26       BMANNA   HT2      HCA3     0.900000E-01   1.00800           0
     20846 LPSA19   26       BMANNA   HT3      HCA3     0.900000E-01   1.00800           0
     20847 LPSA19   26       BMANNA   C3       CC3161   0.140000       12.0110           0
     20848 LPSA19   26       BMANNA   H3       HCA1     0.900000E-01   1.00800           0
     20849 LPSA19   26       BMANNA   O3       OC311   -0.650000       15.9994           0
     20850 LPSA19   26       BMANNA   HO3      HCP1     0.420000       1.00800           0
     20851 LPSA19   26       BMANNA   C4       CC3161   0.140000       12.0110           0
     20852 LPSA19   26       BMANNA   H4       HCA1     0.900000E-01   1.00800           0
     20853 LPSA19   26       BMANNA   O4       OC311   -0.650000       15.9994           0
     20854 LPSA19   26       BMANNA   HO4      HCP1     0.420000       1.00800           0
     20855 LPSA19   26       BMANNA   C6       CC321    0.500000E-01   12.0110           0
     20856 LPSA19   26       BMANNA   H61      HCA2     0.900000E-01   1.00800           0
     20857 LPSA19   26       BMANNA   H62      HCA2     0.900000E-01   1.00800           0
     20858 LPSA19   26       BMANNA   O6       OC311   -0.650000       15.9994           0
     20859 LPSA19   26       BMANNA   HO6      HCP1     0.420000       1.00800           0
     20860 LPSA19   27       BGLCNA   C1       CC3162   0.290000       12.0110           0
     20861 LPSA19   27       BGLCNA   H1       HCA1     0.900000E-01   1.00800           0
     20862 LPSA19   27       BGLCNA   C5       CC3163   0.110000       12.0110           0
     20863 LPSA19   27       BGLCNA   H5       HCA1     0.900000E-01   1.00800           0
     20864 LPSA19   27       BGLCNA   O5       OC3C61  -0.400000       15.9994           0
     20865 LPSA19   27       BGLCNA   C2       CC3161   0.700000E-01   12.0110           0
     20866 LPSA19   27       BGLCNA   H2       HCA1     0.900000E-01   1.00800           0
     20867 LPSA19   27       BGLCNA   N        NC2D1   -0.470000       14.0070           0
     20868 LPSA19   27       BGLCNA   HN       HCP1     0.310000       1.00800           0
     20869 LPSA19   27       BGLCNA   C        CC2O1    0.510000       12.0110           0
     20870 LPSA19   27       BGLCNA   O        OC2D1   -0.510000       15.9994           0
     20871 LPSA19   27       BGLCNA   CT       CC331   -0.270000       12.0110           0
     20872 LPSA19   27       BGLCNA   HT1      HCA3     0.900000E-01   1.00800           0
     20873 LPSA19   27       BGLCNA   HT2      HCA3     0.900000E-01   1.00800           0
     20874 LPSA19   27       BGLCNA   HT3      HCA3     0.900000E-01   1.00800           0
     20875 LPSA19   27       BGLCNA   C3       CC3161   0.900000E-01   12.0110           0
     20876 LPSA19   27       BGLCNA   H3       HCA1     0.900000E-01   1.00800           0
     20877 LPSA19   27       BGLCNA   O3       OC301   -0.360000       15.9994           0
     20878 LPSA19   27       BGLCNA   C4       CC3161   0.140000       12.0110           0
     20879 LPSA19   27       BGLCNA   H4       HCA1     0.900000E-01   1.00800           0
     20880 LPSA19   27       BGLCNA   O4       OC311   -0.650000       15.9994           0
     20881 LPSA19   27       BGLCNA   HO4      HCP1     0.420000       1.00800           0
     20882 LPSA19   27       BGLCNA   C6       CC321    0.500000E-01   12.0110           0
     20883 LPSA19   27       BGLCNA   H61      HCA2     0.900000E-01   1.00800           0
     20884 LPSA19   27       BGLCNA   H62      HCA2     0.900000E-01   1.00800           0
     20885 LPSA19   27       BGLCNA   O6       OC311   -0.650000       15.9994           0
     20886 LPSA19   27       BGLCNA   HO6      HCP1     0.420000       1.00800           0
     20887 LPSA19   28       AGAL     C1       CC3162   0.290000       12.0110           0
     20888 LPSA19   28       AGAL     H1       HCA1     0.900000E-01   1.00800           0
     20889 LPSA19   28       AGAL     C5       CC3163   0.110000       12.0110           0
     20890 LPSA19   28       AGAL     H5       HCA1     0.900000E-01   1.00800           0
     20891 LPSA19   28       AGAL     O5       OC3C61  -0.400000       15.9994           0
     20892 LPSA19   28       AGAL     C2       CC3161   0.900000E-01   12.0110           0
     20893 LPSA19   28       AGAL     H2       HCA1     0.900000E-01   1.00800           0
     20894 LPSA19   28       AGAL     O2       OC301   -0.360000       15.9994           0
     20895 LPSA19   28       AGAL     C3       CC3161   0.140000       12.0110           0
     20896 LPSA19   28       AGAL     H3       HCA1     0.900000E-01   1.00800           0
     20897 LPSA19   28       AGAL     O3       OC311   -0.650000       15.9994           0
     20898 LPSA19   28       AGAL     HO3      HCP1     0.420000       1.00800           0
     20899 LPSA19   28       AGAL     C4       CC3161   0.140000       12.0110           0
     20900 LPSA19   28       AGAL     H4       HCA1     0.900000E-01   1.00800           0
     20901 LPSA19   28       AGAL     O4       OC311   -0.650000       15.9994           0
     20902 LPSA19   28       AGAL     HO4      HCP1     0.420000       1.00800           0
     20903 LPSA19   28       AGAL     C6       CC321    0.500000E-01   12.0110           0
     20904 LPSA19   28       AGAL     H61      HCA2     0.900000E-01   1.00800           0
     20905 LPSA19   28       AGAL     H62      HCA2     0.900000E-01   1.00800           0
     20906 LPSA19   28       AGAL     O6       OC311   -0.650000       15.9994           0
     20907 LPSA19   28       AGAL     HO6      HCP1     0.420000       1.00800           0
     20908 LPSA19   29       ARHM     C1       CC3162   0.290000       12.0110           0
     20909 LPSA19   29       ARHM     H1       HCA1     0.900000E-01   1.00800           0
     20910 LPSA19   29       ARHM     C5       CC3163   0.110000       12.0110           0
     20911 LPSA19   29       ARHM     H5       HCA1     0.900000E-01   1.00800           0
     20912 LPSA19   29       ARHM     O5       OC3C61  -0.400000       15.9994           0
     20913 LPSA19   29       ARHM     C2       CC3161   0.900000E-01   12.0110           0
     20914 LPSA19   29       ARHM     H2       HCA1     0.900000E-01   1.00800           0
     20915 LPSA19   29       ARHM     O2       OC301   -0.360000       15.9994           0
     20916 LPSA19   29       ARHM     C3       CC3161   0.140000       12.0110           0
     20917 LPSA19   29       ARHM     H3       HCA1     0.900000E-01   1.00800           0
     20918 LPSA19   29       ARHM     O3       OC311   -0.650000       15.9994           0
     20919 LPSA19   29       ARHM     HO3      HCP1     0.420000       1.00800           0
     20920 LPSA19   29       ARHM     C4       CC3161   0.140000       12.0110           0
     20921 LPSA19   29       ARHM     H4       HCA1     0.900000E-01   1.00800           0
     20922 LPSA19   29       ARHM     O4       OC311   -0.650000       15.9994           0
     20923 LPSA19   29       ARHM     HO4      HCP1     0.420000       1.00800           0
     20924 LPSA19   29       ARHM     C6       CC331   -0.270000       12.0110           0
     20925 LPSA19   29       ARHM     H61      HCA3     0.900000E-01   1.00800           0
     20926 LPSA19   29       ARHM     H62      HCA3     0.900000E-01   1.00800           0
     20927 LPSA19   29       ARHM     H63      HCA3     0.900000E-01   1.00800           0
     20928 LPSA19   30       ARHM     C1       CC3162   0.290000       12.0110           0
     20929 LPSA19   30       ARHM     H1       HCA1     0.900000E-01   1.00800           0
     20930 LPSA19   30       ARHM     C5       CC3163   0.110000       12.0110           0
     20931 LPSA19   30       ARHM     H5       HCA1     0.900000E-01   1.00800           0
     20932 LPSA19   30       ARHM     O5       OC3C61  -0.400000       15.9994           0
     20933 LPSA19   30       ARHM     C2       CC3161   0.900000E-01   12.0110           0
     20934 LPSA19   30       ARHM     H2       HCA1     0.900000E-01   1.00800           0
     20935 LPSA19   30       ARHM     O2       OC301   -0.360000       15.9994           0
     20936 LPSA19   30       ARHM     C3       CC3161   0.900000E-01   12.0110           0
     20937 LPSA19   30       ARHM     H3       HCA1     0.900000E-01   1.00800           0
     20938 LPSA19   30       ARHM     O3       OC301   -0.360000       15.9994           0
     20939 LPSA19   30       ARHM     C4       CC3161   0.140000       12.0110           0
     20940 LPSA19   30       ARHM     H4       HCA1     0.900000E-01   1.00800           0
     20941 LPSA19   30       ARHM     O4       OC311   -0.650000       15.9994           0
     20942 LPSA19   30       ARHM     HO4      HCP1     0.420000       1.00800           0
     20943 LPSA19   30       ARHM     C6       CC331   -0.270000       12.0110           0
     20944 LPSA19   30       ARHM     H61      HCA3     0.900000E-01   1.00800           0
     20945 LPSA19   30       ARHM     H62      HCA3     0.900000E-01   1.00800           0
     20946 LPSA19   30       ARHM     H63      HCA3     0.900000E-01   1.00800           0
     20947 LPSA19   31       BMANNA   C1       CC3162   0.290000       12.0110           0
     20948 LPSA19   31       BMANNA   H1       HCA1     0.900000E-01   1.00800           0
     20949 LPSA19   31       BMANNA   C5       CC3163   0.110000       12.0110           0
     20950 LPSA19   31       BMANNA   H5       HCA1     0.900000E-01   1.00800           0
     20951 LPSA19   31       BMANNA   O5       OC3C61  -0.400000       15.9994           0
     20952 LPSA19   31       BMANNA   C2       CC3161   0.700000E-01   12.0110           0
     20953 LPSA19   31       BMANNA   H2       HCA1     0.900000E-01   1.00800           0
     20954 LPSA19   31       BMANNA   N        NC2D1   -0.470000       14.0070           0
     20955 LPSA19   31       BMANNA   HN       HCP1     0.310000       1.00800           0
     20956 LPSA19   31       BMANNA   C        CC2O1    0.510000       12.0110           0
     20957 LPSA19   31       BMANNA   O        OC2D1   -0.510000       15.9994           0
     20958 LPSA19   31       BMANNA   CT       CC331   -0.270000       12.0110           0
     20959 LPSA19   31       BMANNA   HT1      HCA3     0.900000E-01   1.00800           0
     20960 LPSA19   31       BMANNA   HT2      HCA3     0.900000E-01   1.00800           0
     20961 LPSA19   31       BMANNA   HT3      HCA3     0.900000E-01   1.00800           0
     20962 LPSA19   31       BMANNA   C3       CC3161   0.140000       12.0110           0
     20963 LPSA19   31       BMANNA   H3       HCA1     0.900000E-01   1.00800           0
     20964 LPSA19   31       BMANNA   O3       OC311   -0.650000       15.9994           0
     20965 LPSA19   31       BMANNA   HO3      HCP1     0.420000       1.00800           0
     20966 LPSA19   31       BMANNA   C4       CC3161   0.140000       12.0110           0
     20967 LPSA19   31       BMANNA   H4       HCA1     0.900000E-01   1.00800           0
     20968 LPSA19   31       BMANNA   O4       OC311   -0.650000       15.9994           0
     20969 LPSA19   31       BMANNA   HO4      HCP1     0.420000       1.00800           0
     20970 LPSA19   31       BMANNA   C6       CC321    0.500000E-01   12.0110           0
     20971 LPSA19   31       BMANNA   H61      HCA2     0.900000E-01   1.00800           0
     20972 LPSA19   31       BMANNA   H62      HCA2     0.900000E-01   1.00800           0
     20973 LPSA19   31       BMANNA   O6       OC311   -0.650000       15.9994           0
     20974 LPSA19   31       BMANNA   HO6      HCP1     0.420000       1.00800           0
     20975 LPSA19   32       BGLCNA   C1       CC3162   0.290000       12.0110           0
     20976 LPSA19   32       BGLCNA   H1       HCA1     0.900000E-01   1.00800           0
     20977 LPSA19   32       BGLCNA   C5       CC3163   0.110000       12.0110           0
     20978 LPSA19   32       BGLCNA   H5       HCA1     0.900000E-01   1.00800           0
     20979 LPSA19   32       BGLCNA   O5       OC3C61  -0.400000       15.9994           0
     20980 LPSA19   32       BGLCNA   C2       CC3161   0.700000E-01   12.0110           0
     20981 LPSA19   32       BGLCNA   H2       HCA1     0.900000E-01   1.00800           0
     20982 LPSA19   32       BGLCNA   N        NC2D1   -0.470000       14.0070           0
     20983 LPSA19   32       BGLCNA   HN       HCP1     0.310000       1.00800           0
     20984 LPSA19   32       BGLCNA   C        CC2O1    0.510000       12.0110           0
     20985 LPSA19   32       BGLCNA   O        OC2D1   -0.510000       15.9994           0
     20986 LPSA19   32       BGLCNA   CT       CC331   -0.270000       12.0110           0
     20987 LPSA19   32       BGLCNA   HT1      HCA3     0.900000E-01   1.00800           0
     20988 LPSA19   32       BGLCNA   HT2      HCA3     0.900000E-01   1.00800           0
     20989 LPSA19   32       BGLCNA   HT3      HCA3     0.900000E-01   1.00800           0
     20990 LPSA19   32       BGLCNA   C3       CC3161   0.900000E-01   12.0110           0
     20991 LPSA19   32       BGLCNA   H3       HCA1     0.900000E-01   1.00800           0
     20992 LPSA19   32       BGLCNA   O3       OC301   -0.360000       15.9994           0
     20993 LPSA19   32       BGLCNA   C4       CC3161   0.140000       12.0110           0
     20994 LPSA19   32       BGLCNA   H4       HCA1     0.900000E-01   1.00800           0
     20995 LPSA19   32       BGLCNA   O4       OC311   -0.650000       15.9994           0
     20996 LPSA19   32       BGLCNA   HO4      HCP1     0.420000       1.00800           0
     20997 LPSA19   32       BGLCNA   C6       CC321    0.500000E-01   12.0110           0
     20998 LPSA19   32       BGLCNA   H61      HCA2     0.900000E-01   1.00800           0
     20999 LPSA19   32       BGLCNA   H62      HCA2     0.900000E-01   1.00800           0
     21000 LPSA19   32       BGLCNA   O6       OC311   -0.650000       15.9994           0
     21001 LPSA19   32       BGLCNA   HO6      HCP1     0.420000       1.00800           0
     21002 LPSA19   33       AGAL     C1       CC3162   0.290000       12.0110           0
     21003 LPSA19   33       AGAL     H1       HCA1     0.900000E-01   1.00800           0
     21004 LPSA19   33       AGAL     C5       CC3163   0.110000       12.0110           0
     21005 LPSA19   33       AGAL     H5       HCA1     0.900000E-01   1.00800           0
     21006 LPSA19   33       AGAL     O5       OC3C61  -0.400000       15.9994           0
     21007 LPSA19   33       AGAL     C2       CC3161   0.900000E-01   12.0110           0
     21008 LPSA19   33       AGAL     H2       HCA1     0.900000E-01   1.00800           0
     21009 LPSA19   33       AGAL     O2       OC301   -0.360000       15.9994           0
     21010 LPSA19   33       AGAL     C3       CC3161   0.140000       12.0110           0
     21011 LPSA19   33       AGAL     H3       HCA1     0.900000E-01   1.00800           0
     21012 LPSA19   33       AGAL     O3       OC311   -0.650000       15.9994           0
     21013 LPSA19   33       AGAL     HO3      HCP1     0.420000       1.00800           0
     21014 LPSA19   33       AGAL     C4       CC3161   0.140000       12.0110           0
     21015 LPSA19   33       AGAL     H4       HCA1     0.900000E-01   1.00800           0
     21016 LPSA19   33       AGAL     O4       OC311   -0.650000       15.9994           0
     21017 LPSA19   33       AGAL     HO4      HCP1     0.420000       1.00800           0
     21018 LPSA19   33       AGAL     C6       CC321    0.500000E-01   12.0110           0
     21019 LPSA19   33       AGAL     H61      HCA2     0.900000E-01   1.00800           0
     21020 LPSA19   33       AGAL     H62      HCA2     0.900000E-01   1.00800           0
     21021 LPSA19   33       AGAL     O6       OC311   -0.650000       15.9994           0
     21022 LPSA19   33       AGAL     HO6      HCP1     0.420000       1.00800           0
     21023 LPSA19   34       ARHM     C1       CC3162   0.290000       12.0110           0
     21024 LPSA19   34       ARHM     H1       HCA1     0.900000E-01   1.00800           0
     21025 LPSA19   34       ARHM     C5       CC3163   0.110000       12.0110           0
     21026 LPSA19   34       ARHM     H5       HCA1     0.900000E-01   1.00800           0
     21027 LPSA19   34       ARHM     O5       OC3C61  -0.400000       15.9994           0
     21028 LPSA19   34       ARHM     C2       CC3161   0.900000E-01   12.0110           0
     21029 LPSA19   34       ARHM     H2       HCA1     0.900000E-01   1.00800           0
     21030 LPSA19   34       ARHM     O2       OC301   -0.360000       15.9994           0
     21031 LPSA19   34       ARHM     C3       CC3161   0.140000       12.0110           0
     21032 LPSA19   34       ARHM     H3       HCA1     0.900000E-01   1.00800           0
     21033 LPSA19   34       ARHM     O3       OC311   -0.650000       15.9994           0
     21034 LPSA19   34       ARHM     HO3      HCP1     0.420000       1.00800           0
     21035 LPSA19   34       ARHM     C4       CC3161   0.140000       12.0110           0
     21036 LPSA19   34       ARHM     H4       HCA1     0.900000E-01   1.00800           0
     21037 LPSA19   34       ARHM     O4       OC311   -0.650000       15.9994           0
     21038 LPSA19   34       ARHM     HO4      HCP1     0.420000       1.00800           0
     21039 LPSA19   34       ARHM     C6       CC331   -0.270000       12.0110           0
     21040 LPSA19   34       ARHM     H61      HCA3     0.900000E-01   1.00800           0
     21041 LPSA19   34       ARHM     H62      HCA3     0.900000E-01   1.00800           0
     21042 LPSA19   34       ARHM     H63      HCA3     0.900000E-01   1.00800           0
     21043 LPSA19   35       ARHM     C1       CC3162   0.290000       12.0110           0
     21044 LPSA19   35       ARHM     H1       HCA1     0.900000E-01   1.00800           0
     21045 LPSA19   35       ARHM     C5       CC3163   0.110000       12.0110           0
     21046 LPSA19   35       ARHM     H5       HCA1     0.900000E-01   1.00800           0
     21047 LPSA19   35       ARHM     O5       OC3C61  -0.400000       15.9994           0
     21048 LPSA19   35       ARHM     C2       CC3161   0.900000E-01   12.0110           0
     21049 LPSA19   35       ARHM     H2       HCA1     0.900000E-01   1.00800           0
     21050 LPSA19   35       ARHM     O2       OC301   -0.360000       15.9994           0
     21051 LPSA19   35       ARHM     C3       CC3161   0.140000       12.0110           0
     21052 LPSA19   35       ARHM     H3       HCA1     0.900000E-01   1.00800           0
     21053 LPSA19   35       ARHM     O3       OC311   -0.650000       15.9994           0
     21054 LPSA19   35       ARHM     HO3      HCP1     0.420000       1.00800           0
     21055 LPSA19   35       ARHM     C4       CC3161   0.140000       12.0110           0
     21056 LPSA19   35       ARHM     H4       HCA1     0.900000E-01   1.00800           0
     21057 LPSA19   35       ARHM     O4       OC311   -0.650000       15.9994           0
     21058 LPSA19   35       ARHM     HO4      HCP1     0.420000       1.00800           0
     21059 LPSA19   35       ARHM     C6       CC331   -0.270000       12.0110           0
     21060 LPSA19   35       ARHM     H61      HCA3     0.900000E-01   1.00800           0
     21061 LPSA19   35       ARHM     H62      HCA3     0.900000E-01   1.00800           0
     21062 LPSA19   35       ARHM     H63      HCA3     0.900000E-01   1.00800           0
     21063 LPSA19   36       BMANNA   C1       CC3162   0.290000       12.0110           0
     21064 LPSA19   36       BMANNA   H1       HCA1     0.900000E-01   1.00800           0
     21065 LPSA19   36       BMANNA   C5       CC3163   0.110000       12.0110           0
     21066 LPSA19   36       BMANNA   H5       HCA1     0.900000E-01   1.00800           0
     21067 LPSA19   36       BMANNA   O5       OC3C61  -0.400000       15.9994           0
     21068 LPSA19   36       BMANNA   C2       CC3161   0.700000E-01   12.0110           0
     21069 LPSA19   36       BMANNA   H2       HCA1     0.900000E-01   1.00800           0
     21070 LPSA19   36       BMANNA   N        NC2D1   -0.470000       14.0070           0
     21071 LPSA19   36       BMANNA   HN       HCP1     0.310000       1.00800           0
     21072 LPSA19   36       BMANNA   C        CC2O1    0.510000       12.0110           0
     21073 LPSA19   36       BMANNA   O        OC2D1   -0.510000       15.9994           0
     21074 LPSA19   36       BMANNA   CT       CC331   -0.270000       12.0110           0
     21075 LPSA19   36       BMANNA   HT1      HCA3     0.900000E-01   1.00800           0
     21076 LPSA19   36       BMANNA   HT2      HCA3     0.900000E-01   1.00800           0
     21077 LPSA19   36       BMANNA   HT3      HCA3     0.900000E-01   1.00800           0
     21078 LPSA19   36       BMANNA   C3       CC3161   0.140000       12.0110           0
     21079 LPSA19   36       BMANNA   H3       HCA1     0.900000E-01   1.00800           0
     21080 LPSA19   36       BMANNA   O3       OC311   -0.650000       15.9994           0
     21081 LPSA19   36       BMANNA   HO3      HCP1     0.420000       1.00800           0
     21082 LPSA19   36       BMANNA   C4       CC3161   0.140000       12.0110           0
     21083 LPSA19   36       BMANNA   H4       HCA1     0.900000E-01   1.00800           0
     21084 LPSA19   36       BMANNA   O4       OC311   -0.650000       15.9994           0
     21085 LPSA19   36       BMANNA   HO4      HCP1     0.420000       1.00800           0
     21086 LPSA19   36       BMANNA   C6       CC321    0.500000E-01   12.0110           0
     21087 LPSA19   36       BMANNA   H61      HCA2     0.900000E-01   1.00800           0
     21088 LPSA19   36       BMANNA   H62      HCA2     0.900000E-01   1.00800           0
     21089 LPSA19   36       BMANNA   O6       OC311   -0.650000       15.9994           0
     21090 LPSA19   36       BMANNA   HO6      HCP1     0.420000       1.00800           0
     21091 LPSA20   1        ECLIPA   HB6S     HCA2     0.900000E-01   1.00800           0
     21092 LPSA20   1        ECLIPA   OB6      OC301   -0.360000       15.9994           0
     21093 LPSA20   1        ECLIPA   CB6      CC321     0.00000       12.0110           0
     21094 LPSA20   1        ECLIPA   HB6R     HCA2     0.900000E-01   1.00800           0
     21095 LPSA20   1        ECLIPA   CB5      CC3163   0.110000       12.0110           0
     21096 LPSA20   1        ECLIPA   OB5      OC3C61  -0.400000       15.9994           0
     21097 LPSA20   1        ECLIPA   HB5      HCA1     0.900000E-01   1.00800           0
     21098 LPSA20   1        ECLIPA   CB1      CC3162   0.290000       12.0110           0
     21099 LPSA20   1        ECLIPA   HB1      HCA1     0.900000E-01   1.00800           0
     21100 LPSA20   1        ECLIPA   OA6      OC301   -0.360000       15.9994           0
     21101 LPSA20   1        ECLIPA   CA6      CC321     0.00000       12.0110           0
     21102 LPSA20   1        ECLIPA   HA6R     HCA2     0.900000E-01   1.00800           0
     21103 LPSA20   1        ECLIPA   HA6S     HCA2     0.900000E-01   1.00800           0
     21104 LPSA20   1        ECLIPA   CB4      CC3161  -0.900000E-01   12.0110           0
     21105 LPSA20   1        ECLIPA   HB4      HCA1     0.900000E-01   1.00800           0
     21106 LPSA20   1        ECLIPA   OB4      OC30P   -0.400000       15.9994           0
     21107 LPSA20   1        ECLIPA   PB       PC        1.10000       30.9740           0
     21108 LPSA20   1        ECLIPA   OPB4     OC2DP   -0.900000       15.9994           0
     21109 LPSA20   1        ECLIPA   OPB3     OC2DP   -0.900000       15.9994           0
     21110 LPSA20   1        ECLIPA   OPB2     OC2DP   -0.900000       15.9994           0
     21111 LPSA20   1        ECLIPA   CB3      CC3161   0.170000       12.0110           0
     21112 LPSA20   1        ECLIPA   OB3      OC301   -0.490000       15.9994           0
     21113 LPSA20   1        ECLIPA   HB3      HCA1     0.900000E-01   1.00800           0
     21114 LPSA20   1        ECLIPA   C71      CL       0.900000       12.0110           0
     21115 LPSA20   1        ECLIPA   O71      OBL     -0.630000       15.9994           0
     21116 LPSA20   1        ECLIPA   C72      CTL2    -0.220000       12.0110           0
     21117 LPSA20   1        ECLIPA   H72R     HAL2     0.900000E-01   1.00800           0
     21118 LPSA20   1        ECLIPA   H72S     HAL2     0.900000E-01   1.00800           0
     21119 LPSA20   1        ECLIPA   CB2      CC3161   0.700000E-01   12.0110           0
     21120 LPSA20   1        ECLIPA   HB2      HCA1     0.900000E-01   1.00800           0
     21121 LPSA20   1        ECLIPA   NB2      NC2D1   -0.470000       14.0070           0
     21122 LPSA20   1        ECLIPA   HNB2     HCP1     0.310000       1.00800           0
     21123 LPSA20   1        ECLIPA   CA4      CC3161   0.140000       12.0110           0
     21124 LPSA20   1        ECLIPA   HA4      HCA1     0.900000E-01   1.00800           0
     21125 LPSA20   1        ECLIPA   OA4      OC311   -0.650000       15.9994           0
     21126 LPSA20   1        ECLIPA   HOA4     HCP1     0.420000       1.00800           0
     21127 LPSA20   1        ECLIPA   CA5      CC3163   0.110000       12.0110           0
     21128 LPSA20   1        ECLIPA   HA5      HCA1     0.900000E-01   1.00800           0
     21129 LPSA20   1        ECLIPA   OA5      OC3C61  -0.400000       15.9994           0
     21130 LPSA20   1        ECLIPA   CA1      CC3162   0.110000       12.0110           0
     21131 LPSA20   1        ECLIPA   HA1      HCA1     0.900000E-01   1.00800           0
     21132 LPSA20   1        ECLIPA   OA1      OC30P   -0.400000       15.9994           0
     21133 LPSA20   1        ECLIPA   OPA2     OC2DP   -0.900000       15.9994           0
     21134 LPSA20   1        ECLIPA   OPA3     OC2DP   -0.900000       15.9994           0
     21135 LPSA20   1        ECLIPA   OPA4     OC2DP   -0.900000       15.9994           0
     21136 LPSA20   1        ECLIPA   PA       PC        1.10000       30.9740           0
     21137 LPSA20   1        ECLIPA   CA3      CC3161   0.170000       12.0110           0
     21138 LPSA20   1        ECLIPA   HA3      HCA1     0.900000E-01   1.00800           0
     21139 LPSA20   1        ECLIPA   OA3      OC301   -0.490000       15.9994           0
     21140 LPSA20   1        ECLIPA   C31      CL       0.900000       12.0110           0
     21141 LPSA20   1        ECLIPA   O31      OBL     -0.630000       15.9994           0
     21142 LPSA20   1        ECLIPA   C32      CTL2    -0.220000       12.0110           0
     21143 LPSA20   1        ECLIPA   H32R     HAL2     0.900000E-01   1.00800           0
     21144 LPSA20   1        ECLIPA   H32S     HAL2     0.900000E-01   1.00800           0
     21145 LPSA20   1        ECLIPA   CA2      CC3161   0.700000E-01   12.0110           0
     21146 LPSA20   1        ECLIPA   HA2      HCA1     0.900000E-01   1.00800           0
     21147 LPSA20   1        ECLIPA   NA2      NC2D1   -0.470000       14.0070           0
     21148 LPSA20   1        ECLIPA   HNA2     HCP1     0.310000       1.00800           0
     21149 LPSA20   1        ECLIPA   C73      CTL1     0.170000       12.0110           0
     21150 LPSA20   1        ECLIPA   H73R     HAL1     0.900000E-01   1.00800           0
     21151 LPSA20   1        ECLIPA   O73      OSL     -0.490000       15.9994           0
     21152 LPSA20   1        ECLIPA   C81      CL       0.900000       12.0110           0
     21153 LPSA20   1        ECLIPA   O81      OBL     -0.630000       15.9994           0
     21154 LPSA20   1        ECLIPA   C82      CTL2    -0.220000       12.0110           0
     21155 LPSA20   1        ECLIPA   H82R     HAL2     0.900000E-01   1.00800           0
     21156 LPSA20   1        ECLIPA   H82S     HAL2     0.900000E-01   1.00800           0
     21157 LPSA20   1        ECLIPA   C83      CTL2    -0.180000       12.0110           0
     21158 LPSA20   1        ECLIPA   H83R     HAL2     0.900000E-01   1.00800           0
     21159 LPSA20   1        ECLIPA   H83S     HAL2     0.900000E-01   1.00800           0
     21160 LPSA20   1        ECLIPA   C84      CTL2    -0.180000       12.0110           0
     21161 LPSA20   1        ECLIPA   H84R     HAL2     0.900000E-01   1.00800           0
     21162 LPSA20   1        ECLIPA   H84S     HAL2     0.900000E-01   1.00800           0
     21163 LPSA20   1        ECLIPA   C85      CTL2    -0.180000       12.0110           0
     21164 LPSA20   1        ECLIPA   H85R     HAL2     0.900000E-01   1.00800           0
     21165 LPSA20   1        ECLIPA   H85S     HAL2     0.900000E-01   1.00800           0
     21166 LPSA20   1        ECLIPA   C86      CTL2    -0.180000       12.0110           0
     21167 LPSA20   1        ECLIPA   H86R     HAL2     0.900000E-01   1.00800           0
     21168 LPSA20   1        ECLIPA   H86S     HAL2     0.900000E-01   1.00800           0
     21169 LPSA20   1        ECLIPA   C87      CTL2    -0.180000       12.0110           0
     21170 LPSA20   1        ECLIPA   H87R     HAL2     0.900000E-01   1.00800           0
     21171 LPSA20   1        ECLIPA   H87S     HAL2     0.900000E-01   1.00800           0
     21172 LPSA20   1        ECLIPA   C88      CTL2    -0.180000       12.0110           0
     21173 LPSA20   1        ECLIPA   H88R     HAL2     0.900000E-01   1.00800           0
     21174 LPSA20   1        ECLIPA   H88S     HAL2     0.900000E-01   1.00800           0
     21175 LPSA20   1        ECLIPA   C89      CTL2    -0.180000       12.0110           0
     21176 LPSA20   1        ECLIPA   H89R     HAL2     0.900000E-01   1.00800           0
     21177 LPSA20   1        ECLIPA   H89S     HAL2     0.900000E-01   1.00800           0
     21178 LPSA20   1        ECLIPA   C810     CTL2    -0.180000       12.0110           0
     21179 LPSA20   1        ECLIPA   H810R    HAL2     0.900000E-01   1.00800           0
     21180 LPSA20   1        ECLIPA   H810S    HAL2     0.900000E-01   1.00800           0
     21181 LPSA20   1        ECLIPA   C811     CTL2    -0.180000       12.0110           0
     21182 LPSA20   1        ECLIPA   H811R    HAL2     0.900000E-01   1.00800           0
     21183 LPSA20   1        ECLIPA   H811S    HAL2     0.900000E-01   1.00800           0
     21184 LPSA20   1        ECLIPA   C812     CTL2    -0.180000       12.0110           0
     21185 LPSA20   1        ECLIPA   H812R    HAL2     0.900000E-01   1.00800           0
     21186 LPSA20   1        ECLIPA   H812S    HAL2     0.900000E-01   1.00800           0
     21187 LPSA20   1        ECLIPA   C813     CTL2    -0.180000       12.0110           0
     21188 LPSA20   1        ECLIPA   H813R    HAL2     0.900000E-01   1.00800           0
     21189 LPSA20   1        ECLIPA   H813S    HAL2     0.900000E-01   1.00800           0
     21190 LPSA20   1        ECLIPA   C814     CTL3    -0.270000       12.0110           0
     21191 LPSA20   1        ECLIPA   H814R    HAL3     0.900000E-01   1.00800           0
     21192 LPSA20   1        ECLIPA   H814S    HAL3     0.900000E-01   1.00800           0
     21193 LPSA20   1        ECLIPA   H814T    HAL3     0.900000E-01   1.00800           0
     21194 LPSA20   1        ECLIPA   C74      CTL2    -0.180000       12.0110           0
     21195 LPSA20   1        ECLIPA   H74R     HAL2     0.900000E-01   1.00800           0
     21196 LPSA20   1        ECLIPA   H74S     HAL2     0.900000E-01   1.00800           0
     21197 LPSA20   1        ECLIPA   C75      CTL2    -0.180000       12.0110           0
     21198 LPSA20   1        ECLIPA   H75R     HAL2     0.900000E-01   1.00800           0
     21199 LPSA20   1        ECLIPA   H75S     HAL2     0.900000E-01   1.00800           0
     21200 LPSA20   1        ECLIPA   C76      CTL2    -0.180000       12.0110           0
     21201 LPSA20   1        ECLIPA   H76R     HAL2     0.900000E-01   1.00800           0
     21202 LPSA20   1        ECLIPA   H76S     HAL2     0.900000E-01   1.00800           0
     21203 LPSA20   1        ECLIPA   C77      CTL2    -0.180000       12.0110           0
     21204 LPSA20   1        ECLIPA   H77R     HAL2     0.900000E-01   1.00800           0
     21205 LPSA20   1        ECLIPA   H77S     HAL2     0.900000E-01   1.00800           0
     21206 LPSA20   1        ECLIPA   C78      CTL2    -0.180000       12.0110           0
     21207 LPSA20   1        ECLIPA   H78R     HAL2     0.900000E-01   1.00800           0
     21208 LPSA20   1        ECLIPA   H78S     HAL2     0.900000E-01   1.00800           0
     21209 LPSA20   1        ECLIPA   C79      CTL2    -0.180000       12.0110           0
     21210 LPSA20   1        ECLIPA   H79R     HAL2     0.900000E-01   1.00800           0
     21211 LPSA20   1        ECLIPA   H79S     HAL2     0.900000E-01   1.00800           0
     21212 LPSA20   1        ECLIPA   C710     CTL2    -0.180000       12.0110           0
     21213 LPSA20   1        ECLIPA   H710R    HAL2     0.900000E-01   1.00800           0
     21214 LPSA20   1        ECLIPA   H710S    HAL2     0.900000E-01   1.00800           0
     21215 LPSA20   1        ECLIPA   C711     CTL2    -0.180000       12.0110           0
     21216 LPSA20   1        ECLIPA   H711R    HAL2     0.900000E-01   1.00800           0
     21217 LPSA20   1        ECLIPA   H711S    HAL2     0.900000E-01   1.00800           0
     21218 LPSA20   1        ECLIPA   C712     CTL2    -0.180000       12.0110           0
     21219 LPSA20   1        ECLIPA   H712R    HAL2     0.900000E-01   1.00800           0
     21220 LPSA20   1        ECLIPA   H712S    HAL2     0.900000E-01   1.00800           0
     21221 LPSA20   1        ECLIPA   C713     CTL2    -0.180000       12.0110           0
     21222 LPSA20   1        ECLIPA   H713R    HAL2     0.900000E-01   1.00800           0
     21223 LPSA20   1        ECLIPA   H713S    HAL2     0.900000E-01   1.00800           0
     21224 LPSA20   1        ECLIPA   C714     CTL3    -0.270000       12.0110           0
     21225 LPSA20   1        ECLIPA   H714R    HAL3     0.900000E-01   1.00800           0
     21226 LPSA20   1        ECLIPA   H714S    HAL3     0.900000E-01   1.00800           0
     21227 LPSA20   1        ECLIPA   H714T    HAL3     0.900000E-01   1.00800           0
     21228 LPSA20   1        ECLIPA   C51      CC2O1    0.550000       12.0110           0
     21229 LPSA20   1        ECLIPA   O51      OC2D1   -0.550000       15.9994           0
     21230 LPSA20   1        ECLIPA   C52      CTL2    -0.180000       12.0110           0
     21231 LPSA20   1        ECLIPA   H52R     HAL2     0.900000E-01   1.00800           0
     21232 LPSA20   1        ECLIPA   H52S     HAL2     0.900000E-01   1.00800           0
     21233 LPSA20   1        ECLIPA   C53      CTL1     0.170000       12.0110           0
     21234 LPSA20   1        ECLIPA   H53R     HAL1     0.900000E-01   1.00800           0
     21235 LPSA20   1        ECLIPA   O53      OSL     -0.490000       15.9994           0
     21236 LPSA20   1        ECLIPA   C61      CL       0.900000       12.0110           0
     21237 LPSA20   1        ECLIPA   O61      OBL     -0.630000       15.9994           0
     21238 LPSA20   1        ECLIPA   C62      CTL2    -0.220000       12.0110           0
     21239 LPSA20   1        ECLIPA   H62R     HAL2     0.900000E-01   1.00800           0
     21240 LPSA20   1        ECLIPA   H62S     HAL2     0.900000E-01   1.00800           0
     21241 LPSA20   1        ECLIPA   C63      CTL2    -0.180000       12.0110           0
     21242 LPSA20   1        ECLIPA   H63R     HAL2     0.900000E-01   1.00800           0
     21243 LPSA20   1        ECLIPA   H63S     HAL2     0.900000E-01   1.00800           0
     21244 LPSA20   1        ECLIPA   C64      CTL2    -0.180000       12.0110           0
     21245 LPSA20   1        ECLIPA   H64R     HAL2     0.900000E-01   1.00800           0
     21246 LPSA20   1        ECLIPA   H64S     HAL2     0.900000E-01   1.00800           0
     21247 LPSA20   1        ECLIPA   C65      CTL2    -0.180000       12.0110           0
     21248 LPSA20   1        ECLIPA   H65R     HAL2     0.900000E-01   1.00800           0
     21249 LPSA20   1        ECLIPA   H65S     HAL2     0.900000E-01   1.00800           0
     21250 LPSA20   1        ECLIPA   C66      CTL2    -0.180000       12.0110           0
     21251 LPSA20   1        ECLIPA   H66R     HAL2     0.900000E-01   1.00800           0
     21252 LPSA20   1        ECLIPA   H66S     HAL2     0.900000E-01   1.00800           0
     21253 LPSA20   1        ECLIPA   C67      CTL2    -0.180000       12.0110           0
     21254 LPSA20   1        ECLIPA   H67R     HAL2     0.900000E-01   1.00800           0
     21255 LPSA20   1        ECLIPA   H67S     HAL2     0.900000E-01   1.00800           0
     21256 LPSA20   1        ECLIPA   C68      CTL2    -0.180000       12.0110           0
     21257 LPSA20   1        ECLIPA   H68R     HAL2     0.900000E-01   1.00800           0
     21258 LPSA20   1        ECLIPA   H68S     HAL2     0.900000E-01   1.00800           0
     21259 LPSA20   1        ECLIPA   C69      CTL2    -0.180000       12.0110           0
     21260 LPSA20   1        ECLIPA   H69R     HAL2     0.900000E-01   1.00800           0
     21261 LPSA20   1        ECLIPA   H69S     HAL2     0.900000E-01   1.00800           0
     21262 LPSA20   1        ECLIPA   C610     CTL2    -0.180000       12.0110           0
     21263 LPSA20   1        ECLIPA   H610R    HAL2     0.900000E-01   1.00800           0
     21264 LPSA20   1        ECLIPA   H610S    HAL2     0.900000E-01   1.00800           0
     21265 LPSA20   1        ECLIPA   C611     CTL2    -0.180000       12.0110           0
     21266 LPSA20   1        ECLIPA   H611R    HAL2     0.900000E-01   1.00800           0
     21267 LPSA20   1        ECLIPA   H611S    HAL2     0.900000E-01   1.00800           0
     21268 LPSA20   1        ECLIPA   C612     CTL3    -0.270000       12.0110           0
     21269 LPSA20   1        ECLIPA   H612R    HAL3     0.900000E-01   1.00800           0
     21270 LPSA20   1        ECLIPA   H612S    HAL3     0.900000E-01   1.00800           0
     21271 LPSA20   1        ECLIPA   H612T    HAL3     0.900000E-01   1.00800           0
     21272 LPSA20   1        ECLIPA   C54      CTL2    -0.180000       12.0110           0
     21273 LPSA20   1        ECLIPA   H54R     HAL2     0.900000E-01   1.00800           0
     21274 LPSA20   1        ECLIPA   H54S     HAL2     0.900000E-01   1.00800           0
     21275 LPSA20   1        ECLIPA   C55      CTL2    -0.180000       12.0110           0
     21276 LPSA20   1        ECLIPA   H55R     HAL2     0.900000E-01   1.00800           0
     21277 LPSA20   1        ECLIPA   H55S     HAL2     0.900000E-01   1.00800           0
     21278 LPSA20   1        ECLIPA   C56      CTL2    -0.180000       12.0110           0
     21279 LPSA20   1        ECLIPA   H56R     HAL2     0.900000E-01   1.00800           0
     21280 LPSA20   1        ECLIPA   H56S     HAL2     0.900000E-01   1.00800           0
     21281 LPSA20   1        ECLIPA   C57      CTL2    -0.180000       12.0110           0
     21282 LPSA20   1        ECLIPA   H57R     HAL2     0.900000E-01   1.00800           0
     21283 LPSA20   1        ECLIPA   H57S     HAL2     0.900000E-01   1.00800           0
     21284 LPSA20   1        ECLIPA   C58      CTL2    -0.180000       12.0110           0
     21285 LPSA20   1        ECLIPA   H58R     HAL2     0.900000E-01   1.00800           0
     21286 LPSA20   1        ECLIPA   H58S     HAL2     0.900000E-01   1.00800           0
     21287 LPSA20   1        ECLIPA   C59      CTL2    -0.180000       12.0110           0
     21288 LPSA20   1        ECLIPA   H59R     HAL2     0.900000E-01   1.00800           0
     21289 LPSA20   1        ECLIPA   H59S     HAL2     0.900000E-01   1.00800           0
     21290 LPSA20   1        ECLIPA   C510     CTL2    -0.180000       12.0110           0
     21291 LPSA20   1        ECLIPA   H510R    HAL2     0.900000E-01   1.00800           0
     21292 LPSA20   1        ECLIPA   H510S    HAL2     0.900000E-01   1.00800           0
     21293 LPSA20   1        ECLIPA   C511     CTL2    -0.180000       12.0110           0
     21294 LPSA20   1        ECLIPA   H511R    HAL2     0.900000E-01   1.00800           0
     21295 LPSA20   1        ECLIPA   H511S    HAL2     0.900000E-01   1.00800           0
     21296 LPSA20   1        ECLIPA   C512     CTL2    -0.180000       12.0110           0
     21297 LPSA20   1        ECLIPA   H512R    HAL2     0.900000E-01   1.00800           0
     21298 LPSA20   1        ECLIPA   H512S    HAL2     0.900000E-01   1.00800           0
     21299 LPSA20   1        ECLIPA   C513     CTL2    -0.180000       12.0110           0
     21300 LPSA20   1        ECLIPA   H513R    HAL2     0.900000E-01   1.00800           0
     21301 LPSA20   1        ECLIPA   H513S    HAL2     0.900000E-01   1.00800           0
     21302 LPSA20   1        ECLIPA   C514     CTL3    -0.270000       12.0110           0
     21303 LPSA20   1        ECLIPA   H514R    HAL3     0.900000E-01   1.00800           0
     21304 LPSA20   1        ECLIPA   H514S    HAL3     0.900000E-01   1.00800           0
     21305 LPSA20   1        ECLIPA   H514T    HAL3     0.900000E-01   1.00800           0
     21306 LPSA20   1        ECLIPA   C33      CTL1     0.140000       12.0110           0
     21307 LPSA20   1        ECLIPA   H33R     HAL1     0.900000E-01   1.00800           0
     21308 LPSA20   1        ECLIPA   O33      OH1     -0.660000       15.9994           0
     21309 LPSA20   1        ECLIPA   HO33     H        0.430000       1.00800           0
     21310 LPSA20   1        ECLIPA   C34      CTL2    -0.180000       12.0110           0
     21311 LPSA20   1        ECLIPA   H34R     HAL2     0.900000E-01   1.00800           0
     21312 LPSA20   1        ECLIPA   H34S     HAL2     0.900000E-01   1.00800           0
     21313 LPSA20   1        ECLIPA   C35      CTL2    -0.180000       12.0110           0
     21314 LPSA20   1        ECLIPA   H35R     HAL2     0.900000E-01   1.00800           0
     21315 LPSA20   1        ECLIPA   H35S     HAL2     0.900000E-01   1.00800           0
     21316 LPSA20   1        ECLIPA   C36      CTL2    -0.180000       12.0110           0
     21317 LPSA20   1        ECLIPA   H36R     HAL2     0.900000E-01   1.00800           0
     21318 LPSA20   1        ECLIPA   H36S     HAL2     0.900000E-01   1.00800           0
     21319 LPSA20   1        ECLIPA   C37      CTL2    -0.180000       12.0110           0
     21320 LPSA20   1        ECLIPA   H37R     HAL2     0.900000E-01   1.00800           0
     21321 LPSA20   1        ECLIPA   H37S     HAL2     0.900000E-01   1.00800           0
     21322 LPSA20   1        ECLIPA   C38      CTL2    -0.180000       12.0110           0
     21323 LPSA20   1        ECLIPA   H38R     HAL2     0.900000E-01   1.00800           0
     21324 LPSA20   1        ECLIPA   H38S     HAL2     0.900000E-01   1.00800           0
     21325 LPSA20   1        ECLIPA   C39      CTL2    -0.180000       12.0110           0
     21326 LPSA20   1        ECLIPA   H39R     HAL2     0.900000E-01   1.00800           0
     21327 LPSA20   1        ECLIPA   H39S     HAL2     0.900000E-01   1.00800           0
     21328 LPSA20   1        ECLIPA   C310     CTL2    -0.180000       12.0110           0
     21329 LPSA20   1        ECLIPA   H310R    HAL2     0.900000E-01   1.00800           0
     21330 LPSA20   1        ECLIPA   H310S    HAL2     0.900000E-01   1.00800           0
     21331 LPSA20   1        ECLIPA   C311     CTL2    -0.180000       12.0110           0
     21332 LPSA20   1        ECLIPA   H311R    HAL2     0.900000E-01   1.00800           0
     21333 LPSA20   1        ECLIPA   H311S    HAL2     0.900000E-01   1.00800           0
     21334 LPSA20   1        ECLIPA   C312     CTL2    -0.180000       12.0110           0
     21335 LPSA20   1        ECLIPA   H312R    HAL2     0.900000E-01   1.00800           0
     21336 LPSA20   1        ECLIPA   H312S    HAL2     0.900000E-01   1.00800           0
     21337 LPSA20   1        ECLIPA   C313     CTL2    -0.180000       12.0110           0
     21338 LPSA20   1        ECLIPA   H313R    HAL2     0.900000E-01   1.00800           0
     21339 LPSA20   1        ECLIPA   H313S    HAL2     0.900000E-01   1.00800           0
     21340 LPSA20   1        ECLIPA   C314     CTL3    -0.270000       12.0110           0
     21341 LPSA20   1        ECLIPA   H314R    HAL3     0.900000E-01   1.00800           0
     21342 LPSA20   1        ECLIPA   H314S    HAL3     0.900000E-01   1.00800           0
     21343 LPSA20   1        ECLIPA   H314T    HAL3     0.900000E-01   1.00800           0
     21344 LPSA20   1        ECLIPA   C11      CC2O1    0.550000       12.0110           0
     21345 LPSA20   1        ECLIPA   O11      OC2D1   -0.550000       15.9994           0
     21346 LPSA20   1        ECLIPA   C12      CTL2    -0.180000       12.0110           0
     21347 LPSA20   1        ECLIPA   H12R     HAL2     0.900000E-01   1.00800           0
     21348 LPSA20   1        ECLIPA   H12S     HAL2     0.900000E-01   1.00800           0
     21349 LPSA20   1        ECLIPA   C13      CTL1     0.140000       12.0110           0
     21350 LPSA20   1        ECLIPA   H13R     HAL1     0.900000E-01   1.00800           0
     21351 LPSA20   1        ECLIPA   O13      OH1     -0.660000       15.9994           0
     21352 LPSA20   1        ECLIPA   HO13     H        0.430000       1.00800           0
     21353 LPSA20   1        ECLIPA   C14      CTL2    -0.180000       12.0110           0
     21354 LPSA20   1        ECLIPA   H14R     HAL2     0.900000E-01   1.00800           0
     21355 LPSA20   1        ECLIPA   H14S     HAL2     0.900000E-01   1.00800           0
     21356 LPSA20   1        ECLIPA   C15      CTL2    -0.180000       12.0110           0
     21357 LPSA20   1        ECLIPA   H15R     HAL2     0.900000E-01   1.00800           0
     21358 LPSA20   1        ECLIPA   H15S     HAL2     0.900000E-01   1.00800           0
     21359 LPSA20   1        ECLIPA   C16      CTL2    -0.180000       12.0110           0
     21360 LPSA20   1        ECLIPA   H16R     HAL2     0.900000E-01   1.00800           0
     21361 LPSA20   1        ECLIPA   H16S     HAL2     0.900000E-01   1.00800           0
     21362 LPSA20   1        ECLIPA   C17      CTL2    -0.180000       12.0110           0
     21363 LPSA20   1        ECLIPA   H17R     HAL2     0.900000E-01   1.00800           0
     21364 LPSA20   1        ECLIPA   H17S     HAL2     0.900000E-01   1.00800           0
     21365 LPSA20   1        ECLIPA   C18      CTL2    -0.180000       12.0110           0
     21366 LPSA20   1        ECLIPA   H18R     HAL2     0.900000E-01   1.00800           0
     21367 LPSA20   1        ECLIPA   H18S     HAL2     0.900000E-01   1.00800           0
     21368 LPSA20   1        ECLIPA   C19      CTL2    -0.180000       12.0110           0
     21369 LPSA20   1        ECLIPA   H19R     HAL2     0.900000E-01   1.00800           0
     21370 LPSA20   1        ECLIPA   H19S     HAL2     0.900000E-01   1.00800           0
     21371 LPSA20   1        ECLIPA   C110     CTL2    -0.180000       12.0110           0
     21372 LPSA20   1        ECLIPA   H110R    HAL2     0.900000E-01   1.00800           0
     21373 LPSA20   1        ECLIPA   H110S    HAL2     0.900000E-01   1.00800           0
     21374 LPSA20   1        ECLIPA   C111     CTL2    -0.180000       12.0110           0
     21375 LPSA20   1        ECLIPA   H111R    HAL2     0.900000E-01   1.00800           0
     21376 LPSA20   1        ECLIPA   H111S    HAL2     0.900000E-01   1.00800           0
     21377 LPSA20   1        ECLIPA   C112     CTL2    -0.180000       12.0110           0
     21378 LPSA20   1        ECLIPA   H112R    HAL2     0.900000E-01   1.00800           0
     21379 LPSA20   1        ECLIPA   H112S    HAL2     0.900000E-01   1.00800           0
     21380 LPSA20   1        ECLIPA   C113     CTL2    -0.180000       12.0110           0
     21381 LPSA20   1        ECLIPA   H113R    HAL2     0.900000E-01   1.00800           0
     21382 LPSA20   1        ECLIPA   H113S    HAL2     0.900000E-01   1.00800           0
     21383 LPSA20   1        ECLIPA   C114     CTL3    -0.270000       12.0110           0
     21384 LPSA20   1        ECLIPA   H114R    HAL3     0.900000E-01   1.00800           0
     21385 LPSA20   1        ECLIPA   H114S    HAL3     0.900000E-01   1.00800           0
     21386 LPSA20   1        ECLIPA   H114T    HAL3     0.900000E-01   1.00800           0
     21387 LPSA20   2        AKDO     C1       CC2O2    0.300000       12.0110           0
     21388 LPSA20   2        AKDO     O11      OC2D2   -0.600000       15.9994           0
     21389 LPSA20   2        AKDO     O12      OC2D2   -0.600000       15.9994           0
     21390 LPSA20   2        AKDO     C2       CC3062   0.280000       12.0110           0
     21391 LPSA20   2        AKDO     C6       CC3163   0.110000       12.0110           0
     21392 LPSA20   2        AKDO     H6       HCA1     0.900000E-01   1.00800           0
     21393 LPSA20   2        AKDO     O6       OC3C61  -0.400000       15.9994           0
     21394 LPSA20   2        AKDO     C3       CC3261  -0.180000       12.0110           0
     21395 LPSA20   2        AKDO     H31      HCA2     0.900000E-01   1.00800           0
     21396 LPSA20   2        AKDO     H32      HCA2     0.900000E-01   1.00800           0
     21397 LPSA20   2        AKDO     C4       CC3161   0.900000E-01   12.0110           0
     21398 LPSA20   2        AKDO     H4       HCA1     0.900000E-01   1.00800           0
     21399 LPSA20   2        AKDO     O4       OC301   -0.360000       15.9994           0
     21400 LPSA20   2        AKDO     C5       CC3161   0.900000E-01   12.0110           0
     21401 LPSA20   2        AKDO     H5       HCA1     0.900000E-01   1.00800           0
     21402 LPSA20   2        AKDO     O5       OC301   -0.360000       15.9994           0
     21403 LPSA20   2        AKDO     C7       CC312    0.140000       12.0110           0
     21404 LPSA20   2        AKDO     H7       HCA1     0.900000E-01   1.00800           0
     21405 LPSA20   2        AKDO     O7       OC311   -0.650000       15.9994           0
     21406 LPSA20   2        AKDO     HO7      HCP1     0.420000       1.00800           0
     21407 LPSA20   2        AKDO     C8       CC322    0.500000E-01   12.0110           0
     21408 LPSA20   2        AKDO     H81      HCA2     0.900000E-01   1.00800           0
     21409 LPSA20   2        AKDO     H82      HCA2     0.900000E-01   1.00800           0
     21410 LPSA20   2        AKDO     O8       OC311   -0.650000       15.9994           0
     21411 LPSA20   2        AKDO     HO8      HCP1     0.420000       1.00800           0
     21412 LPSA20   3        AKDO     C1       CC2O2    0.300000       12.0110           0
     21413 LPSA20   3        AKDO     O11      OC2D2   -0.600000       15.9994           0
     21414 LPSA20   3        AKDO     O12      OC2D2   -0.600000       15.9994           0
     21415 LPSA20   3        AKDO     C2       CC3062   0.280000       12.0110           0
     21416 LPSA20   3        AKDO     C6       CC3163   0.110000       12.0110           0
     21417 LPSA20   3        AKDO     H6       HCA1     0.900000E-01   1.00800           0
     21418 LPSA20   3        AKDO     O6       OC3C61  -0.400000       15.9994           0
     21419 LPSA20   3        AKDO     C3       CC3261  -0.180000       12.0110           0
     21420 LPSA20   3        AKDO     H31      HCA2     0.900000E-01   1.00800           0
     21421 LPSA20   3        AKDO     H32      HCA2     0.900000E-01   1.00800           0
     21422 LPSA20   3        AKDO     C4       CC3161   0.140000       12.0110           0
     21423 LPSA20   3        AKDO     H4       HCA1     0.900000E-01   1.00800           0
     21424 LPSA20   3        AKDO     O4       OC311   -0.650000       15.9994           0
     21425 LPSA20   3        AKDO     HO4      HCP1     0.420000       1.00800           0
     21426 LPSA20   3        AKDO     C5       CC3161   0.140000       12.0110           0
     21427 LPSA20   3        AKDO     H5       HCA1     0.900000E-01   1.00800           0
     21428 LPSA20   3        AKDO     O5       OC311   -0.650000       15.9994           0
     21429 LPSA20   3        AKDO     HO5      HCP1     0.420000       1.00800           0
     21430 LPSA20   3        AKDO     C7       CC312    0.140000       12.0110           0
     21431 LPSA20   3        AKDO     H7       HCA1     0.900000E-01   1.00800           0
     21432 LPSA20   3        AKDO     O7       OC311   -0.650000       15.9994           0
     21433 LPSA20   3        AKDO     HO7      HCP1     0.420000       1.00800           0
     21434 LPSA20   3        AKDO     C8       CC322    0.500000E-01   12.0110           0
     21435 LPSA20   3        AKDO     H81      HCA2     0.900000E-01   1.00800           0
     21436 LPSA20   3        AKDO     H82      HCA2     0.900000E-01   1.00800           0
     21437 LPSA20   3        AKDO     O8       OC311   -0.650000       15.9994           0
     21438 LPSA20   3        AKDO     HO8      HCP1     0.420000       1.00800           0
     21439 LPSA20   4        AHEP     C1       CC3162   0.290000       12.0110           0
     21440 LPSA20   4        AHEP     H1       HCA1     0.900000E-01   1.00800           0
     21441 LPSA20   4        AHEP     C5       CC3163   0.110000       12.0110           0
     21442 LPSA20   4        AHEP     H5       HCA1     0.900000E-01   1.00800           0
     21443 LPSA20   4        AHEP     O5       OC3C61  -0.400000       15.9994           0
     21444 LPSA20   4        AHEP     C2       CC3161   0.140000       12.0110           0
     21445 LPSA20   4        AHEP     H2       HCA1     0.900000E-01   1.00800           0
     21446 LPSA20   4        AHEP     O2       OC311   -0.650000       15.9994           0
     21447 LPSA20   4        AHEP     HO2      HCP1     0.420000       1.00800           0
     21448 LPSA20   4        AHEP     C3       CC3161   0.900000E-01   12.0110           0
     21449 LPSA20   4        AHEP     H3       HCA1     0.900000E-01   1.00800           0
     21450 LPSA20   4        AHEP     O3       OC301   -0.360000       15.9994           0
     21451 LPSA20   4        AHEP     C4       CC3161  -0.900000E-01   12.0110           0
     21452 LPSA20   4        AHEP     H4       HCA1     0.900000E-01   1.00800           0
     21453 LPSA20   4        AHEP     O4       OC30P   -0.400000       15.9994           0
     21454 LPSA20   4        AHEP     P4       PC        1.10000       30.9740           0
     21455 LPSA20   4        AHEP     OP42     OC2DP   -0.900000       15.9994           0
     21456 LPSA20   4        AHEP     OP43     OC2DP   -0.900000       15.9994           0
     21457 LPSA20   4        AHEP     OP44     OC2DP   -0.900000       15.9994           0
     21458 LPSA20   4        AHEP     C6       CC312    0.140000       12.0110           0
     21459 LPSA20   4        AHEP     H6       HCA1     0.900000E-01   1.00800           0
     21460 LPSA20   4        AHEP     O6       OC311   -0.650000       15.9994           0
     21461 LPSA20   4        AHEP     HO6      HCP1     0.420000       1.00800           0
     21462 LPSA20   4        AHEP     C7       CC322    0.500000E-01   12.0110           0
     21463 LPSA20   4        AHEP     H71      HCA2     0.900000E-01   1.00800           0
     21464 LPSA20   4        AHEP     H72      HCA2     0.900000E-01   1.00800           0
     21465 LPSA20   4        AHEP     O7       OC311   -0.650000       15.9994           0
     21466 LPSA20   4        AHEP     HO7      HCP1     0.420000       1.00800           0
     21467 LPSA20   5        AHEP     C1       CC3162   0.290000       12.0110           0
     21468 LPSA20   5        AHEP     H1       HCA1     0.900000E-01   1.00800           0
     21469 LPSA20   5        AHEP     C5       CC3163   0.110000       12.0110           0
     21470 LPSA20   5        AHEP     H5       HCA1     0.900000E-01   1.00800           0
     21471 LPSA20   5        AHEP     O5       OC3C61  -0.400000       15.9994           0
     21472 LPSA20   5        AHEP     C2       CC3161   0.140000       12.0110           0
     21473 LPSA20   5        AHEP     H2       HCA1     0.900000E-01   1.00800           0
     21474 LPSA20   5        AHEP     O2       OC311   -0.650000       15.9994           0
     21475 LPSA20   5        AHEP     HO2      HCP1     0.420000       1.00800           0
     21476 LPSA20   5        AHEP     C3       CC3161   0.900000E-01   12.0110           0
     21477 LPSA20   5        AHEP     H3       HCA1     0.900000E-01   1.00800           0
     21478 LPSA20   5        AHEP     O3       OC301   -0.360000       15.9994           0
     21479 LPSA20   5        AHEP     C4       CC3161  -0.900000E-01   12.0110           0
     21480 LPSA20   5        AHEP     H4       HCA1     0.900000E-01   1.00800           0
     21481 LPSA20   5        AHEP     O4       OC30P   -0.400000       15.9994           0
     21482 LPSA20   5        AHEP     P4       PC        1.10000       30.9740           0
     21483 LPSA20   5        AHEP     OP42     OC2DP   -0.900000       15.9994           0
     21484 LPSA20   5        AHEP     OP43     OC2DP   -0.900000       15.9994           0
     21485 LPSA20   5        AHEP     OP44     OC2DP   -0.900000       15.9994           0
     21486 LPSA20   5        AHEP     C6       CC312    0.140000       12.0110           0
     21487 LPSA20   5        AHEP     H6       HCA1     0.900000E-01   1.00800           0
     21488 LPSA20   5        AHEP     O6       OC311   -0.650000       15.9994           0
     21489 LPSA20   5        AHEP     HO6      HCP1     0.420000       1.00800           0
     21490 LPSA20   5        AHEP     C7       CC322     0.00000       12.0110           0
     21491 LPSA20   5        AHEP     H71      HCA2     0.900000E-01   1.00800           0
     21492 LPSA20   5        AHEP     H72      HCA2     0.900000E-01   1.00800           0
     21493 LPSA20   5        AHEP     O7       OC301   -0.360000       15.9994           0
     21494 LPSA20   6        AHEP     C1       CC3162   0.290000       12.0110           0
     21495 LPSA20   6        AHEP     H1       HCA1     0.900000E-01   1.00800           0
     21496 LPSA20   6        AHEP     C5       CC3163   0.110000       12.0110           0
     21497 LPSA20   6        AHEP     H5       HCA1     0.900000E-01   1.00800           0
     21498 LPSA20   6        AHEP     O5       OC3C61  -0.400000       15.9994           0
     21499 LPSA20   6        AHEP     C2       CC3161   0.140000       12.0110           0
     21500 LPSA20   6        AHEP     H2       HCA1     0.900000E-01   1.00800           0
     21501 LPSA20   6        AHEP     O2       OC311   -0.650000       15.9994           0
     21502 LPSA20   6        AHEP     HO2      HCP1     0.420000       1.00800           0
     21503 LPSA20   6        AHEP     C3       CC3161   0.140000       12.0110           0
     21504 LPSA20   6        AHEP     H3       HCA1     0.900000E-01   1.00800           0
     21505 LPSA20   6        AHEP     O3       OC311   -0.650000       15.9994           0
     21506 LPSA20   6        AHEP     HO3      HCP1     0.420000       1.00800           0
     21507 LPSA20   6        AHEP     C4       CC3161   0.140000       12.0110           0
     21508 LPSA20   6        AHEP     H4       HCA1     0.900000E-01   1.00800           0
     21509 LPSA20   6        AHEP     O4       OC311   -0.650000       15.9994           0
     21510 LPSA20   6        AHEP     HO4      HCP1     0.420000       1.00800           0
     21511 LPSA20   6        AHEP     C6       CC312    0.140000       12.0110           0
     21512 LPSA20   6        AHEP     H6       HCA1     0.900000E-01   1.00800           0
     21513 LPSA20   6        AHEP     O6       OC311   -0.650000       15.9994           0
     21514 LPSA20   6        AHEP     HO6      HCP1     0.420000       1.00800           0
     21515 LPSA20   6        AHEP     C7       CC322    0.500000E-01   12.0110           0
     21516 LPSA20   6        AHEP     H71      HCA2     0.900000E-01   1.00800           0
     21517 LPSA20   6        AHEP     H72      HCA2     0.900000E-01   1.00800           0
     21518 LPSA20   6        AHEP     O7       OC311   -0.650000       15.9994           0
     21519 LPSA20   6        AHEP     HO7      HCP1     0.420000       1.00800           0
     21520 LPSA20   7        AGLC     C1       CC3162   0.290000       12.0110           0
     21521 LPSA20   7        AGLC     H1       HCA1     0.900000E-01   1.00800           0
     21522 LPSA20   7        AGLC     C5       CC3163   0.110000       12.0110           0
     21523 LPSA20   7        AGLC     H5       HCA1     0.900000E-01   1.00800           0
     21524 LPSA20   7        AGLC     O5       OC3C61  -0.400000       15.9994           0
     21525 LPSA20   7        AGLC     C2       CC3161   0.140000       12.0110           0
     21526 LPSA20   7        AGLC     H2       HCA1     0.900000E-01   1.00800           0
     21527 LPSA20   7        AGLC     O2       OC311   -0.650000       15.9994           0
     21528 LPSA20   7        AGLC     HO2      HCP1     0.420000       1.00800           0
     21529 LPSA20   7        AGLC     C3       CC3161   0.900000E-01   12.0110           0
     21530 LPSA20   7        AGLC     H3       HCA1     0.900000E-01   1.00800           0
     21531 LPSA20   7        AGLC     O3       OC301   -0.360000       15.9994           0
     21532 LPSA20   7        AGLC     C4       CC3161   0.140000       12.0110           0
     21533 LPSA20   7        AGLC     H4       HCA1     0.900000E-01   1.00800           0
     21534 LPSA20   7        AGLC     O4       OC311   -0.650000       15.9994           0
     21535 LPSA20   7        AGLC     HO4      HCP1     0.420000       1.00800           0
     21536 LPSA20   7        AGLC     C6       CC321    0.500000E-01   12.0110           0
     21537 LPSA20   7        AGLC     H61      HCA2     0.900000E-01   1.00800           0
     21538 LPSA20   7        AGLC     H62      HCA2     0.900000E-01   1.00800           0
     21539 LPSA20   7        AGLC     O6       OC311   -0.650000       15.9994           0
     21540 LPSA20   7        AGLC     HO6      HCP1     0.420000       1.00800           0
     21541 LPSA20   8        AGLC     C1       CC3162   0.290000       12.0110           0
     21542 LPSA20   8        AGLC     H1       HCA1     0.900000E-01   1.00800           0
     21543 LPSA20   8        AGLC     C5       CC3163   0.110000       12.0110           0
     21544 LPSA20   8        AGLC     H5       HCA1     0.900000E-01   1.00800           0
     21545 LPSA20   8        AGLC     O5       OC3C61  -0.400000       15.9994           0
     21546 LPSA20   8        AGLC     C2       CC3161   0.900000E-01   12.0110           0
     21547 LPSA20   8        AGLC     H2       HCA1     0.900000E-01   1.00800           0
     21548 LPSA20   8        AGLC     O2       OC301   -0.360000       15.9994           0
     21549 LPSA20   8        AGLC     C3       CC3161   0.900000E-01   12.0110           0
     21550 LPSA20   8        AGLC     H3       HCA1     0.900000E-01   1.00800           0
     21551 LPSA20   8        AGLC     O3       OC301   -0.360000       15.9994           0
     21552 LPSA20   8        AGLC     C4       CC3161   0.140000       12.0110           0
     21553 LPSA20   8        AGLC     H4       HCA1     0.900000E-01   1.00800           0
     21554 LPSA20   8        AGLC     O4       OC311   -0.650000       15.9994           0
     21555 LPSA20   8        AGLC     HO4      HCP1     0.420000       1.00800           0
     21556 LPSA20   8        AGLC     C6       CC321    0.500000E-01   12.0110           0
     21557 LPSA20   8        AGLC     H61      HCA2     0.900000E-01   1.00800           0
     21558 LPSA20   8        AGLC     H62      HCA2     0.900000E-01   1.00800           0
     21559 LPSA20   8        AGLC     O6       OC311   -0.650000       15.9994           0
     21560 LPSA20   8        AGLC     HO6      HCP1     0.420000       1.00800           0
     21561 LPSA20   9        AGAL     C1       CC3162   0.290000       12.0110           0
     21562 LPSA20   9        AGAL     H1       HCA1     0.900000E-01   1.00800           0
     21563 LPSA20   9        AGAL     C5       CC3163   0.110000       12.0110           0
     21564 LPSA20   9        AGAL     H5       HCA1     0.900000E-01   1.00800           0
     21565 LPSA20   9        AGAL     O5       OC3C61  -0.400000       15.9994           0
     21566 LPSA20   9        AGAL     C2       CC3161   0.900000E-01   12.0110           0
     21567 LPSA20   9        AGAL     H2       HCA1     0.900000E-01   1.00800           0
     21568 LPSA20   9        AGAL     O2       OC301   -0.360000       15.9994           0
     21569 LPSA20   9        AGAL     C3       CC3161   0.140000       12.0110           0
     21570 LPSA20   9        AGAL     H3       HCA1     0.900000E-01   1.00800           0
     21571 LPSA20   9        AGAL     O3       OC311   -0.650000       15.9994           0
     21572 LPSA20   9        AGAL     HO3      HCP1     0.420000       1.00800           0
     21573 LPSA20   9        AGAL     C4       CC3161   0.140000       12.0110           0
     21574 LPSA20   9        AGAL     H4       HCA1     0.900000E-01   1.00800           0
     21575 LPSA20   9        AGAL     O4       OC311   -0.650000       15.9994           0
     21576 LPSA20   9        AGAL     HO4      HCP1     0.420000       1.00800           0
     21577 LPSA20   9        AGAL     C6       CC321    0.500000E-01   12.0110           0
     21578 LPSA20   9        AGAL     H61      HCA2     0.900000E-01   1.00800           0
     21579 LPSA20   9        AGAL     H62      HCA2     0.900000E-01   1.00800           0
     21580 LPSA20   9        AGAL     O6       OC311   -0.650000       15.9994           0
     21581 LPSA20   9        AGAL     HO6      HCP1     0.420000       1.00800           0
     21582 LPSA20   10       AGAL     C1       CC3162   0.290000       12.0110           0
     21583 LPSA20   10       AGAL     H1       HCA1     0.900000E-01   1.00800           0
     21584 LPSA20   10       AGAL     C5       CC3163   0.110000       12.0110           0
     21585 LPSA20   10       AGAL     H5       HCA1     0.900000E-01   1.00800           0
     21586 LPSA20   10       AGAL     O5       OC3C61  -0.400000       15.9994           0
     21587 LPSA20   10       AGAL     C2       CC3161   0.140000       12.0110           0
     21588 LPSA20   10       AGAL     H2       HCA1     0.900000E-01   1.00800           0
     21589 LPSA20   10       AGAL     O2       OC311   -0.650000       15.9994           0
     21590 LPSA20   10       AGAL     HO2      HCP1     0.420000       1.00800           0
     21591 LPSA20   10       AGAL     C3       CC3161   0.140000       12.0110           0
     21592 LPSA20   10       AGAL     H3       HCA1     0.900000E-01   1.00800           0
     21593 LPSA20   10       AGAL     O3       OC311   -0.650000       15.9994           0
     21594 LPSA20   10       AGAL     HO3      HCP1     0.420000       1.00800           0
     21595 LPSA20   10       AGAL     C4       CC3161   0.140000       12.0110           0
     21596 LPSA20   10       AGAL     H4       HCA1     0.900000E-01   1.00800           0
     21597 LPSA20   10       AGAL     O4       OC311   -0.650000       15.9994           0
     21598 LPSA20   10       AGAL     HO4      HCP1     0.420000       1.00800           0
     21599 LPSA20   10       AGAL     C6       CC321    0.500000E-01   12.0110           0
     21600 LPSA20   10       AGAL     H61      HCA2     0.900000E-01   1.00800           0
     21601 LPSA20   10       AGAL     H62      HCA2     0.900000E-01   1.00800           0
     21602 LPSA20   10       AGAL     O6       OC311   -0.650000       15.9994           0
     21603 LPSA20   10       AGAL     HO6      HCP1     0.420000       1.00800           0
     21604 LPSA20   11       BGLC     C1       CC3162   0.290000       12.0110           0
     21605 LPSA20   11       BGLC     H1       HCA1     0.900000E-01   1.00800           0
     21606 LPSA20   11       BGLC     C5       CC3163   0.110000       12.0110           0
     21607 LPSA20   11       BGLC     H5       HCA1     0.900000E-01   1.00800           0
     21608 LPSA20   11       BGLC     O5       OC3C61  -0.400000       15.9994           0
     21609 LPSA20   11       BGLC     C2       CC3161   0.140000       12.0110           0
     21610 LPSA20   11       BGLC     H2       HCA1     0.900000E-01   1.00800           0
     21611 LPSA20   11       BGLC     O2       OC311   -0.650000       15.9994           0
     21612 LPSA20   11       BGLC     HO2      HCP1     0.420000       1.00800           0
     21613 LPSA20   11       BGLC     C3       CC3161   0.900000E-01   12.0110           0
     21614 LPSA20   11       BGLC     H3       HCA1     0.900000E-01   1.00800           0
     21615 LPSA20   11       BGLC     O3       OC301   -0.360000       15.9994           0
     21616 LPSA20   11       BGLC     C4       CC3161   0.140000       12.0110           0
     21617 LPSA20   11       BGLC     H4       HCA1     0.900000E-01   1.00800           0
     21618 LPSA20   11       BGLC     O4       OC311   -0.650000       15.9994           0
     21619 LPSA20   11       BGLC     HO4      HCP1     0.420000       1.00800           0
     21620 LPSA20   11       BGLC     C6       CC321    0.500000E-01   12.0110           0
     21621 LPSA20   11       BGLC     H61      HCA2     0.900000E-01   1.00800           0
     21622 LPSA20   11       BGLC     H62      HCA2     0.900000E-01   1.00800           0
     21623 LPSA20   11       BGLC     O6       OC311   -0.650000       15.9994           0
     21624 LPSA20   11       BGLC     HO6      HCP1     0.420000       1.00800           0
     21625 LPSA20   12       BGLCNA   C1       CC3162   0.290000       12.0110           0
     21626 LPSA20   12       BGLCNA   H1       HCA1     0.900000E-01   1.00800           0
     21627 LPSA20   12       BGLCNA   C5       CC3163   0.110000       12.0110           0
     21628 LPSA20   12       BGLCNA   H5       HCA1     0.900000E-01   1.00800           0
     21629 LPSA20   12       BGLCNA   O5       OC3C61  -0.400000       15.9994           0
     21630 LPSA20   12       BGLCNA   C2       CC3161   0.700000E-01   12.0110           0
     21631 LPSA20   12       BGLCNA   H2       HCA1     0.900000E-01   1.00800           0
     21632 LPSA20   12       BGLCNA   N        NC2D1   -0.470000       14.0070           0
     21633 LPSA20   12       BGLCNA   HN       HCP1     0.310000       1.00800           0
     21634 LPSA20   12       BGLCNA   C        CC2O1    0.510000       12.0110           0
     21635 LPSA20   12       BGLCNA   O        OC2D1   -0.510000       15.9994           0
     21636 LPSA20   12       BGLCNA   CT       CC331   -0.270000       12.0110           0
     21637 LPSA20   12       BGLCNA   HT1      HCA3     0.900000E-01   1.00800           0
     21638 LPSA20   12       BGLCNA   HT2      HCA3     0.900000E-01   1.00800           0
     21639 LPSA20   12       BGLCNA   HT3      HCA3     0.900000E-01   1.00800           0
     21640 LPSA20   12       BGLCNA   C3       CC3161   0.900000E-01   12.0110           0
     21641 LPSA20   12       BGLCNA   H3       HCA1     0.900000E-01   1.00800           0
     21642 LPSA20   12       BGLCNA   O3       OC301   -0.360000       15.9994           0
     21643 LPSA20   12       BGLCNA   C4       CC3161   0.140000       12.0110           0
     21644 LPSA20   12       BGLCNA   H4       HCA1     0.900000E-01   1.00800           0
     21645 LPSA20   12       BGLCNA   O4       OC311   -0.650000       15.9994           0
     21646 LPSA20   12       BGLCNA   HO4      HCP1     0.420000       1.00800           0
     21647 LPSA20   12       BGLCNA   C6       CC321    0.500000E-01   12.0110           0
     21648 LPSA20   12       BGLCNA   H61      HCA2     0.900000E-01   1.00800           0
     21649 LPSA20   12       BGLCNA   H62      HCA2     0.900000E-01   1.00800           0
     21650 LPSA20   12       BGLCNA   O6       OC311   -0.650000       15.9994           0
     21651 LPSA20   12       BGLCNA   HO6      HCP1     0.420000       1.00800           0
     21652 LPSA20   13       AGAL     C1       CC3162   0.290000       12.0110           0
     21653 LPSA20   13       AGAL     H1       HCA1     0.900000E-01   1.00800           0
     21654 LPSA20   13       AGAL     C5       CC3163   0.110000       12.0110           0
     21655 LPSA20   13       AGAL     H5       HCA1     0.900000E-01   1.00800           0
     21656 LPSA20   13       AGAL     O5       OC3C61  -0.400000       15.9994           0
     21657 LPSA20   13       AGAL     C2       CC3161   0.900000E-01   12.0110           0
     21658 LPSA20   13       AGAL     H2       HCA1     0.900000E-01   1.00800           0
     21659 LPSA20   13       AGAL     O2       OC301   -0.360000       15.9994           0
     21660 LPSA20   13       AGAL     C3       CC3161   0.140000       12.0110           0
     21661 LPSA20   13       AGAL     H3       HCA1     0.900000E-01   1.00800           0
     21662 LPSA20   13       AGAL     O3       OC311   -0.650000       15.9994           0
     21663 LPSA20   13       AGAL     HO3      HCP1     0.420000       1.00800           0
     21664 LPSA20   13       AGAL     C4       CC3161   0.140000       12.0110           0
     21665 LPSA20   13       AGAL     H4       HCA1     0.900000E-01   1.00800           0
     21666 LPSA20   13       AGAL     O4       OC311   -0.650000       15.9994           0
     21667 LPSA20   13       AGAL     HO4      HCP1     0.420000       1.00800           0
     21668 LPSA20   13       AGAL     C6       CC321    0.500000E-01   12.0110           0
     21669 LPSA20   13       AGAL     H61      HCA2     0.900000E-01   1.00800           0
     21670 LPSA20   13       AGAL     H62      HCA2     0.900000E-01   1.00800           0
     21671 LPSA20   13       AGAL     O6       OC311   -0.650000       15.9994           0
     21672 LPSA20   13       AGAL     HO6      HCP1     0.420000       1.00800           0
     21673 LPSA20   14       ARHM     C1       CC3162   0.290000       12.0110           0
     21674 LPSA20   14       ARHM     H1       HCA1     0.900000E-01   1.00800           0
     21675 LPSA20   14       ARHM     C5       CC3163   0.110000       12.0110           0
     21676 LPSA20   14       ARHM     H5       HCA1     0.900000E-01   1.00800           0
     21677 LPSA20   14       ARHM     O5       OC3C61  -0.400000       15.9994           0
     21678 LPSA20   14       ARHM     C2       CC3161   0.900000E-01   12.0110           0
     21679 LPSA20   14       ARHM     H2       HCA1     0.900000E-01   1.00800           0
     21680 LPSA20   14       ARHM     O2       OC301   -0.360000       15.9994           0
     21681 LPSA20   14       ARHM     C3       CC3161   0.140000       12.0110           0
     21682 LPSA20   14       ARHM     H3       HCA1     0.900000E-01   1.00800           0
     21683 LPSA20   14       ARHM     O3       OC311   -0.650000       15.9994           0
     21684 LPSA20   14       ARHM     HO3      HCP1     0.420000       1.00800           0
     21685 LPSA20   14       ARHM     C4       CC3161   0.140000       12.0110           0
     21686 LPSA20   14       ARHM     H4       HCA1     0.900000E-01   1.00800           0
     21687 LPSA20   14       ARHM     O4       OC311   -0.650000       15.9994           0
     21688 LPSA20   14       ARHM     HO4      HCP1     0.420000       1.00800           0
     21689 LPSA20   14       ARHM     C6       CC331   -0.270000       12.0110           0
     21690 LPSA20   14       ARHM     H61      HCA3     0.900000E-01   1.00800           0
     21691 LPSA20   14       ARHM     H62      HCA3     0.900000E-01   1.00800           0
     21692 LPSA20   14       ARHM     H63      HCA3     0.900000E-01   1.00800           0
     21693 LPSA20   15       ARHM     C1       CC3162   0.290000       12.0110           0
     21694 LPSA20   15       ARHM     H1       HCA1     0.900000E-01   1.00800           0
     21695 LPSA20   15       ARHM     C5       CC3163   0.110000       12.0110           0
     21696 LPSA20   15       ARHM     H5       HCA1     0.900000E-01   1.00800           0
     21697 LPSA20   15       ARHM     O5       OC3C61  -0.400000       15.9994           0
     21698 LPSA20   15       ARHM     C2       CC3161   0.900000E-01   12.0110           0
     21699 LPSA20   15       ARHM     H2       HCA1     0.900000E-01   1.00800           0
     21700 LPSA20   15       ARHM     O2       OC301   -0.360000       15.9994           0
     21701 LPSA20   15       ARHM     C3       CC3161   0.900000E-01   12.0110           0
     21702 LPSA20   15       ARHM     H3       HCA1     0.900000E-01   1.00800           0
     21703 LPSA20   15       ARHM     O3       OC301   -0.360000       15.9994           0
     21704 LPSA20   15       ARHM     C4       CC3161   0.140000       12.0110           0
     21705 LPSA20   15       ARHM     H4       HCA1     0.900000E-01   1.00800           0
     21706 LPSA20   15       ARHM     O4       OC311   -0.650000       15.9994           0
     21707 LPSA20   15       ARHM     HO4      HCP1     0.420000       1.00800           0
     21708 LPSA20   15       ARHM     C6       CC331   -0.270000       12.0110           0
     21709 LPSA20   15       ARHM     H61      HCA3     0.900000E-01   1.00800           0
     21710 LPSA20   15       ARHM     H62      HCA3     0.900000E-01   1.00800           0
     21711 LPSA20   15       ARHM     H63      HCA3     0.900000E-01   1.00800           0
     21712 LPSA20   16       BMANNA   C1       CC3162   0.290000       12.0110           0
     21713 LPSA20   16       BMANNA   H1       HCA1     0.900000E-01   1.00800           0
     21714 LPSA20   16       BMANNA   C5       CC3163   0.110000       12.0110           0
     21715 LPSA20   16       BMANNA   H5       HCA1     0.900000E-01   1.00800           0
     21716 LPSA20   16       BMANNA   O5       OC3C61  -0.400000       15.9994           0
     21717 LPSA20   16       BMANNA   C2       CC3161   0.700000E-01   12.0110           0
     21718 LPSA20   16       BMANNA   H2       HCA1     0.900000E-01   1.00800           0
     21719 LPSA20   16       BMANNA   N        NC2D1   -0.470000       14.0070           0
     21720 LPSA20   16       BMANNA   HN       HCP1     0.310000       1.00800           0
     21721 LPSA20   16       BMANNA   C        CC2O1    0.510000       12.0110           0
     21722 LPSA20   16       BMANNA   O        OC2D1   -0.510000       15.9994           0
     21723 LPSA20   16       BMANNA   CT       CC331   -0.270000       12.0110           0
     21724 LPSA20   16       BMANNA   HT1      HCA3     0.900000E-01   1.00800           0
     21725 LPSA20   16       BMANNA   HT2      HCA3     0.900000E-01   1.00800           0
     21726 LPSA20   16       BMANNA   HT3      HCA3     0.900000E-01   1.00800           0
     21727 LPSA20   16       BMANNA   C3       CC3161   0.140000       12.0110           0
     21728 LPSA20   16       BMANNA   H3       HCA1     0.900000E-01   1.00800           0
     21729 LPSA20   16       BMANNA   O3       OC311   -0.650000       15.9994           0
     21730 LPSA20   16       BMANNA   HO3      HCP1     0.420000       1.00800           0
     21731 LPSA20   16       BMANNA   C4       CC3161   0.140000       12.0110           0
     21732 LPSA20   16       BMANNA   H4       HCA1     0.900000E-01   1.00800           0
     21733 LPSA20   16       BMANNA   O4       OC311   -0.650000       15.9994           0
     21734 LPSA20   16       BMANNA   HO4      HCP1     0.420000       1.00800           0
     21735 LPSA20   16       BMANNA   C6       CC321    0.500000E-01   12.0110           0
     21736 LPSA20   16       BMANNA   H61      HCA2     0.900000E-01   1.00800           0
     21737 LPSA20   16       BMANNA   H62      HCA2     0.900000E-01   1.00800           0
     21738 LPSA20   16       BMANNA   O6       OC311   -0.650000       15.9994           0
     21739 LPSA20   16       BMANNA   HO6      HCP1     0.420000       1.00800           0
     21740 LPSA20   17       BGLCNA   C1       CC3162   0.290000       12.0110           0
     21741 LPSA20   17       BGLCNA   H1       HCA1     0.900000E-01   1.00800           0
     21742 LPSA20   17       BGLCNA   C5       CC3163   0.110000       12.0110           0
     21743 LPSA20   17       BGLCNA   H5       HCA1     0.900000E-01   1.00800           0
     21744 LPSA20   17       BGLCNA   O5       OC3C61  -0.400000       15.9994           0
     21745 LPSA20   17       BGLCNA   C2       CC3161   0.700000E-01   12.0110           0
     21746 LPSA20   17       BGLCNA   H2       HCA1     0.900000E-01   1.00800           0
     21747 LPSA20   17       BGLCNA   N        NC2D1   -0.470000       14.0070           0
     21748 LPSA20   17       BGLCNA   HN       HCP1     0.310000       1.00800           0
     21749 LPSA20   17       BGLCNA   C        CC2O1    0.510000       12.0110           0
     21750 LPSA20   17       BGLCNA   O        OC2D1   -0.510000       15.9994           0
     21751 LPSA20   17       BGLCNA   CT       CC331   -0.270000       12.0110           0
     21752 LPSA20   17       BGLCNA   HT1      HCA3     0.900000E-01   1.00800           0
     21753 LPSA20   17       BGLCNA   HT2      HCA3     0.900000E-01   1.00800           0
     21754 LPSA20   17       BGLCNA   HT3      HCA3     0.900000E-01   1.00800           0
     21755 LPSA20   17       BGLCNA   C3       CC3161   0.900000E-01   12.0110           0
     21756 LPSA20   17       BGLCNA   H3       HCA1     0.900000E-01   1.00800           0
     21757 LPSA20   17       BGLCNA   O3       OC301   -0.360000       15.9994           0
     21758 LPSA20   17       BGLCNA   C4       CC3161   0.140000       12.0110           0
     21759 LPSA20   17       BGLCNA   H4       HCA1     0.900000E-01   1.00800           0
     21760 LPSA20   17       BGLCNA   O4       OC311   -0.650000       15.9994           0
     21761 LPSA20   17       BGLCNA   HO4      HCP1     0.420000       1.00800           0
     21762 LPSA20   17       BGLCNA   C6       CC321    0.500000E-01   12.0110           0
     21763 LPSA20   17       BGLCNA   H61      HCA2     0.900000E-01   1.00800           0
     21764 LPSA20   17       BGLCNA   H62      HCA2     0.900000E-01   1.00800           0
     21765 LPSA20   17       BGLCNA   O6       OC311   -0.650000       15.9994           0
     21766 LPSA20   17       BGLCNA   HO6      HCP1     0.420000       1.00800           0
     21767 LPSA20   18       AGAL     C1       CC3162   0.290000       12.0110           0
     21768 LPSA20   18       AGAL     H1       HCA1     0.900000E-01   1.00800           0
     21769 LPSA20   18       AGAL     C5       CC3163   0.110000       12.0110           0
     21770 LPSA20   18       AGAL     H5       HCA1     0.900000E-01   1.00800           0
     21771 LPSA20   18       AGAL     O5       OC3C61  -0.400000       15.9994           0
     21772 LPSA20   18       AGAL     C2       CC3161   0.900000E-01   12.0110           0
     21773 LPSA20   18       AGAL     H2       HCA1     0.900000E-01   1.00800           0
     21774 LPSA20   18       AGAL     O2       OC301   -0.360000       15.9994           0
     21775 LPSA20   18       AGAL     C3       CC3161   0.140000       12.0110           0
     21776 LPSA20   18       AGAL     H3       HCA1     0.900000E-01   1.00800           0
     21777 LPSA20   18       AGAL     O3       OC311   -0.650000       15.9994           0
     21778 LPSA20   18       AGAL     HO3      HCP1     0.420000       1.00800           0
     21779 LPSA20   18       AGAL     C4       CC3161   0.140000       12.0110           0
     21780 LPSA20   18       AGAL     H4       HCA1     0.900000E-01   1.00800           0
     21781 LPSA20   18       AGAL     O4       OC311   -0.650000       15.9994           0
     21782 LPSA20   18       AGAL     HO4      HCP1     0.420000       1.00800           0
     21783 LPSA20   18       AGAL     C6       CC321    0.500000E-01   12.0110           0
     21784 LPSA20   18       AGAL     H61      HCA2     0.900000E-01   1.00800           0
     21785 LPSA20   18       AGAL     H62      HCA2     0.900000E-01   1.00800           0
     21786 LPSA20   18       AGAL     O6       OC311   -0.650000       15.9994           0
     21787 LPSA20   18       AGAL     HO6      HCP1     0.420000       1.00800           0
     21788 LPSA20   19       ARHM     C1       CC3162   0.290000       12.0110           0
     21789 LPSA20   19       ARHM     H1       HCA1     0.900000E-01   1.00800           0
     21790 LPSA20   19       ARHM     C5       CC3163   0.110000       12.0110           0
     21791 LPSA20   19       ARHM     H5       HCA1     0.900000E-01   1.00800           0
     21792 LPSA20   19       ARHM     O5       OC3C61  -0.400000       15.9994           0
     21793 LPSA20   19       ARHM     C2       CC3161   0.900000E-01   12.0110           0
     21794 LPSA20   19       ARHM     H2       HCA1     0.900000E-01   1.00800           0
     21795 LPSA20   19       ARHM     O2       OC301   -0.360000       15.9994           0
     21796 LPSA20   19       ARHM     C3       CC3161   0.140000       12.0110           0
     21797 LPSA20   19       ARHM     H3       HCA1     0.900000E-01   1.00800           0
     21798 LPSA20   19       ARHM     O3       OC311   -0.650000       15.9994           0
     21799 LPSA20   19       ARHM     HO3      HCP1     0.420000       1.00800           0
     21800 LPSA20   19       ARHM     C4       CC3161   0.140000       12.0110           0
     21801 LPSA20   19       ARHM     H4       HCA1     0.900000E-01   1.00800           0
     21802 LPSA20   19       ARHM     O4       OC311   -0.650000       15.9994           0
     21803 LPSA20   19       ARHM     HO4      HCP1     0.420000       1.00800           0
     21804 LPSA20   19       ARHM     C6       CC331   -0.270000       12.0110           0
     21805 LPSA20   19       ARHM     H61      HCA3     0.900000E-01   1.00800           0
     21806 LPSA20   19       ARHM     H62      HCA3     0.900000E-01   1.00800           0
     21807 LPSA20   19       ARHM     H63      HCA3     0.900000E-01   1.00800           0
     21808 LPSA20   20       ARHM     C1       CC3162   0.290000       12.0110           0
     21809 LPSA20   20       ARHM     H1       HCA1     0.900000E-01   1.00800           0
     21810 LPSA20   20       ARHM     C5       CC3163   0.110000       12.0110           0
     21811 LPSA20   20       ARHM     H5       HCA1     0.900000E-01   1.00800           0
     21812 LPSA20   20       ARHM     O5       OC3C61  -0.400000       15.9994           0
     21813 LPSA20   20       ARHM     C2       CC3161   0.900000E-01   12.0110           0
     21814 LPSA20   20       ARHM     H2       HCA1     0.900000E-01   1.00800           0
     21815 LPSA20   20       ARHM     O2       OC301   -0.360000       15.9994           0
     21816 LPSA20   20       ARHM     C3       CC3161   0.900000E-01   12.0110           0
     21817 LPSA20   20       ARHM     H3       HCA1     0.900000E-01   1.00800           0
     21818 LPSA20   20       ARHM     O3       OC301   -0.360000       15.9994           0
     21819 LPSA20   20       ARHM     C4       CC3161   0.140000       12.0110           0
     21820 LPSA20   20       ARHM     H4       HCA1     0.900000E-01   1.00800           0
     21821 LPSA20   20       ARHM     O4       OC311   -0.650000       15.9994           0
     21822 LPSA20   20       ARHM     HO4      HCP1     0.420000       1.00800           0
     21823 LPSA20   20       ARHM     C6       CC331   -0.270000       12.0110           0
     21824 LPSA20   20       ARHM     H61      HCA3     0.900000E-01   1.00800           0
     21825 LPSA20   20       ARHM     H62      HCA3     0.900000E-01   1.00800           0
     21826 LPSA20   20       ARHM     H63      HCA3     0.900000E-01   1.00800           0
     21827 LPSA20   21       BMANNA   C1       CC3162   0.290000       12.0110           0
     21828 LPSA20   21       BMANNA   H1       HCA1     0.900000E-01   1.00800           0
     21829 LPSA20   21       BMANNA   C5       CC3163   0.110000       12.0110           0
     21830 LPSA20   21       BMANNA   H5       HCA1     0.900000E-01   1.00800           0
     21831 LPSA20   21       BMANNA   O5       OC3C61  -0.400000       15.9994           0
     21832 LPSA20   21       BMANNA   C2       CC3161   0.700000E-01   12.0110           0
     21833 LPSA20   21       BMANNA   H2       HCA1     0.900000E-01   1.00800           0
     21834 LPSA20   21       BMANNA   N        NC2D1   -0.470000       14.0070           0
     21835 LPSA20   21       BMANNA   HN       HCP1     0.310000       1.00800           0
     21836 LPSA20   21       BMANNA   C        CC2O1    0.510000       12.0110           0
     21837 LPSA20   21       BMANNA   O        OC2D1   -0.510000       15.9994           0
     21838 LPSA20   21       BMANNA   CT       CC331   -0.270000       12.0110           0
     21839 LPSA20   21       BMANNA   HT1      HCA3     0.900000E-01   1.00800           0
     21840 LPSA20   21       BMANNA   HT2      HCA3     0.900000E-01   1.00800           0
     21841 LPSA20   21       BMANNA   HT3      HCA3     0.900000E-01   1.00800           0
     21842 LPSA20   21       BMANNA   C3       CC3161   0.140000       12.0110           0
     21843 LPSA20   21       BMANNA   H3       HCA1     0.900000E-01   1.00800           0
     21844 LPSA20   21       BMANNA   O3       OC311   -0.650000       15.9994           0
     21845 LPSA20   21       BMANNA   HO3      HCP1     0.420000       1.00800           0
     21846 LPSA20   21       BMANNA   C4       CC3161   0.140000       12.0110           0
     21847 LPSA20   21       BMANNA   H4       HCA1     0.900000E-01   1.00800           0
     21848 LPSA20   21       BMANNA   O4       OC311   -0.650000       15.9994           0
     21849 LPSA20   21       BMANNA   HO4      HCP1     0.420000       1.00800           0
     21850 LPSA20   21       BMANNA   C6       CC321    0.500000E-01   12.0110           0
     21851 LPSA20   21       BMANNA   H61      HCA2     0.900000E-01   1.00800           0
     21852 LPSA20   21       BMANNA   H62      HCA2     0.900000E-01   1.00800           0
     21853 LPSA20   21       BMANNA   O6       OC311   -0.650000       15.9994           0
     21854 LPSA20   21       BMANNA   HO6      HCP1     0.420000       1.00800           0
     21855 LPSA20   22       BGLCNA   C1       CC3162   0.290000       12.0110           0
     21856 LPSA20   22       BGLCNA   H1       HCA1     0.900000E-01   1.00800           0
     21857 LPSA20   22       BGLCNA   C5       CC3163   0.110000       12.0110           0
     21858 LPSA20   22       BGLCNA   H5       HCA1     0.900000E-01   1.00800           0
     21859 LPSA20   22       BGLCNA   O5       OC3C61  -0.400000       15.9994           0
     21860 LPSA20   22       BGLCNA   C2       CC3161   0.700000E-01   12.0110           0
     21861 LPSA20   22       BGLCNA   H2       HCA1     0.900000E-01   1.00800           0
     21862 LPSA20   22       BGLCNA   N        NC2D1   -0.470000       14.0070           0
     21863 LPSA20   22       BGLCNA   HN       HCP1     0.310000       1.00800           0
     21864 LPSA20   22       BGLCNA   C        CC2O1    0.510000       12.0110           0
     21865 LPSA20   22       BGLCNA   O        OC2D1   -0.510000       15.9994           0
     21866 LPSA20   22       BGLCNA   CT       CC331   -0.270000       12.0110           0
     21867 LPSA20   22       BGLCNA   HT1      HCA3     0.900000E-01   1.00800           0
     21868 LPSA20   22       BGLCNA   HT2      HCA3     0.900000E-01   1.00800           0
     21869 LPSA20   22       BGLCNA   HT3      HCA3     0.900000E-01   1.00800           0
     21870 LPSA20   22       BGLCNA   C3       CC3161   0.900000E-01   12.0110           0
     21871 LPSA20   22       BGLCNA   H3       HCA1     0.900000E-01   1.00800           0
     21872 LPSA20   22       BGLCNA   O3       OC301   -0.360000       15.9994           0
     21873 LPSA20   22       BGLCNA   C4       CC3161   0.140000       12.0110           0
     21874 LPSA20   22       BGLCNA   H4       HCA1     0.900000E-01   1.00800           0
     21875 LPSA20   22       BGLCNA   O4       OC311   -0.650000       15.9994           0
     21876 LPSA20   22       BGLCNA   HO4      HCP1     0.420000       1.00800           0
     21877 LPSA20   22       BGLCNA   C6       CC321    0.500000E-01   12.0110           0
     21878 LPSA20   22       BGLCNA   H61      HCA2     0.900000E-01   1.00800           0
     21879 LPSA20   22       BGLCNA   H62      HCA2     0.900000E-01   1.00800           0
     21880 LPSA20   22       BGLCNA   O6       OC311   -0.650000       15.9994           0
     21881 LPSA20   22       BGLCNA   HO6      HCP1     0.420000       1.00800           0
     21882 LPSA20   23       AGAL     C1       CC3162   0.290000       12.0110           0
     21883 LPSA20   23       AGAL     H1       HCA1     0.900000E-01   1.00800           0
     21884 LPSA20   23       AGAL     C5       CC3163   0.110000       12.0110           0
     21885 LPSA20   23       AGAL     H5       HCA1     0.900000E-01   1.00800           0
     21886 LPSA20   23       AGAL     O5       OC3C61  -0.400000       15.9994           0
     21887 LPSA20   23       AGAL     C2       CC3161   0.900000E-01   12.0110           0
     21888 LPSA20   23       AGAL     H2       HCA1     0.900000E-01   1.00800           0
     21889 LPSA20   23       AGAL     O2       OC301   -0.360000       15.9994           0
     21890 LPSA20   23       AGAL     C3       CC3161   0.140000       12.0110           0
     21891 LPSA20   23       AGAL     H3       HCA1     0.900000E-01   1.00800           0
     21892 LPSA20   23       AGAL     O3       OC311   -0.650000       15.9994           0
     21893 LPSA20   23       AGAL     HO3      HCP1     0.420000       1.00800           0
     21894 LPSA20   23       AGAL     C4       CC3161   0.140000       12.0110           0
     21895 LPSA20   23       AGAL     H4       HCA1     0.900000E-01   1.00800           0
     21896 LPSA20   23       AGAL     O4       OC311   -0.650000       15.9994           0
     21897 LPSA20   23       AGAL     HO4      HCP1     0.420000       1.00800           0
     21898 LPSA20   23       AGAL     C6       CC321    0.500000E-01   12.0110           0
     21899 LPSA20   23       AGAL     H61      HCA2     0.900000E-01   1.00800           0
     21900 LPSA20   23       AGAL     H62      HCA2     0.900000E-01   1.00800           0
     21901 LPSA20   23       AGAL     O6       OC311   -0.650000       15.9994           0
     21902 LPSA20   23       AGAL     HO6      HCP1     0.420000       1.00800           0
     21903 LPSA20   24       ARHM     C1       CC3162   0.290000       12.0110           0
     21904 LPSA20   24       ARHM     H1       HCA1     0.900000E-01   1.00800           0
     21905 LPSA20   24       ARHM     C5       CC3163   0.110000       12.0110           0
     21906 LPSA20   24       ARHM     H5       HCA1     0.900000E-01   1.00800           0
     21907 LPSA20   24       ARHM     O5       OC3C61  -0.400000       15.9994           0
     21908 LPSA20   24       ARHM     C2       CC3161   0.900000E-01   12.0110           0
     21909 LPSA20   24       ARHM     H2       HCA1     0.900000E-01   1.00800           0
     21910 LPSA20   24       ARHM     O2       OC301   -0.360000       15.9994           0
     21911 LPSA20   24       ARHM     C3       CC3161   0.140000       12.0110           0
     21912 LPSA20   24       ARHM     H3       HCA1     0.900000E-01   1.00800           0
     21913 LPSA20   24       ARHM     O3       OC311   -0.650000       15.9994           0
     21914 LPSA20   24       ARHM     HO3      HCP1     0.420000       1.00800           0
     21915 LPSA20   24       ARHM     C4       CC3161   0.140000       12.0110           0
     21916 LPSA20   24       ARHM     H4       HCA1     0.900000E-01   1.00800           0
     21917 LPSA20   24       ARHM     O4       OC311   -0.650000       15.9994           0
     21918 LPSA20   24       ARHM     HO4      HCP1     0.420000       1.00800           0
     21919 LPSA20   24       ARHM     C6       CC331   -0.270000       12.0110           0
     21920 LPSA20   24       ARHM     H61      HCA3     0.900000E-01   1.00800           0
     21921 LPSA20   24       ARHM     H62      HCA3     0.900000E-01   1.00800           0
     21922 LPSA20   24       ARHM     H63      HCA3     0.900000E-01   1.00800           0
     21923 LPSA20   25       ARHM     C1       CC3162   0.290000       12.0110           0
     21924 LPSA20   25       ARHM     H1       HCA1     0.900000E-01   1.00800           0
     21925 LPSA20   25       ARHM     C5       CC3163   0.110000       12.0110           0
     21926 LPSA20   25       ARHM     H5       HCA1     0.900000E-01   1.00800           0
     21927 LPSA20   25       ARHM     O5       OC3C61  -0.400000       15.9994           0
     21928 LPSA20   25       ARHM     C2       CC3161   0.900000E-01   12.0110           0
     21929 LPSA20   25       ARHM     H2       HCA1     0.900000E-01   1.00800           0
     21930 LPSA20   25       ARHM     O2       OC301   -0.360000       15.9994           0
     21931 LPSA20   25       ARHM     C3       CC3161   0.900000E-01   12.0110           0
     21932 LPSA20   25       ARHM     H3       HCA1     0.900000E-01   1.00800           0
     21933 LPSA20   25       ARHM     O3       OC301   -0.360000       15.9994           0
     21934 LPSA20   25       ARHM     C4       CC3161   0.140000       12.0110           0
     21935 LPSA20   25       ARHM     H4       HCA1     0.900000E-01   1.00800           0
     21936 LPSA20   25       ARHM     O4       OC311   -0.650000       15.9994           0
     21937 LPSA20   25       ARHM     HO4      HCP1     0.420000       1.00800           0
     21938 LPSA20   25       ARHM     C6       CC331   -0.270000       12.0110           0
     21939 LPSA20   25       ARHM     H61      HCA3     0.900000E-01   1.00800           0
     21940 LPSA20   25       ARHM     H62      HCA3     0.900000E-01   1.00800           0
     21941 LPSA20   25       ARHM     H63      HCA3     0.900000E-01   1.00800           0
     21942 LPSA20   26       BMANNA   C1       CC3162   0.290000       12.0110           0
     21943 LPSA20   26       BMANNA   H1       HCA1     0.900000E-01   1.00800           0
     21944 LPSA20   26       BMANNA   C5       CC3163   0.110000       12.0110           0
     21945 LPSA20   26       BMANNA   H5       HCA1     0.900000E-01   1.00800           0
     21946 LPSA20   26       BMANNA   O5       OC3C61  -0.400000       15.9994           0
     21947 LPSA20   26       BMANNA   C2       CC3161   0.700000E-01   12.0110           0
     21948 LPSA20   26       BMANNA   H2       HCA1     0.900000E-01   1.00800           0
     21949 LPSA20   26       BMANNA   N        NC2D1   -0.470000       14.0070           0
     21950 LPSA20   26       BMANNA   HN       HCP1     0.310000       1.00800           0
     21951 LPSA20   26       BMANNA   C        CC2O1    0.510000       12.0110           0
     21952 LPSA20   26       BMANNA   O        OC2D1   -0.510000       15.9994           0
     21953 LPSA20   26       BMANNA   CT       CC331   -0.270000       12.0110           0
     21954 LPSA20   26       BMANNA   HT1      HCA3     0.900000E-01   1.00800           0
     21955 LPSA20   26       BMANNA   HT2      HCA3     0.900000E-01   1.00800           0
     21956 LPSA20   26       BMANNA   HT3      HCA3     0.900000E-01   1.00800           0
     21957 LPSA20   26       BMANNA   C3       CC3161   0.140000       12.0110           0
     21958 LPSA20   26       BMANNA   H3       HCA1     0.900000E-01   1.00800           0
     21959 LPSA20   26       BMANNA   O3       OC311   -0.650000       15.9994           0
     21960 LPSA20   26       BMANNA   HO3      HCP1     0.420000       1.00800           0
     21961 LPSA20   26       BMANNA   C4       CC3161   0.140000       12.0110           0
     21962 LPSA20   26       BMANNA   H4       HCA1     0.900000E-01   1.00800           0
     21963 LPSA20   26       BMANNA   O4       OC311   -0.650000       15.9994           0
     21964 LPSA20   26       BMANNA   HO4      HCP1     0.420000       1.00800           0
     21965 LPSA20   26       BMANNA   C6       CC321    0.500000E-01   12.0110           0
     21966 LPSA20   26       BMANNA   H61      HCA2     0.900000E-01   1.00800           0
     21967 LPSA20   26       BMANNA   H62      HCA2     0.900000E-01   1.00800           0
     21968 LPSA20   26       BMANNA   O6       OC311   -0.650000       15.9994           0
     21969 LPSA20   26       BMANNA   HO6      HCP1     0.420000       1.00800           0
     21970 LPSA20   27       BGLCNA   C1       CC3162   0.290000       12.0110           0
     21971 LPSA20   27       BGLCNA   H1       HCA1     0.900000E-01   1.00800           0
     21972 LPSA20   27       BGLCNA   C5       CC3163   0.110000       12.0110           0
     21973 LPSA20   27       BGLCNA   H5       HCA1     0.900000E-01   1.00800           0
     21974 LPSA20   27       BGLCNA   O5       OC3C61  -0.400000       15.9994           0
     21975 LPSA20   27       BGLCNA   C2       CC3161   0.700000E-01   12.0110           0
     21976 LPSA20   27       BGLCNA   H2       HCA1     0.900000E-01   1.00800           0
     21977 LPSA20   27       BGLCNA   N        NC2D1   -0.470000       14.0070           0
     21978 LPSA20   27       BGLCNA   HN       HCP1     0.310000       1.00800           0
     21979 LPSA20   27       BGLCNA   C        CC2O1    0.510000       12.0110           0
     21980 LPSA20   27       BGLCNA   O        OC2D1   -0.510000       15.9994           0
     21981 LPSA20   27       BGLCNA   CT       CC331   -0.270000       12.0110           0
     21982 LPSA20   27       BGLCNA   HT1      HCA3     0.900000E-01   1.00800           0
     21983 LPSA20   27       BGLCNA   HT2      HCA3     0.900000E-01   1.00800           0
     21984 LPSA20   27       BGLCNA   HT3      HCA3     0.900000E-01   1.00800           0
     21985 LPSA20   27       BGLCNA   C3       CC3161   0.900000E-01   12.0110           0
     21986 LPSA20   27       BGLCNA   H3       HCA1     0.900000E-01   1.00800           0
     21987 LPSA20   27       BGLCNA   O3       OC301   -0.360000       15.9994           0
     21988 LPSA20   27       BGLCNA   C4       CC3161   0.140000       12.0110           0
     21989 LPSA20   27       BGLCNA   H4       HCA1     0.900000E-01   1.00800           0
     21990 LPSA20   27       BGLCNA   O4       OC311   -0.650000       15.9994           0
     21991 LPSA20   27       BGLCNA   HO4      HCP1     0.420000       1.00800           0
     21992 LPSA20   27       BGLCNA   C6       CC321    0.500000E-01   12.0110           0
     21993 LPSA20   27       BGLCNA   H61      HCA2     0.900000E-01   1.00800           0
     21994 LPSA20   27       BGLCNA   H62      HCA2     0.900000E-01   1.00800           0
     21995 LPSA20   27       BGLCNA   O6       OC311   -0.650000       15.9994           0
     21996 LPSA20   27       BGLCNA   HO6      HCP1     0.420000       1.00800           0
     21997 LPSA20   28       AGAL     C1       CC3162   0.290000       12.0110           0
     21998 LPSA20   28       AGAL     H1       HCA1     0.900000E-01   1.00800           0
     21999 LPSA20   28       AGAL     C5       CC3163   0.110000       12.0110           0
     22000 LPSA20   28       AGAL     H5       HCA1     0.900000E-01   1.00800           0
     22001 LPSA20   28       AGAL     O5       OC3C61  -0.400000       15.9994           0
     22002 LPSA20   28       AGAL     C2       CC3161   0.900000E-01   12.0110           0
     22003 LPSA20   28       AGAL     H2       HCA1     0.900000E-01   1.00800           0
     22004 LPSA20   28       AGAL     O2       OC301   -0.360000       15.9994           0
     22005 LPSA20   28       AGAL     C3       CC3161   0.140000       12.0110           0
     22006 LPSA20   28       AGAL     H3       HCA1     0.900000E-01   1.00800           0
     22007 LPSA20   28       AGAL     O3       OC311   -0.650000       15.9994           0
     22008 LPSA20   28       AGAL     HO3      HCP1     0.420000       1.00800           0
     22009 LPSA20   28       AGAL     C4       CC3161   0.140000       12.0110           0
     22010 LPSA20   28       AGAL     H4       HCA1     0.900000E-01   1.00800           0
     22011 LPSA20   28       AGAL     O4       OC311   -0.650000       15.9994           0
     22012 LPSA20   28       AGAL     HO4      HCP1     0.420000       1.00800           0
     22013 LPSA20   28       AGAL     C6       CC321    0.500000E-01   12.0110           0
     22014 LPSA20   28       AGAL     H61      HCA2     0.900000E-01   1.00800           0
     22015 LPSA20   28       AGAL     H62      HCA2     0.900000E-01   1.00800           0
     22016 LPSA20   28       AGAL     O6       OC311   -0.650000       15.9994           0
     22017 LPSA20   28       AGAL     HO6      HCP1     0.420000       1.00800           0
     22018 LPSA20   29       ARHM     C1       CC3162   0.290000       12.0110           0
     22019 LPSA20   29       ARHM     H1       HCA1     0.900000E-01   1.00800           0
     22020 LPSA20   29       ARHM     C5       CC3163   0.110000       12.0110           0
     22021 LPSA20   29       ARHM     H5       HCA1     0.900000E-01   1.00800           0
     22022 LPSA20   29       ARHM     O5       OC3C61  -0.400000       15.9994           0
     22023 LPSA20   29       ARHM     C2       CC3161   0.900000E-01   12.0110           0
     22024 LPSA20   29       ARHM     H2       HCA1     0.900000E-01   1.00800           0
     22025 LPSA20   29       ARHM     O2       OC301   -0.360000       15.9994           0
     22026 LPSA20   29       ARHM     C3       CC3161   0.140000       12.0110           0
     22027 LPSA20   29       ARHM     H3       HCA1     0.900000E-01   1.00800           0
     22028 LPSA20   29       ARHM     O3       OC311   -0.650000       15.9994           0
     22029 LPSA20   29       ARHM     HO3      HCP1     0.420000       1.00800           0
     22030 LPSA20   29       ARHM     C4       CC3161   0.140000       12.0110           0
     22031 LPSA20   29       ARHM     H4       HCA1     0.900000E-01   1.00800           0
     22032 LPSA20   29       ARHM     O4       OC311   -0.650000       15.9994           0
     22033 LPSA20   29       ARHM     HO4      HCP1     0.420000       1.00800           0
     22034 LPSA20   29       ARHM     C6       CC331   -0.270000       12.0110           0
     22035 LPSA20   29       ARHM     H61      HCA3     0.900000E-01   1.00800           0
     22036 LPSA20   29       ARHM     H62      HCA3     0.900000E-01   1.00800           0
     22037 LPSA20   29       ARHM     H63      HCA3     0.900000E-01   1.00800           0
     22038 LPSA20   30       ARHM     C1       CC3162   0.290000       12.0110           0
     22039 LPSA20   30       ARHM     H1       HCA1     0.900000E-01   1.00800           0
     22040 LPSA20   30       ARHM     C5       CC3163   0.110000       12.0110           0
     22041 LPSA20   30       ARHM     H5       HCA1     0.900000E-01   1.00800           0
     22042 LPSA20   30       ARHM     O5       OC3C61  -0.400000       15.9994           0
     22043 LPSA20   30       ARHM     C2       CC3161   0.900000E-01   12.0110           0
     22044 LPSA20   30       ARHM     H2       HCA1     0.900000E-01   1.00800           0
     22045 LPSA20   30       ARHM     O2       OC301   -0.360000       15.9994           0
     22046 LPSA20   30       ARHM     C3       CC3161   0.900000E-01   12.0110           0
     22047 LPSA20   30       ARHM     H3       HCA1     0.900000E-01   1.00800           0
     22048 LPSA20   30       ARHM     O3       OC301   -0.360000       15.9994           0
     22049 LPSA20   30       ARHM     C4       CC3161   0.140000       12.0110           0
     22050 LPSA20   30       ARHM     H4       HCA1     0.900000E-01   1.00800           0
     22051 LPSA20   30       ARHM     O4       OC311   -0.650000       15.9994           0
     22052 LPSA20   30       ARHM     HO4      HCP1     0.420000       1.00800           0
     22053 LPSA20   30       ARHM     C6       CC331   -0.270000       12.0110           0
     22054 LPSA20   30       ARHM     H61      HCA3     0.900000E-01   1.00800           0
     22055 LPSA20   30       ARHM     H62      HCA3     0.900000E-01   1.00800           0
     22056 LPSA20   30       ARHM     H63      HCA3     0.900000E-01   1.00800           0
     22057 LPSA20   31       BMANNA   C1       CC3162   0.290000       12.0110           0
     22058 LPSA20   31       BMANNA   H1       HCA1     0.900000E-01   1.00800           0
     22059 LPSA20   31       BMANNA   C5       CC3163   0.110000       12.0110           0
     22060 LPSA20   31       BMANNA   H5       HCA1     0.900000E-01   1.00800           0
     22061 LPSA20   31       BMANNA   O5       OC3C61  -0.400000       15.9994           0
     22062 LPSA20   31       BMANNA   C2       CC3161   0.700000E-01   12.0110           0
     22063 LPSA20   31       BMANNA   H2       HCA1     0.900000E-01   1.00800           0
     22064 LPSA20   31       BMANNA   N        NC2D1   -0.470000       14.0070           0
     22065 LPSA20   31       BMANNA   HN       HCP1     0.310000       1.00800           0
     22066 LPSA20   31       BMANNA   C        CC2O1    0.510000       12.0110           0
     22067 LPSA20   31       BMANNA   O        OC2D1   -0.510000       15.9994           0
     22068 LPSA20   31       BMANNA   CT       CC331   -0.270000       12.0110           0
     22069 LPSA20   31       BMANNA   HT1      HCA3     0.900000E-01   1.00800           0
     22070 LPSA20   31       BMANNA   HT2      HCA3     0.900000E-01   1.00800           0
     22071 LPSA20   31       BMANNA   HT3      HCA3     0.900000E-01   1.00800           0
     22072 LPSA20   31       BMANNA   C3       CC3161   0.140000       12.0110           0
     22073 LPSA20   31       BMANNA   H3       HCA1     0.900000E-01   1.00800           0
     22074 LPSA20   31       BMANNA   O3       OC311   -0.650000       15.9994           0
     22075 LPSA20   31       BMANNA   HO3      HCP1     0.420000       1.00800           0
     22076 LPSA20   31       BMANNA   C4       CC3161   0.140000       12.0110           0
     22077 LPSA20   31       BMANNA   H4       HCA1     0.900000E-01   1.00800           0
     22078 LPSA20   31       BMANNA   O4       OC311   -0.650000       15.9994           0
     22079 LPSA20   31       BMANNA   HO4      HCP1     0.420000       1.00800           0
     22080 LPSA20   31       BMANNA   C6       CC321    0.500000E-01   12.0110           0
     22081 LPSA20   31       BMANNA   H61      HCA2     0.900000E-01   1.00800           0
     22082 LPSA20   31       BMANNA   H62      HCA2     0.900000E-01   1.00800           0
     22083 LPSA20   31       BMANNA   O6       OC311   -0.650000       15.9994           0
     22084 LPSA20   31       BMANNA   HO6      HCP1     0.420000       1.00800           0
     22085 LPSA20   32       BGLCNA   C1       CC3162   0.290000       12.0110           0
     22086 LPSA20   32       BGLCNA   H1       HCA1     0.900000E-01   1.00800           0
     22087 LPSA20   32       BGLCNA   C5       CC3163   0.110000       12.0110           0
     22088 LPSA20   32       BGLCNA   H5       HCA1     0.900000E-01   1.00800           0
     22089 LPSA20   32       BGLCNA   O5       OC3C61  -0.400000       15.9994           0
     22090 LPSA20   32       BGLCNA   C2       CC3161   0.700000E-01   12.0110           0
     22091 LPSA20   32       BGLCNA   H2       HCA1     0.900000E-01   1.00800           0
     22092 LPSA20   32       BGLCNA   N        NC2D1   -0.470000       14.0070           0
     22093 LPSA20   32       BGLCNA   HN       HCP1     0.310000       1.00800           0
     22094 LPSA20   32       BGLCNA   C        CC2O1    0.510000       12.0110           0
     22095 LPSA20   32       BGLCNA   O        OC2D1   -0.510000       15.9994           0
     22096 LPSA20   32       BGLCNA   CT       CC331   -0.270000       12.0110           0
     22097 LPSA20   32       BGLCNA   HT1      HCA3     0.900000E-01   1.00800           0
     22098 LPSA20   32       BGLCNA   HT2      HCA3     0.900000E-01   1.00800           0
     22099 LPSA20   32       BGLCNA   HT3      HCA3     0.900000E-01   1.00800           0
     22100 LPSA20   32       BGLCNA   C3       CC3161   0.900000E-01   12.0110           0
     22101 LPSA20   32       BGLCNA   H3       HCA1     0.900000E-01   1.00800           0
     22102 LPSA20   32       BGLCNA   O3       OC301   -0.360000       15.9994           0
     22103 LPSA20   32       BGLCNA   C4       CC3161   0.140000       12.0110           0
     22104 LPSA20   32       BGLCNA   H4       HCA1     0.900000E-01   1.00800           0
     22105 LPSA20   32       BGLCNA   O4       OC311   -0.650000       15.9994           0
     22106 LPSA20   32       BGLCNA   HO4      HCP1     0.420000       1.00800           0
     22107 LPSA20   32       BGLCNA   C6       CC321    0.500000E-01   12.0110           0
     22108 LPSA20   32       BGLCNA   H61      HCA2     0.900000E-01   1.00800           0
     22109 LPSA20   32       BGLCNA   H62      HCA2     0.900000E-01   1.00800           0
     22110 LPSA20   32       BGLCNA   O6       OC311   -0.650000       15.9994           0
     22111 LPSA20   32       BGLCNA   HO6      HCP1     0.420000       1.00800           0
     22112 LPSA20   33       AGAL     C1       CC3162   0.290000       12.0110           0
     22113 LPSA20   33       AGAL     H1       HCA1     0.900000E-01   1.00800           0
     22114 LPSA20   33       AGAL     C5       CC3163   0.110000       12.0110           0
     22115 LPSA20   33       AGAL     H5       HCA1     0.900000E-01   1.00800           0
     22116 LPSA20   33       AGAL     O5       OC3C61  -0.400000       15.9994           0
     22117 LPSA20   33       AGAL     C2       CC3161   0.900000E-01   12.0110           0
     22118 LPSA20   33       AGAL     H2       HCA1     0.900000E-01   1.00800           0
     22119 LPSA20   33       AGAL     O2       OC301   -0.360000       15.9994           0
     22120 LPSA20   33       AGAL     C3       CC3161   0.140000       12.0110           0
     22121 LPSA20   33       AGAL     H3       HCA1     0.900000E-01   1.00800           0
     22122 LPSA20   33       AGAL     O3       OC311   -0.650000       15.9994           0
     22123 LPSA20   33       AGAL     HO3      HCP1     0.420000       1.00800           0
     22124 LPSA20   33       AGAL     C4       CC3161   0.140000       12.0110           0
     22125 LPSA20   33       AGAL     H4       HCA1     0.900000E-01   1.00800           0
     22126 LPSA20   33       AGAL     O4       OC311   -0.650000       15.9994           0
     22127 LPSA20   33       AGAL     HO4      HCP1     0.420000       1.00800           0
     22128 LPSA20   33       AGAL     C6       CC321    0.500000E-01   12.0110           0
     22129 LPSA20   33       AGAL     H61      HCA2     0.900000E-01   1.00800           0
     22130 LPSA20   33       AGAL     H62      HCA2     0.900000E-01   1.00800           0
     22131 LPSA20   33       AGAL     O6       OC311   -0.650000       15.9994           0
     22132 LPSA20   33       AGAL     HO6      HCP1     0.420000       1.00800           0
     22133 LPSA20   34       ARHM     C1       CC3162   0.290000       12.0110           0
     22134 LPSA20   34       ARHM     H1       HCA1     0.900000E-01   1.00800           0
     22135 LPSA20   34       ARHM     C5       CC3163   0.110000       12.0110           0
     22136 LPSA20   34       ARHM     H5       HCA1     0.900000E-01   1.00800           0
     22137 LPSA20   34       ARHM     O5       OC3C61  -0.400000       15.9994           0
     22138 LPSA20   34       ARHM     C2       CC3161   0.900000E-01   12.0110           0
     22139 LPSA20   34       ARHM     H2       HCA1     0.900000E-01   1.00800           0
     22140 LPSA20   34       ARHM     O2       OC301   -0.360000       15.9994           0
     22141 LPSA20   34       ARHM     C3       CC3161   0.140000       12.0110           0
     22142 LPSA20   34       ARHM     H3       HCA1     0.900000E-01   1.00800           0
     22143 LPSA20   34       ARHM     O3       OC311   -0.650000       15.9994           0
     22144 LPSA20   34       ARHM     HO3      HCP1     0.420000       1.00800           0
     22145 LPSA20   34       ARHM     C4       CC3161   0.140000       12.0110           0
     22146 LPSA20   34       ARHM     H4       HCA1     0.900000E-01   1.00800           0
     22147 LPSA20   34       ARHM     O4       OC311   -0.650000       15.9994           0
     22148 LPSA20   34       ARHM     HO4      HCP1     0.420000       1.00800           0
     22149 LPSA20   34       ARHM     C6       CC331   -0.270000       12.0110           0
     22150 LPSA20   34       ARHM     H61      HCA3     0.900000E-01   1.00800           0
     22151 LPSA20   34       ARHM     H62      HCA3     0.900000E-01   1.00800           0
     22152 LPSA20   34       ARHM     H63      HCA3     0.900000E-01   1.00800           0
     22153 LPSA20   35       ARHM     C1       CC3162   0.290000       12.0110           0
     22154 LPSA20   35       ARHM     H1       HCA1     0.900000E-01   1.00800           0
     22155 LPSA20   35       ARHM     C5       CC3163   0.110000       12.0110           0
     22156 LPSA20   35       ARHM     H5       HCA1     0.900000E-01   1.00800           0
     22157 LPSA20   35       ARHM     O5       OC3C61  -0.400000       15.9994           0
     22158 LPSA20   35       ARHM     C2       CC3161   0.900000E-01   12.0110           0
     22159 LPSA20   35       ARHM     H2       HCA1     0.900000E-01   1.00800           0
     22160 LPSA20   35       ARHM     O2       OC301   -0.360000       15.9994           0
     22161 LPSA20   35       ARHM     C3       CC3161   0.140000       12.0110           0
     22162 LPSA20   35       ARHM     H3       HCA1     0.900000E-01   1.00800           0
     22163 LPSA20   35       ARHM     O3       OC311   -0.650000       15.9994           0
     22164 LPSA20   35       ARHM     HO3      HCP1     0.420000       1.00800           0
     22165 LPSA20   35       ARHM     C4       CC3161   0.140000       12.0110           0
     22166 LPSA20   35       ARHM     H4       HCA1     0.900000E-01   1.00800           0
     22167 LPSA20   35       ARHM     O4       OC311   -0.650000       15.9994           0
     22168 LPSA20   35       ARHM     HO4      HCP1     0.420000       1.00800           0
     22169 LPSA20   35       ARHM     C6       CC331   -0.270000       12.0110           0
     22170 LPSA20   35       ARHM     H61      HCA3     0.900000E-01   1.00800           0
     22171 LPSA20   35       ARHM     H62      HCA3     0.900000E-01   1.00800           0
     22172 LPSA20   35       ARHM     H63      HCA3     0.900000E-01   1.00800           0
     22173 LPSA20   36       BMANNA   C1       CC3162   0.290000       12.0110           0
     22174 LPSA20   36       BMANNA   H1       HCA1     0.900000E-01   1.00800           0
     22175 LPSA20   36       BMANNA   C5       CC3163   0.110000       12.0110           0
     22176 LPSA20   36       BMANNA   H5       HCA1     0.900000E-01   1.00800           0
     22177 LPSA20   36       BMANNA   O5       OC3C61  -0.400000       15.9994           0
     22178 LPSA20   36       BMANNA   C2       CC3161   0.700000E-01   12.0110           0
     22179 LPSA20   36       BMANNA   H2       HCA1     0.900000E-01   1.00800           0
     22180 LPSA20   36       BMANNA   N        NC2D1   -0.470000       14.0070           0
     22181 LPSA20   36       BMANNA   HN       HCP1     0.310000       1.00800           0
     22182 LPSA20   36       BMANNA   C        CC2O1    0.510000       12.0110           0
     22183 LPSA20   36       BMANNA   O        OC2D1   -0.510000       15.9994           0
     22184 LPSA20   36       BMANNA   CT       CC331   -0.270000       12.0110           0
     22185 LPSA20   36       BMANNA   HT1      HCA3     0.900000E-01   1.00800           0
     22186 LPSA20   36       BMANNA   HT2      HCA3     0.900000E-01   1.00800           0
     22187 LPSA20   36       BMANNA   HT3      HCA3     0.900000E-01   1.00800           0
     22188 LPSA20   36       BMANNA   C3       CC3161   0.140000       12.0110           0
     22189 LPSA20   36       BMANNA   H3       HCA1     0.900000E-01   1.00800           0
     22190 LPSA20   36       BMANNA   O3       OC311   -0.650000       15.9994           0
     22191 LPSA20   36       BMANNA   HO3      HCP1     0.420000       1.00800           0
     22192 LPSA20   36       BMANNA   C4       CC3161   0.140000       12.0110           0
     22193 LPSA20   36       BMANNA   H4       HCA1     0.900000E-01   1.00800           0
     22194 LPSA20   36       BMANNA   O4       OC311   -0.650000       15.9994           0
     22195 LPSA20   36       BMANNA   HO4      HCP1     0.420000       1.00800           0
     22196 LPSA20   36       BMANNA   C6       CC321    0.500000E-01   12.0110           0
     22197 LPSA20   36       BMANNA   H61      HCA2     0.900000E-01   1.00800           0
     22198 LPSA20   36       BMANNA   H62      HCA2     0.900000E-01   1.00800           0
     22199 LPSA20   36       BMANNA   O6       OC311   -0.650000       15.9994           0
     22200 LPSA20   36       BMANNA   HO6      HCP1     0.420000       1.00800           0
     22201 LPSA21   1        ECLIPA   HB6S     HCA2     0.900000E-01   1.00800           0
     22202 LPSA21   1        ECLIPA   OB6      OC301   -0.360000       15.9994           0
     22203 LPSA21   1        ECLIPA   CB6      CC321     0.00000       12.0110           0
     22204 LPSA21   1        ECLIPA   HB6R     HCA2     0.900000E-01   1.00800           0
     22205 LPSA21   1        ECLIPA   CB5      CC3163   0.110000       12.0110           0
     22206 LPSA21   1        ECLIPA   OB5      OC3C61  -0.400000       15.9994           0
     22207 LPSA21   1        ECLIPA   HB5      HCA1     0.900000E-01   1.00800           0
     22208 LPSA21   1        ECLIPA   CB1      CC3162   0.290000       12.0110           0
     22209 LPSA21   1        ECLIPA   HB1      HCA1     0.900000E-01   1.00800           0
     22210 LPSA21   1        ECLIPA   OA6      OC301   -0.360000       15.9994           0
     22211 LPSA21   1        ECLIPA   CA6      CC321     0.00000       12.0110           0
     22212 LPSA21   1        ECLIPA   HA6R     HCA2     0.900000E-01   1.00800           0
     22213 LPSA21   1        ECLIPA   HA6S     HCA2     0.900000E-01   1.00800           0
     22214 LPSA21   1        ECLIPA   CB4      CC3161  -0.900000E-01   12.0110           0
     22215 LPSA21   1        ECLIPA   HB4      HCA1     0.900000E-01   1.00800           0
     22216 LPSA21   1        ECLIPA   OB4      OC30P   -0.400000       15.9994           0
     22217 LPSA21   1        ECLIPA   PB       PC        1.10000       30.9740           0
     22218 LPSA21   1        ECLIPA   OPB4     OC2DP   -0.900000       15.9994           0
     22219 LPSA21   1        ECLIPA   OPB3     OC2DP   -0.900000       15.9994           0
     22220 LPSA21   1        ECLIPA   OPB2     OC2DP   -0.900000       15.9994           0
     22221 LPSA21   1        ECLIPA   CB3      CC3161   0.170000       12.0110           0
     22222 LPSA21   1        ECLIPA   OB3      OC301   -0.490000       15.9994           0
     22223 LPSA21   1        ECLIPA   HB3      HCA1     0.900000E-01   1.00800           0
     22224 LPSA21   1        ECLIPA   C71      CL       0.900000       12.0110           0
     22225 LPSA21   1        ECLIPA   O71      OBL     -0.630000       15.9994           0
     22226 LPSA21   1        ECLIPA   C72      CTL2    -0.220000       12.0110           0
     22227 LPSA21   1        ECLIPA   H72R     HAL2     0.900000E-01   1.00800           0
     22228 LPSA21   1        ECLIPA   H72S     HAL2     0.900000E-01   1.00800           0
     22229 LPSA21   1        ECLIPA   CB2      CC3161   0.700000E-01   12.0110           0
     22230 LPSA21   1        ECLIPA   HB2      HCA1     0.900000E-01   1.00800           0
     22231 LPSA21   1        ECLIPA   NB2      NC2D1   -0.470000       14.0070           0
     22232 LPSA21   1        ECLIPA   HNB2     HCP1     0.310000       1.00800           0
     22233 LPSA21   1        ECLIPA   CA4      CC3161   0.140000       12.0110           0
     22234 LPSA21   1        ECLIPA   HA4      HCA1     0.900000E-01   1.00800           0
     22235 LPSA21   1        ECLIPA   OA4      OC311   -0.650000       15.9994           0
     22236 LPSA21   1        ECLIPA   HOA4     HCP1     0.420000       1.00800           0
     22237 LPSA21   1        ECLIPA   CA5      CC3163   0.110000       12.0110           0
     22238 LPSA21   1        ECLIPA   HA5      HCA1     0.900000E-01   1.00800           0
     22239 LPSA21   1        ECLIPA   OA5      OC3C61  -0.400000       15.9994           0
     22240 LPSA21   1        ECLIPA   CA1      CC3162   0.110000       12.0110           0
     22241 LPSA21   1        ECLIPA   HA1      HCA1     0.900000E-01   1.00800           0
     22242 LPSA21   1        ECLIPA   OA1      OC30P   -0.400000       15.9994           0
     22243 LPSA21   1        ECLIPA   OPA2     OC2DP   -0.900000       15.9994           0
     22244 LPSA21   1        ECLIPA   OPA3     OC2DP   -0.900000       15.9994           0
     22245 LPSA21   1        ECLIPA   OPA4     OC2DP   -0.900000       15.9994           0
     22246 LPSA21   1        ECLIPA   PA       PC        1.10000       30.9740           0
     22247 LPSA21   1        ECLIPA   CA3      CC3161   0.170000       12.0110           0
     22248 LPSA21   1        ECLIPA   HA3      HCA1     0.900000E-01   1.00800           0
     22249 LPSA21   1        ECLIPA   OA3      OC301   -0.490000       15.9994           0
     22250 LPSA21   1        ECLIPA   C31      CL       0.900000       12.0110           0
     22251 LPSA21   1        ECLIPA   O31      OBL     -0.630000       15.9994           0
     22252 LPSA21   1        ECLIPA   C32      CTL2    -0.220000       12.0110           0
     22253 LPSA21   1        ECLIPA   H32R     HAL2     0.900000E-01   1.00800           0
     22254 LPSA21   1        ECLIPA   H32S     HAL2     0.900000E-01   1.00800           0
     22255 LPSA21   1        ECLIPA   CA2      CC3161   0.700000E-01   12.0110           0
     22256 LPSA21   1        ECLIPA   HA2      HCA1     0.900000E-01   1.00800           0
     22257 LPSA21   1        ECLIPA   NA2      NC2D1   -0.470000       14.0070           0
     22258 LPSA21   1        ECLIPA   HNA2     HCP1     0.310000       1.00800           0
     22259 LPSA21   1        ECLIPA   C73      CTL1     0.170000       12.0110           0
     22260 LPSA21   1        ECLIPA   H73R     HAL1     0.900000E-01   1.00800           0
     22261 LPSA21   1        ECLIPA   O73      OSL     -0.490000       15.9994           0
     22262 LPSA21   1        ECLIPA   C81      CL       0.900000       12.0110           0
     22263 LPSA21   1        ECLIPA   O81      OBL     -0.630000       15.9994           0
     22264 LPSA21   1        ECLIPA   C82      CTL2    -0.220000       12.0110           0
     22265 LPSA21   1        ECLIPA   H82R     HAL2     0.900000E-01   1.00800           0
     22266 LPSA21   1        ECLIPA   H82S     HAL2     0.900000E-01   1.00800           0
     22267 LPSA21   1        ECLIPA   C83      CTL2    -0.180000       12.0110           0
     22268 LPSA21   1        ECLIPA   H83R     HAL2     0.900000E-01   1.00800           0
     22269 LPSA21   1        ECLIPA   H83S     HAL2     0.900000E-01   1.00800           0
     22270 LPSA21   1        ECLIPA   C84      CTL2    -0.180000       12.0110           0
     22271 LPSA21   1        ECLIPA   H84R     HAL2     0.900000E-01   1.00800           0
     22272 LPSA21   1        ECLIPA   H84S     HAL2     0.900000E-01   1.00800           0
     22273 LPSA21   1        ECLIPA   C85      CTL2    -0.180000       12.0110           0
     22274 LPSA21   1        ECLIPA   H85R     HAL2     0.900000E-01   1.00800           0
     22275 LPSA21   1        ECLIPA   H85S     HAL2     0.900000E-01   1.00800           0
     22276 LPSA21   1        ECLIPA   C86      CTL2    -0.180000       12.0110           0
     22277 LPSA21   1        ECLIPA   H86R     HAL2     0.900000E-01   1.00800           0
     22278 LPSA21   1        ECLIPA   H86S     HAL2     0.900000E-01   1.00800           0
     22279 LPSA21   1        ECLIPA   C87      CTL2    -0.180000       12.0110           0
     22280 LPSA21   1        ECLIPA   H87R     HAL2     0.900000E-01   1.00800           0
     22281 LPSA21   1        ECLIPA   H87S     HAL2     0.900000E-01   1.00800           0
     22282 LPSA21   1        ECLIPA   C88      CTL2    -0.180000       12.0110           0
     22283 LPSA21   1        ECLIPA   H88R     HAL2     0.900000E-01   1.00800           0
     22284 LPSA21   1        ECLIPA   H88S     HAL2     0.900000E-01   1.00800           0
     22285 LPSA21   1        ECLIPA   C89      CTL2    -0.180000       12.0110           0
     22286 LPSA21   1        ECLIPA   H89R     HAL2     0.900000E-01   1.00800           0
     22287 LPSA21   1        ECLIPA   H89S     HAL2     0.900000E-01   1.00800           0
     22288 LPSA21   1        ECLIPA   C810     CTL2    -0.180000       12.0110           0
     22289 LPSA21   1        ECLIPA   H810R    HAL2     0.900000E-01   1.00800           0
     22290 LPSA21   1        ECLIPA   H810S    HAL2     0.900000E-01   1.00800           0
     22291 LPSA21   1        ECLIPA   C811     CTL2    -0.180000       12.0110           0
     22292 LPSA21   1        ECLIPA   H811R    HAL2     0.900000E-01   1.00800           0
     22293 LPSA21   1        ECLIPA   H811S    HAL2     0.900000E-01   1.00800           0
     22294 LPSA21   1        ECLIPA   C812     CTL2    -0.180000       12.0110           0
     22295 LPSA21   1        ECLIPA   H812R    HAL2     0.900000E-01   1.00800           0
     22296 LPSA21   1        ECLIPA   H812S    HAL2     0.900000E-01   1.00800           0
     22297 LPSA21   1        ECLIPA   C813     CTL2    -0.180000       12.0110           0
     22298 LPSA21   1        ECLIPA   H813R    HAL2     0.900000E-01   1.00800           0
     22299 LPSA21   1        ECLIPA   H813S    HAL2     0.900000E-01   1.00800           0
     22300 LPSA21   1        ECLIPA   C814     CTL3    -0.270000       12.0110           0
     22301 LPSA21   1        ECLIPA   H814R    HAL3     0.900000E-01   1.00800           0
     22302 LPSA21   1        ECLIPA   H814S    HAL3     0.900000E-01   1.00800           0
     22303 LPSA21   1        ECLIPA   H814T    HAL3     0.900000E-01   1.00800           0
     22304 LPSA21   1        ECLIPA   C74      CTL2    -0.180000       12.0110           0
     22305 LPSA21   1        ECLIPA   H74R     HAL2     0.900000E-01   1.00800           0
     22306 LPSA21   1        ECLIPA   H74S     HAL2     0.900000E-01   1.00800           0
     22307 LPSA21   1        ECLIPA   C75      CTL2    -0.180000       12.0110           0
     22308 LPSA21   1        ECLIPA   H75R     HAL2     0.900000E-01   1.00800           0
     22309 LPSA21   1        ECLIPA   H75S     HAL2     0.900000E-01   1.00800           0
     22310 LPSA21   1        ECLIPA   C76      CTL2    -0.180000       12.0110           0
     22311 LPSA21   1        ECLIPA   H76R     HAL2     0.900000E-01   1.00800           0
     22312 LPSA21   1        ECLIPA   H76S     HAL2     0.900000E-01   1.00800           0
     22313 LPSA21   1        ECLIPA   C77      CTL2    -0.180000       12.0110           0
     22314 LPSA21   1        ECLIPA   H77R     HAL2     0.900000E-01   1.00800           0
     22315 LPSA21   1        ECLIPA   H77S     HAL2     0.900000E-01   1.00800           0
     22316 LPSA21   1        ECLIPA   C78      CTL2    -0.180000       12.0110           0
     22317 LPSA21   1        ECLIPA   H78R     HAL2     0.900000E-01   1.00800           0
     22318 LPSA21   1        ECLIPA   H78S     HAL2     0.900000E-01   1.00800           0
     22319 LPSA21   1        ECLIPA   C79      CTL2    -0.180000       12.0110           0
     22320 LPSA21   1        ECLIPA   H79R     HAL2     0.900000E-01   1.00800           0
     22321 LPSA21   1        ECLIPA   H79S     HAL2     0.900000E-01   1.00800           0
     22322 LPSA21   1        ECLIPA   C710     CTL2    -0.180000       12.0110           0
     22323 LPSA21   1        ECLIPA   H710R    HAL2     0.900000E-01   1.00800           0
     22324 LPSA21   1        ECLIPA   H710S    HAL2     0.900000E-01   1.00800           0
     22325 LPSA21   1        ECLIPA   C711     CTL2    -0.180000       12.0110           0
     22326 LPSA21   1        ECLIPA   H711R    HAL2     0.900000E-01   1.00800           0
     22327 LPSA21   1        ECLIPA   H711S    HAL2     0.900000E-01   1.00800           0
     22328 LPSA21   1        ECLIPA   C712     CTL2    -0.180000       12.0110           0
     22329 LPSA21   1        ECLIPA   H712R    HAL2     0.900000E-01   1.00800           0
     22330 LPSA21   1        ECLIPA   H712S    HAL2     0.900000E-01   1.00800           0
     22331 LPSA21   1        ECLIPA   C713     CTL2    -0.180000       12.0110           0
     22332 LPSA21   1        ECLIPA   H713R    HAL2     0.900000E-01   1.00800           0
     22333 LPSA21   1        ECLIPA   H713S    HAL2     0.900000E-01   1.00800           0
     22334 LPSA21   1        ECLIPA   C714     CTL3    -0.270000       12.0110           0
     22335 LPSA21   1        ECLIPA   H714R    HAL3     0.900000E-01   1.00800           0
     22336 LPSA21   1        ECLIPA   H714S    HAL3     0.900000E-01   1.00800           0
     22337 LPSA21   1        ECLIPA   H714T    HAL3     0.900000E-01   1.00800           0
     22338 LPSA21   1        ECLIPA   C51      CC2O1    0.550000       12.0110           0
     22339 LPSA21   1        ECLIPA   O51      OC2D1   -0.550000       15.9994           0
     22340 LPSA21   1        ECLIPA   C52      CTL2    -0.180000       12.0110           0
     22341 LPSA21   1        ECLIPA   H52R     HAL2     0.900000E-01   1.00800           0
     22342 LPSA21   1        ECLIPA   H52S     HAL2     0.900000E-01   1.00800           0
     22343 LPSA21   1        ECLIPA   C53      CTL1     0.170000       12.0110           0
     22344 LPSA21   1        ECLIPA   H53R     HAL1     0.900000E-01   1.00800           0
     22345 LPSA21   1        ECLIPA   O53      OSL     -0.490000       15.9994           0
     22346 LPSA21   1        ECLIPA   C61      CL       0.900000       12.0110           0
     22347 LPSA21   1        ECLIPA   O61      OBL     -0.630000       15.9994           0
     22348 LPSA21   1        ECLIPA   C62      CTL2    -0.220000       12.0110           0
     22349 LPSA21   1        ECLIPA   H62R     HAL2     0.900000E-01   1.00800           0
     22350 LPSA21   1        ECLIPA   H62S     HAL2     0.900000E-01   1.00800           0
     22351 LPSA21   1        ECLIPA   C63      CTL2    -0.180000       12.0110           0
     22352 LPSA21   1        ECLIPA   H63R     HAL2     0.900000E-01   1.00800           0
     22353 LPSA21   1        ECLIPA   H63S     HAL2     0.900000E-01   1.00800           0
     22354 LPSA21   1        ECLIPA   C64      CTL2    -0.180000       12.0110           0
     22355 LPSA21   1        ECLIPA   H64R     HAL2     0.900000E-01   1.00800           0
     22356 LPSA21   1        ECLIPA   H64S     HAL2     0.900000E-01   1.00800           0
     22357 LPSA21   1        ECLIPA   C65      CTL2    -0.180000       12.0110           0
     22358 LPSA21   1        ECLIPA   H65R     HAL2     0.900000E-01   1.00800           0
     22359 LPSA21   1        ECLIPA   H65S     HAL2     0.900000E-01   1.00800           0
     22360 LPSA21   1        ECLIPA   C66      CTL2    -0.180000       12.0110           0
     22361 LPSA21   1        ECLIPA   H66R     HAL2     0.900000E-01   1.00800           0
     22362 LPSA21   1        ECLIPA   H66S     HAL2     0.900000E-01   1.00800           0
     22363 LPSA21   1        ECLIPA   C67      CTL2    -0.180000       12.0110           0
     22364 LPSA21   1        ECLIPA   H67R     HAL2     0.900000E-01   1.00800           0
     22365 LPSA21   1        ECLIPA   H67S     HAL2     0.900000E-01   1.00800           0
     22366 LPSA21   1        ECLIPA   C68      CTL2    -0.180000       12.0110           0
     22367 LPSA21   1        ECLIPA   H68R     HAL2     0.900000E-01   1.00800           0
     22368 LPSA21   1        ECLIPA   H68S     HAL2     0.900000E-01   1.00800           0
     22369 LPSA21   1        ECLIPA   C69      CTL2    -0.180000       12.0110           0
     22370 LPSA21   1        ECLIPA   H69R     HAL2     0.900000E-01   1.00800           0
     22371 LPSA21   1        ECLIPA   H69S     HAL2     0.900000E-01   1.00800           0
     22372 LPSA21   1        ECLIPA   C610     CTL2    -0.180000       12.0110           0
     22373 LPSA21   1        ECLIPA   H610R    HAL2     0.900000E-01   1.00800           0
     22374 LPSA21   1        ECLIPA   H610S    HAL2     0.900000E-01   1.00800           0
     22375 LPSA21   1        ECLIPA   C611     CTL2    -0.180000       12.0110           0
     22376 LPSA21   1        ECLIPA   H611R    HAL2     0.900000E-01   1.00800           0
     22377 LPSA21   1        ECLIPA   H611S    HAL2     0.900000E-01   1.00800           0
     22378 LPSA21   1        ECLIPA   C612     CTL3    -0.270000       12.0110           0
     22379 LPSA21   1        ECLIPA   H612R    HAL3     0.900000E-01   1.00800           0
     22380 LPSA21   1        ECLIPA   H612S    HAL3     0.900000E-01   1.00800           0
     22381 LPSA21   1        ECLIPA   H612T    HAL3     0.900000E-01   1.00800           0
     22382 LPSA21   1        ECLIPA   C54      CTL2    -0.180000       12.0110           0
     22383 LPSA21   1        ECLIPA   H54R     HAL2     0.900000E-01   1.00800           0
     22384 LPSA21   1        ECLIPA   H54S     HAL2     0.900000E-01   1.00800           0
     22385 LPSA21   1        ECLIPA   C55      CTL2    -0.180000       12.0110           0
     22386 LPSA21   1        ECLIPA   H55R     HAL2     0.900000E-01   1.00800           0
     22387 LPSA21   1        ECLIPA   H55S     HAL2     0.900000E-01   1.00800           0
     22388 LPSA21   1        ECLIPA   C56      CTL2    -0.180000       12.0110           0
     22389 LPSA21   1        ECLIPA   H56R     HAL2     0.900000E-01   1.00800           0
     22390 LPSA21   1        ECLIPA   H56S     HAL2     0.900000E-01   1.00800           0
     22391 LPSA21   1        ECLIPA   C57      CTL2    -0.180000       12.0110           0
     22392 LPSA21   1        ECLIPA   H57R     HAL2     0.900000E-01   1.00800           0
     22393 LPSA21   1        ECLIPA   H57S     HAL2     0.900000E-01   1.00800           0
     22394 LPSA21   1        ECLIPA   C58      CTL2    -0.180000       12.0110           0
     22395 LPSA21   1        ECLIPA   H58R     HAL2     0.900000E-01   1.00800           0
     22396 LPSA21   1        ECLIPA   H58S     HAL2     0.900000E-01   1.00800           0
     22397 LPSA21   1        ECLIPA   C59      CTL2    -0.180000       12.0110           0
     22398 LPSA21   1        ECLIPA   H59R     HAL2     0.900000E-01   1.00800           0
     22399 LPSA21   1        ECLIPA   H59S     HAL2     0.900000E-01   1.00800           0
     22400 LPSA21   1        ECLIPA   C510     CTL2    -0.180000       12.0110           0
     22401 LPSA21   1        ECLIPA   H510R    HAL2     0.900000E-01   1.00800           0
     22402 LPSA21   1        ECLIPA   H510S    HAL2     0.900000E-01   1.00800           0
     22403 LPSA21   1        ECLIPA   C511     CTL2    -0.180000       12.0110           0
     22404 LPSA21   1        ECLIPA   H511R    HAL2     0.900000E-01   1.00800           0
     22405 LPSA21   1        ECLIPA   H511S    HAL2     0.900000E-01   1.00800           0
     22406 LPSA21   1        ECLIPA   C512     CTL2    -0.180000       12.0110           0
     22407 LPSA21   1        ECLIPA   H512R    HAL2     0.900000E-01   1.00800           0
     22408 LPSA21   1        ECLIPA   H512S    HAL2     0.900000E-01   1.00800           0
     22409 LPSA21   1        ECLIPA   C513     CTL2    -0.180000       12.0110           0
     22410 LPSA21   1        ECLIPA   H513R    HAL2     0.900000E-01   1.00800           0
     22411 LPSA21   1        ECLIPA   H513S    HAL2     0.900000E-01   1.00800           0
     22412 LPSA21   1        ECLIPA   C514     CTL3    -0.270000       12.0110           0
     22413 LPSA21   1        ECLIPA   H514R    HAL3     0.900000E-01   1.00800           0
     22414 LPSA21   1        ECLIPA   H514S    HAL3     0.900000E-01   1.00800           0
     22415 LPSA21   1        ECLIPA   H514T    HAL3     0.900000E-01   1.00800           0
     22416 LPSA21   1        ECLIPA   C33      CTL1     0.140000       12.0110           0
     22417 LPSA21   1        ECLIPA   H33R     HAL1     0.900000E-01   1.00800           0
     22418 LPSA21   1        ECLIPA   O33      OH1     -0.660000       15.9994           0
     22419 LPSA21   1        ECLIPA   HO33     H        0.430000       1.00800           0
     22420 LPSA21   1        ECLIPA   C34      CTL2    -0.180000       12.0110           0
     22421 LPSA21   1        ECLIPA   H34R     HAL2     0.900000E-01   1.00800           0
     22422 LPSA21   1        ECLIPA   H34S     HAL2     0.900000E-01   1.00800           0
     22423 LPSA21   1        ECLIPA   C35      CTL2    -0.180000       12.0110           0
     22424 LPSA21   1        ECLIPA   H35R     HAL2     0.900000E-01   1.00800           0
     22425 LPSA21   1        ECLIPA   H35S     HAL2     0.900000E-01   1.00800           0
     22426 LPSA21   1        ECLIPA   C36      CTL2    -0.180000       12.0110           0
     22427 LPSA21   1        ECLIPA   H36R     HAL2     0.900000E-01   1.00800           0
     22428 LPSA21   1        ECLIPA   H36S     HAL2     0.900000E-01   1.00800           0
     22429 LPSA21   1        ECLIPA   C37      CTL2    -0.180000       12.0110           0
     22430 LPSA21   1        ECLIPA   H37R     HAL2     0.900000E-01   1.00800           0
     22431 LPSA21   1        ECLIPA   H37S     HAL2     0.900000E-01   1.00800           0
     22432 LPSA21   1        ECLIPA   C38      CTL2    -0.180000       12.0110           0
     22433 LPSA21   1        ECLIPA   H38R     HAL2     0.900000E-01   1.00800           0
     22434 LPSA21   1        ECLIPA   H38S     HAL2     0.900000E-01   1.00800           0
     22435 LPSA21   1        ECLIPA   C39      CTL2    -0.180000       12.0110           0
     22436 LPSA21   1        ECLIPA   H39R     HAL2     0.900000E-01   1.00800           0
     22437 LPSA21   1        ECLIPA   H39S     HAL2     0.900000E-01   1.00800           0
     22438 LPSA21   1        ECLIPA   C310     CTL2    -0.180000       12.0110           0
     22439 LPSA21   1        ECLIPA   H310R    HAL2     0.900000E-01   1.00800           0
     22440 LPSA21   1        ECLIPA   H310S    HAL2     0.900000E-01   1.00800           0
     22441 LPSA21   1        ECLIPA   C311     CTL2    -0.180000       12.0110           0
     22442 LPSA21   1        ECLIPA   H311R    HAL2     0.900000E-01   1.00800           0
     22443 LPSA21   1        ECLIPA   H311S    HAL2     0.900000E-01   1.00800           0
     22444 LPSA21   1        ECLIPA   C312     CTL2    -0.180000       12.0110           0
     22445 LPSA21   1        ECLIPA   H312R    HAL2     0.900000E-01   1.00800           0
     22446 LPSA21   1        ECLIPA   H312S    HAL2     0.900000E-01   1.00800           0
     22447 LPSA21   1        ECLIPA   C313     CTL2    -0.180000       12.0110           0
     22448 LPSA21   1        ECLIPA   H313R    HAL2     0.900000E-01   1.00800           0
     22449 LPSA21   1        ECLIPA   H313S    HAL2     0.900000E-01   1.00800           0
     22450 LPSA21   1        ECLIPA   C314     CTL3    -0.270000       12.0110           0
     22451 LPSA21   1        ECLIPA   H314R    HAL3     0.900000E-01   1.00800           0
     22452 LPSA21   1        ECLIPA   H314S    HAL3     0.900000E-01   1.00800           0
     22453 LPSA21   1        ECLIPA   H314T    HAL3     0.900000E-01   1.00800           0
     22454 LPSA21   1        ECLIPA   C11      CC2O1    0.550000       12.0110           0
     22455 LPSA21   1        ECLIPA   O11      OC2D1   -0.550000       15.9994           0
     22456 LPSA21   1        ECLIPA   C12      CTL2    -0.180000       12.0110           0
     22457 LPSA21   1        ECLIPA   H12R     HAL2     0.900000E-01   1.00800           0
     22458 LPSA21   1        ECLIPA   H12S     HAL2     0.900000E-01   1.00800           0
     22459 LPSA21   1        ECLIPA   C13      CTL1     0.140000       12.0110           0
     22460 LPSA21   1        ECLIPA   H13R     HAL1     0.900000E-01   1.00800           0
     22461 LPSA21   1        ECLIPA   O13      OH1     -0.660000       15.9994           0
     22462 LPSA21   1        ECLIPA   HO13     H        0.430000       1.00800           0
     22463 LPSA21   1        ECLIPA   C14      CTL2    -0.180000       12.0110           0
     22464 LPSA21   1        ECLIPA   H14R     HAL2     0.900000E-01   1.00800           0
     22465 LPSA21   1        ECLIPA   H14S     HAL2     0.900000E-01   1.00800           0
     22466 LPSA21   1        ECLIPA   C15      CTL2    -0.180000       12.0110           0
     22467 LPSA21   1        ECLIPA   H15R     HAL2     0.900000E-01   1.00800           0
     22468 LPSA21   1        ECLIPA   H15S     HAL2     0.900000E-01   1.00800           0
     22469 LPSA21   1        ECLIPA   C16      CTL2    -0.180000       12.0110           0
     22470 LPSA21   1        ECLIPA   H16R     HAL2     0.900000E-01   1.00800           0
     22471 LPSA21   1        ECLIPA   H16S     HAL2     0.900000E-01   1.00800           0
     22472 LPSA21   1        ECLIPA   C17      CTL2    -0.180000       12.0110           0
     22473 LPSA21   1        ECLIPA   H17R     HAL2     0.900000E-01   1.00800           0
     22474 LPSA21   1        ECLIPA   H17S     HAL2     0.900000E-01   1.00800           0
     22475 LPSA21   1        ECLIPA   C18      CTL2    -0.180000       12.0110           0
     22476 LPSA21   1        ECLIPA   H18R     HAL2     0.900000E-01   1.00800           0
     22477 LPSA21   1        ECLIPA   H18S     HAL2     0.900000E-01   1.00800           0
     22478 LPSA21   1        ECLIPA   C19      CTL2    -0.180000       12.0110           0
     22479 LPSA21   1        ECLIPA   H19R     HAL2     0.900000E-01   1.00800           0
     22480 LPSA21   1        ECLIPA   H19S     HAL2     0.900000E-01   1.00800           0
     22481 LPSA21   1        ECLIPA   C110     CTL2    -0.180000       12.0110           0
     22482 LPSA21   1        ECLIPA   H110R    HAL2     0.900000E-01   1.00800           0
     22483 LPSA21   1        ECLIPA   H110S    HAL2     0.900000E-01   1.00800           0
     22484 LPSA21   1        ECLIPA   C111     CTL2    -0.180000       12.0110           0
     22485 LPSA21   1        ECLIPA   H111R    HAL2     0.900000E-01   1.00800           0
     22486 LPSA21   1        ECLIPA   H111S    HAL2     0.900000E-01   1.00800           0
     22487 LPSA21   1        ECLIPA   C112     CTL2    -0.180000       12.0110           0
     22488 LPSA21   1        ECLIPA   H112R    HAL2     0.900000E-01   1.00800           0
     22489 LPSA21   1        ECLIPA   H112S    HAL2     0.900000E-01   1.00800           0
     22490 LPSA21   1        ECLIPA   C113     CTL2    -0.180000       12.0110           0
     22491 LPSA21   1        ECLIPA   H113R    HAL2     0.900000E-01   1.00800           0
     22492 LPSA21   1        ECLIPA   H113S    HAL2     0.900000E-01   1.00800           0
     22493 LPSA21   1        ECLIPA   C114     CTL3    -0.270000       12.0110           0
     22494 LPSA21   1        ECLIPA   H114R    HAL3     0.900000E-01   1.00800           0
     22495 LPSA21   1        ECLIPA   H114S    HAL3     0.900000E-01   1.00800           0
     22496 LPSA21   1        ECLIPA   H114T    HAL3     0.900000E-01   1.00800           0
     22497 LPSA21   2        AKDO     C1       CC2O2    0.300000       12.0110           0
     22498 LPSA21   2        AKDO     O11      OC2D2   -0.600000       15.9994           0
     22499 LPSA21   2        AKDO     O12      OC2D2   -0.600000       15.9994           0
     22500 LPSA21   2        AKDO     C2       CC3062   0.280000       12.0110           0
     22501 LPSA21   2        AKDO     C6       CC3163   0.110000       12.0110           0
     22502 LPSA21   2        AKDO     H6       HCA1     0.900000E-01   1.00800           0
     22503 LPSA21   2        AKDO     O6       OC3C61  -0.400000       15.9994           0
     22504 LPSA21   2        AKDO     C3       CC3261  -0.180000       12.0110           0
     22505 LPSA21   2        AKDO     H31      HCA2     0.900000E-01   1.00800           0
     22506 LPSA21   2        AKDO     H32      HCA2     0.900000E-01   1.00800           0
     22507 LPSA21   2        AKDO     C4       CC3161   0.900000E-01   12.0110           0
     22508 LPSA21   2        AKDO     H4       HCA1     0.900000E-01   1.00800           0
     22509 LPSA21   2        AKDO     O4       OC301   -0.360000       15.9994           0
     22510 LPSA21   2        AKDO     C5       CC3161   0.900000E-01   12.0110           0
     22511 LPSA21   2        AKDO     H5       HCA1     0.900000E-01   1.00800           0
     22512 LPSA21   2        AKDO     O5       OC301   -0.360000       15.9994           0
     22513 LPSA21   2        AKDO     C7       CC312    0.140000       12.0110           0
     22514 LPSA21   2        AKDO     H7       HCA1     0.900000E-01   1.00800           0
     22515 LPSA21   2        AKDO     O7       OC311   -0.650000       15.9994           0
     22516 LPSA21   2        AKDO     HO7      HCP1     0.420000       1.00800           0
     22517 LPSA21   2        AKDO     C8       CC322    0.500000E-01   12.0110           0
     22518 LPSA21   2        AKDO     H81      HCA2     0.900000E-01   1.00800           0
     22519 LPSA21   2        AKDO     H82      HCA2     0.900000E-01   1.00800           0
     22520 LPSA21   2        AKDO     O8       OC311   -0.650000       15.9994           0
     22521 LPSA21   2        AKDO     HO8      HCP1     0.420000       1.00800           0
     22522 LPSA21   3        AKDO     C1       CC2O2    0.300000       12.0110           0
     22523 LPSA21   3        AKDO     O11      OC2D2   -0.600000       15.9994           0
     22524 LPSA21   3        AKDO     O12      OC2D2   -0.600000       15.9994           0
     22525 LPSA21   3        AKDO     C2       CC3062   0.280000       12.0110           0
     22526 LPSA21   3        AKDO     C6       CC3163   0.110000       12.0110           0
     22527 LPSA21   3        AKDO     H6       HCA1     0.900000E-01   1.00800           0
     22528 LPSA21   3        AKDO     O6       OC3C61  -0.400000       15.9994           0
     22529 LPSA21   3        AKDO     C3       CC3261  -0.180000       12.0110           0
     22530 LPSA21   3        AKDO     H31      HCA2     0.900000E-01   1.00800           0
     22531 LPSA21   3        AKDO     H32      HCA2     0.900000E-01   1.00800           0
     22532 LPSA21   3        AKDO     C4       CC3161   0.140000       12.0110           0
     22533 LPSA21   3        AKDO     H4       HCA1     0.900000E-01   1.00800           0
     22534 LPSA21   3        AKDO     O4       OC311   -0.650000       15.9994           0
     22535 LPSA21   3        AKDO     HO4      HCP1     0.420000       1.00800           0
     22536 LPSA21   3        AKDO     C5       CC3161   0.140000       12.0110           0
     22537 LPSA21   3        AKDO     H5       HCA1     0.900000E-01   1.00800           0
     22538 LPSA21   3        AKDO     O5       OC311   -0.650000       15.9994           0
     22539 LPSA21   3        AKDO     HO5      HCP1     0.420000       1.00800           0
     22540 LPSA21   3        AKDO     C7       CC312    0.140000       12.0110           0
     22541 LPSA21   3        AKDO     H7       HCA1     0.900000E-01   1.00800           0
     22542 LPSA21   3        AKDO     O7       OC311   -0.650000       15.9994           0
     22543 LPSA21   3        AKDO     HO7      HCP1     0.420000       1.00800           0
     22544 LPSA21   3        AKDO     C8       CC322    0.500000E-01   12.0110           0
     22545 LPSA21   3        AKDO     H81      HCA2     0.900000E-01   1.00800           0
     22546 LPSA21   3        AKDO     H82      HCA2     0.900000E-01   1.00800           0
     22547 LPSA21   3        AKDO     O8       OC311   -0.650000       15.9994           0
     22548 LPSA21   3        AKDO     HO8      HCP1     0.420000       1.00800           0
     22549 LPSA21   4        AHEP     C1       CC3162   0.290000       12.0110           0
     22550 LPSA21   4        AHEP     H1       HCA1     0.900000E-01   1.00800           0
     22551 LPSA21   4        AHEP     C5       CC3163   0.110000       12.0110           0
     22552 LPSA21   4        AHEP     H5       HCA1     0.900000E-01   1.00800           0
     22553 LPSA21   4        AHEP     O5       OC3C61  -0.400000       15.9994           0
     22554 LPSA21   4        AHEP     C2       CC3161   0.140000       12.0110           0
     22555 LPSA21   4        AHEP     H2       HCA1     0.900000E-01   1.00800           0
     22556 LPSA21   4        AHEP     O2       OC311   -0.650000       15.9994           0
     22557 LPSA21   4        AHEP     HO2      HCP1     0.420000       1.00800           0
     22558 LPSA21   4        AHEP     C3       CC3161   0.900000E-01   12.0110           0
     22559 LPSA21   4        AHEP     H3       HCA1     0.900000E-01   1.00800           0
     22560 LPSA21   4        AHEP     O3       OC301   -0.360000       15.9994           0
     22561 LPSA21   4        AHEP     C4       CC3161  -0.900000E-01   12.0110           0
     22562 LPSA21   4        AHEP     H4       HCA1     0.900000E-01   1.00800           0
     22563 LPSA21   4        AHEP     O4       OC30P   -0.400000       15.9994           0
     22564 LPSA21   4        AHEP     P4       PC        1.10000       30.9740           0
     22565 LPSA21   4        AHEP     OP42     OC2DP   -0.900000       15.9994           0
     22566 LPSA21   4        AHEP     OP43     OC2DP   -0.900000       15.9994           0
     22567 LPSA21   4        AHEP     OP44     OC2DP   -0.900000       15.9994           0
     22568 LPSA21   4        AHEP     C6       CC312    0.140000       12.0110           0
     22569 LPSA21   4        AHEP     H6       HCA1     0.900000E-01   1.00800           0
     22570 LPSA21   4        AHEP     O6       OC311   -0.650000       15.9994           0
     22571 LPSA21   4        AHEP     HO6      HCP1     0.420000       1.00800           0
     22572 LPSA21   4        AHEP     C7       CC322    0.500000E-01   12.0110           0
     22573 LPSA21   4        AHEP     H71      HCA2     0.900000E-01   1.00800           0
     22574 LPSA21   4        AHEP     H72      HCA2     0.900000E-01   1.00800           0
     22575 LPSA21   4        AHEP     O7       OC311   -0.650000       15.9994           0
     22576 LPSA21   4        AHEP     HO7      HCP1     0.420000       1.00800           0
     22577 LPSA21   5        AHEP     C1       CC3162   0.290000       12.0110           0
     22578 LPSA21   5        AHEP     H1       HCA1     0.900000E-01   1.00800           0
     22579 LPSA21   5        AHEP     C5       CC3163   0.110000       12.0110           0
     22580 LPSA21   5        AHEP     H5       HCA1     0.900000E-01   1.00800           0
     22581 LPSA21   5        AHEP     O5       OC3C61  -0.400000       15.9994           0
     22582 LPSA21   5        AHEP     C2       CC3161   0.140000       12.0110           0
     22583 LPSA21   5        AHEP     H2       HCA1     0.900000E-01   1.00800           0
     22584 LPSA21   5        AHEP     O2       OC311   -0.650000       15.9994           0
     22585 LPSA21   5        AHEP     HO2      HCP1     0.420000       1.00800           0
     22586 LPSA21   5        AHEP     C3       CC3161   0.900000E-01   12.0110           0
     22587 LPSA21   5        AHEP     H3       HCA1     0.900000E-01   1.00800           0
     22588 LPSA21   5        AHEP     O3       OC301   -0.360000       15.9994           0
     22589 LPSA21   5        AHEP     C4       CC3161  -0.900000E-01   12.0110           0
     22590 LPSA21   5        AHEP     H4       HCA1     0.900000E-01   1.00800           0
     22591 LPSA21   5        AHEP     O4       OC30P   -0.400000       15.9994           0
     22592 LPSA21   5        AHEP     P4       PC        1.10000       30.9740           0
     22593 LPSA21   5        AHEP     OP42     OC2DP   -0.900000       15.9994           0
     22594 LPSA21   5        AHEP     OP43     OC2DP   -0.900000       15.9994           0
     22595 LPSA21   5        AHEP     OP44     OC2DP   -0.900000       15.9994           0
     22596 LPSA21   5        AHEP     C6       CC312    0.140000       12.0110           0
     22597 LPSA21   5        AHEP     H6       HCA1     0.900000E-01   1.00800           0
     22598 LPSA21   5        AHEP     O6       OC311   -0.650000       15.9994           0
     22599 LPSA21   5        AHEP     HO6      HCP1     0.420000       1.00800           0
     22600 LPSA21   5        AHEP     C7       CC322     0.00000       12.0110           0
     22601 LPSA21   5        AHEP     H71      HCA2     0.900000E-01   1.00800           0
     22602 LPSA21   5        AHEP     H72      HCA2     0.900000E-01   1.00800           0
     22603 LPSA21   5        AHEP     O7       OC301   -0.360000       15.9994           0
     22604 LPSA21   6        AHEP     C1       CC3162   0.290000       12.0110           0
     22605 LPSA21   6        AHEP     H1       HCA1     0.900000E-01   1.00800           0
     22606 LPSA21   6        AHEP     C5       CC3163   0.110000       12.0110           0
     22607 LPSA21   6        AHEP     H5       HCA1     0.900000E-01   1.00800           0
     22608 LPSA21   6        AHEP     O5       OC3C61  -0.400000       15.9994           0
     22609 LPSA21   6        AHEP     C2       CC3161   0.140000       12.0110           0
     22610 LPSA21   6        AHEP     H2       HCA1     0.900000E-01   1.00800           0
     22611 LPSA21   6        AHEP     O2       OC311   -0.650000       15.9994           0
     22612 LPSA21   6        AHEP     HO2      HCP1     0.420000       1.00800           0
     22613 LPSA21   6        AHEP     C3       CC3161   0.140000       12.0110           0
     22614 LPSA21   6        AHEP     H3       HCA1     0.900000E-01   1.00800           0
     22615 LPSA21   6        AHEP     O3       OC311   -0.650000       15.9994           0
     22616 LPSA21   6        AHEP     HO3      HCP1     0.420000       1.00800           0
     22617 LPSA21   6        AHEP     C4       CC3161   0.140000       12.0110           0
     22618 LPSA21   6        AHEP     H4       HCA1     0.900000E-01   1.00800           0
     22619 LPSA21   6        AHEP     O4       OC311   -0.650000       15.9994           0
     22620 LPSA21   6        AHEP     HO4      HCP1     0.420000       1.00800           0
     22621 LPSA21   6        AHEP     C6       CC312    0.140000       12.0110           0
     22622 LPSA21   6        AHEP     H6       HCA1     0.900000E-01   1.00800           0
     22623 LPSA21   6        AHEP     O6       OC311   -0.650000       15.9994           0
     22624 LPSA21   6        AHEP     HO6      HCP1     0.420000       1.00800           0
     22625 LPSA21   6        AHEP     C7       CC322    0.500000E-01   12.0110           0
     22626 LPSA21   6        AHEP     H71      HCA2     0.900000E-01   1.00800           0
     22627 LPSA21   6        AHEP     H72      HCA2     0.900000E-01   1.00800           0
     22628 LPSA21   6        AHEP     O7       OC311   -0.650000       15.9994           0
     22629 LPSA21   6        AHEP     HO7      HCP1     0.420000       1.00800           0
     22630 LPSA21   7        AGLC     C1       CC3162   0.290000       12.0110           0
     22631 LPSA21   7        AGLC     H1       HCA1     0.900000E-01   1.00800           0
     22632 LPSA21   7        AGLC     C5       CC3163   0.110000       12.0110           0
     22633 LPSA21   7        AGLC     H5       HCA1     0.900000E-01   1.00800           0
     22634 LPSA21   7        AGLC     O5       OC3C61  -0.400000       15.9994           0
     22635 LPSA21   7        AGLC     C2       CC3161   0.140000       12.0110           0
     22636 LPSA21   7        AGLC     H2       HCA1     0.900000E-01   1.00800           0
     22637 LPSA21   7        AGLC     O2       OC311   -0.650000       15.9994           0
     22638 LPSA21   7        AGLC     HO2      HCP1     0.420000       1.00800           0
     22639 LPSA21   7        AGLC     C3       CC3161   0.900000E-01   12.0110           0
     22640 LPSA21   7        AGLC     H3       HCA1     0.900000E-01   1.00800           0
     22641 LPSA21   7        AGLC     O3       OC301   -0.360000       15.9994           0
     22642 LPSA21   7        AGLC     C4       CC3161   0.140000       12.0110           0
     22643 LPSA21   7        AGLC     H4       HCA1     0.900000E-01   1.00800           0
     22644 LPSA21   7        AGLC     O4       OC311   -0.650000       15.9994           0
     22645 LPSA21   7        AGLC     HO4      HCP1     0.420000       1.00800           0
     22646 LPSA21   7        AGLC     C6       CC321    0.500000E-01   12.0110           0
     22647 LPSA21   7        AGLC     H61      HCA2     0.900000E-01   1.00800           0
     22648 LPSA21   7        AGLC     H62      HCA2     0.900000E-01   1.00800           0
     22649 LPSA21   7        AGLC     O6       OC311   -0.650000       15.9994           0
     22650 LPSA21   7        AGLC     HO6      HCP1     0.420000       1.00800           0
     22651 LPSA21   8        AGLC     C1       CC3162   0.290000       12.0110           0
     22652 LPSA21   8        AGLC     H1       HCA1     0.900000E-01   1.00800           0
     22653 LPSA21   8        AGLC     C5       CC3163   0.110000       12.0110           0
     22654 LPSA21   8        AGLC     H5       HCA1     0.900000E-01   1.00800           0
     22655 LPSA21   8        AGLC     O5       OC3C61  -0.400000       15.9994           0
     22656 LPSA21   8        AGLC     C2       CC3161   0.900000E-01   12.0110           0
     22657 LPSA21   8        AGLC     H2       HCA1     0.900000E-01   1.00800           0
     22658 LPSA21   8        AGLC     O2       OC301   -0.360000       15.9994           0
     22659 LPSA21   8        AGLC     C3       CC3161   0.900000E-01   12.0110           0
     22660 LPSA21   8        AGLC     H3       HCA1     0.900000E-01   1.00800           0
     22661 LPSA21   8        AGLC     O3       OC301   -0.360000       15.9994           0
     22662 LPSA21   8        AGLC     C4       CC3161   0.140000       12.0110           0
     22663 LPSA21   8        AGLC     H4       HCA1     0.900000E-01   1.00800           0
     22664 LPSA21   8        AGLC     O4       OC311   -0.650000       15.9994           0
     22665 LPSA21   8        AGLC     HO4      HCP1     0.420000       1.00800           0
     22666 LPSA21   8        AGLC     C6       CC321    0.500000E-01   12.0110           0
     22667 LPSA21   8        AGLC     H61      HCA2     0.900000E-01   1.00800           0
     22668 LPSA21   8        AGLC     H62      HCA2     0.900000E-01   1.00800           0
     22669 LPSA21   8        AGLC     O6       OC311   -0.650000       15.9994           0
     22670 LPSA21   8        AGLC     HO6      HCP1     0.420000       1.00800           0
     22671 LPSA21   9        AGAL     C1       CC3162   0.290000       12.0110           0
     22672 LPSA21   9        AGAL     H1       HCA1     0.900000E-01   1.00800           0
     22673 LPSA21   9        AGAL     C5       CC3163   0.110000       12.0110           0
     22674 LPSA21   9        AGAL     H5       HCA1     0.900000E-01   1.00800           0
     22675 LPSA21   9        AGAL     O5       OC3C61  -0.400000       15.9994           0
     22676 LPSA21   9        AGAL     C2       CC3161   0.900000E-01   12.0110           0
     22677 LPSA21   9        AGAL     H2       HCA1     0.900000E-01   1.00800           0
     22678 LPSA21   9        AGAL     O2       OC301   -0.360000       15.9994           0
     22679 LPSA21   9        AGAL     C3       CC3161   0.140000       12.0110           0
     22680 LPSA21   9        AGAL     H3       HCA1     0.900000E-01   1.00800           0
     22681 LPSA21   9        AGAL     O3       OC311   -0.650000       15.9994           0
     22682 LPSA21   9        AGAL     HO3      HCP1     0.420000       1.00800           0
     22683 LPSA21   9        AGAL     C4       CC3161   0.140000       12.0110           0
     22684 LPSA21   9        AGAL     H4       HCA1     0.900000E-01   1.00800           0
     22685 LPSA21   9        AGAL     O4       OC311   -0.650000       15.9994           0
     22686 LPSA21   9        AGAL     HO4      HCP1     0.420000       1.00800           0
     22687 LPSA21   9        AGAL     C6       CC321    0.500000E-01   12.0110           0
     22688 LPSA21   9        AGAL     H61      HCA2     0.900000E-01   1.00800           0
     22689 LPSA21   9        AGAL     H62      HCA2     0.900000E-01   1.00800           0
     22690 LPSA21   9        AGAL     O6       OC311   -0.650000       15.9994           0
     22691 LPSA21   9        AGAL     HO6      HCP1     0.420000       1.00800           0
     22692 LPSA21   10       AGAL     C1       CC3162   0.290000       12.0110           0
     22693 LPSA21   10       AGAL     H1       HCA1     0.900000E-01   1.00800           0
     22694 LPSA21   10       AGAL     C5       CC3163   0.110000       12.0110           0
     22695 LPSA21   10       AGAL     H5       HCA1     0.900000E-01   1.00800           0
     22696 LPSA21   10       AGAL     O5       OC3C61  -0.400000       15.9994           0
     22697 LPSA21   10       AGAL     C2       CC3161   0.140000       12.0110           0
     22698 LPSA21   10       AGAL     H2       HCA1     0.900000E-01   1.00800           0
     22699 LPSA21   10       AGAL     O2       OC311   -0.650000       15.9994           0
     22700 LPSA21   10       AGAL     HO2      HCP1     0.420000       1.00800           0
     22701 LPSA21   10       AGAL     C3       CC3161   0.140000       12.0110           0
     22702 LPSA21   10       AGAL     H3       HCA1     0.900000E-01   1.00800           0
     22703 LPSA21   10       AGAL     O3       OC311   -0.650000       15.9994           0
     22704 LPSA21   10       AGAL     HO3      HCP1     0.420000       1.00800           0
     22705 LPSA21   10       AGAL     C4       CC3161   0.140000       12.0110           0
     22706 LPSA21   10       AGAL     H4       HCA1     0.900000E-01   1.00800           0
     22707 LPSA21   10       AGAL     O4       OC311   -0.650000       15.9994           0
     22708 LPSA21   10       AGAL     HO4      HCP1     0.420000       1.00800           0
     22709 LPSA21   10       AGAL     C6       CC321    0.500000E-01   12.0110           0
     22710 LPSA21   10       AGAL     H61      HCA2     0.900000E-01   1.00800           0
     22711 LPSA21   10       AGAL     H62      HCA2     0.900000E-01   1.00800           0
     22712 LPSA21   10       AGAL     O6       OC311   -0.650000       15.9994           0
     22713 LPSA21   10       AGAL     HO6      HCP1     0.420000       1.00800           0
     22714 LPSA21   11       BGLC     C1       CC3162   0.290000       12.0110           0
     22715 LPSA21   11       BGLC     H1       HCA1     0.900000E-01   1.00800           0
     22716 LPSA21   11       BGLC     C5       CC3163   0.110000       12.0110           0
     22717 LPSA21   11       BGLC     H5       HCA1     0.900000E-01   1.00800           0
     22718 LPSA21   11       BGLC     O5       OC3C61  -0.400000       15.9994           0
     22719 LPSA21   11       BGLC     C2       CC3161   0.140000       12.0110           0
     22720 LPSA21   11       BGLC     H2       HCA1     0.900000E-01   1.00800           0
     22721 LPSA21   11       BGLC     O2       OC311   -0.650000       15.9994           0
     22722 LPSA21   11       BGLC     HO2      HCP1     0.420000       1.00800           0
     22723 LPSA21   11       BGLC     C3       CC3161   0.900000E-01   12.0110           0
     22724 LPSA21   11       BGLC     H3       HCA1     0.900000E-01   1.00800           0
     22725 LPSA21   11       BGLC     O3       OC301   -0.360000       15.9994           0
     22726 LPSA21   11       BGLC     C4       CC3161   0.140000       12.0110           0
     22727 LPSA21   11       BGLC     H4       HCA1     0.900000E-01   1.00800           0
     22728 LPSA21   11       BGLC     O4       OC311   -0.650000       15.9994           0
     22729 LPSA21   11       BGLC     HO4      HCP1     0.420000       1.00800           0
     22730 LPSA21   11       BGLC     C6       CC321    0.500000E-01   12.0110           0
     22731 LPSA21   11       BGLC     H61      HCA2     0.900000E-01   1.00800           0
     22732 LPSA21   11       BGLC     H62      HCA2     0.900000E-01   1.00800           0
     22733 LPSA21   11       BGLC     O6       OC311   -0.650000       15.9994           0
     22734 LPSA21   11       BGLC     HO6      HCP1     0.420000       1.00800           0
     22735 LPSA21   12       BGLCNA   C1       CC3162   0.290000       12.0110           0
     22736 LPSA21   12       BGLCNA   H1       HCA1     0.900000E-01   1.00800           0
     22737 LPSA21   12       BGLCNA   C5       CC3163   0.110000       12.0110           0
     22738 LPSA21   12       BGLCNA   H5       HCA1     0.900000E-01   1.00800           0
     22739 LPSA21   12       BGLCNA   O5       OC3C61  -0.400000       15.9994           0
     22740 LPSA21   12       BGLCNA   C2       CC3161   0.700000E-01   12.0110           0
     22741 LPSA21   12       BGLCNA   H2       HCA1     0.900000E-01   1.00800           0
     22742 LPSA21   12       BGLCNA   N        NC2D1   -0.470000       14.0070           0
     22743 LPSA21   12       BGLCNA   HN       HCP1     0.310000       1.00800           0
     22744 LPSA21   12       BGLCNA   C        CC2O1    0.510000       12.0110           0
     22745 LPSA21   12       BGLCNA   O        OC2D1   -0.510000       15.9994           0
     22746 LPSA21   12       BGLCNA   CT       CC331   -0.270000       12.0110           0
     22747 LPSA21   12       BGLCNA   HT1      HCA3     0.900000E-01   1.00800           0
     22748 LPSA21   12       BGLCNA   HT2      HCA3     0.900000E-01   1.00800           0
     22749 LPSA21   12       BGLCNA   HT3      HCA3     0.900000E-01   1.00800           0
     22750 LPSA21   12       BGLCNA   C3       CC3161   0.900000E-01   12.0110           0
     22751 LPSA21   12       BGLCNA   H3       HCA1     0.900000E-01   1.00800           0
     22752 LPSA21   12       BGLCNA   O3       OC301   -0.360000       15.9994           0
     22753 LPSA21   12       BGLCNA   C4       CC3161   0.140000       12.0110           0
     22754 LPSA21   12       BGLCNA   H4       HCA1     0.900000E-01   1.00800           0
     22755 LPSA21   12       BGLCNA   O4       OC311   -0.650000       15.9994           0
     22756 LPSA21   12       BGLCNA   HO4      HCP1     0.420000       1.00800           0
     22757 LPSA21   12       BGLCNA   C6       CC321    0.500000E-01   12.0110           0
     22758 LPSA21   12       BGLCNA   H61      HCA2     0.900000E-01   1.00800           0
     22759 LPSA21   12       BGLCNA   H62      HCA2     0.900000E-01   1.00800           0
     22760 LPSA21   12       BGLCNA   O6       OC311   -0.650000       15.9994           0
     22761 LPSA21   12       BGLCNA   HO6      HCP1     0.420000       1.00800           0
     22762 LPSA21   13       AGAL     C1       CC3162   0.290000       12.0110           0
     22763 LPSA21   13       AGAL     H1       HCA1     0.900000E-01   1.00800           0
     22764 LPSA21   13       AGAL     C5       CC3163   0.110000       12.0110           0
     22765 LPSA21   13       AGAL     H5       HCA1     0.900000E-01   1.00800           0
     22766 LPSA21   13       AGAL     O5       OC3C61  -0.400000       15.9994           0
     22767 LPSA21   13       AGAL     C2       CC3161   0.900000E-01   12.0110           0
     22768 LPSA21   13       AGAL     H2       HCA1     0.900000E-01   1.00800           0
     22769 LPSA21   13       AGAL     O2       OC301   -0.360000       15.9994           0
     22770 LPSA21   13       AGAL     C3       CC3161   0.140000       12.0110           0
     22771 LPSA21   13       AGAL     H3       HCA1     0.900000E-01   1.00800           0
     22772 LPSA21   13       AGAL     O3       OC311   -0.650000       15.9994           0
     22773 LPSA21   13       AGAL     HO3      HCP1     0.420000       1.00800           0
     22774 LPSA21   13       AGAL     C4       CC3161   0.140000       12.0110           0
     22775 LPSA21   13       AGAL     H4       HCA1     0.900000E-01   1.00800           0
     22776 LPSA21   13       AGAL     O4       OC311   -0.650000       15.9994           0
     22777 LPSA21   13       AGAL     HO4      HCP1     0.420000       1.00800           0
     22778 LPSA21   13       AGAL     C6       CC321    0.500000E-01   12.0110           0
     22779 LPSA21   13       AGAL     H61      HCA2     0.900000E-01   1.00800           0
     22780 LPSA21   13       AGAL     H62      HCA2     0.900000E-01   1.00800           0
     22781 LPSA21   13       AGAL     O6       OC311   -0.650000       15.9994           0
     22782 LPSA21   13       AGAL     HO6      HCP1     0.420000       1.00800           0
     22783 LPSA21   14       ARHM     C1       CC3162   0.290000       12.0110           0
     22784 LPSA21   14       ARHM     H1       HCA1     0.900000E-01   1.00800           0
     22785 LPSA21   14       ARHM     C5       CC3163   0.110000       12.0110           0
     22786 LPSA21   14       ARHM     H5       HCA1     0.900000E-01   1.00800           0
     22787 LPSA21   14       ARHM     O5       OC3C61  -0.400000       15.9994           0
     22788 LPSA21   14       ARHM     C2       CC3161   0.900000E-01   12.0110           0
     22789 LPSA21   14       ARHM     H2       HCA1     0.900000E-01   1.00800           0
     22790 LPSA21   14       ARHM     O2       OC301   -0.360000       15.9994           0
     22791 LPSA21   14       ARHM     C3       CC3161   0.140000       12.0110           0
     22792 LPSA21   14       ARHM     H3       HCA1     0.900000E-01   1.00800           0
     22793 LPSA21   14       ARHM     O3       OC311   -0.650000       15.9994           0
     22794 LPSA21   14       ARHM     HO3      HCP1     0.420000       1.00800           0
     22795 LPSA21   14       ARHM     C4       CC3161   0.140000       12.0110           0
     22796 LPSA21   14       ARHM     H4       HCA1     0.900000E-01   1.00800           0
     22797 LPSA21   14       ARHM     O4       OC311   -0.650000       15.9994           0
     22798 LPSA21   14       ARHM     HO4      HCP1     0.420000       1.00800           0
     22799 LPSA21   14       ARHM     C6       CC331   -0.270000       12.0110           0
     22800 LPSA21   14       ARHM     H61      HCA3     0.900000E-01   1.00800           0
     22801 LPSA21   14       ARHM     H62      HCA3     0.900000E-01   1.00800           0
     22802 LPSA21   14       ARHM     H63      HCA3     0.900000E-01   1.00800           0
     22803 LPSA21   15       ARHM     C1       CC3162   0.290000       12.0110           0
     22804 LPSA21   15       ARHM     H1       HCA1     0.900000E-01   1.00800           0
     22805 LPSA21   15       ARHM     C5       CC3163   0.110000       12.0110           0
     22806 LPSA21   15       ARHM     H5       HCA1     0.900000E-01   1.00800           0
     22807 LPSA21   15       ARHM     O5       OC3C61  -0.400000       15.9994           0
     22808 LPSA21   15       ARHM     C2       CC3161   0.900000E-01   12.0110           0
     22809 LPSA21   15       ARHM     H2       HCA1     0.900000E-01   1.00800           0
     22810 LPSA21   15       ARHM     O2       OC301   -0.360000       15.9994           0
     22811 LPSA21   15       ARHM     C3       CC3161   0.900000E-01   12.0110           0
     22812 LPSA21   15       ARHM     H3       HCA1     0.900000E-01   1.00800           0
     22813 LPSA21   15       ARHM     O3       OC301   -0.360000       15.9994           0
     22814 LPSA21   15       ARHM     C4       CC3161   0.140000       12.0110           0
     22815 LPSA21   15       ARHM     H4       HCA1     0.900000E-01   1.00800           0
     22816 LPSA21   15       ARHM     O4       OC311   -0.650000       15.9994           0
     22817 LPSA21   15       ARHM     HO4      HCP1     0.420000       1.00800           0
     22818 LPSA21   15       ARHM     C6       CC331   -0.270000       12.0110           0
     22819 LPSA21   15       ARHM     H61      HCA3     0.900000E-01   1.00800           0
     22820 LPSA21   15       ARHM     H62      HCA3     0.900000E-01   1.00800           0
     22821 LPSA21   15       ARHM     H63      HCA3     0.900000E-01   1.00800           0
     22822 LPSA21   16       BMANNA   C1       CC3162   0.290000       12.0110           0
     22823 LPSA21   16       BMANNA   H1       HCA1     0.900000E-01   1.00800           0
     22824 LPSA21   16       BMANNA   C5       CC3163   0.110000       12.0110           0
     22825 LPSA21   16       BMANNA   H5       HCA1     0.900000E-01   1.00800           0
     22826 LPSA21   16       BMANNA   O5       OC3C61  -0.400000       15.9994           0
     22827 LPSA21   16       BMANNA   C2       CC3161   0.700000E-01   12.0110           0
     22828 LPSA21   16       BMANNA   H2       HCA1     0.900000E-01   1.00800           0
     22829 LPSA21   16       BMANNA   N        NC2D1   -0.470000       14.0070           0
     22830 LPSA21   16       BMANNA   HN       HCP1     0.310000       1.00800           0
     22831 LPSA21   16       BMANNA   C        CC2O1    0.510000       12.0110           0
     22832 LPSA21   16       BMANNA   O        OC2D1   -0.510000       15.9994           0
     22833 LPSA21   16       BMANNA   CT       CC331   -0.270000       12.0110           0
     22834 LPSA21   16       BMANNA   HT1      HCA3     0.900000E-01   1.00800           0
     22835 LPSA21   16       BMANNA   HT2      HCA3     0.900000E-01   1.00800           0
     22836 LPSA21   16       BMANNA   HT3      HCA3     0.900000E-01   1.00800           0
     22837 LPSA21   16       BMANNA   C3       CC3161   0.140000       12.0110           0
     22838 LPSA21   16       BMANNA   H3       HCA1     0.900000E-01   1.00800           0
     22839 LPSA21   16       BMANNA   O3       OC311   -0.650000       15.9994           0
     22840 LPSA21   16       BMANNA   HO3      HCP1     0.420000       1.00800           0
     22841 LPSA21   16       BMANNA   C4       CC3161   0.140000       12.0110           0
     22842 LPSA21   16       BMANNA   H4       HCA1     0.900000E-01   1.00800           0
     22843 LPSA21   16       BMANNA   O4       OC311   -0.650000       15.9994           0
     22844 LPSA21   16       BMANNA   HO4      HCP1     0.420000       1.00800           0
     22845 LPSA21   16       BMANNA   C6       CC321    0.500000E-01   12.0110           0
     22846 LPSA21   16       BMANNA   H61      HCA2     0.900000E-01   1.00800           0
     22847 LPSA21   16       BMANNA   H62      HCA2     0.900000E-01   1.00800           0
     22848 LPSA21   16       BMANNA   O6       OC311   -0.650000       15.9994           0
     22849 LPSA21   16       BMANNA   HO6      HCP1     0.420000       1.00800           0
     22850 LPSA21   17       BGLCNA   C1       CC3162   0.290000       12.0110           0
     22851 LPSA21   17       BGLCNA   H1       HCA1     0.900000E-01   1.00800           0
     22852 LPSA21   17       BGLCNA   C5       CC3163   0.110000       12.0110           0
     22853 LPSA21   17       BGLCNA   H5       HCA1     0.900000E-01   1.00800           0
     22854 LPSA21   17       BGLCNA   O5       OC3C61  -0.400000       15.9994           0
     22855 LPSA21   17       BGLCNA   C2       CC3161   0.700000E-01   12.0110           0
     22856 LPSA21   17       BGLCNA   H2       HCA1     0.900000E-01   1.00800           0
     22857 LPSA21   17       BGLCNA   N        NC2D1   -0.470000       14.0070           0
     22858 LPSA21   17       BGLCNA   HN       HCP1     0.310000       1.00800           0
     22859 LPSA21   17       BGLCNA   C        CC2O1    0.510000       12.0110           0
     22860 LPSA21   17       BGLCNA   O        OC2D1   -0.510000       15.9994           0
     22861 LPSA21   17       BGLCNA   CT       CC331   -0.270000       12.0110           0
     22862 LPSA21   17       BGLCNA   HT1      HCA3     0.900000E-01   1.00800           0
     22863 LPSA21   17       BGLCNA   HT2      HCA3     0.900000E-01   1.00800           0
     22864 LPSA21   17       BGLCNA   HT3      HCA3     0.900000E-01   1.00800           0
     22865 LPSA21   17       BGLCNA   C3       CC3161   0.900000E-01   12.0110           0
     22866 LPSA21   17       BGLCNA   H3       HCA1     0.900000E-01   1.00800           0
     22867 LPSA21   17       BGLCNA   O3       OC301   -0.360000       15.9994           0
     22868 LPSA21   17       BGLCNA   C4       CC3161   0.140000       12.0110           0
     22869 LPSA21   17       BGLCNA   H4       HCA1     0.900000E-01   1.00800           0
     22870 LPSA21   17       BGLCNA   O4       OC311   -0.650000       15.9994           0
     22871 LPSA21   17       BGLCNA   HO4      HCP1     0.420000       1.00800           0
     22872 LPSA21   17       BGLCNA   C6       CC321    0.500000E-01   12.0110           0
     22873 LPSA21   17       BGLCNA   H61      HCA2     0.900000E-01   1.00800           0
     22874 LPSA21   17       BGLCNA   H62      HCA2     0.900000E-01   1.00800           0
     22875 LPSA21   17       BGLCNA   O6       OC311   -0.650000       15.9994           0
     22876 LPSA21   17       BGLCNA   HO6      HCP1     0.420000       1.00800           0
     22877 LPSA21   18       AGAL     C1       CC3162   0.290000       12.0110           0
     22878 LPSA21   18       AGAL     H1       HCA1     0.900000E-01   1.00800           0
     22879 LPSA21   18       AGAL     C5       CC3163   0.110000       12.0110           0
     22880 LPSA21   18       AGAL     H5       HCA1     0.900000E-01   1.00800           0
     22881 LPSA21   18       AGAL     O5       OC3C61  -0.400000       15.9994           0
     22882 LPSA21   18       AGAL     C2       CC3161   0.900000E-01   12.0110           0
     22883 LPSA21   18       AGAL     H2       HCA1     0.900000E-01   1.00800           0
     22884 LPSA21   18       AGAL     O2       OC301   -0.360000       15.9994           0
     22885 LPSA21   18       AGAL     C3       CC3161   0.140000       12.0110           0
     22886 LPSA21   18       AGAL     H3       HCA1     0.900000E-01   1.00800           0
     22887 LPSA21   18       AGAL     O3       OC311   -0.650000       15.9994           0
     22888 LPSA21   18       AGAL     HO3      HCP1     0.420000       1.00800           0
     22889 LPSA21   18       AGAL     C4       CC3161   0.140000       12.0110           0
     22890 LPSA21   18       AGAL     H4       HCA1     0.900000E-01   1.00800           0
     22891 LPSA21   18       AGAL     O4       OC311   -0.650000       15.9994           0
     22892 LPSA21   18       AGAL     HO4      HCP1     0.420000       1.00800           0
     22893 LPSA21   18       AGAL     C6       CC321    0.500000E-01   12.0110           0
     22894 LPSA21   18       AGAL     H61      HCA2     0.900000E-01   1.00800           0
     22895 LPSA21   18       AGAL     H62      HCA2     0.900000E-01   1.00800           0
     22896 LPSA21   18       AGAL     O6       OC311   -0.650000       15.9994           0
     22897 LPSA21   18       AGAL     HO6      HCP1     0.420000       1.00800           0
     22898 LPSA21   19       ARHM     C1       CC3162   0.290000       12.0110           0
     22899 LPSA21   19       ARHM     H1       HCA1     0.900000E-01   1.00800           0
     22900 LPSA21   19       ARHM     C5       CC3163   0.110000       12.0110           0
     22901 LPSA21   19       ARHM     H5       HCA1     0.900000E-01   1.00800           0
     22902 LPSA21   19       ARHM     O5       OC3C61  -0.400000       15.9994           0
     22903 LPSA21   19       ARHM     C2       CC3161   0.900000E-01   12.0110           0
     22904 LPSA21   19       ARHM     H2       HCA1     0.900000E-01   1.00800           0
     22905 LPSA21   19       ARHM     O2       OC301   -0.360000       15.9994           0
     22906 LPSA21   19       ARHM     C3       CC3161   0.140000       12.0110           0
     22907 LPSA21   19       ARHM     H3       HCA1     0.900000E-01   1.00800           0
     22908 LPSA21   19       ARHM     O3       OC311   -0.650000       15.9994           0
     22909 LPSA21   19       ARHM     HO3      HCP1     0.420000       1.00800           0
     22910 LPSA21   19       ARHM     C4       CC3161   0.140000       12.0110           0
     22911 LPSA21   19       ARHM     H4       HCA1     0.900000E-01   1.00800           0
     22912 LPSA21   19       ARHM     O4       OC311   -0.650000       15.9994           0
     22913 LPSA21   19       ARHM     HO4      HCP1     0.420000       1.00800           0
     22914 LPSA21   19       ARHM     C6       CC331   -0.270000       12.0110           0
     22915 LPSA21   19       ARHM     H61      HCA3     0.900000E-01   1.00800           0
     22916 LPSA21   19       ARHM     H62      HCA3     0.900000E-01   1.00800           0
     22917 LPSA21   19       ARHM     H63      HCA3     0.900000E-01   1.00800           0
     22918 LPSA21   20       ARHM     C1       CC3162   0.290000       12.0110           0
     22919 LPSA21   20       ARHM     H1       HCA1     0.900000E-01   1.00800           0
     22920 LPSA21   20       ARHM     C5       CC3163   0.110000       12.0110           0
     22921 LPSA21   20       ARHM     H5       HCA1     0.900000E-01   1.00800           0
     22922 LPSA21   20       ARHM     O5       OC3C61  -0.400000       15.9994           0
     22923 LPSA21   20       ARHM     C2       CC3161   0.900000E-01   12.0110           0
     22924 LPSA21   20       ARHM     H2       HCA1     0.900000E-01   1.00800           0
     22925 LPSA21   20       ARHM     O2       OC301   -0.360000       15.9994           0
     22926 LPSA21   20       ARHM     C3       CC3161   0.900000E-01   12.0110           0
     22927 LPSA21   20       ARHM     H3       HCA1     0.900000E-01   1.00800           0
     22928 LPSA21   20       ARHM     O3       OC301   -0.360000       15.9994           0
     22929 LPSA21   20       ARHM     C4       CC3161   0.140000       12.0110           0
     22930 LPSA21   20       ARHM     H4       HCA1     0.900000E-01   1.00800           0
     22931 LPSA21   20       ARHM     O4       OC311   -0.650000       15.9994           0
     22932 LPSA21   20       ARHM     HO4      HCP1     0.420000       1.00800           0
     22933 LPSA21   20       ARHM     C6       CC331   -0.270000       12.0110           0
     22934 LPSA21   20       ARHM     H61      HCA3     0.900000E-01   1.00800           0
     22935 LPSA21   20       ARHM     H62      HCA3     0.900000E-01   1.00800           0
     22936 LPSA21   20       ARHM     H63      HCA3     0.900000E-01   1.00800           0
     22937 LPSA21   21       BMANNA   C1       CC3162   0.290000       12.0110           0
     22938 LPSA21   21       BMANNA   H1       HCA1     0.900000E-01   1.00800           0
     22939 LPSA21   21       BMANNA   C5       CC3163   0.110000       12.0110           0
     22940 LPSA21   21       BMANNA   H5       HCA1     0.900000E-01   1.00800           0
     22941 LPSA21   21       BMANNA   O5       OC3C61  -0.400000       15.9994           0
     22942 LPSA21   21       BMANNA   C2       CC3161   0.700000E-01   12.0110           0
     22943 LPSA21   21       BMANNA   H2       HCA1     0.900000E-01   1.00800           0
     22944 LPSA21   21       BMANNA   N        NC2D1   -0.470000       14.0070           0
     22945 LPSA21   21       BMANNA   HN       HCP1     0.310000       1.00800           0
     22946 LPSA21   21       BMANNA   C        CC2O1    0.510000       12.0110           0
     22947 LPSA21   21       BMANNA   O        OC2D1   -0.510000       15.9994           0
     22948 LPSA21   21       BMANNA   CT       CC331   -0.270000       12.0110           0
     22949 LPSA21   21       BMANNA   HT1      HCA3     0.900000E-01   1.00800           0
     22950 LPSA21   21       BMANNA   HT2      HCA3     0.900000E-01   1.00800           0
     22951 LPSA21   21       BMANNA   HT3      HCA3     0.900000E-01   1.00800           0
     22952 LPSA21   21       BMANNA   C3       CC3161   0.140000       12.0110           0
     22953 LPSA21   21       BMANNA   H3       HCA1     0.900000E-01   1.00800           0
     22954 LPSA21   21       BMANNA   O3       OC311   -0.650000       15.9994           0
     22955 LPSA21   21       BMANNA   HO3      HCP1     0.420000       1.00800           0
     22956 LPSA21   21       BMANNA   C4       CC3161   0.140000       12.0110           0
     22957 LPSA21   21       BMANNA   H4       HCA1     0.900000E-01   1.00800           0
     22958 LPSA21   21       BMANNA   O4       OC311   -0.650000       15.9994           0
     22959 LPSA21   21       BMANNA   HO4      HCP1     0.420000       1.00800           0
     22960 LPSA21   21       BMANNA   C6       CC321    0.500000E-01   12.0110           0
     22961 LPSA21   21       BMANNA   H61      HCA2     0.900000E-01   1.00800           0
     22962 LPSA21   21       BMANNA   H62      HCA2     0.900000E-01   1.00800           0
     22963 LPSA21   21       BMANNA   O6       OC311   -0.650000       15.9994           0
     22964 LPSA21   21       BMANNA   HO6      HCP1     0.420000       1.00800           0
     22965 LPSA21   22       BGLCNA   C1       CC3162   0.290000       12.0110           0
     22966 LPSA21   22       BGLCNA   H1       HCA1     0.900000E-01   1.00800           0
     22967 LPSA21   22       BGLCNA   C5       CC3163   0.110000       12.0110           0
     22968 LPSA21   22       BGLCNA   H5       HCA1     0.900000E-01   1.00800           0
     22969 LPSA21   22       BGLCNA   O5       OC3C61  -0.400000       15.9994           0
     22970 LPSA21   22       BGLCNA   C2       CC3161   0.700000E-01   12.0110           0
     22971 LPSA21   22       BGLCNA   H2       HCA1     0.900000E-01   1.00800           0
     22972 LPSA21   22       BGLCNA   N        NC2D1   -0.470000       14.0070           0
     22973 LPSA21   22       BGLCNA   HN       HCP1     0.310000       1.00800           0
     22974 LPSA21   22       BGLCNA   C        CC2O1    0.510000       12.0110           0
     22975 LPSA21   22       BGLCNA   O        OC2D1   -0.510000       15.9994           0
     22976 LPSA21   22       BGLCNA   CT       CC331   -0.270000       12.0110           0
     22977 LPSA21   22       BGLCNA   HT1      HCA3     0.900000E-01   1.00800           0
     22978 LPSA21   22       BGLCNA   HT2      HCA3     0.900000E-01   1.00800           0
     22979 LPSA21   22       BGLCNA   HT3      HCA3     0.900000E-01   1.00800           0
     22980 LPSA21   22       BGLCNA   C3       CC3161   0.900000E-01   12.0110           0
     22981 LPSA21   22       BGLCNA   H3       HCA1     0.900000E-01   1.00800           0
     22982 LPSA21   22       BGLCNA   O3       OC301   -0.360000       15.9994           0
     22983 LPSA21   22       BGLCNA   C4       CC3161   0.140000       12.0110           0
     22984 LPSA21   22       BGLCNA   H4       HCA1     0.900000E-01   1.00800           0
     22985 LPSA21   22       BGLCNA   O4       OC311   -0.650000       15.9994           0
     22986 LPSA21   22       BGLCNA   HO4      HCP1     0.420000       1.00800           0
     22987 LPSA21   22       BGLCNA   C6       CC321    0.500000E-01   12.0110           0
     22988 LPSA21   22       BGLCNA   H61      HCA2     0.900000E-01   1.00800           0
     22989 LPSA21   22       BGLCNA   H62      HCA2     0.900000E-01   1.00800           0
     22990 LPSA21   22       BGLCNA   O6       OC311   -0.650000       15.9994           0
     22991 LPSA21   22       BGLCNA   HO6      HCP1     0.420000       1.00800           0
     22992 LPSA21   23       AGAL     C1       CC3162   0.290000       12.0110           0
     22993 LPSA21   23       AGAL     H1       HCA1     0.900000E-01   1.00800           0
     22994 LPSA21   23       AGAL     C5       CC3163   0.110000       12.0110           0
     22995 LPSA21   23       AGAL     H5       HCA1     0.900000E-01   1.00800           0
     22996 LPSA21   23       AGAL     O5       OC3C61  -0.400000       15.9994           0
     22997 LPSA21   23       AGAL     C2       CC3161   0.900000E-01   12.0110           0
     22998 LPSA21   23       AGAL     H2       HCA1     0.900000E-01   1.00800           0
     22999 LPSA21   23       AGAL     O2       OC301   -0.360000       15.9994           0
     23000 LPSA21   23       AGAL     C3       CC3161   0.140000       12.0110           0
     23001 LPSA21   23       AGAL     H3       HCA1     0.900000E-01   1.00800           0
     23002 LPSA21   23       AGAL     O3       OC311   -0.650000       15.9994           0
     23003 LPSA21   23       AGAL     HO3      HCP1     0.420000       1.00800           0
     23004 LPSA21   23       AGAL     C4       CC3161   0.140000       12.0110           0
     23005 LPSA21   23       AGAL     H4       HCA1     0.900000E-01   1.00800           0
     23006 LPSA21   23       AGAL     O4       OC311   -0.650000       15.9994           0
     23007 LPSA21   23       AGAL     HO4      HCP1     0.420000       1.00800           0
     23008 LPSA21   23       AGAL     C6       CC321    0.500000E-01   12.0110           0
     23009 LPSA21   23       AGAL     H61      HCA2     0.900000E-01   1.00800           0
     23010 LPSA21   23       AGAL     H62      HCA2     0.900000E-01   1.00800           0
     23011 LPSA21   23       AGAL     O6       OC311   -0.650000       15.9994           0
     23012 LPSA21   23       AGAL     HO6      HCP1     0.420000       1.00800           0
     23013 LPSA21   24       ARHM     C1       CC3162   0.290000       12.0110           0
     23014 LPSA21   24       ARHM     H1       HCA1     0.900000E-01   1.00800           0
     23015 LPSA21   24       ARHM     C5       CC3163   0.110000       12.0110           0
     23016 LPSA21   24       ARHM     H5       HCA1     0.900000E-01   1.00800           0
     23017 LPSA21   24       ARHM     O5       OC3C61  -0.400000       15.9994           0
     23018 LPSA21   24       ARHM     C2       CC3161   0.900000E-01   12.0110           0
     23019 LPSA21   24       ARHM     H2       HCA1     0.900000E-01   1.00800           0
     23020 LPSA21   24       ARHM     O2       OC301   -0.360000       15.9994           0
     23021 LPSA21   24       ARHM     C3       CC3161   0.140000       12.0110           0
     23022 LPSA21   24       ARHM     H3       HCA1     0.900000E-01   1.00800           0
     23023 LPSA21   24       ARHM     O3       OC311   -0.650000       15.9994           0
     23024 LPSA21   24       ARHM     HO3      HCP1     0.420000       1.00800           0
     23025 LPSA21   24       ARHM     C4       CC3161   0.140000       12.0110           0
     23026 LPSA21   24       ARHM     H4       HCA1     0.900000E-01   1.00800           0
     23027 LPSA21   24       ARHM     O4       OC311   -0.650000       15.9994           0
     23028 LPSA21   24       ARHM     HO4      HCP1     0.420000       1.00800           0
     23029 LPSA21   24       ARHM     C6       CC331   -0.270000       12.0110           0
     23030 LPSA21   24       ARHM     H61      HCA3     0.900000E-01   1.00800           0
     23031 LPSA21   24       ARHM     H62      HCA3     0.900000E-01   1.00800           0
     23032 LPSA21   24       ARHM     H63      HCA3     0.900000E-01   1.00800           0
     23033 LPSA21   25       ARHM     C1       CC3162   0.290000       12.0110           0
     23034 LPSA21   25       ARHM     H1       HCA1     0.900000E-01   1.00800           0
     23035 LPSA21   25       ARHM     C5       CC3163   0.110000       12.0110           0
     23036 LPSA21   25       ARHM     H5       HCA1     0.900000E-01   1.00800           0
     23037 LPSA21   25       ARHM     O5       OC3C61  -0.400000       15.9994           0
     23038 LPSA21   25       ARHM     C2       CC3161   0.900000E-01   12.0110           0
     23039 LPSA21   25       ARHM     H2       HCA1     0.900000E-01   1.00800           0
     23040 LPSA21   25       ARHM     O2       OC301   -0.360000       15.9994           0
     23041 LPSA21   25       ARHM     C3       CC3161   0.900000E-01   12.0110           0
     23042 LPSA21   25       ARHM     H3       HCA1     0.900000E-01   1.00800           0
     23043 LPSA21   25       ARHM     O3       OC301   -0.360000       15.9994           0
     23044 LPSA21   25       ARHM     C4       CC3161   0.140000       12.0110           0
     23045 LPSA21   25       ARHM     H4       HCA1     0.900000E-01   1.00800           0
     23046 LPSA21   25       ARHM     O4       OC311   -0.650000       15.9994           0
     23047 LPSA21   25       ARHM     HO4      HCP1     0.420000       1.00800           0
     23048 LPSA21   25       ARHM     C6       CC331   -0.270000       12.0110           0
     23049 LPSA21   25       ARHM     H61      HCA3     0.900000E-01   1.00800           0
     23050 LPSA21   25       ARHM     H62      HCA3     0.900000E-01   1.00800           0
     23051 LPSA21   25       ARHM     H63      HCA3     0.900000E-01   1.00800           0
     23052 LPSA21   26       BMANNA   C1       CC3162   0.290000       12.0110           0
     23053 LPSA21   26       BMANNA   H1       HCA1     0.900000E-01   1.00800           0
     23054 LPSA21   26       BMANNA   C5       CC3163   0.110000       12.0110           0
     23055 LPSA21   26       BMANNA   H5       HCA1     0.900000E-01   1.00800           0
     23056 LPSA21   26       BMANNA   O5       OC3C61  -0.400000       15.9994           0
     23057 LPSA21   26       BMANNA   C2       CC3161   0.700000E-01   12.0110           0
     23058 LPSA21   26       BMANNA   H2       HCA1     0.900000E-01   1.00800           0
     23059 LPSA21   26       BMANNA   N        NC2D1   -0.470000       14.0070           0
     23060 LPSA21   26       BMANNA   HN       HCP1     0.310000       1.00800           0
     23061 LPSA21   26       BMANNA   C        CC2O1    0.510000       12.0110           0
     23062 LPSA21   26       BMANNA   O        OC2D1   -0.510000       15.9994           0
     23063 LPSA21   26       BMANNA   CT       CC331   -0.270000       12.0110           0
     23064 LPSA21   26       BMANNA   HT1      HCA3     0.900000E-01   1.00800           0
     23065 LPSA21   26       BMANNA   HT2      HCA3     0.900000E-01   1.00800           0
     23066 LPSA21   26       BMANNA   HT3      HCA3     0.900000E-01   1.00800           0
     23067 LPSA21   26       BMANNA   C3       CC3161   0.140000       12.0110           0
     23068 LPSA21   26       BMANNA   H3       HCA1     0.900000E-01   1.00800           0
     23069 LPSA21   26       BMANNA   O3       OC311   -0.650000       15.9994           0
     23070 LPSA21   26       BMANNA   HO3      HCP1     0.420000       1.00800           0
     23071 LPSA21   26       BMANNA   C4       CC3161   0.140000       12.0110           0
     23072 LPSA21   26       BMANNA   H4       HCA1     0.900000E-01   1.00800           0
     23073 LPSA21   26       BMANNA   O4       OC311   -0.650000       15.9994           0
     23074 LPSA21   26       BMANNA   HO4      HCP1     0.420000       1.00800           0
     23075 LPSA21   26       BMANNA   C6       CC321    0.500000E-01   12.0110           0
     23076 LPSA21   26       BMANNA   H61      HCA2     0.900000E-01   1.00800           0
     23077 LPSA21   26       BMANNA   H62      HCA2     0.900000E-01   1.00800           0
     23078 LPSA21   26       BMANNA   O6       OC311   -0.650000       15.9994           0
     23079 LPSA21   26       BMANNA   HO6      HCP1     0.420000       1.00800           0
     23080 LPSA21   27       BGLCNA   C1       CC3162   0.290000       12.0110           0
     23081 LPSA21   27       BGLCNA   H1       HCA1     0.900000E-01   1.00800           0
     23082 LPSA21   27       BGLCNA   C5       CC3163   0.110000       12.0110           0
     23083 LPSA21   27       BGLCNA   H5       HCA1     0.900000E-01   1.00800           0
     23084 LPSA21   27       BGLCNA   O5       OC3C61  -0.400000       15.9994           0
     23085 LPSA21   27       BGLCNA   C2       CC3161   0.700000E-01   12.0110           0
     23086 LPSA21   27       BGLCNA   H2       HCA1     0.900000E-01   1.00800           0
     23087 LPSA21   27       BGLCNA   N        NC2D1   -0.470000       14.0070           0
     23088 LPSA21   27       BGLCNA   HN       HCP1     0.310000       1.00800           0
     23089 LPSA21   27       BGLCNA   C        CC2O1    0.510000       12.0110           0
     23090 LPSA21   27       BGLCNA   O        OC2D1   -0.510000       15.9994           0
     23091 LPSA21   27       BGLCNA   CT       CC331   -0.270000       12.0110           0
     23092 LPSA21   27       BGLCNA   HT1      HCA3     0.900000E-01   1.00800           0
     23093 LPSA21   27       BGLCNA   HT2      HCA3     0.900000E-01   1.00800           0
     23094 LPSA21   27       BGLCNA   HT3      HCA3     0.900000E-01   1.00800           0
     23095 LPSA21   27       BGLCNA   C3       CC3161   0.900000E-01   12.0110           0
     23096 LPSA21   27       BGLCNA   H3       HCA1     0.900000E-01   1.00800           0
     23097 LPSA21   27       BGLCNA   O3       OC301   -0.360000       15.9994           0
     23098 LPSA21   27       BGLCNA   C4       CC3161   0.140000       12.0110           0
     23099 LPSA21   27       BGLCNA   H4       HCA1     0.900000E-01   1.00800           0
     23100 LPSA21   27       BGLCNA   O4       OC311   -0.650000       15.9994           0
     23101 LPSA21   27       BGLCNA   HO4      HCP1     0.420000       1.00800           0
     23102 LPSA21   27       BGLCNA   C6       CC321    0.500000E-01   12.0110           0
     23103 LPSA21   27       BGLCNA   H61      HCA2     0.900000E-01   1.00800           0
     23104 LPSA21   27       BGLCNA   H62      HCA2     0.900000E-01   1.00800           0
     23105 LPSA21   27       BGLCNA   O6       OC311   -0.650000       15.9994           0
     23106 LPSA21   27       BGLCNA   HO6      HCP1     0.420000       1.00800           0
     23107 LPSA21   28       AGAL     C1       CC3162   0.290000       12.0110           0
     23108 LPSA21   28       AGAL     H1       HCA1     0.900000E-01   1.00800           0
     23109 LPSA21   28       AGAL     C5       CC3163   0.110000       12.0110           0
     23110 LPSA21   28       AGAL     H5       HCA1     0.900000E-01   1.00800           0
     23111 LPSA21   28       AGAL     O5       OC3C61  -0.400000       15.9994           0
     23112 LPSA21   28       AGAL     C2       CC3161   0.900000E-01   12.0110           0
     23113 LPSA21   28       AGAL     H2       HCA1     0.900000E-01   1.00800           0
     23114 LPSA21   28       AGAL     O2       OC301   -0.360000       15.9994           0
     23115 LPSA21   28       AGAL     C3       CC3161   0.140000       12.0110           0
     23116 LPSA21   28       AGAL     H3       HCA1     0.900000E-01   1.00800           0
     23117 LPSA21   28       AGAL     O3       OC311   -0.650000       15.9994           0
     23118 LPSA21   28       AGAL     HO3      HCP1     0.420000       1.00800           0
     23119 LPSA21   28       AGAL     C4       CC3161   0.140000       12.0110           0
     23120 LPSA21   28       AGAL     H4       HCA1     0.900000E-01   1.00800           0
     23121 LPSA21   28       AGAL     O4       OC311   -0.650000       15.9994           0
     23122 LPSA21   28       AGAL     HO4      HCP1     0.420000       1.00800           0
     23123 LPSA21   28       AGAL     C6       CC321    0.500000E-01   12.0110           0
     23124 LPSA21   28       AGAL     H61      HCA2     0.900000E-01   1.00800           0
     23125 LPSA21   28       AGAL     H62      HCA2     0.900000E-01   1.00800           0
     23126 LPSA21   28       AGAL     O6       OC311   -0.650000       15.9994           0
     23127 LPSA21   28       AGAL     HO6      HCP1     0.420000       1.00800           0
     23128 LPSA21   29       ARHM     C1       CC3162   0.290000       12.0110           0
     23129 LPSA21   29       ARHM     H1       HCA1     0.900000E-01   1.00800           0
     23130 LPSA21   29       ARHM     C5       CC3163   0.110000       12.0110           0
     23131 LPSA21   29       ARHM     H5       HCA1     0.900000E-01   1.00800           0
     23132 LPSA21   29       ARHM     O5       OC3C61  -0.400000       15.9994           0
     23133 LPSA21   29       ARHM     C2       CC3161   0.900000E-01   12.0110           0
     23134 LPSA21   29       ARHM     H2       HCA1     0.900000E-01   1.00800           0
     23135 LPSA21   29       ARHM     O2       OC301   -0.360000       15.9994           0
     23136 LPSA21   29       ARHM     C3       CC3161   0.140000       12.0110           0
     23137 LPSA21   29       ARHM     H3       HCA1     0.900000E-01   1.00800           0
     23138 LPSA21   29       ARHM     O3       OC311   -0.650000       15.9994           0
     23139 LPSA21   29       ARHM     HO3      HCP1     0.420000       1.00800           0
     23140 LPSA21   29       ARHM     C4       CC3161   0.140000       12.0110           0
     23141 LPSA21   29       ARHM     H4       HCA1     0.900000E-01   1.00800           0
     23142 LPSA21   29       ARHM     O4       OC311   -0.650000       15.9994           0
     23143 LPSA21   29       ARHM     HO4      HCP1     0.420000       1.00800           0
     23144 LPSA21   29       ARHM     C6       CC331   -0.270000       12.0110           0
     23145 LPSA21   29       ARHM     H61      HCA3     0.900000E-01   1.00800           0
     23146 LPSA21   29       ARHM     H62      HCA3     0.900000E-01   1.00800           0
     23147 LPSA21   29       ARHM     H63      HCA3     0.900000E-01   1.00800           0
     23148 LPSA21   30       ARHM     C1       CC3162   0.290000       12.0110           0
     23149 LPSA21   30       ARHM     H1       HCA1     0.900000E-01   1.00800           0
     23150 LPSA21   30       ARHM     C5       CC3163   0.110000       12.0110           0
     23151 LPSA21   30       ARHM     H5       HCA1     0.900000E-01   1.00800           0
     23152 LPSA21   30       ARHM     O5       OC3C61  -0.400000       15.9994           0
     23153 LPSA21   30       ARHM     C2       CC3161   0.900000E-01   12.0110           0
     23154 LPSA21   30       ARHM     H2       HCA1     0.900000E-01   1.00800           0
     23155 LPSA21   30       ARHM     O2       OC301   -0.360000       15.9994           0
     23156 LPSA21   30       ARHM     C3       CC3161   0.900000E-01   12.0110           0
     23157 LPSA21   30       ARHM     H3       HCA1     0.900000E-01   1.00800           0
     23158 LPSA21   30       ARHM     O3       OC301   -0.360000       15.9994           0
     23159 LPSA21   30       ARHM     C4       CC3161   0.140000       12.0110           0
     23160 LPSA21   30       ARHM     H4       HCA1     0.900000E-01   1.00800           0
     23161 LPSA21   30       ARHM     O4       OC311   -0.650000       15.9994           0
     23162 LPSA21   30       ARHM     HO4      HCP1     0.420000       1.00800           0
     23163 LPSA21   30       ARHM     C6       CC331   -0.270000       12.0110           0
     23164 LPSA21   30       ARHM     H61      HCA3     0.900000E-01   1.00800           0
     23165 LPSA21   30       ARHM     H62      HCA3     0.900000E-01   1.00800           0
     23166 LPSA21   30       ARHM     H63      HCA3     0.900000E-01   1.00800           0
     23167 LPSA21   31       BMANNA   C1       CC3162   0.290000       12.0110           0
     23168 LPSA21   31       BMANNA   H1       HCA1     0.900000E-01   1.00800           0
     23169 LPSA21   31       BMANNA   C5       CC3163   0.110000       12.0110           0
     23170 LPSA21   31       BMANNA   H5       HCA1     0.900000E-01   1.00800           0
     23171 LPSA21   31       BMANNA   O5       OC3C61  -0.400000       15.9994           0
     23172 LPSA21   31       BMANNA   C2       CC3161   0.700000E-01   12.0110           0
     23173 LPSA21   31       BMANNA   H2       HCA1     0.900000E-01   1.00800           0
     23174 LPSA21   31       BMANNA   N        NC2D1   -0.470000       14.0070           0
     23175 LPSA21   31       BMANNA   HN       HCP1     0.310000       1.00800           0
     23176 LPSA21   31       BMANNA   C        CC2O1    0.510000       12.0110           0
     23177 LPSA21   31       BMANNA   O        OC2D1   -0.510000       15.9994           0
     23178 LPSA21   31       BMANNA   CT       CC331   -0.270000       12.0110           0
     23179 LPSA21   31       BMANNA   HT1      HCA3     0.900000E-01   1.00800           0
     23180 LPSA21   31       BMANNA   HT2      HCA3     0.900000E-01   1.00800           0
     23181 LPSA21   31       BMANNA   HT3      HCA3     0.900000E-01   1.00800           0
     23182 LPSA21   31       BMANNA   C3       CC3161   0.140000       12.0110           0
     23183 LPSA21   31       BMANNA   H3       HCA1     0.900000E-01   1.00800           0
     23184 LPSA21   31       BMANNA   O3       OC311   -0.650000       15.9994           0
     23185 LPSA21   31       BMANNA   HO3      HCP1     0.420000       1.00800           0
     23186 LPSA21   31       BMANNA   C4       CC3161   0.140000       12.0110           0
     23187 LPSA21   31       BMANNA   H4       HCA1     0.900000E-01   1.00800           0
     23188 LPSA21   31       BMANNA   O4       OC311   -0.650000       15.9994           0
     23189 LPSA21   31       BMANNA   HO4      HCP1     0.420000       1.00800           0
     23190 LPSA21   31       BMANNA   C6       CC321    0.500000E-01   12.0110           0
     23191 LPSA21   31       BMANNA   H61      HCA2     0.900000E-01   1.00800           0
     23192 LPSA21   31       BMANNA   H62      HCA2     0.900000E-01   1.00800           0
     23193 LPSA21   31       BMANNA   O6       OC311   -0.650000       15.9994           0
     23194 LPSA21   31       BMANNA   HO6      HCP1     0.420000       1.00800           0
     23195 LPSA21   32       BGLCNA   C1       CC3162   0.290000       12.0110           0
     23196 LPSA21   32       BGLCNA   H1       HCA1     0.900000E-01   1.00800           0
     23197 LPSA21   32       BGLCNA   C5       CC3163   0.110000       12.0110           0
     23198 LPSA21   32       BGLCNA   H5       HCA1     0.900000E-01   1.00800           0
     23199 LPSA21   32       BGLCNA   O5       OC3C61  -0.400000       15.9994           0
     23200 LPSA21   32       BGLCNA   C2       CC3161   0.700000E-01   12.0110           0
     23201 LPSA21   32       BGLCNA   H2       HCA1     0.900000E-01   1.00800           0
     23202 LPSA21   32       BGLCNA   N        NC2D1   -0.470000       14.0070           0
     23203 LPSA21   32       BGLCNA   HN       HCP1     0.310000       1.00800           0
     23204 LPSA21   32       BGLCNA   C        CC2O1    0.510000       12.0110           0
     23205 LPSA21   32       BGLCNA   O        OC2D1   -0.510000       15.9994           0
     23206 LPSA21   32       BGLCNA   CT       CC331   -0.270000       12.0110           0
     23207 LPSA21   32       BGLCNA   HT1      HCA3     0.900000E-01   1.00800           0
     23208 LPSA21   32       BGLCNA   HT2      HCA3     0.900000E-01   1.00800           0
     23209 LPSA21   32       BGLCNA   HT3      HCA3     0.900000E-01   1.00800           0
     23210 LPSA21   32       BGLCNA   C3       CC3161   0.900000E-01   12.0110           0
     23211 LPSA21   32       BGLCNA   H3       HCA1     0.900000E-01   1.00800           0
     23212 LPSA21   32       BGLCNA   O3       OC301   -0.360000       15.9994           0
     23213 LPSA21   32       BGLCNA   C4       CC3161   0.140000       12.0110           0
     23214 LPSA21   32       BGLCNA   H4       HCA1     0.900000E-01   1.00800           0
     23215 LPSA21   32       BGLCNA   O4       OC311   -0.650000       15.9994           0
     23216 LPSA21   32       BGLCNA   HO4      HCP1     0.420000       1.00800           0
     23217 LPSA21   32       BGLCNA   C6       CC321    0.500000E-01   12.0110           0
     23218 LPSA21   32       BGLCNA   H61      HCA2     0.900000E-01   1.00800           0
     23219 LPSA21   32       BGLCNA   H62      HCA2     0.900000E-01   1.00800           0
     23220 LPSA21   32       BGLCNA   O6       OC311   -0.650000       15.9994           0
     23221 LPSA21   32       BGLCNA   HO6      HCP1     0.420000       1.00800           0
     23222 LPSA21   33       AGAL     C1       CC3162   0.290000       12.0110           0
     23223 LPSA21   33       AGAL     H1       HCA1     0.900000E-01   1.00800           0
     23224 LPSA21   33       AGAL     C5       CC3163   0.110000       12.0110           0
     23225 LPSA21   33       AGAL     H5       HCA1     0.900000E-01   1.00800           0
     23226 LPSA21   33       AGAL     O5       OC3C61  -0.400000       15.9994           0
     23227 LPSA21   33       AGAL     C2       CC3161   0.900000E-01   12.0110           0
     23228 LPSA21   33       AGAL     H2       HCA1     0.900000E-01   1.00800           0
     23229 LPSA21   33       AGAL     O2       OC301   -0.360000       15.9994           0
     23230 LPSA21   33       AGAL     C3       CC3161   0.140000       12.0110           0
     23231 LPSA21   33       AGAL     H3       HCA1     0.900000E-01   1.00800           0
     23232 LPSA21   33       AGAL     O3       OC311   -0.650000       15.9994           0
     23233 LPSA21   33       AGAL     HO3      HCP1     0.420000       1.00800           0
     23234 LPSA21   33       AGAL     C4       CC3161   0.140000       12.0110           0
     23235 LPSA21   33       AGAL     H4       HCA1     0.900000E-01   1.00800           0
     23236 LPSA21   33       AGAL     O4       OC311   -0.650000       15.9994           0
     23237 LPSA21   33       AGAL     HO4      HCP1     0.420000       1.00800           0
     23238 LPSA21   33       AGAL     C6       CC321    0.500000E-01   12.0110           0
     23239 LPSA21   33       AGAL     H61      HCA2     0.900000E-01   1.00800           0
     23240 LPSA21   33       AGAL     H62      HCA2     0.900000E-01   1.00800           0
     23241 LPSA21   33       AGAL     O6       OC311   -0.650000       15.9994           0
     23242 LPSA21   33       AGAL     HO6      HCP1     0.420000       1.00800           0
     23243 LPSA21   34       ARHM     C1       CC3162   0.290000       12.0110           0
     23244 LPSA21   34       ARHM     H1       HCA1     0.900000E-01   1.00800           0
     23245 LPSA21   34       ARHM     C5       CC3163   0.110000       12.0110           0
     23246 LPSA21   34       ARHM     H5       HCA1     0.900000E-01   1.00800           0
     23247 LPSA21   34       ARHM     O5       OC3C61  -0.400000       15.9994           0
     23248 LPSA21   34       ARHM     C2       CC3161   0.900000E-01   12.0110           0
     23249 LPSA21   34       ARHM     H2       HCA1     0.900000E-01   1.00800           0
     23250 LPSA21   34       ARHM     O2       OC301   -0.360000       15.9994           0
     23251 LPSA21   34       ARHM     C3       CC3161   0.140000       12.0110           0
     23252 LPSA21   34       ARHM     H3       HCA1     0.900000E-01   1.00800           0
     23253 LPSA21   34       ARHM     O3       OC311   -0.650000       15.9994           0
     23254 LPSA21   34       ARHM     HO3      HCP1     0.420000       1.00800           0
     23255 LPSA21   34       ARHM     C4       CC3161   0.140000       12.0110           0
     23256 LPSA21   34       ARHM     H4       HCA1     0.900000E-01   1.00800           0
     23257 LPSA21   34       ARHM     O4       OC311   -0.650000       15.9994           0
     23258 LPSA21   34       ARHM     HO4      HCP1     0.420000       1.00800           0
     23259 LPSA21   34       ARHM     C6       CC331   -0.270000       12.0110           0
     23260 LPSA21   34       ARHM     H61      HCA3     0.900000E-01   1.00800           0
     23261 LPSA21   34       ARHM     H62      HCA3     0.900000E-01   1.00800           0
     23262 LPSA21   34       ARHM     H63      HCA3     0.900000E-01   1.00800           0
     23263 LPSA21   35       ARHM     C1       CC3162   0.290000       12.0110           0
     23264 LPSA21   35       ARHM     H1       HCA1     0.900000E-01   1.00800           0
     23265 LPSA21   35       ARHM     C5       CC3163   0.110000       12.0110           0
     23266 LPSA21   35       ARHM     H5       HCA1     0.900000E-01   1.00800           0
     23267 LPSA21   35       ARHM     O5       OC3C61  -0.400000       15.9994           0
     23268 LPSA21   35       ARHM     C2       CC3161   0.900000E-01   12.0110           0
     23269 LPSA21   35       ARHM     H2       HCA1     0.900000E-01   1.00800           0
     23270 LPSA21   35       ARHM     O2       OC301   -0.360000       15.9994           0
     23271 LPSA21   35       ARHM     C3       CC3161   0.140000       12.0110           0
     23272 LPSA21   35       ARHM     H3       HCA1     0.900000E-01   1.00800           0
     23273 LPSA21   35       ARHM     O3       OC311   -0.650000       15.9994           0
     23274 LPSA21   35       ARHM     HO3      HCP1     0.420000       1.00800           0
     23275 LPSA21   35       ARHM     C4       CC3161   0.140000       12.0110           0
     23276 LPSA21   35       ARHM     H4       HCA1     0.900000E-01   1.00800           0
     23277 LPSA21   35       ARHM     O4       OC311   -0.650000       15.9994           0
     23278 LPSA21   35       ARHM     HO4      HCP1     0.420000       1.00800           0
     23279 LPSA21   35       ARHM     C6       CC331   -0.270000       12.0110           0
     23280 LPSA21   35       ARHM     H61      HCA3     0.900000E-01   1.00800           0
     23281 LPSA21   35       ARHM     H62      HCA3     0.900000E-01   1.00800           0
     23282 LPSA21   35       ARHM     H63      HCA3     0.900000E-01   1.00800           0
     23283 LPSA21   36       BMANNA   C1       CC3162   0.290000       12.0110           0
     23284 LPSA21   36       BMANNA   H1       HCA1     0.900000E-01   1.00800           0
     23285 LPSA21   36       BMANNA   C5       CC3163   0.110000       12.0110           0
     23286 LPSA21   36       BMANNA   H5       HCA1     0.900000E-01   1.00800           0
     23287 LPSA21   36       BMANNA   O5       OC3C61  -0.400000       15.9994           0
     23288 LPSA21   36       BMANNA   C2       CC3161   0.700000E-01   12.0110           0
     23289 LPSA21   36       BMANNA   H2       HCA1     0.900000E-01   1.00800           0
     23290 LPSA21   36       BMANNA   N        NC2D1   -0.470000       14.0070           0
     23291 LPSA21   36       BMANNA   HN       HCP1     0.310000       1.00800           0
     23292 LPSA21   36       BMANNA   C        CC2O1    0.510000       12.0110           0
     23293 LPSA21   36       BMANNA   O        OC2D1   -0.510000       15.9994           0
     23294 LPSA21   36       BMANNA   CT       CC331   -0.270000       12.0110           0
     23295 LPSA21   36       BMANNA   HT1      HCA3     0.900000E-01   1.00800           0
     23296 LPSA21   36       BMANNA   HT2      HCA3     0.900000E-01   1.00800           0
     23297 LPSA21   36       BMANNA   HT3      HCA3     0.900000E-01   1.00800           0
     23298 LPSA21   36       BMANNA   C3       CC3161   0.140000       12.0110           0
     23299 LPSA21   36       BMANNA   H3       HCA1     0.900000E-01   1.00800           0
     23300 LPSA21   36       BMANNA   O3       OC311   -0.650000       15.9994           0
     23301 LPSA21   36       BMANNA   HO3      HCP1     0.420000       1.00800           0
     23302 LPSA21   36       BMANNA   C4       CC3161   0.140000       12.0110           0
     23303 LPSA21   36       BMANNA   H4       HCA1     0.900000E-01   1.00800           0
     23304 LPSA21   36       BMANNA   O4       OC311   -0.650000       15.9994           0
     23305 LPSA21   36       BMANNA   HO4      HCP1     0.420000       1.00800           0
     23306 LPSA21   36       BMANNA   C6       CC321    0.500000E-01   12.0110           0
     23307 LPSA21   36       BMANNA   H61      HCA2     0.900000E-01   1.00800           0
     23308 LPSA21   36       BMANNA   H62      HCA2     0.900000E-01   1.00800           0
     23309 LPSA21   36       BMANNA   O6       OC311   -0.650000       15.9994           0
     23310 LPSA21   36       BMANNA   HO6      HCP1     0.420000       1.00800           0
     23311 LPSA22   1        ECLIPA   HB6S     HCA2     0.900000E-01   1.00800           0
     23312 LPSA22   1        ECLIPA   OB6      OC301   -0.360000       15.9994           0
     23313 LPSA22   1        ECLIPA   CB6      CC321     0.00000       12.0110           0
     23314 LPSA22   1        ECLIPA   HB6R     HCA2     0.900000E-01   1.00800           0
     23315 LPSA22   1        ECLIPA   CB5      CC3163   0.110000       12.0110           0
     23316 LPSA22   1        ECLIPA   OB5      OC3C61  -0.400000       15.9994           0
     23317 LPSA22   1        ECLIPA   HB5      HCA1     0.900000E-01   1.00800           0
     23318 LPSA22   1        ECLIPA   CB1      CC3162   0.290000       12.0110           0
     23319 LPSA22   1        ECLIPA   HB1      HCA1     0.900000E-01   1.00800           0
     23320 LPSA22   1        ECLIPA   OA6      OC301   -0.360000       15.9994           0
     23321 LPSA22   1        ECLIPA   CA6      CC321     0.00000       12.0110           0
     23322 LPSA22   1        ECLIPA   HA6R     HCA2     0.900000E-01   1.00800           0
     23323 LPSA22   1        ECLIPA   HA6S     HCA2     0.900000E-01   1.00800           0
     23324 LPSA22   1        ECLIPA   CB4      CC3161  -0.900000E-01   12.0110           0
     23325 LPSA22   1        ECLIPA   HB4      HCA1     0.900000E-01   1.00800           0
     23326 LPSA22   1        ECLIPA   OB4      OC30P   -0.400000       15.9994           0
     23327 LPSA22   1        ECLIPA   PB       PC        1.10000       30.9740           0
     23328 LPSA22   1        ECLIPA   OPB4     OC2DP   -0.900000       15.9994           0
     23329 LPSA22   1        ECLIPA   OPB3     OC2DP   -0.900000       15.9994           0
     23330 LPSA22   1        ECLIPA   OPB2     OC2DP   -0.900000       15.9994           0
     23331 LPSA22   1        ECLIPA   CB3      CC3161   0.170000       12.0110           0
     23332 LPSA22   1        ECLIPA   OB3      OC301   -0.490000       15.9994           0
     23333 LPSA22   1        ECLIPA   HB3      HCA1     0.900000E-01   1.00800           0
     23334 LPSA22   1        ECLIPA   C71      CL       0.900000       12.0110           0
     23335 LPSA22   1        ECLIPA   O71      OBL     -0.630000       15.9994           0
     23336 LPSA22   1        ECLIPA   C72      CTL2    -0.220000       12.0110           0
     23337 LPSA22   1        ECLIPA   H72R     HAL2     0.900000E-01   1.00800           0
     23338 LPSA22   1        ECLIPA   H72S     HAL2     0.900000E-01   1.00800           0
     23339 LPSA22   1        ECLIPA   CB2      CC3161   0.700000E-01   12.0110           0
     23340 LPSA22   1        ECLIPA   HB2      HCA1     0.900000E-01   1.00800           0
     23341 LPSA22   1        ECLIPA   NB2      NC2D1   -0.470000       14.0070           0
     23342 LPSA22   1        ECLIPA   HNB2     HCP1     0.310000       1.00800           0
     23343 LPSA22   1        ECLIPA   CA4      CC3161   0.140000       12.0110           0
     23344 LPSA22   1        ECLIPA   HA4      HCA1     0.900000E-01   1.00800           0
     23345 LPSA22   1        ECLIPA   OA4      OC311   -0.650000       15.9994           0
     23346 LPSA22   1        ECLIPA   HOA4     HCP1     0.420000       1.00800           0
     23347 LPSA22   1        ECLIPA   CA5      CC3163   0.110000       12.0110           0
     23348 LPSA22   1        ECLIPA   HA5      HCA1     0.900000E-01   1.00800           0
     23349 LPSA22   1        ECLIPA   OA5      OC3C61  -0.400000       15.9994           0
     23350 LPSA22   1        ECLIPA   CA1      CC3162   0.110000       12.0110           0
     23351 LPSA22   1        ECLIPA   HA1      HCA1     0.900000E-01   1.00800           0
     23352 LPSA22   1        ECLIPA   OA1      OC30P   -0.400000       15.9994           0
     23353 LPSA22   1        ECLIPA   OPA2     OC2DP   -0.900000       15.9994           0
     23354 LPSA22   1        ECLIPA   OPA3     OC2DP   -0.900000       15.9994           0
     23355 LPSA22   1        ECLIPA   OPA4     OC2DP   -0.900000       15.9994           0
     23356 LPSA22   1        ECLIPA   PA       PC        1.10000       30.9740           0
     23357 LPSA22   1        ECLIPA   CA3      CC3161   0.170000       12.0110           0
     23358 LPSA22   1        ECLIPA   HA3      HCA1     0.900000E-01   1.00800           0
     23359 LPSA22   1        ECLIPA   OA3      OC301   -0.490000       15.9994           0
     23360 LPSA22   1        ECLIPA   C31      CL       0.900000       12.0110           0
     23361 LPSA22   1        ECLIPA   O31      OBL     -0.630000       15.9994           0
     23362 LPSA22   1        ECLIPA   C32      CTL2    -0.220000       12.0110           0
     23363 LPSA22   1        ECLIPA   H32R     HAL2     0.900000E-01   1.00800           0
     23364 LPSA22   1        ECLIPA   H32S     HAL2     0.900000E-01   1.00800           0
     23365 LPSA22   1        ECLIPA   CA2      CC3161   0.700000E-01   12.0110           0
     23366 LPSA22   1        ECLIPA   HA2      HCA1     0.900000E-01   1.00800           0
     23367 LPSA22   1        ECLIPA   NA2      NC2D1   -0.470000       14.0070           0
     23368 LPSA22   1        ECLIPA   HNA2     HCP1     0.310000       1.00800           0
     23369 LPSA22   1        ECLIPA   C73      CTL1     0.170000       12.0110           0
     23370 LPSA22   1        ECLIPA   H73R     HAL1     0.900000E-01   1.00800           0
     23371 LPSA22   1        ECLIPA   O73      OSL     -0.490000       15.9994           0
     23372 LPSA22   1        ECLIPA   C81      CL       0.900000       12.0110           0
     23373 LPSA22   1        ECLIPA   O81      OBL     -0.630000       15.9994           0
     23374 LPSA22   1        ECLIPA   C82      CTL2    -0.220000       12.0110           0
     23375 LPSA22   1        ECLIPA   H82R     HAL2     0.900000E-01   1.00800           0
     23376 LPSA22   1        ECLIPA   H82S     HAL2     0.900000E-01   1.00800           0
     23377 LPSA22   1        ECLIPA   C83      CTL2    -0.180000       12.0110           0
     23378 LPSA22   1        ECLIPA   H83R     HAL2     0.900000E-01   1.00800           0
     23379 LPSA22   1        ECLIPA   H83S     HAL2     0.900000E-01   1.00800           0
     23380 LPSA22   1        ECLIPA   C84      CTL2    -0.180000       12.0110           0
     23381 LPSA22   1        ECLIPA   H84R     HAL2     0.900000E-01   1.00800           0
     23382 LPSA22   1        ECLIPA   H84S     HAL2     0.900000E-01   1.00800           0
     23383 LPSA22   1        ECLIPA   C85      CTL2    -0.180000       12.0110           0
     23384 LPSA22   1        ECLIPA   H85R     HAL2     0.900000E-01   1.00800           0
     23385 LPSA22   1        ECLIPA   H85S     HAL2     0.900000E-01   1.00800           0
     23386 LPSA22   1        ECLIPA   C86      CTL2    -0.180000       12.0110           0
     23387 LPSA22   1        ECLIPA   H86R     HAL2     0.900000E-01   1.00800           0
     23388 LPSA22   1        ECLIPA   H86S     HAL2     0.900000E-01   1.00800           0
     23389 LPSA22   1        ECLIPA   C87      CTL2    -0.180000       12.0110           0
     23390 LPSA22   1        ECLIPA   H87R     HAL2     0.900000E-01   1.00800           0
     23391 LPSA22   1        ECLIPA   H87S     HAL2     0.900000E-01   1.00800           0
     23392 LPSA22   1        ECLIPA   C88      CTL2    -0.180000       12.0110           0
     23393 LPSA22   1        ECLIPA   H88R     HAL2     0.900000E-01   1.00800           0
     23394 LPSA22   1        ECLIPA   H88S     HAL2     0.900000E-01   1.00800           0
     23395 LPSA22   1        ECLIPA   C89      CTL2    -0.180000       12.0110           0
     23396 LPSA22   1        ECLIPA   H89R     HAL2     0.900000E-01   1.00800           0
     23397 LPSA22   1        ECLIPA   H89S     HAL2     0.900000E-01   1.00800           0
     23398 LPSA22   1        ECLIPA   C810     CTL2    -0.180000       12.0110           0
     23399 LPSA22   1        ECLIPA   H810R    HAL2     0.900000E-01   1.00800           0
     23400 LPSA22   1        ECLIPA   H810S    HAL2     0.900000E-01   1.00800           0
     23401 LPSA22   1        ECLIPA   C811     CTL2    -0.180000       12.0110           0
     23402 LPSA22   1        ECLIPA   H811R    HAL2     0.900000E-01   1.00800           0
     23403 LPSA22   1        ECLIPA   H811S    HAL2     0.900000E-01   1.00800           0
     23404 LPSA22   1        ECLIPA   C812     CTL2    -0.180000       12.0110           0
     23405 LPSA22   1        ECLIPA   H812R    HAL2     0.900000E-01   1.00800           0
     23406 LPSA22   1        ECLIPA   H812S    HAL2     0.900000E-01   1.00800           0
     23407 LPSA22   1        ECLIPA   C813     CTL2    -0.180000       12.0110           0
     23408 LPSA22   1        ECLIPA   H813R    HAL2     0.900000E-01   1.00800           0
     23409 LPSA22   1        ECLIPA   H813S    HAL2     0.900000E-01   1.00800           0
     23410 LPSA22   1        ECLIPA   C814     CTL3    -0.270000       12.0110           0
     23411 LPSA22   1        ECLIPA   H814R    HAL3     0.900000E-01   1.00800           0
     23412 LPSA22   1        ECLIPA   H814S    HAL3     0.900000E-01   1.00800           0
     23413 LPSA22   1        ECLIPA   H814T    HAL3     0.900000E-01   1.00800           0
     23414 LPSA22   1        ECLIPA   C74      CTL2    -0.180000       12.0110           0
     23415 LPSA22   1        ECLIPA   H74R     HAL2     0.900000E-01   1.00800           0
     23416 LPSA22   1        ECLIPA   H74S     HAL2     0.900000E-01   1.00800           0
     23417 LPSA22   1        ECLIPA   C75      CTL2    -0.180000       12.0110           0
     23418 LPSA22   1        ECLIPA   H75R     HAL2     0.900000E-01   1.00800           0
     23419 LPSA22   1        ECLIPA   H75S     HAL2     0.900000E-01   1.00800           0
     23420 LPSA22   1        ECLIPA   C76      CTL2    -0.180000       12.0110           0
     23421 LPSA22   1        ECLIPA   H76R     HAL2     0.900000E-01   1.00800           0
     23422 LPSA22   1        ECLIPA   H76S     HAL2     0.900000E-01   1.00800           0
     23423 LPSA22   1        ECLIPA   C77      CTL2    -0.180000       12.0110           0
     23424 LPSA22   1        ECLIPA   H77R     HAL2     0.900000E-01   1.00800           0
     23425 LPSA22   1        ECLIPA   H77S     HAL2     0.900000E-01   1.00800           0
     23426 LPSA22   1        ECLIPA   C78      CTL2    -0.180000       12.0110           0
     23427 LPSA22   1        ECLIPA   H78R     HAL2     0.900000E-01   1.00800           0
     23428 LPSA22   1        ECLIPA   H78S     HAL2     0.900000E-01   1.00800           0
     23429 LPSA22   1        ECLIPA   C79      CTL2    -0.180000       12.0110           0
     23430 LPSA22   1        ECLIPA   H79R     HAL2     0.900000E-01   1.00800           0
     23431 LPSA22   1        ECLIPA   H79S     HAL2     0.900000E-01   1.00800           0
     23432 LPSA22   1        ECLIPA   C710     CTL2    -0.180000       12.0110           0
     23433 LPSA22   1        ECLIPA   H710R    HAL2     0.900000E-01   1.00800           0
     23434 LPSA22   1        ECLIPA   H710S    HAL2     0.900000E-01   1.00800           0
     23435 LPSA22   1        ECLIPA   C711     CTL2    -0.180000       12.0110           0
     23436 LPSA22   1        ECLIPA   H711R    HAL2     0.900000E-01   1.00800           0
     23437 LPSA22   1        ECLIPA   H711S    HAL2     0.900000E-01   1.00800           0
     23438 LPSA22   1        ECLIPA   C712     CTL2    -0.180000       12.0110           0
     23439 LPSA22   1        ECLIPA   H712R    HAL2     0.900000E-01   1.00800           0
     23440 LPSA22   1        ECLIPA   H712S    HAL2     0.900000E-01   1.00800           0
     23441 LPSA22   1        ECLIPA   C713     CTL2    -0.180000       12.0110           0
     23442 LPSA22   1        ECLIPA   H713R    HAL2     0.900000E-01   1.00800           0
     23443 LPSA22   1        ECLIPA   H713S    HAL2     0.900000E-01   1.00800           0
     23444 LPSA22   1        ECLIPA   C714     CTL3    -0.270000       12.0110           0
     23445 LPSA22   1        ECLIPA   H714R    HAL3     0.900000E-01   1.00800           0
     23446 LPSA22   1        ECLIPA   H714S    HAL3     0.900000E-01   1.00800           0
     23447 LPSA22   1        ECLIPA   H714T    HAL3     0.900000E-01   1.00800           0
     23448 LPSA22   1        ECLIPA   C51      CC2O1    0.550000       12.0110           0
     23449 LPSA22   1        ECLIPA   O51      OC2D1   -0.550000       15.9994           0
     23450 LPSA22   1        ECLIPA   C52      CTL2    -0.180000       12.0110           0
     23451 LPSA22   1        ECLIPA   H52R     HAL2     0.900000E-01   1.00800           0
     23452 LPSA22   1        ECLIPA   H52S     HAL2     0.900000E-01   1.00800           0
     23453 LPSA22   1        ECLIPA   C53      CTL1     0.170000       12.0110           0
     23454 LPSA22   1        ECLIPA   H53R     HAL1     0.900000E-01   1.00800           0
     23455 LPSA22   1        ECLIPA   O53      OSL     -0.490000       15.9994           0
     23456 LPSA22   1        ECLIPA   C61      CL       0.900000       12.0110           0
     23457 LPSA22   1        ECLIPA   O61      OBL     -0.630000       15.9994           0
     23458 LPSA22   1        ECLIPA   C62      CTL2    -0.220000       12.0110           0
     23459 LPSA22   1        ECLIPA   H62R     HAL2     0.900000E-01   1.00800           0
     23460 LPSA22   1        ECLIPA   H62S     HAL2     0.900000E-01   1.00800           0
     23461 LPSA22   1        ECLIPA   C63      CTL2    -0.180000       12.0110           0
     23462 LPSA22   1        ECLIPA   H63R     HAL2     0.900000E-01   1.00800           0
     23463 LPSA22   1        ECLIPA   H63S     HAL2     0.900000E-01   1.00800           0
     23464 LPSA22   1        ECLIPA   C64      CTL2    -0.180000       12.0110           0
     23465 LPSA22   1        ECLIPA   H64R     HAL2     0.900000E-01   1.00800           0
     23466 LPSA22   1        ECLIPA   H64S     HAL2     0.900000E-01   1.00800           0
     23467 LPSA22   1        ECLIPA   C65      CTL2    -0.180000       12.0110           0
     23468 LPSA22   1        ECLIPA   H65R     HAL2     0.900000E-01   1.00800           0
     23469 LPSA22   1        ECLIPA   H65S     HAL2     0.900000E-01   1.00800           0
     23470 LPSA22   1        ECLIPA   C66      CTL2    -0.180000       12.0110           0
     23471 LPSA22   1        ECLIPA   H66R     HAL2     0.900000E-01   1.00800           0
     23472 LPSA22   1        ECLIPA   H66S     HAL2     0.900000E-01   1.00800           0
     23473 LPSA22   1        ECLIPA   C67      CTL2    -0.180000       12.0110           0
     23474 LPSA22   1        ECLIPA   H67R     HAL2     0.900000E-01   1.00800           0
     23475 LPSA22   1        ECLIPA   H67S     HAL2     0.900000E-01   1.00800           0
     23476 LPSA22   1        ECLIPA   C68      CTL2    -0.180000       12.0110           0
     23477 LPSA22   1        ECLIPA   H68R     HAL2     0.900000E-01   1.00800           0
     23478 LPSA22   1        ECLIPA   H68S     HAL2     0.900000E-01   1.00800           0
     23479 LPSA22   1        ECLIPA   C69      CTL2    -0.180000       12.0110           0
     23480 LPSA22   1        ECLIPA   H69R     HAL2     0.900000E-01   1.00800           0
     23481 LPSA22   1        ECLIPA   H69S     HAL2     0.900000E-01   1.00800           0
     23482 LPSA22   1        ECLIPA   C610     CTL2    -0.180000       12.0110           0
     23483 LPSA22   1        ECLIPA   H610R    HAL2     0.900000E-01   1.00800           0
     23484 LPSA22   1        ECLIPA   H610S    HAL2     0.900000E-01   1.00800           0
     23485 LPSA22   1        ECLIPA   C611     CTL2    -0.180000       12.0110           0
     23486 LPSA22   1        ECLIPA   H611R    HAL2     0.900000E-01   1.00800           0
     23487 LPSA22   1        ECLIPA   H611S    HAL2     0.900000E-01   1.00800           0
     23488 LPSA22   1        ECLIPA   C612     CTL3    -0.270000       12.0110           0
     23489 LPSA22   1        ECLIPA   H612R    HAL3     0.900000E-01   1.00800           0
     23490 LPSA22   1        ECLIPA   H612S    HAL3     0.900000E-01   1.00800           0
     23491 LPSA22   1        ECLIPA   H612T    HAL3     0.900000E-01   1.00800           0
     23492 LPSA22   1        ECLIPA   C54      CTL2    -0.180000       12.0110           0
     23493 LPSA22   1        ECLIPA   H54R     HAL2     0.900000E-01   1.00800           0
     23494 LPSA22   1        ECLIPA   H54S     HAL2     0.900000E-01   1.00800           0
     23495 LPSA22   1        ECLIPA   C55      CTL2    -0.180000       12.0110           0
     23496 LPSA22   1        ECLIPA   H55R     HAL2     0.900000E-01   1.00800           0
     23497 LPSA22   1        ECLIPA   H55S     HAL2     0.900000E-01   1.00800           0
     23498 LPSA22   1        ECLIPA   C56      CTL2    -0.180000       12.0110           0
     23499 LPSA22   1        ECLIPA   H56R     HAL2     0.900000E-01   1.00800           0
     23500 LPSA22   1        ECLIPA   H56S     HAL2     0.900000E-01   1.00800           0
     23501 LPSA22   1        ECLIPA   C57      CTL2    -0.180000       12.0110           0
     23502 LPSA22   1        ECLIPA   H57R     HAL2     0.900000E-01   1.00800           0
     23503 LPSA22   1        ECLIPA   H57S     HAL2     0.900000E-01   1.00800           0
     23504 LPSA22   1        ECLIPA   C58      CTL2    -0.180000       12.0110           0
     23505 LPSA22   1        ECLIPA   H58R     HAL2     0.900000E-01   1.00800           0
     23506 LPSA22   1        ECLIPA   H58S     HAL2     0.900000E-01   1.00800           0
     23507 LPSA22   1        ECLIPA   C59      CTL2    -0.180000       12.0110           0
     23508 LPSA22   1        ECLIPA   H59R     HAL2     0.900000E-01   1.00800           0
     23509 LPSA22   1        ECLIPA   H59S     HAL2     0.900000E-01   1.00800           0
     23510 LPSA22   1        ECLIPA   C510     CTL2    -0.180000       12.0110           0
     23511 LPSA22   1        ECLIPA   H510R    HAL2     0.900000E-01   1.00800           0
     23512 LPSA22   1        ECLIPA   H510S    HAL2     0.900000E-01   1.00800           0
     23513 LPSA22   1        ECLIPA   C511     CTL2    -0.180000       12.0110           0
     23514 LPSA22   1        ECLIPA   H511R    HAL2     0.900000E-01   1.00800           0
     23515 LPSA22   1        ECLIPA   H511S    HAL2     0.900000E-01   1.00800           0
     23516 LPSA22   1        ECLIPA   C512     CTL2    -0.180000       12.0110           0
     23517 LPSA22   1        ECLIPA   H512R    HAL2     0.900000E-01   1.00800           0
     23518 LPSA22   1        ECLIPA   H512S    HAL2     0.900000E-01   1.00800           0
     23519 LPSA22   1        ECLIPA   C513     CTL2    -0.180000       12.0110           0
     23520 LPSA22   1        ECLIPA   H513R    HAL2     0.900000E-01   1.00800           0
     23521 LPSA22   1        ECLIPA   H513S    HAL2     0.900000E-01   1.00800           0
     23522 LPSA22   1        ECLIPA   C514     CTL3    -0.270000       12.0110           0
     23523 LPSA22   1        ECLIPA   H514R    HAL3     0.900000E-01   1.00800           0
     23524 LPSA22   1        ECLIPA   H514S    HAL3     0.900000E-01   1.00800           0
     23525 LPSA22   1        ECLIPA   H514T    HAL3     0.900000E-01   1.00800           0
     23526 LPSA22   1        ECLIPA   C33      CTL1     0.140000       12.0110           0
     23527 LPSA22   1        ECLIPA   H33R     HAL1     0.900000E-01   1.00800           0
     23528 LPSA22   1        ECLIPA   O33      OH1     -0.660000       15.9994           0
     23529 LPSA22   1        ECLIPA   HO33     H        0.430000       1.00800           0
     23530 LPSA22   1        ECLIPA   C34      CTL2    -0.180000       12.0110           0
     23531 LPSA22   1        ECLIPA   H34R     HAL2     0.900000E-01   1.00800           0
     23532 LPSA22   1        ECLIPA   H34S     HAL2     0.900000E-01   1.00800           0
     23533 LPSA22   1        ECLIPA   C35      CTL2    -0.180000       12.0110           0
     23534 LPSA22   1        ECLIPA   H35R     HAL2     0.900000E-01   1.00800           0
     23535 LPSA22   1        ECLIPA   H35S     HAL2     0.900000E-01   1.00800           0
     23536 LPSA22   1        ECLIPA   C36      CTL2    -0.180000       12.0110           0
     23537 LPSA22   1        ECLIPA   H36R     HAL2     0.900000E-01   1.00800           0
     23538 LPSA22   1        ECLIPA   H36S     HAL2     0.900000E-01   1.00800           0
     23539 LPSA22   1        ECLIPA   C37      CTL2    -0.180000       12.0110           0
     23540 LPSA22   1        ECLIPA   H37R     HAL2     0.900000E-01   1.00800           0
     23541 LPSA22   1        ECLIPA   H37S     HAL2     0.900000E-01   1.00800           0
     23542 LPSA22   1        ECLIPA   C38      CTL2    -0.180000       12.0110           0
     23543 LPSA22   1        ECLIPA   H38R     HAL2     0.900000E-01   1.00800           0
     23544 LPSA22   1        ECLIPA   H38S     HAL2     0.900000E-01   1.00800           0
     23545 LPSA22   1        ECLIPA   C39      CTL2    -0.180000       12.0110           0
     23546 LPSA22   1        ECLIPA   H39R     HAL2     0.900000E-01   1.00800           0
     23547 LPSA22   1        ECLIPA   H39S     HAL2     0.900000E-01   1.00800           0
     23548 LPSA22   1        ECLIPA   C310     CTL2    -0.180000       12.0110           0
     23549 LPSA22   1        ECLIPA   H310R    HAL2     0.900000E-01   1.00800           0
     23550 LPSA22   1        ECLIPA   H310S    HAL2     0.900000E-01   1.00800           0
     23551 LPSA22   1        ECLIPA   C311     CTL2    -0.180000       12.0110           0
     23552 LPSA22   1        ECLIPA   H311R    HAL2     0.900000E-01   1.00800           0
     23553 LPSA22   1        ECLIPA   H311S    HAL2     0.900000E-01   1.00800           0
     23554 LPSA22   1        ECLIPA   C312     CTL2    -0.180000       12.0110           0
     23555 LPSA22   1        ECLIPA   H312R    HAL2     0.900000E-01   1.00800           0
     23556 LPSA22   1        ECLIPA   H312S    HAL2     0.900000E-01   1.00800           0
     23557 LPSA22   1        ECLIPA   C313     CTL2    -0.180000       12.0110           0
     23558 LPSA22   1        ECLIPA   H313R    HAL2     0.900000E-01   1.00800           0
     23559 LPSA22   1        ECLIPA   H313S    HAL2     0.900000E-01   1.00800           0
     23560 LPSA22   1        ECLIPA   C314     CTL3    -0.270000       12.0110           0
     23561 LPSA22   1        ECLIPA   H314R    HAL3     0.900000E-01   1.00800           0
     23562 LPSA22   1        ECLIPA   H314S    HAL3     0.900000E-01   1.00800           0
     23563 LPSA22   1        ECLIPA   H314T    HAL3     0.900000E-01   1.00800           0
     23564 LPSA22   1        ECLIPA   C11      CC2O1    0.550000       12.0110           0
     23565 LPSA22   1        ECLIPA   O11      OC2D1   -0.550000       15.9994           0
     23566 LPSA22   1        ECLIPA   C12      CTL2    -0.180000       12.0110           0
     23567 LPSA22   1        ECLIPA   H12R     HAL2     0.900000E-01   1.00800           0
     23568 LPSA22   1        ECLIPA   H12S     HAL2     0.900000E-01   1.00800           0
     23569 LPSA22   1        ECLIPA   C13      CTL1     0.140000       12.0110           0
     23570 LPSA22   1        ECLIPA   H13R     HAL1     0.900000E-01   1.00800           0
     23571 LPSA22   1        ECLIPA   O13      OH1     -0.660000       15.9994           0
     23572 LPSA22   1        ECLIPA   HO13     H        0.430000       1.00800           0
     23573 LPSA22   1        ECLIPA   C14      CTL2    -0.180000       12.0110           0
     23574 LPSA22   1        ECLIPA   H14R     HAL2     0.900000E-01   1.00800           0
     23575 LPSA22   1        ECLIPA   H14S     HAL2     0.900000E-01   1.00800           0
     23576 LPSA22   1        ECLIPA   C15      CTL2    -0.180000       12.0110           0
     23577 LPSA22   1        ECLIPA   H15R     HAL2     0.900000E-01   1.00800           0
     23578 LPSA22   1        ECLIPA   H15S     HAL2     0.900000E-01   1.00800           0
     23579 LPSA22   1        ECLIPA   C16      CTL2    -0.180000       12.0110           0
     23580 LPSA22   1        ECLIPA   H16R     HAL2     0.900000E-01   1.00800           0
     23581 LPSA22   1        ECLIPA   H16S     HAL2     0.900000E-01   1.00800           0
     23582 LPSA22   1        ECLIPA   C17      CTL2    -0.180000       12.0110           0
     23583 LPSA22   1        ECLIPA   H17R     HAL2     0.900000E-01   1.00800           0
     23584 LPSA22   1        ECLIPA   H17S     HAL2     0.900000E-01   1.00800           0
     23585 LPSA22   1        ECLIPA   C18      CTL2    -0.180000       12.0110           0
     23586 LPSA22   1        ECLIPA   H18R     HAL2     0.900000E-01   1.00800           0
     23587 LPSA22   1        ECLIPA   H18S     HAL2     0.900000E-01   1.00800           0
     23588 LPSA22   1        ECLIPA   C19      CTL2    -0.180000       12.0110           0
     23589 LPSA22   1        ECLIPA   H19R     HAL2     0.900000E-01   1.00800           0
     23590 LPSA22   1        ECLIPA   H19S     HAL2     0.900000E-01   1.00800           0
     23591 LPSA22   1        ECLIPA   C110     CTL2    -0.180000       12.0110           0
     23592 LPSA22   1        ECLIPA   H110R    HAL2     0.900000E-01   1.00800           0
     23593 LPSA22   1        ECLIPA   H110S    HAL2     0.900000E-01   1.00800           0
     23594 LPSA22   1        ECLIPA   C111     CTL2    -0.180000       12.0110           0
     23595 LPSA22   1        ECLIPA   H111R    HAL2     0.900000E-01   1.00800           0
     23596 LPSA22   1        ECLIPA   H111S    HAL2     0.900000E-01   1.00800           0
     23597 LPSA22   1        ECLIPA   C112     CTL2    -0.180000       12.0110           0
     23598 LPSA22   1        ECLIPA   H112R    HAL2     0.900000E-01   1.00800           0
     23599 LPSA22   1        ECLIPA   H112S    HAL2     0.900000E-01   1.00800           0
     23600 LPSA22   1        ECLIPA   C113     CTL2    -0.180000       12.0110           0
     23601 LPSA22   1        ECLIPA   H113R    HAL2     0.900000E-01   1.00800           0
     23602 LPSA22   1        ECLIPA   H113S    HAL2     0.900000E-01   1.00800           0
     23603 LPSA22   1        ECLIPA   C114     CTL3    -0.270000       12.0110           0
     23604 LPSA22   1        ECLIPA   H114R    HAL3     0.900000E-01   1.00800           0
     23605 LPSA22   1        ECLIPA   H114S    HAL3     0.900000E-01   1.00800           0
     23606 LPSA22   1        ECLIPA   H114T    HAL3     0.900000E-01   1.00800           0
     23607 LPSA22   2        AKDO     C1       CC2O2    0.300000       12.0110           0
     23608 LPSA22   2        AKDO     O11      OC2D2   -0.600000       15.9994           0
     23609 LPSA22   2        AKDO     O12      OC2D2   -0.600000       15.9994           0
     23610 LPSA22   2        AKDO     C2       CC3062   0.280000       12.0110           0
     23611 LPSA22   2        AKDO     C6       CC3163   0.110000       12.0110           0
     23612 LPSA22   2        AKDO     H6       HCA1     0.900000E-01   1.00800           0
     23613 LPSA22   2        AKDO     O6       OC3C61  -0.400000       15.9994           0
     23614 LPSA22   2        AKDO     C3       CC3261  -0.180000       12.0110           0
     23615 LPSA22   2        AKDO     H31      HCA2     0.900000E-01   1.00800           0
     23616 LPSA22   2        AKDO     H32      HCA2     0.900000E-01   1.00800           0
     23617 LPSA22   2        AKDO     C4       CC3161   0.900000E-01   12.0110           0
     23618 LPSA22   2        AKDO     H4       HCA1     0.900000E-01   1.00800           0
     23619 LPSA22   2        AKDO     O4       OC301   -0.360000       15.9994           0
     23620 LPSA22   2        AKDO     C5       CC3161   0.900000E-01   12.0110           0
     23621 LPSA22   2        AKDO     H5       HCA1     0.900000E-01   1.00800           0
     23622 LPSA22   2        AKDO     O5       OC301   -0.360000       15.9994           0
     23623 LPSA22   2        AKDO     C7       CC312    0.140000       12.0110           0
     23624 LPSA22   2        AKDO     H7       HCA1     0.900000E-01   1.00800           0
     23625 LPSA22   2        AKDO     O7       OC311   -0.650000       15.9994           0
     23626 LPSA22   2        AKDO     HO7      HCP1     0.420000       1.00800           0
     23627 LPSA22   2        AKDO     C8       CC322    0.500000E-01   12.0110           0
     23628 LPSA22   2        AKDO     H81      HCA2     0.900000E-01   1.00800           0
     23629 LPSA22   2        AKDO     H82      HCA2     0.900000E-01   1.00800           0
     23630 LPSA22   2        AKDO     O8       OC311   -0.650000       15.9994           0
     23631 LPSA22   2        AKDO     HO8      HCP1     0.420000       1.00800           0
     23632 LPSA22   3        AKDO     C1       CC2O2    0.300000       12.0110           0
     23633 LPSA22   3        AKDO     O11      OC2D2   -0.600000       15.9994           0
     23634 LPSA22   3        AKDO     O12      OC2D2   -0.600000       15.9994           0
     23635 LPSA22   3        AKDO     C2       CC3062   0.280000       12.0110           0
     23636 LPSA22   3        AKDO     C6       CC3163   0.110000       12.0110           0
     23637 LPSA22   3        AKDO     H6       HCA1     0.900000E-01   1.00800           0
     23638 LPSA22   3        AKDO     O6       OC3C61  -0.400000       15.9994           0
     23639 LPSA22   3        AKDO     C3       CC3261  -0.180000       12.0110           0
     23640 LPSA22   3        AKDO     H31      HCA2     0.900000E-01   1.00800           0
     23641 LPSA22   3        AKDO     H32      HCA2     0.900000E-01   1.00800           0
     23642 LPSA22   3        AKDO     C4       CC3161   0.140000       12.0110           0
     23643 LPSA22   3        AKDO     H4       HCA1     0.900000E-01   1.00800           0
     23644 LPSA22   3        AKDO     O4       OC311   -0.650000       15.9994           0
     23645 LPSA22   3        AKDO     HO4      HCP1     0.420000       1.00800           0
     23646 LPSA22   3        AKDO     C5       CC3161   0.140000       12.0110           0
     23647 LPSA22   3        AKDO     H5       HCA1     0.900000E-01   1.00800           0
     23648 LPSA22   3        AKDO     O5       OC311   -0.650000       15.9994           0
     23649 LPSA22   3        AKDO     HO5      HCP1     0.420000       1.00800           0
     23650 LPSA22   3        AKDO     C7       CC312    0.140000       12.0110           0
     23651 LPSA22   3        AKDO     H7       HCA1     0.900000E-01   1.00800           0
     23652 LPSA22   3        AKDO     O7       OC311   -0.650000       15.9994           0
     23653 LPSA22   3        AKDO     HO7      HCP1     0.420000       1.00800           0
     23654 LPSA22   3        AKDO     C8       CC322    0.500000E-01   12.0110           0
     23655 LPSA22   3        AKDO     H81      HCA2     0.900000E-01   1.00800           0
     23656 LPSA22   3        AKDO     H82      HCA2     0.900000E-01   1.00800           0
     23657 LPSA22   3        AKDO     O8       OC311   -0.650000       15.9994           0
     23658 LPSA22   3        AKDO     HO8      HCP1     0.420000       1.00800           0
     23659 LPSA22   4        AHEP     C1       CC3162   0.290000       12.0110           0
     23660 LPSA22   4        AHEP     H1       HCA1     0.900000E-01   1.00800           0
     23661 LPSA22   4        AHEP     C5       CC3163   0.110000       12.0110           0
     23662 LPSA22   4        AHEP     H5       HCA1     0.900000E-01   1.00800           0
     23663 LPSA22   4        AHEP     O5       OC3C61  -0.400000       15.9994           0
     23664 LPSA22   4        AHEP     C2       CC3161   0.140000       12.0110           0
     23665 LPSA22   4        AHEP     H2       HCA1     0.900000E-01   1.00800           0
     23666 LPSA22   4        AHEP     O2       OC311   -0.650000       15.9994           0
     23667 LPSA22   4        AHEP     HO2      HCP1     0.420000       1.00800           0
     23668 LPSA22   4        AHEP     C3       CC3161   0.900000E-01   12.0110           0
     23669 LPSA22   4        AHEP     H3       HCA1     0.900000E-01   1.00800           0
     23670 LPSA22   4        AHEP     O3       OC301   -0.360000       15.9994           0
     23671 LPSA22   4        AHEP     C4       CC3161  -0.900000E-01   12.0110           0
     23672 LPSA22   4        AHEP     H4       HCA1     0.900000E-01   1.00800           0
     23673 LPSA22   4        AHEP     O4       OC30P   -0.400000       15.9994           0
     23674 LPSA22   4        AHEP     P4       PC        1.10000       30.9740           0
     23675 LPSA22   4        AHEP     OP42     OC2DP   -0.900000       15.9994           0
     23676 LPSA22   4        AHEP     OP43     OC2DP   -0.900000       15.9994           0
     23677 LPSA22   4        AHEP     OP44     OC2DP   -0.900000       15.9994           0
     23678 LPSA22   4        AHEP     C6       CC312    0.140000       12.0110           0
     23679 LPSA22   4        AHEP     H6       HCA1     0.900000E-01   1.00800           0
     23680 LPSA22   4        AHEP     O6       OC311   -0.650000       15.9994           0
     23681 LPSA22   4        AHEP     HO6      HCP1     0.420000       1.00800           0
     23682 LPSA22   4        AHEP     C7       CC322    0.500000E-01   12.0110           0
     23683 LPSA22   4        AHEP     H71      HCA2     0.900000E-01   1.00800           0
     23684 LPSA22   4        AHEP     H72      HCA2     0.900000E-01   1.00800           0
     23685 LPSA22   4        AHEP     O7       OC311   -0.650000       15.9994           0
     23686 LPSA22   4        AHEP     HO7      HCP1     0.420000       1.00800           0
     23687 LPSA22   5        AHEP     C1       CC3162   0.290000       12.0110           0
     23688 LPSA22   5        AHEP     H1       HCA1     0.900000E-01   1.00800           0
     23689 LPSA22   5        AHEP     C5       CC3163   0.110000       12.0110           0
     23690 LPSA22   5        AHEP     H5       HCA1     0.900000E-01   1.00800           0
     23691 LPSA22   5        AHEP     O5       OC3C61  -0.400000       15.9994           0
     23692 LPSA22   5        AHEP     C2       CC3161   0.140000       12.0110           0
     23693 LPSA22   5        AHEP     H2       HCA1     0.900000E-01   1.00800           0
     23694 LPSA22   5        AHEP     O2       OC311   -0.650000       15.9994           0
     23695 LPSA22   5        AHEP     HO2      HCP1     0.420000       1.00800           0
     23696 LPSA22   5        AHEP     C3       CC3161   0.900000E-01   12.0110           0
     23697 LPSA22   5        AHEP     H3       HCA1     0.900000E-01   1.00800           0
     23698 LPSA22   5        AHEP     O3       OC301   -0.360000       15.9994           0
     23699 LPSA22   5        AHEP     C4       CC3161  -0.900000E-01   12.0110           0
     23700 LPSA22   5        AHEP     H4       HCA1     0.900000E-01   1.00800           0
     23701 LPSA22   5        AHEP     O4       OC30P   -0.400000       15.9994           0
     23702 LPSA22   5        AHEP     P4       PC        1.10000       30.9740           0
     23703 LPSA22   5        AHEP     OP42     OC2DP   -0.900000       15.9994           0
     23704 LPSA22   5        AHEP     OP43     OC2DP   -0.900000       15.9994           0
     23705 LPSA22   5        AHEP     OP44     OC2DP   -0.900000       15.9994           0
     23706 LPSA22   5        AHEP     C6       CC312    0.140000       12.0110           0
     23707 LPSA22   5        AHEP     H6       HCA1     0.900000E-01   1.00800           0
     23708 LPSA22   5        AHEP     O6       OC311   -0.650000       15.9994           0
     23709 LPSA22   5        AHEP     HO6      HCP1     0.420000       1.00800           0
     23710 LPSA22   5        AHEP     C7       CC322     0.00000       12.0110           0
     23711 LPSA22   5        AHEP     H71      HCA2     0.900000E-01   1.00800           0
     23712 LPSA22   5        AHEP     H72      HCA2     0.900000E-01   1.00800           0
     23713 LPSA22   5        AHEP     O7       OC301   -0.360000       15.9994           0
     23714 LPSA22   6        AHEP     C1       CC3162   0.290000       12.0110           0
     23715 LPSA22   6        AHEP     H1       HCA1     0.900000E-01   1.00800           0
     23716 LPSA22   6        AHEP     C5       CC3163   0.110000       12.0110           0
     23717 LPSA22   6        AHEP     H5       HCA1     0.900000E-01   1.00800           0
     23718 LPSA22   6        AHEP     O5       OC3C61  -0.400000       15.9994           0
     23719 LPSA22   6        AHEP     C2       CC3161   0.140000       12.0110           0
     23720 LPSA22   6        AHEP     H2       HCA1     0.900000E-01   1.00800           0
     23721 LPSA22   6        AHEP     O2       OC311   -0.650000       15.9994           0
     23722 LPSA22   6        AHEP     HO2      HCP1     0.420000       1.00800           0
     23723 LPSA22   6        AHEP     C3       CC3161   0.140000       12.0110           0
     23724 LPSA22   6        AHEP     H3       HCA1     0.900000E-01   1.00800           0
     23725 LPSA22   6        AHEP     O3       OC311   -0.650000       15.9994           0
     23726 LPSA22   6        AHEP     HO3      HCP1     0.420000       1.00800           0
     23727 LPSA22   6        AHEP     C4       CC3161   0.140000       12.0110           0
     23728 LPSA22   6        AHEP     H4       HCA1     0.900000E-01   1.00800           0
     23729 LPSA22   6        AHEP     O4       OC311   -0.650000       15.9994           0
     23730 LPSA22   6        AHEP     HO4      HCP1     0.420000       1.00800           0
     23731 LPSA22   6        AHEP     C6       CC312    0.140000       12.0110           0
     23732 LPSA22   6        AHEP     H6       HCA1     0.900000E-01   1.00800           0
     23733 LPSA22   6        AHEP     O6       OC311   -0.650000       15.9994           0
     23734 LPSA22   6        AHEP     HO6      HCP1     0.420000       1.00800           0
     23735 LPSA22   6        AHEP     C7       CC322    0.500000E-01   12.0110           0
     23736 LPSA22   6        AHEP     H71      HCA2     0.900000E-01   1.00800           0
     23737 LPSA22   6        AHEP     H72      HCA2     0.900000E-01   1.00800           0
     23738 LPSA22   6        AHEP     O7       OC311   -0.650000       15.9994           0
     23739 LPSA22   6        AHEP     HO7      HCP1     0.420000       1.00800           0
     23740 LPSA22   7        AGLC     C1       CC3162   0.290000       12.0110           0
     23741 LPSA22   7        AGLC     H1       HCA1     0.900000E-01   1.00800           0
     23742 LPSA22   7        AGLC     C5       CC3163   0.110000       12.0110           0
     23743 LPSA22   7        AGLC     H5       HCA1     0.900000E-01   1.00800           0
     23744 LPSA22   7        AGLC     O5       OC3C61  -0.400000       15.9994           0
     23745 LPSA22   7        AGLC     C2       CC3161   0.140000       12.0110           0
     23746 LPSA22   7        AGLC     H2       HCA1     0.900000E-01   1.00800           0
     23747 LPSA22   7        AGLC     O2       OC311   -0.650000       15.9994           0
     23748 LPSA22   7        AGLC     HO2      HCP1     0.420000       1.00800           0
     23749 LPSA22   7        AGLC     C3       CC3161   0.900000E-01   12.0110           0
     23750 LPSA22   7        AGLC     H3       HCA1     0.900000E-01   1.00800           0
     23751 LPSA22   7        AGLC     O3       OC301   -0.360000       15.9994           0
     23752 LPSA22   7        AGLC     C4       CC3161   0.140000       12.0110           0
     23753 LPSA22   7        AGLC     H4       HCA1     0.900000E-01   1.00800           0
     23754 LPSA22   7        AGLC     O4       OC311   -0.650000       15.9994           0
     23755 LPSA22   7        AGLC     HO4      HCP1     0.420000       1.00800           0
     23756 LPSA22   7        AGLC     C6       CC321    0.500000E-01   12.0110           0
     23757 LPSA22   7        AGLC     H61      HCA2     0.900000E-01   1.00800           0
     23758 LPSA22   7        AGLC     H62      HCA2     0.900000E-01   1.00800           0
     23759 LPSA22   7        AGLC     O6       OC311   -0.650000       15.9994           0
     23760 LPSA22   7        AGLC     HO6      HCP1     0.420000       1.00800           0
     23761 LPSA22   8        AGLC     C1       CC3162   0.290000       12.0110           0
     23762 LPSA22   8        AGLC     H1       HCA1     0.900000E-01   1.00800           0
     23763 LPSA22   8        AGLC     C5       CC3163   0.110000       12.0110           0
     23764 LPSA22   8        AGLC     H5       HCA1     0.900000E-01   1.00800           0
     23765 LPSA22   8        AGLC     O5       OC3C61  -0.400000       15.9994           0
     23766 LPSA22   8        AGLC     C2       CC3161   0.900000E-01   12.0110           0
     23767 LPSA22   8        AGLC     H2       HCA1     0.900000E-01   1.00800           0
     23768 LPSA22   8        AGLC     O2       OC301   -0.360000       15.9994           0
     23769 LPSA22   8        AGLC     C3       CC3161   0.900000E-01   12.0110           0
     23770 LPSA22   8        AGLC     H3       HCA1     0.900000E-01   1.00800           0
     23771 LPSA22   8        AGLC     O3       OC301   -0.360000       15.9994           0
     23772 LPSA22   8        AGLC     C4       CC3161   0.140000       12.0110           0
     23773 LPSA22   8        AGLC     H4       HCA1     0.900000E-01   1.00800           0
     23774 LPSA22   8        AGLC     O4       OC311   -0.650000       15.9994           0
     23775 LPSA22   8        AGLC     HO4      HCP1     0.420000       1.00800           0
     23776 LPSA22   8        AGLC     C6       CC321    0.500000E-01   12.0110           0
     23777 LPSA22   8        AGLC     H61      HCA2     0.900000E-01   1.00800           0
     23778 LPSA22   8        AGLC     H62      HCA2     0.900000E-01   1.00800           0
     23779 LPSA22   8        AGLC     O6       OC311   -0.650000       15.9994           0
     23780 LPSA22   8        AGLC     HO6      HCP1     0.420000       1.00800           0
     23781 LPSA22   9        AGAL     C1       CC3162   0.290000       12.0110           0
     23782 LPSA22   9        AGAL     H1       HCA1     0.900000E-01   1.00800           0
     23783 LPSA22   9        AGAL     C5       CC3163   0.110000       12.0110           0
     23784 LPSA22   9        AGAL     H5       HCA1     0.900000E-01   1.00800           0
     23785 LPSA22   9        AGAL     O5       OC3C61  -0.400000       15.9994           0
     23786 LPSA22   9        AGAL     C2       CC3161   0.900000E-01   12.0110           0
     23787 LPSA22   9        AGAL     H2       HCA1     0.900000E-01   1.00800           0
     23788 LPSA22   9        AGAL     O2       OC301   -0.360000       15.9994           0
     23789 LPSA22   9        AGAL     C3       CC3161   0.140000       12.0110           0
     23790 LPSA22   9        AGAL     H3       HCA1     0.900000E-01   1.00800           0
     23791 LPSA22   9        AGAL     O3       OC311   -0.650000       15.9994           0
     23792 LPSA22   9        AGAL     HO3      HCP1     0.420000       1.00800           0
     23793 LPSA22   9        AGAL     C4       CC3161   0.140000       12.0110           0
     23794 LPSA22   9        AGAL     H4       HCA1     0.900000E-01   1.00800           0
     23795 LPSA22   9        AGAL     O4       OC311   -0.650000       15.9994           0
     23796 LPSA22   9        AGAL     HO4      HCP1     0.420000       1.00800           0
     23797 LPSA22   9        AGAL     C6       CC321    0.500000E-01   12.0110           0
     23798 LPSA22   9        AGAL     H61      HCA2     0.900000E-01   1.00800           0
     23799 LPSA22   9        AGAL     H62      HCA2     0.900000E-01   1.00800           0
     23800 LPSA22   9        AGAL     O6       OC311   -0.650000       15.9994           0
     23801 LPSA22   9        AGAL     HO6      HCP1     0.420000       1.00800           0
     23802 LPSA22   10       AGAL     C1       CC3162   0.290000       12.0110           0
     23803 LPSA22   10       AGAL     H1       HCA1     0.900000E-01   1.00800           0
     23804 LPSA22   10       AGAL     C5       CC3163   0.110000       12.0110           0
     23805 LPSA22   10       AGAL     H5       HCA1     0.900000E-01   1.00800           0
     23806 LPSA22   10       AGAL     O5       OC3C61  -0.400000       15.9994           0
     23807 LPSA22   10       AGAL     C2       CC3161   0.140000       12.0110           0
     23808 LPSA22   10       AGAL     H2       HCA1     0.900000E-01   1.00800           0
     23809 LPSA22   10       AGAL     O2       OC311   -0.650000       15.9994           0
     23810 LPSA22   10       AGAL     HO2      HCP1     0.420000       1.00800           0
     23811 LPSA22   10       AGAL     C3       CC3161   0.140000       12.0110           0
     23812 LPSA22   10       AGAL     H3       HCA1     0.900000E-01   1.00800           0
     23813 LPSA22   10       AGAL     O3       OC311   -0.650000       15.9994           0
     23814 LPSA22   10       AGAL     HO3      HCP1     0.420000       1.00800           0
     23815 LPSA22   10       AGAL     C4       CC3161   0.140000       12.0110           0
     23816 LPSA22   10       AGAL     H4       HCA1     0.900000E-01   1.00800           0
     23817 LPSA22   10       AGAL     O4       OC311   -0.650000       15.9994           0
     23818 LPSA22   10       AGAL     HO4      HCP1     0.420000       1.00800           0
     23819 LPSA22   10       AGAL     C6       CC321    0.500000E-01   12.0110           0
     23820 LPSA22   10       AGAL     H61      HCA2     0.900000E-01   1.00800           0
     23821 LPSA22   10       AGAL     H62      HCA2     0.900000E-01   1.00800           0
     23822 LPSA22   10       AGAL     O6       OC311   -0.650000       15.9994           0
     23823 LPSA22   10       AGAL     HO6      HCP1     0.420000       1.00800           0
     23824 LPSA22   11       BGLC     C1       CC3162   0.290000       12.0110           0
     23825 LPSA22   11       BGLC     H1       HCA1     0.900000E-01   1.00800           0
     23826 LPSA22   11       BGLC     C5       CC3163   0.110000       12.0110           0
     23827 LPSA22   11       BGLC     H5       HCA1     0.900000E-01   1.00800           0
     23828 LPSA22   11       BGLC     O5       OC3C61  -0.400000       15.9994           0
     23829 LPSA22   11       BGLC     C2       CC3161   0.140000       12.0110           0
     23830 LPSA22   11       BGLC     H2       HCA1     0.900000E-01   1.00800           0
     23831 LPSA22   11       BGLC     O2       OC311   -0.650000       15.9994           0
     23832 LPSA22   11       BGLC     HO2      HCP1     0.420000       1.00800           0
     23833 LPSA22   11       BGLC     C3       CC3161   0.900000E-01   12.0110           0
     23834 LPSA22   11       BGLC     H3       HCA1     0.900000E-01   1.00800           0
     23835 LPSA22   11       BGLC     O3       OC301   -0.360000       15.9994           0
     23836 LPSA22   11       BGLC     C4       CC3161   0.140000       12.0110           0
     23837 LPSA22   11       BGLC     H4       HCA1     0.900000E-01   1.00800           0
     23838 LPSA22   11       BGLC     O4       OC311   -0.650000       15.9994           0
     23839 LPSA22   11       BGLC     HO4      HCP1     0.420000       1.00800           0
     23840 LPSA22   11       BGLC     C6       CC321    0.500000E-01   12.0110           0
     23841 LPSA22   11       BGLC     H61      HCA2     0.900000E-01   1.00800           0
     23842 LPSA22   11       BGLC     H62      HCA2     0.900000E-01   1.00800           0
     23843 LPSA22   11       BGLC     O6       OC311   -0.650000       15.9994           0
     23844 LPSA22   11       BGLC     HO6      HCP1     0.420000       1.00800           0
     23845 LPSA22   12       BGLCNA   C1       CC3162   0.290000       12.0110           0
     23846 LPSA22   12       BGLCNA   H1       HCA1     0.900000E-01   1.00800           0
     23847 LPSA22   12       BGLCNA   C5       CC3163   0.110000       12.0110           0
     23848 LPSA22   12       BGLCNA   H5       HCA1     0.900000E-01   1.00800           0
     23849 LPSA22   12       BGLCNA   O5       OC3C61  -0.400000       15.9994           0
     23850 LPSA22   12       BGLCNA   C2       CC3161   0.700000E-01   12.0110           0
     23851 LPSA22   12       BGLCNA   H2       HCA1     0.900000E-01   1.00800           0
     23852 LPSA22   12       BGLCNA   N        NC2D1   -0.470000       14.0070           0
     23853 LPSA22   12       BGLCNA   HN       HCP1     0.310000       1.00800           0
     23854 LPSA22   12       BGLCNA   C        CC2O1    0.510000       12.0110           0
     23855 LPSA22   12       BGLCNA   O        OC2D1   -0.510000       15.9994           0
     23856 LPSA22   12       BGLCNA   CT       CC331   -0.270000       12.0110           0
     23857 LPSA22   12       BGLCNA   HT1      HCA3     0.900000E-01   1.00800           0
     23858 LPSA22   12       BGLCNA   HT2      HCA3     0.900000E-01   1.00800           0
     23859 LPSA22   12       BGLCNA   HT3      HCA3     0.900000E-01   1.00800           0
     23860 LPSA22   12       BGLCNA   C3       CC3161   0.900000E-01   12.0110           0
     23861 LPSA22   12       BGLCNA   H3       HCA1     0.900000E-01   1.00800           0
     23862 LPSA22   12       BGLCNA   O3       OC301   -0.360000       15.9994           0
     23863 LPSA22   12       BGLCNA   C4       CC3161   0.140000       12.0110           0
     23864 LPSA22   12       BGLCNA   H4       HCA1     0.900000E-01   1.00800           0
     23865 LPSA22   12       BGLCNA   O4       OC311   -0.650000       15.9994           0
     23866 LPSA22   12       BGLCNA   HO4      HCP1     0.420000       1.00800           0
     23867 LPSA22   12       BGLCNA   C6       CC321    0.500000E-01   12.0110           0
     23868 LPSA22   12       BGLCNA   H61      HCA2     0.900000E-01   1.00800           0
     23869 LPSA22   12       BGLCNA   H62      HCA2     0.900000E-01   1.00800           0
     23870 LPSA22   12       BGLCNA   O6       OC311   -0.650000       15.9994           0
     23871 LPSA22   12       BGLCNA   HO6      HCP1     0.420000       1.00800           0
     23872 LPSA22   13       AGAL     C1       CC3162   0.290000       12.0110           0
     23873 LPSA22   13       AGAL     H1       HCA1     0.900000E-01   1.00800           0
     23874 LPSA22   13       AGAL     C5       CC3163   0.110000       12.0110           0
     23875 LPSA22   13       AGAL     H5       HCA1     0.900000E-01   1.00800           0
     23876 LPSA22   13       AGAL     O5       OC3C61  -0.400000       15.9994           0
     23877 LPSA22   13       AGAL     C2       CC3161   0.900000E-01   12.0110           0
     23878 LPSA22   13       AGAL     H2       HCA1     0.900000E-01   1.00800           0
     23879 LPSA22   13       AGAL     O2       OC301   -0.360000       15.9994           0
     23880 LPSA22   13       AGAL     C3       CC3161   0.140000       12.0110           0
     23881 LPSA22   13       AGAL     H3       HCA1     0.900000E-01   1.00800           0
     23882 LPSA22   13       AGAL     O3       OC311   -0.650000       15.9994           0
     23883 LPSA22   13       AGAL     HO3      HCP1     0.420000       1.00800           0
     23884 LPSA22   13       AGAL     C4       CC3161   0.140000       12.0110           0
     23885 LPSA22   13       AGAL     H4       HCA1     0.900000E-01   1.00800           0
     23886 LPSA22   13       AGAL     O4       OC311   -0.650000       15.9994           0
     23887 LPSA22   13       AGAL     HO4      HCP1     0.420000       1.00800           0
     23888 LPSA22   13       AGAL     C6       CC321    0.500000E-01   12.0110           0
     23889 LPSA22   13       AGAL     H61      HCA2     0.900000E-01   1.00800           0
     23890 LPSA22   13       AGAL     H62      HCA2     0.900000E-01   1.00800           0
     23891 LPSA22   13       AGAL     O6       OC311   -0.650000       15.9994           0
     23892 LPSA22   13       AGAL     HO6      HCP1     0.420000       1.00800           0
     23893 LPSA22   14       ARHM     C1       CC3162   0.290000       12.0110           0
     23894 LPSA22   14       ARHM     H1       HCA1     0.900000E-01   1.00800           0
     23895 LPSA22   14       ARHM     C5       CC3163   0.110000       12.0110           0
     23896 LPSA22   14       ARHM     H5       HCA1     0.900000E-01   1.00800           0
     23897 LPSA22   14       ARHM     O5       OC3C61  -0.400000       15.9994           0
     23898 LPSA22   14       ARHM     C2       CC3161   0.900000E-01   12.0110           0
     23899 LPSA22   14       ARHM     H2       HCA1     0.900000E-01   1.00800           0
     23900 LPSA22   14       ARHM     O2       OC301   -0.360000       15.9994           0
     23901 LPSA22   14       ARHM     C3       CC3161   0.140000       12.0110           0
     23902 LPSA22   14       ARHM     H3       HCA1     0.900000E-01   1.00800           0
     23903 LPSA22   14       ARHM     O3       OC311   -0.650000       15.9994           0
     23904 LPSA22   14       ARHM     HO3      HCP1     0.420000       1.00800           0
     23905 LPSA22   14       ARHM     C4       CC3161   0.140000       12.0110           0
     23906 LPSA22   14       ARHM     H4       HCA1     0.900000E-01   1.00800           0
     23907 LPSA22   14       ARHM     O4       OC311   -0.650000       15.9994           0
     23908 LPSA22   14       ARHM     HO4      HCP1     0.420000       1.00800           0
     23909 LPSA22   14       ARHM     C6       CC331   -0.270000       12.0110           0
     23910 LPSA22   14       ARHM     H61      HCA3     0.900000E-01   1.00800           0
     23911 LPSA22   14       ARHM     H62      HCA3     0.900000E-01   1.00800           0
     23912 LPSA22   14       ARHM     H63      HCA3     0.900000E-01   1.00800           0
     23913 LPSA22   15       ARHM     C1       CC3162   0.290000       12.0110           0
     23914 LPSA22   15       ARHM     H1       HCA1     0.900000E-01   1.00800           0
     23915 LPSA22   15       ARHM     C5       CC3163   0.110000       12.0110           0
     23916 LPSA22   15       ARHM     H5       HCA1     0.900000E-01   1.00800           0
     23917 LPSA22   15       ARHM     O5       OC3C61  -0.400000       15.9994           0
     23918 LPSA22   15       ARHM     C2       CC3161   0.900000E-01   12.0110           0
     23919 LPSA22   15       ARHM     H2       HCA1     0.900000E-01   1.00800           0
     23920 LPSA22   15       ARHM     O2       OC301   -0.360000       15.9994           0
     23921 LPSA22   15       ARHM     C3       CC3161   0.900000E-01   12.0110           0
     23922 LPSA22   15       ARHM     H3       HCA1     0.900000E-01   1.00800           0
     23923 LPSA22   15       ARHM     O3       OC301   -0.360000       15.9994           0
     23924 LPSA22   15       ARHM     C4       CC3161   0.140000       12.0110           0
     23925 LPSA22   15       ARHM     H4       HCA1     0.900000E-01   1.00800           0
     23926 LPSA22   15       ARHM     O4       OC311   -0.650000       15.9994           0
     23927 LPSA22   15       ARHM     HO4      HCP1     0.420000       1.00800           0
     23928 LPSA22   15       ARHM     C6       CC331   -0.270000       12.0110           0
     23929 LPSA22   15       ARHM     H61      HCA3     0.900000E-01   1.00800           0
     23930 LPSA22   15       ARHM     H62      HCA3     0.900000E-01   1.00800           0
     23931 LPSA22   15       ARHM     H63      HCA3     0.900000E-01   1.00800           0
     23932 LPSA22   16       BMANNA   C1       CC3162   0.290000       12.0110           0
     23933 LPSA22   16       BMANNA   H1       HCA1     0.900000E-01   1.00800           0
     23934 LPSA22   16       BMANNA   C5       CC3163   0.110000       12.0110           0
     23935 LPSA22   16       BMANNA   H5       HCA1     0.900000E-01   1.00800           0
     23936 LPSA22   16       BMANNA   O5       OC3C61  -0.400000       15.9994           0
     23937 LPSA22   16       BMANNA   C2       CC3161   0.700000E-01   12.0110           0
     23938 LPSA22   16       BMANNA   H2       HCA1     0.900000E-01   1.00800           0
     23939 LPSA22   16       BMANNA   N        NC2D1   -0.470000       14.0070           0
     23940 LPSA22   16       BMANNA   HN       HCP1     0.310000       1.00800           0
     23941 LPSA22   16       BMANNA   C        CC2O1    0.510000       12.0110           0
     23942 LPSA22   16       BMANNA   O        OC2D1   -0.510000       15.9994           0
     23943 LPSA22   16       BMANNA   CT       CC331   -0.270000       12.0110           0
     23944 LPSA22   16       BMANNA   HT1      HCA3     0.900000E-01   1.00800           0
     23945 LPSA22   16       BMANNA   HT2      HCA3     0.900000E-01   1.00800           0
     23946 LPSA22   16       BMANNA   HT3      HCA3     0.900000E-01   1.00800           0
     23947 LPSA22   16       BMANNA   C3       CC3161   0.140000       12.0110           0
     23948 LPSA22   16       BMANNA   H3       HCA1     0.900000E-01   1.00800           0
     23949 LPSA22   16       BMANNA   O3       OC311   -0.650000       15.9994           0
     23950 LPSA22   16       BMANNA   HO3      HCP1     0.420000       1.00800           0
     23951 LPSA22   16       BMANNA   C4       CC3161   0.140000       12.0110           0
     23952 LPSA22   16       BMANNA   H4       HCA1     0.900000E-01   1.00800           0
     23953 LPSA22   16       BMANNA   O4       OC311   -0.650000       15.9994           0
     23954 LPSA22   16       BMANNA   HO4      HCP1     0.420000       1.00800           0
     23955 LPSA22   16       BMANNA   C6       CC321    0.500000E-01   12.0110           0
     23956 LPSA22   16       BMANNA   H61      HCA2     0.900000E-01   1.00800           0
     23957 LPSA22   16       BMANNA   H62      HCA2     0.900000E-01   1.00800           0
     23958 LPSA22   16       BMANNA   O6       OC311   -0.650000       15.9994           0
     23959 LPSA22   16       BMANNA   HO6      HCP1     0.420000       1.00800           0
     23960 LPSA22   17       BGLCNA   C1       CC3162   0.290000       12.0110           0
     23961 LPSA22   17       BGLCNA   H1       HCA1     0.900000E-01   1.00800           0
     23962 LPSA22   17       BGLCNA   C5       CC3163   0.110000       12.0110           0
     23963 LPSA22   17       BGLCNA   H5       HCA1     0.900000E-01   1.00800           0
     23964 LPSA22   17       BGLCNA   O5       OC3C61  -0.400000       15.9994           0
     23965 LPSA22   17       BGLCNA   C2       CC3161   0.700000E-01   12.0110           0
     23966 LPSA22   17       BGLCNA   H2       HCA1     0.900000E-01   1.00800           0
     23967 LPSA22   17       BGLCNA   N        NC2D1   -0.470000       14.0070           0
     23968 LPSA22   17       BGLCNA   HN       HCP1     0.310000       1.00800           0
     23969 LPSA22   17       BGLCNA   C        CC2O1    0.510000       12.0110           0
     23970 LPSA22   17       BGLCNA   O        OC2D1   -0.510000       15.9994           0
     23971 LPSA22   17       BGLCNA   CT       CC331   -0.270000       12.0110           0
     23972 LPSA22   17       BGLCNA   HT1      HCA3     0.900000E-01   1.00800           0
     23973 LPSA22   17       BGLCNA   HT2      HCA3     0.900000E-01   1.00800           0
     23974 LPSA22   17       BGLCNA   HT3      HCA3     0.900000E-01   1.00800           0
     23975 LPSA22   17       BGLCNA   C3       CC3161   0.900000E-01   12.0110           0
     23976 LPSA22   17       BGLCNA   H3       HCA1     0.900000E-01   1.00800           0
     23977 LPSA22   17       BGLCNA   O3       OC301   -0.360000       15.9994           0
     23978 LPSA22   17       BGLCNA   C4       CC3161   0.140000       12.0110           0
     23979 LPSA22   17       BGLCNA   H4       HCA1     0.900000E-01   1.00800           0
     23980 LPSA22   17       BGLCNA   O4       OC311   -0.650000       15.9994           0
     23981 LPSA22   17       BGLCNA   HO4      HCP1     0.420000       1.00800           0
     23982 LPSA22   17       BGLCNA   C6       CC321    0.500000E-01   12.0110           0
     23983 LPSA22   17       BGLCNA   H61      HCA2     0.900000E-01   1.00800           0
     23984 LPSA22   17       BGLCNA   H62      HCA2     0.900000E-01   1.00800           0
     23985 LPSA22   17       BGLCNA   O6       OC311   -0.650000       15.9994           0
     23986 LPSA22   17       BGLCNA   HO6      HCP1     0.420000       1.00800           0
     23987 LPSA22   18       AGAL     C1       CC3162   0.290000       12.0110           0
     23988 LPSA22   18       AGAL     H1       HCA1     0.900000E-01   1.00800           0
     23989 LPSA22   18       AGAL     C5       CC3163   0.110000       12.0110           0
     23990 LPSA22   18       AGAL     H5       HCA1     0.900000E-01   1.00800           0
     23991 LPSA22   18       AGAL     O5       OC3C61  -0.400000       15.9994           0
     23992 LPSA22   18       AGAL     C2       CC3161   0.900000E-01   12.0110           0
     23993 LPSA22   18       AGAL     H2       HCA1     0.900000E-01   1.00800           0
     23994 LPSA22   18       AGAL     O2       OC301   -0.360000       15.9994           0
     23995 LPSA22   18       AGAL     C3       CC3161   0.140000       12.0110           0
     23996 LPSA22   18       AGAL     H3       HCA1     0.900000E-01   1.00800           0
     23997 LPSA22   18       AGAL     O3       OC311   -0.650000       15.9994           0
     23998 LPSA22   18       AGAL     HO3      HCP1     0.420000       1.00800           0
     23999 LPSA22   18       AGAL     C4       CC3161   0.140000       12.0110           0
     24000 LPSA22   18       AGAL     H4       HCA1     0.900000E-01   1.00800           0
     24001 LPSA22   18       AGAL     O4       OC311   -0.650000       15.9994           0
     24002 LPSA22   18       AGAL     HO4      HCP1     0.420000       1.00800           0
     24003 LPSA22   18       AGAL     C6       CC321    0.500000E-01   12.0110           0
     24004 LPSA22   18       AGAL     H61      HCA2     0.900000E-01   1.00800           0
     24005 LPSA22   18       AGAL     H62      HCA2     0.900000E-01   1.00800           0
     24006 LPSA22   18       AGAL     O6       OC311   -0.650000       15.9994           0
     24007 LPSA22   18       AGAL     HO6      HCP1     0.420000       1.00800           0
     24008 LPSA22   19       ARHM     C1       CC3162   0.290000       12.0110           0
     24009 LPSA22   19       ARHM     H1       HCA1     0.900000E-01   1.00800           0
     24010 LPSA22   19       ARHM     C5       CC3163   0.110000       12.0110           0
     24011 LPSA22   19       ARHM     H5       HCA1     0.900000E-01   1.00800           0
     24012 LPSA22   19       ARHM     O5       OC3C61  -0.400000       15.9994           0
     24013 LPSA22   19       ARHM     C2       CC3161   0.900000E-01   12.0110           0
     24014 LPSA22   19       ARHM     H2       HCA1     0.900000E-01   1.00800           0
     24015 LPSA22   19       ARHM     O2       OC301   -0.360000       15.9994           0
     24016 LPSA22   19       ARHM     C3       CC3161   0.140000       12.0110           0
     24017 LPSA22   19       ARHM     H3       HCA1     0.900000E-01   1.00800           0
     24018 LPSA22   19       ARHM     O3       OC311   -0.650000       15.9994           0
     24019 LPSA22   19       ARHM     HO3      HCP1     0.420000       1.00800           0
     24020 LPSA22   19       ARHM     C4       CC3161   0.140000       12.0110           0
     24021 LPSA22   19       ARHM     H4       HCA1     0.900000E-01   1.00800           0
     24022 LPSA22   19       ARHM     O4       OC311   -0.650000       15.9994           0
     24023 LPSA22   19       ARHM     HO4      HCP1     0.420000       1.00800           0
     24024 LPSA22   19       ARHM     C6       CC331   -0.270000       12.0110           0
     24025 LPSA22   19       ARHM     H61      HCA3     0.900000E-01   1.00800           0
     24026 LPSA22   19       ARHM     H62      HCA3     0.900000E-01   1.00800           0
     24027 LPSA22   19       ARHM     H63      HCA3     0.900000E-01   1.00800           0
     24028 LPSA22   20       ARHM     C1       CC3162   0.290000       12.0110           0
     24029 LPSA22   20       ARHM     H1       HCA1     0.900000E-01   1.00800           0
     24030 LPSA22   20       ARHM     C5       CC3163   0.110000       12.0110           0
     24031 LPSA22   20       ARHM     H5       HCA1     0.900000E-01   1.00800           0
     24032 LPSA22   20       ARHM     O5       OC3C61  -0.400000       15.9994           0
     24033 LPSA22   20       ARHM     C2       CC3161   0.900000E-01   12.0110           0
     24034 LPSA22   20       ARHM     H2       HCA1     0.900000E-01   1.00800           0
     24035 LPSA22   20       ARHM     O2       OC301   -0.360000       15.9994           0
     24036 LPSA22   20       ARHM     C3       CC3161   0.900000E-01   12.0110           0
     24037 LPSA22   20       ARHM     H3       HCA1     0.900000E-01   1.00800           0
     24038 LPSA22   20       ARHM     O3       OC301   -0.360000       15.9994           0
     24039 LPSA22   20       ARHM     C4       CC3161   0.140000       12.0110           0
     24040 LPSA22   20       ARHM     H4       HCA1     0.900000E-01   1.00800           0
     24041 LPSA22   20       ARHM     O4       OC311   -0.650000       15.9994           0
     24042 LPSA22   20       ARHM     HO4      HCP1     0.420000       1.00800           0
     24043 LPSA22   20       ARHM     C6       CC331   -0.270000       12.0110           0
     24044 LPSA22   20       ARHM     H61      HCA3     0.900000E-01   1.00800           0
     24045 LPSA22   20       ARHM     H62      HCA3     0.900000E-01   1.00800           0
     24046 LPSA22   20       ARHM     H63      HCA3     0.900000E-01   1.00800           0
     24047 LPSA22   21       BMANNA   C1       CC3162   0.290000       12.0110           0
     24048 LPSA22   21       BMANNA   H1       HCA1     0.900000E-01   1.00800           0
     24049 LPSA22   21       BMANNA   C5       CC3163   0.110000       12.0110           0
     24050 LPSA22   21       BMANNA   H5       HCA1     0.900000E-01   1.00800           0
     24051 LPSA22   21       BMANNA   O5       OC3C61  -0.400000       15.9994           0
     24052 LPSA22   21       BMANNA   C2       CC3161   0.700000E-01   12.0110           0
     24053 LPSA22   21       BMANNA   H2       HCA1     0.900000E-01   1.00800           0
     24054 LPSA22   21       BMANNA   N        NC2D1   -0.470000       14.0070           0
     24055 LPSA22   21       BMANNA   HN       HCP1     0.310000       1.00800           0
     24056 LPSA22   21       BMANNA   C        CC2O1    0.510000       12.0110           0
     24057 LPSA22   21       BMANNA   O        OC2D1   -0.510000       15.9994           0
     24058 LPSA22   21       BMANNA   CT       CC331   -0.270000       12.0110           0
     24059 LPSA22   21       BMANNA   HT1      HCA3     0.900000E-01   1.00800           0
     24060 LPSA22   21       BMANNA   HT2      HCA3     0.900000E-01   1.00800           0
     24061 LPSA22   21       BMANNA   HT3      HCA3     0.900000E-01   1.00800           0
     24062 LPSA22   21       BMANNA   C3       CC3161   0.140000       12.0110           0
     24063 LPSA22   21       BMANNA   H3       HCA1     0.900000E-01   1.00800           0
     24064 LPSA22   21       BMANNA   O3       OC311   -0.650000       15.9994           0
     24065 LPSA22   21       BMANNA   HO3      HCP1     0.420000       1.00800           0
     24066 LPSA22   21       BMANNA   C4       CC3161   0.140000       12.0110           0
     24067 LPSA22   21       BMANNA   H4       HCA1     0.900000E-01   1.00800           0
     24068 LPSA22   21       BMANNA   O4       OC311   -0.650000       15.9994           0
     24069 LPSA22   21       BMANNA   HO4      HCP1     0.420000       1.00800           0
     24070 LPSA22   21       BMANNA   C6       CC321    0.500000E-01   12.0110           0
     24071 LPSA22   21       BMANNA   H61      HCA2     0.900000E-01   1.00800           0
     24072 LPSA22   21       BMANNA   H62      HCA2     0.900000E-01   1.00800           0
     24073 LPSA22   21       BMANNA   O6       OC311   -0.650000       15.9994           0
     24074 LPSA22   21       BMANNA   HO6      HCP1     0.420000       1.00800           0
     24075 LPSA22   22       BGLCNA   C1       CC3162   0.290000       12.0110           0
     24076 LPSA22   22       BGLCNA   H1       HCA1     0.900000E-01   1.00800           0
     24077 LPSA22   22       BGLCNA   C5       CC3163   0.110000       12.0110           0
     24078 LPSA22   22       BGLCNA   H5       HCA1     0.900000E-01   1.00800           0
     24079 LPSA22   22       BGLCNA   O5       OC3C61  -0.400000       15.9994           0
     24080 LPSA22   22       BGLCNA   C2       CC3161   0.700000E-01   12.0110           0
     24081 LPSA22   22       BGLCNA   H2       HCA1     0.900000E-01   1.00800           0
     24082 LPSA22   22       BGLCNA   N        NC2D1   -0.470000       14.0070           0
     24083 LPSA22   22       BGLCNA   HN       HCP1     0.310000       1.00800           0
     24084 LPSA22   22       BGLCNA   C        CC2O1    0.510000       12.0110           0
     24085 LPSA22   22       BGLCNA   O        OC2D1   -0.510000       15.9994           0
     24086 LPSA22   22       BGLCNA   CT       CC331   -0.270000       12.0110           0
     24087 LPSA22   22       BGLCNA   HT1      HCA3     0.900000E-01   1.00800           0
     24088 LPSA22   22       BGLCNA   HT2      HCA3     0.900000E-01   1.00800           0
     24089 LPSA22   22       BGLCNA   HT3      HCA3     0.900000E-01   1.00800           0
     24090 LPSA22   22       BGLCNA   C3       CC3161   0.900000E-01   12.0110           0
     24091 LPSA22   22       BGLCNA   H3       HCA1     0.900000E-01   1.00800           0
     24092 LPSA22   22       BGLCNA   O3       OC301   -0.360000       15.9994           0
     24093 LPSA22   22       BGLCNA   C4       CC3161   0.140000       12.0110           0
     24094 LPSA22   22       BGLCNA   H4       HCA1     0.900000E-01   1.00800           0
     24095 LPSA22   22       BGLCNA   O4       OC311   -0.650000       15.9994           0
     24096 LPSA22   22       BGLCNA   HO4      HCP1     0.420000       1.00800           0
     24097 LPSA22   22       BGLCNA   C6       CC321    0.500000E-01   12.0110           0
     24098 LPSA22   22       BGLCNA   H61      HCA2     0.900000E-01   1.00800           0
     24099 LPSA22   22       BGLCNA   H62      HCA2     0.900000E-01   1.00800           0
     24100 LPSA22   22       BGLCNA   O6       OC311   -0.650000       15.9994           0
     24101 LPSA22   22       BGLCNA   HO6      HCP1     0.420000       1.00800           0
     24102 LPSA22   23       AGAL     C1       CC3162   0.290000       12.0110           0
     24103 LPSA22   23       AGAL     H1       HCA1     0.900000E-01   1.00800           0
     24104 LPSA22   23       AGAL     C5       CC3163   0.110000       12.0110           0
     24105 LPSA22   23       AGAL     H5       HCA1     0.900000E-01   1.00800           0
     24106 LPSA22   23       AGAL     O5       OC3C61  -0.400000       15.9994           0
     24107 LPSA22   23       AGAL     C2       CC3161   0.900000E-01   12.0110           0
     24108 LPSA22   23       AGAL     H2       HCA1     0.900000E-01   1.00800           0
     24109 LPSA22   23       AGAL     O2       OC301   -0.360000       15.9994           0
     24110 LPSA22   23       AGAL     C3       CC3161   0.140000       12.0110           0
     24111 LPSA22   23       AGAL     H3       HCA1     0.900000E-01   1.00800           0
     24112 LPSA22   23       AGAL     O3       OC311   -0.650000       15.9994           0
     24113 LPSA22   23       AGAL     HO3      HCP1     0.420000       1.00800           0
     24114 LPSA22   23       AGAL     C4       CC3161   0.140000       12.0110           0
     24115 LPSA22   23       AGAL     H4       HCA1     0.900000E-01   1.00800           0
     24116 LPSA22   23       AGAL     O4       OC311   -0.650000       15.9994           0
     24117 LPSA22   23       AGAL     HO4      HCP1     0.420000       1.00800           0
     24118 LPSA22   23       AGAL     C6       CC321    0.500000E-01   12.0110           0
     24119 LPSA22   23       AGAL     H61      HCA2     0.900000E-01   1.00800           0
     24120 LPSA22   23       AGAL     H62      HCA2     0.900000E-01   1.00800           0
     24121 LPSA22   23       AGAL     O6       OC311   -0.650000       15.9994           0
     24122 LPSA22   23       AGAL     HO6      HCP1     0.420000       1.00800           0
     24123 LPSA22   24       ARHM     C1       CC3162   0.290000       12.0110           0
     24124 LPSA22   24       ARHM     H1       HCA1     0.900000E-01   1.00800           0
     24125 LPSA22   24       ARHM     C5       CC3163   0.110000       12.0110           0
     24126 LPSA22   24       ARHM     H5       HCA1     0.900000E-01   1.00800           0
     24127 LPSA22   24       ARHM     O5       OC3C61  -0.400000       15.9994           0
     24128 LPSA22   24       ARHM     C2       CC3161   0.900000E-01   12.0110           0
     24129 LPSA22   24       ARHM     H2       HCA1     0.900000E-01   1.00800           0
     24130 LPSA22   24       ARHM     O2       OC301   -0.360000       15.9994           0
     24131 LPSA22   24       ARHM     C3       CC3161   0.140000       12.0110           0
     24132 LPSA22   24       ARHM     H3       HCA1     0.900000E-01   1.00800           0
     24133 LPSA22   24       ARHM     O3       OC311   -0.650000       15.9994           0
     24134 LPSA22   24       ARHM     HO3      HCP1     0.420000       1.00800           0
     24135 LPSA22   24       ARHM     C4       CC3161   0.140000       12.0110           0
     24136 LPSA22   24       ARHM     H4       HCA1     0.900000E-01   1.00800           0
     24137 LPSA22   24       ARHM     O4       OC311   -0.650000       15.9994           0
     24138 LPSA22   24       ARHM     HO4      HCP1     0.420000       1.00800           0
     24139 LPSA22   24       ARHM     C6       CC331   -0.270000       12.0110           0
     24140 LPSA22   24       ARHM     H61      HCA3     0.900000E-01   1.00800           0
     24141 LPSA22   24       ARHM     H62      HCA3     0.900000E-01   1.00800           0
     24142 LPSA22   24       ARHM     H63      HCA3     0.900000E-01   1.00800           0
     24143 LPSA22   25       ARHM     C1       CC3162   0.290000       12.0110           0
     24144 LPSA22   25       ARHM     H1       HCA1     0.900000E-01   1.00800           0
     24145 LPSA22   25       ARHM     C5       CC3163   0.110000       12.0110           0
     24146 LPSA22   25       ARHM     H5       HCA1     0.900000E-01   1.00800           0
     24147 LPSA22   25       ARHM     O5       OC3C61  -0.400000       15.9994           0
     24148 LPSA22   25       ARHM     C2       CC3161   0.900000E-01   12.0110           0
     24149 LPSA22   25       ARHM     H2       HCA1     0.900000E-01   1.00800           0
     24150 LPSA22   25       ARHM     O2       OC301   -0.360000       15.9994           0
     24151 LPSA22   25       ARHM     C3       CC3161   0.900000E-01   12.0110           0
     24152 LPSA22   25       ARHM     H3       HCA1     0.900000E-01   1.00800           0
     24153 LPSA22   25       ARHM     O3       OC301   -0.360000       15.9994           0
     24154 LPSA22   25       ARHM     C4       CC3161   0.140000       12.0110           0
     24155 LPSA22   25       ARHM     H4       HCA1     0.900000E-01   1.00800           0
     24156 LPSA22   25       ARHM     O4       OC311   -0.650000       15.9994           0
     24157 LPSA22   25       ARHM     HO4      HCP1     0.420000       1.00800           0
     24158 LPSA22   25       ARHM     C6       CC331   -0.270000       12.0110           0
     24159 LPSA22   25       ARHM     H61      HCA3     0.900000E-01   1.00800           0
     24160 LPSA22   25       ARHM     H62      HCA3     0.900000E-01   1.00800           0
     24161 LPSA22   25       ARHM     H63      HCA3     0.900000E-01   1.00800           0
     24162 LPSA22   26       BMANNA   C1       CC3162   0.290000       12.0110           0
     24163 LPSA22   26       BMANNA   H1       HCA1     0.900000E-01   1.00800           0
     24164 LPSA22   26       BMANNA   C5       CC3163   0.110000       12.0110           0
     24165 LPSA22   26       BMANNA   H5       HCA1     0.900000E-01   1.00800           0
     24166 LPSA22   26       BMANNA   O5       OC3C61  -0.400000       15.9994           0
     24167 LPSA22   26       BMANNA   C2       CC3161   0.700000E-01   12.0110           0
     24168 LPSA22   26       BMANNA   H2       HCA1     0.900000E-01   1.00800           0
     24169 LPSA22   26       BMANNA   N        NC2D1   -0.470000       14.0070           0
     24170 LPSA22   26       BMANNA   HN       HCP1     0.310000       1.00800           0
     24171 LPSA22   26       BMANNA   C        CC2O1    0.510000       12.0110           0
     24172 LPSA22   26       BMANNA   O        OC2D1   -0.510000       15.9994           0
     24173 LPSA22   26       BMANNA   CT       CC331   -0.270000       12.0110           0
     24174 LPSA22   26       BMANNA   HT1      HCA3     0.900000E-01   1.00800           0
     24175 LPSA22   26       BMANNA   HT2      HCA3     0.900000E-01   1.00800           0
     24176 LPSA22   26       BMANNA   HT3      HCA3     0.900000E-01   1.00800           0
     24177 LPSA22   26       BMANNA   C3       CC3161   0.140000       12.0110           0
     24178 LPSA22   26       BMANNA   H3       HCA1     0.900000E-01   1.00800           0
     24179 LPSA22   26       BMANNA   O3       OC311   -0.650000       15.9994           0
     24180 LPSA22   26       BMANNA   HO3      HCP1     0.420000       1.00800           0
     24181 LPSA22   26       BMANNA   C4       CC3161   0.140000       12.0110           0
     24182 LPSA22   26       BMANNA   H4       HCA1     0.900000E-01   1.00800           0
     24183 LPSA22   26       BMANNA   O4       OC311   -0.650000       15.9994           0
     24184 LPSA22   26       BMANNA   HO4      HCP1     0.420000       1.00800           0
     24185 LPSA22   26       BMANNA   C6       CC321    0.500000E-01   12.0110           0
     24186 LPSA22   26       BMANNA   H61      HCA2     0.900000E-01   1.00800           0
     24187 LPSA22   26       BMANNA   H62      HCA2     0.900000E-01   1.00800           0
     24188 LPSA22   26       BMANNA   O6       OC311   -0.650000       15.9994           0
     24189 LPSA22   26       BMANNA   HO6      HCP1     0.420000       1.00800           0
     24190 LPSA22   27       BGLCNA   C1       CC3162   0.290000       12.0110           0
     24191 LPSA22   27       BGLCNA   H1       HCA1     0.900000E-01   1.00800           0
     24192 LPSA22   27       BGLCNA   C5       CC3163   0.110000       12.0110           0
     24193 LPSA22   27       BGLCNA   H5       HCA1     0.900000E-01   1.00800           0
     24194 LPSA22   27       BGLCNA   O5       OC3C61  -0.400000       15.9994           0
     24195 LPSA22   27       BGLCNA   C2       CC3161   0.700000E-01   12.0110           0
     24196 LPSA22   27       BGLCNA   H2       HCA1     0.900000E-01   1.00800           0
     24197 LPSA22   27       BGLCNA   N        NC2D1   -0.470000       14.0070           0
     24198 LPSA22   27       BGLCNA   HN       HCP1     0.310000       1.00800           0
     24199 LPSA22   27       BGLCNA   C        CC2O1    0.510000       12.0110           0
     24200 LPSA22   27       BGLCNA   O        OC2D1   -0.510000       15.9994           0
     24201 LPSA22   27       BGLCNA   CT       CC331   -0.270000       12.0110           0
     24202 LPSA22   27       BGLCNA   HT1      HCA3     0.900000E-01   1.00800           0
     24203 LPSA22   27       BGLCNA   HT2      HCA3     0.900000E-01   1.00800           0
     24204 LPSA22   27       BGLCNA   HT3      HCA3     0.900000E-01   1.00800           0
     24205 LPSA22   27       BGLCNA   C3       CC3161   0.900000E-01   12.0110           0
     24206 LPSA22   27       BGLCNA   H3       HCA1     0.900000E-01   1.00800           0
     24207 LPSA22   27       BGLCNA   O3       OC301   -0.360000       15.9994           0
     24208 LPSA22   27       BGLCNA   C4       CC3161   0.140000       12.0110           0
     24209 LPSA22   27       BGLCNA   H4       HCA1     0.900000E-01   1.00800           0
     24210 LPSA22   27       BGLCNA   O4       OC311   -0.650000       15.9994           0
     24211 LPSA22   27       BGLCNA   HO4      HCP1     0.420000       1.00800           0
     24212 LPSA22   27       BGLCNA   C6       CC321    0.500000E-01   12.0110           0
     24213 LPSA22   27       BGLCNA   H61      HCA2     0.900000E-01   1.00800           0
     24214 LPSA22   27       BGLCNA   H62      HCA2     0.900000E-01   1.00800           0
     24215 LPSA22   27       BGLCNA   O6       OC311   -0.650000       15.9994           0
     24216 LPSA22   27       BGLCNA   HO6      HCP1     0.420000       1.00800           0
     24217 LPSA22   28       AGAL     C1       CC3162   0.290000       12.0110           0
     24218 LPSA22   28       AGAL     H1       HCA1     0.900000E-01   1.00800           0
     24219 LPSA22   28       AGAL     C5       CC3163   0.110000       12.0110           0
     24220 LPSA22   28       AGAL     H5       HCA1     0.900000E-01   1.00800           0
     24221 LPSA22   28       AGAL     O5       OC3C61  -0.400000       15.9994           0
     24222 LPSA22   28       AGAL     C2       CC3161   0.900000E-01   12.0110           0
     24223 LPSA22   28       AGAL     H2       HCA1     0.900000E-01   1.00800           0
     24224 LPSA22   28       AGAL     O2       OC301   -0.360000       15.9994           0
     24225 LPSA22   28       AGAL     C3       CC3161   0.140000       12.0110           0
     24226 LPSA22   28       AGAL     H3       HCA1     0.900000E-01   1.00800           0
     24227 LPSA22   28       AGAL     O3       OC311   -0.650000       15.9994           0
     24228 LPSA22   28       AGAL     HO3      HCP1     0.420000       1.00800           0
     24229 LPSA22   28       AGAL     C4       CC3161   0.140000       12.0110           0
     24230 LPSA22   28       AGAL     H4       HCA1     0.900000E-01   1.00800           0
     24231 LPSA22   28       AGAL     O4       OC311   -0.650000       15.9994           0
     24232 LPSA22   28       AGAL     HO4      HCP1     0.420000       1.00800           0
     24233 LPSA22   28       AGAL     C6       CC321    0.500000E-01   12.0110           0
     24234 LPSA22   28       AGAL     H61      HCA2     0.900000E-01   1.00800           0
     24235 LPSA22   28       AGAL     H62      HCA2     0.900000E-01   1.00800           0
     24236 LPSA22   28       AGAL     O6       OC311   -0.650000       15.9994           0
     24237 LPSA22   28       AGAL     HO6      HCP1     0.420000       1.00800           0
     24238 LPSA22   29       ARHM     C1       CC3162   0.290000       12.0110           0
     24239 LPSA22   29       ARHM     H1       HCA1     0.900000E-01   1.00800           0
     24240 LPSA22   29       ARHM     C5       CC3163   0.110000       12.0110           0
     24241 LPSA22   29       ARHM     H5       HCA1     0.900000E-01   1.00800           0
     24242 LPSA22   29       ARHM     O5       OC3C61  -0.400000       15.9994           0
     24243 LPSA22   29       ARHM     C2       CC3161   0.900000E-01   12.0110           0
     24244 LPSA22   29       ARHM     H2       HCA1     0.900000E-01   1.00800           0
     24245 LPSA22   29       ARHM     O2       OC301   -0.360000       15.9994           0
     24246 LPSA22   29       ARHM     C3       CC3161   0.140000       12.0110           0
     24247 LPSA22   29       ARHM     H3       HCA1     0.900000E-01   1.00800           0
     24248 LPSA22   29       ARHM     O3       OC311   -0.650000       15.9994           0
     24249 LPSA22   29       ARHM     HO3      HCP1     0.420000       1.00800           0
     24250 LPSA22   29       ARHM     C4       CC3161   0.140000       12.0110           0
     24251 LPSA22   29       ARHM     H4       HCA1     0.900000E-01   1.00800           0
     24252 LPSA22   29       ARHM     O4       OC311   -0.650000       15.9994           0
     24253 LPSA22   29       ARHM     HO4      HCP1     0.420000       1.00800           0
     24254 LPSA22   29       ARHM     C6       CC331   -0.270000       12.0110           0
     24255 LPSA22   29       ARHM     H61      HCA3     0.900000E-01   1.00800           0
     24256 LPSA22   29       ARHM     H62      HCA3     0.900000E-01   1.00800           0
     24257 LPSA22   29       ARHM     H63      HCA3     0.900000E-01   1.00800           0
     24258 LPSA22   30       ARHM     C1       CC3162   0.290000       12.0110           0
     24259 LPSA22   30       ARHM     H1       HCA1     0.900000E-01   1.00800           0
     24260 LPSA22   30       ARHM     C5       CC3163   0.110000       12.0110           0
     24261 LPSA22   30       ARHM     H5       HCA1     0.900000E-01   1.00800           0
     24262 LPSA22   30       ARHM     O5       OC3C61  -0.400000       15.9994           0
     24263 LPSA22   30       ARHM     C2       CC3161   0.900000E-01   12.0110           0
     24264 LPSA22   30       ARHM     H2       HCA1     0.900000E-01   1.00800           0
     24265 LPSA22   30       ARHM     O2       OC301   -0.360000       15.9994           0
     24266 LPSA22   30       ARHM     C3       CC3161   0.900000E-01   12.0110           0
     24267 LPSA22   30       ARHM     H3       HCA1     0.900000E-01   1.00800           0
     24268 LPSA22   30       ARHM     O3       OC301   -0.360000       15.9994           0
     24269 LPSA22   30       ARHM     C4       CC3161   0.140000       12.0110           0
     24270 LPSA22   30       ARHM     H4       HCA1     0.900000E-01   1.00800           0
     24271 LPSA22   30       ARHM     O4       OC311   -0.650000       15.9994           0
     24272 LPSA22   30       ARHM     HO4      HCP1     0.420000       1.00800           0
     24273 LPSA22   30       ARHM     C6       CC331   -0.270000       12.0110           0
     24274 LPSA22   30       ARHM     H61      HCA3     0.900000E-01   1.00800           0
     24275 LPSA22   30       ARHM     H62      HCA3     0.900000E-01   1.00800           0
     24276 LPSA22   30       ARHM     H63      HCA3     0.900000E-01   1.00800           0
     24277 LPSA22   31       BMANNA   C1       CC3162   0.290000       12.0110           0
     24278 LPSA22   31       BMANNA   H1       HCA1     0.900000E-01   1.00800           0
     24279 LPSA22   31       BMANNA   C5       CC3163   0.110000       12.0110           0
     24280 LPSA22   31       BMANNA   H5       HCA1     0.900000E-01   1.00800           0
     24281 LPSA22   31       BMANNA   O5       OC3C61  -0.400000       15.9994           0
     24282 LPSA22   31       BMANNA   C2       CC3161   0.700000E-01   12.0110           0
     24283 LPSA22   31       BMANNA   H2       HCA1     0.900000E-01   1.00800           0
     24284 LPSA22   31       BMANNA   N        NC2D1   -0.470000       14.0070           0
     24285 LPSA22   31       BMANNA   HN       HCP1     0.310000       1.00800           0
     24286 LPSA22   31       BMANNA   C        CC2O1    0.510000       12.0110           0
     24287 LPSA22   31       BMANNA   O        OC2D1   -0.510000       15.9994           0
     24288 LPSA22   31       BMANNA   CT       CC331   -0.270000       12.0110           0
     24289 LPSA22   31       BMANNA   HT1      HCA3     0.900000E-01   1.00800           0
     24290 LPSA22   31       BMANNA   HT2      HCA3     0.900000E-01   1.00800           0
     24291 LPSA22   31       BMANNA   HT3      HCA3     0.900000E-01   1.00800           0
     24292 LPSA22   31       BMANNA   C3       CC3161   0.140000       12.0110           0
     24293 LPSA22   31       BMANNA   H3       HCA1     0.900000E-01   1.00800           0
     24294 LPSA22   31       BMANNA   O3       OC311   -0.650000       15.9994           0
     24295 LPSA22   31       BMANNA   HO3      HCP1     0.420000       1.00800           0
     24296 LPSA22   31       BMANNA   C4       CC3161   0.140000       12.0110           0
     24297 LPSA22   31       BMANNA   H4       HCA1     0.900000E-01   1.00800           0
     24298 LPSA22   31       BMANNA   O4       OC311   -0.650000       15.9994           0
     24299 LPSA22   31       BMANNA   HO4      HCP1     0.420000       1.00800           0
     24300 LPSA22   31       BMANNA   C6       CC321    0.500000E-01   12.0110           0
     24301 LPSA22   31       BMANNA   H61      HCA2     0.900000E-01   1.00800           0
     24302 LPSA22   31       BMANNA   H62      HCA2     0.900000E-01   1.00800           0
     24303 LPSA22   31       BMANNA   O6       OC311   -0.650000       15.9994           0
     24304 LPSA22   31       BMANNA   HO6      HCP1     0.420000       1.00800           0
     24305 LPSA22   32       BGLCNA   C1       CC3162   0.290000       12.0110           0
     24306 LPSA22   32       BGLCNA   H1       HCA1     0.900000E-01   1.00800           0
     24307 LPSA22   32       BGLCNA   C5       CC3163   0.110000       12.0110           0
     24308 LPSA22   32       BGLCNA   H5       HCA1     0.900000E-01   1.00800           0
     24309 LPSA22   32       BGLCNA   O5       OC3C61  -0.400000       15.9994           0
     24310 LPSA22   32       BGLCNA   C2       CC3161   0.700000E-01   12.0110           0
     24311 LPSA22   32       BGLCNA   H2       HCA1     0.900000E-01   1.00800           0
     24312 LPSA22   32       BGLCNA   N        NC2D1   -0.470000       14.0070           0
     24313 LPSA22   32       BGLCNA   HN       HCP1     0.310000       1.00800           0
     24314 LPSA22   32       BGLCNA   C        CC2O1    0.510000       12.0110           0
     24315 LPSA22   32       BGLCNA   O        OC2D1   -0.510000       15.9994           0
     24316 LPSA22   32       BGLCNA   CT       CC331   -0.270000       12.0110           0
     24317 LPSA22   32       BGLCNA   HT1      HCA3     0.900000E-01   1.00800           0
     24318 LPSA22   32       BGLCNA   HT2      HCA3     0.900000E-01   1.00800           0
     24319 LPSA22   32       BGLCNA   HT3      HCA3     0.900000E-01   1.00800           0
     24320 LPSA22   32       BGLCNA   C3       CC3161   0.900000E-01   12.0110           0
     24321 LPSA22   32       BGLCNA   H3       HCA1     0.900000E-01   1.00800           0
     24322 LPSA22   32       BGLCNA   O3       OC301   -0.360000       15.9994           0
     24323 LPSA22   32       BGLCNA   C4       CC3161   0.140000       12.0110           0
     24324 LPSA22   32       BGLCNA   H4       HCA1     0.900000E-01   1.00800           0
     24325 LPSA22   32       BGLCNA   O4       OC311   -0.650000       15.9994           0
     24326 LPSA22   32       BGLCNA   HO4      HCP1     0.420000       1.00800           0
     24327 LPSA22   32       BGLCNA   C6       CC321    0.500000E-01   12.0110           0
     24328 LPSA22   32       BGLCNA   H61      HCA2     0.900000E-01   1.00800           0
     24329 LPSA22   32       BGLCNA   H62      HCA2     0.900000E-01   1.00800           0
     24330 LPSA22   32       BGLCNA   O6       OC311   -0.650000       15.9994           0
     24331 LPSA22   32       BGLCNA   HO6      HCP1     0.420000       1.00800           0
     24332 LPSA22   33       AGAL     C1       CC3162   0.290000       12.0110           0
     24333 LPSA22   33       AGAL     H1       HCA1     0.900000E-01   1.00800           0
     24334 LPSA22   33       AGAL     C5       CC3163   0.110000       12.0110           0
     24335 LPSA22   33       AGAL     H5       HCA1     0.900000E-01   1.00800           0
     24336 LPSA22   33       AGAL     O5       OC3C61  -0.400000       15.9994           0
     24337 LPSA22   33       AGAL     C2       CC3161   0.900000E-01   12.0110           0
     24338 LPSA22   33       AGAL     H2       HCA1     0.900000E-01   1.00800           0
     24339 LPSA22   33       AGAL     O2       OC301   -0.360000       15.9994           0
     24340 LPSA22   33       AGAL     C3       CC3161   0.140000       12.0110           0
     24341 LPSA22   33       AGAL     H3       HCA1     0.900000E-01   1.00800           0
     24342 LPSA22   33       AGAL     O3       OC311   -0.650000       15.9994           0
     24343 LPSA22   33       AGAL     HO3      HCP1     0.420000       1.00800           0
     24344 LPSA22   33       AGAL     C4       CC3161   0.140000       12.0110           0
     24345 LPSA22   33       AGAL     H4       HCA1     0.900000E-01   1.00800           0
     24346 LPSA22   33       AGAL     O4       OC311   -0.650000       15.9994           0
     24347 LPSA22   33       AGAL     HO4      HCP1     0.420000       1.00800           0
     24348 LPSA22   33       AGAL     C6       CC321    0.500000E-01   12.0110           0
     24349 LPSA22   33       AGAL     H61      HCA2     0.900000E-01   1.00800           0
     24350 LPSA22   33       AGAL     H62      HCA2     0.900000E-01   1.00800           0
     24351 LPSA22   33       AGAL     O6       OC311   -0.650000       15.9994           0
     24352 LPSA22   33       AGAL     HO6      HCP1     0.420000       1.00800           0
     24353 LPSA22   34       ARHM     C1       CC3162   0.290000       12.0110           0
     24354 LPSA22   34       ARHM     H1       HCA1     0.900000E-01   1.00800           0
     24355 LPSA22   34       ARHM     C5       CC3163   0.110000       12.0110           0
     24356 LPSA22   34       ARHM     H5       HCA1     0.900000E-01   1.00800           0
     24357 LPSA22   34       ARHM     O5       OC3C61  -0.400000       15.9994           0
     24358 LPSA22   34       ARHM     C2       CC3161   0.900000E-01   12.0110           0
     24359 LPSA22   34       ARHM     H2       HCA1     0.900000E-01   1.00800           0
     24360 LPSA22   34       ARHM     O2       OC301   -0.360000       15.9994           0
     24361 LPSA22   34       ARHM     C3       CC3161   0.140000       12.0110           0
     24362 LPSA22   34       ARHM     H3       HCA1     0.900000E-01   1.00800           0
     24363 LPSA22   34       ARHM     O3       OC311   -0.650000       15.9994           0
     24364 LPSA22   34       ARHM     HO3      HCP1     0.420000       1.00800           0
     24365 LPSA22   34       ARHM     C4       CC3161   0.140000       12.0110           0
     24366 LPSA22   34       ARHM     H4       HCA1     0.900000E-01   1.00800           0
     24367 LPSA22   34       ARHM     O4       OC311   -0.650000       15.9994           0
     24368 LPSA22   34       ARHM     HO4      HCP1     0.420000       1.00800           0
     24369 LPSA22   34       ARHM     C6       CC331   -0.270000       12.0110           0
     24370 LPSA22   34       ARHM     H61      HCA3     0.900000E-01   1.00800           0
     24371 LPSA22   34       ARHM     H62      HCA3     0.900000E-01   1.00800           0
     24372 LPSA22   34       ARHM     H63      HCA3     0.900000E-01   1.00800           0
     24373 LPSA22   35       ARHM     C1       CC3162   0.290000       12.0110           0
     24374 LPSA22   35       ARHM     H1       HCA1     0.900000E-01   1.00800           0
     24375 LPSA22   35       ARHM     C5       CC3163   0.110000       12.0110           0
     24376 LPSA22   35       ARHM     H5       HCA1     0.900000E-01   1.00800           0
     24377 LPSA22   35       ARHM     O5       OC3C61  -0.400000       15.9994           0
     24378 LPSA22   35       ARHM     C2       CC3161   0.900000E-01   12.0110           0
     24379 LPSA22   35       ARHM     H2       HCA1     0.900000E-01   1.00800           0
     24380 LPSA22   35       ARHM     O2       OC301   -0.360000       15.9994           0
     24381 LPSA22   35       ARHM     C3       CC3161   0.140000       12.0110           0
     24382 LPSA22   35       ARHM     H3       HCA1     0.900000E-01   1.00800           0
     24383 LPSA22   35       ARHM     O3       OC311   -0.650000       15.9994           0
     24384 LPSA22   35       ARHM     HO3      HCP1     0.420000       1.00800           0
     24385 LPSA22   35       ARHM     C4       CC3161   0.140000       12.0110           0
     24386 LPSA22   35       ARHM     H4       HCA1     0.900000E-01   1.00800           0
     24387 LPSA22   35       ARHM     O4       OC311   -0.650000       15.9994           0
     24388 LPSA22   35       ARHM     HO4      HCP1     0.420000       1.00800           0
     24389 LPSA22   35       ARHM     C6       CC331   -0.270000       12.0110           0
     24390 LPSA22   35       ARHM     H61      HCA3     0.900000E-01   1.00800           0
     24391 LPSA22   35       ARHM     H62      HCA3     0.900000E-01   1.00800           0
     24392 LPSA22   35       ARHM     H63      HCA3     0.900000E-01   1.00800           0
     24393 LPSA22   36       BMANNA   C1       CC3162   0.290000       12.0110           0
     24394 LPSA22   36       BMANNA   H1       HCA1     0.900000E-01   1.00800           0
     24395 LPSA22   36       BMANNA   C5       CC3163   0.110000       12.0110           0
     24396 LPSA22   36       BMANNA   H5       HCA1     0.900000E-01   1.00800           0
     24397 LPSA22   36       BMANNA   O5       OC3C61  -0.400000       15.9994           0
     24398 LPSA22   36       BMANNA   C2       CC3161   0.700000E-01   12.0110           0
     24399 LPSA22   36       BMANNA   H2       HCA1     0.900000E-01   1.00800           0
     24400 LPSA22   36       BMANNA   N        NC2D1   -0.470000       14.0070           0
     24401 LPSA22   36       BMANNA   HN       HCP1     0.310000       1.00800           0
     24402 LPSA22   36       BMANNA   C        CC2O1    0.510000       12.0110           0
     24403 LPSA22   36       BMANNA   O        OC2D1   -0.510000       15.9994           0
     24404 LPSA22   36       BMANNA   CT       CC331   -0.270000       12.0110           0
     24405 LPSA22   36       BMANNA   HT1      HCA3     0.900000E-01   1.00800           0
     24406 LPSA22   36       BMANNA   HT2      HCA3     0.900000E-01   1.00800           0
     24407 LPSA22   36       BMANNA   HT3      HCA3     0.900000E-01   1.00800           0
     24408 LPSA22   36       BMANNA   C3       CC3161   0.140000       12.0110           0
     24409 LPSA22   36       BMANNA   H3       HCA1     0.900000E-01   1.00800           0
     24410 LPSA22   36       BMANNA   O3       OC311   -0.650000       15.9994           0
     24411 LPSA22   36       BMANNA   HO3      HCP1     0.420000       1.00800           0
     24412 LPSA22   36       BMANNA   C4       CC3161   0.140000       12.0110           0
     24413 LPSA22   36       BMANNA   H4       HCA1     0.900000E-01   1.00800           0
     24414 LPSA22   36       BMANNA   O4       OC311   -0.650000       15.9994           0
     24415 LPSA22   36       BMANNA   HO4      HCP1     0.420000       1.00800           0
     24416 LPSA22   36       BMANNA   C6       CC321    0.500000E-01   12.0110           0
     24417 LPSA22   36       BMANNA   H61      HCA2     0.900000E-01   1.00800           0
     24418 LPSA22   36       BMANNA   H62      HCA2     0.900000E-01   1.00800           0
     24419 LPSA22   36       BMANNA   O6       OC311   -0.650000       15.9994           0
     24420 LPSA22   36       BMANNA   HO6      HCP1     0.420000       1.00800           0
     24421 LPSA23   1        ECLIPA   HB6S     HCA2     0.900000E-01   1.00800           0
     24422 LPSA23   1        ECLIPA   OB6      OC301   -0.360000       15.9994           0
     24423 LPSA23   1        ECLIPA   CB6      CC321     0.00000       12.0110           0
     24424 LPSA23   1        ECLIPA   HB6R     HCA2     0.900000E-01   1.00800           0
     24425 LPSA23   1        ECLIPA   CB5      CC3163   0.110000       12.0110           0
     24426 LPSA23   1        ECLIPA   OB5      OC3C61  -0.400000       15.9994           0
     24427 LPSA23   1        ECLIPA   HB5      HCA1     0.900000E-01   1.00800           0
     24428 LPSA23   1        ECLIPA   CB1      CC3162   0.290000       12.0110           0
     24429 LPSA23   1        ECLIPA   HB1      HCA1     0.900000E-01   1.00800           0
     24430 LPSA23   1        ECLIPA   OA6      OC301   -0.360000       15.9994           0
     24431 LPSA23   1        ECLIPA   CA6      CC321     0.00000       12.0110           0
     24432 LPSA23   1        ECLIPA   HA6R     HCA2     0.900000E-01   1.00800           0
     24433 LPSA23   1        ECLIPA   HA6S     HCA2     0.900000E-01   1.00800           0
     24434 LPSA23   1        ECLIPA   CB4      CC3161  -0.900000E-01   12.0110           0
     24435 LPSA23   1        ECLIPA   HB4      HCA1     0.900000E-01   1.00800           0
     24436 LPSA23   1        ECLIPA   OB4      OC30P   -0.400000       15.9994           0
     24437 LPSA23   1        ECLIPA   PB       PC        1.10000       30.9740           0
     24438 LPSA23   1        ECLIPA   OPB4     OC2DP   -0.900000       15.9994           0
     24439 LPSA23   1        ECLIPA   OPB3     OC2DP   -0.900000       15.9994           0
     24440 LPSA23   1        ECLIPA   OPB2     OC2DP   -0.900000       15.9994           0
     24441 LPSA23   1        ECLIPA   CB3      CC3161   0.170000       12.0110           0
     24442 LPSA23   1        ECLIPA   OB3      OC301   -0.490000       15.9994           0
     24443 LPSA23   1        ECLIPA   HB3      HCA1     0.900000E-01   1.00800           0
     24444 LPSA23   1        ECLIPA   C71      CL       0.900000       12.0110           0
     24445 LPSA23   1        ECLIPA   O71      OBL     -0.630000       15.9994           0
     24446 LPSA23   1        ECLIPA   C72      CTL2    -0.220000       12.0110           0
     24447 LPSA23   1        ECLIPA   H72R     HAL2     0.900000E-01   1.00800           0
     24448 LPSA23   1        ECLIPA   H72S     HAL2     0.900000E-01   1.00800           0
     24449 LPSA23   1        ECLIPA   CB2      CC3161   0.700000E-01   12.0110           0
     24450 LPSA23   1        ECLIPA   HB2      HCA1     0.900000E-01   1.00800           0
     24451 LPSA23   1        ECLIPA   NB2      NC2D1   -0.470000       14.0070           0
     24452 LPSA23   1        ECLIPA   HNB2     HCP1     0.310000       1.00800           0
     24453 LPSA23   1        ECLIPA   CA4      CC3161   0.140000       12.0110           0
     24454 LPSA23   1        ECLIPA   HA4      HCA1     0.900000E-01   1.00800           0
     24455 LPSA23   1        ECLIPA   OA4      OC311   -0.650000       15.9994           0
     24456 LPSA23   1        ECLIPA   HOA4     HCP1     0.420000       1.00800           0
     24457 LPSA23   1        ECLIPA   CA5      CC3163   0.110000       12.0110           0
     24458 LPSA23   1        ECLIPA   HA5      HCA1     0.900000E-01   1.00800           0
     24459 LPSA23   1        ECLIPA   OA5      OC3C61  -0.400000       15.9994           0
     24460 LPSA23   1        ECLIPA   CA1      CC3162   0.110000       12.0110           0
     24461 LPSA23   1        ECLIPA   HA1      HCA1     0.900000E-01   1.00800           0
     24462 LPSA23   1        ECLIPA   OA1      OC30P   -0.400000       15.9994           0
     24463 LPSA23   1        ECLIPA   OPA2     OC2DP   -0.900000       15.9994           0
     24464 LPSA23   1        ECLIPA   OPA3     OC2DP   -0.900000       15.9994           0
     24465 LPSA23   1        ECLIPA   OPA4     OC2DP   -0.900000       15.9994           0
     24466 LPSA23   1        ECLIPA   PA       PC        1.10000       30.9740           0
     24467 LPSA23   1        ECLIPA   CA3      CC3161   0.170000       12.0110           0
     24468 LPSA23   1        ECLIPA   HA3      HCA1     0.900000E-01   1.00800           0
     24469 LPSA23   1        ECLIPA   OA3      OC301   -0.490000       15.9994           0
     24470 LPSA23   1        ECLIPA   C31      CL       0.900000       12.0110           0
     24471 LPSA23   1        ECLIPA   O31      OBL     -0.630000       15.9994           0
     24472 LPSA23   1        ECLIPA   C32      CTL2    -0.220000       12.0110           0
     24473 LPSA23   1        ECLIPA   H32R     HAL2     0.900000E-01   1.00800           0
     24474 LPSA23   1        ECLIPA   H32S     HAL2     0.900000E-01   1.00800           0
     24475 LPSA23   1        ECLIPA   CA2      CC3161   0.700000E-01   12.0110           0
     24476 LPSA23   1        ECLIPA   HA2      HCA1     0.900000E-01   1.00800           0
     24477 LPSA23   1        ECLIPA   NA2      NC2D1   -0.470000       14.0070           0
     24478 LPSA23   1        ECLIPA   HNA2     HCP1     0.310000       1.00800           0
     24479 LPSA23   1        ECLIPA   C73      CTL1     0.170000       12.0110           0
     24480 LPSA23   1        ECLIPA   H73R     HAL1     0.900000E-01   1.00800           0
     24481 LPSA23   1        ECLIPA   O73      OSL     -0.490000       15.9994           0
     24482 LPSA23   1        ECLIPA   C81      CL       0.900000       12.0110           0
     24483 LPSA23   1        ECLIPA   O81      OBL     -0.630000       15.9994           0
     24484 LPSA23   1        ECLIPA   C82      CTL2    -0.220000       12.0110           0
     24485 LPSA23   1        ECLIPA   H82R     HAL2     0.900000E-01   1.00800           0
     24486 LPSA23   1        ECLIPA   H82S     HAL2     0.900000E-01   1.00800           0
     24487 LPSA23   1        ECLIPA   C83      CTL2    -0.180000       12.0110           0
     24488 LPSA23   1        ECLIPA   H83R     HAL2     0.900000E-01   1.00800           0
     24489 LPSA23   1        ECLIPA   H83S     HAL2     0.900000E-01   1.00800           0
     24490 LPSA23   1        ECLIPA   C84      CTL2    -0.180000       12.0110           0
     24491 LPSA23   1        ECLIPA   H84R     HAL2     0.900000E-01   1.00800           0
     24492 LPSA23   1        ECLIPA   H84S     HAL2     0.900000E-01   1.00800           0
     24493 LPSA23   1        ECLIPA   C85      CTL2    -0.180000       12.0110           0
     24494 LPSA23   1        ECLIPA   H85R     HAL2     0.900000E-01   1.00800           0
     24495 LPSA23   1        ECLIPA   H85S     HAL2     0.900000E-01   1.00800           0
     24496 LPSA23   1        ECLIPA   C86      CTL2    -0.180000       12.0110           0
     24497 LPSA23   1        ECLIPA   H86R     HAL2     0.900000E-01   1.00800           0
     24498 LPSA23   1        ECLIPA   H86S     HAL2     0.900000E-01   1.00800           0
     24499 LPSA23   1        ECLIPA   C87      CTL2    -0.180000       12.0110           0
     24500 LPSA23   1        ECLIPA   H87R     HAL2     0.900000E-01   1.00800           0
     24501 LPSA23   1        ECLIPA   H87S     HAL2     0.900000E-01   1.00800           0
     24502 LPSA23   1        ECLIPA   C88      CTL2    -0.180000       12.0110           0
     24503 LPSA23   1        ECLIPA   H88R     HAL2     0.900000E-01   1.00800           0
     24504 LPSA23   1        ECLIPA   H88S     HAL2     0.900000E-01   1.00800           0
     24505 LPSA23   1        ECLIPA   C89      CTL2    -0.180000       12.0110           0
     24506 LPSA23   1        ECLIPA   H89R     HAL2     0.900000E-01   1.00800           0
     24507 LPSA23   1        ECLIPA   H89S     HAL2     0.900000E-01   1.00800           0
     24508 LPSA23   1        ECLIPA   C810     CTL2    -0.180000       12.0110           0
     24509 LPSA23   1        ECLIPA   H810R    HAL2     0.900000E-01   1.00800           0
     24510 LPSA23   1        ECLIPA   H810S    HAL2     0.900000E-01   1.00800           0
     24511 LPSA23   1        ECLIPA   C811     CTL2    -0.180000       12.0110           0
     24512 LPSA23   1        ECLIPA   H811R    HAL2     0.900000E-01   1.00800           0
     24513 LPSA23   1        ECLIPA   H811S    HAL2     0.900000E-01   1.00800           0
     24514 LPSA23   1        ECLIPA   C812     CTL2    -0.180000       12.0110           0
     24515 LPSA23   1        ECLIPA   H812R    HAL2     0.900000E-01   1.00800           0
     24516 LPSA23   1        ECLIPA   H812S    HAL2     0.900000E-01   1.00800           0
     24517 LPSA23   1        ECLIPA   C813     CTL2    -0.180000       12.0110           0
     24518 LPSA23   1        ECLIPA   H813R    HAL2     0.900000E-01   1.00800           0
     24519 LPSA23   1        ECLIPA   H813S    HAL2     0.900000E-01   1.00800           0
     24520 LPSA23   1        ECLIPA   C814     CTL3    -0.270000       12.0110           0
     24521 LPSA23   1        ECLIPA   H814R    HAL3     0.900000E-01   1.00800           0
     24522 LPSA23   1        ECLIPA   H814S    HAL3     0.900000E-01   1.00800           0
     24523 LPSA23   1        ECLIPA   H814T    HAL3     0.900000E-01   1.00800           0
     24524 LPSA23   1        ECLIPA   C74      CTL2    -0.180000       12.0110           0
     24525 LPSA23   1        ECLIPA   H74R     HAL2     0.900000E-01   1.00800           0
     24526 LPSA23   1        ECLIPA   H74S     HAL2     0.900000E-01   1.00800           0
     24527 LPSA23   1        ECLIPA   C75      CTL2    -0.180000       12.0110           0
     24528 LPSA23   1        ECLIPA   H75R     HAL2     0.900000E-01   1.00800           0
     24529 LPSA23   1        ECLIPA   H75S     HAL2     0.900000E-01   1.00800           0
     24530 LPSA23   1        ECLIPA   C76      CTL2    -0.180000       12.0110           0
     24531 LPSA23   1        ECLIPA   H76R     HAL2     0.900000E-01   1.00800           0
     24532 LPSA23   1        ECLIPA   H76S     HAL2     0.900000E-01   1.00800           0
     24533 LPSA23   1        ECLIPA   C77      CTL2    -0.180000       12.0110           0
     24534 LPSA23   1        ECLIPA   H77R     HAL2     0.900000E-01   1.00800           0
     24535 LPSA23   1        ECLIPA   H77S     HAL2     0.900000E-01   1.00800           0
     24536 LPSA23   1        ECLIPA   C78      CTL2    -0.180000       12.0110           0
     24537 LPSA23   1        ECLIPA   H78R     HAL2     0.900000E-01   1.00800           0
     24538 LPSA23   1        ECLIPA   H78S     HAL2     0.900000E-01   1.00800           0
     24539 LPSA23   1        ECLIPA   C79      CTL2    -0.180000       12.0110           0
     24540 LPSA23   1        ECLIPA   H79R     HAL2     0.900000E-01   1.00800           0
     24541 LPSA23   1        ECLIPA   H79S     HAL2     0.900000E-01   1.00800           0
     24542 LPSA23   1        ECLIPA   C710     CTL2    -0.180000       12.0110           0
     24543 LPSA23   1        ECLIPA   H710R    HAL2     0.900000E-01   1.00800           0
     24544 LPSA23   1        ECLIPA   H710S    HAL2     0.900000E-01   1.00800           0
     24545 LPSA23   1        ECLIPA   C711     CTL2    -0.180000       12.0110           0
     24546 LPSA23   1        ECLIPA   H711R    HAL2     0.900000E-01   1.00800           0
     24547 LPSA23   1        ECLIPA   H711S    HAL2     0.900000E-01   1.00800           0
     24548 LPSA23   1        ECLIPA   C712     CTL2    -0.180000       12.0110           0
     24549 LPSA23   1        ECLIPA   H712R    HAL2     0.900000E-01   1.00800           0
     24550 LPSA23   1        ECLIPA   H712S    HAL2     0.900000E-01   1.00800           0
     24551 LPSA23   1        ECLIPA   C713     CTL2    -0.180000       12.0110           0
     24552 LPSA23   1        ECLIPA   H713R    HAL2     0.900000E-01   1.00800           0
     24553 LPSA23   1        ECLIPA   H713S    HAL2     0.900000E-01   1.00800           0
     24554 LPSA23   1        ECLIPA   C714     CTL3    -0.270000       12.0110           0
     24555 LPSA23   1        ECLIPA   H714R    HAL3     0.900000E-01   1.00800           0
     24556 LPSA23   1        ECLIPA   H714S    HAL3     0.900000E-01   1.00800           0
     24557 LPSA23   1        ECLIPA   H714T    HAL3     0.900000E-01   1.00800           0
     24558 LPSA23   1        ECLIPA   C51      CC2O1    0.550000       12.0110           0
     24559 LPSA23   1        ECLIPA   O51      OC2D1   -0.550000       15.9994           0
     24560 LPSA23   1        ECLIPA   C52      CTL2    -0.180000       12.0110           0
     24561 LPSA23   1        ECLIPA   H52R     HAL2     0.900000E-01   1.00800           0
     24562 LPSA23   1        ECLIPA   H52S     HAL2     0.900000E-01   1.00800           0
     24563 LPSA23   1        ECLIPA   C53      CTL1     0.170000       12.0110           0
     24564 LPSA23   1        ECLIPA   H53R     HAL1     0.900000E-01   1.00800           0
     24565 LPSA23   1        ECLIPA   O53      OSL     -0.490000       15.9994           0
     24566 LPSA23   1        ECLIPA   C61      CL       0.900000       12.0110           0
     24567 LPSA23   1        ECLIPA   O61      OBL     -0.630000       15.9994           0
     24568 LPSA23   1        ECLIPA   C62      CTL2    -0.220000       12.0110           0
     24569 LPSA23   1        ECLIPA   H62R     HAL2     0.900000E-01   1.00800           0
     24570 LPSA23   1        ECLIPA   H62S     HAL2     0.900000E-01   1.00800           0
     24571 LPSA23   1        ECLIPA   C63      CTL2    -0.180000       12.0110           0
     24572 LPSA23   1        ECLIPA   H63R     HAL2     0.900000E-01   1.00800           0
     24573 LPSA23   1        ECLIPA   H63S     HAL2     0.900000E-01   1.00800           0
     24574 LPSA23   1        ECLIPA   C64      CTL2    -0.180000       12.0110           0
     24575 LPSA23   1        ECLIPA   H64R     HAL2     0.900000E-01   1.00800           0
     24576 LPSA23   1        ECLIPA   H64S     HAL2     0.900000E-01   1.00800           0
     24577 LPSA23   1        ECLIPA   C65      CTL2    -0.180000       12.0110           0
     24578 LPSA23   1        ECLIPA   H65R     HAL2     0.900000E-01   1.00800           0
     24579 LPSA23   1        ECLIPA   H65S     HAL2     0.900000E-01   1.00800           0
     24580 LPSA23   1        ECLIPA   C66      CTL2    -0.180000       12.0110           0
     24581 LPSA23   1        ECLIPA   H66R     HAL2     0.900000E-01   1.00800           0
     24582 LPSA23   1        ECLIPA   H66S     HAL2     0.900000E-01   1.00800           0
     24583 LPSA23   1        ECLIPA   C67      CTL2    -0.180000       12.0110           0
     24584 LPSA23   1        ECLIPA   H67R     HAL2     0.900000E-01   1.00800           0
     24585 LPSA23   1        ECLIPA   H67S     HAL2     0.900000E-01   1.00800           0
     24586 LPSA23   1        ECLIPA   C68      CTL2    -0.180000       12.0110           0
     24587 LPSA23   1        ECLIPA   H68R     HAL2     0.900000E-01   1.00800           0
     24588 LPSA23   1        ECLIPA   H68S     HAL2     0.900000E-01   1.00800           0
     24589 LPSA23   1        ECLIPA   C69      CTL2    -0.180000       12.0110           0
     24590 LPSA23   1        ECLIPA   H69R     HAL2     0.900000E-01   1.00800           0
     24591 LPSA23   1        ECLIPA   H69S     HAL2     0.900000E-01   1.00800           0
     24592 LPSA23   1        ECLIPA   C610     CTL2    -0.180000       12.0110           0
     24593 LPSA23   1        ECLIPA   H610R    HAL2     0.900000E-01   1.00800           0
     24594 LPSA23   1        ECLIPA   H610S    HAL2     0.900000E-01   1.00800           0
     24595 LPSA23   1        ECLIPA   C611     CTL2    -0.180000       12.0110           0
     24596 LPSA23   1        ECLIPA   H611R    HAL2     0.900000E-01   1.00800           0
     24597 LPSA23   1        ECLIPA   H611S    HAL2     0.900000E-01   1.00800           0
     24598 LPSA23   1        ECLIPA   C612     CTL3    -0.270000       12.0110           0
     24599 LPSA23   1        ECLIPA   H612R    HAL3     0.900000E-01   1.00800           0
     24600 LPSA23   1        ECLIPA   H612S    HAL3     0.900000E-01   1.00800           0
     24601 LPSA23   1        ECLIPA   H612T    HAL3     0.900000E-01   1.00800           0
     24602 LPSA23   1        ECLIPA   C54      CTL2    -0.180000       12.0110           0
     24603 LPSA23   1        ECLIPA   H54R     HAL2     0.900000E-01   1.00800           0
     24604 LPSA23   1        ECLIPA   H54S     HAL2     0.900000E-01   1.00800           0
     24605 LPSA23   1        ECLIPA   C55      CTL2    -0.180000       12.0110           0
     24606 LPSA23   1        ECLIPA   H55R     HAL2     0.900000E-01   1.00800           0
     24607 LPSA23   1        ECLIPA   H55S     HAL2     0.900000E-01   1.00800           0
     24608 LPSA23   1        ECLIPA   C56      CTL2    -0.180000       12.0110           0
     24609 LPSA23   1        ECLIPA   H56R     HAL2     0.900000E-01   1.00800           0
     24610 LPSA23   1        ECLIPA   H56S     HAL2     0.900000E-01   1.00800           0
     24611 LPSA23   1        ECLIPA   C57      CTL2    -0.180000       12.0110           0
     24612 LPSA23   1        ECLIPA   H57R     HAL2     0.900000E-01   1.00800           0
     24613 LPSA23   1        ECLIPA   H57S     HAL2     0.900000E-01   1.00800           0
     24614 LPSA23   1        ECLIPA   C58      CTL2    -0.180000       12.0110           0
     24615 LPSA23   1        ECLIPA   H58R     HAL2     0.900000E-01   1.00800           0
     24616 LPSA23   1        ECLIPA   H58S     HAL2     0.900000E-01   1.00800           0
     24617 LPSA23   1        ECLIPA   C59      CTL2    -0.180000       12.0110           0
     24618 LPSA23   1        ECLIPA   H59R     HAL2     0.900000E-01   1.00800           0
     24619 LPSA23   1        ECLIPA   H59S     HAL2     0.900000E-01   1.00800           0
     24620 LPSA23   1        ECLIPA   C510     CTL2    -0.180000       12.0110           0
     24621 LPSA23   1        ECLIPA   H510R    HAL2     0.900000E-01   1.00800           0
     24622 LPSA23   1        ECLIPA   H510S    HAL2     0.900000E-01   1.00800           0
     24623 LPSA23   1        ECLIPA   C511     CTL2    -0.180000       12.0110           0
     24624 LPSA23   1        ECLIPA   H511R    HAL2     0.900000E-01   1.00800           0
     24625 LPSA23   1        ECLIPA   H511S    HAL2     0.900000E-01   1.00800           0
     24626 LPSA23   1        ECLIPA   C512     CTL2    -0.180000       12.0110           0
     24627 LPSA23   1        ECLIPA   H512R    HAL2     0.900000E-01   1.00800           0
     24628 LPSA23   1        ECLIPA   H512S    HAL2     0.900000E-01   1.00800           0
     24629 LPSA23   1        ECLIPA   C513     CTL2    -0.180000       12.0110           0
     24630 LPSA23   1        ECLIPA   H513R    HAL2     0.900000E-01   1.00800           0
     24631 LPSA23   1        ECLIPA   H513S    HAL2     0.900000E-01   1.00800           0
     24632 LPSA23   1        ECLIPA   C514     CTL3    -0.270000       12.0110           0
     24633 LPSA23   1        ECLIPA   H514R    HAL3     0.900000E-01   1.00800           0
     24634 LPSA23   1        ECLIPA   H514S    HAL3     0.900000E-01   1.00800           0
     24635 LPSA23   1        ECLIPA   H514T    HAL3     0.900000E-01   1.00800           0
     24636 LPSA23   1        ECLIPA   C33      CTL1     0.140000       12.0110           0
     24637 LPSA23   1        ECLIPA   H33R     HAL1     0.900000E-01   1.00800           0
     24638 LPSA23   1        ECLIPA   O33      OH1     -0.660000       15.9994           0
     24639 LPSA23   1        ECLIPA   HO33     H        0.430000       1.00800           0
     24640 LPSA23   1        ECLIPA   C34      CTL2    -0.180000       12.0110           0
     24641 LPSA23   1        ECLIPA   H34R     HAL2     0.900000E-01   1.00800           0
     24642 LPSA23   1        ECLIPA   H34S     HAL2     0.900000E-01   1.00800           0
     24643 LPSA23   1        ECLIPA   C35      CTL2    -0.180000       12.0110           0
     24644 LPSA23   1        ECLIPA   H35R     HAL2     0.900000E-01   1.00800           0
     24645 LPSA23   1        ECLIPA   H35S     HAL2     0.900000E-01   1.00800           0
     24646 LPSA23   1        ECLIPA   C36      CTL2    -0.180000       12.0110           0
     24647 LPSA23   1        ECLIPA   H36R     HAL2     0.900000E-01   1.00800           0
     24648 LPSA23   1        ECLIPA   H36S     HAL2     0.900000E-01   1.00800           0
     24649 LPSA23   1        ECLIPA   C37      CTL2    -0.180000       12.0110           0
     24650 LPSA23   1        ECLIPA   H37R     HAL2     0.900000E-01   1.00800           0
     24651 LPSA23   1        ECLIPA   H37S     HAL2     0.900000E-01   1.00800           0
     24652 LPSA23   1        ECLIPA   C38      CTL2    -0.180000       12.0110           0
     24653 LPSA23   1        ECLIPA   H38R     HAL2     0.900000E-01   1.00800           0
     24654 LPSA23   1        ECLIPA   H38S     HAL2     0.900000E-01   1.00800           0
     24655 LPSA23   1        ECLIPA   C39      CTL2    -0.180000       12.0110           0
     24656 LPSA23   1        ECLIPA   H39R     HAL2     0.900000E-01   1.00800           0
     24657 LPSA23   1        ECLIPA   H39S     HAL2     0.900000E-01   1.00800           0
     24658 LPSA23   1        ECLIPA   C310     CTL2    -0.180000       12.0110           0
     24659 LPSA23   1        ECLIPA   H310R    HAL2     0.900000E-01   1.00800           0
     24660 LPSA23   1        ECLIPA   H310S    HAL2     0.900000E-01   1.00800           0
     24661 LPSA23   1        ECLIPA   C311     CTL2    -0.180000       12.0110           0
     24662 LPSA23   1        ECLIPA   H311R    HAL2     0.900000E-01   1.00800           0
     24663 LPSA23   1        ECLIPA   H311S    HAL2     0.900000E-01   1.00800           0
     24664 LPSA23   1        ECLIPA   C312     CTL2    -0.180000       12.0110           0
     24665 LPSA23   1        ECLIPA   H312R    HAL2     0.900000E-01   1.00800           0
     24666 LPSA23   1        ECLIPA   H312S    HAL2     0.900000E-01   1.00800           0
     24667 LPSA23   1        ECLIPA   C313     CTL2    -0.180000       12.0110           0
     24668 LPSA23   1        ECLIPA   H313R    HAL2     0.900000E-01   1.00800           0
     24669 LPSA23   1        ECLIPA   H313S    HAL2     0.900000E-01   1.00800           0
     24670 LPSA23   1        ECLIPA   C314     CTL3    -0.270000       12.0110           0
     24671 LPSA23   1        ECLIPA   H314R    HAL3     0.900000E-01   1.00800           0
     24672 LPSA23   1        ECLIPA   H314S    HAL3     0.900000E-01   1.00800           0
     24673 LPSA23   1        ECLIPA   H314T    HAL3     0.900000E-01   1.00800           0
     24674 LPSA23   1        ECLIPA   C11      CC2O1    0.550000       12.0110           0
     24675 LPSA23   1        ECLIPA   O11      OC2D1   -0.550000       15.9994           0
     24676 LPSA23   1        ECLIPA   C12      CTL2    -0.180000       12.0110           0
     24677 LPSA23   1        ECLIPA   H12R     HAL2     0.900000E-01   1.00800           0
     24678 LPSA23   1        ECLIPA   H12S     HAL2     0.900000E-01   1.00800           0
     24679 LPSA23   1        ECLIPA   C13      CTL1     0.140000       12.0110           0
     24680 LPSA23   1        ECLIPA   H13R     HAL1     0.900000E-01   1.00800           0
     24681 LPSA23   1        ECLIPA   O13      OH1     -0.660000       15.9994           0
     24682 LPSA23   1        ECLIPA   HO13     H        0.430000       1.00800           0
     24683 LPSA23   1        ECLIPA   C14      CTL2    -0.180000       12.0110           0
     24684 LPSA23   1        ECLIPA   H14R     HAL2     0.900000E-01   1.00800           0
     24685 LPSA23   1        ECLIPA   H14S     HAL2     0.900000E-01   1.00800           0
     24686 LPSA23   1        ECLIPA   C15      CTL2    -0.180000       12.0110           0
     24687 LPSA23   1        ECLIPA   H15R     HAL2     0.900000E-01   1.00800           0
     24688 LPSA23   1        ECLIPA   H15S     HAL2     0.900000E-01   1.00800           0
     24689 LPSA23   1        ECLIPA   C16      CTL2    -0.180000       12.0110           0
     24690 LPSA23   1        ECLIPA   H16R     HAL2     0.900000E-01   1.00800           0
     24691 LPSA23   1        ECLIPA   H16S     HAL2     0.900000E-01   1.00800           0
     24692 LPSA23   1        ECLIPA   C17      CTL2    -0.180000       12.0110           0
     24693 LPSA23   1        ECLIPA   H17R     HAL2     0.900000E-01   1.00800           0
     24694 LPSA23   1        ECLIPA   H17S     HAL2     0.900000E-01   1.00800           0
     24695 LPSA23   1        ECLIPA   C18      CTL2    -0.180000       12.0110           0
     24696 LPSA23   1        ECLIPA   H18R     HAL2     0.900000E-01   1.00800           0
     24697 LPSA23   1        ECLIPA   H18S     HAL2     0.900000E-01   1.00800           0
     24698 LPSA23   1        ECLIPA   C19      CTL2    -0.180000       12.0110           0
     24699 LPSA23   1        ECLIPA   H19R     HAL2     0.900000E-01   1.00800           0
     24700 LPSA23   1        ECLIPA   H19S     HAL2     0.900000E-01   1.00800           0
     24701 LPSA23   1        ECLIPA   C110     CTL2    -0.180000       12.0110           0
     24702 LPSA23   1        ECLIPA   H110R    HAL2     0.900000E-01   1.00800           0
     24703 LPSA23   1        ECLIPA   H110S    HAL2     0.900000E-01   1.00800           0
     24704 LPSA23   1        ECLIPA   C111     CTL2    -0.180000       12.0110           0
     24705 LPSA23   1        ECLIPA   H111R    HAL2     0.900000E-01   1.00800           0
     24706 LPSA23   1        ECLIPA   H111S    HAL2     0.900000E-01   1.00800           0
     24707 LPSA23   1        ECLIPA   C112     CTL2    -0.180000       12.0110           0
     24708 LPSA23   1        ECLIPA   H112R    HAL2     0.900000E-01   1.00800           0
     24709 LPSA23   1        ECLIPA   H112S    HAL2     0.900000E-01   1.00800           0
     24710 LPSA23   1        ECLIPA   C113     CTL2    -0.180000       12.0110           0
     24711 LPSA23   1        ECLIPA   H113R    HAL2     0.900000E-01   1.00800           0
     24712 LPSA23   1        ECLIPA   H113S    HAL2     0.900000E-01   1.00800           0
     24713 LPSA23   1        ECLIPA   C114     CTL3    -0.270000       12.0110           0
     24714 LPSA23   1        ECLIPA   H114R    HAL3     0.900000E-01   1.00800           0
     24715 LPSA23   1        ECLIPA   H114S    HAL3     0.900000E-01   1.00800           0
     24716 LPSA23   1        ECLIPA   H114T    HAL3     0.900000E-01   1.00800           0
     24717 LPSA23   2        AKDO     C1       CC2O2    0.300000       12.0110           0
     24718 LPSA23   2        AKDO     O11      OC2D2   -0.600000       15.9994           0
     24719 LPSA23   2        AKDO     O12      OC2D2   -0.600000       15.9994           0
     24720 LPSA23   2        AKDO     C2       CC3062   0.280000       12.0110           0
     24721 LPSA23   2        AKDO     C6       CC3163   0.110000       12.0110           0
     24722 LPSA23   2        AKDO     H6       HCA1     0.900000E-01   1.00800           0
     24723 LPSA23   2        AKDO     O6       OC3C61  -0.400000       15.9994           0
     24724 LPSA23   2        AKDO     C3       CC3261  -0.180000       12.0110           0
     24725 LPSA23   2        AKDO     H31      HCA2     0.900000E-01   1.00800           0
     24726 LPSA23   2        AKDO     H32      HCA2     0.900000E-01   1.00800           0
     24727 LPSA23   2        AKDO     C4       CC3161   0.900000E-01   12.0110           0
     24728 LPSA23   2        AKDO     H4       HCA1     0.900000E-01   1.00800           0
     24729 LPSA23   2        AKDO     O4       OC301   -0.360000       15.9994           0
     24730 LPSA23   2        AKDO     C5       CC3161   0.900000E-01   12.0110           0
     24731 LPSA23   2        AKDO     H5       HCA1     0.900000E-01   1.00800           0
     24732 LPSA23   2        AKDO     O5       OC301   -0.360000       15.9994           0
     24733 LPSA23   2        AKDO     C7       CC312    0.140000       12.0110           0
     24734 LPSA23   2        AKDO     H7       HCA1     0.900000E-01   1.00800           0
     24735 LPSA23   2        AKDO     O7       OC311   -0.650000       15.9994           0
     24736 LPSA23   2        AKDO     HO7      HCP1     0.420000       1.00800           0
     24737 LPSA23   2        AKDO     C8       CC322    0.500000E-01   12.0110           0
     24738 LPSA23   2        AKDO     H81      HCA2     0.900000E-01   1.00800           0
     24739 LPSA23   2        AKDO     H82      HCA2     0.900000E-01   1.00800           0
     24740 LPSA23   2        AKDO     O8       OC311   -0.650000       15.9994           0
     24741 LPSA23   2        AKDO     HO8      HCP1     0.420000       1.00800           0
     24742 LPSA23   3        AKDO     C1       CC2O2    0.300000       12.0110           0
     24743 LPSA23   3        AKDO     O11      OC2D2   -0.600000       15.9994           0
     24744 LPSA23   3        AKDO     O12      OC2D2   -0.600000       15.9994           0
     24745 LPSA23   3        AKDO     C2       CC3062   0.280000       12.0110           0
     24746 LPSA23   3        AKDO     C6       CC3163   0.110000       12.0110           0
     24747 LPSA23   3        AKDO     H6       HCA1     0.900000E-01   1.00800           0
     24748 LPSA23   3        AKDO     O6       OC3C61  -0.400000       15.9994           0
     24749 LPSA23   3        AKDO     C3       CC3261  -0.180000       12.0110           0
     24750 LPSA23   3        AKDO     H31      HCA2     0.900000E-01   1.00800           0
     24751 LPSA23   3        AKDO     H32      HCA2     0.900000E-01   1.00800           0
     24752 LPSA23   3        AKDO     C4       CC3161   0.140000       12.0110           0
     24753 LPSA23   3        AKDO     H4       HCA1     0.900000E-01   1.00800           0
     24754 LPSA23   3        AKDO     O4       OC311   -0.650000       15.9994           0
     24755 LPSA23   3        AKDO     HO4      HCP1     0.420000       1.00800           0
     24756 LPSA23   3        AKDO     C5       CC3161   0.140000       12.0110           0
     24757 LPSA23   3        AKDO     H5       HCA1     0.900000E-01   1.00800           0
     24758 LPSA23   3        AKDO     O5       OC311   -0.650000       15.9994           0
     24759 LPSA23   3        AKDO     HO5      HCP1     0.420000       1.00800           0
     24760 LPSA23   3        AKDO     C7       CC312    0.140000       12.0110           0
     24761 LPSA23   3        AKDO     H7       HCA1     0.900000E-01   1.00800           0
     24762 LPSA23   3        AKDO     O7       OC311   -0.650000       15.9994           0
     24763 LPSA23   3        AKDO     HO7      HCP1     0.420000       1.00800           0
     24764 LPSA23   3        AKDO     C8       CC322    0.500000E-01   12.0110           0
     24765 LPSA23   3        AKDO     H81      HCA2     0.900000E-01   1.00800           0
     24766 LPSA23   3        AKDO     H82      HCA2     0.900000E-01   1.00800           0
     24767 LPSA23   3        AKDO     O8       OC311   -0.650000       15.9994           0
     24768 LPSA23   3        AKDO     HO8      HCP1     0.420000       1.00800           0
     24769 LPSA23   4        AHEP     C1       CC3162   0.290000       12.0110           0
     24770 LPSA23   4        AHEP     H1       HCA1     0.900000E-01   1.00800           0
     24771 LPSA23   4        AHEP     C5       CC3163   0.110000       12.0110           0
     24772 LPSA23   4        AHEP     H5       HCA1     0.900000E-01   1.00800           0
     24773 LPSA23   4        AHEP     O5       OC3C61  -0.400000       15.9994           0
     24774 LPSA23   4        AHEP     C2       CC3161   0.140000       12.0110           0
     24775 LPSA23   4        AHEP     H2       HCA1     0.900000E-01   1.00800           0
     24776 LPSA23   4        AHEP     O2       OC311   -0.650000       15.9994           0
     24777 LPSA23   4        AHEP     HO2      HCP1     0.420000       1.00800           0
     24778 LPSA23   4        AHEP     C3       CC3161   0.900000E-01   12.0110           0
     24779 LPSA23   4        AHEP     H3       HCA1     0.900000E-01   1.00800           0
     24780 LPSA23   4        AHEP     O3       OC301   -0.360000       15.9994           0
     24781 LPSA23   4        AHEP     C4       CC3161  -0.900000E-01   12.0110           0
     24782 LPSA23   4        AHEP     H4       HCA1     0.900000E-01   1.00800           0
     24783 LPSA23   4        AHEP     O4       OC30P   -0.400000       15.9994           0
     24784 LPSA23   4        AHEP     P4       PC        1.10000       30.9740           0
     24785 LPSA23   4        AHEP     OP42     OC2DP   -0.900000       15.9994           0
     24786 LPSA23   4        AHEP     OP43     OC2DP   -0.900000       15.9994           0
     24787 LPSA23   4        AHEP     OP44     OC2DP   -0.900000       15.9994           0
     24788 LPSA23   4        AHEP     C6       CC312    0.140000       12.0110           0
     24789 LPSA23   4        AHEP     H6       HCA1     0.900000E-01   1.00800           0
     24790 LPSA23   4        AHEP     O6       OC311   -0.650000       15.9994           0
     24791 LPSA23   4        AHEP     HO6      HCP1     0.420000       1.00800           0
     24792 LPSA23   4        AHEP     C7       CC322    0.500000E-01   12.0110           0
     24793 LPSA23   4        AHEP     H71      HCA2     0.900000E-01   1.00800           0
     24794 LPSA23   4        AHEP     H72      HCA2     0.900000E-01   1.00800           0
     24795 LPSA23   4        AHEP     O7       OC311   -0.650000       15.9994           0
     24796 LPSA23   4        AHEP     HO7      HCP1     0.420000       1.00800           0
     24797 LPSA23   5        AHEP     C1       CC3162   0.290000       12.0110           0
     24798 LPSA23   5        AHEP     H1       HCA1     0.900000E-01   1.00800           0
     24799 LPSA23   5        AHEP     C5       CC3163   0.110000       12.0110           0
     24800 LPSA23   5        AHEP     H5       HCA1     0.900000E-01   1.00800           0
     24801 LPSA23   5        AHEP     O5       OC3C61  -0.400000       15.9994           0
     24802 LPSA23   5        AHEP     C2       CC3161   0.140000       12.0110           0
     24803 LPSA23   5        AHEP     H2       HCA1     0.900000E-01   1.00800           0
     24804 LPSA23   5        AHEP     O2       OC311   -0.650000       15.9994           0
     24805 LPSA23   5        AHEP     HO2      HCP1     0.420000       1.00800           0
     24806 LPSA23   5        AHEP     C3       CC3161   0.900000E-01   12.0110           0
     24807 LPSA23   5        AHEP     H3       HCA1     0.900000E-01   1.00800           0
     24808 LPSA23   5        AHEP     O3       OC301   -0.360000       15.9994           0
     24809 LPSA23   5        AHEP     C4       CC3161  -0.900000E-01   12.0110           0
     24810 LPSA23   5        AHEP     H4       HCA1     0.900000E-01   1.00800           0
     24811 LPSA23   5        AHEP     O4       OC30P   -0.400000       15.9994           0
     24812 LPSA23   5        AHEP     P4       PC        1.10000       30.9740           0
     24813 LPSA23   5        AHEP     OP42     OC2DP   -0.900000       15.9994           0
     24814 LPSA23   5        AHEP     OP43     OC2DP   -0.900000       15.9994           0
     24815 LPSA23   5        AHEP     OP44     OC2DP   -0.900000       15.9994           0
     24816 LPSA23   5        AHEP     C6       CC312    0.140000       12.0110           0
     24817 LPSA23   5        AHEP     H6       HCA1     0.900000E-01   1.00800           0
     24818 LPSA23   5        AHEP     O6       OC311   -0.650000       15.9994           0
     24819 LPSA23   5        AHEP     HO6      HCP1     0.420000       1.00800           0
     24820 LPSA23   5        AHEP     C7       CC322     0.00000       12.0110           0
     24821 LPSA23   5        AHEP     H71      HCA2     0.900000E-01   1.00800           0
     24822 LPSA23   5        AHEP     H72      HCA2     0.900000E-01   1.00800           0
     24823 LPSA23   5        AHEP     O7       OC301   -0.360000       15.9994           0
     24824 LPSA23   6        AHEP     C1       CC3162   0.290000       12.0110           0
     24825 LPSA23   6        AHEP     H1       HCA1     0.900000E-01   1.00800           0
     24826 LPSA23   6        AHEP     C5       CC3163   0.110000       12.0110           0
     24827 LPSA23   6        AHEP     H5       HCA1     0.900000E-01   1.00800           0
     24828 LPSA23   6        AHEP     O5       OC3C61  -0.400000       15.9994           0
     24829 LPSA23   6        AHEP     C2       CC3161   0.140000       12.0110           0
     24830 LPSA23   6        AHEP     H2       HCA1     0.900000E-01   1.00800           0
     24831 LPSA23   6        AHEP     O2       OC311   -0.650000       15.9994           0
     24832 LPSA23   6        AHEP     HO2      HCP1     0.420000       1.00800           0
     24833 LPSA23   6        AHEP     C3       CC3161   0.140000       12.0110           0
     24834 LPSA23   6        AHEP     H3       HCA1     0.900000E-01   1.00800           0
     24835 LPSA23   6        AHEP     O3       OC311   -0.650000       15.9994           0
     24836 LPSA23   6        AHEP     HO3      HCP1     0.420000       1.00800           0
     24837 LPSA23   6        AHEP     C4       CC3161   0.140000       12.0110           0
     24838 LPSA23   6        AHEP     H4       HCA1     0.900000E-01   1.00800           0
     24839 LPSA23   6        AHEP     O4       OC311   -0.650000       15.9994           0
     24840 LPSA23   6        AHEP     HO4      HCP1     0.420000       1.00800           0
     24841 LPSA23   6        AHEP     C6       CC312    0.140000       12.0110           0
     24842 LPSA23   6        AHEP     H6       HCA1     0.900000E-01   1.00800           0
     24843 LPSA23   6        AHEP     O6       OC311   -0.650000       15.9994           0
     24844 LPSA23   6        AHEP     HO6      HCP1     0.420000       1.00800           0
     24845 LPSA23   6        AHEP     C7       CC322    0.500000E-01   12.0110           0
     24846 LPSA23   6        AHEP     H71      HCA2     0.900000E-01   1.00800           0
     24847 LPSA23   6        AHEP     H72      HCA2     0.900000E-01   1.00800           0
     24848 LPSA23   6        AHEP     O7       OC311   -0.650000       15.9994           0
     24849 LPSA23   6        AHEP     HO7      HCP1     0.420000       1.00800           0
     24850 LPSA23   7        AGLC     C1       CC3162   0.290000       12.0110           0
     24851 LPSA23   7        AGLC     H1       HCA1     0.900000E-01   1.00800           0
     24852 LPSA23   7        AGLC     C5       CC3163   0.110000       12.0110           0
     24853 LPSA23   7        AGLC     H5       HCA1     0.900000E-01   1.00800           0
     24854 LPSA23   7        AGLC     O5       OC3C61  -0.400000       15.9994           0
     24855 LPSA23   7        AGLC     C2       CC3161   0.140000       12.0110           0
     24856 LPSA23   7        AGLC     H2       HCA1     0.900000E-01   1.00800           0
     24857 LPSA23   7        AGLC     O2       OC311   -0.650000       15.9994           0
     24858 LPSA23   7        AGLC     HO2      HCP1     0.420000       1.00800           0
     24859 LPSA23   7        AGLC     C3       CC3161   0.900000E-01   12.0110           0
     24860 LPSA23   7        AGLC     H3       HCA1     0.900000E-01   1.00800           0
     24861 LPSA23   7        AGLC     O3       OC301   -0.360000       15.9994           0
     24862 LPSA23   7        AGLC     C4       CC3161   0.140000       12.0110           0
     24863 LPSA23   7        AGLC     H4       HCA1     0.900000E-01   1.00800           0
     24864 LPSA23   7        AGLC     O4       OC311   -0.650000       15.9994           0
     24865 LPSA23   7        AGLC     HO4      HCP1     0.420000       1.00800           0
     24866 LPSA23   7        AGLC     C6       CC321    0.500000E-01   12.0110           0
     24867 LPSA23   7        AGLC     H61      HCA2     0.900000E-01   1.00800           0
     24868 LPSA23   7        AGLC     H62      HCA2     0.900000E-01   1.00800           0
     24869 LPSA23   7        AGLC     O6       OC311   -0.650000       15.9994           0
     24870 LPSA23   7        AGLC     HO6      HCP1     0.420000       1.00800           0
     24871 LPSA23   8        AGLC     C1       CC3162   0.290000       12.0110           0
     24872 LPSA23   8        AGLC     H1       HCA1     0.900000E-01   1.00800           0
     24873 LPSA23   8        AGLC     C5       CC3163   0.110000       12.0110           0
     24874 LPSA23   8        AGLC     H5       HCA1     0.900000E-01   1.00800           0
     24875 LPSA23   8        AGLC     O5       OC3C61  -0.400000       15.9994           0
     24876 LPSA23   8        AGLC     C2       CC3161   0.900000E-01   12.0110           0
     24877 LPSA23   8        AGLC     H2       HCA1     0.900000E-01   1.00800           0
     24878 LPSA23   8        AGLC     O2       OC301   -0.360000       15.9994           0
     24879 LPSA23   8        AGLC     C3       CC3161   0.900000E-01   12.0110           0
     24880 LPSA23   8        AGLC     H3       HCA1     0.900000E-01   1.00800           0
     24881 LPSA23   8        AGLC     O3       OC301   -0.360000       15.9994           0
     24882 LPSA23   8        AGLC     C4       CC3161   0.140000       12.0110           0
     24883 LPSA23   8        AGLC     H4       HCA1     0.900000E-01   1.00800           0
     24884 LPSA23   8        AGLC     O4       OC311   -0.650000       15.9994           0
     24885 LPSA23   8        AGLC     HO4      HCP1     0.420000       1.00800           0
     24886 LPSA23   8        AGLC     C6       CC321    0.500000E-01   12.0110           0
     24887 LPSA23   8        AGLC     H61      HCA2     0.900000E-01   1.00800           0
     24888 LPSA23   8        AGLC     H62      HCA2     0.900000E-01   1.00800           0
     24889 LPSA23   8        AGLC     O6       OC311   -0.650000       15.9994           0
     24890 LPSA23   8        AGLC     HO6      HCP1     0.420000       1.00800           0
     24891 LPSA23   9        AGAL     C1       CC3162   0.290000       12.0110           0
     24892 LPSA23   9        AGAL     H1       HCA1     0.900000E-01   1.00800           0
     24893 LPSA23   9        AGAL     C5       CC3163   0.110000       12.0110           0
     24894 LPSA23   9        AGAL     H5       HCA1     0.900000E-01   1.00800           0
     24895 LPSA23   9        AGAL     O5       OC3C61  -0.400000       15.9994           0
     24896 LPSA23   9        AGAL     C2       CC3161   0.900000E-01   12.0110           0
     24897 LPSA23   9        AGAL     H2       HCA1     0.900000E-01   1.00800           0
     24898 LPSA23   9        AGAL     O2       OC301   -0.360000       15.9994           0
     24899 LPSA23   9        AGAL     C3       CC3161   0.140000       12.0110           0
     24900 LPSA23   9        AGAL     H3       HCA1     0.900000E-01   1.00800           0
     24901 LPSA23   9        AGAL     O3       OC311   -0.650000       15.9994           0
     24902 LPSA23   9        AGAL     HO3      HCP1     0.420000       1.00800           0
     24903 LPSA23   9        AGAL     C4       CC3161   0.140000       12.0110           0
     24904 LPSA23   9        AGAL     H4       HCA1     0.900000E-01   1.00800           0
     24905 LPSA23   9        AGAL     O4       OC311   -0.650000       15.9994           0
     24906 LPSA23   9        AGAL     HO4      HCP1     0.420000       1.00800           0
     24907 LPSA23   9        AGAL     C6       CC321    0.500000E-01   12.0110           0
     24908 LPSA23   9        AGAL     H61      HCA2     0.900000E-01   1.00800           0
     24909 LPSA23   9        AGAL     H62      HCA2     0.900000E-01   1.00800           0
     24910 LPSA23   9        AGAL     O6       OC311   -0.650000       15.9994           0
     24911 LPSA23   9        AGAL     HO6      HCP1     0.420000       1.00800           0
     24912 LPSA23   10       AGAL     C1       CC3162   0.290000       12.0110           0
     24913 LPSA23   10       AGAL     H1       HCA1     0.900000E-01   1.00800           0
     24914 LPSA23   10       AGAL     C5       CC3163   0.110000       12.0110           0
     24915 LPSA23   10       AGAL     H5       HCA1     0.900000E-01   1.00800           0
     24916 LPSA23   10       AGAL     O5       OC3C61  -0.400000       15.9994           0
     24917 LPSA23   10       AGAL     C2       CC3161   0.140000       12.0110           0
     24918 LPSA23   10       AGAL     H2       HCA1     0.900000E-01   1.00800           0
     24919 LPSA23   10       AGAL     O2       OC311   -0.650000       15.9994           0
     24920 LPSA23   10       AGAL     HO2      HCP1     0.420000       1.00800           0
     24921 LPSA23   10       AGAL     C3       CC3161   0.140000       12.0110           0
     24922 LPSA23   10       AGAL     H3       HCA1     0.900000E-01   1.00800           0
     24923 LPSA23   10       AGAL     O3       OC311   -0.650000       15.9994           0
     24924 LPSA23   10       AGAL     HO3      HCP1     0.420000       1.00800           0
     24925 LPSA23   10       AGAL     C4       CC3161   0.140000       12.0110           0
     24926 LPSA23   10       AGAL     H4       HCA1     0.900000E-01   1.00800           0
     24927 LPSA23   10       AGAL     O4       OC311   -0.650000       15.9994           0
     24928 LPSA23   10       AGAL     HO4      HCP1     0.420000       1.00800           0
     24929 LPSA23   10       AGAL     C6       CC321    0.500000E-01   12.0110           0
     24930 LPSA23   10       AGAL     H61      HCA2     0.900000E-01   1.00800           0
     24931 LPSA23   10       AGAL     H62      HCA2     0.900000E-01   1.00800           0
     24932 LPSA23   10       AGAL     O6       OC311   -0.650000       15.9994           0
     24933 LPSA23   10       AGAL     HO6      HCP1     0.420000       1.00800           0
     24934 LPSA23   11       BGLC     C1       CC3162   0.290000       12.0110           0
     24935 LPSA23   11       BGLC     H1       HCA1     0.900000E-01   1.00800           0
     24936 LPSA23   11       BGLC     C5       CC3163   0.110000       12.0110           0
     24937 LPSA23   11       BGLC     H5       HCA1     0.900000E-01   1.00800           0
     24938 LPSA23   11       BGLC     O5       OC3C61  -0.400000       15.9994           0
     24939 LPSA23   11       BGLC     C2       CC3161   0.140000       12.0110           0
     24940 LPSA23   11       BGLC     H2       HCA1     0.900000E-01   1.00800           0
     24941 LPSA23   11       BGLC     O2       OC311   -0.650000       15.9994           0
     24942 LPSA23   11       BGLC     HO2      HCP1     0.420000       1.00800           0
     24943 LPSA23   11       BGLC     C3       CC3161   0.900000E-01   12.0110           0
     24944 LPSA23   11       BGLC     H3       HCA1     0.900000E-01   1.00800           0
     24945 LPSA23   11       BGLC     O3       OC301   -0.360000       15.9994           0
     24946 LPSA23   11       BGLC     C4       CC3161   0.140000       12.0110           0
     24947 LPSA23   11       BGLC     H4       HCA1     0.900000E-01   1.00800           0
     24948 LPSA23   11       BGLC     O4       OC311   -0.650000       15.9994           0
     24949 LPSA23   11       BGLC     HO4      HCP1     0.420000       1.00800           0
     24950 LPSA23   11       BGLC     C6       CC321    0.500000E-01   12.0110           0
     24951 LPSA23   11       BGLC     H61      HCA2     0.900000E-01   1.00800           0
     24952 LPSA23   11       BGLC     H62      HCA2     0.900000E-01   1.00800           0
     24953 LPSA23   11       BGLC     O6       OC311   -0.650000       15.9994           0
     24954 LPSA23   11       BGLC     HO6      HCP1     0.420000       1.00800           0
     24955 LPSA23   12       BGLCNA   C1       CC3162   0.290000       12.0110           0
     24956 LPSA23   12       BGLCNA   H1       HCA1     0.900000E-01   1.00800           0
     24957 LPSA23   12       BGLCNA   C5       CC3163   0.110000       12.0110           0
     24958 LPSA23   12       BGLCNA   H5       HCA1     0.900000E-01   1.00800           0
     24959 LPSA23   12       BGLCNA   O5       OC3C61  -0.400000       15.9994           0
     24960 LPSA23   12       BGLCNA   C2       CC3161   0.700000E-01   12.0110           0
     24961 LPSA23   12       BGLCNA   H2       HCA1     0.900000E-01   1.00800           0
     24962 LPSA23   12       BGLCNA   N        NC2D1   -0.470000       14.0070           0
     24963 LPSA23   12       BGLCNA   HN       HCP1     0.310000       1.00800           0
     24964 LPSA23   12       BGLCNA   C        CC2O1    0.510000       12.0110           0
     24965 LPSA23   12       BGLCNA   O        OC2D1   -0.510000       15.9994           0
     24966 LPSA23   12       BGLCNA   CT       CC331   -0.270000       12.0110           0
     24967 LPSA23   12       BGLCNA   HT1      HCA3     0.900000E-01   1.00800           0
     24968 LPSA23   12       BGLCNA   HT2      HCA3     0.900000E-01   1.00800           0
     24969 LPSA23   12       BGLCNA   HT3      HCA3     0.900000E-01   1.00800           0
     24970 LPSA23   12       BGLCNA   C3       CC3161   0.900000E-01   12.0110           0
     24971 LPSA23   12       BGLCNA   H3       HCA1     0.900000E-01   1.00800           0
     24972 LPSA23   12       BGLCNA   O3       OC301   -0.360000       15.9994           0
     24973 LPSA23   12       BGLCNA   C4       CC3161   0.140000       12.0110           0
     24974 LPSA23   12       BGLCNA   H4       HCA1     0.900000E-01   1.00800           0
     24975 LPSA23   12       BGLCNA   O4       OC311   -0.650000       15.9994           0
     24976 LPSA23   12       BGLCNA   HO4      HCP1     0.420000       1.00800           0
     24977 LPSA23   12       BGLCNA   C6       CC321    0.500000E-01   12.0110           0
     24978 LPSA23   12       BGLCNA   H61      HCA2     0.900000E-01   1.00800           0
     24979 LPSA23   12       BGLCNA   H62      HCA2     0.900000E-01   1.00800           0
     24980 LPSA23   12       BGLCNA   O6       OC311   -0.650000       15.9994           0
     24981 LPSA23   12       BGLCNA   HO6      HCP1     0.420000       1.00800           0
     24982 LPSA23   13       AGAL     C1       CC3162   0.290000       12.0110           0
     24983 LPSA23   13       AGAL     H1       HCA1     0.900000E-01   1.00800           0
     24984 LPSA23   13       AGAL     C5       CC3163   0.110000       12.0110           0
     24985 LPSA23   13       AGAL     H5       HCA1     0.900000E-01   1.00800           0
     24986 LPSA23   13       AGAL     O5       OC3C61  -0.400000       15.9994           0
     24987 LPSA23   13       AGAL     C2       CC3161   0.900000E-01   12.0110           0
     24988 LPSA23   13       AGAL     H2       HCA1     0.900000E-01   1.00800           0
     24989 LPSA23   13       AGAL     O2       OC301   -0.360000       15.9994           0
     24990 LPSA23   13       AGAL     C3       CC3161   0.140000       12.0110           0
     24991 LPSA23   13       AGAL     H3       HCA1     0.900000E-01   1.00800           0
     24992 LPSA23   13       AGAL     O3       OC311   -0.650000       15.9994           0
     24993 LPSA23   13       AGAL     HO3      HCP1     0.420000       1.00800           0
     24994 LPSA23   13       AGAL     C4       CC3161   0.140000       12.0110           0
     24995 LPSA23   13       AGAL     H4       HCA1     0.900000E-01   1.00800           0
     24996 LPSA23   13       AGAL     O4       OC311   -0.650000       15.9994           0
     24997 LPSA23   13       AGAL     HO4      HCP1     0.420000       1.00800           0
     24998 LPSA23   13       AGAL     C6       CC321    0.500000E-01   12.0110           0
     24999 LPSA23   13       AGAL     H61      HCA2     0.900000E-01   1.00800           0
     25000 LPSA23   13       AGAL     H62      HCA2     0.900000E-01   1.00800           0
     25001 LPSA23   13       AGAL     O6       OC311   -0.650000       15.9994           0
     25002 LPSA23   13       AGAL     HO6      HCP1     0.420000       1.00800           0
     25003 LPSA23   14       ARHM     C1       CC3162   0.290000       12.0110           0
     25004 LPSA23   14       ARHM     H1       HCA1     0.900000E-01   1.00800           0
     25005 LPSA23   14       ARHM     C5       CC3163   0.110000       12.0110           0
     25006 LPSA23   14       ARHM     H5       HCA1     0.900000E-01   1.00800           0
     25007 LPSA23   14       ARHM     O5       OC3C61  -0.400000       15.9994           0
     25008 LPSA23   14       ARHM     C2       CC3161   0.900000E-01   12.0110           0
     25009 LPSA23   14       ARHM     H2       HCA1     0.900000E-01   1.00800           0
     25010 LPSA23   14       ARHM     O2       OC301   -0.360000       15.9994           0
     25011 LPSA23   14       ARHM     C3       CC3161   0.140000       12.0110           0
     25012 LPSA23   14       ARHM     H3       HCA1     0.900000E-01   1.00800           0
     25013 LPSA23   14       ARHM     O3       OC311   -0.650000       15.9994           0
     25014 LPSA23   14       ARHM     HO3      HCP1     0.420000       1.00800           0
     25015 LPSA23   14       ARHM     C4       CC3161   0.140000       12.0110           0
     25016 LPSA23   14       ARHM     H4       HCA1     0.900000E-01   1.00800           0
     25017 LPSA23   14       ARHM     O4       OC311   -0.650000       15.9994           0
     25018 LPSA23   14       ARHM     HO4      HCP1     0.420000       1.00800           0
     25019 LPSA23   14       ARHM     C6       CC331   -0.270000       12.0110           0
     25020 LPSA23   14       ARHM     H61      HCA3     0.900000E-01   1.00800           0
     25021 LPSA23   14       ARHM     H62      HCA3     0.900000E-01   1.00800           0
     25022 LPSA23   14       ARHM     H63      HCA3     0.900000E-01   1.00800           0
     25023 LPSA23   15       ARHM     C1       CC3162   0.290000       12.0110           0
     25024 LPSA23   15       ARHM     H1       HCA1     0.900000E-01   1.00800           0
     25025 LPSA23   15       ARHM     C5       CC3163   0.110000       12.0110           0
     25026 LPSA23   15       ARHM     H5       HCA1     0.900000E-01   1.00800           0
     25027 LPSA23   15       ARHM     O5       OC3C61  -0.400000       15.9994           0
     25028 LPSA23   15       ARHM     C2       CC3161   0.900000E-01   12.0110           0
     25029 LPSA23   15       ARHM     H2       HCA1     0.900000E-01   1.00800           0
     25030 LPSA23   15       ARHM     O2       OC301   -0.360000       15.9994           0
     25031 LPSA23   15       ARHM     C3       CC3161   0.900000E-01   12.0110           0
     25032 LPSA23   15       ARHM     H3       HCA1     0.900000E-01   1.00800           0
     25033 LPSA23   15       ARHM     O3       OC301   -0.360000       15.9994           0
     25034 LPSA23   15       ARHM     C4       CC3161   0.140000       12.0110           0
     25035 LPSA23   15       ARHM     H4       HCA1     0.900000E-01   1.00800           0
     25036 LPSA23   15       ARHM     O4       OC311   -0.650000       15.9994           0
     25037 LPSA23   15       ARHM     HO4      HCP1     0.420000       1.00800           0
     25038 LPSA23   15       ARHM     C6       CC331   -0.270000       12.0110           0
     25039 LPSA23   15       ARHM     H61      HCA3     0.900000E-01   1.00800           0
     25040 LPSA23   15       ARHM     H62      HCA3     0.900000E-01   1.00800           0
     25041 LPSA23   15       ARHM     H63      HCA3     0.900000E-01   1.00800           0
     25042 LPSA23   16       BMANNA   C1       CC3162   0.290000       12.0110           0
     25043 LPSA23   16       BMANNA   H1       HCA1     0.900000E-01   1.00800           0
     25044 LPSA23   16       BMANNA   C5       CC3163   0.110000       12.0110           0
     25045 LPSA23   16       BMANNA   H5       HCA1     0.900000E-01   1.00800           0
     25046 LPSA23   16       BMANNA   O5       OC3C61  -0.400000       15.9994           0
     25047 LPSA23   16       BMANNA   C2       CC3161   0.700000E-01   12.0110           0
     25048 LPSA23   16       BMANNA   H2       HCA1     0.900000E-01   1.00800           0
     25049 LPSA23   16       BMANNA   N        NC2D1   -0.470000       14.0070           0
     25050 LPSA23   16       BMANNA   HN       HCP1     0.310000       1.00800           0
     25051 LPSA23   16       BMANNA   C        CC2O1    0.510000       12.0110           0
     25052 LPSA23   16       BMANNA   O        OC2D1   -0.510000       15.9994           0
     25053 LPSA23   16       BMANNA   CT       CC331   -0.270000       12.0110           0
     25054 LPSA23   16       BMANNA   HT1      HCA3     0.900000E-01   1.00800           0
     25055 LPSA23   16       BMANNA   HT2      HCA3     0.900000E-01   1.00800           0
     25056 LPSA23   16       BMANNA   HT3      HCA3     0.900000E-01   1.00800           0
     25057 LPSA23   16       BMANNA   C3       CC3161   0.140000       12.0110           0
     25058 LPSA23   16       BMANNA   H3       HCA1     0.900000E-01   1.00800           0
     25059 LPSA23   16       BMANNA   O3       OC311   -0.650000       15.9994           0
     25060 LPSA23   16       BMANNA   HO3      HCP1     0.420000       1.00800           0
     25061 LPSA23   16       BMANNA   C4       CC3161   0.140000       12.0110           0
     25062 LPSA23   16       BMANNA   H4       HCA1     0.900000E-01   1.00800           0
     25063 LPSA23   16       BMANNA   O4       OC311   -0.650000       15.9994           0
     25064 LPSA23   16       BMANNA   HO4      HCP1     0.420000       1.00800           0
     25065 LPSA23   16       BMANNA   C6       CC321    0.500000E-01   12.0110           0
     25066 LPSA23   16       BMANNA   H61      HCA2     0.900000E-01   1.00800           0
     25067 LPSA23   16       BMANNA   H62      HCA2     0.900000E-01   1.00800           0
     25068 LPSA23   16       BMANNA   O6       OC311   -0.650000       15.9994           0
     25069 LPSA23   16       BMANNA   HO6      HCP1     0.420000       1.00800           0
     25070 LPSA23   17       BGLCNA   C1       CC3162   0.290000       12.0110           0
     25071 LPSA23   17       BGLCNA   H1       HCA1     0.900000E-01   1.00800           0
     25072 LPSA23   17       BGLCNA   C5       CC3163   0.110000       12.0110           0
     25073 LPSA23   17       BGLCNA   H5       HCA1     0.900000E-01   1.00800           0
     25074 LPSA23   17       BGLCNA   O5       OC3C61  -0.400000       15.9994           0
     25075 LPSA23   17       BGLCNA   C2       CC3161   0.700000E-01   12.0110           0
     25076 LPSA23   17       BGLCNA   H2       HCA1     0.900000E-01   1.00800           0
     25077 LPSA23   17       BGLCNA   N        NC2D1   -0.470000       14.0070           0
     25078 LPSA23   17       BGLCNA   HN       HCP1     0.310000       1.00800           0
     25079 LPSA23   17       BGLCNA   C        CC2O1    0.510000       12.0110           0
     25080 LPSA23   17       BGLCNA   O        OC2D1   -0.510000       15.9994           0
     25081 LPSA23   17       BGLCNA   CT       CC331   -0.270000       12.0110           0
     25082 LPSA23   17       BGLCNA   HT1      HCA3     0.900000E-01   1.00800           0
     25083 LPSA23   17       BGLCNA   HT2      HCA3     0.900000E-01   1.00800           0
     25084 LPSA23   17       BGLCNA   HT3      HCA3     0.900000E-01   1.00800           0
     25085 LPSA23   17       BGLCNA   C3       CC3161   0.900000E-01   12.0110           0
     25086 LPSA23   17       BGLCNA   H3       HCA1     0.900000E-01   1.00800           0
     25087 LPSA23   17       BGLCNA   O3       OC301   -0.360000       15.9994           0
     25088 LPSA23   17       BGLCNA   C4       CC3161   0.140000       12.0110           0
     25089 LPSA23   17       BGLCNA   H4       HCA1     0.900000E-01   1.00800           0
     25090 LPSA23   17       BGLCNA   O4       OC311   -0.650000       15.9994           0
     25091 LPSA23   17       BGLCNA   HO4      HCP1     0.420000       1.00800           0
     25092 LPSA23   17       BGLCNA   C6       CC321    0.500000E-01   12.0110           0
     25093 LPSA23   17       BGLCNA   H61      HCA2     0.900000E-01   1.00800           0
     25094 LPSA23   17       BGLCNA   H62      HCA2     0.900000E-01   1.00800           0
     25095 LPSA23   17       BGLCNA   O6       OC311   -0.650000       15.9994           0
     25096 LPSA23   17       BGLCNA   HO6      HCP1     0.420000       1.00800           0
     25097 LPSA23   18       AGAL     C1       CC3162   0.290000       12.0110           0
     25098 LPSA23   18       AGAL     H1       HCA1     0.900000E-01   1.00800           0
     25099 LPSA23   18       AGAL     C5       CC3163   0.110000       12.0110           0
     25100 LPSA23   18       AGAL     H5       HCA1     0.900000E-01   1.00800           0
     25101 LPSA23   18       AGAL     O5       OC3C61  -0.400000       15.9994           0
     25102 LPSA23   18       AGAL     C2       CC3161   0.900000E-01   12.0110           0
     25103 LPSA23   18       AGAL     H2       HCA1     0.900000E-01   1.00800           0
     25104 LPSA23   18       AGAL     O2       OC301   -0.360000       15.9994           0
     25105 LPSA23   18       AGAL     C3       CC3161   0.140000       12.0110           0
     25106 LPSA23   18       AGAL     H3       HCA1     0.900000E-01   1.00800           0
     25107 LPSA23   18       AGAL     O3       OC311   -0.650000       15.9994           0
     25108 LPSA23   18       AGAL     HO3      HCP1     0.420000       1.00800           0
     25109 LPSA23   18       AGAL     C4       CC3161   0.140000       12.0110           0
     25110 LPSA23   18       AGAL     H4       HCA1     0.900000E-01   1.00800           0
     25111 LPSA23   18       AGAL     O4       OC311   -0.650000       15.9994           0
     25112 LPSA23   18       AGAL     HO4      HCP1     0.420000       1.00800           0
     25113 LPSA23   18       AGAL     C6       CC321    0.500000E-01   12.0110           0
     25114 LPSA23   18       AGAL     H61      HCA2     0.900000E-01   1.00800           0
     25115 LPSA23   18       AGAL     H62      HCA2     0.900000E-01   1.00800           0
     25116 LPSA23   18       AGAL     O6       OC311   -0.650000       15.9994           0
     25117 LPSA23   18       AGAL     HO6      HCP1     0.420000       1.00800           0
     25118 LPSA23   19       ARHM     C1       CC3162   0.290000       12.0110           0
     25119 LPSA23   19       ARHM     H1       HCA1     0.900000E-01   1.00800           0
     25120 LPSA23   19       ARHM     C5       CC3163   0.110000       12.0110           0
     25121 LPSA23   19       ARHM     H5       HCA1     0.900000E-01   1.00800           0
     25122 LPSA23   19       ARHM     O5       OC3C61  -0.400000       15.9994           0
     25123 LPSA23   19       ARHM     C2       CC3161   0.900000E-01   12.0110           0
     25124 LPSA23   19       ARHM     H2       HCA1     0.900000E-01   1.00800           0
     25125 LPSA23   19       ARHM     O2       OC301   -0.360000       15.9994           0
     25126 LPSA23   19       ARHM     C3       CC3161   0.140000       12.0110           0
     25127 LPSA23   19       ARHM     H3       HCA1     0.900000E-01   1.00800           0
     25128 LPSA23   19       ARHM     O3       OC311   -0.650000       15.9994           0
     25129 LPSA23   19       ARHM     HO3      HCP1     0.420000       1.00800           0
     25130 LPSA23   19       ARHM     C4       CC3161   0.140000       12.0110           0
     25131 LPSA23   19       ARHM     H4       HCA1     0.900000E-01   1.00800           0
     25132 LPSA23   19       ARHM     O4       OC311   -0.650000       15.9994           0
     25133 LPSA23   19       ARHM     HO4      HCP1     0.420000       1.00800           0
     25134 LPSA23   19       ARHM     C6       CC331   -0.270000       12.0110           0
     25135 LPSA23   19       ARHM     H61      HCA3     0.900000E-01   1.00800           0
     25136 LPSA23   19       ARHM     H62      HCA3     0.900000E-01   1.00800           0
     25137 LPSA23   19       ARHM     H63      HCA3     0.900000E-01   1.00800           0
     25138 LPSA23   20       ARHM     C1       CC3162   0.290000       12.0110           0
     25139 LPSA23   20       ARHM     H1       HCA1     0.900000E-01   1.00800           0
     25140 LPSA23   20       ARHM     C5       CC3163   0.110000       12.0110           0
     25141 LPSA23   20       ARHM     H5       HCA1     0.900000E-01   1.00800           0
     25142 LPSA23   20       ARHM     O5       OC3C61  -0.400000       15.9994           0
     25143 LPSA23   20       ARHM     C2       CC3161   0.900000E-01   12.0110           0
     25144 LPSA23   20       ARHM     H2       HCA1     0.900000E-01   1.00800           0
     25145 LPSA23   20       ARHM     O2       OC301   -0.360000       15.9994           0
     25146 LPSA23   20       ARHM     C3       CC3161   0.900000E-01   12.0110           0
     25147 LPSA23   20       ARHM     H3       HCA1     0.900000E-01   1.00800           0
     25148 LPSA23   20       ARHM     O3       OC301   -0.360000       15.9994           0
     25149 LPSA23   20       ARHM     C4       CC3161   0.140000       12.0110           0
     25150 LPSA23   20       ARHM     H4       HCA1     0.900000E-01   1.00800           0
     25151 LPSA23   20       ARHM     O4       OC311   -0.650000       15.9994           0
     25152 LPSA23   20       ARHM     HO4      HCP1     0.420000       1.00800           0
     25153 LPSA23   20       ARHM     C6       CC331   -0.270000       12.0110           0
     25154 LPSA23   20       ARHM     H61      HCA3     0.900000E-01   1.00800           0
     25155 LPSA23   20       ARHM     H62      HCA3     0.900000E-01   1.00800           0
     25156 LPSA23   20       ARHM     H63      HCA3     0.900000E-01   1.00800           0
     25157 LPSA23   21       BMANNA   C1       CC3162   0.290000       12.0110           0
     25158 LPSA23   21       BMANNA   H1       HCA1     0.900000E-01   1.00800           0
     25159 LPSA23   21       BMANNA   C5       CC3163   0.110000       12.0110           0
     25160 LPSA23   21       BMANNA   H5       HCA1     0.900000E-01   1.00800           0
     25161 LPSA23   21       BMANNA   O5       OC3C61  -0.400000       15.9994           0
     25162 LPSA23   21       BMANNA   C2       CC3161   0.700000E-01   12.0110           0
     25163 LPSA23   21       BMANNA   H2       HCA1     0.900000E-01   1.00800           0
     25164 LPSA23   21       BMANNA   N        NC2D1   -0.470000       14.0070           0
     25165 LPSA23   21       BMANNA   HN       HCP1     0.310000       1.00800           0
     25166 LPSA23   21       BMANNA   C        CC2O1    0.510000       12.0110           0
     25167 LPSA23   21       BMANNA   O        OC2D1   -0.510000       15.9994           0
     25168 LPSA23   21       BMANNA   CT       CC331   -0.270000       12.0110           0
     25169 LPSA23   21       BMANNA   HT1      HCA3     0.900000E-01   1.00800           0
     25170 LPSA23   21       BMANNA   HT2      HCA3     0.900000E-01   1.00800           0
     25171 LPSA23   21       BMANNA   HT3      HCA3     0.900000E-01   1.00800           0
     25172 LPSA23   21       BMANNA   C3       CC3161   0.140000       12.0110           0
     25173 LPSA23   21       BMANNA   H3       HCA1     0.900000E-01   1.00800           0
     25174 LPSA23   21       BMANNA   O3       OC311   -0.650000       15.9994           0
     25175 LPSA23   21       BMANNA   HO3      HCP1     0.420000       1.00800           0
     25176 LPSA23   21       BMANNA   C4       CC3161   0.140000       12.0110           0
     25177 LPSA23   21       BMANNA   H4       HCA1     0.900000E-01   1.00800           0
     25178 LPSA23   21       BMANNA   O4       OC311   -0.650000       15.9994           0
     25179 LPSA23   21       BMANNA   HO4      HCP1     0.420000       1.00800           0
     25180 LPSA23   21       BMANNA   C6       CC321    0.500000E-01   12.0110           0
     25181 LPSA23   21       BMANNA   H61      HCA2     0.900000E-01   1.00800           0
     25182 LPSA23   21       BMANNA   H62      HCA2     0.900000E-01   1.00800           0
     25183 LPSA23   21       BMANNA   O6       OC311   -0.650000       15.9994           0
     25184 LPSA23   21       BMANNA   HO6      HCP1     0.420000       1.00800           0
     25185 LPSA23   22       BGLCNA   C1       CC3162   0.290000       12.0110           0
     25186 LPSA23   22       BGLCNA   H1       HCA1     0.900000E-01   1.00800           0
     25187 LPSA23   22       BGLCNA   C5       CC3163   0.110000       12.0110           0
     25188 LPSA23   22       BGLCNA   H5       HCA1     0.900000E-01   1.00800           0
     25189 LPSA23   22       BGLCNA   O5       OC3C61  -0.400000       15.9994           0
     25190 LPSA23   22       BGLCNA   C2       CC3161   0.700000E-01   12.0110           0
     25191 LPSA23   22       BGLCNA   H2       HCA1     0.900000E-01   1.00800           0
     25192 LPSA23   22       BGLCNA   N        NC2D1   -0.470000       14.0070           0
     25193 LPSA23   22       BGLCNA   HN       HCP1     0.310000       1.00800           0
     25194 LPSA23   22       BGLCNA   C        CC2O1    0.510000       12.0110           0
     25195 LPSA23   22       BGLCNA   O        OC2D1   -0.510000       15.9994           0
     25196 LPSA23   22       BGLCNA   CT       CC331   -0.270000       12.0110           0
     25197 LPSA23   22       BGLCNA   HT1      HCA3     0.900000E-01   1.00800           0
     25198 LPSA23   22       BGLCNA   HT2      HCA3     0.900000E-01   1.00800           0
     25199 LPSA23   22       BGLCNA   HT3      HCA3     0.900000E-01   1.00800           0
     25200 LPSA23   22       BGLCNA   C3       CC3161   0.900000E-01   12.0110           0
     25201 LPSA23   22       BGLCNA   H3       HCA1     0.900000E-01   1.00800           0
     25202 LPSA23   22       BGLCNA   O3       OC301   -0.360000       15.9994           0
     25203 LPSA23   22       BGLCNA   C4       CC3161   0.140000       12.0110           0
     25204 LPSA23   22       BGLCNA   H4       HCA1     0.900000E-01   1.00800           0
     25205 LPSA23   22       BGLCNA   O4       OC311   -0.650000       15.9994           0
     25206 LPSA23   22       BGLCNA   HO4      HCP1     0.420000       1.00800           0
     25207 LPSA23   22       BGLCNA   C6       CC321    0.500000E-01   12.0110           0
     25208 LPSA23   22       BGLCNA   H61      HCA2     0.900000E-01   1.00800           0
     25209 LPSA23   22       BGLCNA   H62      HCA2     0.900000E-01   1.00800           0
     25210 LPSA23   22       BGLCNA   O6       OC311   -0.650000       15.9994           0
     25211 LPSA23   22       BGLCNA   HO6      HCP1     0.420000       1.00800           0
     25212 LPSA23   23       AGAL     C1       CC3162   0.290000       12.0110           0
     25213 LPSA23   23       AGAL     H1       HCA1     0.900000E-01   1.00800           0
     25214 LPSA23   23       AGAL     C5       CC3163   0.110000       12.0110           0
     25215 LPSA23   23       AGAL     H5       HCA1     0.900000E-01   1.00800           0
     25216 LPSA23   23       AGAL     O5       OC3C61  -0.400000       15.9994           0
     25217 LPSA23   23       AGAL     C2       CC3161   0.900000E-01   12.0110           0
     25218 LPSA23   23       AGAL     H2       HCA1     0.900000E-01   1.00800           0
     25219 LPSA23   23       AGAL     O2       OC301   -0.360000       15.9994           0
     25220 LPSA23   23       AGAL     C3       CC3161   0.140000       12.0110           0
     25221 LPSA23   23       AGAL     H3       HCA1     0.900000E-01   1.00800           0
     25222 LPSA23   23       AGAL     O3       OC311   -0.650000       15.9994           0
     25223 LPSA23   23       AGAL     HO3      HCP1     0.420000       1.00800           0
     25224 LPSA23   23       AGAL     C4       CC3161   0.140000       12.0110           0
     25225 LPSA23   23       AGAL     H4       HCA1     0.900000E-01   1.00800           0
     25226 LPSA23   23       AGAL     O4       OC311   -0.650000       15.9994           0
     25227 LPSA23   23       AGAL     HO4      HCP1     0.420000       1.00800           0
     25228 LPSA23   23       AGAL     C6       CC321    0.500000E-01   12.0110           0
     25229 LPSA23   23       AGAL     H61      HCA2     0.900000E-01   1.00800           0
     25230 LPSA23   23       AGAL     H62      HCA2     0.900000E-01   1.00800           0
     25231 LPSA23   23       AGAL     O6       OC311   -0.650000       15.9994           0
     25232 LPSA23   23       AGAL     HO6      HCP1     0.420000       1.00800           0
     25233 LPSA23   24       ARHM     C1       CC3162   0.290000       12.0110           0
     25234 LPSA23   24       ARHM     H1       HCA1     0.900000E-01   1.00800           0
     25235 LPSA23   24       ARHM     C5       CC3163   0.110000       12.0110           0
     25236 LPSA23   24       ARHM     H5       HCA1     0.900000E-01   1.00800           0
     25237 LPSA23   24       ARHM     O5       OC3C61  -0.400000       15.9994           0
     25238 LPSA23   24       ARHM     C2       CC3161   0.900000E-01   12.0110           0
     25239 LPSA23   24       ARHM     H2       HCA1     0.900000E-01   1.00800           0
     25240 LPSA23   24       ARHM     O2       OC301   -0.360000       15.9994           0
     25241 LPSA23   24       ARHM     C3       CC3161   0.140000       12.0110           0
     25242 LPSA23   24       ARHM     H3       HCA1     0.900000E-01   1.00800           0
     25243 LPSA23   24       ARHM     O3       OC311   -0.650000       15.9994           0
     25244 LPSA23   24       ARHM     HO3      HCP1     0.420000       1.00800           0
     25245 LPSA23   24       ARHM     C4       CC3161   0.140000       12.0110           0
     25246 LPSA23   24       ARHM     H4       HCA1     0.900000E-01   1.00800           0
     25247 LPSA23   24       ARHM     O4       OC311   -0.650000       15.9994           0
     25248 LPSA23   24       ARHM     HO4      HCP1     0.420000       1.00800           0
     25249 LPSA23   24       ARHM     C6       CC331   -0.270000       12.0110           0
     25250 LPSA23   24       ARHM     H61      HCA3     0.900000E-01   1.00800           0
     25251 LPSA23   24       ARHM     H62      HCA3     0.900000E-01   1.00800           0
     25252 LPSA23   24       ARHM     H63      HCA3     0.900000E-01   1.00800           0
     25253 LPSA23   25       ARHM     C1       CC3162   0.290000       12.0110           0
     25254 LPSA23   25       ARHM     H1       HCA1     0.900000E-01   1.00800           0
     25255 LPSA23   25       ARHM     C5       CC3163   0.110000       12.0110           0
     25256 LPSA23   25       ARHM     H5       HCA1     0.900000E-01   1.00800           0
     25257 LPSA23   25       ARHM     O5       OC3C61  -0.400000       15.9994           0
     25258 LPSA23   25       ARHM     C2       CC3161   0.900000E-01   12.0110           0
     25259 LPSA23   25       ARHM     H2       HCA1     0.900000E-01   1.00800           0
     25260 LPSA23   25       ARHM     O2       OC301   -0.360000       15.9994           0
     25261 LPSA23   25       ARHM     C3       CC3161   0.900000E-01   12.0110           0
     25262 LPSA23   25       ARHM     H3       HCA1     0.900000E-01   1.00800           0
     25263 LPSA23   25       ARHM     O3       OC301   -0.360000       15.9994           0
     25264 LPSA23   25       ARHM     C4       CC3161   0.140000       12.0110           0
     25265 LPSA23   25       ARHM     H4       HCA1     0.900000E-01   1.00800           0
     25266 LPSA23   25       ARHM     O4       OC311   -0.650000       15.9994           0
     25267 LPSA23   25       ARHM     HO4      HCP1     0.420000       1.00800           0
     25268 LPSA23   25       ARHM     C6       CC331   -0.270000       12.0110           0
     25269 LPSA23   25       ARHM     H61      HCA3     0.900000E-01   1.00800           0
     25270 LPSA23   25       ARHM     H62      HCA3     0.900000E-01   1.00800           0
     25271 LPSA23   25       ARHM     H63      HCA3     0.900000E-01   1.00800           0
     25272 LPSA23   26       BMANNA   C1       CC3162   0.290000       12.0110           0
     25273 LPSA23   26       BMANNA   H1       HCA1     0.900000E-01   1.00800           0
     25274 LPSA23   26       BMANNA   C5       CC3163   0.110000       12.0110           0
     25275 LPSA23   26       BMANNA   H5       HCA1     0.900000E-01   1.00800           0
     25276 LPSA23   26       BMANNA   O5       OC3C61  -0.400000       15.9994           0
     25277 LPSA23   26       BMANNA   C2       CC3161   0.700000E-01   12.0110           0
     25278 LPSA23   26       BMANNA   H2       HCA1     0.900000E-01   1.00800           0
     25279 LPSA23   26       BMANNA   N        NC2D1   -0.470000       14.0070           0
     25280 LPSA23   26       BMANNA   HN       HCP1     0.310000       1.00800           0
     25281 LPSA23   26       BMANNA   C        CC2O1    0.510000       12.0110           0
     25282 LPSA23   26       BMANNA   O        OC2D1   -0.510000       15.9994           0
     25283 LPSA23   26       BMANNA   CT       CC331   -0.270000       12.0110           0
     25284 LPSA23   26       BMANNA   HT1      HCA3     0.900000E-01   1.00800           0
     25285 LPSA23   26       BMANNA   HT2      HCA3     0.900000E-01   1.00800           0
     25286 LPSA23   26       BMANNA   HT3      HCA3     0.900000E-01   1.00800           0
     25287 LPSA23   26       BMANNA   C3       CC3161   0.140000       12.0110           0
     25288 LPSA23   26       BMANNA   H3       HCA1     0.900000E-01   1.00800           0
     25289 LPSA23   26       BMANNA   O3       OC311   -0.650000       15.9994           0
     25290 LPSA23   26       BMANNA   HO3      HCP1     0.420000       1.00800           0
     25291 LPSA23   26       BMANNA   C4       CC3161   0.140000       12.0110           0
     25292 LPSA23   26       BMANNA   H4       HCA1     0.900000E-01   1.00800           0
     25293 LPSA23   26       BMANNA   O4       OC311   -0.650000       15.9994           0
     25294 LPSA23   26       BMANNA   HO4      HCP1     0.420000       1.00800           0
     25295 LPSA23   26       BMANNA   C6       CC321    0.500000E-01   12.0110           0
     25296 LPSA23   26       BMANNA   H61      HCA2     0.900000E-01   1.00800           0
     25297 LPSA23   26       BMANNA   H62      HCA2     0.900000E-01   1.00800           0
     25298 LPSA23   26       BMANNA   O6       OC311   -0.650000       15.9994           0
     25299 LPSA23   26       BMANNA   HO6      HCP1     0.420000       1.00800           0
     25300 LPSA23   27       BGLCNA   C1       CC3162   0.290000       12.0110           0
     25301 LPSA23   27       BGLCNA   H1       HCA1     0.900000E-01   1.00800           0
     25302 LPSA23   27       BGLCNA   C5       CC3163   0.110000       12.0110           0
     25303 LPSA23   27       BGLCNA   H5       HCA1     0.900000E-01   1.00800           0
     25304 LPSA23   27       BGLCNA   O5       OC3C61  -0.400000       15.9994           0
     25305 LPSA23   27       BGLCNA   C2       CC3161   0.700000E-01   12.0110           0
     25306 LPSA23   27       BGLCNA   H2       HCA1     0.900000E-01   1.00800           0
     25307 LPSA23   27       BGLCNA   N        NC2D1   -0.470000       14.0070           0
     25308 LPSA23   27       BGLCNA   HN       HCP1     0.310000       1.00800           0
     25309 LPSA23   27       BGLCNA   C        CC2O1    0.510000       12.0110           0
     25310 LPSA23   27       BGLCNA   O        OC2D1   -0.510000       15.9994           0
     25311 LPSA23   27       BGLCNA   CT       CC331   -0.270000       12.0110           0
     25312 LPSA23   27       BGLCNA   HT1      HCA3     0.900000E-01   1.00800           0
     25313 LPSA23   27       BGLCNA   HT2      HCA3     0.900000E-01   1.00800           0
     25314 LPSA23   27       BGLCNA   HT3      HCA3     0.900000E-01   1.00800           0
     25315 LPSA23   27       BGLCNA   C3       CC3161   0.900000E-01   12.0110           0
     25316 LPSA23   27       BGLCNA   H3       HCA1     0.900000E-01   1.00800           0
     25317 LPSA23   27       BGLCNA   O3       OC301   -0.360000       15.9994           0
     25318 LPSA23   27       BGLCNA   C4       CC3161   0.140000       12.0110           0
     25319 LPSA23   27       BGLCNA   H4       HCA1     0.900000E-01   1.00800           0
     25320 LPSA23   27       BGLCNA   O4       OC311   -0.650000       15.9994           0
     25321 LPSA23   27       BGLCNA   HO4      HCP1     0.420000       1.00800           0
     25322 LPSA23   27       BGLCNA   C6       CC321    0.500000E-01   12.0110           0
     25323 LPSA23   27       BGLCNA   H61      HCA2     0.900000E-01   1.00800           0
     25324 LPSA23   27       BGLCNA   H62      HCA2     0.900000E-01   1.00800           0
     25325 LPSA23   27       BGLCNA   O6       OC311   -0.650000       15.9994           0
     25326 LPSA23   27       BGLCNA   HO6      HCP1     0.420000       1.00800           0
     25327 LPSA23   28       AGAL     C1       CC3162   0.290000       12.0110           0
     25328 LPSA23   28       AGAL     H1       HCA1     0.900000E-01   1.00800           0
     25329 LPSA23   28       AGAL     C5       CC3163   0.110000       12.0110           0
     25330 LPSA23   28       AGAL     H5       HCA1     0.900000E-01   1.00800           0
     25331 LPSA23   28       AGAL     O5       OC3C61  -0.400000       15.9994           0
     25332 LPSA23   28       AGAL     C2       CC3161   0.900000E-01   12.0110           0
     25333 LPSA23   28       AGAL     H2       HCA1     0.900000E-01   1.00800           0
     25334 LPSA23   28       AGAL     O2       OC301   -0.360000       15.9994           0
     25335 LPSA23   28       AGAL     C3       CC3161   0.140000       12.0110           0
     25336 LPSA23   28       AGAL     H3       HCA1     0.900000E-01   1.00800           0
     25337 LPSA23   28       AGAL     O3       OC311   -0.650000       15.9994           0
     25338 LPSA23   28       AGAL     HO3      HCP1     0.420000       1.00800           0
     25339 LPSA23   28       AGAL     C4       CC3161   0.140000       12.0110           0
     25340 LPSA23   28       AGAL     H4       HCA1     0.900000E-01   1.00800           0
     25341 LPSA23   28       AGAL     O4       OC311   -0.650000       15.9994           0
     25342 LPSA23   28       AGAL     HO4      HCP1     0.420000       1.00800           0
     25343 LPSA23   28       AGAL     C6       CC321    0.500000E-01   12.0110           0
     25344 LPSA23   28       AGAL     H61      HCA2     0.900000E-01   1.00800           0
     25345 LPSA23   28       AGAL     H62      HCA2     0.900000E-01   1.00800           0
     25346 LPSA23   28       AGAL     O6       OC311   -0.650000       15.9994           0
     25347 LPSA23   28       AGAL     HO6      HCP1     0.420000       1.00800           0
     25348 LPSA23   29       ARHM     C1       CC3162   0.290000       12.0110           0
     25349 LPSA23   29       ARHM     H1       HCA1     0.900000E-01   1.00800           0
     25350 LPSA23   29       ARHM     C5       CC3163   0.110000       12.0110           0
     25351 LPSA23   29       ARHM     H5       HCA1     0.900000E-01   1.00800           0
     25352 LPSA23   29       ARHM     O5       OC3C61  -0.400000       15.9994           0
     25353 LPSA23   29       ARHM     C2       CC3161   0.900000E-01   12.0110           0
     25354 LPSA23   29       ARHM     H2       HCA1     0.900000E-01   1.00800           0
     25355 LPSA23   29       ARHM     O2       OC301   -0.360000       15.9994           0
     25356 LPSA23   29       ARHM     C3       CC3161   0.140000       12.0110           0
     25357 LPSA23   29       ARHM     H3       HCA1     0.900000E-01   1.00800           0
     25358 LPSA23   29       ARHM     O3       OC311   -0.650000       15.9994           0
     25359 LPSA23   29       ARHM     HO3      HCP1     0.420000       1.00800           0
     25360 LPSA23   29       ARHM     C4       CC3161   0.140000       12.0110           0
     25361 LPSA23   29       ARHM     H4       HCA1     0.900000E-01   1.00800           0
     25362 LPSA23   29       ARHM     O4       OC311   -0.650000       15.9994           0
     25363 LPSA23   29       ARHM     HO4      HCP1     0.420000       1.00800           0
     25364 LPSA23   29       ARHM     C6       CC331   -0.270000       12.0110           0
     25365 LPSA23   29       ARHM     H61      HCA3     0.900000E-01   1.00800           0
     25366 LPSA23   29       ARHM     H62      HCA3     0.900000E-01   1.00800           0
     25367 LPSA23   29       ARHM     H63      HCA3     0.900000E-01   1.00800           0
     25368 LPSA23   30       ARHM     C1       CC3162   0.290000       12.0110           0
     25369 LPSA23   30       ARHM     H1       HCA1     0.900000E-01   1.00800           0
     25370 LPSA23   30       ARHM     C5       CC3163   0.110000       12.0110           0
     25371 LPSA23   30       ARHM     H5       HCA1     0.900000E-01   1.00800           0
     25372 LPSA23   30       ARHM     O5       OC3C61  -0.400000       15.9994           0
     25373 LPSA23   30       ARHM     C2       CC3161   0.900000E-01   12.0110           0
     25374 LPSA23   30       ARHM     H2       HCA1     0.900000E-01   1.00800           0
     25375 LPSA23   30       ARHM     O2       OC301   -0.360000       15.9994           0
     25376 LPSA23   30       ARHM     C3       CC3161   0.900000E-01   12.0110           0
     25377 LPSA23   30       ARHM     H3       HCA1     0.900000E-01   1.00800           0
     25378 LPSA23   30       ARHM     O3       OC301   -0.360000       15.9994           0
     25379 LPSA23   30       ARHM     C4       CC3161   0.140000       12.0110           0
     25380 LPSA23   30       ARHM     H4       HCA1     0.900000E-01   1.00800           0
     25381 LPSA23   30       ARHM     O4       OC311   -0.650000       15.9994           0
     25382 LPSA23   30       ARHM     HO4      HCP1     0.420000       1.00800           0
     25383 LPSA23   30       ARHM     C6       CC331   -0.270000       12.0110           0
     25384 LPSA23   30       ARHM     H61      HCA3     0.900000E-01   1.00800           0
     25385 LPSA23   30       ARHM     H62      HCA3     0.900000E-01   1.00800           0
     25386 LPSA23   30       ARHM     H63      HCA3     0.900000E-01   1.00800           0
     25387 LPSA23   31       BMANNA   C1       CC3162   0.290000       12.0110           0
     25388 LPSA23   31       BMANNA   H1       HCA1     0.900000E-01   1.00800           0
     25389 LPSA23   31       BMANNA   C5       CC3163   0.110000       12.0110           0
     25390 LPSA23   31       BMANNA   H5       HCA1     0.900000E-01   1.00800           0
     25391 LPSA23   31       BMANNA   O5       OC3C61  -0.400000       15.9994           0
     25392 LPSA23   31       BMANNA   C2       CC3161   0.700000E-01   12.0110           0
     25393 LPSA23   31       BMANNA   H2       HCA1     0.900000E-01   1.00800           0
     25394 LPSA23   31       BMANNA   N        NC2D1   -0.470000       14.0070           0
     25395 LPSA23   31       BMANNA   HN       HCP1     0.310000       1.00800           0
     25396 LPSA23   31       BMANNA   C        CC2O1    0.510000       12.0110           0
     25397 LPSA23   31       BMANNA   O        OC2D1   -0.510000       15.9994           0
     25398 LPSA23   31       BMANNA   CT       CC331   -0.270000       12.0110           0
     25399 LPSA23   31       BMANNA   HT1      HCA3     0.900000E-01   1.00800           0
     25400 LPSA23   31       BMANNA   HT2      HCA3     0.900000E-01   1.00800           0
     25401 LPSA23   31       BMANNA   HT3      HCA3     0.900000E-01   1.00800           0
     25402 LPSA23   31       BMANNA   C3       CC3161   0.140000       12.0110           0
     25403 LPSA23   31       BMANNA   H3       HCA1     0.900000E-01   1.00800           0
     25404 LPSA23   31       BMANNA   O3       OC311   -0.650000       15.9994           0
     25405 LPSA23   31       BMANNA   HO3      HCP1     0.420000       1.00800           0
     25406 LPSA23   31       BMANNA   C4       CC3161   0.140000       12.0110           0
     25407 LPSA23   31       BMANNA   H4       HCA1     0.900000E-01   1.00800           0
     25408 LPSA23   31       BMANNA   O4       OC311   -0.650000       15.9994           0
     25409 LPSA23   31       BMANNA   HO4      HCP1     0.420000       1.00800           0
     25410 LPSA23   31       BMANNA   C6       CC321    0.500000E-01   12.0110           0
     25411 LPSA23   31       BMANNA   H61      HCA2     0.900000E-01   1.00800           0
     25412 LPSA23   31       BMANNA   H62      HCA2     0.900000E-01   1.00800           0
     25413 LPSA23   31       BMANNA   O6       OC311   -0.650000       15.9994           0
     25414 LPSA23   31       BMANNA   HO6      HCP1     0.420000       1.00800           0
     25415 LPSA23   32       BGLCNA   C1       CC3162   0.290000       12.0110           0
     25416 LPSA23   32       BGLCNA   H1       HCA1     0.900000E-01   1.00800           0
     25417 LPSA23   32       BGLCNA   C5       CC3163   0.110000       12.0110           0
     25418 LPSA23   32       BGLCNA   H5       HCA1     0.900000E-01   1.00800           0
     25419 LPSA23   32       BGLCNA   O5       OC3C61  -0.400000       15.9994           0
     25420 LPSA23   32       BGLCNA   C2       CC3161   0.700000E-01   12.0110           0
     25421 LPSA23   32       BGLCNA   H2       HCA1     0.900000E-01   1.00800           0
     25422 LPSA23   32       BGLCNA   N        NC2D1   -0.470000       14.0070           0
     25423 LPSA23   32       BGLCNA   HN       HCP1     0.310000       1.00800           0
     25424 LPSA23   32       BGLCNA   C        CC2O1    0.510000       12.0110           0
     25425 LPSA23   32       BGLCNA   O        OC2D1   -0.510000       15.9994           0
     25426 LPSA23   32       BGLCNA   CT       CC331   -0.270000       12.0110           0
     25427 LPSA23   32       BGLCNA   HT1      HCA3     0.900000E-01   1.00800           0
     25428 LPSA23   32       BGLCNA   HT2      HCA3     0.900000E-01   1.00800           0
     25429 LPSA23   32       BGLCNA   HT3      HCA3     0.900000E-01   1.00800           0
     25430 LPSA23   32       BGLCNA   C3       CC3161   0.900000E-01   12.0110           0
     25431 LPSA23   32       BGLCNA   H3       HCA1     0.900000E-01   1.00800           0
     25432 LPSA23   32       BGLCNA   O3       OC301   -0.360000       15.9994           0
     25433 LPSA23   32       BGLCNA   C4       CC3161   0.140000       12.0110           0
     25434 LPSA23   32       BGLCNA   H4       HCA1     0.900000E-01   1.00800           0
     25435 LPSA23   32       BGLCNA   O4       OC311   -0.650000       15.9994           0
     25436 LPSA23   32       BGLCNA   HO4      HCP1     0.420000       1.00800           0
     25437 LPSA23   32       BGLCNA   C6       CC321    0.500000E-01   12.0110           0
     25438 LPSA23   32       BGLCNA   H61      HCA2     0.900000E-01   1.00800           0
     25439 LPSA23   32       BGLCNA   H62      HCA2     0.900000E-01   1.00800           0
     25440 LPSA23   32       BGLCNA   O6       OC311   -0.650000       15.9994           0
     25441 LPSA23   32       BGLCNA   HO6      HCP1     0.420000       1.00800           0
     25442 LPSA23   33       AGAL     C1       CC3162   0.290000       12.0110           0
     25443 LPSA23   33       AGAL     H1       HCA1     0.900000E-01   1.00800           0
     25444 LPSA23   33       AGAL     C5       CC3163   0.110000       12.0110           0
     25445 LPSA23   33       AGAL     H5       HCA1     0.900000E-01   1.00800           0
     25446 LPSA23   33       AGAL     O5       OC3C61  -0.400000       15.9994           0
     25447 LPSA23   33       AGAL     C2       CC3161   0.900000E-01   12.0110           0
     25448 LPSA23   33       AGAL     H2       HCA1     0.900000E-01   1.00800           0
     25449 LPSA23   33       AGAL     O2       OC301   -0.360000       15.9994           0
     25450 LPSA23   33       AGAL     C3       CC3161   0.140000       12.0110           0
     25451 LPSA23   33       AGAL     H3       HCA1     0.900000E-01   1.00800           0
     25452 LPSA23   33       AGAL     O3       OC311   -0.650000       15.9994           0
     25453 LPSA23   33       AGAL     HO3      HCP1     0.420000       1.00800           0
     25454 LPSA23   33       AGAL     C4       CC3161   0.140000       12.0110           0
     25455 LPSA23   33       AGAL     H4       HCA1     0.900000E-01   1.00800           0
     25456 LPSA23   33       AGAL     O4       OC311   -0.650000       15.9994           0
     25457 LPSA23   33       AGAL     HO4      HCP1     0.420000       1.00800           0
     25458 LPSA23   33       AGAL     C6       CC321    0.500000E-01   12.0110           0
     25459 LPSA23   33       AGAL     H61      HCA2     0.900000E-01   1.00800           0
     25460 LPSA23   33       AGAL     H62      HCA2     0.900000E-01   1.00800           0
     25461 LPSA23   33       AGAL     O6       OC311   -0.650000       15.9994           0
     25462 LPSA23   33       AGAL     HO6      HCP1     0.420000       1.00800           0
     25463 LPSA23   34       ARHM     C1       CC3162   0.290000       12.0110           0
     25464 LPSA23   34       ARHM     H1       HCA1     0.900000E-01   1.00800           0
     25465 LPSA23   34       ARHM     C5       CC3163   0.110000       12.0110           0
     25466 LPSA23   34       ARHM     H5       HCA1     0.900000E-01   1.00800           0
     25467 LPSA23   34       ARHM     O5       OC3C61  -0.400000       15.9994           0
     25468 LPSA23   34       ARHM     C2       CC3161   0.900000E-01   12.0110           0
     25469 LPSA23   34       ARHM     H2       HCA1     0.900000E-01   1.00800           0
     25470 LPSA23   34       ARHM     O2       OC301   -0.360000       15.9994           0
     25471 LPSA23   34       ARHM     C3       CC3161   0.140000       12.0110           0
     25472 LPSA23   34       ARHM     H3       HCA1     0.900000E-01   1.00800           0
     25473 LPSA23   34       ARHM     O3       OC311   -0.650000       15.9994           0
     25474 LPSA23   34       ARHM     HO3      HCP1     0.420000       1.00800           0
     25475 LPSA23   34       ARHM     C4       CC3161   0.140000       12.0110           0
     25476 LPSA23   34       ARHM     H4       HCA1     0.900000E-01   1.00800           0
     25477 LPSA23   34       ARHM     O4       OC311   -0.650000       15.9994           0
     25478 LPSA23   34       ARHM     HO4      HCP1     0.420000       1.00800           0
     25479 LPSA23   34       ARHM     C6       CC331   -0.270000       12.0110           0
     25480 LPSA23   34       ARHM     H61      HCA3     0.900000E-01   1.00800           0
     25481 LPSA23   34       ARHM     H62      HCA3     0.900000E-01   1.00800           0
     25482 LPSA23   34       ARHM     H63      HCA3     0.900000E-01   1.00800           0
     25483 LPSA23   35       ARHM     C1       CC3162   0.290000       12.0110           0
     25484 LPSA23   35       ARHM     H1       HCA1     0.900000E-01   1.00800           0
     25485 LPSA23   35       ARHM     C5       CC3163   0.110000       12.0110           0
     25486 LPSA23   35       ARHM     H5       HCA1     0.900000E-01   1.00800           0
     25487 LPSA23   35       ARHM     O5       OC3C61  -0.400000       15.9994           0
     25488 LPSA23   35       ARHM     C2       CC3161   0.900000E-01   12.0110           0
     25489 LPSA23   35       ARHM     H2       HCA1     0.900000E-01   1.00800           0
     25490 LPSA23   35       ARHM     O2       OC301   -0.360000       15.9994           0
     25491 LPSA23   35       ARHM     C3       CC3161   0.140000       12.0110           0
     25492 LPSA23   35       ARHM     H3       HCA1     0.900000E-01   1.00800           0
     25493 LPSA23   35       ARHM     O3       OC311   -0.650000       15.9994           0
     25494 LPSA23   35       ARHM     HO3      HCP1     0.420000       1.00800           0
     25495 LPSA23   35       ARHM     C4       CC3161   0.140000       12.0110           0
     25496 LPSA23   35       ARHM     H4       HCA1     0.900000E-01   1.00800           0
     25497 LPSA23   35       ARHM     O4       OC311   -0.650000       15.9994           0
     25498 LPSA23   35       ARHM     HO4      HCP1     0.420000       1.00800           0
     25499 LPSA23   35       ARHM     C6       CC331   -0.270000       12.0110           0
     25500 LPSA23   35       ARHM     H61      HCA3     0.900000E-01   1.00800           0
     25501 LPSA23   35       ARHM     H62      HCA3     0.900000E-01   1.00800           0
     25502 LPSA23   35       ARHM     H63      HCA3     0.900000E-01   1.00800           0
     25503 LPSA23   36       BMANNA   C1       CC3162   0.290000       12.0110           0
     25504 LPSA23   36       BMANNA   H1       HCA1     0.900000E-01   1.00800           0
     25505 LPSA23   36       BMANNA   C5       CC3163   0.110000       12.0110           0
     25506 LPSA23   36       BMANNA   H5       HCA1     0.900000E-01   1.00800           0
     25507 LPSA23   36       BMANNA   O5       OC3C61  -0.400000       15.9994           0
     25508 LPSA23   36       BMANNA   C2       CC3161   0.700000E-01   12.0110           0
     25509 LPSA23   36       BMANNA   H2       HCA1     0.900000E-01   1.00800           0
     25510 LPSA23   36       BMANNA   N        NC2D1   -0.470000       14.0070           0
     25511 LPSA23   36       BMANNA   HN       HCP1     0.310000       1.00800           0
     25512 LPSA23   36       BMANNA   C        CC2O1    0.510000       12.0110           0
     25513 LPSA23   36       BMANNA   O        OC2D1   -0.510000       15.9994           0
     25514 LPSA23   36       BMANNA   CT       CC331   -0.270000       12.0110           0
     25515 LPSA23   36       BMANNA   HT1      HCA3     0.900000E-01   1.00800           0
     25516 LPSA23   36       BMANNA   HT2      HCA3     0.900000E-01   1.00800           0
     25517 LPSA23   36       BMANNA   HT3      HCA3     0.900000E-01   1.00800           0
     25518 LPSA23   36       BMANNA   C3       CC3161   0.140000       12.0110           0
     25519 LPSA23   36       BMANNA   H3       HCA1     0.900000E-01   1.00800           0
     25520 LPSA23   36       BMANNA   O3       OC311   -0.650000       15.9994           0
     25521 LPSA23   36       BMANNA   HO3      HCP1     0.420000       1.00800           0
     25522 LPSA23   36       BMANNA   C4       CC3161   0.140000       12.0110           0
     25523 LPSA23   36       BMANNA   H4       HCA1     0.900000E-01   1.00800           0
     25524 LPSA23   36       BMANNA   O4       OC311   -0.650000       15.9994           0
     25525 LPSA23   36       BMANNA   HO4      HCP1     0.420000       1.00800           0
     25526 LPSA23   36       BMANNA   C6       CC321    0.500000E-01   12.0110           0
     25527 LPSA23   36       BMANNA   H61      HCA2     0.900000E-01   1.00800           0
     25528 LPSA23   36       BMANNA   H62      HCA2     0.900000E-01   1.00800           0
     25529 LPSA23   36       BMANNA   O6       OC311   -0.650000       15.9994           0
     25530 LPSA23   36       BMANNA   HO6      HCP1     0.420000       1.00800           0
     25531 LPSA24   1        ECLIPA   HB6S     HCA2     0.900000E-01   1.00800           0
     25532 LPSA24   1        ECLIPA   OB6      OC301   -0.360000       15.9994           0
     25533 LPSA24   1        ECLIPA   CB6      CC321     0.00000       12.0110           0
     25534 LPSA24   1        ECLIPA   HB6R     HCA2     0.900000E-01   1.00800           0
     25535 LPSA24   1        ECLIPA   CB5      CC3163   0.110000       12.0110           0
     25536 LPSA24   1        ECLIPA   OB5      OC3C61  -0.400000       15.9994           0
     25537 LPSA24   1        ECLIPA   HB5      HCA1     0.900000E-01   1.00800           0
     25538 LPSA24   1        ECLIPA   CB1      CC3162   0.290000       12.0110           0
     25539 LPSA24   1        ECLIPA   HB1      HCA1     0.900000E-01   1.00800           0
     25540 LPSA24   1        ECLIPA   OA6      OC301   -0.360000       15.9994           0
     25541 LPSA24   1        ECLIPA   CA6      CC321     0.00000       12.0110           0
     25542 LPSA24   1        ECLIPA   HA6R     HCA2     0.900000E-01   1.00800           0
     25543 LPSA24   1        ECLIPA   HA6S     HCA2     0.900000E-01   1.00800           0
     25544 LPSA24   1        ECLIPA   CB4      CC3161  -0.900000E-01   12.0110           0
     25545 LPSA24   1        ECLIPA   HB4      HCA1     0.900000E-01   1.00800           0
     25546 LPSA24   1        ECLIPA   OB4      OC30P   -0.400000       15.9994           0
     25547 LPSA24   1        ECLIPA   PB       PC        1.10000       30.9740           0
     25548 LPSA24   1        ECLIPA   OPB4     OC2DP   -0.900000       15.9994           0
     25549 LPSA24   1        ECLIPA   OPB3     OC2DP   -0.900000       15.9994           0
     25550 LPSA24   1        ECLIPA   OPB2     OC2DP   -0.900000       15.9994           0
     25551 LPSA24   1        ECLIPA   CB3      CC3161   0.170000       12.0110           0
     25552 LPSA24   1        ECLIPA   OB3      OC301   -0.490000       15.9994           0
     25553 LPSA24   1        ECLIPA   HB3      HCA1     0.900000E-01   1.00800           0
     25554 LPSA24   1        ECLIPA   C71      CL       0.900000       12.0110           0
     25555 LPSA24   1        ECLIPA   O71      OBL     -0.630000       15.9994           0
     25556 LPSA24   1        ECLIPA   C72      CTL2    -0.220000       12.0110           0
     25557 LPSA24   1        ECLIPA   H72R     HAL2     0.900000E-01   1.00800           0
     25558 LPSA24   1        ECLIPA   H72S     HAL2     0.900000E-01   1.00800           0
     25559 LPSA24   1        ECLIPA   CB2      CC3161   0.700000E-01   12.0110           0
     25560 LPSA24   1        ECLIPA   HB2      HCA1     0.900000E-01   1.00800           0
     25561 LPSA24   1        ECLIPA   NB2      NC2D1   -0.470000       14.0070           0
     25562 LPSA24   1        ECLIPA   HNB2     HCP1     0.310000       1.00800           0
     25563 LPSA24   1        ECLIPA   CA4      CC3161   0.140000       12.0110           0
     25564 LPSA24   1        ECLIPA   HA4      HCA1     0.900000E-01   1.00800           0
     25565 LPSA24   1        ECLIPA   OA4      OC311   -0.650000       15.9994           0
     25566 LPSA24   1        ECLIPA   HOA4     HCP1     0.420000       1.00800           0
     25567 LPSA24   1        ECLIPA   CA5      CC3163   0.110000       12.0110           0
     25568 LPSA24   1        ECLIPA   HA5      HCA1     0.900000E-01   1.00800           0
     25569 LPSA24   1        ECLIPA   OA5      OC3C61  -0.400000       15.9994           0
     25570 LPSA24   1        ECLIPA   CA1      CC3162   0.110000       12.0110           0
     25571 LPSA24   1        ECLIPA   HA1      HCA1     0.900000E-01   1.00800           0
     25572 LPSA24   1        ECLIPA   OA1      OC30P   -0.400000       15.9994           0
     25573 LPSA24   1        ECLIPA   OPA2     OC2DP   -0.900000       15.9994           0
     25574 LPSA24   1        ECLIPA   OPA3     OC2DP   -0.900000       15.9994           0
     25575 LPSA24   1        ECLIPA   OPA4     OC2DP   -0.900000       15.9994           0
     25576 LPSA24   1        ECLIPA   PA       PC        1.10000       30.9740           0
     25577 LPSA24   1        ECLIPA   CA3      CC3161   0.170000       12.0110           0
     25578 LPSA24   1        ECLIPA   HA3      HCA1     0.900000E-01   1.00800           0
     25579 LPSA24   1        ECLIPA   OA3      OC301   -0.490000       15.9994           0
     25580 LPSA24   1        ECLIPA   C31      CL       0.900000       12.0110           0
     25581 LPSA24   1        ECLIPA   O31      OBL     -0.630000       15.9994           0
     25582 LPSA24   1        ECLIPA   C32      CTL2    -0.220000       12.0110           0
     25583 LPSA24   1        ECLIPA   H32R     HAL2     0.900000E-01   1.00800           0
     25584 LPSA24   1        ECLIPA   H32S     HAL2     0.900000E-01   1.00800           0
     25585 LPSA24   1        ECLIPA   CA2      CC3161   0.700000E-01   12.0110           0
     25586 LPSA24   1        ECLIPA   HA2      HCA1     0.900000E-01   1.00800           0
     25587 LPSA24   1        ECLIPA   NA2      NC2D1   -0.470000       14.0070           0
     25588 LPSA24   1        ECLIPA   HNA2     HCP1     0.310000       1.00800           0
     25589 LPSA24   1        ECLIPA   C73      CTL1     0.170000       12.0110           0
     25590 LPSA24   1        ECLIPA   H73R     HAL1     0.900000E-01   1.00800           0
     25591 LPSA24   1        ECLIPA   O73      OSL     -0.490000       15.9994           0
     25592 LPSA24   1        ECLIPA   C81      CL       0.900000       12.0110           0
     25593 LPSA24   1        ECLIPA   O81      OBL     -0.630000       15.9994           0
     25594 LPSA24   1        ECLIPA   C82      CTL2    -0.220000       12.0110           0
     25595 LPSA24   1        ECLIPA   H82R     HAL2     0.900000E-01   1.00800           0
     25596 LPSA24   1        ECLIPA   H82S     HAL2     0.900000E-01   1.00800           0
     25597 LPSA24   1        ECLIPA   C83      CTL2    -0.180000       12.0110           0
     25598 LPSA24   1        ECLIPA   H83R     HAL2     0.900000E-01   1.00800           0
     25599 LPSA24   1        ECLIPA   H83S     HAL2     0.900000E-01   1.00800           0
     25600 LPSA24   1        ECLIPA   C84      CTL2    -0.180000       12.0110           0
     25601 LPSA24   1        ECLIPA   H84R     HAL2     0.900000E-01   1.00800           0
     25602 LPSA24   1        ECLIPA   H84S     HAL2     0.900000E-01   1.00800           0
     25603 LPSA24   1        ECLIPA   C85      CTL2    -0.180000       12.0110           0
     25604 LPSA24   1        ECLIPA   H85R     HAL2     0.900000E-01   1.00800           0
     25605 LPSA24   1        ECLIPA   H85S     HAL2     0.900000E-01   1.00800           0
     25606 LPSA24   1        ECLIPA   C86      CTL2    -0.180000       12.0110           0
     25607 LPSA24   1        ECLIPA   H86R     HAL2     0.900000E-01   1.00800           0
     25608 LPSA24   1        ECLIPA   H86S     HAL2     0.900000E-01   1.00800           0
     25609 LPSA24   1        ECLIPA   C87      CTL2    -0.180000       12.0110           0
     25610 LPSA24   1        ECLIPA   H87R     HAL2     0.900000E-01   1.00800           0
     25611 LPSA24   1        ECLIPA   H87S     HAL2     0.900000E-01   1.00800           0
     25612 LPSA24   1        ECLIPA   C88      CTL2    -0.180000       12.0110           0
     25613 LPSA24   1        ECLIPA   H88R     HAL2     0.900000E-01   1.00800           0
     25614 LPSA24   1        ECLIPA   H88S     HAL2     0.900000E-01   1.00800           0
     25615 LPSA24   1        ECLIPA   C89      CTL2    -0.180000       12.0110           0
     25616 LPSA24   1        ECLIPA   H89R     HAL2     0.900000E-01   1.00800           0
     25617 LPSA24   1        ECLIPA   H89S     HAL2     0.900000E-01   1.00800           0
     25618 LPSA24   1        ECLIPA   C810     CTL2    -0.180000       12.0110           0
     25619 LPSA24   1        ECLIPA   H810R    HAL2     0.900000E-01   1.00800           0
     25620 LPSA24   1        ECLIPA   H810S    HAL2     0.900000E-01   1.00800           0
     25621 LPSA24   1        ECLIPA   C811     CTL2    -0.180000       12.0110           0
     25622 LPSA24   1        ECLIPA   H811R    HAL2     0.900000E-01   1.00800           0
     25623 LPSA24   1        ECLIPA   H811S    HAL2     0.900000E-01   1.00800           0
     25624 LPSA24   1        ECLIPA   C812     CTL2    -0.180000       12.0110           0
     25625 LPSA24   1        ECLIPA   H812R    HAL2     0.900000E-01   1.00800           0
     25626 LPSA24   1        ECLIPA   H812S    HAL2     0.900000E-01   1.00800           0
     25627 LPSA24   1        ECLIPA   C813     CTL2    -0.180000       12.0110           0
     25628 LPSA24   1        ECLIPA   H813R    HAL2     0.900000E-01   1.00800           0
     25629 LPSA24   1        ECLIPA   H813S    HAL2     0.900000E-01   1.00800           0
     25630 LPSA24   1        ECLIPA   C814     CTL3    -0.270000       12.0110           0
     25631 LPSA24   1        ECLIPA   H814R    HAL3     0.900000E-01   1.00800           0
     25632 LPSA24   1        ECLIPA   H814S    HAL3     0.900000E-01   1.00800           0
     25633 LPSA24   1        ECLIPA   H814T    HAL3     0.900000E-01   1.00800           0
     25634 LPSA24   1        ECLIPA   C74      CTL2    -0.180000       12.0110           0
     25635 LPSA24   1        ECLIPA   H74R     HAL2     0.900000E-01   1.00800           0
     25636 LPSA24   1        ECLIPA   H74S     HAL2     0.900000E-01   1.00800           0
     25637 LPSA24   1        ECLIPA   C75      CTL2    -0.180000       12.0110           0
     25638 LPSA24   1        ECLIPA   H75R     HAL2     0.900000E-01   1.00800           0
     25639 LPSA24   1        ECLIPA   H75S     HAL2     0.900000E-01   1.00800           0
     25640 LPSA24   1        ECLIPA   C76      CTL2    -0.180000       12.0110           0
     25641 LPSA24   1        ECLIPA   H76R     HAL2     0.900000E-01   1.00800           0
     25642 LPSA24   1        ECLIPA   H76S     HAL2     0.900000E-01   1.00800           0
     25643 LPSA24   1        ECLIPA   C77      CTL2    -0.180000       12.0110           0
     25644 LPSA24   1        ECLIPA   H77R     HAL2     0.900000E-01   1.00800           0
     25645 LPSA24   1        ECLIPA   H77S     HAL2     0.900000E-01   1.00800           0
     25646 LPSA24   1        ECLIPA   C78      CTL2    -0.180000       12.0110           0
     25647 LPSA24   1        ECLIPA   H78R     HAL2     0.900000E-01   1.00800           0
     25648 LPSA24   1        ECLIPA   H78S     HAL2     0.900000E-01   1.00800           0
     25649 LPSA24   1        ECLIPA   C79      CTL2    -0.180000       12.0110           0
     25650 LPSA24   1        ECLIPA   H79R     HAL2     0.900000E-01   1.00800           0
     25651 LPSA24   1        ECLIPA   H79S     HAL2     0.900000E-01   1.00800           0
     25652 LPSA24   1        ECLIPA   C710     CTL2    -0.180000       12.0110           0
     25653 LPSA24   1        ECLIPA   H710R    HAL2     0.900000E-01   1.00800           0
     25654 LPSA24   1        ECLIPA   H710S    HAL2     0.900000E-01   1.00800           0
     25655 LPSA24   1        ECLIPA   C711     CTL2    -0.180000       12.0110           0
     25656 LPSA24   1        ECLIPA   H711R    HAL2     0.900000E-01   1.00800           0
     25657 LPSA24   1        ECLIPA   H711S    HAL2     0.900000E-01   1.00800           0
     25658 LPSA24   1        ECLIPA   C712     CTL2    -0.180000       12.0110           0
     25659 LPSA24   1        ECLIPA   H712R    HAL2     0.900000E-01   1.00800           0
     25660 LPSA24   1        ECLIPA   H712S    HAL2     0.900000E-01   1.00800           0
     25661 LPSA24   1        ECLIPA   C713     CTL2    -0.180000       12.0110           0
     25662 LPSA24   1        ECLIPA   H713R    HAL2     0.900000E-01   1.00800           0
     25663 LPSA24   1        ECLIPA   H713S    HAL2     0.900000E-01   1.00800           0
     25664 LPSA24   1        ECLIPA   C714     CTL3    -0.270000       12.0110           0
     25665 LPSA24   1        ECLIPA   H714R    HAL3     0.900000E-01   1.00800           0
     25666 LPSA24   1        ECLIPA   H714S    HAL3     0.900000E-01   1.00800           0
     25667 LPSA24   1        ECLIPA   H714T    HAL3     0.900000E-01   1.00800           0
     25668 LPSA24   1        ECLIPA   C51      CC2O1    0.550000       12.0110           0
     25669 LPSA24   1        ECLIPA   O51      OC2D1   -0.550000       15.9994           0
     25670 LPSA24   1        ECLIPA   C52      CTL2    -0.180000       12.0110           0
     25671 LPSA24   1        ECLIPA   H52R     HAL2     0.900000E-01   1.00800           0
     25672 LPSA24   1        ECLIPA   H52S     HAL2     0.900000E-01   1.00800           0
     25673 LPSA24   1        ECLIPA   C53      CTL1     0.170000       12.0110           0
     25674 LPSA24   1        ECLIPA   H53R     HAL1     0.900000E-01   1.00800           0
     25675 LPSA24   1        ECLIPA   O53      OSL     -0.490000       15.9994           0
     25676 LPSA24   1        ECLIPA   C61      CL       0.900000       12.0110           0
     25677 LPSA24   1        ECLIPA   O61      OBL     -0.630000       15.9994           0
     25678 LPSA24   1        ECLIPA   C62      CTL2    -0.220000       12.0110           0
     25679 LPSA24   1        ECLIPA   H62R     HAL2     0.900000E-01   1.00800           0
     25680 LPSA24   1        ECLIPA   H62S     HAL2     0.900000E-01   1.00800           0
     25681 LPSA24   1        ECLIPA   C63      CTL2    -0.180000       12.0110           0
     25682 LPSA24   1        ECLIPA   H63R     HAL2     0.900000E-01   1.00800           0
     25683 LPSA24   1        ECLIPA   H63S     HAL2     0.900000E-01   1.00800           0
     25684 LPSA24   1        ECLIPA   C64      CTL2    -0.180000       12.0110           0
     25685 LPSA24   1        ECLIPA   H64R     HAL2     0.900000E-01   1.00800           0
     25686 LPSA24   1        ECLIPA   H64S     HAL2     0.900000E-01   1.00800           0
     25687 LPSA24   1        ECLIPA   C65      CTL2    -0.180000       12.0110           0
     25688 LPSA24   1        ECLIPA   H65R     HAL2     0.900000E-01   1.00800           0
     25689 LPSA24   1        ECLIPA   H65S     HAL2     0.900000E-01   1.00800           0
     25690 LPSA24   1        ECLIPA   C66      CTL2    -0.180000       12.0110           0
     25691 LPSA24   1        ECLIPA   H66R     HAL2     0.900000E-01   1.00800           0
     25692 LPSA24   1        ECLIPA   H66S     HAL2     0.900000E-01   1.00800           0
     25693 LPSA24   1        ECLIPA   C67      CTL2    -0.180000       12.0110           0
     25694 LPSA24   1        ECLIPA   H67R     HAL2     0.900000E-01   1.00800           0
     25695 LPSA24   1        ECLIPA   H67S     HAL2     0.900000E-01   1.00800           0
     25696 LPSA24   1        ECLIPA   C68      CTL2    -0.180000       12.0110           0
     25697 LPSA24   1        ECLIPA   H68R     HAL2     0.900000E-01   1.00800           0
     25698 LPSA24   1        ECLIPA   H68S     HAL2     0.900000E-01   1.00800           0
     25699 LPSA24   1        ECLIPA   C69      CTL2    -0.180000       12.0110           0
     25700 LPSA24   1        ECLIPA   H69R     HAL2     0.900000E-01   1.00800           0
     25701 LPSA24   1        ECLIPA   H69S     HAL2     0.900000E-01   1.00800           0
     25702 LPSA24   1        ECLIPA   C610     CTL2    -0.180000       12.0110           0
     25703 LPSA24   1        ECLIPA   H610R    HAL2     0.900000E-01   1.00800           0
     25704 LPSA24   1        ECLIPA   H610S    HAL2     0.900000E-01   1.00800           0
     25705 LPSA24   1        ECLIPA   C611     CTL2    -0.180000       12.0110           0
     25706 LPSA24   1        ECLIPA   H611R    HAL2     0.900000E-01   1.00800           0
     25707 LPSA24   1        ECLIPA   H611S    HAL2     0.900000E-01   1.00800           0
     25708 LPSA24   1        ECLIPA   C612     CTL3    -0.270000       12.0110           0
     25709 LPSA24   1        ECLIPA   H612R    HAL3     0.900000E-01   1.00800           0
     25710 LPSA24   1        ECLIPA   H612S    HAL3     0.900000E-01   1.00800           0
     25711 LPSA24   1        ECLIPA   H612T    HAL3     0.900000E-01   1.00800           0
     25712 LPSA24   1        ECLIPA   C54      CTL2    -0.180000       12.0110           0
     25713 LPSA24   1        ECLIPA   H54R     HAL2     0.900000E-01   1.00800           0
     25714 LPSA24   1        ECLIPA   H54S     HAL2     0.900000E-01   1.00800           0
     25715 LPSA24   1        ECLIPA   C55      CTL2    -0.180000       12.0110           0
     25716 LPSA24   1        ECLIPA   H55R     HAL2     0.900000E-01   1.00800           0
     25717 LPSA24   1        ECLIPA   H55S     HAL2     0.900000E-01   1.00800           0
     25718 LPSA24   1        ECLIPA   C56      CTL2    -0.180000       12.0110           0
     25719 LPSA24   1        ECLIPA   H56R     HAL2     0.900000E-01   1.00800           0
     25720 LPSA24   1        ECLIPA   H56S     HAL2     0.900000E-01   1.00800           0
     25721 LPSA24   1        ECLIPA   C57      CTL2    -0.180000       12.0110           0
     25722 LPSA24   1        ECLIPA   H57R     HAL2     0.900000E-01   1.00800           0
     25723 LPSA24   1        ECLIPA   H57S     HAL2     0.900000E-01   1.00800           0
     25724 LPSA24   1        ECLIPA   C58      CTL2    -0.180000       12.0110           0
     25725 LPSA24   1        ECLIPA   H58R     HAL2     0.900000E-01   1.00800           0
     25726 LPSA24   1        ECLIPA   H58S     HAL2     0.900000E-01   1.00800           0
     25727 LPSA24   1        ECLIPA   C59      CTL2    -0.180000       12.0110           0
     25728 LPSA24   1        ECLIPA   H59R     HAL2     0.900000E-01   1.00800           0
     25729 LPSA24   1        ECLIPA   H59S     HAL2     0.900000E-01   1.00800           0
     25730 LPSA24   1        ECLIPA   C510     CTL2    -0.180000       12.0110           0
     25731 LPSA24   1        ECLIPA   H510R    HAL2     0.900000E-01   1.00800           0
     25732 LPSA24   1        ECLIPA   H510S    HAL2     0.900000E-01   1.00800           0
     25733 LPSA24   1        ECLIPA   C511     CTL2    -0.180000       12.0110           0
     25734 LPSA24   1        ECLIPA   H511R    HAL2     0.900000E-01   1.00800           0
     25735 LPSA24   1        ECLIPA   H511S    HAL2     0.900000E-01   1.00800           0
     25736 LPSA24   1        ECLIPA   C512     CTL2    -0.180000       12.0110           0
     25737 LPSA24   1        ECLIPA   H512R    HAL2     0.900000E-01   1.00800           0
     25738 LPSA24   1        ECLIPA   H512S    HAL2     0.900000E-01   1.00800           0
     25739 LPSA24   1        ECLIPA   C513     CTL2    -0.180000       12.0110           0
     25740 LPSA24   1        ECLIPA   H513R    HAL2     0.900000E-01   1.00800           0
     25741 LPSA24   1        ECLIPA   H513S    HAL2     0.900000E-01   1.00800           0
     25742 LPSA24   1        ECLIPA   C514     CTL3    -0.270000       12.0110           0
     25743 LPSA24   1        ECLIPA   H514R    HAL3     0.900000E-01   1.00800           0
     25744 LPSA24   1        ECLIPA   H514S    HAL3     0.900000E-01   1.00800           0
     25745 LPSA24   1        ECLIPA   H514T    HAL3     0.900000E-01   1.00800           0
     25746 LPSA24   1        ECLIPA   C33      CTL1     0.140000       12.0110           0
     25747 LPSA24   1        ECLIPA   H33R     HAL1     0.900000E-01   1.00800           0
     25748 LPSA24   1        ECLIPA   O33      OH1     -0.660000       15.9994           0
     25749 LPSA24   1        ECLIPA   HO33     H        0.430000       1.00800           0
     25750 LPSA24   1        ECLIPA   C34      CTL2    -0.180000       12.0110           0
     25751 LPSA24   1        ECLIPA   H34R     HAL2     0.900000E-01   1.00800           0
     25752 LPSA24   1        ECLIPA   H34S     HAL2     0.900000E-01   1.00800           0
     25753 LPSA24   1        ECLIPA   C35      CTL2    -0.180000       12.0110           0
     25754 LPSA24   1        ECLIPA   H35R     HAL2     0.900000E-01   1.00800           0
     25755 LPSA24   1        ECLIPA   H35S     HAL2     0.900000E-01   1.00800           0
     25756 LPSA24   1        ECLIPA   C36      CTL2    -0.180000       12.0110           0
     25757 LPSA24   1        ECLIPA   H36R     HAL2     0.900000E-01   1.00800           0
     25758 LPSA24   1        ECLIPA   H36S     HAL2     0.900000E-01   1.00800           0
     25759 LPSA24   1        ECLIPA   C37      CTL2    -0.180000       12.0110           0
     25760 LPSA24   1        ECLIPA   H37R     HAL2     0.900000E-01   1.00800           0
     25761 LPSA24   1        ECLIPA   H37S     HAL2     0.900000E-01   1.00800           0
     25762 LPSA24   1        ECLIPA   C38      CTL2    -0.180000       12.0110           0
     25763 LPSA24   1        ECLIPA   H38R     HAL2     0.900000E-01   1.00800           0
     25764 LPSA24   1        ECLIPA   H38S     HAL2     0.900000E-01   1.00800           0
     25765 LPSA24   1        ECLIPA   C39      CTL2    -0.180000       12.0110           0
     25766 LPSA24   1        ECLIPA   H39R     HAL2     0.900000E-01   1.00800           0
     25767 LPSA24   1        ECLIPA   H39S     HAL2     0.900000E-01   1.00800           0
     25768 LPSA24   1        ECLIPA   C310     CTL2    -0.180000       12.0110           0
     25769 LPSA24   1        ECLIPA   H310R    HAL2     0.900000E-01   1.00800           0
     25770 LPSA24   1        ECLIPA   H310S    HAL2     0.900000E-01   1.00800           0
     25771 LPSA24   1        ECLIPA   C311     CTL2    -0.180000       12.0110           0
     25772 LPSA24   1        ECLIPA   H311R    HAL2     0.900000E-01   1.00800           0
     25773 LPSA24   1        ECLIPA   H311S    HAL2     0.900000E-01   1.00800           0
     25774 LPSA24   1        ECLIPA   C312     CTL2    -0.180000       12.0110           0
     25775 LPSA24   1        ECLIPA   H312R    HAL2     0.900000E-01   1.00800           0
     25776 LPSA24   1        ECLIPA   H312S    HAL2     0.900000E-01   1.00800           0
     25777 LPSA24   1        ECLIPA   C313     CTL2    -0.180000       12.0110           0
     25778 LPSA24   1        ECLIPA   H313R    HAL2     0.900000E-01   1.00800           0
     25779 LPSA24   1        ECLIPA   H313S    HAL2     0.900000E-01   1.00800           0
     25780 LPSA24   1        ECLIPA   C314     CTL3    -0.270000       12.0110           0
     25781 LPSA24   1        ECLIPA   H314R    HAL3     0.900000E-01   1.00800           0
     25782 LPSA24   1        ECLIPA   H314S    HAL3     0.900000E-01   1.00800           0
     25783 LPSA24   1        ECLIPA   H314T    HAL3     0.900000E-01   1.00800           0
     25784 LPSA24   1        ECLIPA   C11      CC2O1    0.550000       12.0110           0
     25785 LPSA24   1        ECLIPA   O11      OC2D1   -0.550000       15.9994           0
     25786 LPSA24   1        ECLIPA   C12      CTL2    -0.180000       12.0110           0
     25787 LPSA24   1        ECLIPA   H12R     HAL2     0.900000E-01   1.00800           0
     25788 LPSA24   1        ECLIPA   H12S     HAL2     0.900000E-01   1.00800           0
     25789 LPSA24   1        ECLIPA   C13      CTL1     0.140000       12.0110           0
     25790 LPSA24   1        ECLIPA   H13R     HAL1     0.900000E-01   1.00800           0
     25791 LPSA24   1        ECLIPA   O13      OH1     -0.660000       15.9994           0
     25792 LPSA24   1        ECLIPA   HO13     H        0.430000       1.00800           0
     25793 LPSA24   1        ECLIPA   C14      CTL2    -0.180000       12.0110           0
     25794 LPSA24   1        ECLIPA   H14R     HAL2     0.900000E-01   1.00800           0
     25795 LPSA24   1        ECLIPA   H14S     HAL2     0.900000E-01   1.00800           0
     25796 LPSA24   1        ECLIPA   C15      CTL2    -0.180000       12.0110           0
     25797 LPSA24   1        ECLIPA   H15R     HAL2     0.900000E-01   1.00800           0
     25798 LPSA24   1        ECLIPA   H15S     HAL2     0.900000E-01   1.00800           0
     25799 LPSA24   1        ECLIPA   C16      CTL2    -0.180000       12.0110           0
     25800 LPSA24   1        ECLIPA   H16R     HAL2     0.900000E-01   1.00800           0
     25801 LPSA24   1        ECLIPA   H16S     HAL2     0.900000E-01   1.00800           0
     25802 LPSA24   1        ECLIPA   C17      CTL2    -0.180000       12.0110           0
     25803 LPSA24   1        ECLIPA   H17R     HAL2     0.900000E-01   1.00800           0
     25804 LPSA24   1        ECLIPA   H17S     HAL2     0.900000E-01   1.00800           0
     25805 LPSA24   1        ECLIPA   C18      CTL2    -0.180000       12.0110           0
     25806 LPSA24   1        ECLIPA   H18R     HAL2     0.900000E-01   1.00800           0
     25807 LPSA24   1        ECLIPA   H18S     HAL2     0.900000E-01   1.00800           0
     25808 LPSA24   1        ECLIPA   C19      CTL2    -0.180000       12.0110           0
     25809 LPSA24   1        ECLIPA   H19R     HAL2     0.900000E-01   1.00800           0
     25810 LPSA24   1        ECLIPA   H19S     HAL2     0.900000E-01   1.00800           0
     25811 LPSA24   1        ECLIPA   C110     CTL2    -0.180000       12.0110           0
     25812 LPSA24   1        ECLIPA   H110R    HAL2     0.900000E-01   1.00800           0
     25813 LPSA24   1        ECLIPA   H110S    HAL2     0.900000E-01   1.00800           0
     25814 LPSA24   1        ECLIPA   C111     CTL2    -0.180000       12.0110           0
     25815 LPSA24   1        ECLIPA   H111R    HAL2     0.900000E-01   1.00800           0
     25816 LPSA24   1        ECLIPA   H111S    HAL2     0.900000E-01   1.00800           0
     25817 LPSA24   1        ECLIPA   C112     CTL2    -0.180000       12.0110           0
     25818 LPSA24   1        ECLIPA   H112R    HAL2     0.900000E-01   1.00800           0
     25819 LPSA24   1        ECLIPA   H112S    HAL2     0.900000E-01   1.00800           0
     25820 LPSA24   1        ECLIPA   C113     CTL2    -0.180000       12.0110           0
     25821 LPSA24   1        ECLIPA   H113R    HAL2     0.900000E-01   1.00800           0
     25822 LPSA24   1        ECLIPA   H113S    HAL2     0.900000E-01   1.00800           0
     25823 LPSA24   1        ECLIPA   C114     CTL3    -0.270000       12.0110           0
     25824 LPSA24   1        ECLIPA   H114R    HAL3     0.900000E-01   1.00800           0
     25825 LPSA24   1        ECLIPA   H114S    HAL3     0.900000E-01   1.00800           0
     25826 LPSA24   1        ECLIPA   H114T    HAL3     0.900000E-01   1.00800           0
     25827 LPSA24   2        AKDO     C1       CC2O2    0.300000       12.0110           0
     25828 LPSA24   2        AKDO     O11      OC2D2   -0.600000       15.9994           0
     25829 LPSA24   2        AKDO     O12      OC2D2   -0.600000       15.9994           0
     25830 LPSA24   2        AKDO     C2       CC3062   0.280000       12.0110           0
     25831 LPSA24   2        AKDO     C6       CC3163   0.110000       12.0110           0
     25832 LPSA24   2        AKDO     H6       HCA1     0.900000E-01   1.00800           0
     25833 LPSA24   2        AKDO     O6       OC3C61  -0.400000       15.9994           0
     25834 LPSA24   2        AKDO     C3       CC3261  -0.180000       12.0110           0
     25835 LPSA24   2        AKDO     H31      HCA2     0.900000E-01   1.00800           0
     25836 LPSA24   2        AKDO     H32      HCA2     0.900000E-01   1.00800           0
     25837 LPSA24   2        AKDO     C4       CC3161   0.900000E-01   12.0110           0
     25838 LPSA24   2        AKDO     H4       HCA1     0.900000E-01   1.00800           0
     25839 LPSA24   2        AKDO     O4       OC301   -0.360000       15.9994           0
     25840 LPSA24   2        AKDO     C5       CC3161   0.900000E-01   12.0110           0
     25841 LPSA24   2        AKDO     H5       HCA1     0.900000E-01   1.00800           0
     25842 LPSA24   2        AKDO     O5       OC301   -0.360000       15.9994           0
     25843 LPSA24   2        AKDO     C7       CC312    0.140000       12.0110           0
     25844 LPSA24   2        AKDO     H7       HCA1     0.900000E-01   1.00800           0
     25845 LPSA24   2        AKDO     O7       OC311   -0.650000       15.9994           0
     25846 LPSA24   2        AKDO     HO7      HCP1     0.420000       1.00800           0
     25847 LPSA24   2        AKDO     C8       CC322    0.500000E-01   12.0110           0
     25848 LPSA24   2        AKDO     H81      HCA2     0.900000E-01   1.00800           0
     25849 LPSA24   2        AKDO     H82      HCA2     0.900000E-01   1.00800           0
     25850 LPSA24   2        AKDO     O8       OC311   -0.650000       15.9994           0
     25851 LPSA24   2        AKDO     HO8      HCP1     0.420000       1.00800           0
     25852 LPSA24   3        AKDO     C1       CC2O2    0.300000       12.0110           0
     25853 LPSA24   3        AKDO     O11      OC2D2   -0.600000       15.9994           0
     25854 LPSA24   3        AKDO     O12      OC2D2   -0.600000       15.9994           0
     25855 LPSA24   3        AKDO     C2       CC3062   0.280000       12.0110           0
     25856 LPSA24   3        AKDO     C6       CC3163   0.110000       12.0110           0
     25857 LPSA24   3        AKDO     H6       HCA1     0.900000E-01   1.00800           0
     25858 LPSA24   3        AKDO     O6       OC3C61  -0.400000       15.9994           0
     25859 LPSA24   3        AKDO     C3       CC3261  -0.180000       12.0110           0
     25860 LPSA24   3        AKDO     H31      HCA2     0.900000E-01   1.00800           0
     25861 LPSA24   3        AKDO     H32      HCA2     0.900000E-01   1.00800           0
     25862 LPSA24   3        AKDO     C4       CC3161   0.140000       12.0110           0
     25863 LPSA24   3        AKDO     H4       HCA1     0.900000E-01   1.00800           0
     25864 LPSA24   3        AKDO     O4       OC311   -0.650000       15.9994           0
     25865 LPSA24   3        AKDO     HO4      HCP1     0.420000       1.00800           0
     25866 LPSA24   3        AKDO     C5       CC3161   0.140000       12.0110           0
     25867 LPSA24   3        AKDO     H5       HCA1     0.900000E-01   1.00800           0
     25868 LPSA24   3        AKDO     O5       OC311   -0.650000       15.9994           0
     25869 LPSA24   3        AKDO     HO5      HCP1     0.420000       1.00800           0
     25870 LPSA24   3        AKDO     C7       CC312    0.140000       12.0110           0
     25871 LPSA24   3        AKDO     H7       HCA1     0.900000E-01   1.00800           0
     25872 LPSA24   3        AKDO     O7       OC311   -0.650000       15.9994           0
     25873 LPSA24   3        AKDO     HO7      HCP1     0.420000       1.00800           0
     25874 LPSA24   3        AKDO     C8       CC322    0.500000E-01   12.0110           0
     25875 LPSA24   3        AKDO     H81      HCA2     0.900000E-01   1.00800           0
     25876 LPSA24   3        AKDO     H82      HCA2     0.900000E-01   1.00800           0
     25877 LPSA24   3        AKDO     O8       OC311   -0.650000       15.9994           0
     25878 LPSA24   3        AKDO     HO8      HCP1     0.420000       1.00800           0
     25879 LPSA24   4        AHEP     C1       CC3162   0.290000       12.0110           0
     25880 LPSA24   4        AHEP     H1       HCA1     0.900000E-01   1.00800           0
     25881 LPSA24   4        AHEP     C5       CC3163   0.110000       12.0110           0
     25882 LPSA24   4        AHEP     H5       HCA1     0.900000E-01   1.00800           0
     25883 LPSA24   4        AHEP     O5       OC3C61  -0.400000       15.9994           0
     25884 LPSA24   4        AHEP     C2       CC3161   0.140000       12.0110           0
     25885 LPSA24   4        AHEP     H2       HCA1     0.900000E-01   1.00800           0
     25886 LPSA24   4        AHEP     O2       OC311   -0.650000       15.9994           0
     25887 LPSA24   4        AHEP     HO2      HCP1     0.420000       1.00800           0
     25888 LPSA24   4        AHEP     C3       CC3161   0.900000E-01   12.0110           0
     25889 LPSA24   4        AHEP     H3       HCA1     0.900000E-01   1.00800           0
     25890 LPSA24   4        AHEP     O3       OC301   -0.360000       15.9994           0
     25891 LPSA24   4        AHEP     C4       CC3161  -0.900000E-01   12.0110           0
     25892 LPSA24   4        AHEP     H4       HCA1     0.900000E-01   1.00800           0
     25893 LPSA24   4        AHEP     O4       OC30P   -0.400000       15.9994           0
     25894 LPSA24   4        AHEP     P4       PC        1.10000       30.9740           0
     25895 LPSA24   4        AHEP     OP42     OC2DP   -0.900000       15.9994           0
     25896 LPSA24   4        AHEP     OP43     OC2DP   -0.900000       15.9994           0
     25897 LPSA24   4        AHEP     OP44     OC2DP   -0.900000       15.9994           0
     25898 LPSA24   4        AHEP     C6       CC312    0.140000       12.0110           0
     25899 LPSA24   4        AHEP     H6       HCA1     0.900000E-01   1.00800           0
     25900 LPSA24   4        AHEP     O6       OC311   -0.650000       15.9994           0
     25901 LPSA24   4        AHEP     HO6      HCP1     0.420000       1.00800           0
     25902 LPSA24   4        AHEP     C7       CC322    0.500000E-01   12.0110           0
     25903 LPSA24   4        AHEP     H71      HCA2     0.900000E-01   1.00800           0
     25904 LPSA24   4        AHEP     H72      HCA2     0.900000E-01   1.00800           0
     25905 LPSA24   4        AHEP     O7       OC311   -0.650000       15.9994           0
     25906 LPSA24   4        AHEP     HO7      HCP1     0.420000       1.00800           0
     25907 LPSA24   5        AHEP     C1       CC3162   0.290000       12.0110           0
     25908 LPSA24   5        AHEP     H1       HCA1     0.900000E-01   1.00800           0
     25909 LPSA24   5        AHEP     C5       CC3163   0.110000       12.0110           0
     25910 LPSA24   5        AHEP     H5       HCA1     0.900000E-01   1.00800           0
     25911 LPSA24   5        AHEP     O5       OC3C61  -0.400000       15.9994           0
     25912 LPSA24   5        AHEP     C2       CC3161   0.140000       12.0110           0
     25913 LPSA24   5        AHEP     H2       HCA1     0.900000E-01   1.00800           0
     25914 LPSA24   5        AHEP     O2       OC311   -0.650000       15.9994           0
     25915 LPSA24   5        AHEP     HO2      HCP1     0.420000       1.00800           0
     25916 LPSA24   5        AHEP     C3       CC3161   0.900000E-01   12.0110           0
     25917 LPSA24   5        AHEP     H3       HCA1     0.900000E-01   1.00800           0
     25918 LPSA24   5        AHEP     O3       OC301   -0.360000       15.9994           0
     25919 LPSA24   5        AHEP     C4       CC3161  -0.900000E-01   12.0110           0
     25920 LPSA24   5        AHEP     H4       HCA1     0.900000E-01   1.00800           0
     25921 LPSA24   5        AHEP     O4       OC30P   -0.400000       15.9994           0
     25922 LPSA24   5        AHEP     P4       PC        1.10000       30.9740           0
     25923 LPSA24   5        AHEP     OP42     OC2DP   -0.900000       15.9994           0
     25924 LPSA24   5        AHEP     OP43     OC2DP   -0.900000       15.9994           0
     25925 LPSA24   5        AHEP     OP44     OC2DP   -0.900000       15.9994           0
     25926 LPSA24   5        AHEP     C6       CC312    0.140000       12.0110           0
     25927 LPSA24   5        AHEP     H6       HCA1     0.900000E-01   1.00800           0
     25928 LPSA24   5        AHEP     O6       OC311   -0.650000       15.9994           0
     25929 LPSA24   5        AHEP     HO6      HCP1     0.420000       1.00800           0
     25930 LPSA24   5        AHEP     C7       CC322     0.00000       12.0110           0
     25931 LPSA24   5        AHEP     H71      HCA2     0.900000E-01   1.00800           0
     25932 LPSA24   5        AHEP     H72      HCA2     0.900000E-01   1.00800           0
     25933 LPSA24   5        AHEP     O7       OC301   -0.360000       15.9994           0
     25934 LPSA24   6        AHEP     C1       CC3162   0.290000       12.0110           0
     25935 LPSA24   6        AHEP     H1       HCA1     0.900000E-01   1.00800           0
     25936 LPSA24   6        AHEP     C5       CC3163   0.110000       12.0110           0
     25937 LPSA24   6        AHEP     H5       HCA1     0.900000E-01   1.00800           0
     25938 LPSA24   6        AHEP     O5       OC3C61  -0.400000       15.9994           0
     25939 LPSA24   6        AHEP     C2       CC3161   0.140000       12.0110           0
     25940 LPSA24   6        AHEP     H2       HCA1     0.900000E-01   1.00800           0
     25941 LPSA24   6        AHEP     O2       OC311   -0.650000       15.9994           0
     25942 LPSA24   6        AHEP     HO2      HCP1     0.420000       1.00800           0
     25943 LPSA24   6        AHEP     C3       CC3161   0.140000       12.0110           0
     25944 LPSA24   6        AHEP     H3       HCA1     0.900000E-01   1.00800           0
     25945 LPSA24   6        AHEP     O3       OC311   -0.650000       15.9994           0
     25946 LPSA24   6        AHEP     HO3      HCP1     0.420000       1.00800           0
     25947 LPSA24   6        AHEP     C4       CC3161   0.140000       12.0110           0
     25948 LPSA24   6        AHEP     H4       HCA1     0.900000E-01   1.00800           0
     25949 LPSA24   6        AHEP     O4       OC311   -0.650000       15.9994           0
     25950 LPSA24   6        AHEP     HO4      HCP1     0.420000       1.00800           0
     25951 LPSA24   6        AHEP     C6       CC312    0.140000       12.0110           0
     25952 LPSA24   6        AHEP     H6       HCA1     0.900000E-01   1.00800           0
     25953 LPSA24   6        AHEP     O6       OC311   -0.650000       15.9994           0
     25954 LPSA24   6        AHEP     HO6      HCP1     0.420000       1.00800           0
     25955 LPSA24   6        AHEP     C7       CC322    0.500000E-01   12.0110           0
     25956 LPSA24   6        AHEP     H71      HCA2     0.900000E-01   1.00800           0
     25957 LPSA24   6        AHEP     H72      HCA2     0.900000E-01   1.00800           0
     25958 LPSA24   6        AHEP     O7       OC311   -0.650000       15.9994           0
     25959 LPSA24   6        AHEP     HO7      HCP1     0.420000       1.00800           0
     25960 LPSA24   7        AGLC     C1       CC3162   0.290000       12.0110           0
     25961 LPSA24   7        AGLC     H1       HCA1     0.900000E-01   1.00800           0
     25962 LPSA24   7        AGLC     C5       CC3163   0.110000       12.0110           0
     25963 LPSA24   7        AGLC     H5       HCA1     0.900000E-01   1.00800           0
     25964 LPSA24   7        AGLC     O5       OC3C61  -0.400000       15.9994           0
     25965 LPSA24   7        AGLC     C2       CC3161   0.140000       12.0110           0
     25966 LPSA24   7        AGLC     H2       HCA1     0.900000E-01   1.00800           0
     25967 LPSA24   7        AGLC     O2       OC311   -0.650000       15.9994           0
     25968 LPSA24   7        AGLC     HO2      HCP1     0.420000       1.00800           0
     25969 LPSA24   7        AGLC     C3       CC3161   0.900000E-01   12.0110           0
     25970 LPSA24   7        AGLC     H3       HCA1     0.900000E-01   1.00800           0
     25971 LPSA24   7        AGLC     O3       OC301   -0.360000       15.9994           0
     25972 LPSA24   7        AGLC     C4       CC3161   0.140000       12.0110           0
     25973 LPSA24   7        AGLC     H4       HCA1     0.900000E-01   1.00800           0
     25974 LPSA24   7        AGLC     O4       OC311   -0.650000       15.9994           0
     25975 LPSA24   7        AGLC     HO4      HCP1     0.420000       1.00800           0
     25976 LPSA24   7        AGLC     C6       CC321    0.500000E-01   12.0110           0
     25977 LPSA24   7        AGLC     H61      HCA2     0.900000E-01   1.00800           0
     25978 LPSA24   7        AGLC     H62      HCA2     0.900000E-01   1.00800           0
     25979 LPSA24   7        AGLC     O6       OC311   -0.650000       15.9994           0
     25980 LPSA24   7        AGLC     HO6      HCP1     0.420000       1.00800           0
     25981 LPSA24   8        AGLC     C1       CC3162   0.290000       12.0110           0
     25982 LPSA24   8        AGLC     H1       HCA1     0.900000E-01   1.00800           0
     25983 LPSA24   8        AGLC     C5       CC3163   0.110000       12.0110           0
     25984 LPSA24   8        AGLC     H5       HCA1     0.900000E-01   1.00800           0
     25985 LPSA24   8        AGLC     O5       OC3C61  -0.400000       15.9994           0
     25986 LPSA24   8        AGLC     C2       CC3161   0.900000E-01   12.0110           0
     25987 LPSA24   8        AGLC     H2       HCA1     0.900000E-01   1.00800           0
     25988 LPSA24   8        AGLC     O2       OC301   -0.360000       15.9994           0
     25989 LPSA24   8        AGLC     C3       CC3161   0.900000E-01   12.0110           0
     25990 LPSA24   8        AGLC     H3       HCA1     0.900000E-01   1.00800           0
     25991 LPSA24   8        AGLC     O3       OC301   -0.360000       15.9994           0
     25992 LPSA24   8        AGLC     C4       CC3161   0.140000       12.0110           0
     25993 LPSA24   8        AGLC     H4       HCA1     0.900000E-01   1.00800           0
     25994 LPSA24   8        AGLC     O4       OC311   -0.650000       15.9994           0
     25995 LPSA24   8        AGLC     HO4      HCP1     0.420000       1.00800           0
     25996 LPSA24   8        AGLC     C6       CC321    0.500000E-01   12.0110           0
     25997 LPSA24   8        AGLC     H61      HCA2     0.900000E-01   1.00800           0
     25998 LPSA24   8        AGLC     H62      HCA2     0.900000E-01   1.00800           0
     25999 LPSA24   8        AGLC     O6       OC311   -0.650000       15.9994           0
     26000 LPSA24   8        AGLC     HO6      HCP1     0.420000       1.00800           0
     26001 LPSA24   9        AGAL     C1       CC3162   0.290000       12.0110           0
     26002 LPSA24   9        AGAL     H1       HCA1     0.900000E-01   1.00800           0
     26003 LPSA24   9        AGAL     C5       CC3163   0.110000       12.0110           0
     26004 LPSA24   9        AGAL     H5       HCA1     0.900000E-01   1.00800           0
     26005 LPSA24   9        AGAL     O5       OC3C61  -0.400000       15.9994           0
     26006 LPSA24   9        AGAL     C2       CC3161   0.900000E-01   12.0110           0
     26007 LPSA24   9        AGAL     H2       HCA1     0.900000E-01   1.00800           0
     26008 LPSA24   9        AGAL     O2       OC301   -0.360000       15.9994           0
     26009 LPSA24   9        AGAL     C3       CC3161   0.140000       12.0110           0
     26010 LPSA24   9        AGAL     H3       HCA1     0.900000E-01   1.00800           0
     26011 LPSA24   9        AGAL     O3       OC311   -0.650000       15.9994           0
     26012 LPSA24   9        AGAL     HO3      HCP1     0.420000       1.00800           0
     26013 LPSA24   9        AGAL     C4       CC3161   0.140000       12.0110           0
     26014 LPSA24   9        AGAL     H4       HCA1     0.900000E-01   1.00800           0
     26015 LPSA24   9        AGAL     O4       OC311   -0.650000       15.9994           0
     26016 LPSA24   9        AGAL     HO4      HCP1     0.420000       1.00800           0
     26017 LPSA24   9        AGAL     C6       CC321    0.500000E-01   12.0110           0
     26018 LPSA24   9        AGAL     H61      HCA2     0.900000E-01   1.00800           0
     26019 LPSA24   9        AGAL     H62      HCA2     0.900000E-01   1.00800           0
     26020 LPSA24   9        AGAL     O6       OC311   -0.650000       15.9994           0
     26021 LPSA24   9        AGAL     HO6      HCP1     0.420000       1.00800           0
     26022 LPSA24   10       AGAL     C1       CC3162   0.290000       12.0110           0
     26023 LPSA24   10       AGAL     H1       HCA1     0.900000E-01   1.00800           0
     26024 LPSA24   10       AGAL     C5       CC3163   0.110000       12.0110           0
     26025 LPSA24   10       AGAL     H5       HCA1     0.900000E-01   1.00800           0
     26026 LPSA24   10       AGAL     O5       OC3C61  -0.400000       15.9994           0
     26027 LPSA24   10       AGAL     C2       CC3161   0.140000       12.0110           0
     26028 LPSA24   10       AGAL     H2       HCA1     0.900000E-01   1.00800           0
     26029 LPSA24   10       AGAL     O2       OC311   -0.650000       15.9994           0
     26030 LPSA24   10       AGAL     HO2      HCP1     0.420000       1.00800           0
     26031 LPSA24   10       AGAL     C3       CC3161   0.140000       12.0110           0
     26032 LPSA24   10       AGAL     H3       HCA1     0.900000E-01   1.00800           0
     26033 LPSA24   10       AGAL     O3       OC311   -0.650000       15.9994           0
     26034 LPSA24   10       AGAL     HO3      HCP1     0.420000       1.00800           0
     26035 LPSA24   10       AGAL     C4       CC3161   0.140000       12.0110           0
     26036 LPSA24   10       AGAL     H4       HCA1     0.900000E-01   1.00800           0
     26037 LPSA24   10       AGAL     O4       OC311   -0.650000       15.9994           0
     26038 LPSA24   10       AGAL     HO4      HCP1     0.420000       1.00800           0
     26039 LPSA24   10       AGAL     C6       CC321    0.500000E-01   12.0110           0
     26040 LPSA24   10       AGAL     H61      HCA2     0.900000E-01   1.00800           0
     26041 LPSA24   10       AGAL     H62      HCA2     0.900000E-01   1.00800           0
     26042 LPSA24   10       AGAL     O6       OC311   -0.650000       15.9994           0
     26043 LPSA24   10       AGAL     HO6      HCP1     0.420000       1.00800           0
     26044 LPSA24   11       BGLC     C1       CC3162   0.290000       12.0110           0
     26045 LPSA24   11       BGLC     H1       HCA1     0.900000E-01   1.00800           0
     26046 LPSA24   11       BGLC     C5       CC3163   0.110000       12.0110           0
     26047 LPSA24   11       BGLC     H5       HCA1     0.900000E-01   1.00800           0
     26048 LPSA24   11       BGLC     O5       OC3C61  -0.400000       15.9994           0
     26049 LPSA24   11       BGLC     C2       CC3161   0.140000       12.0110           0
     26050 LPSA24   11       BGLC     H2       HCA1     0.900000E-01   1.00800           0
     26051 LPSA24   11       BGLC     O2       OC311   -0.650000       15.9994           0
     26052 LPSA24   11       BGLC     HO2      HCP1     0.420000       1.00800           0
     26053 LPSA24   11       BGLC     C3       CC3161   0.900000E-01   12.0110           0
     26054 LPSA24   11       BGLC     H3       HCA1     0.900000E-01   1.00800           0
     26055 LPSA24   11       BGLC     O3       OC301   -0.360000       15.9994           0
     26056 LPSA24   11       BGLC     C4       CC3161   0.140000       12.0110           0
     26057 LPSA24   11       BGLC     H4       HCA1     0.900000E-01   1.00800           0
     26058 LPSA24   11       BGLC     O4       OC311   -0.650000       15.9994           0
     26059 LPSA24   11       BGLC     HO4      HCP1     0.420000       1.00800           0
     26060 LPSA24   11       BGLC     C6       CC321    0.500000E-01   12.0110           0
     26061 LPSA24   11       BGLC     H61      HCA2     0.900000E-01   1.00800           0
     26062 LPSA24   11       BGLC     H62      HCA2     0.900000E-01   1.00800           0
     26063 LPSA24   11       BGLC     O6       OC311   -0.650000       15.9994           0
     26064 LPSA24   11       BGLC     HO6      HCP1     0.420000       1.00800           0
     26065 LPSA24   12       BGLCNA   C1       CC3162   0.290000       12.0110           0
     26066 LPSA24   12       BGLCNA   H1       HCA1     0.900000E-01   1.00800           0
     26067 LPSA24   12       BGLCNA   C5       CC3163   0.110000       12.0110           0
     26068 LPSA24   12       BGLCNA   H5       HCA1     0.900000E-01   1.00800           0
     26069 LPSA24   12       BGLCNA   O5       OC3C61  -0.400000       15.9994           0
     26070 LPSA24   12       BGLCNA   C2       CC3161   0.700000E-01   12.0110           0
     26071 LPSA24   12       BGLCNA   H2       HCA1     0.900000E-01   1.00800           0
     26072 LPSA24   12       BGLCNA   N        NC2D1   -0.470000       14.0070           0
     26073 LPSA24   12       BGLCNA   HN       HCP1     0.310000       1.00800           0
     26074 LPSA24   12       BGLCNA   C        CC2O1    0.510000       12.0110           0
     26075 LPSA24   12       BGLCNA   O        OC2D1   -0.510000       15.9994           0
     26076 LPSA24   12       BGLCNA   CT       CC331   -0.270000       12.0110           0
     26077 LPSA24   12       BGLCNA   HT1      HCA3     0.900000E-01   1.00800           0
     26078 LPSA24   12       BGLCNA   HT2      HCA3     0.900000E-01   1.00800           0
     26079 LPSA24   12       BGLCNA   HT3      HCA3     0.900000E-01   1.00800           0
     26080 LPSA24   12       BGLCNA   C3       CC3161   0.900000E-01   12.0110           0
     26081 LPSA24   12       BGLCNA   H3       HCA1     0.900000E-01   1.00800           0
     26082 LPSA24   12       BGLCNA   O3       OC301   -0.360000       15.9994           0
     26083 LPSA24   12       BGLCNA   C4       CC3161   0.140000       12.0110           0
     26084 LPSA24   12       BGLCNA   H4       HCA1     0.900000E-01   1.00800           0
     26085 LPSA24   12       BGLCNA   O4       OC311   -0.650000       15.9994           0
     26086 LPSA24   12       BGLCNA   HO4      HCP1     0.420000       1.00800           0
     26087 LPSA24   12       BGLCNA   C6       CC321    0.500000E-01   12.0110           0
     26088 LPSA24   12       BGLCNA   H61      HCA2     0.900000E-01   1.00800           0
     26089 LPSA24   12       BGLCNA   H62      HCA2     0.900000E-01   1.00800           0
     26090 LPSA24   12       BGLCNA   O6       OC311   -0.650000       15.9994           0
     26091 LPSA24   12       BGLCNA   HO6      HCP1     0.420000       1.00800           0
     26092 LPSA24   13       AGAL     C1       CC3162   0.290000       12.0110           0
     26093 LPSA24   13       AGAL     H1       HCA1     0.900000E-01   1.00800           0
     26094 LPSA24   13       AGAL     C5       CC3163   0.110000       12.0110           0
     26095 LPSA24   13       AGAL     H5       HCA1     0.900000E-01   1.00800           0
     26096 LPSA24   13       AGAL     O5       OC3C61  -0.400000       15.9994           0
     26097 LPSA24   13       AGAL     C2       CC3161   0.900000E-01   12.0110           0
     26098 LPSA24   13       AGAL     H2       HCA1     0.900000E-01   1.00800           0
     26099 LPSA24   13       AGAL     O2       OC301   -0.360000       15.9994           0
     26100 LPSA24   13       AGAL     C3       CC3161   0.140000       12.0110           0
     26101 LPSA24   13       AGAL     H3       HCA1     0.900000E-01   1.00800           0
     26102 LPSA24   13       AGAL     O3       OC311   -0.650000       15.9994           0
     26103 LPSA24   13       AGAL     HO3      HCP1     0.420000       1.00800           0
     26104 LPSA24   13       AGAL     C4       CC3161   0.140000       12.0110           0
     26105 LPSA24   13       AGAL     H4       HCA1     0.900000E-01   1.00800           0
     26106 LPSA24   13       AGAL     O4       OC311   -0.650000       15.9994           0
     26107 LPSA24   13       AGAL     HO4      HCP1     0.420000       1.00800           0
     26108 LPSA24   13       AGAL     C6       CC321    0.500000E-01   12.0110           0
     26109 LPSA24   13       AGAL     H61      HCA2     0.900000E-01   1.00800           0
     26110 LPSA24   13       AGAL     H62      HCA2     0.900000E-01   1.00800           0
     26111 LPSA24   13       AGAL     O6       OC311   -0.650000       15.9994           0
     26112 LPSA24   13       AGAL     HO6      HCP1     0.420000       1.00800           0
     26113 LPSA24   14       ARHM     C1       CC3162   0.290000       12.0110           0
     26114 LPSA24   14       ARHM     H1       HCA1     0.900000E-01   1.00800           0
     26115 LPSA24   14       ARHM     C5       CC3163   0.110000       12.0110           0
     26116 LPSA24   14       ARHM     H5       HCA1     0.900000E-01   1.00800           0
     26117 LPSA24   14       ARHM     O5       OC3C61  -0.400000       15.9994           0
     26118 LPSA24   14       ARHM     C2       CC3161   0.900000E-01   12.0110           0
     26119 LPSA24   14       ARHM     H2       HCA1     0.900000E-01   1.00800           0
     26120 LPSA24   14       ARHM     O2       OC301   -0.360000       15.9994           0
     26121 LPSA24   14       ARHM     C3       CC3161   0.140000       12.0110           0
     26122 LPSA24   14       ARHM     H3       HCA1     0.900000E-01   1.00800           0
     26123 LPSA24   14       ARHM     O3       OC311   -0.650000       15.9994           0
     26124 LPSA24   14       ARHM     HO3      HCP1     0.420000       1.00800           0
     26125 LPSA24   14       ARHM     C4       CC3161   0.140000       12.0110           0
     26126 LPSA24   14       ARHM     H4       HCA1     0.900000E-01   1.00800           0
     26127 LPSA24   14       ARHM     O4       OC311   -0.650000       15.9994           0
     26128 LPSA24   14       ARHM     HO4      HCP1     0.420000       1.00800           0
     26129 LPSA24   14       ARHM     C6       CC331   -0.270000       12.0110           0
     26130 LPSA24   14       ARHM     H61      HCA3     0.900000E-01   1.00800           0
     26131 LPSA24   14       ARHM     H62      HCA3     0.900000E-01   1.00800           0
     26132 LPSA24   14       ARHM     H63      HCA3     0.900000E-01   1.00800           0
     26133 LPSA24   15       ARHM     C1       CC3162   0.290000       12.0110           0
     26134 LPSA24   15       ARHM     H1       HCA1     0.900000E-01   1.00800           0
     26135 LPSA24   15       ARHM     C5       CC3163   0.110000       12.0110           0
     26136 LPSA24   15       ARHM     H5       HCA1     0.900000E-01   1.00800           0
     26137 LPSA24   15       ARHM     O5       OC3C61  -0.400000       15.9994           0
     26138 LPSA24   15       ARHM     C2       CC3161   0.900000E-01   12.0110           0
     26139 LPSA24   15       ARHM     H2       HCA1     0.900000E-01   1.00800           0
     26140 LPSA24   15       ARHM     O2       OC301   -0.360000       15.9994           0
     26141 LPSA24   15       ARHM     C3       CC3161   0.900000E-01   12.0110           0
     26142 LPSA24   15       ARHM     H3       HCA1     0.900000E-01   1.00800           0
     26143 LPSA24   15       ARHM     O3       OC301   -0.360000       15.9994           0
     26144 LPSA24   15       ARHM     C4       CC3161   0.140000       12.0110           0
     26145 LPSA24   15       ARHM     H4       HCA1     0.900000E-01   1.00800           0
     26146 LPSA24   15       ARHM     O4       OC311   -0.650000       15.9994           0
     26147 LPSA24   15       ARHM     HO4      HCP1     0.420000       1.00800           0
     26148 LPSA24   15       ARHM     C6       CC331   -0.270000       12.0110           0
     26149 LPSA24   15       ARHM     H61      HCA3     0.900000E-01   1.00800           0
     26150 LPSA24   15       ARHM     H62      HCA3     0.900000E-01   1.00800           0
     26151 LPSA24   15       ARHM     H63      HCA3     0.900000E-01   1.00800           0
     26152 LPSA24   16       BMANNA   C1       CC3162   0.290000       12.0110           0
     26153 LPSA24   16       BMANNA   H1       HCA1     0.900000E-01   1.00800           0
     26154 LPSA24   16       BMANNA   C5       CC3163   0.110000       12.0110           0
     26155 LPSA24   16       BMANNA   H5       HCA1     0.900000E-01   1.00800           0
     26156 LPSA24   16       BMANNA   O5       OC3C61  -0.400000       15.9994           0
     26157 LPSA24   16       BMANNA   C2       CC3161   0.700000E-01   12.0110           0
     26158 LPSA24   16       BMANNA   H2       HCA1     0.900000E-01   1.00800           0
     26159 LPSA24   16       BMANNA   N        NC2D1   -0.470000       14.0070           0
     26160 LPSA24   16       BMANNA   HN       HCP1     0.310000       1.00800           0
     26161 LPSA24   16       BMANNA   C        CC2O1    0.510000       12.0110           0
     26162 LPSA24   16       BMANNA   O        OC2D1   -0.510000       15.9994           0
     26163 LPSA24   16       BMANNA   CT       CC331   -0.270000       12.0110           0
     26164 LPSA24   16       BMANNA   HT1      HCA3     0.900000E-01   1.00800           0
     26165 LPSA24   16       BMANNA   HT2      HCA3     0.900000E-01   1.00800           0
     26166 LPSA24   16       BMANNA   HT3      HCA3     0.900000E-01   1.00800           0
     26167 LPSA24   16       BMANNA   C3       CC3161   0.140000       12.0110           0
     26168 LPSA24   16       BMANNA   H3       HCA1     0.900000E-01   1.00800           0
     26169 LPSA24   16       BMANNA   O3       OC311   -0.650000       15.9994           0
     26170 LPSA24   16       BMANNA   HO3      HCP1     0.420000       1.00800           0
     26171 LPSA24   16       BMANNA   C4       CC3161   0.140000       12.0110           0
     26172 LPSA24   16       BMANNA   H4       HCA1     0.900000E-01   1.00800           0
     26173 LPSA24   16       BMANNA   O4       OC311   -0.650000       15.9994           0
     26174 LPSA24   16       BMANNA   HO4      HCP1     0.420000       1.00800           0
     26175 LPSA24   16       BMANNA   C6       CC321    0.500000E-01   12.0110           0
     26176 LPSA24   16       BMANNA   H61      HCA2     0.900000E-01   1.00800           0
     26177 LPSA24   16       BMANNA   H62      HCA2     0.900000E-01   1.00800           0
     26178 LPSA24   16       BMANNA   O6       OC311   -0.650000       15.9994           0
     26179 LPSA24   16       BMANNA   HO6      HCP1     0.420000       1.00800           0
     26180 LPSA24   17       BGLCNA   C1       CC3162   0.290000       12.0110           0
     26181 LPSA24   17       BGLCNA   H1       HCA1     0.900000E-01   1.00800           0
     26182 LPSA24   17       BGLCNA   C5       CC3163   0.110000       12.0110           0
     26183 LPSA24   17       BGLCNA   H5       HCA1     0.900000E-01   1.00800           0
     26184 LPSA24   17       BGLCNA   O5       OC3C61  -0.400000       15.9994           0
     26185 LPSA24   17       BGLCNA   C2       CC3161   0.700000E-01   12.0110           0
     26186 LPSA24   17       BGLCNA   H2       HCA1     0.900000E-01   1.00800           0
     26187 LPSA24   17       BGLCNA   N        NC2D1   -0.470000       14.0070           0
     26188 LPSA24   17       BGLCNA   HN       HCP1     0.310000       1.00800           0
     26189 LPSA24   17       BGLCNA   C        CC2O1    0.510000       12.0110           0
     26190 LPSA24   17       BGLCNA   O        OC2D1   -0.510000       15.9994           0
     26191 LPSA24   17       BGLCNA   CT       CC331   -0.270000       12.0110           0
     26192 LPSA24   17       BGLCNA   HT1      HCA3     0.900000E-01   1.00800           0
     26193 LPSA24   17       BGLCNA   HT2      HCA3     0.900000E-01   1.00800           0
     26194 LPSA24   17       BGLCNA   HT3      HCA3     0.900000E-01   1.00800           0
     26195 LPSA24   17       BGLCNA   C3       CC3161   0.900000E-01   12.0110           0
     26196 LPSA24   17       BGLCNA   H3       HCA1     0.900000E-01   1.00800           0
     26197 LPSA24   17       BGLCNA   O3       OC301   -0.360000       15.9994           0
     26198 LPSA24   17       BGLCNA   C4       CC3161   0.140000       12.0110           0
     26199 LPSA24   17       BGLCNA   H4       HCA1     0.900000E-01   1.00800           0
     26200 LPSA24   17       BGLCNA   O4       OC311   -0.650000       15.9994           0
     26201 LPSA24   17       BGLCNA   HO4      HCP1     0.420000       1.00800           0
     26202 LPSA24   17       BGLCNA   C6       CC321    0.500000E-01   12.0110           0
     26203 LPSA24   17       BGLCNA   H61      HCA2     0.900000E-01   1.00800           0
     26204 LPSA24   17       BGLCNA   H62      HCA2     0.900000E-01   1.00800           0
     26205 LPSA24   17       BGLCNA   O6       OC311   -0.650000       15.9994           0
     26206 LPSA24   17       BGLCNA   HO6      HCP1     0.420000       1.00800           0
     26207 LPSA24   18       AGAL     C1       CC3162   0.290000       12.0110           0
     26208 LPSA24   18       AGAL     H1       HCA1     0.900000E-01   1.00800           0
     26209 LPSA24   18       AGAL     C5       CC3163   0.110000       12.0110           0
     26210 LPSA24   18       AGAL     H5       HCA1     0.900000E-01   1.00800           0
     26211 LPSA24   18       AGAL     O5       OC3C61  -0.400000       15.9994           0
     26212 LPSA24   18       AGAL     C2       CC3161   0.900000E-01   12.0110           0
     26213 LPSA24   18       AGAL     H2       HCA1     0.900000E-01   1.00800           0
     26214 LPSA24   18       AGAL     O2       OC301   -0.360000       15.9994           0
     26215 LPSA24   18       AGAL     C3       CC3161   0.140000       12.0110           0
     26216 LPSA24   18       AGAL     H3       HCA1     0.900000E-01   1.00800           0
     26217 LPSA24   18       AGAL     O3       OC311   -0.650000       15.9994           0
     26218 LPSA24   18       AGAL     HO3      HCP1     0.420000       1.00800           0
     26219 LPSA24   18       AGAL     C4       CC3161   0.140000       12.0110           0
     26220 LPSA24   18       AGAL     H4       HCA1     0.900000E-01   1.00800           0
     26221 LPSA24   18       AGAL     O4       OC311   -0.650000       15.9994           0
     26222 LPSA24   18       AGAL     HO4      HCP1     0.420000       1.00800           0
     26223 LPSA24   18       AGAL     C6       CC321    0.500000E-01   12.0110           0
     26224 LPSA24   18       AGAL     H61      HCA2     0.900000E-01   1.00800           0
     26225 LPSA24   18       AGAL     H62      HCA2     0.900000E-01   1.00800           0
     26226 LPSA24   18       AGAL     O6       OC311   -0.650000       15.9994           0
     26227 LPSA24   18       AGAL     HO6      HCP1     0.420000       1.00800           0
     26228 LPSA24   19       ARHM     C1       CC3162   0.290000       12.0110           0
     26229 LPSA24   19       ARHM     H1       HCA1     0.900000E-01   1.00800           0
     26230 LPSA24   19       ARHM     C5       CC3163   0.110000       12.0110           0
     26231 LPSA24   19       ARHM     H5       HCA1     0.900000E-01   1.00800           0
     26232 LPSA24   19       ARHM     O5       OC3C61  -0.400000       15.9994           0
     26233 LPSA24   19       ARHM     C2       CC3161   0.900000E-01   12.0110           0
     26234 LPSA24   19       ARHM     H2       HCA1     0.900000E-01   1.00800           0
     26235 LPSA24   19       ARHM     O2       OC301   -0.360000       15.9994           0
     26236 LPSA24   19       ARHM     C3       CC3161   0.140000       12.0110           0
     26237 LPSA24   19       ARHM     H3       HCA1     0.900000E-01   1.00800           0
     26238 LPSA24   19       ARHM     O3       OC311   -0.650000       15.9994           0
     26239 LPSA24   19       ARHM     HO3      HCP1     0.420000       1.00800           0
     26240 LPSA24   19       ARHM     C4       CC3161   0.140000       12.0110           0
     26241 LPSA24   19       ARHM     H4       HCA1     0.900000E-01   1.00800           0
     26242 LPSA24   19       ARHM     O4       OC311   -0.650000       15.9994           0
     26243 LPSA24   19       ARHM     HO4      HCP1     0.420000       1.00800           0
     26244 LPSA24   19       ARHM     C6       CC331   -0.270000       12.0110           0
     26245 LPSA24   19       ARHM     H61      HCA3     0.900000E-01   1.00800           0
     26246 LPSA24   19       ARHM     H62      HCA3     0.900000E-01   1.00800           0
     26247 LPSA24   19       ARHM     H63      HCA3     0.900000E-01   1.00800           0
     26248 LPSA24   20       ARHM     C1       CC3162   0.290000       12.0110           0
     26249 LPSA24   20       ARHM     H1       HCA1     0.900000E-01   1.00800           0
     26250 LPSA24   20       ARHM     C5       CC3163   0.110000       12.0110           0
     26251 LPSA24   20       ARHM     H5       HCA1     0.900000E-01   1.00800           0
     26252 LPSA24   20       ARHM     O5       OC3C61  -0.400000       15.9994           0
     26253 LPSA24   20       ARHM     C2       CC3161   0.900000E-01   12.0110           0
     26254 LPSA24   20       ARHM     H2       HCA1     0.900000E-01   1.00800           0
     26255 LPSA24   20       ARHM     O2       OC301   -0.360000       15.9994           0
     26256 LPSA24   20       ARHM     C3       CC3161   0.900000E-01   12.0110           0
     26257 LPSA24   20       ARHM     H3       HCA1     0.900000E-01   1.00800           0
     26258 LPSA24   20       ARHM     O3       OC301   -0.360000       15.9994           0
     26259 LPSA24   20       ARHM     C4       CC3161   0.140000       12.0110           0
     26260 LPSA24   20       ARHM     H4       HCA1     0.900000E-01   1.00800           0
     26261 LPSA24   20       ARHM     O4       OC311   -0.650000       15.9994           0
     26262 LPSA24   20       ARHM     HO4      HCP1     0.420000       1.00800           0
     26263 LPSA24   20       ARHM     C6       CC331   -0.270000       12.0110           0
     26264 LPSA24   20       ARHM     H61      HCA3     0.900000E-01   1.00800           0
     26265 LPSA24   20       ARHM     H62      HCA3     0.900000E-01   1.00800           0
     26266 LPSA24   20       ARHM     H63      HCA3     0.900000E-01   1.00800           0
     26267 LPSA24   21       BMANNA   C1       CC3162   0.290000       12.0110           0
     26268 LPSA24   21       BMANNA   H1       HCA1     0.900000E-01   1.00800           0
     26269 LPSA24   21       BMANNA   C5       CC3163   0.110000       12.0110           0
     26270 LPSA24   21       BMANNA   H5       HCA1     0.900000E-01   1.00800           0
     26271 LPSA24   21       BMANNA   O5       OC3C61  -0.400000       15.9994           0
     26272 LPSA24   21       BMANNA   C2       CC3161   0.700000E-01   12.0110           0
     26273 LPSA24   21       BMANNA   H2       HCA1     0.900000E-01   1.00800           0
     26274 LPSA24   21       BMANNA   N        NC2D1   -0.470000       14.0070           0
     26275 LPSA24   21       BMANNA   HN       HCP1     0.310000       1.00800           0
     26276 LPSA24   21       BMANNA   C        CC2O1    0.510000       12.0110           0
     26277 LPSA24   21       BMANNA   O        OC2D1   -0.510000       15.9994           0
     26278 LPSA24   21       BMANNA   CT       CC331   -0.270000       12.0110           0
     26279 LPSA24   21       BMANNA   HT1      HCA3     0.900000E-01   1.00800           0
     26280 LPSA24   21       BMANNA   HT2      HCA3     0.900000E-01   1.00800           0
     26281 LPSA24   21       BMANNA   HT3      HCA3     0.900000E-01   1.00800           0
     26282 LPSA24   21       BMANNA   C3       CC3161   0.140000       12.0110           0
     26283 LPSA24   21       BMANNA   H3       HCA1     0.900000E-01   1.00800           0
     26284 LPSA24   21       BMANNA   O3       OC311   -0.650000       15.9994           0
     26285 LPSA24   21       BMANNA   HO3      HCP1     0.420000       1.00800           0
     26286 LPSA24   21       BMANNA   C4       CC3161   0.140000       12.0110           0
     26287 LPSA24   21       BMANNA   H4       HCA1     0.900000E-01   1.00800           0
     26288 LPSA24   21       BMANNA   O4       OC311   -0.650000       15.9994           0
     26289 LPSA24   21       BMANNA   HO4      HCP1     0.420000       1.00800           0
     26290 LPSA24   21       BMANNA   C6       CC321    0.500000E-01   12.0110           0
     26291 LPSA24   21       BMANNA   H61      HCA2     0.900000E-01   1.00800           0
     26292 LPSA24   21       BMANNA   H62      HCA2     0.900000E-01   1.00800           0
     26293 LPSA24   21       BMANNA   O6       OC311   -0.650000       15.9994           0
     26294 LPSA24   21       BMANNA   HO6      HCP1     0.420000       1.00800           0
     26295 LPSA24   22       BGLCNA   C1       CC3162   0.290000       12.0110           0
     26296 LPSA24   22       BGLCNA   H1       HCA1     0.900000E-01   1.00800           0
     26297 LPSA24   22       BGLCNA   C5       CC3163   0.110000       12.0110           0
     26298 LPSA24   22       BGLCNA   H5       HCA1     0.900000E-01   1.00800           0
     26299 LPSA24   22       BGLCNA   O5       OC3C61  -0.400000       15.9994           0
     26300 LPSA24   22       BGLCNA   C2       CC3161   0.700000E-01   12.0110           0
     26301 LPSA24   22       BGLCNA   H2       HCA1     0.900000E-01   1.00800           0
     26302 LPSA24   22       BGLCNA   N        NC2D1   -0.470000       14.0070           0
     26303 LPSA24   22       BGLCNA   HN       HCP1     0.310000       1.00800           0
     26304 LPSA24   22       BGLCNA   C        CC2O1    0.510000       12.0110           0
     26305 LPSA24   22       BGLCNA   O        OC2D1   -0.510000       15.9994           0
     26306 LPSA24   22       BGLCNA   CT       CC331   -0.270000       12.0110           0
     26307 LPSA24   22       BGLCNA   HT1      HCA3     0.900000E-01   1.00800           0
     26308 LPSA24   22       BGLCNA   HT2      HCA3     0.900000E-01   1.00800           0
     26309 LPSA24   22       BGLCNA   HT3      HCA3     0.900000E-01   1.00800           0
     26310 LPSA24   22       BGLCNA   C3       CC3161   0.900000E-01   12.0110           0
     26311 LPSA24   22       BGLCNA   H3       HCA1     0.900000E-01   1.00800           0
     26312 LPSA24   22       BGLCNA   O3       OC301   -0.360000       15.9994           0
     26313 LPSA24   22       BGLCNA   C4       CC3161   0.140000       12.0110           0
     26314 LPSA24   22       BGLCNA   H4       HCA1     0.900000E-01   1.00800           0
     26315 LPSA24   22       BGLCNA   O4       OC311   -0.650000       15.9994           0
     26316 LPSA24   22       BGLCNA   HO4      HCP1     0.420000       1.00800           0
     26317 LPSA24   22       BGLCNA   C6       CC321    0.500000E-01   12.0110           0
     26318 LPSA24   22       BGLCNA   H61      HCA2     0.900000E-01   1.00800           0
     26319 LPSA24   22       BGLCNA   H62      HCA2     0.900000E-01   1.00800           0
     26320 LPSA24   22       BGLCNA   O6       OC311   -0.650000       15.9994           0
     26321 LPSA24   22       BGLCNA   HO6      HCP1     0.420000       1.00800           0
     26322 LPSA24   23       AGAL     C1       CC3162   0.290000       12.0110           0
     26323 LPSA24   23       AGAL     H1       HCA1     0.900000E-01   1.00800           0
     26324 LPSA24   23       AGAL     C5       CC3163   0.110000       12.0110           0
     26325 LPSA24   23       AGAL     H5       HCA1     0.900000E-01   1.00800           0
     26326 LPSA24   23       AGAL     O5       OC3C61  -0.400000       15.9994           0
     26327 LPSA24   23       AGAL     C2       CC3161   0.900000E-01   12.0110           0
     26328 LPSA24   23       AGAL     H2       HCA1     0.900000E-01   1.00800           0
     26329 LPSA24   23       AGAL     O2       OC301   -0.360000       15.9994           0
     26330 LPSA24   23       AGAL     C3       CC3161   0.140000       12.0110           0
     26331 LPSA24   23       AGAL     H3       HCA1     0.900000E-01   1.00800           0
     26332 LPSA24   23       AGAL     O3       OC311   -0.650000       15.9994           0
     26333 LPSA24   23       AGAL     HO3      HCP1     0.420000       1.00800           0
     26334 LPSA24   23       AGAL     C4       CC3161   0.140000       12.0110           0
     26335 LPSA24   23       AGAL     H4       HCA1     0.900000E-01   1.00800           0
     26336 LPSA24   23       AGAL     O4       OC311   -0.650000       15.9994           0
     26337 LPSA24   23       AGAL     HO4      HCP1     0.420000       1.00800           0
     26338 LPSA24   23       AGAL     C6       CC321    0.500000E-01   12.0110           0
     26339 LPSA24   23       AGAL     H61      HCA2     0.900000E-01   1.00800           0
     26340 LPSA24   23       AGAL     H62      HCA2     0.900000E-01   1.00800           0
     26341 LPSA24   23       AGAL     O6       OC311   -0.650000       15.9994           0
     26342 LPSA24   23       AGAL     HO6      HCP1     0.420000       1.00800           0
     26343 LPSA24   24       ARHM     C1       CC3162   0.290000       12.0110           0
     26344 LPSA24   24       ARHM     H1       HCA1     0.900000E-01   1.00800           0
     26345 LPSA24   24       ARHM     C5       CC3163   0.110000       12.0110           0
     26346 LPSA24   24       ARHM     H5       HCA1     0.900000E-01   1.00800           0
     26347 LPSA24   24       ARHM     O5       OC3C61  -0.400000       15.9994           0
     26348 LPSA24   24       ARHM     C2       CC3161   0.900000E-01   12.0110           0
     26349 LPSA24   24       ARHM     H2       HCA1     0.900000E-01   1.00800           0
     26350 LPSA24   24       ARHM     O2       OC301   -0.360000       15.9994           0
     26351 LPSA24   24       ARHM     C3       CC3161   0.140000       12.0110           0
     26352 LPSA24   24       ARHM     H3       HCA1     0.900000E-01   1.00800           0
     26353 LPSA24   24       ARHM     O3       OC311   -0.650000       15.9994           0
     26354 LPSA24   24       ARHM     HO3      HCP1     0.420000       1.00800           0
     26355 LPSA24   24       ARHM     C4       CC3161   0.140000       12.0110           0
     26356 LPSA24   24       ARHM     H4       HCA1     0.900000E-01   1.00800           0
     26357 LPSA24   24       ARHM     O4       OC311   -0.650000       15.9994           0
     26358 LPSA24   24       ARHM     HO4      HCP1     0.420000       1.00800           0
     26359 LPSA24   24       ARHM     C6       CC331   -0.270000       12.0110           0
     26360 LPSA24   24       ARHM     H61      HCA3     0.900000E-01   1.00800           0
     26361 LPSA24   24       ARHM     H62      HCA3     0.900000E-01   1.00800           0
     26362 LPSA24   24       ARHM     H63      HCA3     0.900000E-01   1.00800           0
     26363 LPSA24   25       ARHM     C1       CC3162   0.290000       12.0110           0
     26364 LPSA24   25       ARHM     H1       HCA1     0.900000E-01   1.00800           0
     26365 LPSA24   25       ARHM     C5       CC3163   0.110000       12.0110           0
     26366 LPSA24   25       ARHM     H5       HCA1     0.900000E-01   1.00800           0
     26367 LPSA24   25       ARHM     O5       OC3C61  -0.400000       15.9994           0
     26368 LPSA24   25       ARHM     C2       CC3161   0.900000E-01   12.0110           0
     26369 LPSA24   25       ARHM     H2       HCA1     0.900000E-01   1.00800           0
     26370 LPSA24   25       ARHM     O2       OC301   -0.360000       15.9994           0
     26371 LPSA24   25       ARHM     C3       CC3161   0.900000E-01   12.0110           0
     26372 LPSA24   25       ARHM     H3       HCA1     0.900000E-01   1.00800           0
     26373 LPSA24   25       ARHM     O3       OC301   -0.360000       15.9994           0
     26374 LPSA24   25       ARHM     C4       CC3161   0.140000       12.0110           0
     26375 LPSA24   25       ARHM     H4       HCA1     0.900000E-01   1.00800           0
     26376 LPSA24   25       ARHM     O4       OC311   -0.650000       15.9994           0
     26377 LPSA24   25       ARHM     HO4      HCP1     0.420000       1.00800           0
     26378 LPSA24   25       ARHM     C6       CC331   -0.270000       12.0110           0
     26379 LPSA24   25       ARHM     H61      HCA3     0.900000E-01   1.00800           0
     26380 LPSA24   25       ARHM     H62      HCA3     0.900000E-01   1.00800           0
     26381 LPSA24   25       ARHM     H63      HCA3     0.900000E-01   1.00800           0
     26382 LPSA24   26       BMANNA   C1       CC3162   0.290000       12.0110           0
     26383 LPSA24   26       BMANNA   H1       HCA1     0.900000E-01   1.00800           0
     26384 LPSA24   26       BMANNA   C5       CC3163   0.110000       12.0110           0
     26385 LPSA24   26       BMANNA   H5       HCA1     0.900000E-01   1.00800           0
     26386 LPSA24   26       BMANNA   O5       OC3C61  -0.400000       15.9994           0
     26387 LPSA24   26       BMANNA   C2       CC3161   0.700000E-01   12.0110           0
     26388 LPSA24   26       BMANNA   H2       HCA1     0.900000E-01   1.00800           0
     26389 LPSA24   26       BMANNA   N        NC2D1   -0.470000       14.0070           0
     26390 LPSA24   26       BMANNA   HN       HCP1     0.310000       1.00800           0
     26391 LPSA24   26       BMANNA   C        CC2O1    0.510000       12.0110           0
     26392 LPSA24   26       BMANNA   O        OC2D1   -0.510000       15.9994           0
     26393 LPSA24   26       BMANNA   CT       CC331   -0.270000       12.0110           0
     26394 LPSA24   26       BMANNA   HT1      HCA3     0.900000E-01   1.00800           0
     26395 LPSA24   26       BMANNA   HT2      HCA3     0.900000E-01   1.00800           0
     26396 LPSA24   26       BMANNA   HT3      HCA3     0.900000E-01   1.00800           0
     26397 LPSA24   26       BMANNA   C3       CC3161   0.140000       12.0110           0
     26398 LPSA24   26       BMANNA   H3       HCA1     0.900000E-01   1.00800           0
     26399 LPSA24   26       BMANNA   O3       OC311   -0.650000       15.9994           0
     26400 LPSA24   26       BMANNA   HO3      HCP1     0.420000       1.00800           0
     26401 LPSA24   26       BMANNA   C4       CC3161   0.140000       12.0110           0
     26402 LPSA24   26       BMANNA   H4       HCA1     0.900000E-01   1.00800           0
     26403 LPSA24   26       BMANNA   O4       OC311   -0.650000       15.9994           0
     26404 LPSA24   26       BMANNA   HO4      HCP1     0.420000       1.00800           0
     26405 LPSA24   26       BMANNA   C6       CC321    0.500000E-01   12.0110           0
     26406 LPSA24   26       BMANNA   H61      HCA2     0.900000E-01   1.00800           0
     26407 LPSA24   26       BMANNA   H62      HCA2     0.900000E-01   1.00800           0
     26408 LPSA24   26       BMANNA   O6       OC311   -0.650000       15.9994           0
     26409 LPSA24   26       BMANNA   HO6      HCP1     0.420000       1.00800           0
     26410 LPSA24   27       BGLCNA   C1       CC3162   0.290000       12.0110           0
     26411 LPSA24   27       BGLCNA   H1       HCA1     0.900000E-01   1.00800           0
     26412 LPSA24   27       BGLCNA   C5       CC3163   0.110000       12.0110           0
     26413 LPSA24   27       BGLCNA   H5       HCA1     0.900000E-01   1.00800           0
     26414 LPSA24   27       BGLCNA   O5       OC3C61  -0.400000       15.9994           0
     26415 LPSA24   27       BGLCNA   C2       CC3161   0.700000E-01   12.0110           0
     26416 LPSA24   27       BGLCNA   H2       HCA1     0.900000E-01   1.00800           0
     26417 LPSA24   27       BGLCNA   N        NC2D1   -0.470000       14.0070           0
     26418 LPSA24   27       BGLCNA   HN       HCP1     0.310000       1.00800           0
     26419 LPSA24   27       BGLCNA   C        CC2O1    0.510000       12.0110           0
     26420 LPSA24   27       BGLCNA   O        OC2D1   -0.510000       15.9994           0
     26421 LPSA24   27       BGLCNA   CT       CC331   -0.270000       12.0110           0
     26422 LPSA24   27       BGLCNA   HT1      HCA3     0.900000E-01   1.00800           0
     26423 LPSA24   27       BGLCNA   HT2      HCA3     0.900000E-01   1.00800           0
     26424 LPSA24   27       BGLCNA   HT3      HCA3     0.900000E-01   1.00800           0
     26425 LPSA24   27       BGLCNA   C3       CC3161   0.900000E-01   12.0110           0
     26426 LPSA24   27       BGLCNA   H3       HCA1     0.900000E-01   1.00800           0
     26427 LPSA24   27       BGLCNA   O3       OC301   -0.360000       15.9994           0
     26428 LPSA24   27       BGLCNA   C4       CC3161   0.140000       12.0110           0
     26429 LPSA24   27       BGLCNA   H4       HCA1     0.900000E-01   1.00800           0
     26430 LPSA24   27       BGLCNA   O4       OC311   -0.650000       15.9994           0
     26431 LPSA24   27       BGLCNA   HO4      HCP1     0.420000       1.00800           0
     26432 LPSA24   27       BGLCNA   C6       CC321    0.500000E-01   12.0110           0
     26433 LPSA24   27       BGLCNA   H61      HCA2     0.900000E-01   1.00800           0
     26434 LPSA24   27       BGLCNA   H62      HCA2     0.900000E-01   1.00800           0
     26435 LPSA24   27       BGLCNA   O6       OC311   -0.650000       15.9994           0
     26436 LPSA24   27       BGLCNA   HO6      HCP1     0.420000       1.00800           0
     26437 LPSA24   28       AGAL     C1       CC3162   0.290000       12.0110           0
     26438 LPSA24   28       AGAL     H1       HCA1     0.900000E-01   1.00800           0
     26439 LPSA24   28       AGAL     C5       CC3163   0.110000       12.0110           0
     26440 LPSA24   28       AGAL     H5       HCA1     0.900000E-01   1.00800           0
     26441 LPSA24   28       AGAL     O5       OC3C61  -0.400000       15.9994           0
     26442 LPSA24   28       AGAL     C2       CC3161   0.900000E-01   12.0110           0
     26443 LPSA24   28       AGAL     H2       HCA1     0.900000E-01   1.00800           0
     26444 LPSA24   28       AGAL     O2       OC301   -0.360000       15.9994           0
     26445 LPSA24   28       AGAL     C3       CC3161   0.140000       12.0110           0
     26446 LPSA24   28       AGAL     H3       HCA1     0.900000E-01   1.00800           0
     26447 LPSA24   28       AGAL     O3       OC311   -0.650000       15.9994           0
     26448 LPSA24   28       AGAL     HO3      HCP1     0.420000       1.00800           0
     26449 LPSA24   28       AGAL     C4       CC3161   0.140000       12.0110           0
     26450 LPSA24   28       AGAL     H4       HCA1     0.900000E-01   1.00800           0
     26451 LPSA24   28       AGAL     O4       OC311   -0.650000       15.9994           0
     26452 LPSA24   28       AGAL     HO4      HCP1     0.420000       1.00800           0
     26453 LPSA24   28       AGAL     C6       CC321    0.500000E-01   12.0110           0
     26454 LPSA24   28       AGAL     H61      HCA2     0.900000E-01   1.00800           0
     26455 LPSA24   28       AGAL     H62      HCA2     0.900000E-01   1.00800           0
     26456 LPSA24   28       AGAL     O6       OC311   -0.650000       15.9994           0
     26457 LPSA24   28       AGAL     HO6      HCP1     0.420000       1.00800           0
     26458 LPSA24   29       ARHM     C1       CC3162   0.290000       12.0110           0
     26459 LPSA24   29       ARHM     H1       HCA1     0.900000E-01   1.00800           0
     26460 LPSA24   29       ARHM     C5       CC3163   0.110000       12.0110           0
     26461 LPSA24   29       ARHM     H5       HCA1     0.900000E-01   1.00800           0
     26462 LPSA24   29       ARHM     O5       OC3C61  -0.400000       15.9994           0
     26463 LPSA24   29       ARHM     C2       CC3161   0.900000E-01   12.0110           0
     26464 LPSA24   29       ARHM     H2       HCA1     0.900000E-01   1.00800           0
     26465 LPSA24   29       ARHM     O2       OC301   -0.360000       15.9994           0
     26466 LPSA24   29       ARHM     C3       CC3161   0.140000       12.0110           0
     26467 LPSA24   29       ARHM     H3       HCA1     0.900000E-01   1.00800           0
     26468 LPSA24   29       ARHM     O3       OC311   -0.650000       15.9994           0
     26469 LPSA24   29       ARHM     HO3      HCP1     0.420000       1.00800           0
     26470 LPSA24   29       ARHM     C4       CC3161   0.140000       12.0110           0
     26471 LPSA24   29       ARHM     H4       HCA1     0.900000E-01   1.00800           0
     26472 LPSA24   29       ARHM     O4       OC311   -0.650000       15.9994           0
     26473 LPSA24   29       ARHM     HO4      HCP1     0.420000       1.00800           0
     26474 LPSA24   29       ARHM     C6       CC331   -0.270000       12.0110           0
     26475 LPSA24   29       ARHM     H61      HCA3     0.900000E-01   1.00800           0
     26476 LPSA24   29       ARHM     H62      HCA3     0.900000E-01   1.00800           0
     26477 LPSA24   29       ARHM     H63      HCA3     0.900000E-01   1.00800           0
     26478 LPSA24   30       ARHM     C1       CC3162   0.290000       12.0110           0
     26479 LPSA24   30       ARHM     H1       HCA1     0.900000E-01   1.00800           0
     26480 LPSA24   30       ARHM     C5       CC3163   0.110000       12.0110           0
     26481 LPSA24   30       ARHM     H5       HCA1     0.900000E-01   1.00800           0
     26482 LPSA24   30       ARHM     O5       OC3C61  -0.400000       15.9994           0
     26483 LPSA24   30       ARHM     C2       CC3161   0.900000E-01   12.0110           0
     26484 LPSA24   30       ARHM     H2       HCA1     0.900000E-01   1.00800           0
     26485 LPSA24   30       ARHM     O2       OC301   -0.360000       15.9994           0
     26486 LPSA24   30       ARHM     C3       CC3161   0.900000E-01   12.0110           0
     26487 LPSA24   30       ARHM     H3       HCA1     0.900000E-01   1.00800           0
     26488 LPSA24   30       ARHM     O3       OC301   -0.360000       15.9994           0
     26489 LPSA24   30       ARHM     C4       CC3161   0.140000       12.0110           0
     26490 LPSA24   30       ARHM     H4       HCA1     0.900000E-01   1.00800           0
     26491 LPSA24   30       ARHM     O4       OC311   -0.650000       15.9994           0
     26492 LPSA24   30       ARHM     HO4      HCP1     0.420000       1.00800           0
     26493 LPSA24   30       ARHM     C6       CC331   -0.270000       12.0110           0
     26494 LPSA24   30       ARHM     H61      HCA3     0.900000E-01   1.00800           0
     26495 LPSA24   30       ARHM     H62      HCA3     0.900000E-01   1.00800           0
     26496 LPSA24   30       ARHM     H63      HCA3     0.900000E-01   1.00800           0
     26497 LPSA24   31       BMANNA   C1       CC3162   0.290000       12.0110           0
     26498 LPSA24   31       BMANNA   H1       HCA1     0.900000E-01   1.00800           0
     26499 LPSA24   31       BMANNA   C5       CC3163   0.110000       12.0110           0
     26500 LPSA24   31       BMANNA   H5       HCA1     0.900000E-01   1.00800           0
     26501 LPSA24   31       BMANNA   O5       OC3C61  -0.400000       15.9994           0
     26502 LPSA24   31       BMANNA   C2       CC3161   0.700000E-01   12.0110           0
     26503 LPSA24   31       BMANNA   H2       HCA1     0.900000E-01   1.00800           0
     26504 LPSA24   31       BMANNA   N        NC2D1   -0.470000       14.0070           0
     26505 LPSA24   31       BMANNA   HN       HCP1     0.310000       1.00800           0
     26506 LPSA24   31       BMANNA   C        CC2O1    0.510000       12.0110           0
     26507 LPSA24   31       BMANNA   O        OC2D1   -0.510000       15.9994           0
     26508 LPSA24   31       BMANNA   CT       CC331   -0.270000       12.0110           0
     26509 LPSA24   31       BMANNA   HT1      HCA3     0.900000E-01   1.00800           0
     26510 LPSA24   31       BMANNA   HT2      HCA3     0.900000E-01   1.00800           0
     26511 LPSA24   31       BMANNA   HT3      HCA3     0.900000E-01   1.00800           0
     26512 LPSA24   31       BMANNA   C3       CC3161   0.140000       12.0110           0
     26513 LPSA24   31       BMANNA   H3       HCA1     0.900000E-01   1.00800           0
     26514 LPSA24   31       BMANNA   O3       OC311   -0.650000       15.9994           0
     26515 LPSA24   31       BMANNA   HO3      HCP1     0.420000       1.00800           0
     26516 LPSA24   31       BMANNA   C4       CC3161   0.140000       12.0110           0
     26517 LPSA24   31       BMANNA   H4       HCA1     0.900000E-01   1.00800           0
     26518 LPSA24   31       BMANNA   O4       OC311   -0.650000       15.9994           0
     26519 LPSA24   31       BMANNA   HO4      HCP1     0.420000       1.00800           0
     26520 LPSA24   31       BMANNA   C6       CC321    0.500000E-01   12.0110           0
     26521 LPSA24   31       BMANNA   H61      HCA2     0.900000E-01   1.00800           0
     26522 LPSA24   31       BMANNA   H62      HCA2     0.900000E-01   1.00800           0
     26523 LPSA24   31       BMANNA   O6       OC311   -0.650000       15.9994           0
     26524 LPSA24   31       BMANNA   HO6      HCP1     0.420000       1.00800           0
     26525 LPSA24   32       BGLCNA   C1       CC3162   0.290000       12.0110           0
     26526 LPSA24   32       BGLCNA   H1       HCA1     0.900000E-01   1.00800           0
     26527 LPSA24   32       BGLCNA   C5       CC3163   0.110000       12.0110           0
     26528 LPSA24   32       BGLCNA   H5       HCA1     0.900000E-01   1.00800           0
     26529 LPSA24   32       BGLCNA   O5       OC3C61  -0.400000       15.9994           0
     26530 LPSA24   32       BGLCNA   C2       CC3161   0.700000E-01   12.0110           0
     26531 LPSA24   32       BGLCNA   H2       HCA1     0.900000E-01   1.00800           0
     26532 LPSA24   32       BGLCNA   N        NC2D1   -0.470000       14.0070           0
     26533 LPSA24   32       BGLCNA   HN       HCP1     0.310000       1.00800           0
     26534 LPSA24   32       BGLCNA   C        CC2O1    0.510000       12.0110           0
     26535 LPSA24   32       BGLCNA   O        OC2D1   -0.510000       15.9994           0
     26536 LPSA24   32       BGLCNA   CT       CC331   -0.270000       12.0110           0
     26537 LPSA24   32       BGLCNA   HT1      HCA3     0.900000E-01   1.00800           0
     26538 LPSA24   32       BGLCNA   HT2      HCA3     0.900000E-01   1.00800           0
     26539 LPSA24   32       BGLCNA   HT3      HCA3     0.900000E-01   1.00800           0
     26540 LPSA24   32       BGLCNA   C3       CC3161   0.900000E-01   12.0110           0
     26541 LPSA24   32       BGLCNA   H3       HCA1     0.900000E-01   1.00800           0
     26542 LPSA24   32       BGLCNA   O3       OC301   -0.360000       15.9994           0
     26543 LPSA24   32       BGLCNA   C4       CC3161   0.140000       12.0110           0
     26544 LPSA24   32       BGLCNA   H4       HCA1     0.900000E-01   1.00800           0
     26545 LPSA24   32       BGLCNA   O4       OC311   -0.650000       15.9994           0
     26546 LPSA24   32       BGLCNA   HO4      HCP1     0.420000       1.00800           0
     26547 LPSA24   32       BGLCNA   C6       CC321    0.500000E-01   12.0110           0
     26548 LPSA24   32       BGLCNA   H61      HCA2     0.900000E-01   1.00800           0
     26549 LPSA24   32       BGLCNA   H62      HCA2     0.900000E-01   1.00800           0
     26550 LPSA24   32       BGLCNA   O6       OC311   -0.650000       15.9994           0
     26551 LPSA24   32       BGLCNA   HO6      HCP1     0.420000       1.00800           0
     26552 LPSA24   33       AGAL     C1       CC3162   0.290000       12.0110           0
     26553 LPSA24   33       AGAL     H1       HCA1     0.900000E-01   1.00800           0
     26554 LPSA24   33       AGAL     C5       CC3163   0.110000       12.0110           0
     26555 LPSA24   33       AGAL     H5       HCA1     0.900000E-01   1.00800           0
     26556 LPSA24   33       AGAL     O5       OC3C61  -0.400000       15.9994           0
     26557 LPSA24   33       AGAL     C2       CC3161   0.900000E-01   12.0110           0
     26558 LPSA24   33       AGAL     H2       HCA1     0.900000E-01   1.00800           0
     26559 LPSA24   33       AGAL     O2       OC301   -0.360000       15.9994           0
     26560 LPSA24   33       AGAL     C3       CC3161   0.140000       12.0110           0
     26561 LPSA24   33       AGAL     H3       HCA1     0.900000E-01   1.00800           0
     26562 LPSA24   33       AGAL     O3       OC311   -0.650000       15.9994           0
     26563 LPSA24   33       AGAL     HO3      HCP1     0.420000       1.00800           0
     26564 LPSA24   33       AGAL     C4       CC3161   0.140000       12.0110           0
     26565 LPSA24   33       AGAL     H4       HCA1     0.900000E-01   1.00800           0
     26566 LPSA24   33       AGAL     O4       OC311   -0.650000       15.9994           0
     26567 LPSA24   33       AGAL     HO4      HCP1     0.420000       1.00800           0
     26568 LPSA24   33       AGAL     C6       CC321    0.500000E-01   12.0110           0
     26569 LPSA24   33       AGAL     H61      HCA2     0.900000E-01   1.00800           0
     26570 LPSA24   33       AGAL     H62      HCA2     0.900000E-01   1.00800           0
     26571 LPSA24   33       AGAL     O6       OC311   -0.650000       15.9994           0
     26572 LPSA24   33       AGAL     HO6      HCP1     0.420000       1.00800           0
     26573 LPSA24   34       ARHM     C1       CC3162   0.290000       12.0110           0
     26574 LPSA24   34       ARHM     H1       HCA1     0.900000E-01   1.00800           0
     26575 LPSA24   34       ARHM     C5       CC3163   0.110000       12.0110           0
     26576 LPSA24   34       ARHM     H5       HCA1     0.900000E-01   1.00800           0
     26577 LPSA24   34       ARHM     O5       OC3C61  -0.400000       15.9994           0
     26578 LPSA24   34       ARHM     C2       CC3161   0.900000E-01   12.0110           0
     26579 LPSA24   34       ARHM     H2       HCA1     0.900000E-01   1.00800           0
     26580 LPSA24   34       ARHM     O2       OC301   -0.360000       15.9994           0
     26581 LPSA24   34       ARHM     C3       CC3161   0.140000       12.0110           0
     26582 LPSA24   34       ARHM     H3       HCA1     0.900000E-01   1.00800           0
     26583 LPSA24   34       ARHM     O3       OC311   -0.650000       15.9994           0
     26584 LPSA24   34       ARHM     HO3      HCP1     0.420000       1.00800           0
     26585 LPSA24   34       ARHM     C4       CC3161   0.140000       12.0110           0
     26586 LPSA24   34       ARHM     H4       HCA1     0.900000E-01   1.00800           0
     26587 LPSA24   34       ARHM     O4       OC311   -0.650000       15.9994           0
     26588 LPSA24   34       ARHM     HO4      HCP1     0.420000       1.00800           0
     26589 LPSA24   34       ARHM     C6       CC331   -0.270000       12.0110           0
     26590 LPSA24   34       ARHM     H61      HCA3     0.900000E-01   1.00800           0
     26591 LPSA24   34       ARHM     H62      HCA3     0.900000E-01   1.00800           0
     26592 LPSA24   34       ARHM     H63      HCA3     0.900000E-01   1.00800           0
     26593 LPSA24   35       ARHM     C1       CC3162   0.290000       12.0110           0
     26594 LPSA24   35       ARHM     H1       HCA1     0.900000E-01   1.00800           0
     26595 LPSA24   35       ARHM     C5       CC3163   0.110000       12.0110           0
     26596 LPSA24   35       ARHM     H5       HCA1     0.900000E-01   1.00800           0
     26597 LPSA24   35       ARHM     O5       OC3C61  -0.400000       15.9994           0
     26598 LPSA24   35       ARHM     C2       CC3161   0.900000E-01   12.0110           0
     26599 LPSA24   35       ARHM     H2       HCA1     0.900000E-01   1.00800           0
     26600 LPSA24   35       ARHM     O2       OC301   -0.360000       15.9994           0
     26601 LPSA24   35       ARHM     C3       CC3161   0.140000       12.0110           0
     26602 LPSA24   35       ARHM     H3       HCA1     0.900000E-01   1.00800           0
     26603 LPSA24   35       ARHM     O3       OC311   -0.650000       15.9994           0
     26604 LPSA24   35       ARHM     HO3      HCP1     0.420000       1.00800           0
     26605 LPSA24   35       ARHM     C4       CC3161   0.140000       12.0110           0
     26606 LPSA24   35       ARHM     H4       HCA1     0.900000E-01   1.00800           0
     26607 LPSA24   35       ARHM     O4       OC311   -0.650000       15.9994           0
     26608 LPSA24   35       ARHM     HO4      HCP1     0.420000       1.00800           0
     26609 LPSA24   35       ARHM     C6       CC331   -0.270000       12.0110           0
     26610 LPSA24   35       ARHM     H61      HCA3     0.900000E-01   1.00800           0
     26611 LPSA24   35       ARHM     H62      HCA3     0.900000E-01   1.00800           0
     26612 LPSA24   35       ARHM     H63      HCA3     0.900000E-01   1.00800           0
     26613 LPSA24   36       BMANNA   C1       CC3162   0.290000       12.0110           0
     26614 LPSA24   36       BMANNA   H1       HCA1     0.900000E-01   1.00800           0
     26615 LPSA24   36       BMANNA   C5       CC3163   0.110000       12.0110           0
     26616 LPSA24   36       BMANNA   H5       HCA1     0.900000E-01   1.00800           0
     26617 LPSA24   36       BMANNA   O5       OC3C61  -0.400000       15.9994           0
     26618 LPSA24   36       BMANNA   C2       CC3161   0.700000E-01   12.0110           0
     26619 LPSA24   36       BMANNA   H2       HCA1     0.900000E-01   1.00800           0
     26620 LPSA24   36       BMANNA   N        NC2D1   -0.470000       14.0070           0
     26621 LPSA24   36       BMANNA   HN       HCP1     0.310000       1.00800           0
     26622 LPSA24   36       BMANNA   C        CC2O1    0.510000       12.0110           0
     26623 LPSA24   36       BMANNA   O        OC2D1   -0.510000       15.9994           0
     26624 LPSA24   36       BMANNA   CT       CC331   -0.270000       12.0110           0
     26625 LPSA24   36       BMANNA   HT1      HCA3     0.900000E-01   1.00800           0
     26626 LPSA24   36       BMANNA   HT2      HCA3     0.900000E-01   1.00800           0
     26627 LPSA24   36       BMANNA   HT3      HCA3     0.900000E-01   1.00800           0
     26628 LPSA24   36       BMANNA   C3       CC3161   0.140000       12.0110           0
     26629 LPSA24   36       BMANNA   H3       HCA1     0.900000E-01   1.00800           0
     26630 LPSA24   36       BMANNA   O3       OC311   -0.650000       15.9994           0
     26631 LPSA24   36       BMANNA   HO3      HCP1     0.420000       1.00800           0
     26632 LPSA24   36       BMANNA   C4       CC3161   0.140000       12.0110           0
     26633 LPSA24   36       BMANNA   H4       HCA1     0.900000E-01   1.00800           0
     26634 LPSA24   36       BMANNA   O4       OC311   -0.650000       15.9994           0
     26635 LPSA24   36       BMANNA   HO4      HCP1     0.420000       1.00800           0
     26636 LPSA24   36       BMANNA   C6       CC321    0.500000E-01   12.0110           0
     26637 LPSA24   36       BMANNA   H61      HCA2     0.900000E-01   1.00800           0
     26638 LPSA24   36       BMANNA   H62      HCA2     0.900000E-01   1.00800           0
     26639 LPSA24   36       BMANNA   O6       OC311   -0.650000       15.9994           0
     26640 LPSA24   36       BMANNA   HO6      HCP1     0.420000       1.00800           0
     26641 LPSA25   1        ECLIPA   HB6S     HCA2     0.900000E-01   1.00800           0
     26642 LPSA25   1        ECLIPA   OB6      OC301   -0.360000       15.9994           0
     26643 LPSA25   1        ECLIPA   CB6      CC321     0.00000       12.0110           0
     26644 LPSA25   1        ECLIPA   HB6R     HCA2     0.900000E-01   1.00800           0
     26645 LPSA25   1        ECLIPA   CB5      CC3163   0.110000       12.0110           0
     26646 LPSA25   1        ECLIPA   OB5      OC3C61  -0.400000       15.9994           0
     26647 LPSA25   1        ECLIPA   HB5      HCA1     0.900000E-01   1.00800           0
     26648 LPSA25   1        ECLIPA   CB1      CC3162   0.290000       12.0110           0
     26649 LPSA25   1        ECLIPA   HB1      HCA1     0.900000E-01   1.00800           0
     26650 LPSA25   1        ECLIPA   OA6      OC301   -0.360000       15.9994           0
     26651 LPSA25   1        ECLIPA   CA6      CC321     0.00000       12.0110           0
     26652 LPSA25   1        ECLIPA   HA6R     HCA2     0.900000E-01   1.00800           0
     26653 LPSA25   1        ECLIPA   HA6S     HCA2     0.900000E-01   1.00800           0
     26654 LPSA25   1        ECLIPA   CB4      CC3161  -0.900000E-01   12.0110           0
     26655 LPSA25   1        ECLIPA   HB4      HCA1     0.900000E-01   1.00800           0
     26656 LPSA25   1        ECLIPA   OB4      OC30P   -0.400000       15.9994           0
     26657 LPSA25   1        ECLIPA   PB       PC        1.10000       30.9740           0
     26658 LPSA25   1        ECLIPA   OPB4     OC2DP   -0.900000       15.9994           0
     26659 LPSA25   1        ECLIPA   OPB3     OC2DP   -0.900000       15.9994           0
     26660 LPSA25   1        ECLIPA   OPB2     OC2DP   -0.900000       15.9994           0
     26661 LPSA25   1        ECLIPA   CB3      CC3161   0.170000       12.0110           0
     26662 LPSA25   1        ECLIPA   OB3      OC301   -0.490000       15.9994           0
     26663 LPSA25   1        ECLIPA   HB3      HCA1     0.900000E-01   1.00800           0
     26664 LPSA25   1        ECLIPA   C71      CL       0.900000       12.0110           0
     26665 LPSA25   1        ECLIPA   O71      OBL     -0.630000       15.9994           0
     26666 LPSA25   1        ECLIPA   C72      CTL2    -0.220000       12.0110           0
     26667 LPSA25   1        ECLIPA   H72R     HAL2     0.900000E-01   1.00800           0
     26668 LPSA25   1        ECLIPA   H72S     HAL2     0.900000E-01   1.00800           0
     26669 LPSA25   1        ECLIPA   CB2      CC3161   0.700000E-01   12.0110           0
     26670 LPSA25   1        ECLIPA   HB2      HCA1     0.900000E-01   1.00800           0
     26671 LPSA25   1        ECLIPA   NB2      NC2D1   -0.470000       14.0070           0
     26672 LPSA25   1        ECLIPA   HNB2     HCP1     0.310000       1.00800           0
     26673 LPSA25   1        ECLIPA   CA4      CC3161   0.140000       12.0110           0
     26674 LPSA25   1        ECLIPA   HA4      HCA1     0.900000E-01   1.00800           0
     26675 LPSA25   1        ECLIPA   OA4      OC311   -0.650000       15.9994           0
     26676 LPSA25   1        ECLIPA   HOA4     HCP1     0.420000       1.00800           0
     26677 LPSA25   1        ECLIPA   CA5      CC3163   0.110000       12.0110           0
     26678 LPSA25   1        ECLIPA   HA5      HCA1     0.900000E-01   1.00800           0
     26679 LPSA25   1        ECLIPA   OA5      OC3C61  -0.400000       15.9994           0
     26680 LPSA25   1        ECLIPA   CA1      CC3162   0.110000       12.0110           0
     26681 LPSA25   1        ECLIPA   HA1      HCA1     0.900000E-01   1.00800           0
     26682 LPSA25   1        ECLIPA   OA1      OC30P   -0.400000       15.9994           0
     26683 LPSA25   1        ECLIPA   OPA2     OC2DP   -0.900000       15.9994           0
     26684 LPSA25   1        ECLIPA   OPA3     OC2DP   -0.900000       15.9994           0
     26685 LPSA25   1        ECLIPA   OPA4     OC2DP   -0.900000       15.9994           0
     26686 LPSA25   1        ECLIPA   PA       PC        1.10000       30.9740           0
     26687 LPSA25   1        ECLIPA   CA3      CC3161   0.170000       12.0110           0
     26688 LPSA25   1        ECLIPA   HA3      HCA1     0.900000E-01   1.00800           0
     26689 LPSA25   1        ECLIPA   OA3      OC301   -0.490000       15.9994           0
     26690 LPSA25   1        ECLIPA   C31      CL       0.900000       12.0110           0
     26691 LPSA25   1        ECLIPA   O31      OBL     -0.630000       15.9994           0
     26692 LPSA25   1        ECLIPA   C32      CTL2    -0.220000       12.0110           0
     26693 LPSA25   1        ECLIPA   H32R     HAL2     0.900000E-01   1.00800           0
     26694 LPSA25   1        ECLIPA   H32S     HAL2     0.900000E-01   1.00800           0
     26695 LPSA25   1        ECLIPA   CA2      CC3161   0.700000E-01   12.0110           0
     26696 LPSA25   1        ECLIPA   HA2      HCA1     0.900000E-01   1.00800           0
     26697 LPSA25   1        ECLIPA   NA2      NC2D1   -0.470000       14.0070           0
     26698 LPSA25   1        ECLIPA   HNA2     HCP1     0.310000       1.00800           0
     26699 LPSA25   1        ECLIPA   C73      CTL1     0.170000       12.0110           0
     26700 LPSA25   1        ECLIPA   H73R     HAL1     0.900000E-01   1.00800           0
     26701 LPSA25   1        ECLIPA   O73      OSL     -0.490000       15.9994           0
     26702 LPSA25   1        ECLIPA   C81      CL       0.900000       12.0110           0
     26703 LPSA25   1        ECLIPA   O81      OBL     -0.630000       15.9994           0
     26704 LPSA25   1        ECLIPA   C82      CTL2    -0.220000       12.0110           0
     26705 LPSA25   1        ECLIPA   H82R     HAL2     0.900000E-01   1.00800           0
     26706 LPSA25   1        ECLIPA   H82S     HAL2     0.900000E-01   1.00800           0
     26707 LPSA25   1        ECLIPA   C83      CTL2    -0.180000       12.0110           0
     26708 LPSA25   1        ECLIPA   H83R     HAL2     0.900000E-01   1.00800           0
     26709 LPSA25   1        ECLIPA   H83S     HAL2     0.900000E-01   1.00800           0
     26710 LPSA25   1        ECLIPA   C84      CTL2    -0.180000       12.0110           0
     26711 LPSA25   1        ECLIPA   H84R     HAL2     0.900000E-01   1.00800           0
     26712 LPSA25   1        ECLIPA   H84S     HAL2     0.900000E-01   1.00800           0
     26713 LPSA25   1        ECLIPA   C85      CTL2    -0.180000       12.0110           0
     26714 LPSA25   1        ECLIPA   H85R     HAL2     0.900000E-01   1.00800           0
     26715 LPSA25   1        ECLIPA   H85S     HAL2     0.900000E-01   1.00800           0
     26716 LPSA25   1        ECLIPA   C86      CTL2    -0.180000       12.0110           0
     26717 LPSA25   1        ECLIPA   H86R     HAL2     0.900000E-01   1.00800           0
     26718 LPSA25   1        ECLIPA   H86S     HAL2     0.900000E-01   1.00800           0
     26719 LPSA25   1        ECLIPA   C87      CTL2    -0.180000       12.0110           0
     26720 LPSA25   1        ECLIPA   H87R     HAL2     0.900000E-01   1.00800           0
     26721 LPSA25   1        ECLIPA   H87S     HAL2     0.900000E-01   1.00800           0
     26722 LPSA25   1        ECLIPA   C88      CTL2    -0.180000       12.0110           0
     26723 LPSA25   1        ECLIPA   H88R     HAL2     0.900000E-01   1.00800           0
     26724 LPSA25   1        ECLIPA   H88S     HAL2     0.900000E-01   1.00800           0
     26725 LPSA25   1        ECLIPA   C89      CTL2    -0.180000       12.0110           0
     26726 LPSA25   1        ECLIPA   H89R     HAL2     0.900000E-01   1.00800           0
     26727 LPSA25   1        ECLIPA   H89S     HAL2     0.900000E-01   1.00800           0
     26728 LPSA25   1        ECLIPA   C810     CTL2    -0.180000       12.0110           0
     26729 LPSA25   1        ECLIPA   H810R    HAL2     0.900000E-01   1.00800           0
     26730 LPSA25   1        ECLIPA   H810S    HAL2     0.900000E-01   1.00800           0
     26731 LPSA25   1        ECLIPA   C811     CTL2    -0.180000       12.0110           0
     26732 LPSA25   1        ECLIPA   H811R    HAL2     0.900000E-01   1.00800           0
     26733 LPSA25   1        ECLIPA   H811S    HAL2     0.900000E-01   1.00800           0
     26734 LPSA25   1        ECLIPA   C812     CTL2    -0.180000       12.0110           0
     26735 LPSA25   1        ECLIPA   H812R    HAL2     0.900000E-01   1.00800           0
     26736 LPSA25   1        ECLIPA   H812S    HAL2     0.900000E-01   1.00800           0
     26737 LPSA25   1        ECLIPA   C813     CTL2    -0.180000       12.0110           0
     26738 LPSA25   1        ECLIPA   H813R    HAL2     0.900000E-01   1.00800           0
     26739 LPSA25   1        ECLIPA   H813S    HAL2     0.900000E-01   1.00800           0
     26740 LPSA25   1        ECLIPA   C814     CTL3    -0.270000       12.0110           0
     26741 LPSA25   1        ECLIPA   H814R    HAL3     0.900000E-01   1.00800           0
     26742 LPSA25   1        ECLIPA   H814S    HAL3     0.900000E-01   1.00800           0
     26743 LPSA25   1        ECLIPA   H814T    HAL3     0.900000E-01   1.00800           0
     26744 LPSA25   1        ECLIPA   C74      CTL2    -0.180000       12.0110           0
     26745 LPSA25   1        ECLIPA   H74R     HAL2     0.900000E-01   1.00800           0
     26746 LPSA25   1        ECLIPA   H74S     HAL2     0.900000E-01   1.00800           0
     26747 LPSA25   1        ECLIPA   C75      CTL2    -0.180000       12.0110           0
     26748 LPSA25   1        ECLIPA   H75R     HAL2     0.900000E-01   1.00800           0
     26749 LPSA25   1        ECLIPA   H75S     HAL2     0.900000E-01   1.00800           0
     26750 LPSA25   1        ECLIPA   C76      CTL2    -0.180000       12.0110           0
     26751 LPSA25   1        ECLIPA   H76R     HAL2     0.900000E-01   1.00800           0
     26752 LPSA25   1        ECLIPA   H76S     HAL2     0.900000E-01   1.00800           0
     26753 LPSA25   1        ECLIPA   C77      CTL2    -0.180000       12.0110           0
     26754 LPSA25   1        ECLIPA   H77R     HAL2     0.900000E-01   1.00800           0
     26755 LPSA25   1        ECLIPA   H77S     HAL2     0.900000E-01   1.00800           0
     26756 LPSA25   1        ECLIPA   C78      CTL2    -0.180000       12.0110           0
     26757 LPSA25   1        ECLIPA   H78R     HAL2     0.900000E-01   1.00800           0
     26758 LPSA25   1        ECLIPA   H78S     HAL2     0.900000E-01   1.00800           0
     26759 LPSA25   1        ECLIPA   C79      CTL2    -0.180000       12.0110           0
     26760 LPSA25   1        ECLIPA   H79R     HAL2     0.900000E-01   1.00800           0
     26761 LPSA25   1        ECLIPA   H79S     HAL2     0.900000E-01   1.00800           0
     26762 LPSA25   1        ECLIPA   C710     CTL2    -0.180000       12.0110           0
     26763 LPSA25   1        ECLIPA   H710R    HAL2     0.900000E-01   1.00800           0
     26764 LPSA25   1        ECLIPA   H710S    HAL2     0.900000E-01   1.00800           0
     26765 LPSA25   1        ECLIPA   C711     CTL2    -0.180000       12.0110           0
     26766 LPSA25   1        ECLIPA   H711R    HAL2     0.900000E-01   1.00800           0
     26767 LPSA25   1        ECLIPA   H711S    HAL2     0.900000E-01   1.00800           0
     26768 LPSA25   1        ECLIPA   C712     CTL2    -0.180000       12.0110           0
     26769 LPSA25   1        ECLIPA   H712R    HAL2     0.900000E-01   1.00800           0
     26770 LPSA25   1        ECLIPA   H712S    HAL2     0.900000E-01   1.00800           0
     26771 LPSA25   1        ECLIPA   C713     CTL2    -0.180000       12.0110           0
     26772 LPSA25   1        ECLIPA   H713R    HAL2     0.900000E-01   1.00800           0
     26773 LPSA25   1        ECLIPA   H713S    HAL2     0.900000E-01   1.00800           0
     26774 LPSA25   1        ECLIPA   C714     CTL3    -0.270000       12.0110           0
     26775 LPSA25   1        ECLIPA   H714R    HAL3     0.900000E-01   1.00800           0
     26776 LPSA25   1        ECLIPA   H714S    HAL3     0.900000E-01   1.00800           0
     26777 LPSA25   1        ECLIPA   H714T    HAL3     0.900000E-01   1.00800           0
     26778 LPSA25   1        ECLIPA   C51      CC2O1    0.550000       12.0110           0
     26779 LPSA25   1        ECLIPA   O51      OC2D1   -0.550000       15.9994           0
     26780 LPSA25   1        ECLIPA   C52      CTL2    -0.180000       12.0110           0
     26781 LPSA25   1        ECLIPA   H52R     HAL2     0.900000E-01   1.00800           0
     26782 LPSA25   1        ECLIPA   H52S     HAL2     0.900000E-01   1.00800           0
     26783 LPSA25   1        ECLIPA   C53      CTL1     0.170000       12.0110           0
     26784 LPSA25   1        ECLIPA   H53R     HAL1     0.900000E-01   1.00800           0
     26785 LPSA25   1        ECLIPA   O53      OSL     -0.490000       15.9994           0
     26786 LPSA25   1        ECLIPA   C61      CL       0.900000       12.0110           0
     26787 LPSA25   1        ECLIPA   O61      OBL     -0.630000       15.9994           0
     26788 LPSA25   1        ECLIPA   C62      CTL2    -0.220000       12.0110           0
     26789 LPSA25   1        ECLIPA   H62R     HAL2     0.900000E-01   1.00800           0
     26790 LPSA25   1        ECLIPA   H62S     HAL2     0.900000E-01   1.00800           0
     26791 LPSA25   1        ECLIPA   C63      CTL2    -0.180000       12.0110           0
     26792 LPSA25   1        ECLIPA   H63R     HAL2     0.900000E-01   1.00800           0
     26793 LPSA25   1        ECLIPA   H63S     HAL2     0.900000E-01   1.00800           0
     26794 LPSA25   1        ECLIPA   C64      CTL2    -0.180000       12.0110           0
     26795 LPSA25   1        ECLIPA   H64R     HAL2     0.900000E-01   1.00800           0
     26796 LPSA25   1        ECLIPA   H64S     HAL2     0.900000E-01   1.00800           0
     26797 LPSA25   1        ECLIPA   C65      CTL2    -0.180000       12.0110           0
     26798 LPSA25   1        ECLIPA   H65R     HAL2     0.900000E-01   1.00800           0
     26799 LPSA25   1        ECLIPA   H65S     HAL2     0.900000E-01   1.00800           0
     26800 LPSA25   1        ECLIPA   C66      CTL2    -0.180000       12.0110           0
     26801 LPSA25   1        ECLIPA   H66R     HAL2     0.900000E-01   1.00800           0
     26802 LPSA25   1        ECLIPA   H66S     HAL2     0.900000E-01   1.00800           0
     26803 LPSA25   1        ECLIPA   C67      CTL2    -0.180000       12.0110           0
     26804 LPSA25   1        ECLIPA   H67R     HAL2     0.900000E-01   1.00800           0
     26805 LPSA25   1        ECLIPA   H67S     HAL2     0.900000E-01   1.00800           0
     26806 LPSA25   1        ECLIPA   C68      CTL2    -0.180000       12.0110           0
     26807 LPSA25   1        ECLIPA   H68R     HAL2     0.900000E-01   1.00800           0
     26808 LPSA25   1        ECLIPA   H68S     HAL2     0.900000E-01   1.00800           0
     26809 LPSA25   1        ECLIPA   C69      CTL2    -0.180000       12.0110           0
     26810 LPSA25   1        ECLIPA   H69R     HAL2     0.900000E-01   1.00800           0
     26811 LPSA25   1        ECLIPA   H69S     HAL2     0.900000E-01   1.00800           0
     26812 LPSA25   1        ECLIPA   C610     CTL2    -0.180000       12.0110           0
     26813 LPSA25   1        ECLIPA   H610R    HAL2     0.900000E-01   1.00800           0
     26814 LPSA25   1        ECLIPA   H610S    HAL2     0.900000E-01   1.00800           0
     26815 LPSA25   1        ECLIPA   C611     CTL2    -0.180000       12.0110           0
     26816 LPSA25   1        ECLIPA   H611R    HAL2     0.900000E-01   1.00800           0
     26817 LPSA25   1        ECLIPA   H611S    HAL2     0.900000E-01   1.00800           0
     26818 LPSA25   1        ECLIPA   C612     CTL3    -0.270000       12.0110           0
     26819 LPSA25   1        ECLIPA   H612R    HAL3     0.900000E-01   1.00800           0
     26820 LPSA25   1        ECLIPA   H612S    HAL3     0.900000E-01   1.00800           0
     26821 LPSA25   1        ECLIPA   H612T    HAL3     0.900000E-01   1.00800           0
     26822 LPSA25   1        ECLIPA   C54      CTL2    -0.180000       12.0110           0
     26823 LPSA25   1        ECLIPA   H54R     HAL2     0.900000E-01   1.00800           0
     26824 LPSA25   1        ECLIPA   H54S     HAL2     0.900000E-01   1.00800           0
     26825 LPSA25   1        ECLIPA   C55      CTL2    -0.180000       12.0110           0
     26826 LPSA25   1        ECLIPA   H55R     HAL2     0.900000E-01   1.00800           0
     26827 LPSA25   1        ECLIPA   H55S     HAL2     0.900000E-01   1.00800           0
     26828 LPSA25   1        ECLIPA   C56      CTL2    -0.180000       12.0110           0
     26829 LPSA25   1        ECLIPA   H56R     HAL2     0.900000E-01   1.00800           0
     26830 LPSA25   1        ECLIPA   H56S     HAL2     0.900000E-01   1.00800           0
     26831 LPSA25   1        ECLIPA   C57      CTL2    -0.180000       12.0110           0
     26832 LPSA25   1        ECLIPA   H57R     HAL2     0.900000E-01   1.00800           0
     26833 LPSA25   1        ECLIPA   H57S     HAL2     0.900000E-01   1.00800           0
     26834 LPSA25   1        ECLIPA   C58      CTL2    -0.180000       12.0110           0
     26835 LPSA25   1        ECLIPA   H58R     HAL2     0.900000E-01   1.00800           0
     26836 LPSA25   1        ECLIPA   H58S     HAL2     0.900000E-01   1.00800           0
     26837 LPSA25   1        ECLIPA   C59      CTL2    -0.180000       12.0110           0
     26838 LPSA25   1        ECLIPA   H59R     HAL2     0.900000E-01   1.00800           0
     26839 LPSA25   1        ECLIPA   H59S     HAL2     0.900000E-01   1.00800           0
     26840 LPSA25   1        ECLIPA   C510     CTL2    -0.180000       12.0110           0
     26841 LPSA25   1        ECLIPA   H510R    HAL2     0.900000E-01   1.00800           0
     26842 LPSA25   1        ECLIPA   H510S    HAL2     0.900000E-01   1.00800           0
     26843 LPSA25   1        ECLIPA   C511     CTL2    -0.180000       12.0110           0
     26844 LPSA25   1        ECLIPA   H511R    HAL2     0.900000E-01   1.00800           0
     26845 LPSA25   1        ECLIPA   H511S    HAL2     0.900000E-01   1.00800           0
     26846 LPSA25   1        ECLIPA   C512     CTL2    -0.180000       12.0110           0
     26847 LPSA25   1        ECLIPA   H512R    HAL2     0.900000E-01   1.00800           0
     26848 LPSA25   1        ECLIPA   H512S    HAL2     0.900000E-01   1.00800           0
     26849 LPSA25   1        ECLIPA   C513     CTL2    -0.180000       12.0110           0
     26850 LPSA25   1        ECLIPA   H513R    HAL2     0.900000E-01   1.00800           0
     26851 LPSA25   1        ECLIPA   H513S    HAL2     0.900000E-01   1.00800           0
     26852 LPSA25   1        ECLIPA   C514     CTL3    -0.270000       12.0110           0
     26853 LPSA25   1        ECLIPA   H514R    HAL3     0.900000E-01   1.00800           0
     26854 LPSA25   1        ECLIPA   H514S    HAL3     0.900000E-01   1.00800           0
     26855 LPSA25   1        ECLIPA   H514T    HAL3     0.900000E-01   1.00800           0
     26856 LPSA25   1        ECLIPA   C33      CTL1     0.140000       12.0110           0
     26857 LPSA25   1        ECLIPA   H33R     HAL1     0.900000E-01   1.00800           0
     26858 LPSA25   1        ECLIPA   O33      OH1     -0.660000       15.9994           0
     26859 LPSA25   1        ECLIPA   HO33     H        0.430000       1.00800           0
     26860 LPSA25   1        ECLIPA   C34      CTL2    -0.180000       12.0110           0
     26861 LPSA25   1        ECLIPA   H34R     HAL2     0.900000E-01   1.00800           0
     26862 LPSA25   1        ECLIPA   H34S     HAL2     0.900000E-01   1.00800           0
     26863 LPSA25   1        ECLIPA   C35      CTL2    -0.180000       12.0110           0
     26864 LPSA25   1        ECLIPA   H35R     HAL2     0.900000E-01   1.00800           0
     26865 LPSA25   1        ECLIPA   H35S     HAL2     0.900000E-01   1.00800           0
     26866 LPSA25   1        ECLIPA   C36      CTL2    -0.180000       12.0110           0
     26867 LPSA25   1        ECLIPA   H36R     HAL2     0.900000E-01   1.00800           0
     26868 LPSA25   1        ECLIPA   H36S     HAL2     0.900000E-01   1.00800           0
     26869 LPSA25   1        ECLIPA   C37      CTL2    -0.180000       12.0110           0
     26870 LPSA25   1        ECLIPA   H37R     HAL2     0.900000E-01   1.00800           0
     26871 LPSA25   1        ECLIPA   H37S     HAL2     0.900000E-01   1.00800           0
     26872 LPSA25   1        ECLIPA   C38      CTL2    -0.180000       12.0110           0
     26873 LPSA25   1        ECLIPA   H38R     HAL2     0.900000E-01   1.00800           0
     26874 LPSA25   1        ECLIPA   H38S     HAL2     0.900000E-01   1.00800           0
     26875 LPSA25   1        ECLIPA   C39      CTL2    -0.180000       12.0110           0
     26876 LPSA25   1        ECLIPA   H39R     HAL2     0.900000E-01   1.00800           0
     26877 LPSA25   1        ECLIPA   H39S     HAL2     0.900000E-01   1.00800           0
     26878 LPSA25   1        ECLIPA   C310     CTL2    -0.180000       12.0110           0
     26879 LPSA25   1        ECLIPA   H310R    HAL2     0.900000E-01   1.00800           0
     26880 LPSA25   1        ECLIPA   H310S    HAL2     0.900000E-01   1.00800           0
     26881 LPSA25   1        ECLIPA   C311     CTL2    -0.180000       12.0110           0
     26882 LPSA25   1        ECLIPA   H311R    HAL2     0.900000E-01   1.00800           0
     26883 LPSA25   1        ECLIPA   H311S    HAL2     0.900000E-01   1.00800           0
     26884 LPSA25   1        ECLIPA   C312     CTL2    -0.180000       12.0110           0
     26885 LPSA25   1        ECLIPA   H312R    HAL2     0.900000E-01   1.00800           0
     26886 LPSA25   1        ECLIPA   H312S    HAL2     0.900000E-01   1.00800           0
     26887 LPSA25   1        ECLIPA   C313     CTL2    -0.180000       12.0110           0
     26888 LPSA25   1        ECLIPA   H313R    HAL2     0.900000E-01   1.00800           0
     26889 LPSA25   1        ECLIPA   H313S    HAL2     0.900000E-01   1.00800           0
     26890 LPSA25   1        ECLIPA   C314     CTL3    -0.270000       12.0110           0
     26891 LPSA25   1        ECLIPA   H314R    HAL3     0.900000E-01   1.00800           0
     26892 LPSA25   1        ECLIPA   H314S    HAL3     0.900000E-01   1.00800           0
     26893 LPSA25   1        ECLIPA   H314T    HAL3     0.900000E-01   1.00800           0
     26894 LPSA25   1        ECLIPA   C11      CC2O1    0.550000       12.0110           0
     26895 LPSA25   1        ECLIPA   O11      OC2D1   -0.550000       15.9994           0
     26896 LPSA25   1        ECLIPA   C12      CTL2    -0.180000       12.0110           0
     26897 LPSA25   1        ECLIPA   H12R     HAL2     0.900000E-01   1.00800           0
     26898 LPSA25   1        ECLIPA   H12S     HAL2     0.900000E-01   1.00800           0
     26899 LPSA25   1        ECLIPA   C13      CTL1     0.140000       12.0110           0
     26900 LPSA25   1        ECLIPA   H13R     HAL1     0.900000E-01   1.00800           0
     26901 LPSA25   1        ECLIPA   O13      OH1     -0.660000       15.9994           0
     26902 LPSA25   1        ECLIPA   HO13     H        0.430000       1.00800           0
     26903 LPSA25   1        ECLIPA   C14      CTL2    -0.180000       12.0110           0
     26904 LPSA25   1        ECLIPA   H14R     HAL2     0.900000E-01   1.00800           0
     26905 LPSA25   1        ECLIPA   H14S     HAL2     0.900000E-01   1.00800           0
     26906 LPSA25   1        ECLIPA   C15      CTL2    -0.180000       12.0110           0
     26907 LPSA25   1        ECLIPA   H15R     HAL2     0.900000E-01   1.00800           0
     26908 LPSA25   1        ECLIPA   H15S     HAL2     0.900000E-01   1.00800           0
     26909 LPSA25   1        ECLIPA   C16      CTL2    -0.180000       12.0110           0
     26910 LPSA25   1        ECLIPA   H16R     HAL2     0.900000E-01   1.00800           0
     26911 LPSA25   1        ECLIPA   H16S     HAL2     0.900000E-01   1.00800           0
     26912 LPSA25   1        ECLIPA   C17      CTL2    -0.180000       12.0110           0
     26913 LPSA25   1        ECLIPA   H17R     HAL2     0.900000E-01   1.00800           0
     26914 LPSA25   1        ECLIPA   H17S     HAL2     0.900000E-01   1.00800           0
     26915 LPSA25   1        ECLIPA   C18      CTL2    -0.180000       12.0110           0
     26916 LPSA25   1        ECLIPA   H18R     HAL2     0.900000E-01   1.00800           0
     26917 LPSA25   1        ECLIPA   H18S     HAL2     0.900000E-01   1.00800           0
     26918 LPSA25   1        ECLIPA   C19      CTL2    -0.180000       12.0110           0
     26919 LPSA25   1        ECLIPA   H19R     HAL2     0.900000E-01   1.00800           0
     26920 LPSA25   1        ECLIPA   H19S     HAL2     0.900000E-01   1.00800           0
     26921 LPSA25   1        ECLIPA   C110     CTL2    -0.180000       12.0110           0
     26922 LPSA25   1        ECLIPA   H110R    HAL2     0.900000E-01   1.00800           0
     26923 LPSA25   1        ECLIPA   H110S    HAL2     0.900000E-01   1.00800           0
     26924 LPSA25   1        ECLIPA   C111     CTL2    -0.180000       12.0110           0
     26925 LPSA25   1        ECLIPA   H111R    HAL2     0.900000E-01   1.00800           0
     26926 LPSA25   1        ECLIPA   H111S    HAL2     0.900000E-01   1.00800           0
     26927 LPSA25   1        ECLIPA   C112     CTL2    -0.180000       12.0110           0
     26928 LPSA25   1        ECLIPA   H112R    HAL2     0.900000E-01   1.00800           0
     26929 LPSA25   1        ECLIPA   H112S    HAL2     0.900000E-01   1.00800           0
     26930 LPSA25   1        ECLIPA   C113     CTL2    -0.180000       12.0110           0
     26931 LPSA25   1        ECLIPA   H113R    HAL2     0.900000E-01   1.00800           0
     26932 LPSA25   1        ECLIPA   H113S    HAL2     0.900000E-01   1.00800           0
     26933 LPSA25   1        ECLIPA   C114     CTL3    -0.270000       12.0110           0
     26934 LPSA25   1        ECLIPA   H114R    HAL3     0.900000E-01   1.00800           0
     26935 LPSA25   1        ECLIPA   H114S    HAL3     0.900000E-01   1.00800           0
     26936 LPSA25   1        ECLIPA   H114T    HAL3     0.900000E-01   1.00800           0
     26937 LPSA25   2        AKDO     C1       CC2O2    0.300000       12.0110           0
     26938 LPSA25   2        AKDO     O11      OC2D2   -0.600000       15.9994           0
     26939 LPSA25   2        AKDO     O12      OC2D2   -0.600000       15.9994           0
     26940 LPSA25   2        AKDO     C2       CC3062   0.280000       12.0110           0
     26941 LPSA25   2        AKDO     C6       CC3163   0.110000       12.0110           0
     26942 LPSA25   2        AKDO     H6       HCA1     0.900000E-01   1.00800           0
     26943 LPSA25   2        AKDO     O6       OC3C61  -0.400000       15.9994           0
     26944 LPSA25   2        AKDO     C3       CC3261  -0.180000       12.0110           0
     26945 LPSA25   2        AKDO     H31      HCA2     0.900000E-01   1.00800           0
     26946 LPSA25   2        AKDO     H32      HCA2     0.900000E-01   1.00800           0
     26947 LPSA25   2        AKDO     C4       CC3161   0.900000E-01   12.0110           0
     26948 LPSA25   2        AKDO     H4       HCA1     0.900000E-01   1.00800           0
     26949 LPSA25   2        AKDO     O4       OC301   -0.360000       15.9994           0
     26950 LPSA25   2        AKDO     C5       CC3161   0.900000E-01   12.0110           0
     26951 LPSA25   2        AKDO     H5       HCA1     0.900000E-01   1.00800           0
     26952 LPSA25   2        AKDO     O5       OC301   -0.360000       15.9994           0
     26953 LPSA25   2        AKDO     C7       CC312    0.140000       12.0110           0
     26954 LPSA25   2        AKDO     H7       HCA1     0.900000E-01   1.00800           0
     26955 LPSA25   2        AKDO     O7       OC311   -0.650000       15.9994           0
     26956 LPSA25   2        AKDO     HO7      HCP1     0.420000       1.00800           0
     26957 LPSA25   2        AKDO     C8       CC322    0.500000E-01   12.0110           0
     26958 LPSA25   2        AKDO     H81      HCA2     0.900000E-01   1.00800           0
     26959 LPSA25   2        AKDO     H82      HCA2     0.900000E-01   1.00800           0
     26960 LPSA25   2        AKDO     O8       OC311   -0.650000       15.9994           0
     26961 LPSA25   2        AKDO     HO8      HCP1     0.420000       1.00800           0
     26962 LPSA25   3        AKDO     C1       CC2O2    0.300000       12.0110           0
     26963 LPSA25   3        AKDO     O11      OC2D2   -0.600000       15.9994           0
     26964 LPSA25   3        AKDO     O12      OC2D2   -0.600000       15.9994           0
     26965 LPSA25   3        AKDO     C2       CC3062   0.280000       12.0110           0
     26966 LPSA25   3        AKDO     C6       CC3163   0.110000       12.0110           0
     26967 LPSA25   3        AKDO     H6       HCA1     0.900000E-01   1.00800           0
     26968 LPSA25   3        AKDO     O6       OC3C61  -0.400000       15.9994           0
     26969 LPSA25   3        AKDO     C3       CC3261  -0.180000       12.0110           0
     26970 LPSA25   3        AKDO     H31      HCA2     0.900000E-01   1.00800           0
     26971 LPSA25   3        AKDO     H32      HCA2     0.900000E-01   1.00800           0
     26972 LPSA25   3        AKDO     C4       CC3161   0.140000       12.0110           0
     26973 LPSA25   3        AKDO     H4       HCA1     0.900000E-01   1.00800           0
     26974 LPSA25   3        AKDO     O4       OC311   -0.650000       15.9994           0
     26975 LPSA25   3        AKDO     HO4      HCP1     0.420000       1.00800           0
     26976 LPSA25   3        AKDO     C5       CC3161   0.140000       12.0110           0
     26977 LPSA25   3        AKDO     H5       HCA1     0.900000E-01   1.00800           0
     26978 LPSA25   3        AKDO     O5       OC311   -0.650000       15.9994           0
     26979 LPSA25   3        AKDO     HO5      HCP1     0.420000       1.00800           0
     26980 LPSA25   3        AKDO     C7       CC312    0.140000       12.0110           0
     26981 LPSA25   3        AKDO     H7       HCA1     0.900000E-01   1.00800           0
     26982 LPSA25   3        AKDO     O7       OC311   -0.650000       15.9994           0
     26983 LPSA25   3        AKDO     HO7      HCP1     0.420000       1.00800           0
     26984 LPSA25   3        AKDO     C8       CC322    0.500000E-01   12.0110           0
     26985 LPSA25   3        AKDO     H81      HCA2     0.900000E-01   1.00800           0
     26986 LPSA25   3        AKDO     H82      HCA2     0.900000E-01   1.00800           0
     26987 LPSA25   3        AKDO     O8       OC311   -0.650000       15.9994           0
     26988 LPSA25   3        AKDO     HO8      HCP1     0.420000       1.00800           0
     26989 LPSA25   4        AHEP     C1       CC3162   0.290000       12.0110           0
     26990 LPSA25   4        AHEP     H1       HCA1     0.900000E-01   1.00800           0
     26991 LPSA25   4        AHEP     C5       CC3163   0.110000       12.0110           0
     26992 LPSA25   4        AHEP     H5       HCA1     0.900000E-01   1.00800           0
     26993 LPSA25   4        AHEP     O5       OC3C61  -0.400000       15.9994           0
     26994 LPSA25   4        AHEP     C2       CC3161   0.140000       12.0110           0
     26995 LPSA25   4        AHEP     H2       HCA1     0.900000E-01   1.00800           0
     26996 LPSA25   4        AHEP     O2       OC311   -0.650000       15.9994           0
     26997 LPSA25   4        AHEP     HO2      HCP1     0.420000       1.00800           0
     26998 LPSA25   4        AHEP     C3       CC3161   0.900000E-01   12.0110           0
     26999 LPSA25   4        AHEP     H3       HCA1     0.900000E-01   1.00800           0
     27000 LPSA25   4        AHEP     O3       OC301   -0.360000       15.9994           0
     27001 LPSA25   4        AHEP     C4       CC3161  -0.900000E-01   12.0110           0
     27002 LPSA25   4        AHEP     H4       HCA1     0.900000E-01   1.00800           0
     27003 LPSA25   4        AHEP     O4       OC30P   -0.400000       15.9994           0
     27004 LPSA25   4        AHEP     P4       PC        1.10000       30.9740           0
     27005 LPSA25   4        AHEP     OP42     OC2DP   -0.900000       15.9994           0
     27006 LPSA25   4        AHEP     OP43     OC2DP   -0.900000       15.9994           0
     27007 LPSA25   4        AHEP     OP44     OC2DP   -0.900000       15.9994           0
     27008 LPSA25   4        AHEP     C6       CC312    0.140000       12.0110           0
     27009 LPSA25   4        AHEP     H6       HCA1     0.900000E-01   1.00800           0
     27010 LPSA25   4        AHEP     O6       OC311   -0.650000       15.9994           0
     27011 LPSA25   4        AHEP     HO6      HCP1     0.420000       1.00800           0
     27012 LPSA25   4        AHEP     C7       CC322    0.500000E-01   12.0110           0
     27013 LPSA25   4        AHEP     H71      HCA2     0.900000E-01   1.00800           0
     27014 LPSA25   4        AHEP     H72      HCA2     0.900000E-01   1.00800           0
     27015 LPSA25   4        AHEP     O7       OC311   -0.650000       15.9994           0
     27016 LPSA25   4        AHEP     HO7      HCP1     0.420000       1.00800           0
     27017 LPSA25   5        AHEP     C1       CC3162   0.290000       12.0110           0
     27018 LPSA25   5        AHEP     H1       HCA1     0.900000E-01   1.00800           0
     27019 LPSA25   5        AHEP     C5       CC3163   0.110000       12.0110           0
     27020 LPSA25   5        AHEP     H5       HCA1     0.900000E-01   1.00800           0
     27021 LPSA25   5        AHEP     O5       OC3C61  -0.400000       15.9994           0
     27022 LPSA25   5        AHEP     C2       CC3161   0.140000       12.0110           0
     27023 LPSA25   5        AHEP     H2       HCA1     0.900000E-01   1.00800           0
     27024 LPSA25   5        AHEP     O2       OC311   -0.650000       15.9994           0
     27025 LPSA25   5        AHEP     HO2      HCP1     0.420000       1.00800           0
     27026 LPSA25   5        AHEP     C3       CC3161   0.900000E-01   12.0110           0
     27027 LPSA25   5        AHEP     H3       HCA1     0.900000E-01   1.00800           0
     27028 LPSA25   5        AHEP     O3       OC301   -0.360000       15.9994           0
     27029 LPSA25   5        AHEP     C4       CC3161  -0.900000E-01   12.0110           0
     27030 LPSA25   5        AHEP     H4       HCA1     0.900000E-01   1.00800           0
     27031 LPSA25   5        AHEP     O4       OC30P   -0.400000       15.9994           0
     27032 LPSA25   5        AHEP     P4       PC        1.10000       30.9740           0
     27033 LPSA25   5        AHEP     OP42     OC2DP   -0.900000       15.9994           0
     27034 LPSA25   5        AHEP     OP43     OC2DP   -0.900000       15.9994           0
     27035 LPSA25   5        AHEP     OP44     OC2DP   -0.900000       15.9994           0
     27036 LPSA25   5        AHEP     C6       CC312    0.140000       12.0110           0
     27037 LPSA25   5        AHEP     H6       HCA1     0.900000E-01   1.00800           0
     27038 LPSA25   5        AHEP     O6       OC311   -0.650000       15.9994           0
     27039 LPSA25   5        AHEP     HO6      HCP1     0.420000       1.00800           0
     27040 LPSA25   5        AHEP     C7       CC322     0.00000       12.0110           0
     27041 LPSA25   5        AHEP     H71      HCA2     0.900000E-01   1.00800           0
     27042 LPSA25   5        AHEP     H72      HCA2     0.900000E-01   1.00800           0
     27043 LPSA25   5        AHEP     O7       OC301   -0.360000       15.9994           0
     27044 LPSA25   6        AHEP     C1       CC3162   0.290000       12.0110           0
     27045 LPSA25   6        AHEP     H1       HCA1     0.900000E-01   1.00800           0
     27046 LPSA25   6        AHEP     C5       CC3163   0.110000       12.0110           0
     27047 LPSA25   6        AHEP     H5       HCA1     0.900000E-01   1.00800           0
     27048 LPSA25   6        AHEP     O5       OC3C61  -0.400000       15.9994           0
     27049 LPSA25   6        AHEP     C2       CC3161   0.140000       12.0110           0
     27050 LPSA25   6        AHEP     H2       HCA1     0.900000E-01   1.00800           0
     27051 LPSA25   6        AHEP     O2       OC311   -0.650000       15.9994           0
     27052 LPSA25   6        AHEP     HO2      HCP1     0.420000       1.00800           0
     27053 LPSA25   6        AHEP     C3       CC3161   0.140000       12.0110           0
     27054 LPSA25   6        AHEP     H3       HCA1     0.900000E-01   1.00800           0
     27055 LPSA25   6        AHEP     O3       OC311   -0.650000       15.9994           0
     27056 LPSA25   6        AHEP     HO3      HCP1     0.420000       1.00800           0
     27057 LPSA25   6        AHEP     C4       CC3161   0.140000       12.0110           0
     27058 LPSA25   6        AHEP     H4       HCA1     0.900000E-01   1.00800           0
     27059 LPSA25   6        AHEP     O4       OC311   -0.650000       15.9994           0
     27060 LPSA25   6        AHEP     HO4      HCP1     0.420000       1.00800           0
     27061 LPSA25   6        AHEP     C6       CC312    0.140000       12.0110           0
     27062 LPSA25   6        AHEP     H6       HCA1     0.900000E-01   1.00800           0
     27063 LPSA25   6        AHEP     O6       OC311   -0.650000       15.9994           0
     27064 LPSA25   6        AHEP     HO6      HCP1     0.420000       1.00800           0
     27065 LPSA25   6        AHEP     C7       CC322    0.500000E-01   12.0110           0
     27066 LPSA25   6        AHEP     H71      HCA2     0.900000E-01   1.00800           0
     27067 LPSA25   6        AHEP     H72      HCA2     0.900000E-01   1.00800           0
     27068 LPSA25   6        AHEP     O7       OC311   -0.650000       15.9994           0
     27069 LPSA25   6        AHEP     HO7      HCP1     0.420000       1.00800           0
     27070 LPSA25   7        AGLC     C1       CC3162   0.290000       12.0110           0
     27071 LPSA25   7        AGLC     H1       HCA1     0.900000E-01   1.00800           0
     27072 LPSA25   7        AGLC     C5       CC3163   0.110000       12.0110           0
     27073 LPSA25   7        AGLC     H5       HCA1     0.900000E-01   1.00800           0
     27074 LPSA25   7        AGLC     O5       OC3C61  -0.400000       15.9994           0
     27075 LPSA25   7        AGLC     C2       CC3161   0.140000       12.0110           0
     27076 LPSA25   7        AGLC     H2       HCA1     0.900000E-01   1.00800           0
     27077 LPSA25   7        AGLC     O2       OC311   -0.650000       15.9994           0
     27078 LPSA25   7        AGLC     HO2      HCP1     0.420000       1.00800           0
     27079 LPSA25   7        AGLC     C3       CC3161   0.900000E-01   12.0110           0
     27080 LPSA25   7        AGLC     H3       HCA1     0.900000E-01   1.00800           0
     27081 LPSA25   7        AGLC     O3       OC301   -0.360000       15.9994           0
     27082 LPSA25   7        AGLC     C4       CC3161   0.140000       12.0110           0
     27083 LPSA25   7        AGLC     H4       HCA1     0.900000E-01   1.00800           0
     27084 LPSA25   7        AGLC     O4       OC311   -0.650000       15.9994           0
     27085 LPSA25   7        AGLC     HO4      HCP1     0.420000       1.00800           0
     27086 LPSA25   7        AGLC     C6       CC321    0.500000E-01   12.0110           0
     27087 LPSA25   7        AGLC     H61      HCA2     0.900000E-01   1.00800           0
     27088 LPSA25   7        AGLC     H62      HCA2     0.900000E-01   1.00800           0
     27089 LPSA25   7        AGLC     O6       OC311   -0.650000       15.9994           0
     27090 LPSA25   7        AGLC     HO6      HCP1     0.420000       1.00800           0
     27091 LPSA25   8        AGLC     C1       CC3162   0.290000       12.0110           0
     27092 LPSA25   8        AGLC     H1       HCA1     0.900000E-01   1.00800           0
     27093 LPSA25   8        AGLC     C5       CC3163   0.110000       12.0110           0
     27094 LPSA25   8        AGLC     H5       HCA1     0.900000E-01   1.00800           0
     27095 LPSA25   8        AGLC     O5       OC3C61  -0.400000       15.9994           0
     27096 LPSA25   8        AGLC     C2       CC3161   0.900000E-01   12.0110           0
     27097 LPSA25   8        AGLC     H2       HCA1     0.900000E-01   1.00800           0
     27098 LPSA25   8        AGLC     O2       OC301   -0.360000       15.9994           0
     27099 LPSA25   8        AGLC     C3       CC3161   0.900000E-01   12.0110           0
     27100 LPSA25   8        AGLC     H3       HCA1     0.900000E-01   1.00800           0
     27101 LPSA25   8        AGLC     O3       OC301   -0.360000       15.9994           0
     27102 LPSA25   8        AGLC     C4       CC3161   0.140000       12.0110           0
     27103 LPSA25   8        AGLC     H4       HCA1     0.900000E-01   1.00800           0
     27104 LPSA25   8        AGLC     O4       OC311   -0.650000       15.9994           0
     27105 LPSA25   8        AGLC     HO4      HCP1     0.420000       1.00800           0
     27106 LPSA25   8        AGLC     C6       CC321    0.500000E-01   12.0110           0
     27107 LPSA25   8        AGLC     H61      HCA2     0.900000E-01   1.00800           0
     27108 LPSA25   8        AGLC     H62      HCA2     0.900000E-01   1.00800           0
     27109 LPSA25   8        AGLC     O6       OC311   -0.650000       15.9994           0
     27110 LPSA25   8        AGLC     HO6      HCP1     0.420000       1.00800           0
     27111 LPSA25   9        AGAL     C1       CC3162   0.290000       12.0110           0
     27112 LPSA25   9        AGAL     H1       HCA1     0.900000E-01   1.00800           0
     27113 LPSA25   9        AGAL     C5       CC3163   0.110000       12.0110           0
     27114 LPSA25   9        AGAL     H5       HCA1     0.900000E-01   1.00800           0
     27115 LPSA25   9        AGAL     O5       OC3C61  -0.400000       15.9994           0
     27116 LPSA25   9        AGAL     C2       CC3161   0.900000E-01   12.0110           0
     27117 LPSA25   9        AGAL     H2       HCA1     0.900000E-01   1.00800           0
     27118 LPSA25   9        AGAL     O2       OC301   -0.360000       15.9994           0
     27119 LPSA25   9        AGAL     C3       CC3161   0.140000       12.0110           0
     27120 LPSA25   9        AGAL     H3       HCA1     0.900000E-01   1.00800           0
     27121 LPSA25   9        AGAL     O3       OC311   -0.650000       15.9994           0
     27122 LPSA25   9        AGAL     HO3      HCP1     0.420000       1.00800           0
     27123 LPSA25   9        AGAL     C4       CC3161   0.140000       12.0110           0
     27124 LPSA25   9        AGAL     H4       HCA1     0.900000E-01   1.00800           0
     27125 LPSA25   9        AGAL     O4       OC311   -0.650000       15.9994           0
     27126 LPSA25   9        AGAL     HO4      HCP1     0.420000       1.00800           0
     27127 LPSA25   9        AGAL     C6       CC321    0.500000E-01   12.0110           0
     27128 LPSA25   9        AGAL     H61      HCA2     0.900000E-01   1.00800           0
     27129 LPSA25   9        AGAL     H62      HCA2     0.900000E-01   1.00800           0
     27130 LPSA25   9        AGAL     O6       OC311   -0.650000       15.9994           0
     27131 LPSA25   9        AGAL     HO6      HCP1     0.420000       1.00800           0
     27132 LPSA25   10       AGAL     C1       CC3162   0.290000       12.0110           0
     27133 LPSA25   10       AGAL     H1       HCA1     0.900000E-01   1.00800           0
     27134 LPSA25   10       AGAL     C5       CC3163   0.110000       12.0110           0
     27135 LPSA25   10       AGAL     H5       HCA1     0.900000E-01   1.00800           0
     27136 LPSA25   10       AGAL     O5       OC3C61  -0.400000       15.9994           0
     27137 LPSA25   10       AGAL     C2       CC3161   0.140000       12.0110           0
     27138 LPSA25   10       AGAL     H2       HCA1     0.900000E-01   1.00800           0
     27139 LPSA25   10       AGAL     O2       OC311   -0.650000       15.9994           0
     27140 LPSA25   10       AGAL     HO2      HCP1     0.420000       1.00800           0
     27141 LPSA25   10       AGAL     C3       CC3161   0.140000       12.0110           0
     27142 LPSA25   10       AGAL     H3       HCA1     0.900000E-01   1.00800           0
     27143 LPSA25   10       AGAL     O3       OC311   -0.650000       15.9994           0
     27144 LPSA25   10       AGAL     HO3      HCP1     0.420000       1.00800           0
     27145 LPSA25   10       AGAL     C4       CC3161   0.140000       12.0110           0
     27146 LPSA25   10       AGAL     H4       HCA1     0.900000E-01   1.00800           0
     27147 LPSA25   10       AGAL     O4       OC311   -0.650000       15.9994           0
     27148 LPSA25   10       AGAL     HO4      HCP1     0.420000       1.00800           0
     27149 LPSA25   10       AGAL     C6       CC321    0.500000E-01   12.0110           0
     27150 LPSA25   10       AGAL     H61      HCA2     0.900000E-01   1.00800           0
     27151 LPSA25   10       AGAL     H62      HCA2     0.900000E-01   1.00800           0
     27152 LPSA25   10       AGAL     O6       OC311   -0.650000       15.9994           0
     27153 LPSA25   10       AGAL     HO6      HCP1     0.420000       1.00800           0
     27154 LPSA25   11       BGLC     C1       CC3162   0.290000       12.0110           0
     27155 LPSA25   11       BGLC     H1       HCA1     0.900000E-01   1.00800           0
     27156 LPSA25   11       BGLC     C5       CC3163   0.110000       12.0110           0
     27157 LPSA25   11       BGLC     H5       HCA1     0.900000E-01   1.00800           0
     27158 LPSA25   11       BGLC     O5       OC3C61  -0.400000       15.9994           0
     27159 LPSA25   11       BGLC     C2       CC3161   0.140000       12.0110           0
     27160 LPSA25   11       BGLC     H2       HCA1     0.900000E-01   1.00800           0
     27161 LPSA25   11       BGLC     O2       OC311   -0.650000       15.9994           0
     27162 LPSA25   11       BGLC     HO2      HCP1     0.420000       1.00800           0
     27163 LPSA25   11       BGLC     C3       CC3161   0.900000E-01   12.0110           0
     27164 LPSA25   11       BGLC     H3       HCA1     0.900000E-01   1.00800           0
     27165 LPSA25   11       BGLC     O3       OC301   -0.360000       15.9994           0
     27166 LPSA25   11       BGLC     C4       CC3161   0.140000       12.0110           0
     27167 LPSA25   11       BGLC     H4       HCA1     0.900000E-01   1.00800           0
     27168 LPSA25   11       BGLC     O4       OC311   -0.650000       15.9994           0
     27169 LPSA25   11       BGLC     HO4      HCP1     0.420000       1.00800           0
     27170 LPSA25   11       BGLC     C6       CC321    0.500000E-01   12.0110           0
     27171 LPSA25   11       BGLC     H61      HCA2     0.900000E-01   1.00800           0
     27172 LPSA25   11       BGLC     H62      HCA2     0.900000E-01   1.00800           0
     27173 LPSA25   11       BGLC     O6       OC311   -0.650000       15.9994           0
     27174 LPSA25   11       BGLC     HO6      HCP1     0.420000       1.00800           0
     27175 LPSA25   12       BGLCNA   C1       CC3162   0.290000       12.0110           0
     27176 LPSA25   12       BGLCNA   H1       HCA1     0.900000E-01   1.00800           0
     27177 LPSA25   12       BGLCNA   C5       CC3163   0.110000       12.0110           0
     27178 LPSA25   12       BGLCNA   H5       HCA1     0.900000E-01   1.00800           0
     27179 LPSA25   12       BGLCNA   O5       OC3C61  -0.400000       15.9994           0
     27180 LPSA25   12       BGLCNA   C2       CC3161   0.700000E-01   12.0110           0
     27181 LPSA25   12       BGLCNA   H2       HCA1     0.900000E-01   1.00800           0
     27182 LPSA25   12       BGLCNA   N        NC2D1   -0.470000       14.0070           0
     27183 LPSA25   12       BGLCNA   HN       HCP1     0.310000       1.00800           0
     27184 LPSA25   12       BGLCNA   C        CC2O1    0.510000       12.0110           0
     27185 LPSA25   12       BGLCNA   O        OC2D1   -0.510000       15.9994           0
     27186 LPSA25   12       BGLCNA   CT       CC331   -0.270000       12.0110           0
     27187 LPSA25   12       BGLCNA   HT1      HCA3     0.900000E-01   1.00800           0
     27188 LPSA25   12       BGLCNA   HT2      HCA3     0.900000E-01   1.00800           0
     27189 LPSA25   12       BGLCNA   HT3      HCA3     0.900000E-01   1.00800           0
     27190 LPSA25   12       BGLCNA   C3       CC3161   0.900000E-01   12.0110           0
     27191 LPSA25   12       BGLCNA   H3       HCA1     0.900000E-01   1.00800           0
     27192 LPSA25   12       BGLCNA   O3       OC301   -0.360000       15.9994           0
     27193 LPSA25   12       BGLCNA   C4       CC3161   0.140000       12.0110           0
     27194 LPSA25   12       BGLCNA   H4       HCA1     0.900000E-01   1.00800           0
     27195 LPSA25   12       BGLCNA   O4       OC311   -0.650000       15.9994           0
     27196 LPSA25   12       BGLCNA   HO4      HCP1     0.420000       1.00800           0
     27197 LPSA25   12       BGLCNA   C6       CC321    0.500000E-01   12.0110           0
     27198 LPSA25   12       BGLCNA   H61      HCA2     0.900000E-01   1.00800           0
     27199 LPSA25   12       BGLCNA   H62      HCA2     0.900000E-01   1.00800           0
     27200 LPSA25   12       BGLCNA   O6       OC311   -0.650000       15.9994           0
     27201 LPSA25   12       BGLCNA   HO6      HCP1     0.420000       1.00800           0
     27202 LPSA25   13       AGAL     C1       CC3162   0.290000       12.0110           0
     27203 LPSA25   13       AGAL     H1       HCA1     0.900000E-01   1.00800           0
     27204 LPSA25   13       AGAL     C5       CC3163   0.110000       12.0110           0
     27205 LPSA25   13       AGAL     H5       HCA1     0.900000E-01   1.00800           0
     27206 LPSA25   13       AGAL     O5       OC3C61  -0.400000       15.9994           0
     27207 LPSA25   13       AGAL     C2       CC3161   0.900000E-01   12.0110           0
     27208 LPSA25   13       AGAL     H2       HCA1     0.900000E-01   1.00800           0
     27209 LPSA25   13       AGAL     O2       OC301   -0.360000       15.9994           0
     27210 LPSA25   13       AGAL     C3       CC3161   0.140000       12.0110           0
     27211 LPSA25   13       AGAL     H3       HCA1     0.900000E-01   1.00800           0
     27212 LPSA25   13       AGAL     O3       OC311   -0.650000       15.9994           0
     27213 LPSA25   13       AGAL     HO3      HCP1     0.420000       1.00800           0
     27214 LPSA25   13       AGAL     C4       CC3161   0.140000       12.0110           0
     27215 LPSA25   13       AGAL     H4       HCA1     0.900000E-01   1.00800           0
     27216 LPSA25   13       AGAL     O4       OC311   -0.650000       15.9994           0
     27217 LPSA25   13       AGAL     HO4      HCP1     0.420000       1.00800           0
     27218 LPSA25   13       AGAL     C6       CC321    0.500000E-01   12.0110           0
     27219 LPSA25   13       AGAL     H61      HCA2     0.900000E-01   1.00800           0
     27220 LPSA25   13       AGAL     H62      HCA2     0.900000E-01   1.00800           0
     27221 LPSA25   13       AGAL     O6       OC311   -0.650000       15.9994           0
     27222 LPSA25   13       AGAL     HO6      HCP1     0.420000       1.00800           0
     27223 LPSA25   14       ARHM     C1       CC3162   0.290000       12.0110           0
     27224 LPSA25   14       ARHM     H1       HCA1     0.900000E-01   1.00800           0
     27225 LPSA25   14       ARHM     C5       CC3163   0.110000       12.0110           0
     27226 LPSA25   14       ARHM     H5       HCA1     0.900000E-01   1.00800           0
     27227 LPSA25   14       ARHM     O5       OC3C61  -0.400000       15.9994           0
     27228 LPSA25   14       ARHM     C2       CC3161   0.900000E-01   12.0110           0
     27229 LPSA25   14       ARHM     H2       HCA1     0.900000E-01   1.00800           0
     27230 LPSA25   14       ARHM     O2       OC301   -0.360000       15.9994           0
     27231 LPSA25   14       ARHM     C3       CC3161   0.140000       12.0110           0
     27232 LPSA25   14       ARHM     H3       HCA1     0.900000E-01   1.00800           0
     27233 LPSA25   14       ARHM     O3       OC311   -0.650000       15.9994           0
     27234 LPSA25   14       ARHM     HO3      HCP1     0.420000       1.00800           0
     27235 LPSA25   14       ARHM     C4       CC3161   0.140000       12.0110           0
     27236 LPSA25   14       ARHM     H4       HCA1     0.900000E-01   1.00800           0
     27237 LPSA25   14       ARHM     O4       OC311   -0.650000       15.9994           0
     27238 LPSA25   14       ARHM     HO4      HCP1     0.420000       1.00800           0
     27239 LPSA25   14       ARHM     C6       CC331   -0.270000       12.0110           0
     27240 LPSA25   14       ARHM     H61      HCA3     0.900000E-01   1.00800           0
     27241 LPSA25   14       ARHM     H62      HCA3     0.900000E-01   1.00800           0
     27242 LPSA25   14       ARHM     H63      HCA3     0.900000E-01   1.00800           0
     27243 LPSA25   15       ARHM     C1       CC3162   0.290000       12.0110           0
     27244 LPSA25   15       ARHM     H1       HCA1     0.900000E-01   1.00800           0
     27245 LPSA25   15       ARHM     C5       CC3163   0.110000       12.0110           0
     27246 LPSA25   15       ARHM     H5       HCA1     0.900000E-01   1.00800           0
     27247 LPSA25   15       ARHM     O5       OC3C61  -0.400000       15.9994           0
     27248 LPSA25   15       ARHM     C2       CC3161   0.900000E-01   12.0110           0
     27249 LPSA25   15       ARHM     H2       HCA1     0.900000E-01   1.00800           0
     27250 LPSA25   15       ARHM     O2       OC301   -0.360000       15.9994           0
     27251 LPSA25   15       ARHM     C3       CC3161   0.900000E-01   12.0110           0
     27252 LPSA25   15       ARHM     H3       HCA1     0.900000E-01   1.00800           0
     27253 LPSA25   15       ARHM     O3       OC301   -0.360000       15.9994           0
     27254 LPSA25   15       ARHM     C4       CC3161   0.140000       12.0110           0
     27255 LPSA25   15       ARHM     H4       HCA1     0.900000E-01   1.00800           0
     27256 LPSA25   15       ARHM     O4       OC311   -0.650000       15.9994           0
     27257 LPSA25   15       ARHM     HO4      HCP1     0.420000       1.00800           0
     27258 LPSA25   15       ARHM     C6       CC331   -0.270000       12.0110           0
     27259 LPSA25   15       ARHM     H61      HCA3     0.900000E-01   1.00800           0
     27260 LPSA25   15       ARHM     H62      HCA3     0.900000E-01   1.00800           0
     27261 LPSA25   15       ARHM     H63      HCA3     0.900000E-01   1.00800           0
     27262 LPSA25   16       BMANNA   C1       CC3162   0.290000       12.0110           0
     27263 LPSA25   16       BMANNA   H1       HCA1     0.900000E-01   1.00800           0
     27264 LPSA25   16       BMANNA   C5       CC3163   0.110000       12.0110           0
     27265 LPSA25   16       BMANNA   H5       HCA1     0.900000E-01   1.00800           0
     27266 LPSA25   16       BMANNA   O5       OC3C61  -0.400000       15.9994           0
     27267 LPSA25   16       BMANNA   C2       CC3161   0.700000E-01   12.0110           0
     27268 LPSA25   16       BMANNA   H2       HCA1     0.900000E-01   1.00800           0
     27269 LPSA25   16       BMANNA   N        NC2D1   -0.470000       14.0070           0
     27270 LPSA25   16       BMANNA   HN       HCP1     0.310000       1.00800           0
     27271 LPSA25   16       BMANNA   C        CC2O1    0.510000       12.0110           0
     27272 LPSA25   16       BMANNA   O        OC2D1   -0.510000       15.9994           0
     27273 LPSA25   16       BMANNA   CT       CC331   -0.270000       12.0110           0
     27274 LPSA25   16       BMANNA   HT1      HCA3     0.900000E-01   1.00800           0
     27275 LPSA25   16       BMANNA   HT2      HCA3     0.900000E-01   1.00800           0
     27276 LPSA25   16       BMANNA   HT3      HCA3     0.900000E-01   1.00800           0
     27277 LPSA25   16       BMANNA   C3       CC3161   0.140000       12.0110           0
     27278 LPSA25   16       BMANNA   H3       HCA1     0.900000E-01   1.00800           0
     27279 LPSA25   16       BMANNA   O3       OC311   -0.650000       15.9994           0
     27280 LPSA25   16       BMANNA   HO3      HCP1     0.420000       1.00800           0
     27281 LPSA25   16       BMANNA   C4       CC3161   0.140000       12.0110           0
     27282 LPSA25   16       BMANNA   H4       HCA1     0.900000E-01   1.00800           0
     27283 LPSA25   16       BMANNA   O4       OC311   -0.650000       15.9994           0
     27284 LPSA25   16       BMANNA   HO4      HCP1     0.420000       1.00800           0
     27285 LPSA25   16       BMANNA   C6       CC321    0.500000E-01   12.0110           0
     27286 LPSA25   16       BMANNA   H61      HCA2     0.900000E-01   1.00800           0
     27287 LPSA25   16       BMANNA   H62      HCA2     0.900000E-01   1.00800           0
     27288 LPSA25   16       BMANNA   O6       OC311   -0.650000       15.9994           0
     27289 LPSA25   16       BMANNA   HO6      HCP1     0.420000       1.00800           0
     27290 LPSA25   17       BGLCNA   C1       CC3162   0.290000       12.0110           0
     27291 LPSA25   17       BGLCNA   H1       HCA1     0.900000E-01   1.00800           0
     27292 LPSA25   17       BGLCNA   C5       CC3163   0.110000       12.0110           0
     27293 LPSA25   17       BGLCNA   H5       HCA1     0.900000E-01   1.00800           0
     27294 LPSA25   17       BGLCNA   O5       OC3C61  -0.400000       15.9994           0
     27295 LPSA25   17       BGLCNA   C2       CC3161   0.700000E-01   12.0110           0
     27296 LPSA25   17       BGLCNA   H2       HCA1     0.900000E-01   1.00800           0
     27297 LPSA25   17       BGLCNA   N        NC2D1   -0.470000       14.0070           0
     27298 LPSA25   17       BGLCNA   HN       HCP1     0.310000       1.00800           0
     27299 LPSA25   17       BGLCNA   C        CC2O1    0.510000       12.0110           0
     27300 LPSA25   17       BGLCNA   O        OC2D1   -0.510000       15.9994           0
     27301 LPSA25   17       BGLCNA   CT       CC331   -0.270000       12.0110           0
     27302 LPSA25   17       BGLCNA   HT1      HCA3     0.900000E-01   1.00800           0
     27303 LPSA25   17       BGLCNA   HT2      HCA3     0.900000E-01   1.00800           0
     27304 LPSA25   17       BGLCNA   HT3      HCA3     0.900000E-01   1.00800           0
     27305 LPSA25   17       BGLCNA   C3       CC3161   0.900000E-01   12.0110           0
     27306 LPSA25   17       BGLCNA   H3       HCA1     0.900000E-01   1.00800           0
     27307 LPSA25   17       BGLCNA   O3       OC301   -0.360000       15.9994           0
     27308 LPSA25   17       BGLCNA   C4       CC3161   0.140000       12.0110           0
     27309 LPSA25   17       BGLCNA   H4       HCA1     0.900000E-01   1.00800           0
     27310 LPSA25   17       BGLCNA   O4       OC311   -0.650000       15.9994           0
     27311 LPSA25   17       BGLCNA   HO4      HCP1     0.420000       1.00800           0
     27312 LPSA25   17       BGLCNA   C6       CC321    0.500000E-01   12.0110           0
     27313 LPSA25   17       BGLCNA   H61      HCA2     0.900000E-01   1.00800           0
     27314 LPSA25   17       BGLCNA   H62      HCA2     0.900000E-01   1.00800           0
     27315 LPSA25   17       BGLCNA   O6       OC311   -0.650000       15.9994           0
     27316 LPSA25   17       BGLCNA   HO6      HCP1     0.420000       1.00800           0
     27317 LPSA25   18       AGAL     C1       CC3162   0.290000       12.0110           0
     27318 LPSA25   18       AGAL     H1       HCA1     0.900000E-01   1.00800           0
     27319 LPSA25   18       AGAL     C5       CC3163   0.110000       12.0110           0
     27320 LPSA25   18       AGAL     H5       HCA1     0.900000E-01   1.00800           0
     27321 LPSA25   18       AGAL     O5       OC3C61  -0.400000       15.9994           0
     27322 LPSA25   18       AGAL     C2       CC3161   0.900000E-01   12.0110           0
     27323 LPSA25   18       AGAL     H2       HCA1     0.900000E-01   1.00800           0
     27324 LPSA25   18       AGAL     O2       OC301   -0.360000       15.9994           0
     27325 LPSA25   18       AGAL     C3       CC3161   0.140000       12.0110           0
     27326 LPSA25   18       AGAL     H3       HCA1     0.900000E-01   1.00800           0
     27327 LPSA25   18       AGAL     O3       OC311   -0.650000       15.9994           0
     27328 LPSA25   18       AGAL     HO3      HCP1     0.420000       1.00800           0
     27329 LPSA25   18       AGAL     C4       CC3161   0.140000       12.0110           0
     27330 LPSA25   18       AGAL     H4       HCA1     0.900000E-01   1.00800           0
     27331 LPSA25   18       AGAL     O4       OC311   -0.650000       15.9994           0
     27332 LPSA25   18       AGAL     HO4      HCP1     0.420000       1.00800           0
     27333 LPSA25   18       AGAL     C6       CC321    0.500000E-01   12.0110           0
     27334 LPSA25   18       AGAL     H61      HCA2     0.900000E-01   1.00800           0
     27335 LPSA25   18       AGAL     H62      HCA2     0.900000E-01   1.00800           0
     27336 LPSA25   18       AGAL     O6       OC311   -0.650000       15.9994           0
     27337 LPSA25   18       AGAL     HO6      HCP1     0.420000       1.00800           0
     27338 LPSA25   19       ARHM     C1       CC3162   0.290000       12.0110           0
     27339 LPSA25   19       ARHM     H1       HCA1     0.900000E-01   1.00800           0
     27340 LPSA25   19       ARHM     C5       CC3163   0.110000       12.0110           0
     27341 LPSA25   19       ARHM     H5       HCA1     0.900000E-01   1.00800           0
     27342 LPSA25   19       ARHM     O5       OC3C61  -0.400000       15.9994           0
     27343 LPSA25   19       ARHM     C2       CC3161   0.900000E-01   12.0110           0
     27344 LPSA25   19       ARHM     H2       HCA1     0.900000E-01   1.00800           0
     27345 LPSA25   19       ARHM     O2       OC301   -0.360000       15.9994           0
     27346 LPSA25   19       ARHM     C3       CC3161   0.140000       12.0110           0
     27347 LPSA25   19       ARHM     H3       HCA1     0.900000E-01   1.00800           0
     27348 LPSA25   19       ARHM     O3       OC311   -0.650000       15.9994           0
     27349 LPSA25   19       ARHM     HO3      HCP1     0.420000       1.00800           0
     27350 LPSA25   19       ARHM     C4       CC3161   0.140000       12.0110           0
     27351 LPSA25   19       ARHM     H4       HCA1     0.900000E-01   1.00800           0
     27352 LPSA25   19       ARHM     O4       OC311   -0.650000       15.9994           0
     27353 LPSA25   19       ARHM     HO4      HCP1     0.420000       1.00800           0
     27354 LPSA25   19       ARHM     C6       CC331   -0.270000       12.0110           0
     27355 LPSA25   19       ARHM     H61      HCA3     0.900000E-01   1.00800           0
     27356 LPSA25   19       ARHM     H62      HCA3     0.900000E-01   1.00800           0
     27357 LPSA25   19       ARHM     H63      HCA3     0.900000E-01   1.00800           0
     27358 LPSA25   20       ARHM     C1       CC3162   0.290000       12.0110           0
     27359 LPSA25   20       ARHM     H1       HCA1     0.900000E-01   1.00800           0
     27360 LPSA25   20       ARHM     C5       CC3163   0.110000       12.0110           0
     27361 LPSA25   20       ARHM     H5       HCA1     0.900000E-01   1.00800           0
     27362 LPSA25   20       ARHM     O5       OC3C61  -0.400000       15.9994           0
     27363 LPSA25   20       ARHM     C2       CC3161   0.900000E-01   12.0110           0
     27364 LPSA25   20       ARHM     H2       HCA1     0.900000E-01   1.00800           0
     27365 LPSA25   20       ARHM     O2       OC301   -0.360000       15.9994           0
     27366 LPSA25   20       ARHM     C3       CC3161   0.900000E-01   12.0110           0
     27367 LPSA25   20       ARHM     H3       HCA1     0.900000E-01   1.00800           0
     27368 LPSA25   20       ARHM     O3       OC301   -0.360000       15.9994           0
     27369 LPSA25   20       ARHM     C4       CC3161   0.140000       12.0110           0
     27370 LPSA25   20       ARHM     H4       HCA1     0.900000E-01   1.00800           0
     27371 LPSA25   20       ARHM     O4       OC311   -0.650000       15.9994           0
     27372 LPSA25   20       ARHM     HO4      HCP1     0.420000       1.00800           0
     27373 LPSA25   20       ARHM     C6       CC331   -0.270000       12.0110           0
     27374 LPSA25   20       ARHM     H61      HCA3     0.900000E-01   1.00800           0
     27375 LPSA25   20       ARHM     H62      HCA3     0.900000E-01   1.00800           0
     27376 LPSA25   20       ARHM     H63      HCA3     0.900000E-01   1.00800           0
     27377 LPSA25   21       BMANNA   C1       CC3162   0.290000       12.0110           0
     27378 LPSA25   21       BMANNA   H1       HCA1     0.900000E-01   1.00800           0
     27379 LPSA25   21       BMANNA   C5       CC3163   0.110000       12.0110           0
     27380 LPSA25   21       BMANNA   H5       HCA1     0.900000E-01   1.00800           0
     27381 LPSA25   21       BMANNA   O5       OC3C61  -0.400000       15.9994           0
     27382 LPSA25   21       BMANNA   C2       CC3161   0.700000E-01   12.0110           0
     27383 LPSA25   21       BMANNA   H2       HCA1     0.900000E-01   1.00800           0
     27384 LPSA25   21       BMANNA   N        NC2D1   -0.470000       14.0070           0
     27385 LPSA25   21       BMANNA   HN       HCP1     0.310000       1.00800           0
     27386 LPSA25   21       BMANNA   C        CC2O1    0.510000       12.0110           0
     27387 LPSA25   21       BMANNA   O        OC2D1   -0.510000       15.9994           0
     27388 LPSA25   21       BMANNA   CT       CC331   -0.270000       12.0110           0
     27389 LPSA25   21       BMANNA   HT1      HCA3     0.900000E-01   1.00800           0
     27390 LPSA25   21       BMANNA   HT2      HCA3     0.900000E-01   1.00800           0
     27391 LPSA25   21       BMANNA   HT3      HCA3     0.900000E-01   1.00800           0
     27392 LPSA25   21       BMANNA   C3       CC3161   0.140000       12.0110           0
     27393 LPSA25   21       BMANNA   H3       HCA1     0.900000E-01   1.00800           0
     27394 LPSA25   21       BMANNA   O3       OC311   -0.650000       15.9994           0
     27395 LPSA25   21       BMANNA   HO3      HCP1     0.420000       1.00800           0
     27396 LPSA25   21       BMANNA   C4       CC3161   0.140000       12.0110           0
     27397 LPSA25   21       BMANNA   H4       HCA1     0.900000E-01   1.00800           0
     27398 LPSA25   21       BMANNA   O4       OC311   -0.650000       15.9994           0
     27399 LPSA25   21       BMANNA   HO4      HCP1     0.420000       1.00800           0
     27400 LPSA25   21       BMANNA   C6       CC321    0.500000E-01   12.0110           0
     27401 LPSA25   21       BMANNA   H61      HCA2     0.900000E-01   1.00800           0
     27402 LPSA25   21       BMANNA   H62      HCA2     0.900000E-01   1.00800           0
     27403 LPSA25   21       BMANNA   O6       OC311   -0.650000       15.9994           0
     27404 LPSA25   21       BMANNA   HO6      HCP1     0.420000       1.00800           0
     27405 LPSA25   22       BGLCNA   C1       CC3162   0.290000       12.0110           0
     27406 LPSA25   22       BGLCNA   H1       HCA1     0.900000E-01   1.00800           0
     27407 LPSA25   22       BGLCNA   C5       CC3163   0.110000       12.0110           0
     27408 LPSA25   22       BGLCNA   H5       HCA1     0.900000E-01   1.00800           0
     27409 LPSA25   22       BGLCNA   O5       OC3C61  -0.400000       15.9994           0
     27410 LPSA25   22       BGLCNA   C2       CC3161   0.700000E-01   12.0110           0
     27411 LPSA25   22       BGLCNA   H2       HCA1     0.900000E-01   1.00800           0
     27412 LPSA25   22       BGLCNA   N        NC2D1   -0.470000       14.0070           0
     27413 LPSA25   22       BGLCNA   HN       HCP1     0.310000       1.00800           0
     27414 LPSA25   22       BGLCNA   C        CC2O1    0.510000       12.0110           0
     27415 LPSA25   22       BGLCNA   O        OC2D1   -0.510000       15.9994           0
     27416 LPSA25   22       BGLCNA   CT       CC331   -0.270000       12.0110           0
     27417 LPSA25   22       BGLCNA   HT1      HCA3     0.900000E-01   1.00800           0
     27418 LPSA25   22       BGLCNA   HT2      HCA3     0.900000E-01   1.00800           0
     27419 LPSA25   22       BGLCNA   HT3      HCA3     0.900000E-01   1.00800           0
     27420 LPSA25   22       BGLCNA   C3       CC3161   0.900000E-01   12.0110           0
     27421 LPSA25   22       BGLCNA   H3       HCA1     0.900000E-01   1.00800           0
     27422 LPSA25   22       BGLCNA   O3       OC301   -0.360000       15.9994           0
     27423 LPSA25   22       BGLCNA   C4       CC3161   0.140000       12.0110           0
     27424 LPSA25   22       BGLCNA   H4       HCA1     0.900000E-01   1.00800           0
     27425 LPSA25   22       BGLCNA   O4       OC311   -0.650000       15.9994           0
     27426 LPSA25   22       BGLCNA   HO4      HCP1     0.420000       1.00800           0
     27427 LPSA25   22       BGLCNA   C6       CC321    0.500000E-01   12.0110           0
     27428 LPSA25   22       BGLCNA   H61      HCA2     0.900000E-01   1.00800           0
     27429 LPSA25   22       BGLCNA   H62      HCA2     0.900000E-01   1.00800           0
     27430 LPSA25   22       BGLCNA   O6       OC311   -0.650000       15.9994           0
     27431 LPSA25   22       BGLCNA   HO6      HCP1     0.420000       1.00800           0
     27432 LPSA25   23       AGAL     C1       CC3162   0.290000       12.0110           0
     27433 LPSA25   23       AGAL     H1       HCA1     0.900000E-01   1.00800           0
     27434 LPSA25   23       AGAL     C5       CC3163   0.110000       12.0110           0
     27435 LPSA25   23       AGAL     H5       HCA1     0.900000E-01   1.00800           0
     27436 LPSA25   23       AGAL     O5       OC3C61  -0.400000       15.9994           0
     27437 LPSA25   23       AGAL     C2       CC3161   0.900000E-01   12.0110           0
     27438 LPSA25   23       AGAL     H2       HCA1     0.900000E-01   1.00800           0
     27439 LPSA25   23       AGAL     O2       OC301   -0.360000       15.9994           0
     27440 LPSA25   23       AGAL     C3       CC3161   0.140000       12.0110           0
     27441 LPSA25   23       AGAL     H3       HCA1     0.900000E-01   1.00800           0
     27442 LPSA25   23       AGAL     O3       OC311   -0.650000       15.9994           0
     27443 LPSA25   23       AGAL     HO3      HCP1     0.420000       1.00800           0
     27444 LPSA25   23       AGAL     C4       CC3161   0.140000       12.0110           0
     27445 LPSA25   23       AGAL     H4       HCA1     0.900000E-01   1.00800           0
     27446 LPSA25   23       AGAL     O4       OC311   -0.650000       15.9994           0
     27447 LPSA25   23       AGAL     HO4      HCP1     0.420000       1.00800           0
     27448 LPSA25   23       AGAL     C6       CC321    0.500000E-01   12.0110           0
     27449 LPSA25   23       AGAL     H61      HCA2     0.900000E-01   1.00800           0
     27450 LPSA25   23       AGAL     H62      HCA2     0.900000E-01   1.00800           0
     27451 LPSA25   23       AGAL     O6       OC311   -0.650000       15.9994           0
     27452 LPSA25   23       AGAL     HO6      HCP1     0.420000       1.00800           0
     27453 LPSA25   24       ARHM     C1       CC3162   0.290000       12.0110           0
     27454 LPSA25   24       ARHM     H1       HCA1     0.900000E-01   1.00800           0
     27455 LPSA25   24       ARHM     C5       CC3163   0.110000       12.0110           0
     27456 LPSA25   24       ARHM     H5       HCA1     0.900000E-01   1.00800           0
     27457 LPSA25   24       ARHM     O5       OC3C61  -0.400000       15.9994           0
     27458 LPSA25   24       ARHM     C2       CC3161   0.900000E-01   12.0110           0
     27459 LPSA25   24       ARHM     H2       HCA1     0.900000E-01   1.00800           0
     27460 LPSA25   24       ARHM     O2       OC301   -0.360000       15.9994           0
     27461 LPSA25   24       ARHM     C3       CC3161   0.140000       12.0110           0
     27462 LPSA25   24       ARHM     H3       HCA1     0.900000E-01   1.00800           0
     27463 LPSA25   24       ARHM     O3       OC311   -0.650000       15.9994           0
     27464 LPSA25   24       ARHM     HO3      HCP1     0.420000       1.00800           0
     27465 LPSA25   24       ARHM     C4       CC3161   0.140000       12.0110           0
     27466 LPSA25   24       ARHM     H4       HCA1     0.900000E-01   1.00800           0
     27467 LPSA25   24       ARHM     O4       OC311   -0.650000       15.9994           0
     27468 LPSA25   24       ARHM     HO4      HCP1     0.420000       1.00800           0
     27469 LPSA25   24       ARHM     C6       CC331   -0.270000       12.0110           0
     27470 LPSA25   24       ARHM     H61      HCA3     0.900000E-01   1.00800           0
     27471 LPSA25   24       ARHM     H62      HCA3     0.900000E-01   1.00800           0
     27472 LPSA25   24       ARHM     H63      HCA3     0.900000E-01   1.00800           0
     27473 LPSA25   25       ARHM     C1       CC3162   0.290000       12.0110           0
     27474 LPSA25   25       ARHM     H1       HCA1     0.900000E-01   1.00800           0
     27475 LPSA25   25       ARHM     C5       CC3163   0.110000       12.0110           0
     27476 LPSA25   25       ARHM     H5       HCA1     0.900000E-01   1.00800           0
     27477 LPSA25   25       ARHM     O5       OC3C61  -0.400000       15.9994           0
     27478 LPSA25   25       ARHM     C2       CC3161   0.900000E-01   12.0110           0
     27479 LPSA25   25       ARHM     H2       HCA1     0.900000E-01   1.00800           0
     27480 LPSA25   25       ARHM     O2       OC301   -0.360000       15.9994           0
     27481 LPSA25   25       ARHM     C3       CC3161   0.900000E-01   12.0110           0
     27482 LPSA25   25       ARHM     H3       HCA1     0.900000E-01   1.00800           0
     27483 LPSA25   25       ARHM     O3       OC301   -0.360000       15.9994           0
     27484 LPSA25   25       ARHM     C4       CC3161   0.140000       12.0110           0
     27485 LPSA25   25       ARHM     H4       HCA1     0.900000E-01   1.00800           0
     27486 LPSA25   25       ARHM     O4       OC311   -0.650000       15.9994           0
     27487 LPSA25   25       ARHM     HO4      HCP1     0.420000       1.00800           0
     27488 LPSA25   25       ARHM     C6       CC331   -0.270000       12.0110           0
     27489 LPSA25   25       ARHM     H61      HCA3     0.900000E-01   1.00800           0
     27490 LPSA25   25       ARHM     H62      HCA3     0.900000E-01   1.00800           0
     27491 LPSA25   25       ARHM     H63      HCA3     0.900000E-01   1.00800           0
     27492 LPSA25   26       BMANNA   C1       CC3162   0.290000       12.0110           0
     27493 LPSA25   26       BMANNA   H1       HCA1     0.900000E-01   1.00800           0
     27494 LPSA25   26       BMANNA   C5       CC3163   0.110000       12.0110           0
     27495 LPSA25   26       BMANNA   H5       HCA1     0.900000E-01   1.00800           0
     27496 LPSA25   26       BMANNA   O5       OC3C61  -0.400000       15.9994           0
     27497 LPSA25   26       BMANNA   C2       CC3161   0.700000E-01   12.0110           0
     27498 LPSA25   26       BMANNA   H2       HCA1     0.900000E-01   1.00800           0
     27499 LPSA25   26       BMANNA   N        NC2D1   -0.470000       14.0070           0
     27500 LPSA25   26       BMANNA   HN       HCP1     0.310000       1.00800           0
     27501 LPSA25   26       BMANNA   C        CC2O1    0.510000       12.0110           0
     27502 LPSA25   26       BMANNA   O        OC2D1   -0.510000       15.9994           0
     27503 LPSA25   26       BMANNA   CT       CC331   -0.270000       12.0110           0
     27504 LPSA25   26       BMANNA   HT1      HCA3     0.900000E-01   1.00800           0
     27505 LPSA25   26       BMANNA   HT2      HCA3     0.900000E-01   1.00800           0
     27506 LPSA25   26       BMANNA   HT3      HCA3     0.900000E-01   1.00800           0
     27507 LPSA25   26       BMANNA   C3       CC3161   0.140000       12.0110           0
     27508 LPSA25   26       BMANNA   H3       HCA1     0.900000E-01   1.00800           0
     27509 LPSA25   26       BMANNA   O3       OC311   -0.650000       15.9994           0
     27510 LPSA25   26       BMANNA   HO3      HCP1     0.420000       1.00800           0
     27511 LPSA25   26       BMANNA   C4       CC3161   0.140000       12.0110           0
     27512 LPSA25   26       BMANNA   H4       HCA1     0.900000E-01   1.00800           0
     27513 LPSA25   26       BMANNA   O4       OC311   -0.650000       15.9994           0
     27514 LPSA25   26       BMANNA   HO4      HCP1     0.420000       1.00800           0
     27515 LPSA25   26       BMANNA   C6       CC321    0.500000E-01   12.0110           0
     27516 LPSA25   26       BMANNA   H61      HCA2     0.900000E-01   1.00800           0
     27517 LPSA25   26       BMANNA   H62      HCA2     0.900000E-01   1.00800           0
     27518 LPSA25   26       BMANNA   O6       OC311   -0.650000       15.9994           0
     27519 LPSA25   26       BMANNA   HO6      HCP1     0.420000       1.00800           0
     27520 LPSA25   27       BGLCNA   C1       CC3162   0.290000       12.0110           0
     27521 LPSA25   27       BGLCNA   H1       HCA1     0.900000E-01   1.00800           0
     27522 LPSA25   27       BGLCNA   C5       CC3163   0.110000       12.0110           0
     27523 LPSA25   27       BGLCNA   H5       HCA1     0.900000E-01   1.00800           0
     27524 LPSA25   27       BGLCNA   O5       OC3C61  -0.400000       15.9994           0
     27525 LPSA25   27       BGLCNA   C2       CC3161   0.700000E-01   12.0110           0
     27526 LPSA25   27       BGLCNA   H2       HCA1     0.900000E-01   1.00800           0
     27527 LPSA25   27       BGLCNA   N        NC2D1   -0.470000       14.0070           0
     27528 LPSA25   27       BGLCNA   HN       HCP1     0.310000       1.00800           0
     27529 LPSA25   27       BGLCNA   C        CC2O1    0.510000       12.0110           0
     27530 LPSA25   27       BGLCNA   O        OC2D1   -0.510000       15.9994           0
     27531 LPSA25   27       BGLCNA   CT       CC331   -0.270000       12.0110           0
     27532 LPSA25   27       BGLCNA   HT1      HCA3     0.900000E-01   1.00800           0
     27533 LPSA25   27       BGLCNA   HT2      HCA3     0.900000E-01   1.00800           0
     27534 LPSA25   27       BGLCNA   HT3      HCA3     0.900000E-01   1.00800           0
     27535 LPSA25   27       BGLCNA   C3       CC3161   0.900000E-01   12.0110           0
     27536 LPSA25   27       BGLCNA   H3       HCA1     0.900000E-01   1.00800           0
     27537 LPSA25   27       BGLCNA   O3       OC301   -0.360000       15.9994           0
     27538 LPSA25   27       BGLCNA   C4       CC3161   0.140000       12.0110           0
     27539 LPSA25   27       BGLCNA   H4       HCA1     0.900000E-01   1.00800           0
     27540 LPSA25   27       BGLCNA   O4       OC311   -0.650000       15.9994           0
     27541 LPSA25   27       BGLCNA   HO4      HCP1     0.420000       1.00800           0
     27542 LPSA25   27       BGLCNA   C6       CC321    0.500000E-01   12.0110           0
     27543 LPSA25   27       BGLCNA   H61      HCA2     0.900000E-01   1.00800           0
     27544 LPSA25   27       BGLCNA   H62      HCA2     0.900000E-01   1.00800           0
     27545 LPSA25   27       BGLCNA   O6       OC311   -0.650000       15.9994           0
     27546 LPSA25   27       BGLCNA   HO6      HCP1     0.420000       1.00800           0
     27547 LPSA25   28       AGAL     C1       CC3162   0.290000       12.0110           0
     27548 LPSA25   28       AGAL     H1       HCA1     0.900000E-01   1.00800           0
     27549 LPSA25   28       AGAL     C5       CC3163   0.110000       12.0110           0
     27550 LPSA25   28       AGAL     H5       HCA1     0.900000E-01   1.00800           0
     27551 LPSA25   28       AGAL     O5       OC3C61  -0.400000       15.9994           0
     27552 LPSA25   28       AGAL     C2       CC3161   0.900000E-01   12.0110           0
     27553 LPSA25   28       AGAL     H2       HCA1     0.900000E-01   1.00800           0
     27554 LPSA25   28       AGAL     O2       OC301   -0.360000       15.9994           0
     27555 LPSA25   28       AGAL     C3       CC3161   0.140000       12.0110           0
     27556 LPSA25   28       AGAL     H3       HCA1     0.900000E-01   1.00800           0
     27557 LPSA25   28       AGAL     O3       OC311   -0.650000       15.9994           0
     27558 LPSA25   28       AGAL     HO3      HCP1     0.420000       1.00800           0
     27559 LPSA25   28       AGAL     C4       CC3161   0.140000       12.0110           0
     27560 LPSA25   28       AGAL     H4       HCA1     0.900000E-01   1.00800           0
     27561 LPSA25   28       AGAL     O4       OC311   -0.650000       15.9994           0
     27562 LPSA25   28       AGAL     HO4      HCP1     0.420000       1.00800           0
     27563 LPSA25   28       AGAL     C6       CC321    0.500000E-01   12.0110           0
     27564 LPSA25   28       AGAL     H61      HCA2     0.900000E-01   1.00800           0
     27565 LPSA25   28       AGAL     H62      HCA2     0.900000E-01   1.00800           0
     27566 LPSA25   28       AGAL     O6       OC311   -0.650000       15.9994           0
     27567 LPSA25   28       AGAL     HO6      HCP1     0.420000       1.00800           0
     27568 LPSA25   29       ARHM     C1       CC3162   0.290000       12.0110           0
     27569 LPSA25   29       ARHM     H1       HCA1     0.900000E-01   1.00800           0
     27570 LPSA25   29       ARHM     C5       CC3163   0.110000       12.0110           0
     27571 LPSA25   29       ARHM     H5       HCA1     0.900000E-01   1.00800           0
     27572 LPSA25   29       ARHM     O5       OC3C61  -0.400000       15.9994           0
     27573 LPSA25   29       ARHM     C2       CC3161   0.900000E-01   12.0110           0
     27574 LPSA25   29       ARHM     H2       HCA1     0.900000E-01   1.00800           0
     27575 LPSA25   29       ARHM     O2       OC301   -0.360000       15.9994           0
     27576 LPSA25   29       ARHM     C3       CC3161   0.140000       12.0110           0
     27577 LPSA25   29       ARHM     H3       HCA1     0.900000E-01   1.00800           0
     27578 LPSA25   29       ARHM     O3       OC311   -0.650000       15.9994           0
     27579 LPSA25   29       ARHM     HO3      HCP1     0.420000       1.00800           0
     27580 LPSA25   29       ARHM     C4       CC3161   0.140000       12.0110           0
     27581 LPSA25   29       ARHM     H4       HCA1     0.900000E-01   1.00800           0
     27582 LPSA25   29       ARHM     O4       OC311   -0.650000       15.9994           0
     27583 LPSA25   29       ARHM     HO4      HCP1     0.420000       1.00800           0
     27584 LPSA25   29       ARHM     C6       CC331   -0.270000       12.0110           0
     27585 LPSA25   29       ARHM     H61      HCA3     0.900000E-01   1.00800           0
     27586 LPSA25   29       ARHM     H62      HCA3     0.900000E-01   1.00800           0
     27587 LPSA25   29       ARHM     H63      HCA3     0.900000E-01   1.00800           0
     27588 LPSA25   30       ARHM     C1       CC3162   0.290000       12.0110           0
     27589 LPSA25   30       ARHM     H1       HCA1     0.900000E-01   1.00800           0
     27590 LPSA25   30       ARHM     C5       CC3163   0.110000       12.0110           0
     27591 LPSA25   30       ARHM     H5       HCA1     0.900000E-01   1.00800           0
     27592 LPSA25   30       ARHM     O5       OC3C61  -0.400000       15.9994           0
     27593 LPSA25   30       ARHM     C2       CC3161   0.900000E-01   12.0110           0
     27594 LPSA25   30       ARHM     H2       HCA1     0.900000E-01   1.00800           0
     27595 LPSA25   30       ARHM     O2       OC301   -0.360000       15.9994           0
     27596 LPSA25   30       ARHM     C3       CC3161   0.900000E-01   12.0110           0
     27597 LPSA25   30       ARHM     H3       HCA1     0.900000E-01   1.00800           0
     27598 LPSA25   30       ARHM     O3       OC301   -0.360000       15.9994           0
     27599 LPSA25   30       ARHM     C4       CC3161   0.140000       12.0110           0
     27600 LPSA25   30       ARHM     H4       HCA1     0.900000E-01   1.00800           0
     27601 LPSA25   30       ARHM     O4       OC311   -0.650000       15.9994           0
     27602 LPSA25   30       ARHM     HO4      HCP1     0.420000       1.00800           0
     27603 LPSA25   30       ARHM     C6       CC331   -0.270000       12.0110           0
     27604 LPSA25   30       ARHM     H61      HCA3     0.900000E-01   1.00800           0
     27605 LPSA25   30       ARHM     H62      HCA3     0.900000E-01   1.00800           0
     27606 LPSA25   30       ARHM     H63      HCA3     0.900000E-01   1.00800           0
     27607 LPSA25   31       BMANNA   C1       CC3162   0.290000       12.0110           0
     27608 LPSA25   31       BMANNA   H1       HCA1     0.900000E-01   1.00800           0
     27609 LPSA25   31       BMANNA   C5       CC3163   0.110000       12.0110           0
     27610 LPSA25   31       BMANNA   H5       HCA1     0.900000E-01   1.00800           0
     27611 LPSA25   31       BMANNA   O5       OC3C61  -0.400000       15.9994           0
     27612 LPSA25   31       BMANNA   C2       CC3161   0.700000E-01   12.0110           0
     27613 LPSA25   31       BMANNA   H2       HCA1     0.900000E-01   1.00800           0
     27614 LPSA25   31       BMANNA   N        NC2D1   -0.470000       14.0070           0
     27615 LPSA25   31       BMANNA   HN       HCP1     0.310000       1.00800           0
     27616 LPSA25   31       BMANNA   C        CC2O1    0.510000       12.0110           0
     27617 LPSA25   31       BMANNA   O        OC2D1   -0.510000       15.9994           0
     27618 LPSA25   31       BMANNA   CT       CC331   -0.270000       12.0110           0
     27619 LPSA25   31       BMANNA   HT1      HCA3     0.900000E-01   1.00800           0
     27620 LPSA25   31       BMANNA   HT2      HCA3     0.900000E-01   1.00800           0
     27621 LPSA25   31       BMANNA   HT3      HCA3     0.900000E-01   1.00800           0
     27622 LPSA25   31       BMANNA   C3       CC3161   0.140000       12.0110           0
     27623 LPSA25   31       BMANNA   H3       HCA1     0.900000E-01   1.00800           0
     27624 LPSA25   31       BMANNA   O3       OC311   -0.650000       15.9994           0
     27625 LPSA25   31       BMANNA   HO3      HCP1     0.420000       1.00800           0
     27626 LPSA25   31       BMANNA   C4       CC3161   0.140000       12.0110           0
     27627 LPSA25   31       BMANNA   H4       HCA1     0.900000E-01   1.00800           0
     27628 LPSA25   31       BMANNA   O4       OC311   -0.650000       15.9994           0
     27629 LPSA25   31       BMANNA   HO4      HCP1     0.420000       1.00800           0
     27630 LPSA25   31       BMANNA   C6       CC321    0.500000E-01   12.0110           0
     27631 LPSA25   31       BMANNA   H61      HCA2     0.900000E-01   1.00800           0
     27632 LPSA25   31       BMANNA   H62      HCA2     0.900000E-01   1.00800           0
     27633 LPSA25   31       BMANNA   O6       OC311   -0.650000       15.9994           0
     27634 LPSA25   31       BMANNA   HO6      HCP1     0.420000       1.00800           0
     27635 LPSA25   32       BGLCNA   C1       CC3162   0.290000       12.0110           0
     27636 LPSA25   32       BGLCNA   H1       HCA1     0.900000E-01   1.00800           0
     27637 LPSA25   32       BGLCNA   C5       CC3163   0.110000       12.0110           0
     27638 LPSA25   32       BGLCNA   H5       HCA1     0.900000E-01   1.00800           0
     27639 LPSA25   32       BGLCNA   O5       OC3C61  -0.400000       15.9994           0
     27640 LPSA25   32       BGLCNA   C2       CC3161   0.700000E-01   12.0110           0
     27641 LPSA25   32       BGLCNA   H2       HCA1     0.900000E-01   1.00800           0
     27642 LPSA25   32       BGLCNA   N        NC2D1   -0.470000       14.0070           0
     27643 LPSA25   32       BGLCNA   HN       HCP1     0.310000       1.00800           0
     27644 LPSA25   32       BGLCNA   C        CC2O1    0.510000       12.0110           0
     27645 LPSA25   32       BGLCNA   O        OC2D1   -0.510000       15.9994           0
     27646 LPSA25   32       BGLCNA   CT       CC331   -0.270000       12.0110           0
     27647 LPSA25   32       BGLCNA   HT1      HCA3     0.900000E-01   1.00800           0
     27648 LPSA25   32       BGLCNA   HT2      HCA3     0.900000E-01   1.00800           0
     27649 LPSA25   32       BGLCNA   HT3      HCA3     0.900000E-01   1.00800           0
     27650 LPSA25   32       BGLCNA   C3       CC3161   0.900000E-01   12.0110           0
     27651 LPSA25   32       BGLCNA   H3       HCA1     0.900000E-01   1.00800           0
     27652 LPSA25   32       BGLCNA   O3       OC301   -0.360000       15.9994           0
     27653 LPSA25   32       BGLCNA   C4       CC3161   0.140000       12.0110           0
     27654 LPSA25   32       BGLCNA   H4       HCA1     0.900000E-01   1.00800           0
     27655 LPSA25   32       BGLCNA   O4       OC311   -0.650000       15.9994           0
     27656 LPSA25   32       BGLCNA   HO4      HCP1     0.420000       1.00800           0
     27657 LPSA25   32       BGLCNA   C6       CC321    0.500000E-01   12.0110           0
     27658 LPSA25   32       BGLCNA   H61      HCA2     0.900000E-01   1.00800           0
     27659 LPSA25   32       BGLCNA   H62      HCA2     0.900000E-01   1.00800           0
     27660 LPSA25   32       BGLCNA   O6       OC311   -0.650000       15.9994           0
     27661 LPSA25   32       BGLCNA   HO6      HCP1     0.420000       1.00800           0
     27662 LPSA25   33       AGAL     C1       CC3162   0.290000       12.0110           0
     27663 LPSA25   33       AGAL     H1       HCA1     0.900000E-01   1.00800           0
     27664 LPSA25   33       AGAL     C5       CC3163   0.110000       12.0110           0
     27665 LPSA25   33       AGAL     H5       HCA1     0.900000E-01   1.00800           0
     27666 LPSA25   33       AGAL     O5       OC3C61  -0.400000       15.9994           0
     27667 LPSA25   33       AGAL     C2       CC3161   0.900000E-01   12.0110           0
     27668 LPSA25   33       AGAL     H2       HCA1     0.900000E-01   1.00800           0
     27669 LPSA25   33       AGAL     O2       OC301   -0.360000       15.9994           0
     27670 LPSA25   33       AGAL     C3       CC3161   0.140000       12.0110           0
     27671 LPSA25   33       AGAL     H3       HCA1     0.900000E-01   1.00800           0
     27672 LPSA25   33       AGAL     O3       OC311   -0.650000       15.9994           0
     27673 LPSA25   33       AGAL     HO3      HCP1     0.420000       1.00800           0
     27674 LPSA25   33       AGAL     C4       CC3161   0.140000       12.0110           0
     27675 LPSA25   33       AGAL     H4       HCA1     0.900000E-01   1.00800           0
     27676 LPSA25   33       AGAL     O4       OC311   -0.650000       15.9994           0
     27677 LPSA25   33       AGAL     HO4      HCP1     0.420000       1.00800           0
     27678 LPSA25   33       AGAL     C6       CC321    0.500000E-01   12.0110           0
     27679 LPSA25   33       AGAL     H61      HCA2     0.900000E-01   1.00800           0
     27680 LPSA25   33       AGAL     H62      HCA2     0.900000E-01   1.00800           0
     27681 LPSA25   33       AGAL     O6       OC311   -0.650000       15.9994           0
     27682 LPSA25   33       AGAL     HO6      HCP1     0.420000       1.00800           0
     27683 LPSA25   34       ARHM     C1       CC3162   0.290000       12.0110           0
     27684 LPSA25   34       ARHM     H1       HCA1     0.900000E-01   1.00800           0
     27685 LPSA25   34       ARHM     C5       CC3163   0.110000       12.0110           0
     27686 LPSA25   34       ARHM     H5       HCA1     0.900000E-01   1.00800           0
     27687 LPSA25   34       ARHM     O5       OC3C61  -0.400000       15.9994           0
     27688 LPSA25   34       ARHM     C2       CC3161   0.900000E-01   12.0110           0
     27689 LPSA25   34       ARHM     H2       HCA1     0.900000E-01   1.00800           0
     27690 LPSA25   34       ARHM     O2       OC301   -0.360000       15.9994           0
     27691 LPSA25   34       ARHM     C3       CC3161   0.140000       12.0110           0
     27692 LPSA25   34       ARHM     H3       HCA1     0.900000E-01   1.00800           0
     27693 LPSA25   34       ARHM     O3       OC311   -0.650000       15.9994           0
     27694 LPSA25   34       ARHM     HO3      HCP1     0.420000       1.00800           0
     27695 LPSA25   34       ARHM     C4       CC3161   0.140000       12.0110           0
     27696 LPSA25   34       ARHM     H4       HCA1     0.900000E-01   1.00800           0
     27697 LPSA25   34       ARHM     O4       OC311   -0.650000       15.9994           0
     27698 LPSA25   34       ARHM     HO4      HCP1     0.420000       1.00800           0
     27699 LPSA25   34       ARHM     C6       CC331   -0.270000       12.0110           0
     27700 LPSA25   34       ARHM     H61      HCA3     0.900000E-01   1.00800           0
     27701 LPSA25   34       ARHM     H62      HCA3     0.900000E-01   1.00800           0
     27702 LPSA25   34       ARHM     H63      HCA3     0.900000E-01   1.00800           0
     27703 LPSA25   35       ARHM     C1       CC3162   0.290000       12.0110           0
     27704 LPSA25   35       ARHM     H1       HCA1     0.900000E-01   1.00800           0
     27705 LPSA25   35       ARHM     C5       CC3163   0.110000       12.0110           0
     27706 LPSA25   35       ARHM     H5       HCA1     0.900000E-01   1.00800           0
     27707 LPSA25   35       ARHM     O5       OC3C61  -0.400000       15.9994           0
     27708 LPSA25   35       ARHM     C2       CC3161   0.900000E-01   12.0110           0
     27709 LPSA25   35       ARHM     H2       HCA1     0.900000E-01   1.00800           0
     27710 LPSA25   35       ARHM     O2       OC301   -0.360000       15.9994           0
     27711 LPSA25   35       ARHM     C3       CC3161   0.140000       12.0110           0
     27712 LPSA25   35       ARHM     H3       HCA1     0.900000E-01   1.00800           0
     27713 LPSA25   35       ARHM     O3       OC311   -0.650000       15.9994           0
     27714 LPSA25   35       ARHM     HO3      HCP1     0.420000       1.00800           0
     27715 LPSA25   35       ARHM     C4       CC3161   0.140000       12.0110           0
     27716 LPSA25   35       ARHM     H4       HCA1     0.900000E-01   1.00800           0
     27717 LPSA25   35       ARHM     O4       OC311   -0.650000       15.9994           0
     27718 LPSA25   35       ARHM     HO4      HCP1     0.420000       1.00800           0
     27719 LPSA25   35       ARHM     C6       CC331   -0.270000       12.0110           0
     27720 LPSA25   35       ARHM     H61      HCA3     0.900000E-01   1.00800           0
     27721 LPSA25   35       ARHM     H62      HCA3     0.900000E-01   1.00800           0
     27722 LPSA25   35       ARHM     H63      HCA3     0.900000E-01   1.00800           0
     27723 LPSA25   36       BMANNA   C1       CC3162   0.290000       12.0110           0
     27724 LPSA25   36       BMANNA   H1       HCA1     0.900000E-01   1.00800           0
     27725 LPSA25   36       BMANNA   C5       CC3163   0.110000       12.0110           0
     27726 LPSA25   36       BMANNA   H5       HCA1     0.900000E-01   1.00800           0
     27727 LPSA25   36       BMANNA   O5       OC3C61  -0.400000       15.9994           0
     27728 LPSA25   36       BMANNA   C2       CC3161   0.700000E-01   12.0110           0
     27729 LPSA25   36       BMANNA   H2       HCA1     0.900000E-01   1.00800           0
     27730 LPSA25   36       BMANNA   N        NC2D1   -0.470000       14.0070           0
     27731 LPSA25   36       BMANNA   HN       HCP1     0.310000       1.00800           0
     27732 LPSA25   36       BMANNA   C        CC2O1    0.510000       12.0110           0
     27733 LPSA25   36       BMANNA   O        OC2D1   -0.510000       15.9994           0
     27734 LPSA25   36       BMANNA   CT       CC331   -0.270000       12.0110           0
     27735 LPSA25   36       BMANNA   HT1      HCA3     0.900000E-01   1.00800           0
     27736 LPSA25   36       BMANNA   HT2      HCA3     0.900000E-01   1.00800           0
     27737 LPSA25   36       BMANNA   HT3      HCA3     0.900000E-01   1.00800           0
     27738 LPSA25   36       BMANNA   C3       CC3161   0.140000       12.0110           0
     27739 LPSA25   36       BMANNA   H3       HCA1     0.900000E-01   1.00800           0
     27740 LPSA25   36       BMANNA   O3       OC311   -0.650000       15.9994           0
     27741 LPSA25   36       BMANNA   HO3      HCP1     0.420000       1.00800           0
     27742 LPSA25   36       BMANNA   C4       CC3161   0.140000       12.0110           0
     27743 LPSA25   36       BMANNA   H4       HCA1     0.900000E-01   1.00800           0
     27744 LPSA25   36       BMANNA   O4       OC311   -0.650000       15.9994           0
     27745 LPSA25   36       BMANNA   HO4      HCP1     0.420000       1.00800           0
     27746 LPSA25   36       BMANNA   C6       CC321    0.500000E-01   12.0110           0
     27747 LPSA25   36       BMANNA   H61      HCA2     0.900000E-01   1.00800           0
     27748 LPSA25   36       BMANNA   H62      HCA2     0.900000E-01   1.00800           0
     27749 LPSA25   36       BMANNA   O6       OC311   -0.650000       15.9994           0
     27750 LPSA25   36       BMANNA   HO6      HCP1     0.420000       1.00800           0
     27751 LPSA26   1        ECLIPA   HB6S     HCA2     0.900000E-01   1.00800           0
     27752 LPSA26   1        ECLIPA   OB6      OC301   -0.360000       15.9994           0
     27753 LPSA26   1        ECLIPA   CB6      CC321     0.00000       12.0110           0
     27754 LPSA26   1        ECLIPA   HB6R     HCA2     0.900000E-01   1.00800           0
     27755 LPSA26   1        ECLIPA   CB5      CC3163   0.110000       12.0110           0
     27756 LPSA26   1        ECLIPA   OB5      OC3C61  -0.400000       15.9994           0
     27757 LPSA26   1        ECLIPA   HB5      HCA1     0.900000E-01   1.00800           0
     27758 LPSA26   1        ECLIPA   CB1      CC3162   0.290000       12.0110           0
     27759 LPSA26   1        ECLIPA   HB1      HCA1     0.900000E-01   1.00800           0
     27760 LPSA26   1        ECLIPA   OA6      OC301   -0.360000       15.9994           0
     27761 LPSA26   1        ECLIPA   CA6      CC321     0.00000       12.0110           0
     27762 LPSA26   1        ECLIPA   HA6R     HCA2     0.900000E-01   1.00800           0
     27763 LPSA26   1        ECLIPA   HA6S     HCA2     0.900000E-01   1.00800           0
     27764 LPSA26   1        ECLIPA   CB4      CC3161  -0.900000E-01   12.0110           0
     27765 LPSA26   1        ECLIPA   HB4      HCA1     0.900000E-01   1.00800           0
     27766 LPSA26   1        ECLIPA   OB4      OC30P   -0.400000       15.9994           0
     27767 LPSA26   1        ECLIPA   PB       PC        1.10000       30.9740           0
     27768 LPSA26   1        ECLIPA   OPB4     OC2DP   -0.900000       15.9994           0
     27769 LPSA26   1        ECLIPA   OPB3     OC2DP   -0.900000       15.9994           0
     27770 LPSA26   1        ECLIPA   OPB2     OC2DP   -0.900000       15.9994           0
     27771 LPSA26   1        ECLIPA   CB3      CC3161   0.170000       12.0110           0
     27772 LPSA26   1        ECLIPA   OB3      OC301   -0.490000       15.9994           0
     27773 LPSA26   1        ECLIPA   HB3      HCA1     0.900000E-01   1.00800           0
     27774 LPSA26   1        ECLIPA   C71      CL       0.900000       12.0110           0
     27775 LPSA26   1        ECLIPA   O71      OBL     -0.630000       15.9994           0
     27776 LPSA26   1        ECLIPA   C72      CTL2    -0.220000       12.0110           0
     27777 LPSA26   1        ECLIPA   H72R     HAL2     0.900000E-01   1.00800           0
     27778 LPSA26   1        ECLIPA   H72S     HAL2     0.900000E-01   1.00800           0
     27779 LPSA26   1        ECLIPA   CB2      CC3161   0.700000E-01   12.0110           0
     27780 LPSA26   1        ECLIPA   HB2      HCA1     0.900000E-01   1.00800           0
     27781 LPSA26   1        ECLIPA   NB2      NC2D1   -0.470000       14.0070           0
     27782 LPSA26   1        ECLIPA   HNB2     HCP1     0.310000       1.00800           0
     27783 LPSA26   1        ECLIPA   CA4      CC3161   0.140000       12.0110           0
     27784 LPSA26   1        ECLIPA   HA4      HCA1     0.900000E-01   1.00800           0
     27785 LPSA26   1        ECLIPA   OA4      OC311   -0.650000       15.9994           0
     27786 LPSA26   1        ECLIPA   HOA4     HCP1     0.420000       1.00800           0
     27787 LPSA26   1        ECLIPA   CA5      CC3163   0.110000       12.0110           0
     27788 LPSA26   1        ECLIPA   HA5      HCA1     0.900000E-01   1.00800           0
     27789 LPSA26   1        ECLIPA   OA5      OC3C61  -0.400000       15.9994           0
     27790 LPSA26   1        ECLIPA   CA1      CC3162   0.110000       12.0110           0
     27791 LPSA26   1        ECLIPA   HA1      HCA1     0.900000E-01   1.00800           0
     27792 LPSA26   1        ECLIPA   OA1      OC30P   -0.400000       15.9994           0
     27793 LPSA26   1        ECLIPA   OPA2     OC2DP   -0.900000       15.9994           0
     27794 LPSA26   1        ECLIPA   OPA3     OC2DP   -0.900000       15.9994           0
     27795 LPSA26   1        ECLIPA   OPA4     OC2DP   -0.900000       15.9994           0
     27796 LPSA26   1        ECLIPA   PA       PC        1.10000       30.9740           0
     27797 LPSA26   1        ECLIPA   CA3      CC3161   0.170000       12.0110           0
     27798 LPSA26   1        ECLIPA   HA3      HCA1     0.900000E-01   1.00800           0
     27799 LPSA26   1        ECLIPA   OA3      OC301   -0.490000       15.9994           0
     27800 LPSA26   1        ECLIPA   C31      CL       0.900000       12.0110           0
     27801 LPSA26   1        ECLIPA   O31      OBL     -0.630000       15.9994           0
     27802 LPSA26   1        ECLIPA   C32      CTL2    -0.220000       12.0110           0
     27803 LPSA26   1        ECLIPA   H32R     HAL2     0.900000E-01   1.00800           0
     27804 LPSA26   1        ECLIPA   H32S     HAL2     0.900000E-01   1.00800           0
     27805 LPSA26   1        ECLIPA   CA2      CC3161   0.700000E-01   12.0110           0
     27806 LPSA26   1        ECLIPA   HA2      HCA1     0.900000E-01   1.00800           0
     27807 LPSA26   1        ECLIPA   NA2      NC2D1   -0.470000       14.0070           0
     27808 LPSA26   1        ECLIPA   HNA2     HCP1     0.310000       1.00800           0
     27809 LPSA26   1        ECLIPA   C73      CTL1     0.170000       12.0110           0
     27810 LPSA26   1        ECLIPA   H73R     HAL1     0.900000E-01   1.00800           0
     27811 LPSA26   1        ECLIPA   O73      OSL     -0.490000       15.9994           0
     27812 LPSA26   1        ECLIPA   C81      CL       0.900000       12.0110           0
     27813 LPSA26   1        ECLIPA   O81      OBL     -0.630000       15.9994           0
     27814 LPSA26   1        ECLIPA   C82      CTL2    -0.220000       12.0110           0
     27815 LPSA26   1        ECLIPA   H82R     HAL2     0.900000E-01   1.00800           0
     27816 LPSA26   1        ECLIPA   H82S     HAL2     0.900000E-01   1.00800           0
     27817 LPSA26   1        ECLIPA   C83      CTL2    -0.180000       12.0110           0
     27818 LPSA26   1        ECLIPA   H83R     HAL2     0.900000E-01   1.00800           0
     27819 LPSA26   1        ECLIPA   H83S     HAL2     0.900000E-01   1.00800           0
     27820 LPSA26   1        ECLIPA   C84      CTL2    -0.180000       12.0110           0
     27821 LPSA26   1        ECLIPA   H84R     HAL2     0.900000E-01   1.00800           0
     27822 LPSA26   1        ECLIPA   H84S     HAL2     0.900000E-01   1.00800           0
     27823 LPSA26   1        ECLIPA   C85      CTL2    -0.180000       12.0110           0
     27824 LPSA26   1        ECLIPA   H85R     HAL2     0.900000E-01   1.00800           0
     27825 LPSA26   1        ECLIPA   H85S     HAL2     0.900000E-01   1.00800           0
     27826 LPSA26   1        ECLIPA   C86      CTL2    -0.180000       12.0110           0
     27827 LPSA26   1        ECLIPA   H86R     HAL2     0.900000E-01   1.00800           0
     27828 LPSA26   1        ECLIPA   H86S     HAL2     0.900000E-01   1.00800           0
     27829 LPSA26   1        ECLIPA   C87      CTL2    -0.180000       12.0110           0
     27830 LPSA26   1        ECLIPA   H87R     HAL2     0.900000E-01   1.00800           0
     27831 LPSA26   1        ECLIPA   H87S     HAL2     0.900000E-01   1.00800           0
     27832 LPSA26   1        ECLIPA   C88      CTL2    -0.180000       12.0110           0
     27833 LPSA26   1        ECLIPA   H88R     HAL2     0.900000E-01   1.00800           0
     27834 LPSA26   1        ECLIPA   H88S     HAL2     0.900000E-01   1.00800           0
     27835 LPSA26   1        ECLIPA   C89      CTL2    -0.180000       12.0110           0
     27836 LPSA26   1        ECLIPA   H89R     HAL2     0.900000E-01   1.00800           0
     27837 LPSA26   1        ECLIPA   H89S     HAL2     0.900000E-01   1.00800           0
     27838 LPSA26   1        ECLIPA   C810     CTL2    -0.180000       12.0110           0
     27839 LPSA26   1        ECLIPA   H810R    HAL2     0.900000E-01   1.00800           0
     27840 LPSA26   1        ECLIPA   H810S    HAL2     0.900000E-01   1.00800           0
     27841 LPSA26   1        ECLIPA   C811     CTL2    -0.180000       12.0110           0
     27842 LPSA26   1        ECLIPA   H811R    HAL2     0.900000E-01   1.00800           0
     27843 LPSA26   1        ECLIPA   H811S    HAL2     0.900000E-01   1.00800           0
     27844 LPSA26   1        ECLIPA   C812     CTL2    -0.180000       12.0110           0
     27845 LPSA26   1        ECLIPA   H812R    HAL2     0.900000E-01   1.00800           0
     27846 LPSA26   1        ECLIPA   H812S    HAL2     0.900000E-01   1.00800           0
     27847 LPSA26   1        ECLIPA   C813     CTL2    -0.180000       12.0110           0
     27848 LPSA26   1        ECLIPA   H813R    HAL2     0.900000E-01   1.00800           0
     27849 LPSA26   1        ECLIPA   H813S    HAL2     0.900000E-01   1.00800           0
     27850 LPSA26   1        ECLIPA   C814     CTL3    -0.270000       12.0110           0
     27851 LPSA26   1        ECLIPA   H814R    HAL3     0.900000E-01   1.00800           0
     27852 LPSA26   1        ECLIPA   H814S    HAL3     0.900000E-01   1.00800           0
     27853 LPSA26   1        ECLIPA   H814T    HAL3     0.900000E-01   1.00800           0
     27854 LPSA26   1        ECLIPA   C74      CTL2    -0.180000       12.0110           0
     27855 LPSA26   1        ECLIPA   H74R     HAL2     0.900000E-01   1.00800           0
     27856 LPSA26   1        ECLIPA   H74S     HAL2     0.900000E-01   1.00800           0
     27857 LPSA26   1        ECLIPA   C75      CTL2    -0.180000       12.0110           0
     27858 LPSA26   1        ECLIPA   H75R     HAL2     0.900000E-01   1.00800           0
     27859 LPSA26   1        ECLIPA   H75S     HAL2     0.900000E-01   1.00800           0
     27860 LPSA26   1        ECLIPA   C76      CTL2    -0.180000       12.0110           0
     27861 LPSA26   1        ECLIPA   H76R     HAL2     0.900000E-01   1.00800           0
     27862 LPSA26   1        ECLIPA   H76S     HAL2     0.900000E-01   1.00800           0
     27863 LPSA26   1        ECLIPA   C77      CTL2    -0.180000       12.0110           0
     27864 LPSA26   1        ECLIPA   H77R     HAL2     0.900000E-01   1.00800           0
     27865 LPSA26   1        ECLIPA   H77S     HAL2     0.900000E-01   1.00800           0
     27866 LPSA26   1        ECLIPA   C78      CTL2    -0.180000       12.0110           0
     27867 LPSA26   1        ECLIPA   H78R     HAL2     0.900000E-01   1.00800           0
     27868 LPSA26   1        ECLIPA   H78S     HAL2     0.900000E-01   1.00800           0
     27869 LPSA26   1        ECLIPA   C79      CTL2    -0.180000       12.0110           0
     27870 LPSA26   1        ECLIPA   H79R     HAL2     0.900000E-01   1.00800           0
     27871 LPSA26   1        ECLIPA   H79S     HAL2     0.900000E-01   1.00800           0
     27872 LPSA26   1        ECLIPA   C710     CTL2    -0.180000       12.0110           0
     27873 LPSA26   1        ECLIPA   H710R    HAL2     0.900000E-01   1.00800           0
     27874 LPSA26   1        ECLIPA   H710S    HAL2     0.900000E-01   1.00800           0
     27875 LPSA26   1        ECLIPA   C711     CTL2    -0.180000       12.0110           0
     27876 LPSA26   1        ECLIPA   H711R    HAL2     0.900000E-01   1.00800           0
     27877 LPSA26   1        ECLIPA   H711S    HAL2     0.900000E-01   1.00800           0
     27878 LPSA26   1        ECLIPA   C712     CTL2    -0.180000       12.0110           0
     27879 LPSA26   1        ECLIPA   H712R    HAL2     0.900000E-01   1.00800           0
     27880 LPSA26   1        ECLIPA   H712S    HAL2     0.900000E-01   1.00800           0
     27881 LPSA26   1        ECLIPA   C713     CTL2    -0.180000       12.0110           0
     27882 LPSA26   1        ECLIPA   H713R    HAL2     0.900000E-01   1.00800           0
     27883 LPSA26   1        ECLIPA   H713S    HAL2     0.900000E-01   1.00800           0
     27884 LPSA26   1        ECLIPA   C714     CTL3    -0.270000       12.0110           0
     27885 LPSA26   1        ECLIPA   H714R    HAL3     0.900000E-01   1.00800           0
     27886 LPSA26   1        ECLIPA   H714S    HAL3     0.900000E-01   1.00800           0
     27887 LPSA26   1        ECLIPA   H714T    HAL3     0.900000E-01   1.00800           0
     27888 LPSA26   1        ECLIPA   C51      CC2O1    0.550000       12.0110           0
     27889 LPSA26   1        ECLIPA   O51      OC2D1   -0.550000       15.9994           0
     27890 LPSA26   1        ECLIPA   C52      CTL2    -0.180000       12.0110           0
     27891 LPSA26   1        ECLIPA   H52R     HAL2     0.900000E-01   1.00800           0
     27892 LPSA26   1        ECLIPA   H52S     HAL2     0.900000E-01   1.00800           0
     27893 LPSA26   1        ECLIPA   C53      CTL1     0.170000       12.0110           0
     27894 LPSA26   1        ECLIPA   H53R     HAL1     0.900000E-01   1.00800           0
     27895 LPSA26   1        ECLIPA   O53      OSL     -0.490000       15.9994           0
     27896 LPSA26   1        ECLIPA   C61      CL       0.900000       12.0110           0
     27897 LPSA26   1        ECLIPA   O61      OBL     -0.630000       15.9994           0
     27898 LPSA26   1        ECLIPA   C62      CTL2    -0.220000       12.0110           0
     27899 LPSA26   1        ECLIPA   H62R     HAL2     0.900000E-01   1.00800           0
     27900 LPSA26   1        ECLIPA   H62S     HAL2     0.900000E-01   1.00800           0
     27901 LPSA26   1        ECLIPA   C63      CTL2    -0.180000       12.0110           0
     27902 LPSA26   1        ECLIPA   H63R     HAL2     0.900000E-01   1.00800           0
     27903 LPSA26   1        ECLIPA   H63S     HAL2     0.900000E-01   1.00800           0
     27904 LPSA26   1        ECLIPA   C64      CTL2    -0.180000       12.0110           0
     27905 LPSA26   1        ECLIPA   H64R     HAL2     0.900000E-01   1.00800           0
     27906 LPSA26   1        ECLIPA   H64S     HAL2     0.900000E-01   1.00800           0
     27907 LPSA26   1        ECLIPA   C65      CTL2    -0.180000       12.0110           0
     27908 LPSA26   1        ECLIPA   H65R     HAL2     0.900000E-01   1.00800           0
     27909 LPSA26   1        ECLIPA   H65S     HAL2     0.900000E-01   1.00800           0
     27910 LPSA26   1        ECLIPA   C66      CTL2    -0.180000       12.0110           0
     27911 LPSA26   1        ECLIPA   H66R     HAL2     0.900000E-01   1.00800           0
     27912 LPSA26   1        ECLIPA   H66S     HAL2     0.900000E-01   1.00800           0
     27913 LPSA26   1        ECLIPA   C67      CTL2    -0.180000       12.0110           0
     27914 LPSA26   1        ECLIPA   H67R     HAL2     0.900000E-01   1.00800           0
     27915 LPSA26   1        ECLIPA   H67S     HAL2     0.900000E-01   1.00800           0
     27916 LPSA26   1        ECLIPA   C68      CTL2    -0.180000       12.0110           0
     27917 LPSA26   1        ECLIPA   H68R     HAL2     0.900000E-01   1.00800           0
     27918 LPSA26   1        ECLIPA   H68S     HAL2     0.900000E-01   1.00800           0
     27919 LPSA26   1        ECLIPA   C69      CTL2    -0.180000       12.0110           0
     27920 LPSA26   1        ECLIPA   H69R     HAL2     0.900000E-01   1.00800           0
     27921 LPSA26   1        ECLIPA   H69S     HAL2     0.900000E-01   1.00800           0
     27922 LPSA26   1        ECLIPA   C610     CTL2    -0.180000       12.0110           0
     27923 LPSA26   1        ECLIPA   H610R    HAL2     0.900000E-01   1.00800           0
     27924 LPSA26   1        ECLIPA   H610S    HAL2     0.900000E-01   1.00800           0
     27925 LPSA26   1        ECLIPA   C611     CTL2    -0.180000       12.0110           0
     27926 LPSA26   1        ECLIPA   H611R    HAL2     0.900000E-01   1.00800           0
     27927 LPSA26   1        ECLIPA   H611S    HAL2     0.900000E-01   1.00800           0
     27928 LPSA26   1        ECLIPA   C612     CTL3    -0.270000       12.0110           0
     27929 LPSA26   1        ECLIPA   H612R    HAL3     0.900000E-01   1.00800           0
     27930 LPSA26   1        ECLIPA   H612S    HAL3     0.900000E-01   1.00800           0
     27931 LPSA26   1        ECLIPA   H612T    HAL3     0.900000E-01   1.00800           0
     27932 LPSA26   1        ECLIPA   C54      CTL2    -0.180000       12.0110           0
     27933 LPSA26   1        ECLIPA   H54R     HAL2     0.900000E-01   1.00800           0
     27934 LPSA26   1        ECLIPA   H54S     HAL2     0.900000E-01   1.00800           0
     27935 LPSA26   1        ECLIPA   C55      CTL2    -0.180000       12.0110           0
     27936 LPSA26   1        ECLIPA   H55R     HAL2     0.900000E-01   1.00800           0
     27937 LPSA26   1        ECLIPA   H55S     HAL2     0.900000E-01   1.00800           0
     27938 LPSA26   1        ECLIPA   C56      CTL2    -0.180000       12.0110           0
     27939 LPSA26   1        ECLIPA   H56R     HAL2     0.900000E-01   1.00800           0
     27940 LPSA26   1        ECLIPA   H56S     HAL2     0.900000E-01   1.00800           0
     27941 LPSA26   1        ECLIPA   C57      CTL2    -0.180000       12.0110           0
     27942 LPSA26   1        ECLIPA   H57R     HAL2     0.900000E-01   1.00800           0
     27943 LPSA26   1        ECLIPA   H57S     HAL2     0.900000E-01   1.00800           0
     27944 LPSA26   1        ECLIPA   C58      CTL2    -0.180000       12.0110           0
     27945 LPSA26   1        ECLIPA   H58R     HAL2     0.900000E-01   1.00800           0
     27946 LPSA26   1        ECLIPA   H58S     HAL2     0.900000E-01   1.00800           0
     27947 LPSA26   1        ECLIPA   C59      CTL2    -0.180000       12.0110           0
     27948 LPSA26   1        ECLIPA   H59R     HAL2     0.900000E-01   1.00800           0
     27949 LPSA26   1        ECLIPA   H59S     HAL2     0.900000E-01   1.00800           0
     27950 LPSA26   1        ECLIPA   C510     CTL2    -0.180000       12.0110           0
     27951 LPSA26   1        ECLIPA   H510R    HAL2     0.900000E-01   1.00800           0
     27952 LPSA26   1        ECLIPA   H510S    HAL2     0.900000E-01   1.00800           0
     27953 LPSA26   1        ECLIPA   C511     CTL2    -0.180000       12.0110           0
     27954 LPSA26   1        ECLIPA   H511R    HAL2     0.900000E-01   1.00800           0
     27955 LPSA26   1        ECLIPA   H511S    HAL2     0.900000E-01   1.00800           0
     27956 LPSA26   1        ECLIPA   C512     CTL2    -0.180000       12.0110           0
     27957 LPSA26   1        ECLIPA   H512R    HAL2     0.900000E-01   1.00800           0
     27958 LPSA26   1        ECLIPA   H512S    HAL2     0.900000E-01   1.00800           0
     27959 LPSA26   1        ECLIPA   C513     CTL2    -0.180000       12.0110           0
     27960 LPSA26   1        ECLIPA   H513R    HAL2     0.900000E-01   1.00800           0
     27961 LPSA26   1        ECLIPA   H513S    HAL2     0.900000E-01   1.00800           0
     27962 LPSA26   1        ECLIPA   C514     CTL3    -0.270000       12.0110           0
     27963 LPSA26   1        ECLIPA   H514R    HAL3     0.900000E-01   1.00800           0
     27964 LPSA26   1        ECLIPA   H514S    HAL3     0.900000E-01   1.00800           0
     27965 LPSA26   1        ECLIPA   H514T    HAL3     0.900000E-01   1.00800           0
     27966 LPSA26   1        ECLIPA   C33      CTL1     0.140000       12.0110           0
     27967 LPSA26   1        ECLIPA   H33R     HAL1     0.900000E-01   1.00800           0
     27968 LPSA26   1        ECLIPA   O33      OH1     -0.660000       15.9994           0
     27969 LPSA26   1        ECLIPA   HO33     H        0.430000       1.00800           0
     27970 LPSA26   1        ECLIPA   C34      CTL2    -0.180000       12.0110           0
     27971 LPSA26   1        ECLIPA   H34R     HAL2     0.900000E-01   1.00800           0
     27972 LPSA26   1        ECLIPA   H34S     HAL2     0.900000E-01   1.00800           0
     27973 LPSA26   1        ECLIPA   C35      CTL2    -0.180000       12.0110           0
     27974 LPSA26   1        ECLIPA   H35R     HAL2     0.900000E-01   1.00800           0
     27975 LPSA26   1        ECLIPA   H35S     HAL2     0.900000E-01   1.00800           0
     27976 LPSA26   1        ECLIPA   C36      CTL2    -0.180000       12.0110           0
     27977 LPSA26   1        ECLIPA   H36R     HAL2     0.900000E-01   1.00800           0
     27978 LPSA26   1        ECLIPA   H36S     HAL2     0.900000E-01   1.00800           0
     27979 LPSA26   1        ECLIPA   C37      CTL2    -0.180000       12.0110           0
     27980 LPSA26   1        ECLIPA   H37R     HAL2     0.900000E-01   1.00800           0
     27981 LPSA26   1        ECLIPA   H37S     HAL2     0.900000E-01   1.00800           0
     27982 LPSA26   1        ECLIPA   C38      CTL2    -0.180000       12.0110           0
     27983 LPSA26   1        ECLIPA   H38R     HAL2     0.900000E-01   1.00800           0
     27984 LPSA26   1        ECLIPA   H38S     HAL2     0.900000E-01   1.00800           0
     27985 LPSA26   1        ECLIPA   C39      CTL2    -0.180000       12.0110           0
     27986 LPSA26   1        ECLIPA   H39R     HAL2     0.900000E-01   1.00800           0
     27987 LPSA26   1        ECLIPA   H39S     HAL2     0.900000E-01   1.00800           0
     27988 LPSA26   1        ECLIPA   C310     CTL2    -0.180000       12.0110           0
     27989 LPSA26   1        ECLIPA   H310R    HAL2     0.900000E-01   1.00800           0
     27990 LPSA26   1        ECLIPA   H310S    HAL2     0.900000E-01   1.00800           0
     27991 LPSA26   1        ECLIPA   C311     CTL2    -0.180000       12.0110           0
     27992 LPSA26   1        ECLIPA   H311R    HAL2     0.900000E-01   1.00800           0
     27993 LPSA26   1        ECLIPA   H311S    HAL2     0.900000E-01   1.00800           0
     27994 LPSA26   1        ECLIPA   C312     CTL2    -0.180000       12.0110           0
     27995 LPSA26   1        ECLIPA   H312R    HAL2     0.900000E-01   1.00800           0
     27996 LPSA26   1        ECLIPA   H312S    HAL2     0.900000E-01   1.00800           0
     27997 LPSA26   1        ECLIPA   C313     CTL2    -0.180000       12.0110           0
     27998 LPSA26   1        ECLIPA   H313R    HAL2     0.900000E-01   1.00800           0
     27999 LPSA26   1        ECLIPA   H313S    HAL2     0.900000E-01   1.00800           0
     28000 LPSA26   1        ECLIPA   C314     CTL3    -0.270000       12.0110           0
     28001 LPSA26   1        ECLIPA   H314R    HAL3     0.900000E-01   1.00800           0
     28002 LPSA26   1        ECLIPA   H314S    HAL3     0.900000E-01   1.00800           0
     28003 LPSA26   1        ECLIPA   H314T    HAL3     0.900000E-01   1.00800           0
     28004 LPSA26   1        ECLIPA   C11      CC2O1    0.550000       12.0110           0
     28005 LPSA26   1        ECLIPA   O11      OC2D1   -0.550000       15.9994           0
     28006 LPSA26   1        ECLIPA   C12      CTL2    -0.180000       12.0110           0
     28007 LPSA26   1        ECLIPA   H12R     HAL2     0.900000E-01   1.00800           0
     28008 LPSA26   1        ECLIPA   H12S     HAL2     0.900000E-01   1.00800           0
     28009 LPSA26   1        ECLIPA   C13      CTL1     0.140000       12.0110           0
     28010 LPSA26   1        ECLIPA   H13R     HAL1     0.900000E-01   1.00800           0
     28011 LPSA26   1        ECLIPA   O13      OH1     -0.660000       15.9994           0
     28012 LPSA26   1        ECLIPA   HO13     H        0.430000       1.00800           0
     28013 LPSA26   1        ECLIPA   C14      CTL2    -0.180000       12.0110           0
     28014 LPSA26   1        ECLIPA   H14R     HAL2     0.900000E-01   1.00800           0
     28015 LPSA26   1        ECLIPA   H14S     HAL2     0.900000E-01   1.00800           0
     28016 LPSA26   1        ECLIPA   C15      CTL2    -0.180000       12.0110           0
     28017 LPSA26   1        ECLIPA   H15R     HAL2     0.900000E-01   1.00800           0
     28018 LPSA26   1        ECLIPA   H15S     HAL2     0.900000E-01   1.00800           0
     28019 LPSA26   1        ECLIPA   C16      CTL2    -0.180000       12.0110           0
     28020 LPSA26   1        ECLIPA   H16R     HAL2     0.900000E-01   1.00800           0
     28021 LPSA26   1        ECLIPA   H16S     HAL2     0.900000E-01   1.00800           0
     28022 LPSA26   1        ECLIPA   C17      CTL2    -0.180000       12.0110           0
     28023 LPSA26   1        ECLIPA   H17R     HAL2     0.900000E-01   1.00800           0
     28024 LPSA26   1        ECLIPA   H17S     HAL2     0.900000E-01   1.00800           0
     28025 LPSA26   1        ECLIPA   C18      CTL2    -0.180000       12.0110           0
     28026 LPSA26   1        ECLIPA   H18R     HAL2     0.900000E-01   1.00800           0
     28027 LPSA26   1        ECLIPA   H18S     HAL2     0.900000E-01   1.00800           0
     28028 LPSA26   1        ECLIPA   C19      CTL2    -0.180000       12.0110           0
     28029 LPSA26   1        ECLIPA   H19R     HAL2     0.900000E-01   1.00800           0
     28030 LPSA26   1        ECLIPA   H19S     HAL2     0.900000E-01   1.00800           0
     28031 LPSA26   1        ECLIPA   C110     CTL2    -0.180000       12.0110           0
     28032 LPSA26   1        ECLIPA   H110R    HAL2     0.900000E-01   1.00800           0
     28033 LPSA26   1        ECLIPA   H110S    HAL2     0.900000E-01   1.00800           0
     28034 LPSA26   1        ECLIPA   C111     CTL2    -0.180000       12.0110           0
     28035 LPSA26   1        ECLIPA   H111R    HAL2     0.900000E-01   1.00800           0
     28036 LPSA26   1        ECLIPA   H111S    HAL2     0.900000E-01   1.00800           0
     28037 LPSA26   1        ECLIPA   C112     CTL2    -0.180000       12.0110           0
     28038 LPSA26   1        ECLIPA   H112R    HAL2     0.900000E-01   1.00800           0
     28039 LPSA26   1        ECLIPA   H112S    HAL2     0.900000E-01   1.00800           0
     28040 LPSA26   1        ECLIPA   C113     CTL2    -0.180000       12.0110           0
     28041 LPSA26   1        ECLIPA   H113R    HAL2     0.900000E-01   1.00800           0
     28042 LPSA26   1        ECLIPA   H113S    HAL2     0.900000E-01   1.00800           0
     28043 LPSA26   1        ECLIPA   C114     CTL3    -0.270000       12.0110           0
     28044 LPSA26   1        ECLIPA   H114R    HAL3     0.900000E-01   1.00800           0
     28045 LPSA26   1        ECLIPA   H114S    HAL3     0.900000E-01   1.00800           0
     28046 LPSA26   1        ECLIPA   H114T    HAL3     0.900000E-01   1.00800           0
     28047 LPSA26   2        AKDO     C1       CC2O2    0.300000       12.0110           0
     28048 LPSA26   2        AKDO     O11      OC2D2   -0.600000       15.9994           0
     28049 LPSA26   2        AKDO     O12      OC2D2   -0.600000       15.9994           0
     28050 LPSA26   2        AKDO     C2       CC3062   0.280000       12.0110           0
     28051 LPSA26   2        AKDO     C6       CC3163   0.110000       12.0110           0
     28052 LPSA26   2        AKDO     H6       HCA1     0.900000E-01   1.00800           0
     28053 LPSA26   2        AKDO     O6       OC3C61  -0.400000       15.9994           0
     28054 LPSA26   2        AKDO     C3       CC3261  -0.180000       12.0110           0
     28055 LPSA26   2        AKDO     H31      HCA2     0.900000E-01   1.00800           0
     28056 LPSA26   2        AKDO     H32      HCA2     0.900000E-01   1.00800           0
     28057 LPSA26   2        AKDO     C4       CC3161   0.900000E-01   12.0110           0
     28058 LPSA26   2        AKDO     H4       HCA1     0.900000E-01   1.00800           0
     28059 LPSA26   2        AKDO     O4       OC301   -0.360000       15.9994           0
     28060 LPSA26   2        AKDO     C5       CC3161   0.900000E-01   12.0110           0
     28061 LPSA26   2        AKDO     H5       HCA1     0.900000E-01   1.00800           0
     28062 LPSA26   2        AKDO     O5       OC301   -0.360000       15.9994           0
     28063 LPSA26   2        AKDO     C7       CC312    0.140000       12.0110           0
     28064 LPSA26   2        AKDO     H7       HCA1     0.900000E-01   1.00800           0
     28065 LPSA26   2        AKDO     O7       OC311   -0.650000       15.9994           0
     28066 LPSA26   2        AKDO     HO7      HCP1     0.420000       1.00800           0
     28067 LPSA26   2        AKDO     C8       CC322    0.500000E-01   12.0110           0
     28068 LPSA26   2        AKDO     H81      HCA2     0.900000E-01   1.00800           0
     28069 LPSA26   2        AKDO     H82      HCA2     0.900000E-01   1.00800           0
     28070 LPSA26   2        AKDO     O8       OC311   -0.650000       15.9994           0
     28071 LPSA26   2        AKDO     HO8      HCP1     0.420000       1.00800           0
     28072 LPSA26   3        AKDO     C1       CC2O2    0.300000       12.0110           0
     28073 LPSA26   3        AKDO     O11      OC2D2   -0.600000       15.9994           0
     28074 LPSA26   3        AKDO     O12      OC2D2   -0.600000       15.9994           0
     28075 LPSA26   3        AKDO     C2       CC3062   0.280000       12.0110           0
     28076 LPSA26   3        AKDO     C6       CC3163   0.110000       12.0110           0
     28077 LPSA26   3        AKDO     H6       HCA1     0.900000E-01   1.00800           0
     28078 LPSA26   3        AKDO     O6       OC3C61  -0.400000       15.9994           0
     28079 LPSA26   3        AKDO     C3       CC3261  -0.180000       12.0110           0
     28080 LPSA26   3        AKDO     H31      HCA2     0.900000E-01   1.00800           0
     28081 LPSA26   3        AKDO     H32      HCA2     0.900000E-01   1.00800           0
     28082 LPSA26   3        AKDO     C4       CC3161   0.140000       12.0110           0
     28083 LPSA26   3        AKDO     H4       HCA1     0.900000E-01   1.00800           0
     28084 LPSA26   3        AKDO     O4       OC311   -0.650000       15.9994           0
     28085 LPSA26   3        AKDO     HO4      HCP1     0.420000       1.00800           0
     28086 LPSA26   3        AKDO     C5       CC3161   0.140000       12.0110           0
     28087 LPSA26   3        AKDO     H5       HCA1     0.900000E-01   1.00800           0
     28088 LPSA26   3        AKDO     O5       OC311   -0.650000       15.9994           0
     28089 LPSA26   3        AKDO     HO5      HCP1     0.420000       1.00800           0
     28090 LPSA26   3        AKDO     C7       CC312    0.140000       12.0110           0
     28091 LPSA26   3        AKDO     H7       HCA1     0.900000E-01   1.00800           0
     28092 LPSA26   3        AKDO     O7       OC311   -0.650000       15.9994           0
     28093 LPSA26   3        AKDO     HO7      HCP1     0.420000       1.00800           0
     28094 LPSA26   3        AKDO     C8       CC322    0.500000E-01   12.0110           0
     28095 LPSA26   3        AKDO     H81      HCA2     0.900000E-01   1.00800           0
     28096 LPSA26   3        AKDO     H82      HCA2     0.900000E-01   1.00800           0
     28097 LPSA26   3        AKDO     O8       OC311   -0.650000       15.9994           0
     28098 LPSA26   3        AKDO     HO8      HCP1     0.420000       1.00800           0
     28099 LPSA26   4        AHEP     C1       CC3162   0.290000       12.0110           0
     28100 LPSA26   4        AHEP     H1       HCA1     0.900000E-01   1.00800           0
     28101 LPSA26   4        AHEP     C5       CC3163   0.110000       12.0110           0
     28102 LPSA26   4        AHEP     H5       HCA1     0.900000E-01   1.00800           0
     28103 LPSA26   4        AHEP     O5       OC3C61  -0.400000       15.9994           0
     28104 LPSA26   4        AHEP     C2       CC3161   0.140000       12.0110           0
     28105 LPSA26   4        AHEP     H2       HCA1     0.900000E-01   1.00800           0
     28106 LPSA26   4        AHEP     O2       OC311   -0.650000       15.9994           0
     28107 LPSA26   4        AHEP     HO2      HCP1     0.420000       1.00800           0
     28108 LPSA26   4        AHEP     C3       CC3161   0.900000E-01   12.0110           0
     28109 LPSA26   4        AHEP     H3       HCA1     0.900000E-01   1.00800           0
     28110 LPSA26   4        AHEP     O3       OC301   -0.360000       15.9994           0
     28111 LPSA26   4        AHEP     C4       CC3161  -0.900000E-01   12.0110           0
     28112 LPSA26   4        AHEP     H4       HCA1     0.900000E-01   1.00800           0
     28113 LPSA26   4        AHEP     O4       OC30P   -0.400000       15.9994           0
     28114 LPSA26   4        AHEP     P4       PC        1.10000       30.9740           0
     28115 LPSA26   4        AHEP     OP42     OC2DP   -0.900000       15.9994           0
     28116 LPSA26   4        AHEP     OP43     OC2DP   -0.900000       15.9994           0
     28117 LPSA26   4        AHEP     OP44     OC2DP   -0.900000       15.9994           0
     28118 LPSA26   4        AHEP     C6       CC312    0.140000       12.0110           0
     28119 LPSA26   4        AHEP     H6       HCA1     0.900000E-01   1.00800           0
     28120 LPSA26   4        AHEP     O6       OC311   -0.650000       15.9994           0
     28121 LPSA26   4        AHEP     HO6      HCP1     0.420000       1.00800           0
     28122 LPSA26   4        AHEP     C7       CC322    0.500000E-01   12.0110           0
     28123 LPSA26   4        AHEP     H71      HCA2     0.900000E-01   1.00800           0
     28124 LPSA26   4        AHEP     H72      HCA2     0.900000E-01   1.00800           0
     28125 LPSA26   4        AHEP     O7       OC311   -0.650000       15.9994           0
     28126 LPSA26   4        AHEP     HO7      HCP1     0.420000       1.00800           0
     28127 LPSA26   5        AHEP     C1       CC3162   0.290000       12.0110           0
     28128 LPSA26   5        AHEP     H1       HCA1     0.900000E-01   1.00800           0
     28129 LPSA26   5        AHEP     C5       CC3163   0.110000       12.0110           0
     28130 LPSA26   5        AHEP     H5       HCA1     0.900000E-01   1.00800           0
     28131 LPSA26   5        AHEP     O5       OC3C61  -0.400000       15.9994           0
     28132 LPSA26   5        AHEP     C2       CC3161   0.140000       12.0110           0
     28133 LPSA26   5        AHEP     H2       HCA1     0.900000E-01   1.00800           0
     28134 LPSA26   5        AHEP     O2       OC311   -0.650000       15.9994           0
     28135 LPSA26   5        AHEP     HO2      HCP1     0.420000       1.00800           0
     28136 LPSA26   5        AHEP     C3       CC3161   0.900000E-01   12.0110           0
     28137 LPSA26   5        AHEP     H3       HCA1     0.900000E-01   1.00800           0
     28138 LPSA26   5        AHEP     O3       OC301   -0.360000       15.9994           0
     28139 LPSA26   5        AHEP     C4       CC3161  -0.900000E-01   12.0110           0
     28140 LPSA26   5        AHEP     H4       HCA1     0.900000E-01   1.00800           0
     28141 LPSA26   5        AHEP     O4       OC30P   -0.400000       15.9994           0
     28142 LPSA26   5        AHEP     P4       PC        1.10000       30.9740           0
     28143 LPSA26   5        AHEP     OP42     OC2DP   -0.900000       15.9994           0
     28144 LPSA26   5        AHEP     OP43     OC2DP   -0.900000       15.9994           0
     28145 LPSA26   5        AHEP     OP44     OC2DP   -0.900000       15.9994           0
     28146 LPSA26   5        AHEP     C6       CC312    0.140000       12.0110           0
     28147 LPSA26   5        AHEP     H6       HCA1     0.900000E-01   1.00800           0
     28148 LPSA26   5        AHEP     O6       OC311   -0.650000       15.9994           0
     28149 LPSA26   5        AHEP     HO6      HCP1     0.420000       1.00800           0
     28150 LPSA26   5        AHEP     C7       CC322     0.00000       12.0110           0
     28151 LPSA26   5        AHEP     H71      HCA2     0.900000E-01   1.00800           0
     28152 LPSA26   5        AHEP     H72      HCA2     0.900000E-01   1.00800           0
     28153 LPSA26   5        AHEP     O7       OC301   -0.360000       15.9994           0
     28154 LPSA26   6        AHEP     C1       CC3162   0.290000       12.0110           0
     28155 LPSA26   6        AHEP     H1       HCA1     0.900000E-01   1.00800           0
     28156 LPSA26   6        AHEP     C5       CC3163   0.110000       12.0110           0
     28157 LPSA26   6        AHEP     H5       HCA1     0.900000E-01   1.00800           0
     28158 LPSA26   6        AHEP     O5       OC3C61  -0.400000       15.9994           0
     28159 LPSA26   6        AHEP     C2       CC3161   0.140000       12.0110           0
     28160 LPSA26   6        AHEP     H2       HCA1     0.900000E-01   1.00800           0
     28161 LPSA26   6        AHEP     O2       OC311   -0.650000       15.9994           0
     28162 LPSA26   6        AHEP     HO2      HCP1     0.420000       1.00800           0
     28163 LPSA26   6        AHEP     C3       CC3161   0.140000       12.0110           0
     28164 LPSA26   6        AHEP     H3       HCA1     0.900000E-01   1.00800           0
     28165 LPSA26   6        AHEP     O3       OC311   -0.650000       15.9994           0
     28166 LPSA26   6        AHEP     HO3      HCP1     0.420000       1.00800           0
     28167 LPSA26   6        AHEP     C4       CC3161   0.140000       12.0110           0
     28168 LPSA26   6        AHEP     H4       HCA1     0.900000E-01   1.00800           0
     28169 LPSA26   6        AHEP     O4       OC311   -0.650000       15.9994           0
     28170 LPSA26   6        AHEP     HO4      HCP1     0.420000       1.00800           0
     28171 LPSA26   6        AHEP     C6       CC312    0.140000       12.0110           0
     28172 LPSA26   6        AHEP     H6       HCA1     0.900000E-01   1.00800           0
     28173 LPSA26   6        AHEP     O6       OC311   -0.650000       15.9994           0
     28174 LPSA26   6        AHEP     HO6      HCP1     0.420000       1.00800           0
     28175 LPSA26   6        AHEP     C7       CC322    0.500000E-01   12.0110           0
     28176 LPSA26   6        AHEP     H71      HCA2     0.900000E-01   1.00800           0
     28177 LPSA26   6        AHEP     H72      HCA2     0.900000E-01   1.00800           0
     28178 LPSA26   6        AHEP     O7       OC311   -0.650000       15.9994           0
     28179 LPSA26   6        AHEP     HO7      HCP1     0.420000       1.00800           0
     28180 LPSA26   7        AGLC     C1       CC3162   0.290000       12.0110           0
     28181 LPSA26   7        AGLC     H1       HCA1     0.900000E-01   1.00800           0
     28182 LPSA26   7        AGLC     C5       CC3163   0.110000       12.0110           0
     28183 LPSA26   7        AGLC     H5       HCA1     0.900000E-01   1.00800           0
     28184 LPSA26   7        AGLC     O5       OC3C61  -0.400000       15.9994           0
     28185 LPSA26   7        AGLC     C2       CC3161   0.140000       12.0110           0
     28186 LPSA26   7        AGLC     H2       HCA1     0.900000E-01   1.00800           0
     28187 LPSA26   7        AGLC     O2       OC311   -0.650000       15.9994           0
     28188 LPSA26   7        AGLC     HO2      HCP1     0.420000       1.00800           0
     28189 LPSA26   7        AGLC     C3       CC3161   0.900000E-01   12.0110           0
     28190 LPSA26   7        AGLC     H3       HCA1     0.900000E-01   1.00800           0
     28191 LPSA26   7        AGLC     O3       OC301   -0.360000       15.9994           0
     28192 LPSA26   7        AGLC     C4       CC3161   0.140000       12.0110           0
     28193 LPSA26   7        AGLC     H4       HCA1     0.900000E-01   1.00800           0
     28194 LPSA26   7        AGLC     O4       OC311   -0.650000       15.9994           0
     28195 LPSA26   7        AGLC     HO4      HCP1     0.420000       1.00800           0
     28196 LPSA26   7        AGLC     C6       CC321    0.500000E-01   12.0110           0
     28197 LPSA26   7        AGLC     H61      HCA2     0.900000E-01   1.00800           0
     28198 LPSA26   7        AGLC     H62      HCA2     0.900000E-01   1.00800           0
     28199 LPSA26   7        AGLC     O6       OC311   -0.650000       15.9994           0
     28200 LPSA26   7        AGLC     HO6      HCP1     0.420000       1.00800           0
     28201 LPSA26   8        AGLC     C1       CC3162   0.290000       12.0110           0
     28202 LPSA26   8        AGLC     H1       HCA1     0.900000E-01   1.00800           0
     28203 LPSA26   8        AGLC     C5       CC3163   0.110000       12.0110           0
     28204 LPSA26   8        AGLC     H5       HCA1     0.900000E-01   1.00800           0
     28205 LPSA26   8        AGLC     O5       OC3C61  -0.400000       15.9994           0
     28206 LPSA26   8        AGLC     C2       CC3161   0.900000E-01   12.0110           0
     28207 LPSA26   8        AGLC     H2       HCA1     0.900000E-01   1.00800           0
     28208 LPSA26   8        AGLC     O2       OC301   -0.360000       15.9994           0
     28209 LPSA26   8        AGLC     C3       CC3161   0.900000E-01   12.0110           0
     28210 LPSA26   8        AGLC     H3       HCA1     0.900000E-01   1.00800           0
     28211 LPSA26   8        AGLC     O3       OC301   -0.360000       15.9994           0
     28212 LPSA26   8        AGLC     C4       CC3161   0.140000       12.0110           0
     28213 LPSA26   8        AGLC     H4       HCA1     0.900000E-01   1.00800           0
     28214 LPSA26   8        AGLC     O4       OC311   -0.650000       15.9994           0
     28215 LPSA26   8        AGLC     HO4      HCP1     0.420000       1.00800           0
     28216 LPSA26   8        AGLC     C6       CC321    0.500000E-01   12.0110           0
     28217 LPSA26   8        AGLC     H61      HCA2     0.900000E-01   1.00800           0
     28218 LPSA26   8        AGLC     H62      HCA2     0.900000E-01   1.00800           0
     28219 LPSA26   8        AGLC     O6       OC311   -0.650000       15.9994           0
     28220 LPSA26   8        AGLC     HO6      HCP1     0.420000       1.00800           0
     28221 LPSA26   9        AGAL     C1       CC3162   0.290000       12.0110           0
     28222 LPSA26   9        AGAL     H1       HCA1     0.900000E-01   1.00800           0
     28223 LPSA26   9        AGAL     C5       CC3163   0.110000       12.0110           0
     28224 LPSA26   9        AGAL     H5       HCA1     0.900000E-01   1.00800           0
     28225 LPSA26   9        AGAL     O5       OC3C61  -0.400000       15.9994           0
     28226 LPSA26   9        AGAL     C2       CC3161   0.900000E-01   12.0110           0
     28227 LPSA26   9        AGAL     H2       HCA1     0.900000E-01   1.00800           0
     28228 LPSA26   9        AGAL     O2       OC301   -0.360000       15.9994           0
     28229 LPSA26   9        AGAL     C3       CC3161   0.140000       12.0110           0
     28230 LPSA26   9        AGAL     H3       HCA1     0.900000E-01   1.00800           0
     28231 LPSA26   9        AGAL     O3       OC311   -0.650000       15.9994           0
     28232 LPSA26   9        AGAL     HO3      HCP1     0.420000       1.00800           0
     28233 LPSA26   9        AGAL     C4       CC3161   0.140000       12.0110           0
     28234 LPSA26   9        AGAL     H4       HCA1     0.900000E-01   1.00800           0
     28235 LPSA26   9        AGAL     O4       OC311   -0.650000       15.9994           0
     28236 LPSA26   9        AGAL     HO4      HCP1     0.420000       1.00800           0
     28237 LPSA26   9        AGAL     C6       CC321    0.500000E-01   12.0110           0
     28238 LPSA26   9        AGAL     H61      HCA2     0.900000E-01   1.00800           0
     28239 LPSA26   9        AGAL     H62      HCA2     0.900000E-01   1.00800           0
     28240 LPSA26   9        AGAL     O6       OC311   -0.650000       15.9994           0
     28241 LPSA26   9        AGAL     HO6      HCP1     0.420000       1.00800           0
     28242 LPSA26   10       AGAL     C1       CC3162   0.290000       12.0110           0
     28243 LPSA26   10       AGAL     H1       HCA1     0.900000E-01   1.00800           0
     28244 LPSA26   10       AGAL     C5       CC3163   0.110000       12.0110           0
     28245 LPSA26   10       AGAL     H5       HCA1     0.900000E-01   1.00800           0
     28246 LPSA26   10       AGAL     O5       OC3C61  -0.400000       15.9994           0
     28247 LPSA26   10       AGAL     C2       CC3161   0.140000       12.0110           0
     28248 LPSA26   10       AGAL     H2       HCA1     0.900000E-01   1.00800           0
     28249 LPSA26   10       AGAL     O2       OC311   -0.650000       15.9994           0
     28250 LPSA26   10       AGAL     HO2      HCP1     0.420000       1.00800           0
     28251 LPSA26   10       AGAL     C3       CC3161   0.140000       12.0110           0
     28252 LPSA26   10       AGAL     H3       HCA1     0.900000E-01   1.00800           0
     28253 LPSA26   10       AGAL     O3       OC311   -0.650000       15.9994           0
     28254 LPSA26   10       AGAL     HO3      HCP1     0.420000       1.00800           0
     28255 LPSA26   10       AGAL     C4       CC3161   0.140000       12.0110           0
     28256 LPSA26   10       AGAL     H4       HCA1     0.900000E-01   1.00800           0
     28257 LPSA26   10       AGAL     O4       OC311   -0.650000       15.9994           0
     28258 LPSA26   10       AGAL     HO4      HCP1     0.420000       1.00800           0
     28259 LPSA26   10       AGAL     C6       CC321    0.500000E-01   12.0110           0
     28260 LPSA26   10       AGAL     H61      HCA2     0.900000E-01   1.00800           0
     28261 LPSA26   10       AGAL     H62      HCA2     0.900000E-01   1.00800           0
     28262 LPSA26   10       AGAL     O6       OC311   -0.650000       15.9994           0
     28263 LPSA26   10       AGAL     HO6      HCP1     0.420000       1.00800           0
     28264 LPSA26   11       BGLC     C1       CC3162   0.290000       12.0110           0
     28265 LPSA26   11       BGLC     H1       HCA1     0.900000E-01   1.00800           0
     28266 LPSA26   11       BGLC     C5       CC3163   0.110000       12.0110           0
     28267 LPSA26   11       BGLC     H5       HCA1     0.900000E-01   1.00800           0
     28268 LPSA26   11       BGLC     O5       OC3C61  -0.400000       15.9994           0
     28269 LPSA26   11       BGLC     C2       CC3161   0.140000       12.0110           0
     28270 LPSA26   11       BGLC     H2       HCA1     0.900000E-01   1.00800           0
     28271 LPSA26   11       BGLC     O2       OC311   -0.650000       15.9994           0
     28272 LPSA26   11       BGLC     HO2      HCP1     0.420000       1.00800           0
     28273 LPSA26   11       BGLC     C3       CC3161   0.900000E-01   12.0110           0
     28274 LPSA26   11       BGLC     H3       HCA1     0.900000E-01   1.00800           0
     28275 LPSA26   11       BGLC     O3       OC301   -0.360000       15.9994           0
     28276 LPSA26   11       BGLC     C4       CC3161   0.140000       12.0110           0
     28277 LPSA26   11       BGLC     H4       HCA1     0.900000E-01   1.00800           0
     28278 LPSA26   11       BGLC     O4       OC311   -0.650000       15.9994           0
     28279 LPSA26   11       BGLC     HO4      HCP1     0.420000       1.00800           0
     28280 LPSA26   11       BGLC     C6       CC321    0.500000E-01   12.0110           0
     28281 LPSA26   11       BGLC     H61      HCA2     0.900000E-01   1.00800           0
     28282 LPSA26   11       BGLC     H62      HCA2     0.900000E-01   1.00800           0
     28283 LPSA26   11       BGLC     O6       OC311   -0.650000       15.9994           0
     28284 LPSA26   11       BGLC     HO6      HCP1     0.420000       1.00800           0
     28285 LPSA26   12       BGLCNA   C1       CC3162   0.290000       12.0110           0
     28286 LPSA26   12       BGLCNA   H1       HCA1     0.900000E-01   1.00800           0
     28287 LPSA26   12       BGLCNA   C5       CC3163   0.110000       12.0110           0
     28288 LPSA26   12       BGLCNA   H5       HCA1     0.900000E-01   1.00800           0
     28289 LPSA26   12       BGLCNA   O5       OC3C61  -0.400000       15.9994           0
     28290 LPSA26   12       BGLCNA   C2       CC3161   0.700000E-01   12.0110           0
     28291 LPSA26   12       BGLCNA   H2       HCA1     0.900000E-01   1.00800           0
     28292 LPSA26   12       BGLCNA   N        NC2D1   -0.470000       14.0070           0
     28293 LPSA26   12       BGLCNA   HN       HCP1     0.310000       1.00800           0
     28294 LPSA26   12       BGLCNA   C        CC2O1    0.510000       12.0110           0
     28295 LPSA26   12       BGLCNA   O        OC2D1   -0.510000       15.9994           0
     28296 LPSA26   12       BGLCNA   CT       CC331   -0.270000       12.0110           0
     28297 LPSA26   12       BGLCNA   HT1      HCA3     0.900000E-01   1.00800           0
     28298 LPSA26   12       BGLCNA   HT2      HCA3     0.900000E-01   1.00800           0
     28299 LPSA26   12       BGLCNA   HT3      HCA3     0.900000E-01   1.00800           0
     28300 LPSA26   12       BGLCNA   C3       CC3161   0.900000E-01   12.0110           0
     28301 LPSA26   12       BGLCNA   H3       HCA1     0.900000E-01   1.00800           0
     28302 LPSA26   12       BGLCNA   O3       OC301   -0.360000       15.9994           0
     28303 LPSA26   12       BGLCNA   C4       CC3161   0.140000       12.0110           0
     28304 LPSA26   12       BGLCNA   H4       HCA1     0.900000E-01   1.00800           0
     28305 LPSA26   12       BGLCNA   O4       OC311   -0.650000       15.9994           0
     28306 LPSA26   12       BGLCNA   HO4      HCP1     0.420000       1.00800           0
     28307 LPSA26   12       BGLCNA   C6       CC321    0.500000E-01   12.0110           0
     28308 LPSA26   12       BGLCNA   H61      HCA2     0.900000E-01   1.00800           0
     28309 LPSA26   12       BGLCNA   H62      HCA2     0.900000E-01   1.00800           0
     28310 LPSA26   12       BGLCNA   O6       OC311   -0.650000       15.9994           0
     28311 LPSA26   12       BGLCNA   HO6      HCP1     0.420000       1.00800           0
     28312 LPSA26   13       AGAL     C1       CC3162   0.290000       12.0110           0
     28313 LPSA26   13       AGAL     H1       HCA1     0.900000E-01   1.00800           0
     28314 LPSA26   13       AGAL     C5       CC3163   0.110000       12.0110           0
     28315 LPSA26   13       AGAL     H5       HCA1     0.900000E-01   1.00800           0
     28316 LPSA26   13       AGAL     O5       OC3C61  -0.400000       15.9994           0
     28317 LPSA26   13       AGAL     C2       CC3161   0.900000E-01   12.0110           0
     28318 LPSA26   13       AGAL     H2       HCA1     0.900000E-01   1.00800           0
     28319 LPSA26   13       AGAL     O2       OC301   -0.360000       15.9994           0
     28320 LPSA26   13       AGAL     C3       CC3161   0.140000       12.0110           0
     28321 LPSA26   13       AGAL     H3       HCA1     0.900000E-01   1.00800           0
     28322 LPSA26   13       AGAL     O3       OC311   -0.650000       15.9994           0
     28323 LPSA26   13       AGAL     HO3      HCP1     0.420000       1.00800           0
     28324 LPSA26   13       AGAL     C4       CC3161   0.140000       12.0110           0
     28325 LPSA26   13       AGAL     H4       HCA1     0.900000E-01   1.00800           0
     28326 LPSA26   13       AGAL     O4       OC311   -0.650000       15.9994           0
     28327 LPSA26   13       AGAL     HO4      HCP1     0.420000       1.00800           0
     28328 LPSA26   13       AGAL     C6       CC321    0.500000E-01   12.0110           0
     28329 LPSA26   13       AGAL     H61      HCA2     0.900000E-01   1.00800           0
     28330 LPSA26   13       AGAL     H62      HCA2     0.900000E-01   1.00800           0
     28331 LPSA26   13       AGAL     O6       OC311   -0.650000       15.9994           0
     28332 LPSA26   13       AGAL     HO6      HCP1     0.420000       1.00800           0
     28333 LPSA26   14       ARHM     C1       CC3162   0.290000       12.0110           0
     28334 LPSA26   14       ARHM     H1       HCA1     0.900000E-01   1.00800           0
     28335 LPSA26   14       ARHM     C5       CC3163   0.110000       12.0110           0
     28336 LPSA26   14       ARHM     H5       HCA1     0.900000E-01   1.00800           0
     28337 LPSA26   14       ARHM     O5       OC3C61  -0.400000       15.9994           0
     28338 LPSA26   14       ARHM     C2       CC3161   0.900000E-01   12.0110           0
     28339 LPSA26   14       ARHM     H2       HCA1     0.900000E-01   1.00800           0
     28340 LPSA26   14       ARHM     O2       OC301   -0.360000       15.9994           0
     28341 LPSA26   14       ARHM     C3       CC3161   0.140000       12.0110           0
     28342 LPSA26   14       ARHM     H3       HCA1     0.900000E-01   1.00800           0
     28343 LPSA26   14       ARHM     O3       OC311   -0.650000       15.9994           0
     28344 LPSA26   14       ARHM     HO3      HCP1     0.420000       1.00800           0
     28345 LPSA26   14       ARHM     C4       CC3161   0.140000       12.0110           0
     28346 LPSA26   14       ARHM     H4       HCA1     0.900000E-01   1.00800           0
     28347 LPSA26   14       ARHM     O4       OC311   -0.650000       15.9994           0
     28348 LPSA26   14       ARHM     HO4      HCP1     0.420000       1.00800           0
     28349 LPSA26   14       ARHM     C6       CC331   -0.270000       12.0110           0
     28350 LPSA26   14       ARHM     H61      HCA3     0.900000E-01   1.00800           0
     28351 LPSA26   14       ARHM     H62      HCA3     0.900000E-01   1.00800           0
     28352 LPSA26   14       ARHM     H63      HCA3     0.900000E-01   1.00800           0
     28353 LPSA26   15       ARHM     C1       CC3162   0.290000       12.0110           0
     28354 LPSA26   15       ARHM     H1       HCA1     0.900000E-01   1.00800           0
     28355 LPSA26   15       ARHM     C5       CC3163   0.110000       12.0110           0
     28356 LPSA26   15       ARHM     H5       HCA1     0.900000E-01   1.00800           0
     28357 LPSA26   15       ARHM     O5       OC3C61  -0.400000       15.9994           0
     28358 LPSA26   15       ARHM     C2       CC3161   0.900000E-01   12.0110           0
     28359 LPSA26   15       ARHM     H2       HCA1     0.900000E-01   1.00800           0
     28360 LPSA26   15       ARHM     O2       OC301   -0.360000       15.9994           0
     28361 LPSA26   15       ARHM     C3       CC3161   0.900000E-01   12.0110           0
     28362 LPSA26   15       ARHM     H3       HCA1     0.900000E-01   1.00800           0
     28363 LPSA26   15       ARHM     O3       OC301   -0.360000       15.9994           0
     28364 LPSA26   15       ARHM     C4       CC3161   0.140000       12.0110           0
     28365 LPSA26   15       ARHM     H4       HCA1     0.900000E-01   1.00800           0
     28366 LPSA26   15       ARHM     O4       OC311   -0.650000       15.9994           0
     28367 LPSA26   15       ARHM     HO4      HCP1     0.420000       1.00800           0
     28368 LPSA26   15       ARHM     C6       CC331   -0.270000       12.0110           0
     28369 LPSA26   15       ARHM     H61      HCA3     0.900000E-01   1.00800           0
     28370 LPSA26   15       ARHM     H62      HCA3     0.900000E-01   1.00800           0
     28371 LPSA26   15       ARHM     H63      HCA3     0.900000E-01   1.00800           0
     28372 LPSA26   16       BMANNA   C1       CC3162   0.290000       12.0110           0
     28373 LPSA26   16       BMANNA   H1       HCA1     0.900000E-01   1.00800           0
     28374 LPSA26   16       BMANNA   C5       CC3163   0.110000       12.0110           0
     28375 LPSA26   16       BMANNA   H5       HCA1     0.900000E-01   1.00800           0
     28376 LPSA26   16       BMANNA   O5       OC3C61  -0.400000       15.9994           0
     28377 LPSA26   16       BMANNA   C2       CC3161   0.700000E-01   12.0110           0
     28378 LPSA26   16       BMANNA   H2       HCA1     0.900000E-01   1.00800           0
     28379 LPSA26   16       BMANNA   N        NC2D1   -0.470000       14.0070           0
     28380 LPSA26   16       BMANNA   HN       HCP1     0.310000       1.00800           0
     28381 LPSA26   16       BMANNA   C        CC2O1    0.510000       12.0110           0
     28382 LPSA26   16       BMANNA   O        OC2D1   -0.510000       15.9994           0
     28383 LPSA26   16       BMANNA   CT       CC331   -0.270000       12.0110           0
     28384 LPSA26   16       BMANNA   HT1      HCA3     0.900000E-01   1.00800           0
     28385 LPSA26   16       BMANNA   HT2      HCA3     0.900000E-01   1.00800           0
     28386 LPSA26   16       BMANNA   HT3      HCA3     0.900000E-01   1.00800           0
     28387 LPSA26   16       BMANNA   C3       CC3161   0.140000       12.0110           0
     28388 LPSA26   16       BMANNA   H3       HCA1     0.900000E-01   1.00800           0
     28389 LPSA26   16       BMANNA   O3       OC311   -0.650000       15.9994           0
     28390 LPSA26   16       BMANNA   HO3      HCP1     0.420000       1.00800           0
     28391 LPSA26   16       BMANNA   C4       CC3161   0.140000       12.0110           0
     28392 LPSA26   16       BMANNA   H4       HCA1     0.900000E-01   1.00800           0
     28393 LPSA26   16       BMANNA   O4       OC311   -0.650000       15.9994           0
     28394 LPSA26   16       BMANNA   HO4      HCP1     0.420000       1.00800           0
     28395 LPSA26   16       BMANNA   C6       CC321    0.500000E-01   12.0110           0
     28396 LPSA26   16       BMANNA   H61      HCA2     0.900000E-01   1.00800           0
     28397 LPSA26   16       BMANNA   H62      HCA2     0.900000E-01   1.00800           0
     28398 LPSA26   16       BMANNA   O6       OC311   -0.650000       15.9994           0
     28399 LPSA26   16       BMANNA   HO6      HCP1     0.420000       1.00800           0
     28400 LPSA26   17       BGLCNA   C1       CC3162   0.290000       12.0110           0
     28401 LPSA26   17       BGLCNA   H1       HCA1     0.900000E-01   1.00800           0
     28402 LPSA26   17       BGLCNA   C5       CC3163   0.110000       12.0110           0
     28403 LPSA26   17       BGLCNA   H5       HCA1     0.900000E-01   1.00800           0
     28404 LPSA26   17       BGLCNA   O5       OC3C61  -0.400000       15.9994           0
     28405 LPSA26   17       BGLCNA   C2       CC3161   0.700000E-01   12.0110           0
     28406 LPSA26   17       BGLCNA   H2       HCA1     0.900000E-01   1.00800           0
     28407 LPSA26   17       BGLCNA   N        NC2D1   -0.470000       14.0070           0
     28408 LPSA26   17       BGLCNA   HN       HCP1     0.310000       1.00800           0
     28409 LPSA26   17       BGLCNA   C        CC2O1    0.510000       12.0110           0
     28410 LPSA26   17       BGLCNA   O        OC2D1   -0.510000       15.9994           0
     28411 LPSA26   17       BGLCNA   CT       CC331   -0.270000       12.0110           0
     28412 LPSA26   17       BGLCNA   HT1      HCA3     0.900000E-01   1.00800           0
     28413 LPSA26   17       BGLCNA   HT2      HCA3     0.900000E-01   1.00800           0
     28414 LPSA26   17       BGLCNA   HT3      HCA3     0.900000E-01   1.00800           0
     28415 LPSA26   17       BGLCNA   C3       CC3161   0.900000E-01   12.0110           0
     28416 LPSA26   17       BGLCNA   H3       HCA1     0.900000E-01   1.00800           0
     28417 LPSA26   17       BGLCNA   O3       OC301   -0.360000       15.9994           0
     28418 LPSA26   17       BGLCNA   C4       CC3161   0.140000       12.0110           0
     28419 LPSA26   17       BGLCNA   H4       HCA1     0.900000E-01   1.00800           0
     28420 LPSA26   17       BGLCNA   O4       OC311   -0.650000       15.9994           0
     28421 LPSA26   17       BGLCNA   HO4      HCP1     0.420000       1.00800           0
     28422 LPSA26   17       BGLCNA   C6       CC321    0.500000E-01   12.0110           0
     28423 LPSA26   17       BGLCNA   H61      HCA2     0.900000E-01   1.00800           0
     28424 LPSA26   17       BGLCNA   H62      HCA2     0.900000E-01   1.00800           0
     28425 LPSA26   17       BGLCNA   O6       OC311   -0.650000       15.9994           0
     28426 LPSA26   17       BGLCNA   HO6      HCP1     0.420000       1.00800           0
     28427 LPSA26   18       AGAL     C1       CC3162   0.290000       12.0110           0
     28428 LPSA26   18       AGAL     H1       HCA1     0.900000E-01   1.00800           0
     28429 LPSA26   18       AGAL     C5       CC3163   0.110000       12.0110           0
     28430 LPSA26   18       AGAL     H5       HCA1     0.900000E-01   1.00800           0
     28431 LPSA26   18       AGAL     O5       OC3C61  -0.400000       15.9994           0
     28432 LPSA26   18       AGAL     C2       CC3161   0.900000E-01   12.0110           0
     28433 LPSA26   18       AGAL     H2       HCA1     0.900000E-01   1.00800           0
     28434 LPSA26   18       AGAL     O2       OC301   -0.360000       15.9994           0
     28435 LPSA26   18       AGAL     C3       CC3161   0.140000       12.0110           0
     28436 LPSA26   18       AGAL     H3       HCA1     0.900000E-01   1.00800           0
     28437 LPSA26   18       AGAL     O3       OC311   -0.650000       15.9994           0
     28438 LPSA26   18       AGAL     HO3      HCP1     0.420000       1.00800           0
     28439 LPSA26   18       AGAL     C4       CC3161   0.140000       12.0110           0
     28440 LPSA26   18       AGAL     H4       HCA1     0.900000E-01   1.00800           0
     28441 LPSA26   18       AGAL     O4       OC311   -0.650000       15.9994           0
     28442 LPSA26   18       AGAL     HO4      HCP1     0.420000       1.00800           0
     28443 LPSA26   18       AGAL     C6       CC321    0.500000E-01   12.0110           0
     28444 LPSA26   18       AGAL     H61      HCA2     0.900000E-01   1.00800           0
     28445 LPSA26   18       AGAL     H62      HCA2     0.900000E-01   1.00800           0
     28446 LPSA26   18       AGAL     O6       OC311   -0.650000       15.9994           0
     28447 LPSA26   18       AGAL     HO6      HCP1     0.420000       1.00800           0
     28448 LPSA26   19       ARHM     C1       CC3162   0.290000       12.0110           0
     28449 LPSA26   19       ARHM     H1       HCA1     0.900000E-01   1.00800           0
     28450 LPSA26   19       ARHM     C5       CC3163   0.110000       12.0110           0
     28451 LPSA26   19       ARHM     H5       HCA1     0.900000E-01   1.00800           0
     28452 LPSA26   19       ARHM     O5       OC3C61  -0.400000       15.9994           0
     28453 LPSA26   19       ARHM     C2       CC3161   0.900000E-01   12.0110           0
     28454 LPSA26   19       ARHM     H2       HCA1     0.900000E-01   1.00800           0
     28455 LPSA26   19       ARHM     O2       OC301   -0.360000       15.9994           0
     28456 LPSA26   19       ARHM     C3       CC3161   0.140000       12.0110           0
     28457 LPSA26   19       ARHM     H3       HCA1     0.900000E-01   1.00800           0
     28458 LPSA26   19       ARHM     O3       OC311   -0.650000       15.9994           0
     28459 LPSA26   19       ARHM     HO3      HCP1     0.420000       1.00800           0
     28460 LPSA26   19       ARHM     C4       CC3161   0.140000       12.0110           0
     28461 LPSA26   19       ARHM     H4       HCA1     0.900000E-01   1.00800           0
     28462 LPSA26   19       ARHM     O4       OC311   -0.650000       15.9994           0
     28463 LPSA26   19       ARHM     HO4      HCP1     0.420000       1.00800           0
     28464 LPSA26   19       ARHM     C6       CC331   -0.270000       12.0110           0
     28465 LPSA26   19       ARHM     H61      HCA3     0.900000E-01   1.00800           0
     28466 LPSA26   19       ARHM     H62      HCA3     0.900000E-01   1.00800           0
     28467 LPSA26   19       ARHM     H63      HCA3     0.900000E-01   1.00800           0
     28468 LPSA26   20       ARHM     C1       CC3162   0.290000       12.0110           0
     28469 LPSA26   20       ARHM     H1       HCA1     0.900000E-01   1.00800           0
     28470 LPSA26   20       ARHM     C5       CC3163   0.110000       12.0110           0
     28471 LPSA26   20       ARHM     H5       HCA1     0.900000E-01   1.00800           0
     28472 LPSA26   20       ARHM     O5       OC3C61  -0.400000       15.9994           0
     28473 LPSA26   20       ARHM     C2       CC3161   0.900000E-01   12.0110           0
     28474 LPSA26   20       ARHM     H2       HCA1     0.900000E-01   1.00800           0
     28475 LPSA26   20       ARHM     O2       OC301   -0.360000       15.9994           0
     28476 LPSA26   20       ARHM     C3       CC3161   0.900000E-01   12.0110           0
     28477 LPSA26   20       ARHM     H3       HCA1     0.900000E-01   1.00800           0
     28478 LPSA26   20       ARHM     O3       OC301   -0.360000       15.9994           0
     28479 LPSA26   20       ARHM     C4       CC3161   0.140000       12.0110           0
     28480 LPSA26   20       ARHM     H4       HCA1     0.900000E-01   1.00800           0
     28481 LPSA26   20       ARHM     O4       OC311   -0.650000       15.9994           0
     28482 LPSA26   20       ARHM     HO4      HCP1     0.420000       1.00800           0
     28483 LPSA26   20       ARHM     C6       CC331   -0.270000       12.0110           0
     28484 LPSA26   20       ARHM     H61      HCA3     0.900000E-01   1.00800           0
     28485 LPSA26   20       ARHM     H62      HCA3     0.900000E-01   1.00800           0
     28486 LPSA26   20       ARHM     H63      HCA3     0.900000E-01   1.00800           0
     28487 LPSA26   21       BMANNA   C1       CC3162   0.290000       12.0110           0
     28488 LPSA26   21       BMANNA   H1       HCA1     0.900000E-01   1.00800           0
     28489 LPSA26   21       BMANNA   C5       CC3163   0.110000       12.0110           0
     28490 LPSA26   21       BMANNA   H5       HCA1     0.900000E-01   1.00800           0
     28491 LPSA26   21       BMANNA   O5       OC3C61  -0.400000       15.9994           0
     28492 LPSA26   21       BMANNA   C2       CC3161   0.700000E-01   12.0110           0
     28493 LPSA26   21       BMANNA   H2       HCA1     0.900000E-01   1.00800           0
     28494 LPSA26   21       BMANNA   N        NC2D1   -0.470000       14.0070           0
     28495 LPSA26   21       BMANNA   HN       HCP1     0.310000       1.00800           0
     28496 LPSA26   21       BMANNA   C        CC2O1    0.510000       12.0110           0
     28497 LPSA26   21       BMANNA   O        OC2D1   -0.510000       15.9994           0
     28498 LPSA26   21       BMANNA   CT       CC331   -0.270000       12.0110           0
     28499 LPSA26   21       BMANNA   HT1      HCA3     0.900000E-01   1.00800           0
     28500 LPSA26   21       BMANNA   HT2      HCA3     0.900000E-01   1.00800           0
     28501 LPSA26   21       BMANNA   HT3      HCA3     0.900000E-01   1.00800           0
     28502 LPSA26   21       BMANNA   C3       CC3161   0.140000       12.0110           0
     28503 LPSA26   21       BMANNA   H3       HCA1     0.900000E-01   1.00800           0
     28504 LPSA26   21       BMANNA   O3       OC311   -0.650000       15.9994           0
     28505 LPSA26   21       BMANNA   HO3      HCP1     0.420000       1.00800           0
     28506 LPSA26   21       BMANNA   C4       CC3161   0.140000       12.0110           0
     28507 LPSA26   21       BMANNA   H4       HCA1     0.900000E-01   1.00800           0
     28508 LPSA26   21       BMANNA   O4       OC311   -0.650000       15.9994           0
     28509 LPSA26   21       BMANNA   HO4      HCP1     0.420000       1.00800           0
     28510 LPSA26   21       BMANNA   C6       CC321    0.500000E-01   12.0110           0
     28511 LPSA26   21       BMANNA   H61      HCA2     0.900000E-01   1.00800           0
     28512 LPSA26   21       BMANNA   H62      HCA2     0.900000E-01   1.00800           0
     28513 LPSA26   21       BMANNA   O6       OC311   -0.650000       15.9994           0
     28514 LPSA26   21       BMANNA   HO6      HCP1     0.420000       1.00800           0
     28515 LPSA26   22       BGLCNA   C1       CC3162   0.290000       12.0110           0
     28516 LPSA26   22       BGLCNA   H1       HCA1     0.900000E-01   1.00800           0
     28517 LPSA26   22       BGLCNA   C5       CC3163   0.110000       12.0110           0
     28518 LPSA26   22       BGLCNA   H5       HCA1     0.900000E-01   1.00800           0
     28519 LPSA26   22       BGLCNA   O5       OC3C61  -0.400000       15.9994           0
     28520 LPSA26   22       BGLCNA   C2       CC3161   0.700000E-01   12.0110           0
     28521 LPSA26   22       BGLCNA   H2       HCA1     0.900000E-01   1.00800           0
     28522 LPSA26   22       BGLCNA   N        NC2D1   -0.470000       14.0070           0
     28523 LPSA26   22       BGLCNA   HN       HCP1     0.310000       1.00800           0
     28524 LPSA26   22       BGLCNA   C        CC2O1    0.510000       12.0110           0
     28525 LPSA26   22       BGLCNA   O        OC2D1   -0.510000       15.9994           0
     28526 LPSA26   22       BGLCNA   CT       CC331   -0.270000       12.0110           0
     28527 LPSA26   22       BGLCNA   HT1      HCA3     0.900000E-01   1.00800           0
     28528 LPSA26   22       BGLCNA   HT2      HCA3     0.900000E-01   1.00800           0
     28529 LPSA26   22       BGLCNA   HT3      HCA3     0.900000E-01   1.00800           0
     28530 LPSA26   22       BGLCNA   C3       CC3161   0.900000E-01   12.0110           0
     28531 LPSA26   22       BGLCNA   H3       HCA1     0.900000E-01   1.00800           0
     28532 LPSA26   22       BGLCNA   O3       OC301   -0.360000       15.9994           0
     28533 LPSA26   22       BGLCNA   C4       CC3161   0.140000       12.0110           0
     28534 LPSA26   22       BGLCNA   H4       HCA1     0.900000E-01   1.00800           0
     28535 LPSA26   22       BGLCNA   O4       OC311   -0.650000       15.9994           0
     28536 LPSA26   22       BGLCNA   HO4      HCP1     0.420000       1.00800           0
     28537 LPSA26   22       BGLCNA   C6       CC321    0.500000E-01   12.0110           0
     28538 LPSA26   22       BGLCNA   H61      HCA2     0.900000E-01   1.00800           0
     28539 LPSA26   22       BGLCNA   H62      HCA2     0.900000E-01   1.00800           0
     28540 LPSA26   22       BGLCNA   O6       OC311   -0.650000       15.9994           0
     28541 LPSA26   22       BGLCNA   HO6      HCP1     0.420000       1.00800           0
     28542 LPSA26   23       AGAL     C1       CC3162   0.290000       12.0110           0
     28543 LPSA26   23       AGAL     H1       HCA1     0.900000E-01   1.00800           0
     28544 LPSA26   23       AGAL     C5       CC3163   0.110000       12.0110           0
     28545 LPSA26   23       AGAL     H5       HCA1     0.900000E-01   1.00800           0
     28546 LPSA26   23       AGAL     O5       OC3C61  -0.400000       15.9994           0
     28547 LPSA26   23       AGAL     C2       CC3161   0.900000E-01   12.0110           0
     28548 LPSA26   23       AGAL     H2       HCA1     0.900000E-01   1.00800           0
     28549 LPSA26   23       AGAL     O2       OC301   -0.360000       15.9994           0
     28550 LPSA26   23       AGAL     C3       CC3161   0.140000       12.0110           0
     28551 LPSA26   23       AGAL     H3       HCA1     0.900000E-01   1.00800           0
     28552 LPSA26   23       AGAL     O3       OC311   -0.650000       15.9994           0
     28553 LPSA26   23       AGAL     HO3      HCP1     0.420000       1.00800           0
     28554 LPSA26   23       AGAL     C4       CC3161   0.140000       12.0110           0
     28555 LPSA26   23       AGAL     H4       HCA1     0.900000E-01   1.00800           0
     28556 LPSA26   23       AGAL     O4       OC311   -0.650000       15.9994           0
     28557 LPSA26   23       AGAL     HO4      HCP1     0.420000       1.00800           0
     28558 LPSA26   23       AGAL     C6       CC321    0.500000E-01   12.0110           0
     28559 LPSA26   23       AGAL     H61      HCA2     0.900000E-01   1.00800           0
     28560 LPSA26   23       AGAL     H62      HCA2     0.900000E-01   1.00800           0
     28561 LPSA26   23       AGAL     O6       OC311   -0.650000       15.9994           0
     28562 LPSA26   23       AGAL     HO6      HCP1     0.420000       1.00800           0
     28563 LPSA26   24       ARHM     C1       CC3162   0.290000       12.0110           0
     28564 LPSA26   24       ARHM     H1       HCA1     0.900000E-01   1.00800           0
     28565 LPSA26   24       ARHM     C5       CC3163   0.110000       12.0110           0
     28566 LPSA26   24       ARHM     H5       HCA1     0.900000E-01   1.00800           0
     28567 LPSA26   24       ARHM     O5       OC3C61  -0.400000       15.9994           0
     28568 LPSA26   24       ARHM     C2       CC3161   0.900000E-01   12.0110           0
     28569 LPSA26   24       ARHM     H2       HCA1     0.900000E-01   1.00800           0
     28570 LPSA26   24       ARHM     O2       OC301   -0.360000       15.9994           0
     28571 LPSA26   24       ARHM     C3       CC3161   0.140000       12.0110           0
     28572 LPSA26   24       ARHM     H3       HCA1     0.900000E-01   1.00800           0
     28573 LPSA26   24       ARHM     O3       OC311   -0.650000       15.9994           0
     28574 LPSA26   24       ARHM     HO3      HCP1     0.420000       1.00800           0
     28575 LPSA26   24       ARHM     C4       CC3161   0.140000       12.0110           0
     28576 LPSA26   24       ARHM     H4       HCA1     0.900000E-01   1.00800           0
     28577 LPSA26   24       ARHM     O4       OC311   -0.650000       15.9994           0
     28578 LPSA26   24       ARHM     HO4      HCP1     0.420000       1.00800           0
     28579 LPSA26   24       ARHM     C6       CC331   -0.270000       12.0110           0
     28580 LPSA26   24       ARHM     H61      HCA3     0.900000E-01   1.00800           0
     28581 LPSA26   24       ARHM     H62      HCA3     0.900000E-01   1.00800           0
     28582 LPSA26   24       ARHM     H63      HCA3     0.900000E-01   1.00800           0
     28583 LPSA26   25       ARHM     C1       CC3162   0.290000       12.0110           0
     28584 LPSA26   25       ARHM     H1       HCA1     0.900000E-01   1.00800           0
     28585 LPSA26   25       ARHM     C5       CC3163   0.110000       12.0110           0
     28586 LPSA26   25       ARHM     H5       HCA1     0.900000E-01   1.00800           0
     28587 LPSA26   25       ARHM     O5       OC3C61  -0.400000       15.9994           0
     28588 LPSA26   25       ARHM     C2       CC3161   0.900000E-01   12.0110           0
     28589 LPSA26   25       ARHM     H2       HCA1     0.900000E-01   1.00800           0
     28590 LPSA26   25       ARHM     O2       OC301   -0.360000       15.9994           0
     28591 LPSA26   25       ARHM     C3       CC3161   0.900000E-01   12.0110           0
     28592 LPSA26   25       ARHM     H3       HCA1     0.900000E-01   1.00800           0
     28593 LPSA26   25       ARHM     O3       OC301   -0.360000       15.9994           0
     28594 LPSA26   25       ARHM     C4       CC3161   0.140000       12.0110           0
     28595 LPSA26   25       ARHM     H4       HCA1     0.900000E-01   1.00800           0
     28596 LPSA26   25       ARHM     O4       OC311   -0.650000       15.9994           0
     28597 LPSA26   25       ARHM     HO4      HCP1     0.420000       1.00800           0
     28598 LPSA26   25       ARHM     C6       CC331   -0.270000       12.0110           0
     28599 LPSA26   25       ARHM     H61      HCA3     0.900000E-01   1.00800           0
     28600 LPSA26   25       ARHM     H62      HCA3     0.900000E-01   1.00800           0
     28601 LPSA26   25       ARHM     H63      HCA3     0.900000E-01   1.00800           0
     28602 LPSA26   26       BMANNA   C1       CC3162   0.290000       12.0110           0
     28603 LPSA26   26       BMANNA   H1       HCA1     0.900000E-01   1.00800           0
     28604 LPSA26   26       BMANNA   C5       CC3163   0.110000       12.0110           0
     28605 LPSA26   26       BMANNA   H5       HCA1     0.900000E-01   1.00800           0
     28606 LPSA26   26       BMANNA   O5       OC3C61  -0.400000       15.9994           0
     28607 LPSA26   26       BMANNA   C2       CC3161   0.700000E-01   12.0110           0
     28608 LPSA26   26       BMANNA   H2       HCA1     0.900000E-01   1.00800           0
     28609 LPSA26   26       BMANNA   N        NC2D1   -0.470000       14.0070           0
     28610 LPSA26   26       BMANNA   HN       HCP1     0.310000       1.00800           0
     28611 LPSA26   26       BMANNA   C        CC2O1    0.510000       12.0110           0
     28612 LPSA26   26       BMANNA   O        OC2D1   -0.510000       15.9994           0
     28613 LPSA26   26       BMANNA   CT       CC331   -0.270000       12.0110           0
     28614 LPSA26   26       BMANNA   HT1      HCA3     0.900000E-01   1.00800           0
     28615 LPSA26   26       BMANNA   HT2      HCA3     0.900000E-01   1.00800           0
     28616 LPSA26   26       BMANNA   HT3      HCA3     0.900000E-01   1.00800           0
     28617 LPSA26   26       BMANNA   C3       CC3161   0.140000       12.0110           0
     28618 LPSA26   26       BMANNA   H3       HCA1     0.900000E-01   1.00800           0
     28619 LPSA26   26       BMANNA   O3       OC311   -0.650000       15.9994           0
     28620 LPSA26   26       BMANNA   HO3      HCP1     0.420000       1.00800           0
     28621 LPSA26   26       BMANNA   C4       CC3161   0.140000       12.0110           0
     28622 LPSA26   26       BMANNA   H4       HCA1     0.900000E-01   1.00800           0
     28623 LPSA26   26       BMANNA   O4       OC311   -0.650000       15.9994           0
     28624 LPSA26   26       BMANNA   HO4      HCP1     0.420000       1.00800           0
     28625 LPSA26   26       BMANNA   C6       CC321    0.500000E-01   12.0110           0
     28626 LPSA26   26       BMANNA   H61      HCA2     0.900000E-01   1.00800           0
     28627 LPSA26   26       BMANNA   H62      HCA2     0.900000E-01   1.00800           0
     28628 LPSA26   26       BMANNA   O6       OC311   -0.650000       15.9994           0
     28629 LPSA26   26       BMANNA   HO6      HCP1     0.420000       1.00800           0
     28630 LPSA26   27       BGLCNA   C1       CC3162   0.290000       12.0110           0
     28631 LPSA26   27       BGLCNA   H1       HCA1     0.900000E-01   1.00800           0
     28632 LPSA26   27       BGLCNA   C5       CC3163   0.110000       12.0110           0
     28633 LPSA26   27       BGLCNA   H5       HCA1     0.900000E-01   1.00800           0
     28634 LPSA26   27       BGLCNA   O5       OC3C61  -0.400000       15.9994           0
     28635 LPSA26   27       BGLCNA   C2       CC3161   0.700000E-01   12.0110           0
     28636 LPSA26   27       BGLCNA   H2       HCA1     0.900000E-01   1.00800           0
     28637 LPSA26   27       BGLCNA   N        NC2D1   -0.470000       14.0070           0
     28638 LPSA26   27       BGLCNA   HN       HCP1     0.310000       1.00800           0
     28639 LPSA26   27       BGLCNA   C        CC2O1    0.510000       12.0110           0
     28640 LPSA26   27       BGLCNA   O        OC2D1   -0.510000       15.9994           0
     28641 LPSA26   27       BGLCNA   CT       CC331   -0.270000       12.0110           0
     28642 LPSA26   27       BGLCNA   HT1      HCA3     0.900000E-01   1.00800           0
     28643 LPSA26   27       BGLCNA   HT2      HCA3     0.900000E-01   1.00800           0
     28644 LPSA26   27       BGLCNA   HT3      HCA3     0.900000E-01   1.00800           0
     28645 LPSA26   27       BGLCNA   C3       CC3161   0.900000E-01   12.0110           0
     28646 LPSA26   27       BGLCNA   H3       HCA1     0.900000E-01   1.00800           0
     28647 LPSA26   27       BGLCNA   O3       OC301   -0.360000       15.9994           0
     28648 LPSA26   27       BGLCNA   C4       CC3161   0.140000       12.0110           0
     28649 LPSA26   27       BGLCNA   H4       HCA1     0.900000E-01   1.00800           0
     28650 LPSA26   27       BGLCNA   O4       OC311   -0.650000       15.9994           0
     28651 LPSA26   27       BGLCNA   HO4      HCP1     0.420000       1.00800           0
     28652 LPSA26   27       BGLCNA   C6       CC321    0.500000E-01   12.0110           0
     28653 LPSA26   27       BGLCNA   H61      HCA2     0.900000E-01   1.00800           0
     28654 LPSA26   27       BGLCNA   H62      HCA2     0.900000E-01   1.00800           0
     28655 LPSA26   27       BGLCNA   O6       OC311   -0.650000       15.9994           0
     28656 LPSA26   27       BGLCNA   HO6      HCP1     0.420000       1.00800           0
     28657 LPSA26   28       AGAL     C1       CC3162   0.290000       12.0110           0
     28658 LPSA26   28       AGAL     H1       HCA1     0.900000E-01   1.00800           0
     28659 LPSA26   28       AGAL     C5       CC3163   0.110000       12.0110           0
     28660 LPSA26   28       AGAL     H5       HCA1     0.900000E-01   1.00800           0
     28661 LPSA26   28       AGAL     O5       OC3C61  -0.400000       15.9994           0
     28662 LPSA26   28       AGAL     C2       CC3161   0.900000E-01   12.0110           0
     28663 LPSA26   28       AGAL     H2       HCA1     0.900000E-01   1.00800           0
     28664 LPSA26   28       AGAL     O2       OC301   -0.360000       15.9994           0
     28665 LPSA26   28       AGAL     C3       CC3161   0.140000       12.0110           0
     28666 LPSA26   28       AGAL     H3       HCA1     0.900000E-01   1.00800           0
     28667 LPSA26   28       AGAL     O3       OC311   -0.650000       15.9994           0
     28668 LPSA26   28       AGAL     HO3      HCP1     0.420000       1.00800           0
     28669 LPSA26   28       AGAL     C4       CC3161   0.140000       12.0110           0
     28670 LPSA26   28       AGAL     H4       HCA1     0.900000E-01   1.00800           0
     28671 LPSA26   28       AGAL     O4       OC311   -0.650000       15.9994           0
     28672 LPSA26   28       AGAL     HO4      HCP1     0.420000       1.00800           0
     28673 LPSA26   28       AGAL     C6       CC321    0.500000E-01   12.0110           0
     28674 LPSA26   28       AGAL     H61      HCA2     0.900000E-01   1.00800           0
     28675 LPSA26   28       AGAL     H62      HCA2     0.900000E-01   1.00800           0
     28676 LPSA26   28       AGAL     O6       OC311   -0.650000       15.9994           0
     28677 LPSA26   28       AGAL     HO6      HCP1     0.420000       1.00800           0
     28678 LPSA26   29       ARHM     C1       CC3162   0.290000       12.0110           0
     28679 LPSA26   29       ARHM     H1       HCA1     0.900000E-01   1.00800           0
     28680 LPSA26   29       ARHM     C5       CC3163   0.110000       12.0110           0
     28681 LPSA26   29       ARHM     H5       HCA1     0.900000E-01   1.00800           0
     28682 LPSA26   29       ARHM     O5       OC3C61  -0.400000       15.9994           0
     28683 LPSA26   29       ARHM     C2       CC3161   0.900000E-01   12.0110           0
     28684 LPSA26   29       ARHM     H2       HCA1     0.900000E-01   1.00800           0
     28685 LPSA26   29       ARHM     O2       OC301   -0.360000       15.9994           0
     28686 LPSA26   29       ARHM     C3       CC3161   0.140000       12.0110           0
     28687 LPSA26   29       ARHM     H3       HCA1     0.900000E-01   1.00800           0
     28688 LPSA26   29       ARHM     O3       OC311   -0.650000       15.9994           0
     28689 LPSA26   29       ARHM     HO3      HCP1     0.420000       1.00800           0
     28690 LPSA26   29       ARHM     C4       CC3161   0.140000       12.0110           0
     28691 LPSA26   29       ARHM     H4       HCA1     0.900000E-01   1.00800           0
     28692 LPSA26   29       ARHM     O4       OC311   -0.650000       15.9994           0
     28693 LPSA26   29       ARHM     HO4      HCP1     0.420000       1.00800           0
     28694 LPSA26   29       ARHM     C6       CC331   -0.270000       12.0110           0
     28695 LPSA26   29       ARHM     H61      HCA3     0.900000E-01   1.00800           0
     28696 LPSA26   29       ARHM     H62      HCA3     0.900000E-01   1.00800           0
     28697 LPSA26   29       ARHM     H63      HCA3     0.900000E-01   1.00800           0
     28698 LPSA26   30       ARHM     C1       CC3162   0.290000       12.0110           0
     28699 LPSA26   30       ARHM     H1       HCA1     0.900000E-01   1.00800           0
     28700 LPSA26   30       ARHM     C5       CC3163   0.110000       12.0110           0
     28701 LPSA26   30       ARHM     H5       HCA1     0.900000E-01   1.00800           0
     28702 LPSA26   30       ARHM     O5       OC3C61  -0.400000       15.9994           0
     28703 LPSA26   30       ARHM     C2       CC3161   0.900000E-01   12.0110           0
     28704 LPSA26   30       ARHM     H2       HCA1     0.900000E-01   1.00800           0
     28705 LPSA26   30       ARHM     O2       OC301   -0.360000       15.9994           0
     28706 LPSA26   30       ARHM     C3       CC3161   0.900000E-01   12.0110           0
     28707 LPSA26   30       ARHM     H3       HCA1     0.900000E-01   1.00800           0
     28708 LPSA26   30       ARHM     O3       OC301   -0.360000       15.9994           0
     28709 LPSA26   30       ARHM     C4       CC3161   0.140000       12.0110           0
     28710 LPSA26   30       ARHM     H4       HCA1     0.900000E-01   1.00800           0
     28711 LPSA26   30       ARHM     O4       OC311   -0.650000       15.9994           0
     28712 LPSA26   30       ARHM     HO4      HCP1     0.420000       1.00800           0
     28713 LPSA26   30       ARHM     C6       CC331   -0.270000       12.0110           0
     28714 LPSA26   30       ARHM     H61      HCA3     0.900000E-01   1.00800           0
     28715 LPSA26   30       ARHM     H62      HCA3     0.900000E-01   1.00800           0
     28716 LPSA26   30       ARHM     H63      HCA3     0.900000E-01   1.00800           0
     28717 LPSA26   31       BMANNA   C1       CC3162   0.290000       12.0110           0
     28718 LPSA26   31       BMANNA   H1       HCA1     0.900000E-01   1.00800           0
     28719 LPSA26   31       BMANNA   C5       CC3163   0.110000       12.0110           0
     28720 LPSA26   31       BMANNA   H5       HCA1     0.900000E-01   1.00800           0
     28721 LPSA26   31       BMANNA   O5       OC3C61  -0.400000       15.9994           0
     28722 LPSA26   31       BMANNA   C2       CC3161   0.700000E-01   12.0110           0
     28723 LPSA26   31       BMANNA   H2       HCA1     0.900000E-01   1.00800           0
     28724 LPSA26   31       BMANNA   N        NC2D1   -0.470000       14.0070           0
     28725 LPSA26   31       BMANNA   HN       HCP1     0.310000       1.00800           0
     28726 LPSA26   31       BMANNA   C        CC2O1    0.510000       12.0110           0
     28727 LPSA26   31       BMANNA   O        OC2D1   -0.510000       15.9994           0
     28728 LPSA26   31       BMANNA   CT       CC331   -0.270000       12.0110           0
     28729 LPSA26   31       BMANNA   HT1      HCA3     0.900000E-01   1.00800           0
     28730 LPSA26   31       BMANNA   HT2      HCA3     0.900000E-01   1.00800           0
     28731 LPSA26   31       BMANNA   HT3      HCA3     0.900000E-01   1.00800           0
     28732 LPSA26   31       BMANNA   C3       CC3161   0.140000       12.0110           0
     28733 LPSA26   31       BMANNA   H3       HCA1     0.900000E-01   1.00800           0
     28734 LPSA26   31       BMANNA   O3       OC311   -0.650000       15.9994           0
     28735 LPSA26   31       BMANNA   HO3      HCP1     0.420000       1.00800           0
     28736 LPSA26   31       BMANNA   C4       CC3161   0.140000       12.0110           0
     28737 LPSA26   31       BMANNA   H4       HCA1     0.900000E-01   1.00800           0
     28738 LPSA26   31       BMANNA   O4       OC311   -0.650000       15.9994           0
     28739 LPSA26   31       BMANNA   HO4      HCP1     0.420000       1.00800           0
     28740 LPSA26   31       BMANNA   C6       CC321    0.500000E-01   12.0110           0
     28741 LPSA26   31       BMANNA   H61      HCA2     0.900000E-01   1.00800           0
     28742 LPSA26   31       BMANNA   H62      HCA2     0.900000E-01   1.00800           0
     28743 LPSA26   31       BMANNA   O6       OC311   -0.650000       15.9994           0
     28744 LPSA26   31       BMANNA   HO6      HCP1     0.420000       1.00800           0
     28745 LPSA26   32       BGLCNA   C1       CC3162   0.290000       12.0110           0
     28746 LPSA26   32       BGLCNA   H1       HCA1     0.900000E-01   1.00800           0
     28747 LPSA26   32       BGLCNA   C5       CC3163   0.110000       12.0110           0
     28748 LPSA26   32       BGLCNA   H5       HCA1     0.900000E-01   1.00800           0
     28749 LPSA26   32       BGLCNA   O5       OC3C61  -0.400000       15.9994           0
     28750 LPSA26   32       BGLCNA   C2       CC3161   0.700000E-01   12.0110           0
     28751 LPSA26   32       BGLCNA   H2       HCA1     0.900000E-01   1.00800           0
     28752 LPSA26   32       BGLCNA   N        NC2D1   -0.470000       14.0070           0
     28753 LPSA26   32       BGLCNA   HN       HCP1     0.310000       1.00800           0
     28754 LPSA26   32       BGLCNA   C        CC2O1    0.510000       12.0110           0
     28755 LPSA26   32       BGLCNA   O        OC2D1   -0.510000       15.9994           0
     28756 LPSA26   32       BGLCNA   CT       CC331   -0.270000       12.0110           0
     28757 LPSA26   32       BGLCNA   HT1      HCA3     0.900000E-01   1.00800           0
     28758 LPSA26   32       BGLCNA   HT2      HCA3     0.900000E-01   1.00800           0
     28759 LPSA26   32       BGLCNA   HT3      HCA3     0.900000E-01   1.00800           0
     28760 LPSA26   32       BGLCNA   C3       CC3161   0.900000E-01   12.0110           0
     28761 LPSA26   32       BGLCNA   H3       HCA1     0.900000E-01   1.00800           0
     28762 LPSA26   32       BGLCNA   O3       OC301   -0.360000       15.9994           0
     28763 LPSA26   32       BGLCNA   C4       CC3161   0.140000       12.0110           0
     28764 LPSA26   32       BGLCNA   H4       HCA1     0.900000E-01   1.00800           0
     28765 LPSA26   32       BGLCNA   O4       OC311   -0.650000       15.9994           0
     28766 LPSA26   32       BGLCNA   HO4      HCP1     0.420000       1.00800           0
     28767 LPSA26   32       BGLCNA   C6       CC321    0.500000E-01   12.0110           0
     28768 LPSA26   32       BGLCNA   H61      HCA2     0.900000E-01   1.00800           0
     28769 LPSA26   32       BGLCNA   H62      HCA2     0.900000E-01   1.00800           0
     28770 LPSA26   32       BGLCNA   O6       OC311   -0.650000       15.9994           0
     28771 LPSA26   32       BGLCNA   HO6      HCP1     0.420000       1.00800           0
     28772 LPSA26   33       AGAL     C1       CC3162   0.290000       12.0110           0
     28773 LPSA26   33       AGAL     H1       HCA1     0.900000E-01   1.00800           0
     28774 LPSA26   33       AGAL     C5       CC3163   0.110000       12.0110           0
     28775 LPSA26   33       AGAL     H5       HCA1     0.900000E-01   1.00800           0
     28776 LPSA26   33       AGAL     O5       OC3C61  -0.400000       15.9994           0
     28777 LPSA26   33       AGAL     C2       CC3161   0.900000E-01   12.0110           0
     28778 LPSA26   33       AGAL     H2       HCA1     0.900000E-01   1.00800           0
     28779 LPSA26   33       AGAL     O2       OC301   -0.360000       15.9994           0
     28780 LPSA26   33       AGAL     C3       CC3161   0.140000       12.0110           0
     28781 LPSA26   33       AGAL     H3       HCA1     0.900000E-01   1.00800           0
     28782 LPSA26   33       AGAL     O3       OC311   -0.650000       15.9994           0
     28783 LPSA26   33       AGAL     HO3      HCP1     0.420000       1.00800           0
     28784 LPSA26   33       AGAL     C4       CC3161   0.140000       12.0110           0
     28785 LPSA26   33       AGAL     H4       HCA1     0.900000E-01   1.00800           0
     28786 LPSA26   33       AGAL     O4       OC311   -0.650000       15.9994           0
     28787 LPSA26   33       AGAL     HO4      HCP1     0.420000       1.00800           0
     28788 LPSA26   33       AGAL     C6       CC321    0.500000E-01   12.0110           0
     28789 LPSA26   33       AGAL     H61      HCA2     0.900000E-01   1.00800           0
     28790 LPSA26   33       AGAL     H62      HCA2     0.900000E-01   1.00800           0
     28791 LPSA26   33       AGAL     O6       OC311   -0.650000       15.9994           0
     28792 LPSA26   33       AGAL     HO6      HCP1     0.420000       1.00800           0
     28793 LPSA26   34       ARHM     C1       CC3162   0.290000       12.0110           0
     28794 LPSA26   34       ARHM     H1       HCA1     0.900000E-01   1.00800           0
     28795 LPSA26   34       ARHM     C5       CC3163   0.110000       12.0110           0
     28796 LPSA26   34       ARHM     H5       HCA1     0.900000E-01   1.00800           0
     28797 LPSA26   34       ARHM     O5       OC3C61  -0.400000       15.9994           0
     28798 LPSA26   34       ARHM     C2       CC3161   0.900000E-01   12.0110           0
     28799 LPSA26   34       ARHM     H2       HCA1     0.900000E-01   1.00800           0
     28800 LPSA26   34       ARHM     O2       OC301   -0.360000       15.9994           0
     28801 LPSA26   34       ARHM     C3       CC3161   0.140000       12.0110           0
     28802 LPSA26   34       ARHM     H3       HCA1     0.900000E-01   1.00800           0
     28803 LPSA26   34       ARHM     O3       OC311   -0.650000       15.9994           0
     28804 LPSA26   34       ARHM     HO3      HCP1     0.420000       1.00800           0
     28805 LPSA26   34       ARHM     C4       CC3161   0.140000       12.0110           0
     28806 LPSA26   34       ARHM     H4       HCA1     0.900000E-01   1.00800           0
     28807 LPSA26   34       ARHM     O4       OC311   -0.650000       15.9994           0
     28808 LPSA26   34       ARHM     HO4      HCP1     0.420000       1.00800           0
     28809 LPSA26   34       ARHM     C6       CC331   -0.270000       12.0110           0
     28810 LPSA26   34       ARHM     H61      HCA3     0.900000E-01   1.00800           0
     28811 LPSA26   34       ARHM     H62      HCA3     0.900000E-01   1.00800           0
     28812 LPSA26   34       ARHM     H63      HCA3     0.900000E-01   1.00800           0
     28813 LPSA26   35       ARHM     C1       CC3162   0.290000       12.0110           0
     28814 LPSA26   35       ARHM     H1       HCA1     0.900000E-01   1.00800           0
     28815 LPSA26   35       ARHM     C5       CC3163   0.110000       12.0110           0
     28816 LPSA26   35       ARHM     H5       HCA1     0.900000E-01   1.00800           0
     28817 LPSA26   35       ARHM     O5       OC3C61  -0.400000       15.9994           0
     28818 LPSA26   35       ARHM     C2       CC3161   0.900000E-01   12.0110           0
     28819 LPSA26   35       ARHM     H2       HCA1     0.900000E-01   1.00800           0
     28820 LPSA26   35       ARHM     O2       OC301   -0.360000       15.9994           0
     28821 LPSA26   35       ARHM     C3       CC3161   0.140000       12.0110           0
     28822 LPSA26   35       ARHM     H3       HCA1     0.900000E-01   1.00800           0
     28823 LPSA26   35       ARHM     O3       OC311   -0.650000       15.9994           0
     28824 LPSA26   35       ARHM     HO3      HCP1     0.420000       1.00800           0
     28825 LPSA26   35       ARHM     C4       CC3161   0.140000       12.0110           0
     28826 LPSA26   35       ARHM     H4       HCA1     0.900000E-01   1.00800           0
     28827 LPSA26   35       ARHM     O4       OC311   -0.650000       15.9994           0
     28828 LPSA26   35       ARHM     HO4      HCP1     0.420000       1.00800           0
     28829 LPSA26   35       ARHM     C6       CC331   -0.270000       12.0110           0
     28830 LPSA26   35       ARHM     H61      HCA3     0.900000E-01   1.00800           0
     28831 LPSA26   35       ARHM     H62      HCA3     0.900000E-01   1.00800           0
     28832 LPSA26   35       ARHM     H63      HCA3     0.900000E-01   1.00800           0
     28833 LPSA26   36       BMANNA   C1       CC3162   0.290000       12.0110           0
     28834 LPSA26   36       BMANNA   H1       HCA1     0.900000E-01   1.00800           0
     28835 LPSA26   36       BMANNA   C5       CC3163   0.110000       12.0110           0
     28836 LPSA26   36       BMANNA   H5       HCA1     0.900000E-01   1.00800           0
     28837 LPSA26   36       BMANNA   O5       OC3C61  -0.400000       15.9994           0
     28838 LPSA26   36       BMANNA   C2       CC3161   0.700000E-01   12.0110           0
     28839 LPSA26   36       BMANNA   H2       HCA1     0.900000E-01   1.00800           0
     28840 LPSA26   36       BMANNA   N        NC2D1   -0.470000       14.0070           0
     28841 LPSA26   36       BMANNA   HN       HCP1     0.310000       1.00800           0
     28842 LPSA26   36       BMANNA   C        CC2O1    0.510000       12.0110           0
     28843 LPSA26   36       BMANNA   O        OC2D1   -0.510000       15.9994           0
     28844 LPSA26   36       BMANNA   CT       CC331   -0.270000       12.0110           0
     28845 LPSA26   36       BMANNA   HT1      HCA3     0.900000E-01   1.00800           0
     28846 LPSA26   36       BMANNA   HT2      HCA3     0.900000E-01   1.00800           0
     28847 LPSA26   36       BMANNA   HT3      HCA3     0.900000E-01   1.00800           0
     28848 LPSA26   36       BMANNA   C3       CC3161   0.140000       12.0110           0
     28849 LPSA26   36       BMANNA   H3       HCA1     0.900000E-01   1.00800           0
     28850 LPSA26   36       BMANNA   O3       OC311   -0.650000       15.9994           0
     28851 LPSA26   36       BMANNA   HO3      HCP1     0.420000       1.00800           0
     28852 LPSA26   36       BMANNA   C4       CC3161   0.140000       12.0110           0
     28853 LPSA26   36       BMANNA   H4       HCA1     0.900000E-01   1.00800           0
     28854 LPSA26   36       BMANNA   O4       OC311   -0.650000       15.9994           0
     28855 LPSA26   36       BMANNA   HO4      HCP1     0.420000       1.00800           0
     28856 LPSA26   36       BMANNA   C6       CC321    0.500000E-01   12.0110           0
     28857 LPSA26   36       BMANNA   H61      HCA2     0.900000E-01   1.00800           0
     28858 LPSA26   36       BMANNA   H62      HCA2     0.900000E-01   1.00800           0
     28859 LPSA26   36       BMANNA   O6       OC311   -0.650000       15.9994           0
     28860 LPSA26   36       BMANNA   HO6      HCP1     0.420000       1.00800           0
     28861 LPSA27   1        ECLIPA   HB6S     HCA2     0.900000E-01   1.00800           0
     28862 LPSA27   1        ECLIPA   OB6      OC301   -0.360000       15.9994           0
     28863 LPSA27   1        ECLIPA   CB6      CC321     0.00000       12.0110           0
     28864 LPSA27   1        ECLIPA   HB6R     HCA2     0.900000E-01   1.00800           0
     28865 LPSA27   1        ECLIPA   CB5      CC3163   0.110000       12.0110           0
     28866 LPSA27   1        ECLIPA   OB5      OC3C61  -0.400000       15.9994           0
     28867 LPSA27   1        ECLIPA   HB5      HCA1     0.900000E-01   1.00800           0
     28868 LPSA27   1        ECLIPA   CB1      CC3162   0.290000       12.0110           0
     28869 LPSA27   1        ECLIPA   HB1      HCA1     0.900000E-01   1.00800           0
     28870 LPSA27   1        ECLIPA   OA6      OC301   -0.360000       15.9994           0
     28871 LPSA27   1        ECLIPA   CA6      CC321     0.00000       12.0110           0
     28872 LPSA27   1        ECLIPA   HA6R     HCA2     0.900000E-01   1.00800           0
     28873 LPSA27   1        ECLIPA   HA6S     HCA2     0.900000E-01   1.00800           0
     28874 LPSA27   1        ECLIPA   CB4      CC3161  -0.900000E-01   12.0110           0
     28875 LPSA27   1        ECLIPA   HB4      HCA1     0.900000E-01   1.00800           0
     28876 LPSA27   1        ECLIPA   OB4      OC30P   -0.400000       15.9994           0
     28877 LPSA27   1        ECLIPA   PB       PC        1.10000       30.9740           0
     28878 LPSA27   1        ECLIPA   OPB4     OC2DP   -0.900000       15.9994           0
     28879 LPSA27   1        ECLIPA   OPB3     OC2DP   -0.900000       15.9994           0
     28880 LPSA27   1        ECLIPA   OPB2     OC2DP   -0.900000       15.9994           0
     28881 LPSA27   1        ECLIPA   CB3      CC3161   0.170000       12.0110           0
     28882 LPSA27   1        ECLIPA   OB3      OC301   -0.490000       15.9994           0
     28883 LPSA27   1        ECLIPA   HB3      HCA1     0.900000E-01   1.00800           0
     28884 LPSA27   1        ECLIPA   C71      CL       0.900000       12.0110           0
     28885 LPSA27   1        ECLIPA   O71      OBL     -0.630000       15.9994           0
     28886 LPSA27   1        ECLIPA   C72      CTL2    -0.220000       12.0110           0
     28887 LPSA27   1        ECLIPA   H72R     HAL2     0.900000E-01   1.00800           0
     28888 LPSA27   1        ECLIPA   H72S     HAL2     0.900000E-01   1.00800           0
     28889 LPSA27   1        ECLIPA   CB2      CC3161   0.700000E-01   12.0110           0
     28890 LPSA27   1        ECLIPA   HB2      HCA1     0.900000E-01   1.00800           0
     28891 LPSA27   1        ECLIPA   NB2      NC2D1   -0.470000       14.0070           0
     28892 LPSA27   1        ECLIPA   HNB2     HCP1     0.310000       1.00800           0
     28893 LPSA27   1        ECLIPA   CA4      CC3161   0.140000       12.0110           0
     28894 LPSA27   1        ECLIPA   HA4      HCA1     0.900000E-01   1.00800           0
     28895 LPSA27   1        ECLIPA   OA4      OC311   -0.650000       15.9994           0
     28896 LPSA27   1        ECLIPA   HOA4     HCP1     0.420000       1.00800           0
     28897 LPSA27   1        ECLIPA   CA5      CC3163   0.110000       12.0110           0
     28898 LPSA27   1        ECLIPA   HA5      HCA1     0.900000E-01   1.00800           0
     28899 LPSA27   1        ECLIPA   OA5      OC3C61  -0.400000       15.9994           0
     28900 LPSA27   1        ECLIPA   CA1      CC3162   0.110000       12.0110           0
     28901 LPSA27   1        ECLIPA   HA1      HCA1     0.900000E-01   1.00800           0
     28902 LPSA27   1        ECLIPA   OA1      OC30P   -0.400000       15.9994           0
     28903 LPSA27   1        ECLIPA   OPA2     OC2DP   -0.900000       15.9994           0
     28904 LPSA27   1        ECLIPA   OPA3     OC2DP   -0.900000       15.9994           0
     28905 LPSA27   1        ECLIPA   OPA4     OC2DP   -0.900000       15.9994           0
     28906 LPSA27   1        ECLIPA   PA       PC        1.10000       30.9740           0
     28907 LPSA27   1        ECLIPA   CA3      CC3161   0.170000       12.0110           0
     28908 LPSA27   1        ECLIPA   HA3      HCA1     0.900000E-01   1.00800           0
     28909 LPSA27   1        ECLIPA   OA3      OC301   -0.490000       15.9994           0
     28910 LPSA27   1        ECLIPA   C31      CL       0.900000       12.0110           0
     28911 LPSA27   1        ECLIPA   O31      OBL     -0.630000       15.9994           0
     28912 LPSA27   1        ECLIPA   C32      CTL2    -0.220000       12.0110           0
     28913 LPSA27   1        ECLIPA   H32R     HAL2     0.900000E-01   1.00800           0
     28914 LPSA27   1        ECLIPA   H32S     HAL2     0.900000E-01   1.00800           0
     28915 LPSA27   1        ECLIPA   CA2      CC3161   0.700000E-01   12.0110           0
     28916 LPSA27   1        ECLIPA   HA2      HCA1     0.900000E-01   1.00800           0
     28917 LPSA27   1        ECLIPA   NA2      NC2D1   -0.470000       14.0070           0
     28918 LPSA27   1        ECLIPA   HNA2     HCP1     0.310000       1.00800           0
     28919 LPSA27   1        ECLIPA   C73      CTL1     0.170000       12.0110           0
     28920 LPSA27   1        ECLIPA   H73R     HAL1     0.900000E-01   1.00800           0
     28921 LPSA27   1        ECLIPA   O73      OSL     -0.490000       15.9994           0
     28922 LPSA27   1        ECLIPA   C81      CL       0.900000       12.0110           0
     28923 LPSA27   1        ECLIPA   O81      OBL     -0.630000       15.9994           0
     28924 LPSA27   1        ECLIPA   C82      CTL2    -0.220000       12.0110           0
     28925 LPSA27   1        ECLIPA   H82R     HAL2     0.900000E-01   1.00800           0
     28926 LPSA27   1        ECLIPA   H82S     HAL2     0.900000E-01   1.00800           0
     28927 LPSA27   1        ECLIPA   C83      CTL2    -0.180000       12.0110           0
     28928 LPSA27   1        ECLIPA   H83R     HAL2     0.900000E-01   1.00800           0
     28929 LPSA27   1        ECLIPA   H83S     HAL2     0.900000E-01   1.00800           0
     28930 LPSA27   1        ECLIPA   C84      CTL2    -0.180000       12.0110           0
     28931 LPSA27   1        ECLIPA   H84R     HAL2     0.900000E-01   1.00800           0
     28932 LPSA27   1        ECLIPA   H84S     HAL2     0.900000E-01   1.00800           0
     28933 LPSA27   1        ECLIPA   C85      CTL2    -0.180000       12.0110           0
     28934 LPSA27   1        ECLIPA   H85R     HAL2     0.900000E-01   1.00800           0
     28935 LPSA27   1        ECLIPA   H85S     HAL2     0.900000E-01   1.00800           0
     28936 LPSA27   1        ECLIPA   C86      CTL2    -0.180000       12.0110           0
     28937 LPSA27   1        ECLIPA   H86R     HAL2     0.900000E-01   1.00800           0
     28938 LPSA27   1        ECLIPA   H86S     HAL2     0.900000E-01   1.00800           0
     28939 LPSA27   1        ECLIPA   C87      CTL2    -0.180000       12.0110           0
     28940 LPSA27   1        ECLIPA   H87R     HAL2     0.900000E-01   1.00800           0
     28941 LPSA27   1        ECLIPA   H87S     HAL2     0.900000E-01   1.00800           0
     28942 LPSA27   1        ECLIPA   C88      CTL2    -0.180000       12.0110           0
     28943 LPSA27   1        ECLIPA   H88R     HAL2     0.900000E-01   1.00800           0
     28944 LPSA27   1        ECLIPA   H88S     HAL2     0.900000E-01   1.00800           0
     28945 LPSA27   1        ECLIPA   C89      CTL2    -0.180000       12.0110           0
     28946 LPSA27   1        ECLIPA   H89R     HAL2     0.900000E-01   1.00800           0
     28947 LPSA27   1        ECLIPA   H89S     HAL2     0.900000E-01   1.00800           0
     28948 LPSA27   1        ECLIPA   C810     CTL2    -0.180000       12.0110           0
     28949 LPSA27   1        ECLIPA   H810R    HAL2     0.900000E-01   1.00800           0
     28950 LPSA27   1        ECLIPA   H810S    HAL2     0.900000E-01   1.00800           0
     28951 LPSA27   1        ECLIPA   C811     CTL2    -0.180000       12.0110           0
     28952 LPSA27   1        ECLIPA   H811R    HAL2     0.900000E-01   1.00800           0
     28953 LPSA27   1        ECLIPA   H811S    HAL2     0.900000E-01   1.00800           0
     28954 LPSA27   1        ECLIPA   C812     CTL2    -0.180000       12.0110           0
     28955 LPSA27   1        ECLIPA   H812R    HAL2     0.900000E-01   1.00800           0
     28956 LPSA27   1        ECLIPA   H812S    HAL2     0.900000E-01   1.00800           0
     28957 LPSA27   1        ECLIPA   C813     CTL2    -0.180000       12.0110           0
     28958 LPSA27   1        ECLIPA   H813R    HAL2     0.900000E-01   1.00800           0
     28959 LPSA27   1        ECLIPA   H813S    HAL2     0.900000E-01   1.00800           0
     28960 LPSA27   1        ECLIPA   C814     CTL3    -0.270000       12.0110           0
     28961 LPSA27   1        ECLIPA   H814R    HAL3     0.900000E-01   1.00800           0
     28962 LPSA27   1        ECLIPA   H814S    HAL3     0.900000E-01   1.00800           0
     28963 LPSA27   1        ECLIPA   H814T    HAL3     0.900000E-01   1.00800           0
     28964 LPSA27   1        ECLIPA   C74      CTL2    -0.180000       12.0110           0
     28965 LPSA27   1        ECLIPA   H74R     HAL2     0.900000E-01   1.00800           0
     28966 LPSA27   1        ECLIPA   H74S     HAL2     0.900000E-01   1.00800           0
     28967 LPSA27   1        ECLIPA   C75      CTL2    -0.180000       12.0110           0
     28968 LPSA27   1        ECLIPA   H75R     HAL2     0.900000E-01   1.00800           0
     28969 LPSA27   1        ECLIPA   H75S     HAL2     0.900000E-01   1.00800           0
     28970 LPSA27   1        ECLIPA   C76      CTL2    -0.180000       12.0110           0
     28971 LPSA27   1        ECLIPA   H76R     HAL2     0.900000E-01   1.00800           0
     28972 LPSA27   1        ECLIPA   H76S     HAL2     0.900000E-01   1.00800           0
     28973 LPSA27   1        ECLIPA   C77      CTL2    -0.180000       12.0110           0
     28974 LPSA27   1        ECLIPA   H77R     HAL2     0.900000E-01   1.00800           0
     28975 LPSA27   1        ECLIPA   H77S     HAL2     0.900000E-01   1.00800           0
     28976 LPSA27   1        ECLIPA   C78      CTL2    -0.180000       12.0110           0
     28977 LPSA27   1        ECLIPA   H78R     HAL2     0.900000E-01   1.00800           0
     28978 LPSA27   1        ECLIPA   H78S     HAL2     0.900000E-01   1.00800           0
     28979 LPSA27   1        ECLIPA   C79      CTL2    -0.180000       12.0110           0
     28980 LPSA27   1        ECLIPA   H79R     HAL2     0.900000E-01   1.00800           0
     28981 LPSA27   1        ECLIPA   H79S     HAL2     0.900000E-01   1.00800           0
     28982 LPSA27   1        ECLIPA   C710     CTL2    -0.180000       12.0110           0
     28983 LPSA27   1        ECLIPA   H710R    HAL2     0.900000E-01   1.00800           0
     28984 LPSA27   1        ECLIPA   H710S    HAL2     0.900000E-01   1.00800           0
     28985 LPSA27   1        ECLIPA   C711     CTL2    -0.180000       12.0110           0
     28986 LPSA27   1        ECLIPA   H711R    HAL2     0.900000E-01   1.00800           0
     28987 LPSA27   1        ECLIPA   H711S    HAL2     0.900000E-01   1.00800           0
     28988 LPSA27   1        ECLIPA   C712     CTL2    -0.180000       12.0110           0
     28989 LPSA27   1        ECLIPA   H712R    HAL2     0.900000E-01   1.00800           0
     28990 LPSA27   1        ECLIPA   H712S    HAL2     0.900000E-01   1.00800           0
     28991 LPSA27   1        ECLIPA   C713     CTL2    -0.180000       12.0110           0
     28992 LPSA27   1        ECLIPA   H713R    HAL2     0.900000E-01   1.00800           0
     28993 LPSA27   1        ECLIPA   H713S    HAL2     0.900000E-01   1.00800           0
     28994 LPSA27   1        ECLIPA   C714     CTL3    -0.270000       12.0110           0
     28995 LPSA27   1        ECLIPA   H714R    HAL3     0.900000E-01   1.00800           0
     28996 LPSA27   1        ECLIPA   H714S    HAL3     0.900000E-01   1.00800           0
     28997 LPSA27   1        ECLIPA   H714T    HAL3     0.900000E-01   1.00800           0
     28998 LPSA27   1        ECLIPA   C51      CC2O1    0.550000       12.0110           0
     28999 LPSA27   1        ECLIPA   O51      OC2D1   -0.550000       15.9994           0
     29000 LPSA27   1        ECLIPA   C52      CTL2    -0.180000       12.0110           0
     29001 LPSA27   1        ECLIPA   H52R     HAL2     0.900000E-01   1.00800           0
     29002 LPSA27   1        ECLIPA   H52S     HAL2     0.900000E-01   1.00800           0
     29003 LPSA27   1        ECLIPA   C53      CTL1     0.170000       12.0110           0
     29004 LPSA27   1        ECLIPA   H53R     HAL1     0.900000E-01   1.00800           0
     29005 LPSA27   1        ECLIPA   O53      OSL     -0.490000       15.9994           0
     29006 LPSA27   1        ECLIPA   C61      CL       0.900000       12.0110           0
     29007 LPSA27   1        ECLIPA   O61      OBL     -0.630000       15.9994           0
     29008 LPSA27   1        ECLIPA   C62      CTL2    -0.220000       12.0110           0
     29009 LPSA27   1        ECLIPA   H62R     HAL2     0.900000E-01   1.00800           0
     29010 LPSA27   1        ECLIPA   H62S     HAL2     0.900000E-01   1.00800           0
     29011 LPSA27   1        ECLIPA   C63      CTL2    -0.180000       12.0110           0
     29012 LPSA27   1        ECLIPA   H63R     HAL2     0.900000E-01   1.00800           0
     29013 LPSA27   1        ECLIPA   H63S     HAL2     0.900000E-01   1.00800           0
     29014 LPSA27   1        ECLIPA   C64      CTL2    -0.180000       12.0110           0
     29015 LPSA27   1        ECLIPA   H64R     HAL2     0.900000E-01   1.00800           0
     29016 LPSA27   1        ECLIPA   H64S     HAL2     0.900000E-01   1.00800           0
     29017 LPSA27   1        ECLIPA   C65      CTL2    -0.180000       12.0110           0
     29018 LPSA27   1        ECLIPA   H65R     HAL2     0.900000E-01   1.00800           0
     29019 LPSA27   1        ECLIPA   H65S     HAL2     0.900000E-01   1.00800           0
     29020 LPSA27   1        ECLIPA   C66      CTL2    -0.180000       12.0110           0
     29021 LPSA27   1        ECLIPA   H66R     HAL2     0.900000E-01   1.00800           0
     29022 LPSA27   1        ECLIPA   H66S     HAL2     0.900000E-01   1.00800           0
     29023 LPSA27   1        ECLIPA   C67      CTL2    -0.180000       12.0110           0
     29024 LPSA27   1        ECLIPA   H67R     HAL2     0.900000E-01   1.00800           0
     29025 LPSA27   1        ECLIPA   H67S     HAL2     0.900000E-01   1.00800           0
     29026 LPSA27   1        ECLIPA   C68      CTL2    -0.180000       12.0110           0
     29027 LPSA27   1        ECLIPA   H68R     HAL2     0.900000E-01   1.00800           0
     29028 LPSA27   1        ECLIPA   H68S     HAL2     0.900000E-01   1.00800           0
     29029 LPSA27   1        ECLIPA   C69      CTL2    -0.180000       12.0110           0
     29030 LPSA27   1        ECLIPA   H69R     HAL2     0.900000E-01   1.00800           0
     29031 LPSA27   1        ECLIPA   H69S     HAL2     0.900000E-01   1.00800           0
     29032 LPSA27   1        ECLIPA   C610     CTL2    -0.180000       12.0110           0
     29033 LPSA27   1        ECLIPA   H610R    HAL2     0.900000E-01   1.00800           0
     29034 LPSA27   1        ECLIPA   H610S    HAL2     0.900000E-01   1.00800           0
     29035 LPSA27   1        ECLIPA   C611     CTL2    -0.180000       12.0110           0
     29036 LPSA27   1        ECLIPA   H611R    HAL2     0.900000E-01   1.00800           0
     29037 LPSA27   1        ECLIPA   H611S    HAL2     0.900000E-01   1.00800           0
     29038 LPSA27   1        ECLIPA   C612     CTL3    -0.270000       12.0110           0
     29039 LPSA27   1        ECLIPA   H612R    HAL3     0.900000E-01   1.00800           0
     29040 LPSA27   1        ECLIPA   H612S    HAL3     0.900000E-01   1.00800           0
     29041 LPSA27   1        ECLIPA   H612T    HAL3     0.900000E-01   1.00800           0
     29042 LPSA27   1        ECLIPA   C54      CTL2    -0.180000       12.0110           0
     29043 LPSA27   1        ECLIPA   H54R     HAL2     0.900000E-01   1.00800           0
     29044 LPSA27   1        ECLIPA   H54S     HAL2     0.900000E-01   1.00800           0
     29045 LPSA27   1        ECLIPA   C55      CTL2    -0.180000       12.0110           0
     29046 LPSA27   1        ECLIPA   H55R     HAL2     0.900000E-01   1.00800           0
     29047 LPSA27   1        ECLIPA   H55S     HAL2     0.900000E-01   1.00800           0
     29048 LPSA27   1        ECLIPA   C56      CTL2    -0.180000       12.0110           0
     29049 LPSA27   1        ECLIPA   H56R     HAL2     0.900000E-01   1.00800           0
     29050 LPSA27   1        ECLIPA   H56S     HAL2     0.900000E-01   1.00800           0
     29051 LPSA27   1        ECLIPA   C57      CTL2    -0.180000       12.0110           0
     29052 LPSA27   1        ECLIPA   H57R     HAL2     0.900000E-01   1.00800           0
     29053 LPSA27   1        ECLIPA   H57S     HAL2     0.900000E-01   1.00800           0
     29054 LPSA27   1        ECLIPA   C58      CTL2    -0.180000       12.0110           0
     29055 LPSA27   1        ECLIPA   H58R     HAL2     0.900000E-01   1.00800           0
     29056 LPSA27   1        ECLIPA   H58S     HAL2     0.900000E-01   1.00800           0
     29057 LPSA27   1        ECLIPA   C59      CTL2    -0.180000       12.0110           0
     29058 LPSA27   1        ECLIPA   H59R     HAL2     0.900000E-01   1.00800           0
     29059 LPSA27   1        ECLIPA   H59S     HAL2     0.900000E-01   1.00800           0
     29060 LPSA27   1        ECLIPA   C510     CTL2    -0.180000       12.0110           0
     29061 LPSA27   1        ECLIPA   H510R    HAL2     0.900000E-01   1.00800           0
     29062 LPSA27   1        ECLIPA   H510S    HAL2     0.900000E-01   1.00800           0
     29063 LPSA27   1        ECLIPA   C511     CTL2    -0.180000       12.0110           0
     29064 LPSA27   1        ECLIPA   H511R    HAL2     0.900000E-01   1.00800           0
     29065 LPSA27   1        ECLIPA   H511S    HAL2     0.900000E-01   1.00800           0
     29066 LPSA27   1        ECLIPA   C512     CTL2    -0.180000       12.0110           0
     29067 LPSA27   1        ECLIPA   H512R    HAL2     0.900000E-01   1.00800           0
     29068 LPSA27   1        ECLIPA   H512S    HAL2     0.900000E-01   1.00800           0
     29069 LPSA27   1        ECLIPA   C513     CTL2    -0.180000       12.0110           0
     29070 LPSA27   1        ECLIPA   H513R    HAL2     0.900000E-01   1.00800           0
     29071 LPSA27   1        ECLIPA   H513S    HAL2     0.900000E-01   1.00800           0
     29072 LPSA27   1        ECLIPA   C514     CTL3    -0.270000       12.0110           0
     29073 LPSA27   1        ECLIPA   H514R    HAL3     0.900000E-01   1.00800           0
     29074 LPSA27   1        ECLIPA   H514S    HAL3     0.900000E-01   1.00800           0
     29075 LPSA27   1        ECLIPA   H514T    HAL3     0.900000E-01   1.00800           0
     29076 LPSA27   1        ECLIPA   C33      CTL1     0.140000       12.0110           0
     29077 LPSA27   1        ECLIPA   H33R     HAL1     0.900000E-01   1.00800           0
     29078 LPSA27   1        ECLIPA   O33      OH1     -0.660000       15.9994           0
     29079 LPSA27   1        ECLIPA   HO33     H        0.430000       1.00800           0
     29080 LPSA27   1        ECLIPA   C34      CTL2    -0.180000       12.0110           0
     29081 LPSA27   1        ECLIPA   H34R     HAL2     0.900000E-01   1.00800           0
     29082 LPSA27   1        ECLIPA   H34S     HAL2     0.900000E-01   1.00800           0
     29083 LPSA27   1        ECLIPA   C35      CTL2    -0.180000       12.0110           0
     29084 LPSA27   1        ECLIPA   H35R     HAL2     0.900000E-01   1.00800           0
     29085 LPSA27   1        ECLIPA   H35S     HAL2     0.900000E-01   1.00800           0
     29086 LPSA27   1        ECLIPA   C36      CTL2    -0.180000       12.0110           0
     29087 LPSA27   1        ECLIPA   H36R     HAL2     0.900000E-01   1.00800           0
     29088 LPSA27   1        ECLIPA   H36S     HAL2     0.900000E-01   1.00800           0
     29089 LPSA27   1        ECLIPA   C37      CTL2    -0.180000       12.0110           0
     29090 LPSA27   1        ECLIPA   H37R     HAL2     0.900000E-01   1.00800           0
     29091 LPSA27   1        ECLIPA   H37S     HAL2     0.900000E-01   1.00800           0
     29092 LPSA27   1        ECLIPA   C38      CTL2    -0.180000       12.0110           0
     29093 LPSA27   1        ECLIPA   H38R     HAL2     0.900000E-01   1.00800           0
     29094 LPSA27   1        ECLIPA   H38S     HAL2     0.900000E-01   1.00800           0
     29095 LPSA27   1        ECLIPA   C39      CTL2    -0.180000       12.0110           0
     29096 LPSA27   1        ECLIPA   H39R     HAL2     0.900000E-01   1.00800           0
     29097 LPSA27   1        ECLIPA   H39S     HAL2     0.900000E-01   1.00800           0
     29098 LPSA27   1        ECLIPA   C310     CTL2    -0.180000       12.0110           0
     29099 LPSA27   1        ECLIPA   H310R    HAL2     0.900000E-01   1.00800           0
     29100 LPSA27   1        ECLIPA   H310S    HAL2     0.900000E-01   1.00800           0
     29101 LPSA27   1        ECLIPA   C311     CTL2    -0.180000       12.0110           0
     29102 LPSA27   1        ECLIPA   H311R    HAL2     0.900000E-01   1.00800           0
     29103 LPSA27   1        ECLIPA   H311S    HAL2     0.900000E-01   1.00800           0
     29104 LPSA27   1        ECLIPA   C312     CTL2    -0.180000       12.0110           0
     29105 LPSA27   1        ECLIPA   H312R    HAL2     0.900000E-01   1.00800           0
     29106 LPSA27   1        ECLIPA   H312S    HAL2     0.900000E-01   1.00800           0
     29107 LPSA27   1        ECLIPA   C313     CTL2    -0.180000       12.0110           0
     29108 LPSA27   1        ECLIPA   H313R    HAL2     0.900000E-01   1.00800           0
     29109 LPSA27   1        ECLIPA   H313S    HAL2     0.900000E-01   1.00800           0
     29110 LPSA27   1        ECLIPA   C314     CTL3    -0.270000       12.0110           0
     29111 LPSA27   1        ECLIPA   H314R    HAL3     0.900000E-01   1.00800           0
     29112 LPSA27   1        ECLIPA   H314S    HAL3     0.900000E-01   1.00800           0
     29113 LPSA27   1        ECLIPA   H314T    HAL3     0.900000E-01   1.00800           0
     29114 LPSA27   1        ECLIPA   C11      CC2O1    0.550000       12.0110           0
     29115 LPSA27   1        ECLIPA   O11      OC2D1   -0.550000       15.9994           0
     29116 LPSA27   1        ECLIPA   C12      CTL2    -0.180000       12.0110           0
     29117 LPSA27   1        ECLIPA   H12R     HAL2     0.900000E-01   1.00800           0
     29118 LPSA27   1        ECLIPA   H12S     HAL2     0.900000E-01   1.00800           0
     29119 LPSA27   1        ECLIPA   C13      CTL1     0.140000       12.0110           0
     29120 LPSA27   1        ECLIPA   H13R     HAL1     0.900000E-01   1.00800           0
     29121 LPSA27   1        ECLIPA   O13      OH1     -0.660000       15.9994           0
     29122 LPSA27   1        ECLIPA   HO13     H        0.430000       1.00800           0
     29123 LPSA27   1        ECLIPA   C14      CTL2    -0.180000       12.0110           0
     29124 LPSA27   1        ECLIPA   H14R     HAL2     0.900000E-01   1.00800           0
     29125 LPSA27   1        ECLIPA   H14S     HAL2     0.900000E-01   1.00800           0
     29126 LPSA27   1        ECLIPA   C15      CTL2    -0.180000       12.0110           0
     29127 LPSA27   1        ECLIPA   H15R     HAL2     0.900000E-01   1.00800           0
     29128 LPSA27   1        ECLIPA   H15S     HAL2     0.900000E-01   1.00800           0
     29129 LPSA27   1        ECLIPA   C16      CTL2    -0.180000       12.0110           0
     29130 LPSA27   1        ECLIPA   H16R     HAL2     0.900000E-01   1.00800           0
     29131 LPSA27   1        ECLIPA   H16S     HAL2     0.900000E-01   1.00800           0
     29132 LPSA27   1        ECLIPA   C17      CTL2    -0.180000       12.0110           0
     29133 LPSA27   1        ECLIPA   H17R     HAL2     0.900000E-01   1.00800           0
     29134 LPSA27   1        ECLIPA   H17S     HAL2     0.900000E-01   1.00800           0
     29135 LPSA27   1        ECLIPA   C18      CTL2    -0.180000       12.0110           0
     29136 LPSA27   1        ECLIPA   H18R     HAL2     0.900000E-01   1.00800           0
     29137 LPSA27   1        ECLIPA   H18S     HAL2     0.900000E-01   1.00800           0
     29138 LPSA27   1        ECLIPA   C19      CTL2    -0.180000       12.0110           0
     29139 LPSA27   1        ECLIPA   H19R     HAL2     0.900000E-01   1.00800           0
     29140 LPSA27   1        ECLIPA   H19S     HAL2     0.900000E-01   1.00800           0
     29141 LPSA27   1        ECLIPA   C110     CTL2    -0.180000       12.0110           0
     29142 LPSA27   1        ECLIPA   H110R    HAL2     0.900000E-01   1.00800           0
     29143 LPSA27   1        ECLIPA   H110S    HAL2     0.900000E-01   1.00800           0
     29144 LPSA27   1        ECLIPA   C111     CTL2    -0.180000       12.0110           0
     29145 LPSA27   1        ECLIPA   H111R    HAL2     0.900000E-01   1.00800           0
     29146 LPSA27   1        ECLIPA   H111S    HAL2     0.900000E-01   1.00800           0
     29147 LPSA27   1        ECLIPA   C112     CTL2    -0.180000       12.0110           0
     29148 LPSA27   1        ECLIPA   H112R    HAL2     0.900000E-01   1.00800           0
     29149 LPSA27   1        ECLIPA   H112S    HAL2     0.900000E-01   1.00800           0
     29150 LPSA27   1        ECLIPA   C113     CTL2    -0.180000       12.0110           0
     29151 LPSA27   1        ECLIPA   H113R    HAL2     0.900000E-01   1.00800           0
     29152 LPSA27   1        ECLIPA   H113S    HAL2     0.900000E-01   1.00800           0
     29153 LPSA27   1        ECLIPA   C114     CTL3    -0.270000       12.0110           0
     29154 LPSA27   1        ECLIPA   H114R    HAL3     0.900000E-01   1.00800           0
     29155 LPSA27   1        ECLIPA   H114S    HAL3     0.900000E-01   1.00800           0
     29156 LPSA27   1        ECLIPA   H114T    HAL3     0.900000E-01   1.00800           0
     29157 LPSA27   2        AKDO     C1       CC2O2    0.300000       12.0110           0
     29158 LPSA27   2        AKDO     O11      OC2D2   -0.600000       15.9994           0
     29159 LPSA27   2        AKDO     O12      OC2D2   -0.600000       15.9994           0
     29160 LPSA27   2        AKDO     C2       CC3062   0.280000       12.0110           0
     29161 LPSA27   2        AKDO     C6       CC3163   0.110000       12.0110           0
     29162 LPSA27   2        AKDO     H6       HCA1     0.900000E-01   1.00800           0
     29163 LPSA27   2        AKDO     O6       OC3C61  -0.400000       15.9994           0
     29164 LPSA27   2        AKDO     C3       CC3261  -0.180000       12.0110           0
     29165 LPSA27   2        AKDO     H31      HCA2     0.900000E-01   1.00800           0
     29166 LPSA27   2        AKDO     H32      HCA2     0.900000E-01   1.00800           0
     29167 LPSA27   2        AKDO     C4       CC3161   0.900000E-01   12.0110           0
     29168 LPSA27   2        AKDO     H4       HCA1     0.900000E-01   1.00800           0
     29169 LPSA27   2        AKDO     O4       OC301   -0.360000       15.9994           0
     29170 LPSA27   2        AKDO     C5       CC3161   0.900000E-01   12.0110           0
     29171 LPSA27   2        AKDO     H5       HCA1     0.900000E-01   1.00800           0
     29172 LPSA27   2        AKDO     O5       OC301   -0.360000       15.9994           0
     29173 LPSA27   2        AKDO     C7       CC312    0.140000       12.0110           0
     29174 LPSA27   2        AKDO     H7       HCA1     0.900000E-01   1.00800           0
     29175 LPSA27   2        AKDO     O7       OC311   -0.650000       15.9994           0
     29176 LPSA27   2        AKDO     HO7      HCP1     0.420000       1.00800           0
     29177 LPSA27   2        AKDO     C8       CC322    0.500000E-01   12.0110           0
     29178 LPSA27   2        AKDO     H81      HCA2     0.900000E-01   1.00800           0
     29179 LPSA27   2        AKDO     H82      HCA2     0.900000E-01   1.00800           0
     29180 LPSA27   2        AKDO     O8       OC311   -0.650000       15.9994           0
     29181 LPSA27   2        AKDO     HO8      HCP1     0.420000       1.00800           0
     29182 LPSA27   3        AKDO     C1       CC2O2    0.300000       12.0110           0
     29183 LPSA27   3        AKDO     O11      OC2D2   -0.600000       15.9994           0
     29184 LPSA27   3        AKDO     O12      OC2D2   -0.600000       15.9994           0
     29185 LPSA27   3        AKDO     C2       CC3062   0.280000       12.0110           0
     29186 LPSA27   3        AKDO     C6       CC3163   0.110000       12.0110           0
     29187 LPSA27   3        AKDO     H6       HCA1     0.900000E-01   1.00800           0
     29188 LPSA27   3        AKDO     O6       OC3C61  -0.400000       15.9994           0
     29189 LPSA27   3        AKDO     C3       CC3261  -0.180000       12.0110           0
     29190 LPSA27   3        AKDO     H31      HCA2     0.900000E-01   1.00800           0
     29191 LPSA27   3        AKDO     H32      HCA2     0.900000E-01   1.00800           0
     29192 LPSA27   3        AKDO     C4       CC3161   0.140000       12.0110           0
     29193 LPSA27   3        AKDO     H4       HCA1     0.900000E-01   1.00800           0
     29194 LPSA27   3        AKDO     O4       OC311   -0.650000       15.9994           0
     29195 LPSA27   3        AKDO     HO4      HCP1     0.420000       1.00800           0
     29196 LPSA27   3        AKDO     C5       CC3161   0.140000       12.0110           0
     29197 LPSA27   3        AKDO     H5       HCA1     0.900000E-01   1.00800           0
     29198 LPSA27   3        AKDO     O5       OC311   -0.650000       15.9994           0
     29199 LPSA27   3        AKDO     HO5      HCP1     0.420000       1.00800           0
     29200 LPSA27   3        AKDO     C7       CC312    0.140000       12.0110           0
     29201 LPSA27   3        AKDO     H7       HCA1     0.900000E-01   1.00800           0
     29202 LPSA27   3        AKDO     O7       OC311   -0.650000       15.9994           0
     29203 LPSA27   3        AKDO     HO7      HCP1     0.420000       1.00800           0
     29204 LPSA27   3        AKDO     C8       CC322    0.500000E-01   12.0110           0
     29205 LPSA27   3        AKDO     H81      HCA2     0.900000E-01   1.00800           0
     29206 LPSA27   3        AKDO     H82      HCA2     0.900000E-01   1.00800           0
     29207 LPSA27   3        AKDO     O8       OC311   -0.650000       15.9994           0
     29208 LPSA27   3        AKDO     HO8      HCP1     0.420000       1.00800           0
     29209 LPSA27   4        AHEP     C1       CC3162   0.290000       12.0110           0
     29210 LPSA27   4        AHEP     H1       HCA1     0.900000E-01   1.00800           0
     29211 LPSA27   4        AHEP     C5       CC3163   0.110000       12.0110           0
     29212 LPSA27   4        AHEP     H5       HCA1     0.900000E-01   1.00800           0
     29213 LPSA27   4        AHEP     O5       OC3C61  -0.400000       15.9994           0
     29214 LPSA27   4        AHEP     C2       CC3161   0.140000       12.0110           0
     29215 LPSA27   4        AHEP     H2       HCA1     0.900000E-01   1.00800           0
     29216 LPSA27   4        AHEP     O2       OC311   -0.650000       15.9994           0
     29217 LPSA27   4        AHEP     HO2      HCP1     0.420000       1.00800           0
     29218 LPSA27   4        AHEP     C3       CC3161   0.900000E-01   12.0110           0
     29219 LPSA27   4        AHEP     H3       HCA1     0.900000E-01   1.00800           0
     29220 LPSA27   4        AHEP     O3       OC301   -0.360000       15.9994           0
     29221 LPSA27   4        AHEP     C4       CC3161  -0.900000E-01   12.0110           0
     29222 LPSA27   4        AHEP     H4       HCA1     0.900000E-01   1.00800           0
     29223 LPSA27   4        AHEP     O4       OC30P   -0.400000       15.9994           0
     29224 LPSA27   4        AHEP     P4       PC        1.10000       30.9740           0
     29225 LPSA27   4        AHEP     OP42     OC2DP   -0.900000       15.9994           0
     29226 LPSA27   4        AHEP     OP43     OC2DP   -0.900000       15.9994           0
     29227 LPSA27   4        AHEP     OP44     OC2DP   -0.900000       15.9994           0
     29228 LPSA27   4        AHEP     C6       CC312    0.140000       12.0110           0
     29229 LPSA27   4        AHEP     H6       HCA1     0.900000E-01   1.00800           0
     29230 LPSA27   4        AHEP     O6       OC311   -0.650000       15.9994           0
     29231 LPSA27   4        AHEP     HO6      HCP1     0.420000       1.00800           0
     29232 LPSA27   4        AHEP     C7       CC322    0.500000E-01   12.0110           0
     29233 LPSA27   4        AHEP     H71      HCA2     0.900000E-01   1.00800           0
     29234 LPSA27   4        AHEP     H72      HCA2     0.900000E-01   1.00800           0
     29235 LPSA27   4        AHEP     O7       OC311   -0.650000       15.9994           0
     29236 LPSA27   4        AHEP     HO7      HCP1     0.420000       1.00800           0
     29237 LPSA27   5        AHEP     C1       CC3162   0.290000       12.0110           0
     29238 LPSA27   5        AHEP     H1       HCA1     0.900000E-01   1.00800           0
     29239 LPSA27   5        AHEP     C5       CC3163   0.110000       12.0110           0
     29240 LPSA27   5        AHEP     H5       HCA1     0.900000E-01   1.00800           0
     29241 LPSA27   5        AHEP     O5       OC3C61  -0.400000       15.9994           0
     29242 LPSA27   5        AHEP     C2       CC3161   0.140000       12.0110           0
     29243 LPSA27   5        AHEP     H2       HCA1     0.900000E-01   1.00800           0
     29244 LPSA27   5        AHEP     O2       OC311   -0.650000       15.9994           0
     29245 LPSA27   5        AHEP     HO2      HCP1     0.420000       1.00800           0
     29246 LPSA27   5        AHEP     C3       CC3161   0.900000E-01   12.0110           0
     29247 LPSA27   5        AHEP     H3       HCA1     0.900000E-01   1.00800           0
     29248 LPSA27   5        AHEP     O3       OC301   -0.360000       15.9994           0
     29249 LPSA27   5        AHEP     C4       CC3161  -0.900000E-01   12.0110           0
     29250 LPSA27   5        AHEP     H4       HCA1     0.900000E-01   1.00800           0
     29251 LPSA27   5        AHEP     O4       OC30P   -0.400000       15.9994           0
     29252 LPSA27   5        AHEP     P4       PC        1.10000       30.9740           0
     29253 LPSA27   5        AHEP     OP42     OC2DP   -0.900000       15.9994           0
     29254 LPSA27   5        AHEP     OP43     OC2DP   -0.900000       15.9994           0
     29255 LPSA27   5        AHEP     OP44     OC2DP   -0.900000       15.9994           0
     29256 LPSA27   5        AHEP     C6       CC312    0.140000       12.0110           0
     29257 LPSA27   5        AHEP     H6       HCA1     0.900000E-01   1.00800           0
     29258 LPSA27   5        AHEP     O6       OC311   -0.650000       15.9994           0
     29259 LPSA27   5        AHEP     HO6      HCP1     0.420000       1.00800           0
     29260 LPSA27   5        AHEP     C7       CC322     0.00000       12.0110           0
     29261 LPSA27   5        AHEP     H71      HCA2     0.900000E-01   1.00800           0
     29262 LPSA27   5        AHEP     H72      HCA2     0.900000E-01   1.00800           0
     29263 LPSA27   5        AHEP     O7       OC301   -0.360000       15.9994           0
     29264 LPSA27   6        AHEP     C1       CC3162   0.290000       12.0110           0
     29265 LPSA27   6        AHEP     H1       HCA1     0.900000E-01   1.00800           0
     29266 LPSA27   6        AHEP     C5       CC3163   0.110000       12.0110           0
     29267 LPSA27   6        AHEP     H5       HCA1     0.900000E-01   1.00800           0
     29268 LPSA27   6        AHEP     O5       OC3C61  -0.400000       15.9994           0
     29269 LPSA27   6        AHEP     C2       CC3161   0.140000       12.0110           0
     29270 LPSA27   6        AHEP     H2       HCA1     0.900000E-01   1.00800           0
     29271 LPSA27   6        AHEP     O2       OC311   -0.650000       15.9994           0
     29272 LPSA27   6        AHEP     HO2      HCP1     0.420000       1.00800           0
     29273 LPSA27   6        AHEP     C3       CC3161   0.140000       12.0110           0
     29274 LPSA27   6        AHEP     H3       HCA1     0.900000E-01   1.00800           0
     29275 LPSA27   6        AHEP     O3       OC311   -0.650000       15.9994           0
     29276 LPSA27   6        AHEP     HO3      HCP1     0.420000       1.00800           0
     29277 LPSA27   6        AHEP     C4       CC3161   0.140000       12.0110           0
     29278 LPSA27   6        AHEP     H4       HCA1     0.900000E-01   1.00800           0
     29279 LPSA27   6        AHEP     O4       OC311   -0.650000       15.9994           0
     29280 LPSA27   6        AHEP     HO4      HCP1     0.420000       1.00800           0
     29281 LPSA27   6        AHEP     C6       CC312    0.140000       12.0110           0
     29282 LPSA27   6        AHEP     H6       HCA1     0.900000E-01   1.00800           0
     29283 LPSA27   6        AHEP     O6       OC311   -0.650000       15.9994           0
     29284 LPSA27   6        AHEP     HO6      HCP1     0.420000       1.00800           0
     29285 LPSA27   6        AHEP     C7       CC322    0.500000E-01   12.0110           0
     29286 LPSA27   6        AHEP     H71      HCA2     0.900000E-01   1.00800           0
     29287 LPSA27   6        AHEP     H72      HCA2     0.900000E-01   1.00800           0
     29288 LPSA27   6        AHEP     O7       OC311   -0.650000       15.9994           0
     29289 LPSA27   6        AHEP     HO7      HCP1     0.420000       1.00800           0
     29290 LPSA27   7        AGLC     C1       CC3162   0.290000       12.0110           0
     29291 LPSA27   7        AGLC     H1       HCA1     0.900000E-01   1.00800           0
     29292 LPSA27   7        AGLC     C5       CC3163   0.110000       12.0110           0
     29293 LPSA27   7        AGLC     H5       HCA1     0.900000E-01   1.00800           0
     29294 LPSA27   7        AGLC     O5       OC3C61  -0.400000       15.9994           0
     29295 LPSA27   7        AGLC     C2       CC3161   0.140000       12.0110           0
     29296 LPSA27   7        AGLC     H2       HCA1     0.900000E-01   1.00800           0
     29297 LPSA27   7        AGLC     O2       OC311   -0.650000       15.9994           0
     29298 LPSA27   7        AGLC     HO2      HCP1     0.420000       1.00800           0
     29299 LPSA27   7        AGLC     C3       CC3161   0.900000E-01   12.0110           0
     29300 LPSA27   7        AGLC     H3       HCA1     0.900000E-01   1.00800           0
     29301 LPSA27   7        AGLC     O3       OC301   -0.360000       15.9994           0
     29302 LPSA27   7        AGLC     C4       CC3161   0.140000       12.0110           0
     29303 LPSA27   7        AGLC     H4       HCA1     0.900000E-01   1.00800           0
     29304 LPSA27   7        AGLC     O4       OC311   -0.650000       15.9994           0
     29305 LPSA27   7        AGLC     HO4      HCP1     0.420000       1.00800           0
     29306 LPSA27   7        AGLC     C6       CC321    0.500000E-01   12.0110           0
     29307 LPSA27   7        AGLC     H61      HCA2     0.900000E-01   1.00800           0
     29308 LPSA27   7        AGLC     H62      HCA2     0.900000E-01   1.00800           0
     29309 LPSA27   7        AGLC     O6       OC311   -0.650000       15.9994           0
     29310 LPSA27   7        AGLC     HO6      HCP1     0.420000       1.00800           0
     29311 LPSA27   8        AGLC     C1       CC3162   0.290000       12.0110           0
     29312 LPSA27   8        AGLC     H1       HCA1     0.900000E-01   1.00800           0
     29313 LPSA27   8        AGLC     C5       CC3163   0.110000       12.0110           0
     29314 LPSA27   8        AGLC     H5       HCA1     0.900000E-01   1.00800           0
     29315 LPSA27   8        AGLC     O5       OC3C61  -0.400000       15.9994           0
     29316 LPSA27   8        AGLC     C2       CC3161   0.900000E-01   12.0110           0
     29317 LPSA27   8        AGLC     H2       HCA1     0.900000E-01   1.00800           0
     29318 LPSA27   8        AGLC     O2       OC301   -0.360000       15.9994           0
     29319 LPSA27   8        AGLC     C3       CC3161   0.900000E-01   12.0110           0
     29320 LPSA27   8        AGLC     H3       HCA1     0.900000E-01   1.00800           0
     29321 LPSA27   8        AGLC     O3       OC301   -0.360000       15.9994           0
     29322 LPSA27   8        AGLC     C4       CC3161   0.140000       12.0110           0
     29323 LPSA27   8        AGLC     H4       HCA1     0.900000E-01   1.00800           0
     29324 LPSA27   8        AGLC     O4       OC311   -0.650000       15.9994           0
     29325 LPSA27   8        AGLC     HO4      HCP1     0.420000       1.00800           0
     29326 LPSA27   8        AGLC     C6       CC321    0.500000E-01   12.0110           0
     29327 LPSA27   8        AGLC     H61      HCA2     0.900000E-01   1.00800           0
     29328 LPSA27   8        AGLC     H62      HCA2     0.900000E-01   1.00800           0
     29329 LPSA27   8        AGLC     O6       OC311   -0.650000       15.9994           0
     29330 LPSA27   8        AGLC     HO6      HCP1     0.420000       1.00800           0
     29331 LPSA27   9        AGAL     C1       CC3162   0.290000       12.0110           0
     29332 LPSA27   9        AGAL     H1       HCA1     0.900000E-01   1.00800           0
     29333 LPSA27   9        AGAL     C5       CC3163   0.110000       12.0110           0
     29334 LPSA27   9        AGAL     H5       HCA1     0.900000E-01   1.00800           0
     29335 LPSA27   9        AGAL     O5       OC3C61  -0.400000       15.9994           0
     29336 LPSA27   9        AGAL     C2       CC3161   0.900000E-01   12.0110           0
     29337 LPSA27   9        AGAL     H2       HCA1     0.900000E-01   1.00800           0
     29338 LPSA27   9        AGAL     O2       OC301   -0.360000       15.9994           0
     29339 LPSA27   9        AGAL     C3       CC3161   0.140000       12.0110           0
     29340 LPSA27   9        AGAL     H3       HCA1     0.900000E-01   1.00800           0
     29341 LPSA27   9        AGAL     O3       OC311   -0.650000       15.9994           0
     29342 LPSA27   9        AGAL     HO3      HCP1     0.420000       1.00800           0
     29343 LPSA27   9        AGAL     C4       CC3161   0.140000       12.0110           0
     29344 LPSA27   9        AGAL     H4       HCA1     0.900000E-01   1.00800           0
     29345 LPSA27   9        AGAL     O4       OC311   -0.650000       15.9994           0
     29346 LPSA27   9        AGAL     HO4      HCP1     0.420000       1.00800           0
     29347 LPSA27   9        AGAL     C6       CC321    0.500000E-01   12.0110           0
     29348 LPSA27   9        AGAL     H61      HCA2     0.900000E-01   1.00800           0
     29349 LPSA27   9        AGAL     H62      HCA2     0.900000E-01   1.00800           0
     29350 LPSA27   9        AGAL     O6       OC311   -0.650000       15.9994           0
     29351 LPSA27   9        AGAL     HO6      HCP1     0.420000       1.00800           0
     29352 LPSA27   10       AGAL     C1       CC3162   0.290000       12.0110           0
     29353 LPSA27   10       AGAL     H1       HCA1     0.900000E-01   1.00800           0
     29354 LPSA27   10       AGAL     C5       CC3163   0.110000       12.0110           0
     29355 LPSA27   10       AGAL     H5       HCA1     0.900000E-01   1.00800           0
     29356 LPSA27   10       AGAL     O5       OC3C61  -0.400000       15.9994           0
     29357 LPSA27   10       AGAL     C2       CC3161   0.140000       12.0110           0
     29358 LPSA27   10       AGAL     H2       HCA1     0.900000E-01   1.00800           0
     29359 LPSA27   10       AGAL     O2       OC311   -0.650000       15.9994           0
     29360 LPSA27   10       AGAL     HO2      HCP1     0.420000       1.00800           0
     29361 LPSA27   10       AGAL     C3       CC3161   0.140000       12.0110           0
     29362 LPSA27   10       AGAL     H3       HCA1     0.900000E-01   1.00800           0
     29363 LPSA27   10       AGAL     O3       OC311   -0.650000       15.9994           0
     29364 LPSA27   10       AGAL     HO3      HCP1     0.420000       1.00800           0
     29365 LPSA27   10       AGAL     C4       CC3161   0.140000       12.0110           0
     29366 LPSA27   10       AGAL     H4       HCA1     0.900000E-01   1.00800           0
     29367 LPSA27   10       AGAL     O4       OC311   -0.650000       15.9994           0
     29368 LPSA27   10       AGAL     HO4      HCP1     0.420000       1.00800           0
     29369 LPSA27   10       AGAL     C6       CC321    0.500000E-01   12.0110           0
     29370 LPSA27   10       AGAL     H61      HCA2     0.900000E-01   1.00800           0
     29371 LPSA27   10       AGAL     H62      HCA2     0.900000E-01   1.00800           0
     29372 LPSA27   10       AGAL     O6       OC311   -0.650000       15.9994           0
     29373 LPSA27   10       AGAL     HO6      HCP1     0.420000       1.00800           0
     29374 LPSA27   11       BGLC     C1       CC3162   0.290000       12.0110           0
     29375 LPSA27   11       BGLC     H1       HCA1     0.900000E-01   1.00800           0
     29376 LPSA27   11       BGLC     C5       CC3163   0.110000       12.0110           0
     29377 LPSA27   11       BGLC     H5       HCA1     0.900000E-01   1.00800           0
     29378 LPSA27   11       BGLC     O5       OC3C61  -0.400000       15.9994           0
     29379 LPSA27   11       BGLC     C2       CC3161   0.140000       12.0110           0
     29380 LPSA27   11       BGLC     H2       HCA1     0.900000E-01   1.00800           0
     29381 LPSA27   11       BGLC     O2       OC311   -0.650000       15.9994           0
     29382 LPSA27   11       BGLC     HO2      HCP1     0.420000       1.00800           0
     29383 LPSA27   11       BGLC     C3       CC3161   0.900000E-01   12.0110           0
     29384 LPSA27   11       BGLC     H3       HCA1     0.900000E-01   1.00800           0
     29385 LPSA27   11       BGLC     O3       OC301   -0.360000       15.9994           0
     29386 LPSA27   11       BGLC     C4       CC3161   0.140000       12.0110           0
     29387 LPSA27   11       BGLC     H4       HCA1     0.900000E-01   1.00800           0
     29388 LPSA27   11       BGLC     O4       OC311   -0.650000       15.9994           0
     29389 LPSA27   11       BGLC     HO4      HCP1     0.420000       1.00800           0
     29390 LPSA27   11       BGLC     C6       CC321    0.500000E-01   12.0110           0
     29391 LPSA27   11       BGLC     H61      HCA2     0.900000E-01   1.00800           0
     29392 LPSA27   11       BGLC     H62      HCA2     0.900000E-01   1.00800           0
     29393 LPSA27   11       BGLC     O6       OC311   -0.650000       15.9994           0
     29394 LPSA27   11       BGLC     HO6      HCP1     0.420000       1.00800           0
     29395 LPSA27   12       BGLCNA   C1       CC3162   0.290000       12.0110           0
     29396 LPSA27   12       BGLCNA   H1       HCA1     0.900000E-01   1.00800           0
     29397 LPSA27   12       BGLCNA   C5       CC3163   0.110000       12.0110           0
     29398 LPSA27   12       BGLCNA   H5       HCA1     0.900000E-01   1.00800           0
     29399 LPSA27   12       BGLCNA   O5       OC3C61  -0.400000       15.9994           0
     29400 LPSA27   12       BGLCNA   C2       CC3161   0.700000E-01   12.0110           0
     29401 LPSA27   12       BGLCNA   H2       HCA1     0.900000E-01   1.00800           0
     29402 LPSA27   12       BGLCNA   N        NC2D1   -0.470000       14.0070           0
     29403 LPSA27   12       BGLCNA   HN       HCP1     0.310000       1.00800           0
     29404 LPSA27   12       BGLCNA   C        CC2O1    0.510000       12.0110           0
     29405 LPSA27   12       BGLCNA   O        OC2D1   -0.510000       15.9994           0
     29406 LPSA27   12       BGLCNA   CT       CC331   -0.270000       12.0110           0
     29407 LPSA27   12       BGLCNA   HT1      HCA3     0.900000E-01   1.00800           0
     29408 LPSA27   12       BGLCNA   HT2      HCA3     0.900000E-01   1.00800           0
     29409 LPSA27   12       BGLCNA   HT3      HCA3     0.900000E-01   1.00800           0
     29410 LPSA27   12       BGLCNA   C3       CC3161   0.900000E-01   12.0110           0
     29411 LPSA27   12       BGLCNA   H3       HCA1     0.900000E-01   1.00800           0
     29412 LPSA27   12       BGLCNA   O3       OC301   -0.360000       15.9994           0
     29413 LPSA27   12       BGLCNA   C4       CC3161   0.140000       12.0110           0
     29414 LPSA27   12       BGLCNA   H4       HCA1     0.900000E-01   1.00800           0
     29415 LPSA27   12       BGLCNA   O4       OC311   -0.650000       15.9994           0
     29416 LPSA27   12       BGLCNA   HO4      HCP1     0.420000       1.00800           0
     29417 LPSA27   12       BGLCNA   C6       CC321    0.500000E-01   12.0110           0
     29418 LPSA27   12       BGLCNA   H61      HCA2     0.900000E-01   1.00800           0
     29419 LPSA27   12       BGLCNA   H62      HCA2     0.900000E-01   1.00800           0
     29420 LPSA27   12       BGLCNA   O6       OC311   -0.650000       15.9994           0
     29421 LPSA27   12       BGLCNA   HO6      HCP1     0.420000       1.00800           0
     29422 LPSA27   13       AGAL     C1       CC3162   0.290000       12.0110           0
     29423 LPSA27   13       AGAL     H1       HCA1     0.900000E-01   1.00800           0
     29424 LPSA27   13       AGAL     C5       CC3163   0.110000       12.0110           0
     29425 LPSA27   13       AGAL     H5       HCA1     0.900000E-01   1.00800           0
     29426 LPSA27   13       AGAL     O5       OC3C61  -0.400000       15.9994           0
     29427 LPSA27   13       AGAL     C2       CC3161   0.900000E-01   12.0110           0
     29428 LPSA27   13       AGAL     H2       HCA1     0.900000E-01   1.00800           0
     29429 LPSA27   13       AGAL     O2       OC301   -0.360000       15.9994           0
     29430 LPSA27   13       AGAL     C3       CC3161   0.140000       12.0110           0
     29431 LPSA27   13       AGAL     H3       HCA1     0.900000E-01   1.00800           0
     29432 LPSA27   13       AGAL     O3       OC311   -0.650000       15.9994           0
     29433 LPSA27   13       AGAL     HO3      HCP1     0.420000       1.00800           0
     29434 LPSA27   13       AGAL     C4       CC3161   0.140000       12.0110           0
     29435 LPSA27   13       AGAL     H4       HCA1     0.900000E-01   1.00800           0
     29436 LPSA27   13       AGAL     O4       OC311   -0.650000       15.9994           0
     29437 LPSA27   13       AGAL     HO4      HCP1     0.420000       1.00800           0
     29438 LPSA27   13       AGAL     C6       CC321    0.500000E-01   12.0110           0
     29439 LPSA27   13       AGAL     H61      HCA2     0.900000E-01   1.00800           0
     29440 LPSA27   13       AGAL     H62      HCA2     0.900000E-01   1.00800           0
     29441 LPSA27   13       AGAL     O6       OC311   -0.650000       15.9994           0
     29442 LPSA27   13       AGAL     HO6      HCP1     0.420000       1.00800           0
     29443 LPSA27   14       ARHM     C1       CC3162   0.290000       12.0110           0
     29444 LPSA27   14       ARHM     H1       HCA1     0.900000E-01   1.00800           0
     29445 LPSA27   14       ARHM     C5       CC3163   0.110000       12.0110           0
     29446 LPSA27   14       ARHM     H5       HCA1     0.900000E-01   1.00800           0
     29447 LPSA27   14       ARHM     O5       OC3C61  -0.400000       15.9994           0
     29448 LPSA27   14       ARHM     C2       CC3161   0.900000E-01   12.0110           0
     29449 LPSA27   14       ARHM     H2       HCA1     0.900000E-01   1.00800           0
     29450 LPSA27   14       ARHM     O2       OC301   -0.360000       15.9994           0
     29451 LPSA27   14       ARHM     C3       CC3161   0.140000       12.0110           0
     29452 LPSA27   14       ARHM     H3       HCA1     0.900000E-01   1.00800           0
     29453 LPSA27   14       ARHM     O3       OC311   -0.650000       15.9994           0
     29454 LPSA27   14       ARHM     HO3      HCP1     0.420000       1.00800           0
     29455 LPSA27   14       ARHM     C4       CC3161   0.140000       12.0110           0
     29456 LPSA27   14       ARHM     H4       HCA1     0.900000E-01   1.00800           0
     29457 LPSA27   14       ARHM     O4       OC311   -0.650000       15.9994           0
     29458 LPSA27   14       ARHM     HO4      HCP1     0.420000       1.00800           0
     29459 LPSA27   14       ARHM     C6       CC331   -0.270000       12.0110           0
     29460 LPSA27   14       ARHM     H61      HCA3     0.900000E-01   1.00800           0
     29461 LPSA27   14       ARHM     H62      HCA3     0.900000E-01   1.00800           0
     29462 LPSA27   14       ARHM     H63      HCA3     0.900000E-01   1.00800           0
     29463 LPSA27   15       ARHM     C1       CC3162   0.290000       12.0110           0
     29464 LPSA27   15       ARHM     H1       HCA1     0.900000E-01   1.00800           0
     29465 LPSA27   15       ARHM     C5       CC3163   0.110000       12.0110           0
     29466 LPSA27   15       ARHM     H5       HCA1     0.900000E-01   1.00800           0
     29467 LPSA27   15       ARHM     O5       OC3C61  -0.400000       15.9994           0
     29468 LPSA27   15       ARHM     C2       CC3161   0.900000E-01   12.0110           0
     29469 LPSA27   15       ARHM     H2       HCA1     0.900000E-01   1.00800           0
     29470 LPSA27   15       ARHM     O2       OC301   -0.360000       15.9994           0
     29471 LPSA27   15       ARHM     C3       CC3161   0.900000E-01   12.0110           0
     29472 LPSA27   15       ARHM     H3       HCA1     0.900000E-01   1.00800           0
     29473 LPSA27   15       ARHM     O3       OC301   -0.360000       15.9994           0
     29474 LPSA27   15       ARHM     C4       CC3161   0.140000       12.0110           0
     29475 LPSA27   15       ARHM     H4       HCA1     0.900000E-01   1.00800           0
     29476 LPSA27   15       ARHM     O4       OC311   -0.650000       15.9994           0
     29477 LPSA27   15       ARHM     HO4      HCP1     0.420000       1.00800           0
     29478 LPSA27   15       ARHM     C6       CC331   -0.270000       12.0110           0
     29479 LPSA27   15       ARHM     H61      HCA3     0.900000E-01   1.00800           0
     29480 LPSA27   15       ARHM     H62      HCA3     0.900000E-01   1.00800           0
     29481 LPSA27   15       ARHM     H63      HCA3     0.900000E-01   1.00800           0
     29482 LPSA27   16       BMANNA   C1       CC3162   0.290000       12.0110           0
     29483 LPSA27   16       BMANNA   H1       HCA1     0.900000E-01   1.00800           0
     29484 LPSA27   16       BMANNA   C5       CC3163   0.110000       12.0110           0
     29485 LPSA27   16       BMANNA   H5       HCA1     0.900000E-01   1.00800           0
     29486 LPSA27   16       BMANNA   O5       OC3C61  -0.400000       15.9994           0
     29487 LPSA27   16       BMANNA   C2       CC3161   0.700000E-01   12.0110           0
     29488 LPSA27   16       BMANNA   H2       HCA1     0.900000E-01   1.00800           0
     29489 LPSA27   16       BMANNA   N        NC2D1   -0.470000       14.0070           0
     29490 LPSA27   16       BMANNA   HN       HCP1     0.310000       1.00800           0
     29491 LPSA27   16       BMANNA   C        CC2O1    0.510000       12.0110           0
     29492 LPSA27   16       BMANNA   O        OC2D1   -0.510000       15.9994           0
     29493 LPSA27   16       BMANNA   CT       CC331   -0.270000       12.0110           0
     29494 LPSA27   16       BMANNA   HT1      HCA3     0.900000E-01   1.00800           0
     29495 LPSA27   16       BMANNA   HT2      HCA3     0.900000E-01   1.00800           0
     29496 LPSA27   16       BMANNA   HT3      HCA3     0.900000E-01   1.00800           0
     29497 LPSA27   16       BMANNA   C3       CC3161   0.140000       12.0110           0
     29498 LPSA27   16       BMANNA   H3       HCA1     0.900000E-01   1.00800           0
     29499 LPSA27   16       BMANNA   O3       OC311   -0.650000       15.9994           0
     29500 LPSA27   16       BMANNA   HO3      HCP1     0.420000       1.00800           0
     29501 LPSA27   16       BMANNA   C4       CC3161   0.140000       12.0110           0
     29502 LPSA27   16       BMANNA   H4       HCA1     0.900000E-01   1.00800           0
     29503 LPSA27   16       BMANNA   O4       OC311   -0.650000       15.9994           0
     29504 LPSA27   16       BMANNA   HO4      HCP1     0.420000       1.00800           0
     29505 LPSA27   16       BMANNA   C6       CC321    0.500000E-01   12.0110           0
     29506 LPSA27   16       BMANNA   H61      HCA2     0.900000E-01   1.00800           0
     29507 LPSA27   16       BMANNA   H62      HCA2     0.900000E-01   1.00800           0
     29508 LPSA27   16       BMANNA   O6       OC311   -0.650000       15.9994           0
     29509 LPSA27   16       BMANNA   HO6      HCP1     0.420000       1.00800           0
     29510 LPSA27   17       BGLCNA   C1       CC3162   0.290000       12.0110           0
     29511 LPSA27   17       BGLCNA   H1       HCA1     0.900000E-01   1.00800           0
     29512 LPSA27   17       BGLCNA   C5       CC3163   0.110000       12.0110           0
     29513 LPSA27   17       BGLCNA   H5       HCA1     0.900000E-01   1.00800           0
     29514 LPSA27   17       BGLCNA   O5       OC3C61  -0.400000       15.9994           0
     29515 LPSA27   17       BGLCNA   C2       CC3161   0.700000E-01   12.0110           0
     29516 LPSA27   17       BGLCNA   H2       HCA1     0.900000E-01   1.00800           0
     29517 LPSA27   17       BGLCNA   N        NC2D1   -0.470000       14.0070           0
     29518 LPSA27   17       BGLCNA   HN       HCP1     0.310000       1.00800           0
     29519 LPSA27   17       BGLCNA   C        CC2O1    0.510000       12.0110           0
     29520 LPSA27   17       BGLCNA   O        OC2D1   -0.510000       15.9994           0
     29521 LPSA27   17       BGLCNA   CT       CC331   -0.270000       12.0110           0
     29522 LPSA27   17       BGLCNA   HT1      HCA3     0.900000E-01   1.00800           0
     29523 LPSA27   17       BGLCNA   HT2      HCA3     0.900000E-01   1.00800           0
     29524 LPSA27   17       BGLCNA   HT3      HCA3     0.900000E-01   1.00800           0
     29525 LPSA27   17       BGLCNA   C3       CC3161   0.900000E-01   12.0110           0
     29526 LPSA27   17       BGLCNA   H3       HCA1     0.900000E-01   1.00800           0
     29527 LPSA27   17       BGLCNA   O3       OC301   -0.360000       15.9994           0
     29528 LPSA27   17       BGLCNA   C4       CC3161   0.140000       12.0110           0
     29529 LPSA27   17       BGLCNA   H4       HCA1     0.900000E-01   1.00800           0
     29530 LPSA27   17       BGLCNA   O4       OC311   -0.650000       15.9994           0
     29531 LPSA27   17       BGLCNA   HO4      HCP1     0.420000       1.00800           0
     29532 LPSA27   17       BGLCNA   C6       CC321    0.500000E-01   12.0110           0
     29533 LPSA27   17       BGLCNA   H61      HCA2     0.900000E-01   1.00800           0
     29534 LPSA27   17       BGLCNA   H62      HCA2     0.900000E-01   1.00800           0
     29535 LPSA27   17       BGLCNA   O6       OC311   -0.650000       15.9994           0
     29536 LPSA27   17       BGLCNA   HO6      HCP1     0.420000       1.00800           0
     29537 LPSA27   18       AGAL     C1       CC3162   0.290000       12.0110           0
     29538 LPSA27   18       AGAL     H1       HCA1     0.900000E-01   1.00800           0
     29539 LPSA27   18       AGAL     C5       CC3163   0.110000       12.0110           0
     29540 LPSA27   18       AGAL     H5       HCA1     0.900000E-01   1.00800           0
     29541 LPSA27   18       AGAL     O5       OC3C61  -0.400000       15.9994           0
     29542 LPSA27   18       AGAL     C2       CC3161   0.900000E-01   12.0110           0
     29543 LPSA27   18       AGAL     H2       HCA1     0.900000E-01   1.00800           0
     29544 LPSA27   18       AGAL     O2       OC301   -0.360000       15.9994           0
     29545 LPSA27   18       AGAL     C3       CC3161   0.140000       12.0110           0
     29546 LPSA27   18       AGAL     H3       HCA1     0.900000E-01   1.00800           0
     29547 LPSA27   18       AGAL     O3       OC311   -0.650000       15.9994           0
     29548 LPSA27   18       AGAL     HO3      HCP1     0.420000       1.00800           0
     29549 LPSA27   18       AGAL     C4       CC3161   0.140000       12.0110           0
     29550 LPSA27   18       AGAL     H4       HCA1     0.900000E-01   1.00800           0
     29551 LPSA27   18       AGAL     O4       OC311   -0.650000       15.9994           0
     29552 LPSA27   18       AGAL     HO4      HCP1     0.420000       1.00800           0
     29553 LPSA27   18       AGAL     C6       CC321    0.500000E-01   12.0110           0
     29554 LPSA27   18       AGAL     H61      HCA2     0.900000E-01   1.00800           0
     29555 LPSA27   18       AGAL     H62      HCA2     0.900000E-01   1.00800           0
     29556 LPSA27   18       AGAL     O6       OC311   -0.650000       15.9994           0
     29557 LPSA27   18       AGAL     HO6      HCP1     0.420000       1.00800           0
     29558 LPSA27   19       ARHM     C1       CC3162   0.290000       12.0110           0
     29559 LPSA27   19       ARHM     H1       HCA1     0.900000E-01   1.00800           0
     29560 LPSA27   19       ARHM     C5       CC3163   0.110000       12.0110           0
     29561 LPSA27   19       ARHM     H5       HCA1     0.900000E-01   1.00800           0
     29562 LPSA27   19       ARHM     O5       OC3C61  -0.400000       15.9994           0
     29563 LPSA27   19       ARHM     C2       CC3161   0.900000E-01   12.0110           0
     29564 LPSA27   19       ARHM     H2       HCA1     0.900000E-01   1.00800           0
     29565 LPSA27   19       ARHM     O2       OC301   -0.360000       15.9994           0
     29566 LPSA27   19       ARHM     C3       CC3161   0.140000       12.0110           0
     29567 LPSA27   19       ARHM     H3       HCA1     0.900000E-01   1.00800           0
     29568 LPSA27   19       ARHM     O3       OC311   -0.650000       15.9994           0
     29569 LPSA27   19       ARHM     HO3      HCP1     0.420000       1.00800           0
     29570 LPSA27   19       ARHM     C4       CC3161   0.140000       12.0110           0
     29571 LPSA27   19       ARHM     H4       HCA1     0.900000E-01   1.00800           0
     29572 LPSA27   19       ARHM     O4       OC311   -0.650000       15.9994           0
     29573 LPSA27   19       ARHM     HO4      HCP1     0.420000       1.00800           0
     29574 LPSA27   19       ARHM     C6       CC331   -0.270000       12.0110           0
     29575 LPSA27   19       ARHM     H61      HCA3     0.900000E-01   1.00800           0
     29576 LPSA27   19       ARHM     H62      HCA3     0.900000E-01   1.00800           0
     29577 LPSA27   19       ARHM     H63      HCA3     0.900000E-01   1.00800           0
     29578 LPSA27   20       ARHM     C1       CC3162   0.290000       12.0110           0
     29579 LPSA27   20       ARHM     H1       HCA1     0.900000E-01   1.00800           0
     29580 LPSA27   20       ARHM     C5       CC3163   0.110000       12.0110           0
     29581 LPSA27   20       ARHM     H5       HCA1     0.900000E-01   1.00800           0
     29582 LPSA27   20       ARHM     O5       OC3C61  -0.400000       15.9994           0
     29583 LPSA27   20       ARHM     C2       CC3161   0.900000E-01   12.0110           0
     29584 LPSA27   20       ARHM     H2       HCA1     0.900000E-01   1.00800           0
     29585 LPSA27   20       ARHM     O2       OC301   -0.360000       15.9994           0
     29586 LPSA27   20       ARHM     C3       CC3161   0.900000E-01   12.0110           0
     29587 LPSA27   20       ARHM     H3       HCA1     0.900000E-01   1.00800           0
     29588 LPSA27   20       ARHM     O3       OC301   -0.360000       15.9994           0
     29589 LPSA27   20       ARHM     C4       CC3161   0.140000       12.0110           0
     29590 LPSA27   20       ARHM     H4       HCA1     0.900000E-01   1.00800           0
     29591 LPSA27   20       ARHM     O4       OC311   -0.650000       15.9994           0
     29592 LPSA27   20       ARHM     HO4      HCP1     0.420000       1.00800           0
     29593 LPSA27   20       ARHM     C6       CC331   -0.270000       12.0110           0
     29594 LPSA27   20       ARHM     H61      HCA3     0.900000E-01   1.00800           0
     29595 LPSA27   20       ARHM     H62      HCA3     0.900000E-01   1.00800           0
     29596 LPSA27   20       ARHM     H63      HCA3     0.900000E-01   1.00800           0
     29597 LPSA27   21       BMANNA   C1       CC3162   0.290000       12.0110           0
     29598 LPSA27   21       BMANNA   H1       HCA1     0.900000E-01   1.00800           0
     29599 LPSA27   21       BMANNA   C5       CC3163   0.110000       12.0110           0
     29600 LPSA27   21       BMANNA   H5       HCA1     0.900000E-01   1.00800           0
     29601 LPSA27   21       BMANNA   O5       OC3C61  -0.400000       15.9994           0
     29602 LPSA27   21       BMANNA   C2       CC3161   0.700000E-01   12.0110           0
     29603 LPSA27   21       BMANNA   H2       HCA1     0.900000E-01   1.00800           0
     29604 LPSA27   21       BMANNA   N        NC2D1   -0.470000       14.0070           0
     29605 LPSA27   21       BMANNA   HN       HCP1     0.310000       1.00800           0
     29606 LPSA27   21       BMANNA   C        CC2O1    0.510000       12.0110           0
     29607 LPSA27   21       BMANNA   O        OC2D1   -0.510000       15.9994           0
     29608 LPSA27   21       BMANNA   CT       CC331   -0.270000       12.0110           0
     29609 LPSA27   21       BMANNA   HT1      HCA3     0.900000E-01   1.00800           0
     29610 LPSA27   21       BMANNA   HT2      HCA3     0.900000E-01   1.00800           0
     29611 LPSA27   21       BMANNA   HT3      HCA3     0.900000E-01   1.00800           0
     29612 LPSA27   21       BMANNA   C3       CC3161   0.140000       12.0110           0
     29613 LPSA27   21       BMANNA   H3       HCA1     0.900000E-01   1.00800           0
     29614 LPSA27   21       BMANNA   O3       OC311   -0.650000       15.9994           0
     29615 LPSA27   21       BMANNA   HO3      HCP1     0.420000       1.00800           0
     29616 LPSA27   21       BMANNA   C4       CC3161   0.140000       12.0110           0
     29617 LPSA27   21       BMANNA   H4       HCA1     0.900000E-01   1.00800           0
     29618 LPSA27   21       BMANNA   O4       OC311   -0.650000       15.9994           0
     29619 LPSA27   21       BMANNA   HO4      HCP1     0.420000       1.00800           0
     29620 LPSA27   21       BMANNA   C6       CC321    0.500000E-01   12.0110           0
     29621 LPSA27   21       BMANNA   H61      HCA2     0.900000E-01   1.00800           0
     29622 LPSA27   21       BMANNA   H62      HCA2     0.900000E-01   1.00800           0
     29623 LPSA27   21       BMANNA   O6       OC311   -0.650000       15.9994           0
     29624 LPSA27   21       BMANNA   HO6      HCP1     0.420000       1.00800           0
     29625 LPSA27   22       BGLCNA   C1       CC3162   0.290000       12.0110           0
     29626 LPSA27   22       BGLCNA   H1       HCA1     0.900000E-01   1.00800           0
     29627 LPSA27   22       BGLCNA   C5       CC3163   0.110000       12.0110           0
     29628 LPSA27   22       BGLCNA   H5       HCA1     0.900000E-01   1.00800           0
     29629 LPSA27   22       BGLCNA   O5       OC3C61  -0.400000       15.9994           0
     29630 LPSA27   22       BGLCNA   C2       CC3161   0.700000E-01   12.0110           0
     29631 LPSA27   22       BGLCNA   H2       HCA1     0.900000E-01   1.00800           0
     29632 LPSA27   22       BGLCNA   N        NC2D1   -0.470000       14.0070           0
     29633 LPSA27   22       BGLCNA   HN       HCP1     0.310000       1.00800           0
     29634 LPSA27   22       BGLCNA   C        CC2O1    0.510000       12.0110           0
     29635 LPSA27   22       BGLCNA   O        OC2D1   -0.510000       15.9994           0
     29636 LPSA27   22       BGLCNA   CT       CC331   -0.270000       12.0110           0
     29637 LPSA27   22       BGLCNA   HT1      HCA3     0.900000E-01   1.00800           0
     29638 LPSA27   22       BGLCNA   HT2      HCA3     0.900000E-01   1.00800           0
     29639 LPSA27   22       BGLCNA   HT3      HCA3     0.900000E-01   1.00800           0
     29640 LPSA27   22       BGLCNA   C3       CC3161   0.900000E-01   12.0110           0
     29641 LPSA27   22       BGLCNA   H3       HCA1     0.900000E-01   1.00800           0
     29642 LPSA27   22       BGLCNA   O3       OC301   -0.360000       15.9994           0
     29643 LPSA27   22       BGLCNA   C4       CC3161   0.140000       12.0110           0
     29644 LPSA27   22       BGLCNA   H4       HCA1     0.900000E-01   1.00800           0
     29645 LPSA27   22       BGLCNA   O4       OC311   -0.650000       15.9994           0
     29646 LPSA27   22       BGLCNA   HO4      HCP1     0.420000       1.00800           0
     29647 LPSA27   22       BGLCNA   C6       CC321    0.500000E-01   12.0110           0
     29648 LPSA27   22       BGLCNA   H61      HCA2     0.900000E-01   1.00800           0
     29649 LPSA27   22       BGLCNA   H62      HCA2     0.900000E-01   1.00800           0
     29650 LPSA27   22       BGLCNA   O6       OC311   -0.650000       15.9994           0
     29651 LPSA27   22       BGLCNA   HO6      HCP1     0.420000       1.00800           0
     29652 LPSA27   23       AGAL     C1       CC3162   0.290000       12.0110           0
     29653 LPSA27   23       AGAL     H1       HCA1     0.900000E-01   1.00800           0
     29654 LPSA27   23       AGAL     C5       CC3163   0.110000       12.0110           0
     29655 LPSA27   23       AGAL     H5       HCA1     0.900000E-01   1.00800           0
     29656 LPSA27   23       AGAL     O5       OC3C61  -0.400000       15.9994           0
     29657 LPSA27   23       AGAL     C2       CC3161   0.900000E-01   12.0110           0
     29658 LPSA27   23       AGAL     H2       HCA1     0.900000E-01   1.00800           0
     29659 LPSA27   23       AGAL     O2       OC301   -0.360000       15.9994           0
     29660 LPSA27   23       AGAL     C3       CC3161   0.140000       12.0110           0
     29661 LPSA27   23       AGAL     H3       HCA1     0.900000E-01   1.00800           0
     29662 LPSA27   23       AGAL     O3       OC311   -0.650000       15.9994           0
     29663 LPSA27   23       AGAL     HO3      HCP1     0.420000       1.00800           0
     29664 LPSA27   23       AGAL     C4       CC3161   0.140000       12.0110           0
     29665 LPSA27   23       AGAL     H4       HCA1     0.900000E-01   1.00800           0
     29666 LPSA27   23       AGAL     O4       OC311   -0.650000       15.9994           0
     29667 LPSA27   23       AGAL     HO4      HCP1     0.420000       1.00800           0
     29668 LPSA27   23       AGAL     C6       CC321    0.500000E-01   12.0110           0
     29669 LPSA27   23       AGAL     H61      HCA2     0.900000E-01   1.00800           0
     29670 LPSA27   23       AGAL     H62      HCA2     0.900000E-01   1.00800           0
     29671 LPSA27   23       AGAL     O6       OC311   -0.650000       15.9994           0
     29672 LPSA27   23       AGAL     HO6      HCP1     0.420000       1.00800           0
     29673 LPSA27   24       ARHM     C1       CC3162   0.290000       12.0110           0
     29674 LPSA27   24       ARHM     H1       HCA1     0.900000E-01   1.00800           0
     29675 LPSA27   24       ARHM     C5       CC3163   0.110000       12.0110           0
     29676 LPSA27   24       ARHM     H5       HCA1     0.900000E-01   1.00800           0
     29677 LPSA27   24       ARHM     O5       OC3C61  -0.400000       15.9994           0
     29678 LPSA27   24       ARHM     C2       CC3161   0.900000E-01   12.0110           0
     29679 LPSA27   24       ARHM     H2       HCA1     0.900000E-01   1.00800           0
     29680 LPSA27   24       ARHM     O2       OC301   -0.360000       15.9994           0
     29681 LPSA27   24       ARHM     C3       CC3161   0.140000       12.0110           0
     29682 LPSA27   24       ARHM     H3       HCA1     0.900000E-01   1.00800           0
     29683 LPSA27   24       ARHM     O3       OC311   -0.650000       15.9994           0
     29684 LPSA27   24       ARHM     HO3      HCP1     0.420000       1.00800           0
     29685 LPSA27   24       ARHM     C4       CC3161   0.140000       12.0110           0
     29686 LPSA27   24       ARHM     H4       HCA1     0.900000E-01   1.00800           0
     29687 LPSA27   24       ARHM     O4       OC311   -0.650000       15.9994           0
     29688 LPSA27   24       ARHM     HO4      HCP1     0.420000       1.00800           0
     29689 LPSA27   24       ARHM     C6       CC331   -0.270000       12.0110           0
     29690 LPSA27   24       ARHM     H61      HCA3     0.900000E-01   1.00800           0
     29691 LPSA27   24       ARHM     H62      HCA3     0.900000E-01   1.00800           0
     29692 LPSA27   24       ARHM     H63      HCA3     0.900000E-01   1.00800           0
     29693 LPSA27   25       ARHM     C1       CC3162   0.290000       12.0110           0
     29694 LPSA27   25       ARHM     H1       HCA1     0.900000E-01   1.00800           0
     29695 LPSA27   25       ARHM     C5       CC3163   0.110000       12.0110           0
     29696 LPSA27   25       ARHM     H5       HCA1     0.900000E-01   1.00800           0
     29697 LPSA27   25       ARHM     O5       OC3C61  -0.400000       15.9994           0
     29698 LPSA27   25       ARHM     C2       CC3161   0.900000E-01   12.0110           0
     29699 LPSA27   25       ARHM     H2       HCA1     0.900000E-01   1.00800           0
     29700 LPSA27   25       ARHM     O2       OC301   -0.360000       15.9994           0
     29701 LPSA27   25       ARHM     C3       CC3161   0.900000E-01   12.0110           0
     29702 LPSA27   25       ARHM     H3       HCA1     0.900000E-01   1.00800           0
     29703 LPSA27   25       ARHM     O3       OC301   -0.360000       15.9994           0
     29704 LPSA27   25       ARHM     C4       CC3161   0.140000       12.0110           0
     29705 LPSA27   25       ARHM     H4       HCA1     0.900000E-01   1.00800           0
     29706 LPSA27   25       ARHM     O4       OC311   -0.650000       15.9994           0
     29707 LPSA27   25       ARHM     HO4      HCP1     0.420000       1.00800           0
     29708 LPSA27   25       ARHM     C6       CC331   -0.270000       12.0110           0
     29709 LPSA27   25       ARHM     H61      HCA3     0.900000E-01   1.00800           0
     29710 LPSA27   25       ARHM     H62      HCA3     0.900000E-01   1.00800           0
     29711 LPSA27   25       ARHM     H63      HCA3     0.900000E-01   1.00800           0
     29712 LPSA27   26       BMANNA   C1       CC3162   0.290000       12.0110           0
     29713 LPSA27   26       BMANNA   H1       HCA1     0.900000E-01   1.00800           0
     29714 LPSA27   26       BMANNA   C5       CC3163   0.110000       12.0110           0
     29715 LPSA27   26       BMANNA   H5       HCA1     0.900000E-01   1.00800           0
     29716 LPSA27   26       BMANNA   O5       OC3C61  -0.400000       15.9994           0
     29717 LPSA27   26       BMANNA   C2       CC3161   0.700000E-01   12.0110           0
     29718 LPSA27   26       BMANNA   H2       HCA1     0.900000E-01   1.00800           0
     29719 LPSA27   26       BMANNA   N        NC2D1   -0.470000       14.0070           0
     29720 LPSA27   26       BMANNA   HN       HCP1     0.310000       1.00800           0
     29721 LPSA27   26       BMANNA   C        CC2O1    0.510000       12.0110           0
     29722 LPSA27   26       BMANNA   O        OC2D1   -0.510000       15.9994           0
     29723 LPSA27   26       BMANNA   CT       CC331   -0.270000       12.0110           0
     29724 LPSA27   26       BMANNA   HT1      HCA3     0.900000E-01   1.00800           0
     29725 LPSA27   26       BMANNA   HT2      HCA3     0.900000E-01   1.00800           0
     29726 LPSA27   26       BMANNA   HT3      HCA3     0.900000E-01   1.00800           0
     29727 LPSA27   26       BMANNA   C3       CC3161   0.140000       12.0110           0
     29728 LPSA27   26       BMANNA   H3       HCA1     0.900000E-01   1.00800           0
     29729 LPSA27   26       BMANNA   O3       OC311   -0.650000       15.9994           0
     29730 LPSA27   26       BMANNA   HO3      HCP1     0.420000       1.00800           0
     29731 LPSA27   26       BMANNA   C4       CC3161   0.140000       12.0110           0
     29732 LPSA27   26       BMANNA   H4       HCA1     0.900000E-01   1.00800           0
     29733 LPSA27   26       BMANNA   O4       OC311   -0.650000       15.9994           0
     29734 LPSA27   26       BMANNA   HO4      HCP1     0.420000       1.00800           0
     29735 LPSA27   26       BMANNA   C6       CC321    0.500000E-01   12.0110           0
     29736 LPSA27   26       BMANNA   H61      HCA2     0.900000E-01   1.00800           0
     29737 LPSA27   26       BMANNA   H62      HCA2     0.900000E-01   1.00800           0
     29738 LPSA27   26       BMANNA   O6       OC311   -0.650000       15.9994           0
     29739 LPSA27   26       BMANNA   HO6      HCP1     0.420000       1.00800           0
     29740 LPSA27   27       BGLCNA   C1       CC3162   0.290000       12.0110           0
     29741 LPSA27   27       BGLCNA   H1       HCA1     0.900000E-01   1.00800           0
     29742 LPSA27   27       BGLCNA   C5       CC3163   0.110000       12.0110           0
     29743 LPSA27   27       BGLCNA   H5       HCA1     0.900000E-01   1.00800           0
     29744 LPSA27   27       BGLCNA   O5       OC3C61  -0.400000       15.9994           0
     29745 LPSA27   27       BGLCNA   C2       CC3161   0.700000E-01   12.0110           0
     29746 LPSA27   27       BGLCNA   H2       HCA1     0.900000E-01   1.00800           0
     29747 LPSA27   27       BGLCNA   N        NC2D1   -0.470000       14.0070           0
     29748 LPSA27   27       BGLCNA   HN       HCP1     0.310000       1.00800           0
     29749 LPSA27   27       BGLCNA   C        CC2O1    0.510000       12.0110           0
     29750 LPSA27   27       BGLCNA   O        OC2D1   -0.510000       15.9994           0
     29751 LPSA27   27       BGLCNA   CT       CC331   -0.270000       12.0110           0
     29752 LPSA27   27       BGLCNA   HT1      HCA3     0.900000E-01   1.00800           0
     29753 LPSA27   27       BGLCNA   HT2      HCA3     0.900000E-01   1.00800           0
     29754 LPSA27   27       BGLCNA   HT3      HCA3     0.900000E-01   1.00800           0
     29755 LPSA27   27       BGLCNA   C3       CC3161   0.900000E-01   12.0110           0
     29756 LPSA27   27       BGLCNA   H3       HCA1     0.900000E-01   1.00800           0
     29757 LPSA27   27       BGLCNA   O3       OC301   -0.360000       15.9994           0
     29758 LPSA27   27       BGLCNA   C4       CC3161   0.140000       12.0110           0
     29759 LPSA27   27       BGLCNA   H4       HCA1     0.900000E-01   1.00800           0
     29760 LPSA27   27       BGLCNA   O4       OC311   -0.650000       15.9994           0
     29761 LPSA27   27       BGLCNA   HO4      HCP1     0.420000       1.00800           0
     29762 LPSA27   27       BGLCNA   C6       CC321    0.500000E-01   12.0110           0
     29763 LPSA27   27       BGLCNA   H61      HCA2     0.900000E-01   1.00800           0
     29764 LPSA27   27       BGLCNA   H62      HCA2     0.900000E-01   1.00800           0
     29765 LPSA27   27       BGLCNA   O6       OC311   -0.650000       15.9994           0
     29766 LPSA27   27       BGLCNA   HO6      HCP1     0.420000       1.00800           0
     29767 LPSA27   28       AGAL     C1       CC3162   0.290000       12.0110           0
     29768 LPSA27   28       AGAL     H1       HCA1     0.900000E-01   1.00800           0
     29769 LPSA27   28       AGAL     C5       CC3163   0.110000       12.0110           0
     29770 LPSA27   28       AGAL     H5       HCA1     0.900000E-01   1.00800           0
     29771 LPSA27   28       AGAL     O5       OC3C61  -0.400000       15.9994           0
     29772 LPSA27   28       AGAL     C2       CC3161   0.900000E-01   12.0110           0
     29773 LPSA27   28       AGAL     H2       HCA1     0.900000E-01   1.00800           0
     29774 LPSA27   28       AGAL     O2       OC301   -0.360000       15.9994           0
     29775 LPSA27   28       AGAL     C3       CC3161   0.140000       12.0110           0
     29776 LPSA27   28       AGAL     H3       HCA1     0.900000E-01   1.00800           0
     29777 LPSA27   28       AGAL     O3       OC311   -0.650000       15.9994           0
     29778 LPSA27   28       AGAL     HO3      HCP1     0.420000       1.00800           0
     29779 LPSA27   28       AGAL     C4       CC3161   0.140000       12.0110           0
     29780 LPSA27   28       AGAL     H4       HCA1     0.900000E-01   1.00800           0
     29781 LPSA27   28       AGAL     O4       OC311   -0.650000       15.9994           0
     29782 LPSA27   28       AGAL     HO4      HCP1     0.420000       1.00800           0
     29783 LPSA27   28       AGAL     C6       CC321    0.500000E-01   12.0110           0
     29784 LPSA27   28       AGAL     H61      HCA2     0.900000E-01   1.00800           0
     29785 LPSA27   28       AGAL     H62      HCA2     0.900000E-01   1.00800           0
     29786 LPSA27   28       AGAL     O6       OC311   -0.650000       15.9994           0
     29787 LPSA27   28       AGAL     HO6      HCP1     0.420000       1.00800           0
     29788 LPSA27   29       ARHM     C1       CC3162   0.290000       12.0110           0
     29789 LPSA27   29       ARHM     H1       HCA1     0.900000E-01   1.00800           0
     29790 LPSA27   29       ARHM     C5       CC3163   0.110000       12.0110           0
     29791 LPSA27   29       ARHM     H5       HCA1     0.900000E-01   1.00800           0
     29792 LPSA27   29       ARHM     O5       OC3C61  -0.400000       15.9994           0
     29793 LPSA27   29       ARHM     C2       CC3161   0.900000E-01   12.0110           0
     29794 LPSA27   29       ARHM     H2       HCA1     0.900000E-01   1.00800           0
     29795 LPSA27   29       ARHM     O2       OC301   -0.360000       15.9994           0
     29796 LPSA27   29       ARHM     C3       CC3161   0.140000       12.0110           0
     29797 LPSA27   29       ARHM     H3       HCA1     0.900000E-01   1.00800           0
     29798 LPSA27   29       ARHM     O3       OC311   -0.650000       15.9994           0
     29799 LPSA27   29       ARHM     HO3      HCP1     0.420000       1.00800           0
     29800 LPSA27   29       ARHM     C4       CC3161   0.140000       12.0110           0
     29801 LPSA27   29       ARHM     H4       HCA1     0.900000E-01   1.00800           0
     29802 LPSA27   29       ARHM     O4       OC311   -0.650000       15.9994           0
     29803 LPSA27   29       ARHM     HO4      HCP1     0.420000       1.00800           0
     29804 LPSA27   29       ARHM     C6       CC331   -0.270000       12.0110           0
     29805 LPSA27   29       ARHM     H61      HCA3     0.900000E-01   1.00800           0
     29806 LPSA27   29       ARHM     H62      HCA3     0.900000E-01   1.00800           0
     29807 LPSA27   29       ARHM     H63      HCA3     0.900000E-01   1.00800           0
     29808 LPSA27   30       ARHM     C1       CC3162   0.290000       12.0110           0
     29809 LPSA27   30       ARHM     H1       HCA1     0.900000E-01   1.00800           0
     29810 LPSA27   30       ARHM     C5       CC3163   0.110000       12.0110           0
     29811 LPSA27   30       ARHM     H5       HCA1     0.900000E-01   1.00800           0
     29812 LPSA27   30       ARHM     O5       OC3C61  -0.400000       15.9994           0
     29813 LPSA27   30       ARHM     C2       CC3161   0.900000E-01   12.0110           0
     29814 LPSA27   30       ARHM     H2       HCA1     0.900000E-01   1.00800           0
     29815 LPSA27   30       ARHM     O2       OC301   -0.360000       15.9994           0
     29816 LPSA27   30       ARHM     C3       CC3161   0.900000E-01   12.0110           0
     29817 LPSA27   30       ARHM     H3       HCA1     0.900000E-01   1.00800           0
     29818 LPSA27   30       ARHM     O3       OC301   -0.360000       15.9994           0
     29819 LPSA27   30       ARHM     C4       CC3161   0.140000       12.0110           0
     29820 LPSA27   30       ARHM     H4       HCA1     0.900000E-01   1.00800           0
     29821 LPSA27   30       ARHM     O4       OC311   -0.650000       15.9994           0
     29822 LPSA27   30       ARHM     HO4      HCP1     0.420000       1.00800           0
     29823 LPSA27   30       ARHM     C6       CC331   -0.270000       12.0110           0
     29824 LPSA27   30       ARHM     H61      HCA3     0.900000E-01   1.00800           0
     29825 LPSA27   30       ARHM     H62      HCA3     0.900000E-01   1.00800           0
     29826 LPSA27   30       ARHM     H63      HCA3     0.900000E-01   1.00800           0
     29827 LPSA27   31       BMANNA   C1       CC3162   0.290000       12.0110           0
     29828 LPSA27   31       BMANNA   H1       HCA1     0.900000E-01   1.00800           0
     29829 LPSA27   31       BMANNA   C5       CC3163   0.110000       12.0110           0
     29830 LPSA27   31       BMANNA   H5       HCA1     0.900000E-01   1.00800           0
     29831 LPSA27   31       BMANNA   O5       OC3C61  -0.400000       15.9994           0
     29832 LPSA27   31       BMANNA   C2       CC3161   0.700000E-01   12.0110           0
     29833 LPSA27   31       BMANNA   H2       HCA1     0.900000E-01   1.00800           0
     29834 LPSA27   31       BMANNA   N        NC2D1   -0.470000       14.0070           0
     29835 LPSA27   31       BMANNA   HN       HCP1     0.310000       1.00800           0
     29836 LPSA27   31       BMANNA   C        CC2O1    0.510000       12.0110           0
     29837 LPSA27   31       BMANNA   O        OC2D1   -0.510000       15.9994           0
     29838 LPSA27   31       BMANNA   CT       CC331   -0.270000       12.0110           0
     29839 LPSA27   31       BMANNA   HT1      HCA3     0.900000E-01   1.00800           0
     29840 LPSA27   31       BMANNA   HT2      HCA3     0.900000E-01   1.00800           0
     29841 LPSA27   31       BMANNA   HT3      HCA3     0.900000E-01   1.00800           0
     29842 LPSA27   31       BMANNA   C3       CC3161   0.140000       12.0110           0
     29843 LPSA27   31       BMANNA   H3       HCA1     0.900000E-01   1.00800           0
     29844 LPSA27   31       BMANNA   O3       OC311   -0.650000       15.9994           0
     29845 LPSA27   31       BMANNA   HO3      HCP1     0.420000       1.00800           0
     29846 LPSA27   31       BMANNA   C4       CC3161   0.140000       12.0110           0
     29847 LPSA27   31       BMANNA   H4       HCA1     0.900000E-01   1.00800           0
     29848 LPSA27   31       BMANNA   O4       OC311   -0.650000       15.9994           0
     29849 LPSA27   31       BMANNA   HO4      HCP1     0.420000       1.00800           0
     29850 LPSA27   31       BMANNA   C6       CC321    0.500000E-01   12.0110           0
     29851 LPSA27   31       BMANNA   H61      HCA2     0.900000E-01   1.00800           0
     29852 LPSA27   31       BMANNA   H62      HCA2     0.900000E-01   1.00800           0
     29853 LPSA27   31       BMANNA   O6       OC311   -0.650000       15.9994           0
     29854 LPSA27   31       BMANNA   HO6      HCP1     0.420000       1.00800           0
     29855 LPSA27   32       BGLCNA   C1       CC3162   0.290000       12.0110           0
     29856 LPSA27   32       BGLCNA   H1       HCA1     0.900000E-01   1.00800           0
     29857 LPSA27   32       BGLCNA   C5       CC3163   0.110000       12.0110           0
     29858 LPSA27   32       BGLCNA   H5       HCA1     0.900000E-01   1.00800           0
     29859 LPSA27   32       BGLCNA   O5       OC3C61  -0.400000       15.9994           0
     29860 LPSA27   32       BGLCNA   C2       CC3161   0.700000E-01   12.0110           0
     29861 LPSA27   32       BGLCNA   H2       HCA1     0.900000E-01   1.00800           0
     29862 LPSA27   32       BGLCNA   N        NC2D1   -0.470000       14.0070           0
     29863 LPSA27   32       BGLCNA   HN       HCP1     0.310000       1.00800           0
     29864 LPSA27   32       BGLCNA   C        CC2O1    0.510000       12.0110           0
     29865 LPSA27   32       BGLCNA   O        OC2D1   -0.510000       15.9994           0
     29866 LPSA27   32       BGLCNA   CT       CC331   -0.270000       12.0110           0
     29867 LPSA27   32       BGLCNA   HT1      HCA3     0.900000E-01   1.00800           0
     29868 LPSA27   32       BGLCNA   HT2      HCA3     0.900000E-01   1.00800           0
     29869 LPSA27   32       BGLCNA   HT3      HCA3     0.900000E-01   1.00800           0
     29870 LPSA27   32       BGLCNA   C3       CC3161   0.900000E-01   12.0110           0
     29871 LPSA27   32       BGLCNA   H3       HCA1     0.900000E-01   1.00800           0
     29872 LPSA27   32       BGLCNA   O3       OC301   -0.360000       15.9994           0
     29873 LPSA27   32       BGLCNA   C4       CC3161   0.140000       12.0110           0
     29874 LPSA27   32       BGLCNA   H4       HCA1     0.900000E-01   1.00800           0
     29875 LPSA27   32       BGLCNA   O4       OC311   -0.650000       15.9994           0
     29876 LPSA27   32       BGLCNA   HO4      HCP1     0.420000       1.00800           0
     29877 LPSA27   32       BGLCNA   C6       CC321    0.500000E-01   12.0110           0
     29878 LPSA27   32       BGLCNA   H61      HCA2     0.900000E-01   1.00800           0
     29879 LPSA27   32       BGLCNA   H62      HCA2     0.900000E-01   1.00800           0
     29880 LPSA27   32       BGLCNA   O6       OC311   -0.650000       15.9994           0
     29881 LPSA27   32       BGLCNA   HO6      HCP1     0.420000       1.00800           0
     29882 LPSA27   33       AGAL     C1       CC3162   0.290000       12.0110           0
     29883 LPSA27   33       AGAL     H1       HCA1     0.900000E-01   1.00800           0
     29884 LPSA27   33       AGAL     C5       CC3163   0.110000       12.0110           0
     29885 LPSA27   33       AGAL     H5       HCA1     0.900000E-01   1.00800           0
     29886 LPSA27   33       AGAL     O5       OC3C61  -0.400000       15.9994           0
     29887 LPSA27   33       AGAL     C2       CC3161   0.900000E-01   12.0110           0
     29888 LPSA27   33       AGAL     H2       HCA1     0.900000E-01   1.00800           0
     29889 LPSA27   33       AGAL     O2       OC301   -0.360000       15.9994           0
     29890 LPSA27   33       AGAL     C3       CC3161   0.140000       12.0110           0
     29891 LPSA27   33       AGAL     H3       HCA1     0.900000E-01   1.00800           0
     29892 LPSA27   33       AGAL     O3       OC311   -0.650000       15.9994           0
     29893 LPSA27   33       AGAL     HO3      HCP1     0.420000       1.00800           0
     29894 LPSA27   33       AGAL     C4       CC3161   0.140000       12.0110           0
     29895 LPSA27   33       AGAL     H4       HCA1     0.900000E-01   1.00800           0
     29896 LPSA27   33       AGAL     O4       OC311   -0.650000       15.9994           0
     29897 LPSA27   33       AGAL     HO4      HCP1     0.420000       1.00800           0
     29898 LPSA27   33       AGAL     C6       CC321    0.500000E-01   12.0110           0
     29899 LPSA27   33       AGAL     H61      HCA2     0.900000E-01   1.00800           0
     29900 LPSA27   33       AGAL     H62      HCA2     0.900000E-01   1.00800           0
     29901 LPSA27   33       AGAL     O6       OC311   -0.650000       15.9994           0
     29902 LPSA27   33       AGAL     HO6      HCP1     0.420000       1.00800           0
     29903 LPSA27   34       ARHM     C1       CC3162   0.290000       12.0110           0
     29904 LPSA27   34       ARHM     H1       HCA1     0.900000E-01   1.00800           0
     29905 LPSA27   34       ARHM     C5       CC3163   0.110000       12.0110           0
     29906 LPSA27   34       ARHM     H5       HCA1     0.900000E-01   1.00800           0
     29907 LPSA27   34       ARHM     O5       OC3C61  -0.400000       15.9994           0
     29908 LPSA27   34       ARHM     C2       CC3161   0.900000E-01   12.0110           0
     29909 LPSA27   34       ARHM     H2       HCA1     0.900000E-01   1.00800           0
     29910 LPSA27   34       ARHM     O2       OC301   -0.360000       15.9994           0
     29911 LPSA27   34       ARHM     C3       CC3161   0.140000       12.0110           0
     29912 LPSA27   34       ARHM     H3       HCA1     0.900000E-01   1.00800           0
     29913 LPSA27   34       ARHM     O3       OC311   -0.650000       15.9994           0
     29914 LPSA27   34       ARHM     HO3      HCP1     0.420000       1.00800           0
     29915 LPSA27   34       ARHM     C4       CC3161   0.140000       12.0110           0
     29916 LPSA27   34       ARHM     H4       HCA1     0.900000E-01   1.00800           0
     29917 LPSA27   34       ARHM     O4       OC311   -0.650000       15.9994           0
     29918 LPSA27   34       ARHM     HO4      HCP1     0.420000       1.00800           0
     29919 LPSA27   34       ARHM     C6       CC331   -0.270000       12.0110           0
     29920 LPSA27   34       ARHM     H61      HCA3     0.900000E-01   1.00800           0
     29921 LPSA27   34       ARHM     H62      HCA3     0.900000E-01   1.00800           0
     29922 LPSA27   34       ARHM     H63      HCA3     0.900000E-01   1.00800           0
     29923 LPSA27   35       ARHM     C1       CC3162   0.290000       12.0110           0
     29924 LPSA27   35       ARHM     H1       HCA1     0.900000E-01   1.00800           0
     29925 LPSA27   35       ARHM     C5       CC3163   0.110000       12.0110           0
     29926 LPSA27   35       ARHM     H5       HCA1     0.900000E-01   1.00800           0
     29927 LPSA27   35       ARHM     O5       OC3C61  -0.400000       15.9994           0
     29928 LPSA27   35       ARHM     C2       CC3161   0.900000E-01   12.0110           0
     29929 LPSA27   35       ARHM     H2       HCA1     0.900000E-01   1.00800           0
     29930 LPSA27   35       ARHM     O2       OC301   -0.360000       15.9994           0
     29931 LPSA27   35       ARHM     C3       CC3161   0.140000       12.0110           0
     29932 LPSA27   35       ARHM     H3       HCA1     0.900000E-01   1.00800           0
     29933 LPSA27   35       ARHM     O3       OC311   -0.650000       15.9994           0
     29934 LPSA27   35       ARHM     HO3      HCP1     0.420000       1.00800           0
     29935 LPSA27   35       ARHM     C4       CC3161   0.140000       12.0110           0
     29936 LPSA27   35       ARHM     H4       HCA1     0.900000E-01   1.00800           0
     29937 LPSA27   35       ARHM     O4       OC311   -0.650000       15.9994           0
     29938 LPSA27   35       ARHM     HO4      HCP1     0.420000       1.00800           0
     29939 LPSA27   35       ARHM     C6       CC331   -0.270000       12.0110           0
     29940 LPSA27   35       ARHM     H61      HCA3     0.900000E-01   1.00800           0
     29941 LPSA27   35       ARHM     H62      HCA3     0.900000E-01   1.00800           0
     29942 LPSA27   35       ARHM     H63      HCA3     0.900000E-01   1.00800           0
     29943 LPSA27   36       BMANNA   C1       CC3162   0.290000       12.0110           0
     29944 LPSA27   36       BMANNA   H1       HCA1     0.900000E-01   1.00800           0
     29945 LPSA27   36       BMANNA   C5       CC3163   0.110000       12.0110           0
     29946 LPSA27   36       BMANNA   H5       HCA1     0.900000E-01   1.00800           0
     29947 LPSA27   36       BMANNA   O5       OC3C61  -0.400000       15.9994           0
     29948 LPSA27   36       BMANNA   C2       CC3161   0.700000E-01   12.0110           0
     29949 LPSA27   36       BMANNA   H2       HCA1     0.900000E-01   1.00800           0
     29950 LPSA27   36       BMANNA   N        NC2D1   -0.470000       14.0070           0
     29951 LPSA27   36       BMANNA   HN       HCP1     0.310000       1.00800           0
     29952 LPSA27   36       BMANNA   C        CC2O1    0.510000       12.0110           0
     29953 LPSA27   36       BMANNA   O        OC2D1   -0.510000       15.9994           0
     29954 LPSA27   36       BMANNA   CT       CC331   -0.270000       12.0110           0
     29955 LPSA27   36       BMANNA   HT1      HCA3     0.900000E-01   1.00800           0
     29956 LPSA27   36       BMANNA   HT2      HCA3     0.900000E-01   1.00800           0
     29957 LPSA27   36       BMANNA   HT3      HCA3     0.900000E-01   1.00800           0
     29958 LPSA27   36       BMANNA   C3       CC3161   0.140000       12.0110           0
     29959 LPSA27   36       BMANNA   H3       HCA1     0.900000E-01   1.00800           0
     29960 LPSA27   36       BMANNA   O3       OC311   -0.650000       15.9994           0
     29961 LPSA27   36       BMANNA   HO3      HCP1     0.420000       1.00800           0
     29962 LPSA27   36       BMANNA   C4       CC3161   0.140000       12.0110           0
     29963 LPSA27   36       BMANNA   H4       HCA1     0.900000E-01   1.00800           0
     29964 LPSA27   36       BMANNA   O4       OC311   -0.650000       15.9994           0
     29965 LPSA27   36       BMANNA   HO4      HCP1     0.420000       1.00800           0
     29966 LPSA27   36       BMANNA   C6       CC321    0.500000E-01   12.0110           0
     29967 LPSA27   36       BMANNA   H61      HCA2     0.900000E-01   1.00800           0
     29968 LPSA27   36       BMANNA   H62      HCA2     0.900000E-01   1.00800           0
     29969 LPSA27   36       BMANNA   O6       OC311   -0.650000       15.9994           0
     29970 LPSA27   36       BMANNA   HO6      HCP1     0.420000       1.00800           0
     29971 LPSA28   1        ECLIPA   HB6S     HCA2     0.900000E-01   1.00800           0
     29972 LPSA28   1        ECLIPA   OB6      OC301   -0.360000       15.9994           0
     29973 LPSA28   1        ECLIPA   CB6      CC321     0.00000       12.0110           0
     29974 LPSA28   1        ECLIPA   HB6R     HCA2     0.900000E-01   1.00800           0
     29975 LPSA28   1        ECLIPA   CB5      CC3163   0.110000       12.0110           0
     29976 LPSA28   1        ECLIPA   OB5      OC3C61  -0.400000       15.9994           0
     29977 LPSA28   1        ECLIPA   HB5      HCA1     0.900000E-01   1.00800           0
     29978 LPSA28   1        ECLIPA   CB1      CC3162   0.290000       12.0110           0
     29979 LPSA28   1        ECLIPA   HB1      HCA1     0.900000E-01   1.00800           0
     29980 LPSA28   1        ECLIPA   OA6      OC301   -0.360000       15.9994           0
     29981 LPSA28   1        ECLIPA   CA6      CC321     0.00000       12.0110           0
     29982 LPSA28   1        ECLIPA   HA6R     HCA2     0.900000E-01   1.00800           0
     29983 LPSA28   1        ECLIPA   HA6S     HCA2     0.900000E-01   1.00800           0
     29984 LPSA28   1        ECLIPA   CB4      CC3161  -0.900000E-01   12.0110           0
     29985 LPSA28   1        ECLIPA   HB4      HCA1     0.900000E-01   1.00800           0
     29986 LPSA28   1        ECLIPA   OB4      OC30P   -0.400000       15.9994           0
     29987 LPSA28   1        ECLIPA   PB       PC        1.10000       30.9740           0
     29988 LPSA28   1        ECLIPA   OPB4     OC2DP   -0.900000       15.9994           0
     29989 LPSA28   1        ECLIPA   OPB3     OC2DP   -0.900000       15.9994           0
     29990 LPSA28   1        ECLIPA   OPB2     OC2DP   -0.900000       15.9994           0
     29991 LPSA28   1        ECLIPA   CB3      CC3161   0.170000       12.0110           0
     29992 LPSA28   1        ECLIPA   OB3      OC301   -0.490000       15.9994           0
     29993 LPSA28   1        ECLIPA   HB3      HCA1     0.900000E-01   1.00800           0
     29994 LPSA28   1        ECLIPA   C71      CL       0.900000       12.0110           0
     29995 LPSA28   1        ECLIPA   O71      OBL     -0.630000       15.9994           0
     29996 LPSA28   1        ECLIPA   C72      CTL2    -0.220000       12.0110           0
     29997 LPSA28   1        ECLIPA   H72R     HAL2     0.900000E-01   1.00800           0
     29998 LPSA28   1        ECLIPA   H72S     HAL2     0.900000E-01   1.00800           0
     29999 LPSA28   1        ECLIPA   CB2      CC3161   0.700000E-01   12.0110           0
     30000 LPSA28   1        ECLIPA   HB2      HCA1     0.900000E-01   1.00800           0
     30001 LPSA28   1        ECLIPA   NB2      NC2D1   -0.470000       14.0070           0
     30002 LPSA28   1        ECLIPA   HNB2     HCP1     0.310000       1.00800           0
     30003 LPSA28   1        ECLIPA   CA4      CC3161   0.140000       12.0110           0
     30004 LPSA28   1        ECLIPA   HA4      HCA1     0.900000E-01   1.00800           0
     30005 LPSA28   1        ECLIPA   OA4      OC311   -0.650000       15.9994           0
     30006 LPSA28   1        ECLIPA   HOA4     HCP1     0.420000       1.00800           0
     30007 LPSA28   1        ECLIPA   CA5      CC3163   0.110000       12.0110           0
     30008 LPSA28   1        ECLIPA   HA5      HCA1     0.900000E-01   1.00800           0
     30009 LPSA28   1        ECLIPA   OA5      OC3C61  -0.400000       15.9994           0
     30010 LPSA28   1        ECLIPA   CA1      CC3162   0.110000       12.0110           0
     30011 LPSA28   1        ECLIPA   HA1      HCA1     0.900000E-01   1.00800           0
     30012 LPSA28   1        ECLIPA   OA1      OC30P   -0.400000       15.9994           0
     30013 LPSA28   1        ECLIPA   OPA2     OC2DP   -0.900000       15.9994           0
     30014 LPSA28   1        ECLIPA   OPA3     OC2DP   -0.900000       15.9994           0
     30015 LPSA28   1        ECLIPA   OPA4     OC2DP   -0.900000       15.9994           0
     30016 LPSA28   1        ECLIPA   PA       PC        1.10000       30.9740           0
     30017 LPSA28   1        ECLIPA   CA3      CC3161   0.170000       12.0110           0
     30018 LPSA28   1        ECLIPA   HA3      HCA1     0.900000E-01   1.00800           0
     30019 LPSA28   1        ECLIPA   OA3      OC301   -0.490000       15.9994           0
     30020 LPSA28   1        ECLIPA   C31      CL       0.900000       12.0110           0
     30021 LPSA28   1        ECLIPA   O31      OBL     -0.630000       15.9994           0
     30022 LPSA28   1        ECLIPA   C32      CTL2    -0.220000       12.0110           0
     30023 LPSA28   1        ECLIPA   H32R     HAL2     0.900000E-01   1.00800           0
     30024 LPSA28   1        ECLIPA   H32S     HAL2     0.900000E-01   1.00800           0
     30025 LPSA28   1        ECLIPA   CA2      CC3161   0.700000E-01   12.0110           0
     30026 LPSA28   1        ECLIPA   HA2      HCA1     0.900000E-01   1.00800           0
     30027 LPSA28   1        ECLIPA   NA2      NC2D1   -0.470000       14.0070           0
     30028 LPSA28   1        ECLIPA   HNA2     HCP1     0.310000       1.00800           0
     30029 LPSA28   1        ECLIPA   C73      CTL1     0.170000       12.0110           0
     30030 LPSA28   1        ECLIPA   H73R     HAL1     0.900000E-01   1.00800           0
     30031 LPSA28   1        ECLIPA   O73      OSL     -0.490000       15.9994           0
     30032 LPSA28   1        ECLIPA   C81      CL       0.900000       12.0110           0
     30033 LPSA28   1        ECLIPA   O81      OBL     -0.630000       15.9994           0
     30034 LPSA28   1        ECLIPA   C82      CTL2    -0.220000       12.0110           0
     30035 LPSA28   1        ECLIPA   H82R     HAL2     0.900000E-01   1.00800           0
     30036 LPSA28   1        ECLIPA   H82S     HAL2     0.900000E-01   1.00800           0
     30037 LPSA28   1        ECLIPA   C83      CTL2    -0.180000       12.0110           0
     30038 LPSA28   1        ECLIPA   H83R     HAL2     0.900000E-01   1.00800           0
     30039 LPSA28   1        ECLIPA   H83S     HAL2     0.900000E-01   1.00800           0
     30040 LPSA28   1        ECLIPA   C84      CTL2    -0.180000       12.0110           0
     30041 LPSA28   1        ECLIPA   H84R     HAL2     0.900000E-01   1.00800           0
     30042 LPSA28   1        ECLIPA   H84S     HAL2     0.900000E-01   1.00800           0
     30043 LPSA28   1        ECLIPA   C85      CTL2    -0.180000       12.0110           0
     30044 LPSA28   1        ECLIPA   H85R     HAL2     0.900000E-01   1.00800           0
     30045 LPSA28   1        ECLIPA   H85S     HAL2     0.900000E-01   1.00800           0
     30046 LPSA28   1        ECLIPA   C86      CTL2    -0.180000       12.0110           0
     30047 LPSA28   1        ECLIPA   H86R     HAL2     0.900000E-01   1.00800           0
     30048 LPSA28   1        ECLIPA   H86S     HAL2     0.900000E-01   1.00800           0
     30049 LPSA28   1        ECLIPA   C87      CTL2    -0.180000       12.0110           0
     30050 LPSA28   1        ECLIPA   H87R     HAL2     0.900000E-01   1.00800           0
     30051 LPSA28   1        ECLIPA   H87S     HAL2     0.900000E-01   1.00800           0
     30052 LPSA28   1        ECLIPA   C88      CTL2    -0.180000       12.0110           0
     30053 LPSA28   1        ECLIPA   H88R     HAL2     0.900000E-01   1.00800           0
     30054 LPSA28   1        ECLIPA   H88S     HAL2     0.900000E-01   1.00800           0
     30055 LPSA28   1        ECLIPA   C89      CTL2    -0.180000       12.0110           0
     30056 LPSA28   1        ECLIPA   H89R     HAL2     0.900000E-01   1.00800           0
     30057 LPSA28   1        ECLIPA   H89S     HAL2     0.900000E-01   1.00800           0
     30058 LPSA28   1        ECLIPA   C810     CTL2    -0.180000       12.0110           0
     30059 LPSA28   1        ECLIPA   H810R    HAL2     0.900000E-01   1.00800           0
     30060 LPSA28   1        ECLIPA   H810S    HAL2     0.900000E-01   1.00800           0
     30061 LPSA28   1        ECLIPA   C811     CTL2    -0.180000       12.0110           0
     30062 LPSA28   1        ECLIPA   H811R    HAL2     0.900000E-01   1.00800           0
     30063 LPSA28   1        ECLIPA   H811S    HAL2     0.900000E-01   1.00800           0
     30064 LPSA28   1        ECLIPA   C812     CTL2    -0.180000       12.0110           0
     30065 LPSA28   1        ECLIPA   H812R    HAL2     0.900000E-01   1.00800           0
     30066 LPSA28   1        ECLIPA   H812S    HAL2     0.900000E-01   1.00800           0
     30067 LPSA28   1        ECLIPA   C813     CTL2    -0.180000       12.0110           0
     30068 LPSA28   1        ECLIPA   H813R    HAL2     0.900000E-01   1.00800           0
     30069 LPSA28   1        ECLIPA   H813S    HAL2     0.900000E-01   1.00800           0
     30070 LPSA28   1        ECLIPA   C814     CTL3    -0.270000       12.0110           0
     30071 LPSA28   1        ECLIPA   H814R    HAL3     0.900000E-01   1.00800           0
     30072 LPSA28   1        ECLIPA   H814S    HAL3     0.900000E-01   1.00800           0
     30073 LPSA28   1        ECLIPA   H814T    HAL3     0.900000E-01   1.00800           0
     30074 LPSA28   1        ECLIPA   C74      CTL2    -0.180000       12.0110           0
     30075 LPSA28   1        ECLIPA   H74R     HAL2     0.900000E-01   1.00800           0
     30076 LPSA28   1        ECLIPA   H74S     HAL2     0.900000E-01   1.00800           0
     30077 LPSA28   1        ECLIPA   C75      CTL2    -0.180000       12.0110           0
     30078 LPSA28   1        ECLIPA   H75R     HAL2     0.900000E-01   1.00800           0
     30079 LPSA28   1        ECLIPA   H75S     HAL2     0.900000E-01   1.00800           0
     30080 LPSA28   1        ECLIPA   C76      CTL2    -0.180000       12.0110           0
     30081 LPSA28   1        ECLIPA   H76R     HAL2     0.900000E-01   1.00800           0
     30082 LPSA28   1        ECLIPA   H76S     HAL2     0.900000E-01   1.00800           0
     30083 LPSA28   1        ECLIPA   C77      CTL2    -0.180000       12.0110           0
     30084 LPSA28   1        ECLIPA   H77R     HAL2     0.900000E-01   1.00800           0
     30085 LPSA28   1        ECLIPA   H77S     HAL2     0.900000E-01   1.00800           0
     30086 LPSA28   1        ECLIPA   C78      CTL2    -0.180000       12.0110           0
     30087 LPSA28   1        ECLIPA   H78R     HAL2     0.900000E-01   1.00800           0
     30088 LPSA28   1        ECLIPA   H78S     HAL2     0.900000E-01   1.00800           0
     30089 LPSA28   1        ECLIPA   C79      CTL2    -0.180000       12.0110           0
     30090 LPSA28   1        ECLIPA   H79R     HAL2     0.900000E-01   1.00800           0
     30091 LPSA28   1        ECLIPA   H79S     HAL2     0.900000E-01   1.00800           0
     30092 LPSA28   1        ECLIPA   C710     CTL2    -0.180000       12.0110           0
     30093 LPSA28   1        ECLIPA   H710R    HAL2     0.900000E-01   1.00800           0
     30094 LPSA28   1        ECLIPA   H710S    HAL2     0.900000E-01   1.00800           0
     30095 LPSA28   1        ECLIPA   C711     CTL2    -0.180000       12.0110           0
     30096 LPSA28   1        ECLIPA   H711R    HAL2     0.900000E-01   1.00800           0
     30097 LPSA28   1        ECLIPA   H711S    HAL2     0.900000E-01   1.00800           0
     30098 LPSA28   1        ECLIPA   C712     CTL2    -0.180000       12.0110           0
     30099 LPSA28   1        ECLIPA   H712R    HAL2     0.900000E-01   1.00800           0
     30100 LPSA28   1        ECLIPA   H712S    HAL2     0.900000E-01   1.00800           0
     30101 LPSA28   1        ECLIPA   C713     CTL2    -0.180000       12.0110           0
     30102 LPSA28   1        ECLIPA   H713R    HAL2     0.900000E-01   1.00800           0
     30103 LPSA28   1        ECLIPA   H713S    HAL2     0.900000E-01   1.00800           0
     30104 LPSA28   1        ECLIPA   C714     CTL3    -0.270000       12.0110           0
     30105 LPSA28   1        ECLIPA   H714R    HAL3     0.900000E-01   1.00800           0
     30106 LPSA28   1        ECLIPA   H714S    HAL3     0.900000E-01   1.00800           0
     30107 LPSA28   1        ECLIPA   H714T    HAL3     0.900000E-01   1.00800           0
     30108 LPSA28   1        ECLIPA   C51      CC2O1    0.550000       12.0110           0
     30109 LPSA28   1        ECLIPA   O51      OC2D1   -0.550000       15.9994           0
     30110 LPSA28   1        ECLIPA   C52      CTL2    -0.180000       12.0110           0
     30111 LPSA28   1        ECLIPA   H52R     HAL2     0.900000E-01   1.00800           0
     30112 LPSA28   1        ECLIPA   H52S     HAL2     0.900000E-01   1.00800           0
     30113 LPSA28   1        ECLIPA   C53      CTL1     0.170000       12.0110           0
     30114 LPSA28   1        ECLIPA   H53R     HAL1     0.900000E-01   1.00800           0
     30115 LPSA28   1        ECLIPA   O53      OSL     -0.490000       15.9994           0
     30116 LPSA28   1        ECLIPA   C61      CL       0.900000       12.0110           0
     30117 LPSA28   1        ECLIPA   O61      OBL     -0.630000       15.9994           0
     30118 LPSA28   1        ECLIPA   C62      CTL2    -0.220000       12.0110           0
     30119 LPSA28   1        ECLIPA   H62R     HAL2     0.900000E-01   1.00800           0
     30120 LPSA28   1        ECLIPA   H62S     HAL2     0.900000E-01   1.00800           0
     30121 LPSA28   1        ECLIPA   C63      CTL2    -0.180000       12.0110           0
     30122 LPSA28   1        ECLIPA   H63R     HAL2     0.900000E-01   1.00800           0
     30123 LPSA28   1        ECLIPA   H63S     HAL2     0.900000E-01   1.00800           0
     30124 LPSA28   1        ECLIPA   C64      CTL2    -0.180000       12.0110           0
     30125 LPSA28   1        ECLIPA   H64R     HAL2     0.900000E-01   1.00800           0
     30126 LPSA28   1        ECLIPA   H64S     HAL2     0.900000E-01   1.00800           0
     30127 LPSA28   1        ECLIPA   C65      CTL2    -0.180000       12.0110           0
     30128 LPSA28   1        ECLIPA   H65R     HAL2     0.900000E-01   1.00800           0
     30129 LPSA28   1        ECLIPA   H65S     HAL2     0.900000E-01   1.00800           0
     30130 LPSA28   1        ECLIPA   C66      CTL2    -0.180000       12.0110           0
     30131 LPSA28   1        ECLIPA   H66R     HAL2     0.900000E-01   1.00800           0
     30132 LPSA28   1        ECLIPA   H66S     HAL2     0.900000E-01   1.00800           0
     30133 LPSA28   1        ECLIPA   C67      CTL2    -0.180000       12.0110           0
     30134 LPSA28   1        ECLIPA   H67R     HAL2     0.900000E-01   1.00800           0
     30135 LPSA28   1        ECLIPA   H67S     HAL2     0.900000E-01   1.00800           0
     30136 LPSA28   1        ECLIPA   C68      CTL2    -0.180000       12.0110           0
     30137 LPSA28   1        ECLIPA   H68R     HAL2     0.900000E-01   1.00800           0
     30138 LPSA28   1        ECLIPA   H68S     HAL2     0.900000E-01   1.00800           0
     30139 LPSA28   1        ECLIPA   C69      CTL2    -0.180000       12.0110           0
     30140 LPSA28   1        ECLIPA   H69R     HAL2     0.900000E-01   1.00800           0
     30141 LPSA28   1        ECLIPA   H69S     HAL2     0.900000E-01   1.00800           0
     30142 LPSA28   1        ECLIPA   C610     CTL2    -0.180000       12.0110           0
     30143 LPSA28   1        ECLIPA   H610R    HAL2     0.900000E-01   1.00800           0
     30144 LPSA28   1        ECLIPA   H610S    HAL2     0.900000E-01   1.00800           0
     30145 LPSA28   1        ECLIPA   C611     CTL2    -0.180000       12.0110           0
     30146 LPSA28   1        ECLIPA   H611R    HAL2     0.900000E-01   1.00800           0
     30147 LPSA28   1        ECLIPA   H611S    HAL2     0.900000E-01   1.00800           0
     30148 LPSA28   1        ECLIPA   C612     CTL3    -0.270000       12.0110           0
     30149 LPSA28   1        ECLIPA   H612R    HAL3     0.900000E-01   1.00800           0
     30150 LPSA28   1        ECLIPA   H612S    HAL3     0.900000E-01   1.00800           0
     30151 LPSA28   1        ECLIPA   H612T    HAL3     0.900000E-01   1.00800           0
     30152 LPSA28   1        ECLIPA   C54      CTL2    -0.180000       12.0110           0
     30153 LPSA28   1        ECLIPA   H54R     HAL2     0.900000E-01   1.00800           0
     30154 LPSA28   1        ECLIPA   H54S     HAL2     0.900000E-01   1.00800           0
     30155 LPSA28   1        ECLIPA   C55      CTL2    -0.180000       12.0110           0
     30156 LPSA28   1        ECLIPA   H55R     HAL2     0.900000E-01   1.00800           0
     30157 LPSA28   1        ECLIPA   H55S     HAL2     0.900000E-01   1.00800           0
     30158 LPSA28   1        ECLIPA   C56      CTL2    -0.180000       12.0110           0
     30159 LPSA28   1        ECLIPA   H56R     HAL2     0.900000E-01   1.00800           0
     30160 LPSA28   1        ECLIPA   H56S     HAL2     0.900000E-01   1.00800           0
     30161 LPSA28   1        ECLIPA   C57      CTL2    -0.180000       12.0110           0
     30162 LPSA28   1        ECLIPA   H57R     HAL2     0.900000E-01   1.00800           0
     30163 LPSA28   1        ECLIPA   H57S     HAL2     0.900000E-01   1.00800           0
     30164 LPSA28   1        ECLIPA   C58      CTL2    -0.180000       12.0110           0
     30165 LPSA28   1        ECLIPA   H58R     HAL2     0.900000E-01   1.00800           0
     30166 LPSA28   1        ECLIPA   H58S     HAL2     0.900000E-01   1.00800           0
     30167 LPSA28   1        ECLIPA   C59      CTL2    -0.180000       12.0110           0
     30168 LPSA28   1        ECLIPA   H59R     HAL2     0.900000E-01   1.00800           0
     30169 LPSA28   1        ECLIPA   H59S     HAL2     0.900000E-01   1.00800           0
     30170 LPSA28   1        ECLIPA   C510     CTL2    -0.180000       12.0110           0
     30171 LPSA28   1        ECLIPA   H510R    HAL2     0.900000E-01   1.00800           0
     30172 LPSA28   1        ECLIPA   H510S    HAL2     0.900000E-01   1.00800           0
     30173 LPSA28   1        ECLIPA   C511     CTL2    -0.180000       12.0110           0
     30174 LPSA28   1        ECLIPA   H511R    HAL2     0.900000E-01   1.00800           0
     30175 LPSA28   1        ECLIPA   H511S    HAL2     0.900000E-01   1.00800           0
     30176 LPSA28   1        ECLIPA   C512     CTL2    -0.180000       12.0110           0
     30177 LPSA28   1        ECLIPA   H512R    HAL2     0.900000E-01   1.00800           0
     30178 LPSA28   1        ECLIPA   H512S    HAL2     0.900000E-01   1.00800           0
     30179 LPSA28   1        ECLIPA   C513     CTL2    -0.180000       12.0110           0
     30180 LPSA28   1        ECLIPA   H513R    HAL2     0.900000E-01   1.00800           0
     30181 LPSA28   1        ECLIPA   H513S    HAL2     0.900000E-01   1.00800           0
     30182 LPSA28   1        ECLIPA   C514     CTL3    -0.270000       12.0110           0
     30183 LPSA28   1        ECLIPA   H514R    HAL3     0.900000E-01   1.00800           0
     30184 LPSA28   1        ECLIPA   H514S    HAL3     0.900000E-01   1.00800           0
     30185 LPSA28   1        ECLIPA   H514T    HAL3     0.900000E-01   1.00800           0
     30186 LPSA28   1        ECLIPA   C33      CTL1     0.140000       12.0110           0
     30187 LPSA28   1        ECLIPA   H33R     HAL1     0.900000E-01   1.00800           0
     30188 LPSA28   1        ECLIPA   O33      OH1     -0.660000       15.9994           0
     30189 LPSA28   1        ECLIPA   HO33     H        0.430000       1.00800           0
     30190 LPSA28   1        ECLIPA   C34      CTL2    -0.180000       12.0110           0
     30191 LPSA28   1        ECLIPA   H34R     HAL2     0.900000E-01   1.00800           0
     30192 LPSA28   1        ECLIPA   H34S     HAL2     0.900000E-01   1.00800           0
     30193 LPSA28   1        ECLIPA   C35      CTL2    -0.180000       12.0110           0
     30194 LPSA28   1        ECLIPA   H35R     HAL2     0.900000E-01   1.00800           0
     30195 LPSA28   1        ECLIPA   H35S     HAL2     0.900000E-01   1.00800           0
     30196 LPSA28   1        ECLIPA   C36      CTL2    -0.180000       12.0110           0
     30197 LPSA28   1        ECLIPA   H36R     HAL2     0.900000E-01   1.00800           0
     30198 LPSA28   1        ECLIPA   H36S     HAL2     0.900000E-01   1.00800           0
     30199 LPSA28   1        ECLIPA   C37      CTL2    -0.180000       12.0110           0
     30200 LPSA28   1        ECLIPA   H37R     HAL2     0.900000E-01   1.00800           0
     30201 LPSA28   1        ECLIPA   H37S     HAL2     0.900000E-01   1.00800           0
     30202 LPSA28   1        ECLIPA   C38      CTL2    -0.180000       12.0110           0
     30203 LPSA28   1        ECLIPA   H38R     HAL2     0.900000E-01   1.00800           0
     30204 LPSA28   1        ECLIPA   H38S     HAL2     0.900000E-01   1.00800           0
     30205 LPSA28   1        ECLIPA   C39      CTL2    -0.180000       12.0110           0
     30206 LPSA28   1        ECLIPA   H39R     HAL2     0.900000E-01   1.00800           0
     30207 LPSA28   1        ECLIPA   H39S     HAL2     0.900000E-01   1.00800           0
     30208 LPSA28   1        ECLIPA   C310     CTL2    -0.180000       12.0110           0
     30209 LPSA28   1        ECLIPA   H310R    HAL2     0.900000E-01   1.00800           0
     30210 LPSA28   1        ECLIPA   H310S    HAL2     0.900000E-01   1.00800           0
     30211 LPSA28   1        ECLIPA   C311     CTL2    -0.180000       12.0110           0
     30212 LPSA28   1        ECLIPA   H311R    HAL2     0.900000E-01   1.00800           0
     30213 LPSA28   1        ECLIPA   H311S    HAL2     0.900000E-01   1.00800           0
     30214 LPSA28   1        ECLIPA   C312     CTL2    -0.180000       12.0110           0
     30215 LPSA28   1        ECLIPA   H312R    HAL2     0.900000E-01   1.00800           0
     30216 LPSA28   1        ECLIPA   H312S    HAL2     0.900000E-01   1.00800           0
     30217 LPSA28   1        ECLIPA   C313     CTL2    -0.180000       12.0110           0
     30218 LPSA28   1        ECLIPA   H313R    HAL2     0.900000E-01   1.00800           0
     30219 LPSA28   1        ECLIPA   H313S    HAL2     0.900000E-01   1.00800           0
     30220 LPSA28   1        ECLIPA   C314     CTL3    -0.270000       12.0110           0
     30221 LPSA28   1        ECLIPA   H314R    HAL3     0.900000E-01   1.00800           0
     30222 LPSA28   1        ECLIPA   H314S    HAL3     0.900000E-01   1.00800           0
     30223 LPSA28   1        ECLIPA   H314T    HAL3     0.900000E-01   1.00800           0
     30224 LPSA28   1        ECLIPA   C11      CC2O1    0.550000       12.0110           0
     30225 LPSA28   1        ECLIPA   O11      OC2D1   -0.550000       15.9994           0
     30226 LPSA28   1        ECLIPA   C12      CTL2    -0.180000       12.0110           0
     30227 LPSA28   1        ECLIPA   H12R     HAL2     0.900000E-01   1.00800           0
     30228 LPSA28   1        ECLIPA   H12S     HAL2     0.900000E-01   1.00800           0
     30229 LPSA28   1        ECLIPA   C13      CTL1     0.140000       12.0110           0
     30230 LPSA28   1        ECLIPA   H13R     HAL1     0.900000E-01   1.00800           0
     30231 LPSA28   1        ECLIPA   O13      OH1     -0.660000       15.9994           0
     30232 LPSA28   1        ECLIPA   HO13     H        0.430000       1.00800           0
     30233 LPSA28   1        ECLIPA   C14      CTL2    -0.180000       12.0110           0
     30234 LPSA28   1        ECLIPA   H14R     HAL2     0.900000E-01   1.00800           0
     30235 LPSA28   1        ECLIPA   H14S     HAL2     0.900000E-01   1.00800           0
     30236 LPSA28   1        ECLIPA   C15      CTL2    -0.180000       12.0110           0
     30237 LPSA28   1        ECLIPA   H15R     HAL2     0.900000E-01   1.00800           0
     30238 LPSA28   1        ECLIPA   H15S     HAL2     0.900000E-01   1.00800           0
     30239 LPSA28   1        ECLIPA   C16      CTL2    -0.180000       12.0110           0
     30240 LPSA28   1        ECLIPA   H16R     HAL2     0.900000E-01   1.00800           0
     30241 LPSA28   1        ECLIPA   H16S     HAL2     0.900000E-01   1.00800           0
     30242 LPSA28   1        ECLIPA   C17      CTL2    -0.180000       12.0110           0
     30243 LPSA28   1        ECLIPA   H17R     HAL2     0.900000E-01   1.00800           0
     30244 LPSA28   1        ECLIPA   H17S     HAL2     0.900000E-01   1.00800           0
     30245 LPSA28   1        ECLIPA   C18      CTL2    -0.180000       12.0110           0
     30246 LPSA28   1        ECLIPA   H18R     HAL2     0.900000E-01   1.00800           0
     30247 LPSA28   1        ECLIPA   H18S     HAL2     0.900000E-01   1.00800           0
     30248 LPSA28   1        ECLIPA   C19      CTL2    -0.180000       12.0110           0
     30249 LPSA28   1        ECLIPA   H19R     HAL2     0.900000E-01   1.00800           0
     30250 LPSA28   1        ECLIPA   H19S     HAL2     0.900000E-01   1.00800           0
     30251 LPSA28   1        ECLIPA   C110     CTL2    -0.180000       12.0110           0
     30252 LPSA28   1        ECLIPA   H110R    HAL2     0.900000E-01   1.00800           0
     30253 LPSA28   1        ECLIPA   H110S    HAL2     0.900000E-01   1.00800           0
     30254 LPSA28   1        ECLIPA   C111     CTL2    -0.180000       12.0110           0
     30255 LPSA28   1        ECLIPA   H111R    HAL2     0.900000E-01   1.00800           0
     30256 LPSA28   1        ECLIPA   H111S    HAL2     0.900000E-01   1.00800           0
     30257 LPSA28   1        ECLIPA   C112     CTL2    -0.180000       12.0110           0
     30258 LPSA28   1        ECLIPA   H112R    HAL2     0.900000E-01   1.00800           0
     30259 LPSA28   1        ECLIPA   H112S    HAL2     0.900000E-01   1.00800           0
     30260 LPSA28   1        ECLIPA   C113     CTL2    -0.180000       12.0110           0
     30261 LPSA28   1        ECLIPA   H113R    HAL2     0.900000E-01   1.00800           0
     30262 LPSA28   1        ECLIPA   H113S    HAL2     0.900000E-01   1.00800           0
     30263 LPSA28   1        ECLIPA   C114     CTL3    -0.270000       12.0110           0
     30264 LPSA28   1        ECLIPA   H114R    HAL3     0.900000E-01   1.00800           0
     30265 LPSA28   1        ECLIPA   H114S    HAL3     0.900000E-01   1.00800           0
     30266 LPSA28   1        ECLIPA   H114T    HAL3     0.900000E-01   1.00800           0
     30267 LPSA28   2        AKDO     C1       CC2O2    0.300000       12.0110           0
     30268 LPSA28   2        AKDO     O11      OC2D2   -0.600000       15.9994           0
     30269 LPSA28   2        AKDO     O12      OC2D2   -0.600000       15.9994           0
     30270 LPSA28   2        AKDO     C2       CC3062   0.280000       12.0110           0
     30271 LPSA28   2        AKDO     C6       CC3163   0.110000       12.0110           0
     30272 LPSA28   2        AKDO     H6       HCA1     0.900000E-01   1.00800           0
     30273 LPSA28   2        AKDO     O6       OC3C61  -0.400000       15.9994           0
     30274 LPSA28   2        AKDO     C3       CC3261  -0.180000       12.0110           0
     30275 LPSA28   2        AKDO     H31      HCA2     0.900000E-01   1.00800           0
     30276 LPSA28   2        AKDO     H32      HCA2     0.900000E-01   1.00800           0
     30277 LPSA28   2        AKDO     C4       CC3161   0.900000E-01   12.0110           0
     30278 LPSA28   2        AKDO     H4       HCA1     0.900000E-01   1.00800           0
     30279 LPSA28   2        AKDO     O4       OC301   -0.360000       15.9994           0
     30280 LPSA28   2        AKDO     C5       CC3161   0.900000E-01   12.0110           0
     30281 LPSA28   2        AKDO     H5       HCA1     0.900000E-01   1.00800           0
     30282 LPSA28   2        AKDO     O5       OC301   -0.360000       15.9994           0
     30283 LPSA28   2        AKDO     C7       CC312    0.140000       12.0110           0
     30284 LPSA28   2        AKDO     H7       HCA1     0.900000E-01   1.00800           0
     30285 LPSA28   2        AKDO     O7       OC311   -0.650000       15.9994           0
     30286 LPSA28   2        AKDO     HO7      HCP1     0.420000       1.00800           0
     30287 LPSA28   2        AKDO     C8       CC322    0.500000E-01   12.0110           0
     30288 LPSA28   2        AKDO     H81      HCA2     0.900000E-01   1.00800           0
     30289 LPSA28   2        AKDO     H82      HCA2     0.900000E-01   1.00800           0
     30290 LPSA28   2        AKDO     O8       OC311   -0.650000       15.9994           0
     30291 LPSA28   2        AKDO     HO8      HCP1     0.420000       1.00800           0
     30292 LPSA28   3        AKDO     C1       CC2O2    0.300000       12.0110           0
     30293 LPSA28   3        AKDO     O11      OC2D2   -0.600000       15.9994           0
     30294 LPSA28   3        AKDO     O12      OC2D2   -0.600000       15.9994           0
     30295 LPSA28   3        AKDO     C2       CC3062   0.280000       12.0110           0
     30296 LPSA28   3        AKDO     C6       CC3163   0.110000       12.0110           0
     30297 LPSA28   3        AKDO     H6       HCA1     0.900000E-01   1.00800           0
     30298 LPSA28   3        AKDO     O6       OC3C61  -0.400000       15.9994           0
     30299 LPSA28   3        AKDO     C3       CC3261  -0.180000       12.0110           0
     30300 LPSA28   3        AKDO     H31      HCA2     0.900000E-01   1.00800           0
     30301 LPSA28   3        AKDO     H32      HCA2     0.900000E-01   1.00800           0
     30302 LPSA28   3        AKDO     C4       CC3161   0.140000       12.0110           0
     30303 LPSA28   3        AKDO     H4       HCA1     0.900000E-01   1.00800           0
     30304 LPSA28   3        AKDO     O4       OC311   -0.650000       15.9994           0
     30305 LPSA28   3        AKDO     HO4      HCP1     0.420000       1.00800           0
     30306 LPSA28   3        AKDO     C5       CC3161   0.140000       12.0110           0
     30307 LPSA28   3        AKDO     H5       HCA1     0.900000E-01   1.00800           0
     30308 LPSA28   3        AKDO     O5       OC311   -0.650000       15.9994           0
     30309 LPSA28   3        AKDO     HO5      HCP1     0.420000       1.00800           0
     30310 LPSA28   3        AKDO     C7       CC312    0.140000       12.0110           0
     30311 LPSA28   3        AKDO     H7       HCA1     0.900000E-01   1.00800           0
     30312 LPSA28   3        AKDO     O7       OC311   -0.650000       15.9994           0
     30313 LPSA28   3        AKDO     HO7      HCP1     0.420000       1.00800           0
     30314 LPSA28   3        AKDO     C8       CC322    0.500000E-01   12.0110           0
     30315 LPSA28   3        AKDO     H81      HCA2     0.900000E-01   1.00800           0
     30316 LPSA28   3        AKDO     H82      HCA2     0.900000E-01   1.00800           0
     30317 LPSA28   3        AKDO     O8       OC311   -0.650000       15.9994           0
     30318 LPSA28   3        AKDO     HO8      HCP1     0.420000       1.00800           0
     30319 LPSA28   4        AHEP     C1       CC3162   0.290000       12.0110           0
     30320 LPSA28   4        AHEP     H1       HCA1     0.900000E-01   1.00800           0
     30321 LPSA28   4        AHEP     C5       CC3163   0.110000       12.0110           0
     30322 LPSA28   4        AHEP     H5       HCA1     0.900000E-01   1.00800           0
     30323 LPSA28   4        AHEP     O5       OC3C61  -0.400000       15.9994           0
     30324 LPSA28   4        AHEP     C2       CC3161   0.140000       12.0110           0
     30325 LPSA28   4        AHEP     H2       HCA1     0.900000E-01   1.00800           0
     30326 LPSA28   4        AHEP     O2       OC311   -0.650000       15.9994           0
     30327 LPSA28   4        AHEP     HO2      HCP1     0.420000       1.00800           0
     30328 LPSA28   4        AHEP     C3       CC3161   0.900000E-01   12.0110           0
     30329 LPSA28   4        AHEP     H3       HCA1     0.900000E-01   1.00800           0
     30330 LPSA28   4        AHEP     O3       OC301   -0.360000       15.9994           0
     30331 LPSA28   4        AHEP     C4       CC3161  -0.900000E-01   12.0110           0
     30332 LPSA28   4        AHEP     H4       HCA1     0.900000E-01   1.00800           0
     30333 LPSA28   4        AHEP     O4       OC30P   -0.400000       15.9994           0
     30334 LPSA28   4        AHEP     P4       PC        1.10000       30.9740           0
     30335 LPSA28   4        AHEP     OP42     OC2DP   -0.900000       15.9994           0
     30336 LPSA28   4        AHEP     OP43     OC2DP   -0.900000       15.9994           0
     30337 LPSA28   4        AHEP     OP44     OC2DP   -0.900000       15.9994           0
     30338 LPSA28   4        AHEP     C6       CC312    0.140000       12.0110           0
     30339 LPSA28   4        AHEP     H6       HCA1     0.900000E-01   1.00800           0
     30340 LPSA28   4        AHEP     O6       OC311   -0.650000       15.9994           0
     30341 LPSA28   4        AHEP     HO6      HCP1     0.420000       1.00800           0
     30342 LPSA28   4        AHEP     C7       CC322    0.500000E-01   12.0110           0
     30343 LPSA28   4        AHEP     H71      HCA2     0.900000E-01   1.00800           0
     30344 LPSA28   4        AHEP     H72      HCA2     0.900000E-01   1.00800           0
     30345 LPSA28   4        AHEP     O7       OC311   -0.650000       15.9994           0
     30346 LPSA28   4        AHEP     HO7      HCP1     0.420000       1.00800           0
     30347 LPSA28   5        AHEP     C1       CC3162   0.290000       12.0110           0
     30348 LPSA28   5        AHEP     H1       HCA1     0.900000E-01   1.00800           0
     30349 LPSA28   5        AHEP     C5       CC3163   0.110000       12.0110           0
     30350 LPSA28   5        AHEP     H5       HCA1     0.900000E-01   1.00800           0
     30351 LPSA28   5        AHEP     O5       OC3C61  -0.400000       15.9994           0
     30352 LPSA28   5        AHEP     C2       CC3161   0.140000       12.0110           0
     30353 LPSA28   5        AHEP     H2       HCA1     0.900000E-01   1.00800           0
     30354 LPSA28   5        AHEP     O2       OC311   -0.650000       15.9994           0
     30355 LPSA28   5        AHEP     HO2      HCP1     0.420000       1.00800           0
     30356 LPSA28   5        AHEP     C3       CC3161   0.900000E-01   12.0110           0
     30357 LPSA28   5        AHEP     H3       HCA1     0.900000E-01   1.00800           0
     30358 LPSA28   5        AHEP     O3       OC301   -0.360000       15.9994           0
     30359 LPSA28   5        AHEP     C4       CC3161  -0.900000E-01   12.0110           0
     30360 LPSA28   5        AHEP     H4       HCA1     0.900000E-01   1.00800           0
     30361 LPSA28   5        AHEP     O4       OC30P   -0.400000       15.9994           0
     30362 LPSA28   5        AHEP     P4       PC        1.10000       30.9740           0
     30363 LPSA28   5        AHEP     OP42     OC2DP   -0.900000       15.9994           0
     30364 LPSA28   5        AHEP     OP43     OC2DP   -0.900000       15.9994           0
     30365 LPSA28   5        AHEP     OP44     OC2DP   -0.900000       15.9994           0
     30366 LPSA28   5        AHEP     C6       CC312    0.140000       12.0110           0
     30367 LPSA28   5        AHEP     H6       HCA1     0.900000E-01   1.00800           0
     30368 LPSA28   5        AHEP     O6       OC311   -0.650000       15.9994           0
     30369 LPSA28   5        AHEP     HO6      HCP1     0.420000       1.00800           0
     30370 LPSA28   5        AHEP     C7       CC322     0.00000       12.0110           0
     30371 LPSA28   5        AHEP     H71      HCA2     0.900000E-01   1.00800           0
     30372 LPSA28   5        AHEP     H72      HCA2     0.900000E-01   1.00800           0
     30373 LPSA28   5        AHEP     O7       OC301   -0.360000       15.9994           0
     30374 LPSA28   6        AHEP     C1       CC3162   0.290000       12.0110           0
     30375 LPSA28   6        AHEP     H1       HCA1     0.900000E-01   1.00800           0
     30376 LPSA28   6        AHEP     C5       CC3163   0.110000       12.0110           0
     30377 LPSA28   6        AHEP     H5       HCA1     0.900000E-01   1.00800           0
     30378 LPSA28   6        AHEP     O5       OC3C61  -0.400000       15.9994           0
     30379 LPSA28   6        AHEP     C2       CC3161   0.140000       12.0110           0
     30380 LPSA28   6        AHEP     H2       HCA1     0.900000E-01   1.00800           0
     30381 LPSA28   6        AHEP     O2       OC311   -0.650000       15.9994           0
     30382 LPSA28   6        AHEP     HO2      HCP1     0.420000       1.00800           0
     30383 LPSA28   6        AHEP     C3       CC3161   0.140000       12.0110           0
     30384 LPSA28   6        AHEP     H3       HCA1     0.900000E-01   1.00800           0
     30385 LPSA28   6        AHEP     O3       OC311   -0.650000       15.9994           0
     30386 LPSA28   6        AHEP     HO3      HCP1     0.420000       1.00800           0
     30387 LPSA28   6        AHEP     C4       CC3161   0.140000       12.0110           0
     30388 LPSA28   6        AHEP     H4       HCA1     0.900000E-01   1.00800           0
     30389 LPSA28   6        AHEP     O4       OC311   -0.650000       15.9994           0
     30390 LPSA28   6        AHEP     HO4      HCP1     0.420000       1.00800           0
     30391 LPSA28   6        AHEP     C6       CC312    0.140000       12.0110           0
     30392 LPSA28   6        AHEP     H6       HCA1     0.900000E-01   1.00800           0
     30393 LPSA28   6        AHEP     O6       OC311   -0.650000       15.9994           0
     30394 LPSA28   6        AHEP     HO6      HCP1     0.420000       1.00800           0
     30395 LPSA28   6        AHEP     C7       CC322    0.500000E-01   12.0110           0
     30396 LPSA28   6        AHEP     H71      HCA2     0.900000E-01   1.00800           0
     30397 LPSA28   6        AHEP     H72      HCA2     0.900000E-01   1.00800           0
     30398 LPSA28   6        AHEP     O7       OC311   -0.650000       15.9994           0
     30399 LPSA28   6        AHEP     HO7      HCP1     0.420000       1.00800           0
     30400 LPSA28   7        AGLC     C1       CC3162   0.290000       12.0110           0
     30401 LPSA28   7        AGLC     H1       HCA1     0.900000E-01   1.00800           0
     30402 LPSA28   7        AGLC     C5       CC3163   0.110000       12.0110           0
     30403 LPSA28   7        AGLC     H5       HCA1     0.900000E-01   1.00800           0
     30404 LPSA28   7        AGLC     O5       OC3C61  -0.400000       15.9994           0
     30405 LPSA28   7        AGLC     C2       CC3161   0.140000       12.0110           0
     30406 LPSA28   7        AGLC     H2       HCA1     0.900000E-01   1.00800           0
     30407 LPSA28   7        AGLC     O2       OC311   -0.650000       15.9994           0
     30408 LPSA28   7        AGLC     HO2      HCP1     0.420000       1.00800           0
     30409 LPSA28   7        AGLC     C3       CC3161   0.900000E-01   12.0110           0
     30410 LPSA28   7        AGLC     H3       HCA1     0.900000E-01   1.00800           0
     30411 LPSA28   7        AGLC     O3       OC301   -0.360000       15.9994           0
     30412 LPSA28   7        AGLC     C4       CC3161   0.140000       12.0110           0
     30413 LPSA28   7        AGLC     H4       HCA1     0.900000E-01   1.00800           0
     30414 LPSA28   7        AGLC     O4       OC311   -0.650000       15.9994           0
     30415 LPSA28   7        AGLC     HO4      HCP1     0.420000       1.00800           0
     30416 LPSA28   7        AGLC     C6       CC321    0.500000E-01   12.0110           0
     30417 LPSA28   7        AGLC     H61      HCA2     0.900000E-01   1.00800           0
     30418 LPSA28   7        AGLC     H62      HCA2     0.900000E-01   1.00800           0
     30419 LPSA28   7        AGLC     O6       OC311   -0.650000       15.9994           0
     30420 LPSA28   7        AGLC     HO6      HCP1     0.420000       1.00800           0
     30421 LPSA28   8        AGLC     C1       CC3162   0.290000       12.0110           0
     30422 LPSA28   8        AGLC     H1       HCA1     0.900000E-01   1.00800           0
     30423 LPSA28   8        AGLC     C5       CC3163   0.110000       12.0110           0
     30424 LPSA28   8        AGLC     H5       HCA1     0.900000E-01   1.00800           0
     30425 LPSA28   8        AGLC     O5       OC3C61  -0.400000       15.9994           0
     30426 LPSA28   8        AGLC     C2       CC3161   0.900000E-01   12.0110           0
     30427 LPSA28   8        AGLC     H2       HCA1     0.900000E-01   1.00800           0
     30428 LPSA28   8        AGLC     O2       OC301   -0.360000       15.9994           0
     30429 LPSA28   8        AGLC     C3       CC3161   0.900000E-01   12.0110           0
     30430 LPSA28   8        AGLC     H3       HCA1     0.900000E-01   1.00800           0
     30431 LPSA28   8        AGLC     O3       OC301   -0.360000       15.9994           0
     30432 LPSA28   8        AGLC     C4       CC3161   0.140000       12.0110           0
     30433 LPSA28   8        AGLC     H4       HCA1     0.900000E-01   1.00800           0
     30434 LPSA28   8        AGLC     O4       OC311   -0.650000       15.9994           0
     30435 LPSA28   8        AGLC     HO4      HCP1     0.420000       1.00800           0
     30436 LPSA28   8        AGLC     C6       CC321    0.500000E-01   12.0110           0
     30437 LPSA28   8        AGLC     H61      HCA2     0.900000E-01   1.00800           0
     30438 LPSA28   8        AGLC     H62      HCA2     0.900000E-01   1.00800           0
     30439 LPSA28   8        AGLC     O6       OC311   -0.650000       15.9994           0
     30440 LPSA28   8        AGLC     HO6      HCP1     0.420000       1.00800           0
     30441 LPSA28   9        AGAL     C1       CC3162   0.290000       12.0110           0
     30442 LPSA28   9        AGAL     H1       HCA1     0.900000E-01   1.00800           0
     30443 LPSA28   9        AGAL     C5       CC3163   0.110000       12.0110           0
     30444 LPSA28   9        AGAL     H5       HCA1     0.900000E-01   1.00800           0
     30445 LPSA28   9        AGAL     O5       OC3C61  -0.400000       15.9994           0
     30446 LPSA28   9        AGAL     C2       CC3161   0.900000E-01   12.0110           0
     30447 LPSA28   9        AGAL     H2       HCA1     0.900000E-01   1.00800           0
     30448 LPSA28   9        AGAL     O2       OC301   -0.360000       15.9994           0
     30449 LPSA28   9        AGAL     C3       CC3161   0.140000       12.0110           0
     30450 LPSA28   9        AGAL     H3       HCA1     0.900000E-01   1.00800           0
     30451 LPSA28   9        AGAL     O3       OC311   -0.650000       15.9994           0
     30452 LPSA28   9        AGAL     HO3      HCP1     0.420000       1.00800           0
     30453 LPSA28   9        AGAL     C4       CC3161   0.140000       12.0110           0
     30454 LPSA28   9        AGAL     H4       HCA1     0.900000E-01   1.00800           0
     30455 LPSA28   9        AGAL     O4       OC311   -0.650000       15.9994           0
     30456 LPSA28   9        AGAL     HO4      HCP1     0.420000       1.00800           0
     30457 LPSA28   9        AGAL     C6       CC321    0.500000E-01   12.0110           0
     30458 LPSA28   9        AGAL     H61      HCA2     0.900000E-01   1.00800           0
     30459 LPSA28   9        AGAL     H62      HCA2     0.900000E-01   1.00800           0
     30460 LPSA28   9        AGAL     O6       OC311   -0.650000       15.9994           0
     30461 LPSA28   9        AGAL     HO6      HCP1     0.420000       1.00800           0
     30462 LPSA28   10       AGAL     C1       CC3162   0.290000       12.0110           0
     30463 LPSA28   10       AGAL     H1       HCA1     0.900000E-01   1.00800           0
     30464 LPSA28   10       AGAL     C5       CC3163   0.110000       12.0110           0
     30465 LPSA28   10       AGAL     H5       HCA1     0.900000E-01   1.00800           0
     30466 LPSA28   10       AGAL     O5       OC3C61  -0.400000       15.9994           0
     30467 LPSA28   10       AGAL     C2       CC3161   0.140000       12.0110           0
     30468 LPSA28   10       AGAL     H2       HCA1     0.900000E-01   1.00800           0
     30469 LPSA28   10       AGAL     O2       OC311   -0.650000       15.9994           0
     30470 LPSA28   10       AGAL     HO2      HCP1     0.420000       1.00800           0
     30471 LPSA28   10       AGAL     C3       CC3161   0.140000       12.0110           0
     30472 LPSA28   10       AGAL     H3       HCA1     0.900000E-01   1.00800           0
     30473 LPSA28   10       AGAL     O3       OC311   -0.650000       15.9994           0
     30474 LPSA28   10       AGAL     HO3      HCP1     0.420000       1.00800           0
     30475 LPSA28   10       AGAL     C4       CC3161   0.140000       12.0110           0
     30476 LPSA28   10       AGAL     H4       HCA1     0.900000E-01   1.00800           0
     30477 LPSA28   10       AGAL     O4       OC311   -0.650000       15.9994           0
     30478 LPSA28   10       AGAL     HO4      HCP1     0.420000       1.00800           0
     30479 LPSA28   10       AGAL     C6       CC321    0.500000E-01   12.0110           0
     30480 LPSA28   10       AGAL     H61      HCA2     0.900000E-01   1.00800           0
     30481 LPSA28   10       AGAL     H62      HCA2     0.900000E-01   1.00800           0
     30482 LPSA28   10       AGAL     O6       OC311   -0.650000       15.9994           0
     30483 LPSA28   10       AGAL     HO6      HCP1     0.420000       1.00800           0
     30484 LPSA28   11       BGLC     C1       CC3162   0.290000       12.0110           0
     30485 LPSA28   11       BGLC     H1       HCA1     0.900000E-01   1.00800           0
     30486 LPSA28   11       BGLC     C5       CC3163   0.110000       12.0110           0
     30487 LPSA28   11       BGLC     H5       HCA1     0.900000E-01   1.00800           0
     30488 LPSA28   11       BGLC     O5       OC3C61  -0.400000       15.9994           0
     30489 LPSA28   11       BGLC     C2       CC3161   0.140000       12.0110           0
     30490 LPSA28   11       BGLC     H2       HCA1     0.900000E-01   1.00800           0
     30491 LPSA28   11       BGLC     O2       OC311   -0.650000       15.9994           0
     30492 LPSA28   11       BGLC     HO2      HCP1     0.420000       1.00800           0
     30493 LPSA28   11       BGLC     C3       CC3161   0.900000E-01   12.0110           0
     30494 LPSA28   11       BGLC     H3       HCA1     0.900000E-01   1.00800           0
     30495 LPSA28   11       BGLC     O3       OC301   -0.360000       15.9994           0
     30496 LPSA28   11       BGLC     C4       CC3161   0.140000       12.0110           0
     30497 LPSA28   11       BGLC     H4       HCA1     0.900000E-01   1.00800           0
     30498 LPSA28   11       BGLC     O4       OC311   -0.650000       15.9994           0
     30499 LPSA28   11       BGLC     HO4      HCP1     0.420000       1.00800           0
     30500 LPSA28   11       BGLC     C6       CC321    0.500000E-01   12.0110           0
     30501 LPSA28   11       BGLC     H61      HCA2     0.900000E-01   1.00800           0
     30502 LPSA28   11       BGLC     H62      HCA2     0.900000E-01   1.00800           0
     30503 LPSA28   11       BGLC     O6       OC311   -0.650000       15.9994           0
     30504 LPSA28   11       BGLC     HO6      HCP1     0.420000       1.00800           0
     30505 LPSA28   12       BGLCNA   C1       CC3162   0.290000       12.0110           0
     30506 LPSA28   12       BGLCNA   H1       HCA1     0.900000E-01   1.00800           0
     30507 LPSA28   12       BGLCNA   C5       CC3163   0.110000       12.0110           0
     30508 LPSA28   12       BGLCNA   H5       HCA1     0.900000E-01   1.00800           0
     30509 LPSA28   12       BGLCNA   O5       OC3C61  -0.400000       15.9994           0
     30510 LPSA28   12       BGLCNA   C2       CC3161   0.700000E-01   12.0110           0
     30511 LPSA28   12       BGLCNA   H2       HCA1     0.900000E-01   1.00800           0
     30512 LPSA28   12       BGLCNA   N        NC2D1   -0.470000       14.0070           0
     30513 LPSA28   12       BGLCNA   HN       HCP1     0.310000       1.00800           0
     30514 LPSA28   12       BGLCNA   C        CC2O1    0.510000       12.0110           0
     30515 LPSA28   12       BGLCNA   O        OC2D1   -0.510000       15.9994           0
     30516 LPSA28   12       BGLCNA   CT       CC331   -0.270000       12.0110           0
     30517 LPSA28   12       BGLCNA   HT1      HCA3     0.900000E-01   1.00800           0
     30518 LPSA28   12       BGLCNA   HT2      HCA3     0.900000E-01   1.00800           0
     30519 LPSA28   12       BGLCNA   HT3      HCA3     0.900000E-01   1.00800           0
     30520 LPSA28   12       BGLCNA   C3       CC3161   0.900000E-01   12.0110           0
     30521 LPSA28   12       BGLCNA   H3       HCA1     0.900000E-01   1.00800           0
     30522 LPSA28   12       BGLCNA   O3       OC301   -0.360000       15.9994           0
     30523 LPSA28   12       BGLCNA   C4       CC3161   0.140000       12.0110           0
     30524 LPSA28   12       BGLCNA   H4       HCA1     0.900000E-01   1.00800           0
     30525 LPSA28   12       BGLCNA   O4       OC311   -0.650000       15.9994           0
     30526 LPSA28   12       BGLCNA   HO4      HCP1     0.420000       1.00800           0
     30527 LPSA28   12       BGLCNA   C6       CC321    0.500000E-01   12.0110           0
     30528 LPSA28   12       BGLCNA   H61      HCA2     0.900000E-01   1.00800           0
     30529 LPSA28   12       BGLCNA   H62      HCA2     0.900000E-01   1.00800           0
     30530 LPSA28   12       BGLCNA   O6       OC311   -0.650000       15.9994           0
     30531 LPSA28   12       BGLCNA   HO6      HCP1     0.420000       1.00800           0
     30532 LPSA28   13       AGAL     C1       CC3162   0.290000       12.0110           0
     30533 LPSA28   13       AGAL     H1       HCA1     0.900000E-01   1.00800           0
     30534 LPSA28   13       AGAL     C5       CC3163   0.110000       12.0110           0
     30535 LPSA28   13       AGAL     H5       HCA1     0.900000E-01   1.00800           0
     30536 LPSA28   13       AGAL     O5       OC3C61  -0.400000       15.9994           0
     30537 LPSA28   13       AGAL     C2       CC3161   0.900000E-01   12.0110           0
     30538 LPSA28   13       AGAL     H2       HCA1     0.900000E-01   1.00800           0
     30539 LPSA28   13       AGAL     O2       OC301   -0.360000       15.9994           0
     30540 LPSA28   13       AGAL     C3       CC3161   0.140000       12.0110           0
     30541 LPSA28   13       AGAL     H3       HCA1     0.900000E-01   1.00800           0
     30542 LPSA28   13       AGAL     O3       OC311   -0.650000       15.9994           0
     30543 LPSA28   13       AGAL     HO3      HCP1     0.420000       1.00800           0
     30544 LPSA28   13       AGAL     C4       CC3161   0.140000       12.0110           0
     30545 LPSA28   13       AGAL     H4       HCA1     0.900000E-01   1.00800           0
     30546 LPSA28   13       AGAL     O4       OC311   -0.650000       15.9994           0
     30547 LPSA28   13       AGAL     HO4      HCP1     0.420000       1.00800           0
     30548 LPSA28   13       AGAL     C6       CC321    0.500000E-01   12.0110           0
     30549 LPSA28   13       AGAL     H61      HCA2     0.900000E-01   1.00800           0
     30550 LPSA28   13       AGAL     H62      HCA2     0.900000E-01   1.00800           0
     30551 LPSA28   13       AGAL     O6       OC311   -0.650000       15.9994           0
     30552 LPSA28   13       AGAL     HO6      HCP1     0.420000       1.00800           0
     30553 LPSA28   14       ARHM     C1       CC3162   0.290000       12.0110           0
     30554 LPSA28   14       ARHM     H1       HCA1     0.900000E-01   1.00800           0
     30555 LPSA28   14       ARHM     C5       CC3163   0.110000       12.0110           0
     30556 LPSA28   14       ARHM     H5       HCA1     0.900000E-01   1.00800           0
     30557 LPSA28   14       ARHM     O5       OC3C61  -0.400000       15.9994           0
     30558 LPSA28   14       ARHM     C2       CC3161   0.900000E-01   12.0110           0
     30559 LPSA28   14       ARHM     H2       HCA1     0.900000E-01   1.00800           0
     30560 LPSA28   14       ARHM     O2       OC301   -0.360000       15.9994           0
     30561 LPSA28   14       ARHM     C3       CC3161   0.140000       12.0110           0
     30562 LPSA28   14       ARHM     H3       HCA1     0.900000E-01   1.00800           0
     30563 LPSA28   14       ARHM     O3       OC311   -0.650000       15.9994           0
     30564 LPSA28   14       ARHM     HO3      HCP1     0.420000       1.00800           0
     30565 LPSA28   14       ARHM     C4       CC3161   0.140000       12.0110           0
     30566 LPSA28   14       ARHM     H4       HCA1     0.900000E-01   1.00800           0
     30567 LPSA28   14       ARHM     O4       OC311   -0.650000       15.9994           0
     30568 LPSA28   14       ARHM     HO4      HCP1     0.420000       1.00800           0
     30569 LPSA28   14       ARHM     C6       CC331   -0.270000       12.0110           0
     30570 LPSA28   14       ARHM     H61      HCA3     0.900000E-01   1.00800           0
     30571 LPSA28   14       ARHM     H62      HCA3     0.900000E-01   1.00800           0
     30572 LPSA28   14       ARHM     H63      HCA3     0.900000E-01   1.00800           0
     30573 LPSA28   15       ARHM     C1       CC3162   0.290000       12.0110           0
     30574 LPSA28   15       ARHM     H1       HCA1     0.900000E-01   1.00800           0
     30575 LPSA28   15       ARHM     C5       CC3163   0.110000       12.0110           0
     30576 LPSA28   15       ARHM     H5       HCA1     0.900000E-01   1.00800           0
     30577 LPSA28   15       ARHM     O5       OC3C61  -0.400000       15.9994           0
     30578 LPSA28   15       ARHM     C2       CC3161   0.900000E-01   12.0110           0
     30579 LPSA28   15       ARHM     H2       HCA1     0.900000E-01   1.00800           0
     30580 LPSA28   15       ARHM     O2       OC301   -0.360000       15.9994           0
     30581 LPSA28   15       ARHM     C3       CC3161   0.900000E-01   12.0110           0
     30582 LPSA28   15       ARHM     H3       HCA1     0.900000E-01   1.00800           0
     30583 LPSA28   15       ARHM     O3       OC301   -0.360000       15.9994           0
     30584 LPSA28   15       ARHM     C4       CC3161   0.140000       12.0110           0
     30585 LPSA28   15       ARHM     H4       HCA1     0.900000E-01   1.00800           0
     30586 LPSA28   15       ARHM     O4       OC311   -0.650000       15.9994           0
     30587 LPSA28   15       ARHM     HO4      HCP1     0.420000       1.00800           0
     30588 LPSA28   15       ARHM     C6       CC331   -0.270000       12.0110           0
     30589 LPSA28   15       ARHM     H61      HCA3     0.900000E-01   1.00800           0
     30590 LPSA28   15       ARHM     H62      HCA3     0.900000E-01   1.00800           0
     30591 LPSA28   15       ARHM     H63      HCA3     0.900000E-01   1.00800           0
     30592 LPSA28   16       BMANNA   C1       CC3162   0.290000       12.0110           0
     30593 LPSA28   16       BMANNA   H1       HCA1     0.900000E-01   1.00800           0
     30594 LPSA28   16       BMANNA   C5       CC3163   0.110000       12.0110           0
     30595 LPSA28   16       BMANNA   H5       HCA1     0.900000E-01   1.00800           0
     30596 LPSA28   16       BMANNA   O5       OC3C61  -0.400000       15.9994           0
     30597 LPSA28   16       BMANNA   C2       CC3161   0.700000E-01   12.0110           0
     30598 LPSA28   16       BMANNA   H2       HCA1     0.900000E-01   1.00800           0
     30599 LPSA28   16       BMANNA   N        NC2D1   -0.470000       14.0070           0
     30600 LPSA28   16       BMANNA   HN       HCP1     0.310000       1.00800           0
     30601 LPSA28   16       BMANNA   C        CC2O1    0.510000       12.0110           0
     30602 LPSA28   16       BMANNA   O        OC2D1   -0.510000       15.9994           0
     30603 LPSA28   16       BMANNA   CT       CC331   -0.270000       12.0110           0
     30604 LPSA28   16       BMANNA   HT1      HCA3     0.900000E-01   1.00800           0
     30605 LPSA28   16       BMANNA   HT2      HCA3     0.900000E-01   1.00800           0
     30606 LPSA28   16       BMANNA   HT3      HCA3     0.900000E-01   1.00800           0
     30607 LPSA28   16       BMANNA   C3       CC3161   0.140000       12.0110           0
     30608 LPSA28   16       BMANNA   H3       HCA1     0.900000E-01   1.00800           0
     30609 LPSA28   16       BMANNA   O3       OC311   -0.650000       15.9994           0
     30610 LPSA28   16       BMANNA   HO3      HCP1     0.420000       1.00800           0
     30611 LPSA28   16       BMANNA   C4       CC3161   0.140000       12.0110           0
     30612 LPSA28   16       BMANNA   H4       HCA1     0.900000E-01   1.00800           0
     30613 LPSA28   16       BMANNA   O4       OC311   -0.650000       15.9994           0
     30614 LPSA28   16       BMANNA   HO4      HCP1     0.420000       1.00800           0
     30615 LPSA28   16       BMANNA   C6       CC321    0.500000E-01   12.0110           0
     30616 LPSA28   16       BMANNA   H61      HCA2     0.900000E-01   1.00800           0
     30617 LPSA28   16       BMANNA   H62      HCA2     0.900000E-01   1.00800           0
     30618 LPSA28   16       BMANNA   O6       OC311   -0.650000       15.9994           0
     30619 LPSA28   16       BMANNA   HO6      HCP1     0.420000       1.00800           0
     30620 LPSA28   17       BGLCNA   C1       CC3162   0.290000       12.0110           0
     30621 LPSA28   17       BGLCNA   H1       HCA1     0.900000E-01   1.00800           0
     30622 LPSA28   17       BGLCNA   C5       CC3163   0.110000       12.0110           0
     30623 LPSA28   17       BGLCNA   H5       HCA1     0.900000E-01   1.00800           0
     30624 LPSA28   17       BGLCNA   O5       OC3C61  -0.400000       15.9994           0
     30625 LPSA28   17       BGLCNA   C2       CC3161   0.700000E-01   12.0110           0
     30626 LPSA28   17       BGLCNA   H2       HCA1     0.900000E-01   1.00800           0
     30627 LPSA28   17       BGLCNA   N        NC2D1   -0.470000       14.0070           0
     30628 LPSA28   17       BGLCNA   HN       HCP1     0.310000       1.00800           0
     30629 LPSA28   17       BGLCNA   C        CC2O1    0.510000       12.0110           0
     30630 LPSA28   17       BGLCNA   O        OC2D1   -0.510000       15.9994           0
     30631 LPSA28   17       BGLCNA   CT       CC331   -0.270000       12.0110           0
     30632 LPSA28   17       BGLCNA   HT1      HCA3     0.900000E-01   1.00800           0
     30633 LPSA28   17       BGLCNA   HT2      HCA3     0.900000E-01   1.00800           0
     30634 LPSA28   17       BGLCNA   HT3      HCA3     0.900000E-01   1.00800           0
     30635 LPSA28   17       BGLCNA   C3       CC3161   0.900000E-01   12.0110           0
     30636 LPSA28   17       BGLCNA   H3       HCA1     0.900000E-01   1.00800           0
     30637 LPSA28   17       BGLCNA   O3       OC301   -0.360000       15.9994           0
     30638 LPSA28   17       BGLCNA   C4       CC3161   0.140000       12.0110           0
     30639 LPSA28   17       BGLCNA   H4       HCA1     0.900000E-01   1.00800           0
     30640 LPSA28   17       BGLCNA   O4       OC311   -0.650000       15.9994           0
     30641 LPSA28   17       BGLCNA   HO4      HCP1     0.420000       1.00800           0
     30642 LPSA28   17       BGLCNA   C6       CC321    0.500000E-01   12.0110           0
     30643 LPSA28   17       BGLCNA   H61      HCA2     0.900000E-01   1.00800           0
     30644 LPSA28   17       BGLCNA   H62      HCA2     0.900000E-01   1.00800           0
     30645 LPSA28   17       BGLCNA   O6       OC311   -0.650000       15.9994           0
     30646 LPSA28   17       BGLCNA   HO6      HCP1     0.420000       1.00800           0
     30647 LPSA28   18       AGAL     C1       CC3162   0.290000       12.0110           0
     30648 LPSA28   18       AGAL     H1       HCA1     0.900000E-01   1.00800           0
     30649 LPSA28   18       AGAL     C5       CC3163   0.110000       12.0110           0
     30650 LPSA28   18       AGAL     H5       HCA1     0.900000E-01   1.00800           0
     30651 LPSA28   18       AGAL     O5       OC3C61  -0.400000       15.9994           0
     30652 LPSA28   18       AGAL     C2       CC3161   0.900000E-01   12.0110           0
     30653 LPSA28   18       AGAL     H2       HCA1     0.900000E-01   1.00800           0
     30654 LPSA28   18       AGAL     O2       OC301   -0.360000       15.9994           0
     30655 LPSA28   18       AGAL     C3       CC3161   0.140000       12.0110           0
     30656 LPSA28   18       AGAL     H3       HCA1     0.900000E-01   1.00800           0
     30657 LPSA28   18       AGAL     O3       OC311   -0.650000       15.9994           0
     30658 LPSA28   18       AGAL     HO3      HCP1     0.420000       1.00800           0
     30659 LPSA28   18       AGAL     C4       CC3161   0.140000       12.0110           0
     30660 LPSA28   18       AGAL     H4       HCA1     0.900000E-01   1.00800           0
     30661 LPSA28   18       AGAL     O4       OC311   -0.650000       15.9994           0
     30662 LPSA28   18       AGAL     HO4      HCP1     0.420000       1.00800           0
     30663 LPSA28   18       AGAL     C6       CC321    0.500000E-01   12.0110           0
     30664 LPSA28   18       AGAL     H61      HCA2     0.900000E-01   1.00800           0
     30665 LPSA28   18       AGAL     H62      HCA2     0.900000E-01   1.00800           0
     30666 LPSA28   18       AGAL     O6       OC311   -0.650000       15.9994           0
     30667 LPSA28   18       AGAL     HO6      HCP1     0.420000       1.00800           0
     30668 LPSA28   19       ARHM     C1       CC3162   0.290000       12.0110           0
     30669 LPSA28   19       ARHM     H1       HCA1     0.900000E-01   1.00800           0
     30670 LPSA28   19       ARHM     C5       CC3163   0.110000       12.0110           0
     30671 LPSA28   19       ARHM     H5       HCA1     0.900000E-01   1.00800           0
     30672 LPSA28   19       ARHM     O5       OC3C61  -0.400000       15.9994           0
     30673 LPSA28   19       ARHM     C2       CC3161   0.900000E-01   12.0110           0
     30674 LPSA28   19       ARHM     H2       HCA1     0.900000E-01   1.00800           0
     30675 LPSA28   19       ARHM     O2       OC301   -0.360000       15.9994           0
     30676 LPSA28   19       ARHM     C3       CC3161   0.140000       12.0110           0
     30677 LPSA28   19       ARHM     H3       HCA1     0.900000E-01   1.00800           0
     30678 LPSA28   19       ARHM     O3       OC311   -0.650000       15.9994           0
     30679 LPSA28   19       ARHM     HO3      HCP1     0.420000       1.00800           0
     30680 LPSA28   19       ARHM     C4       CC3161   0.140000       12.0110           0
     30681 LPSA28   19       ARHM     H4       HCA1     0.900000E-01   1.00800           0
     30682 LPSA28   19       ARHM     O4       OC311   -0.650000       15.9994           0
     30683 LPSA28   19       ARHM     HO4      HCP1     0.420000       1.00800           0
     30684 LPSA28   19       ARHM     C6       CC331   -0.270000       12.0110           0
     30685 LPSA28   19       ARHM     H61      HCA3     0.900000E-01   1.00800           0
     30686 LPSA28   19       ARHM     H62      HCA3     0.900000E-01   1.00800           0
     30687 LPSA28   19       ARHM     H63      HCA3     0.900000E-01   1.00800           0
     30688 LPSA28   20       ARHM     C1       CC3162   0.290000       12.0110           0
     30689 LPSA28   20       ARHM     H1       HCA1     0.900000E-01   1.00800           0
     30690 LPSA28   20       ARHM     C5       CC3163   0.110000       12.0110           0
     30691 LPSA28   20       ARHM     H5       HCA1     0.900000E-01   1.00800           0
     30692 LPSA28   20       ARHM     O5       OC3C61  -0.400000       15.9994           0
     30693 LPSA28   20       ARHM     C2       CC3161   0.900000E-01   12.0110           0
     30694 LPSA28   20       ARHM     H2       HCA1     0.900000E-01   1.00800           0
     30695 LPSA28   20       ARHM     O2       OC301   -0.360000       15.9994           0
     30696 LPSA28   20       ARHM     C3       CC3161   0.900000E-01   12.0110           0
     30697 LPSA28   20       ARHM     H3       HCA1     0.900000E-01   1.00800           0
     30698 LPSA28   20       ARHM     O3       OC301   -0.360000       15.9994           0
     30699 LPSA28   20       ARHM     C4       CC3161   0.140000       12.0110           0
     30700 LPSA28   20       ARHM     H4       HCA1     0.900000E-01   1.00800           0
     30701 LPSA28   20       ARHM     O4       OC311   -0.650000       15.9994           0
     30702 LPSA28   20       ARHM     HO4      HCP1     0.420000       1.00800           0
     30703 LPSA28   20       ARHM     C6       CC331   -0.270000       12.0110           0
     30704 LPSA28   20       ARHM     H61      HCA3     0.900000E-01   1.00800           0
     30705 LPSA28   20       ARHM     H62      HCA3     0.900000E-01   1.00800           0
     30706 LPSA28   20       ARHM     H63      HCA3     0.900000E-01   1.00800           0
     30707 LPSA28   21       BMANNA   C1       CC3162   0.290000       12.0110           0
     30708 LPSA28   21       BMANNA   H1       HCA1     0.900000E-01   1.00800           0
     30709 LPSA28   21       BMANNA   C5       CC3163   0.110000       12.0110           0
     30710 LPSA28   21       BMANNA   H5       HCA1     0.900000E-01   1.00800           0
     30711 LPSA28   21       BMANNA   O5       OC3C61  -0.400000       15.9994           0
     30712 LPSA28   21       BMANNA   C2       CC3161   0.700000E-01   12.0110           0
     30713 LPSA28   21       BMANNA   H2       HCA1     0.900000E-01   1.00800           0
     30714 LPSA28   21       BMANNA   N        NC2D1   -0.470000       14.0070           0
     30715 LPSA28   21       BMANNA   HN       HCP1     0.310000       1.00800           0
     30716 LPSA28   21       BMANNA   C        CC2O1    0.510000       12.0110           0
     30717 LPSA28   21       BMANNA   O        OC2D1   -0.510000       15.9994           0
     30718 LPSA28   21       BMANNA   CT       CC331   -0.270000       12.0110           0
     30719 LPSA28   21       BMANNA   HT1      HCA3     0.900000E-01   1.00800           0
     30720 LPSA28   21       BMANNA   HT2      HCA3     0.900000E-01   1.00800           0
     30721 LPSA28   21       BMANNA   HT3      HCA3     0.900000E-01   1.00800           0
     30722 LPSA28   21       BMANNA   C3       CC3161   0.140000       12.0110           0
     30723 LPSA28   21       BMANNA   H3       HCA1     0.900000E-01   1.00800           0
     30724 LPSA28   21       BMANNA   O3       OC311   -0.650000       15.9994           0
     30725 LPSA28   21       BMANNA   HO3      HCP1     0.420000       1.00800           0
     30726 LPSA28   21       BMANNA   C4       CC3161   0.140000       12.0110           0
     30727 LPSA28   21       BMANNA   H4       HCA1     0.900000E-01   1.00800           0
     30728 LPSA28   21       BMANNA   O4       OC311   -0.650000       15.9994           0
     30729 LPSA28   21       BMANNA   HO4      HCP1     0.420000       1.00800           0
     30730 LPSA28   21       BMANNA   C6       CC321    0.500000E-01   12.0110           0
     30731 LPSA28   21       BMANNA   H61      HCA2     0.900000E-01   1.00800           0
     30732 LPSA28   21       BMANNA   H62      HCA2     0.900000E-01   1.00800           0
     30733 LPSA28   21       BMANNA   O6       OC311   -0.650000       15.9994           0
     30734 LPSA28   21       BMANNA   HO6      HCP1     0.420000       1.00800           0
     30735 LPSA28   22       BGLCNA   C1       CC3162   0.290000       12.0110           0
     30736 LPSA28   22       BGLCNA   H1       HCA1     0.900000E-01   1.00800           0
     30737 LPSA28   22       BGLCNA   C5       CC3163   0.110000       12.0110           0
     30738 LPSA28   22       BGLCNA   H5       HCA1     0.900000E-01   1.00800           0
     30739 LPSA28   22       BGLCNA   O5       OC3C61  -0.400000       15.9994           0
     30740 LPSA28   22       BGLCNA   C2       CC3161   0.700000E-01   12.0110           0
     30741 LPSA28   22       BGLCNA   H2       HCA1     0.900000E-01   1.00800           0
     30742 LPSA28   22       BGLCNA   N        NC2D1   -0.470000       14.0070           0
     30743 LPSA28   22       BGLCNA   HN       HCP1     0.310000       1.00800           0
     30744 LPSA28   22       BGLCNA   C        CC2O1    0.510000       12.0110           0
     30745 LPSA28   22       BGLCNA   O        OC2D1   -0.510000       15.9994           0
     30746 LPSA28   22       BGLCNA   CT       CC331   -0.270000       12.0110           0
     30747 LPSA28   22       BGLCNA   HT1      HCA3     0.900000E-01   1.00800           0
     30748 LPSA28   22       BGLCNA   HT2      HCA3     0.900000E-01   1.00800           0
     30749 LPSA28   22       BGLCNA   HT3      HCA3     0.900000E-01   1.00800           0
     30750 LPSA28   22       BGLCNA   C3       CC3161   0.900000E-01   12.0110           0
     30751 LPSA28   22       BGLCNA   H3       HCA1     0.900000E-01   1.00800           0
     30752 LPSA28   22       BGLCNA   O3       OC301   -0.360000       15.9994           0
     30753 LPSA28   22       BGLCNA   C4       CC3161   0.140000       12.0110           0
     30754 LPSA28   22       BGLCNA   H4       HCA1     0.900000E-01   1.00800           0
     30755 LPSA28   22       BGLCNA   O4       OC311   -0.650000       15.9994           0
     30756 LPSA28   22       BGLCNA   HO4      HCP1     0.420000       1.00800           0
     30757 LPSA28   22       BGLCNA   C6       CC321    0.500000E-01   12.0110           0
     30758 LPSA28   22       BGLCNA   H61      HCA2     0.900000E-01   1.00800           0
     30759 LPSA28   22       BGLCNA   H62      HCA2     0.900000E-01   1.00800           0
     30760 LPSA28   22       BGLCNA   O6       OC311   -0.650000       15.9994           0
     30761 LPSA28   22       BGLCNA   HO6      HCP1     0.420000       1.00800           0
     30762 LPSA28   23       AGAL     C1       CC3162   0.290000       12.0110           0
     30763 LPSA28   23       AGAL     H1       HCA1     0.900000E-01   1.00800           0
     30764 LPSA28   23       AGAL     C5       CC3163   0.110000       12.0110           0
     30765 LPSA28   23       AGAL     H5       HCA1     0.900000E-01   1.00800           0
     30766 LPSA28   23       AGAL     O5       OC3C61  -0.400000       15.9994           0
     30767 LPSA28   23       AGAL     C2       CC3161   0.900000E-01   12.0110           0
     30768 LPSA28   23       AGAL     H2       HCA1     0.900000E-01   1.00800           0
     30769 LPSA28   23       AGAL     O2       OC301   -0.360000       15.9994           0
     30770 LPSA28   23       AGAL     C3       CC3161   0.140000       12.0110           0
     30771 LPSA28   23       AGAL     H3       HCA1     0.900000E-01   1.00800           0
     30772 LPSA28   23       AGAL     O3       OC311   -0.650000       15.9994           0
     30773 LPSA28   23       AGAL     HO3      HCP1     0.420000       1.00800           0
     30774 LPSA28   23       AGAL     C4       CC3161   0.140000       12.0110           0
     30775 LPSA28   23       AGAL     H4       HCA1     0.900000E-01   1.00800           0
     30776 LPSA28   23       AGAL     O4       OC311   -0.650000       15.9994           0
     30777 LPSA28   23       AGAL     HO4      HCP1     0.420000       1.00800           0
     30778 LPSA28   23       AGAL     C6       CC321    0.500000E-01   12.0110           0
     30779 LPSA28   23       AGAL     H61      HCA2     0.900000E-01   1.00800           0
     30780 LPSA28   23       AGAL     H62      HCA2     0.900000E-01   1.00800           0
     30781 LPSA28   23       AGAL     O6       OC311   -0.650000       15.9994           0
     30782 LPSA28   23       AGAL     HO6      HCP1     0.420000       1.00800           0
     30783 LPSA28   24       ARHM     C1       CC3162   0.290000       12.0110           0
     30784 LPSA28   24       ARHM     H1       HCA1     0.900000E-01   1.00800           0
     30785 LPSA28   24       ARHM     C5       CC3163   0.110000       12.0110           0
     30786 LPSA28   24       ARHM     H5       HCA1     0.900000E-01   1.00800           0
     30787 LPSA28   24       ARHM     O5       OC3C61  -0.400000       15.9994           0
     30788 LPSA28   24       ARHM     C2       CC3161   0.900000E-01   12.0110           0
     30789 LPSA28   24       ARHM     H2       HCA1     0.900000E-01   1.00800           0
     30790 LPSA28   24       ARHM     O2       OC301   -0.360000       15.9994           0
     30791 LPSA28   24       ARHM     C3       CC3161   0.140000       12.0110           0
     30792 LPSA28   24       ARHM     H3       HCA1     0.900000E-01   1.00800           0
     30793 LPSA28   24       ARHM     O3       OC311   -0.650000       15.9994           0
     30794 LPSA28   24       ARHM     HO3      HCP1     0.420000       1.00800           0
     30795 LPSA28   24       ARHM     C4       CC3161   0.140000       12.0110           0
     30796 LPSA28   24       ARHM     H4       HCA1     0.900000E-01   1.00800           0
     30797 LPSA28   24       ARHM     O4       OC311   -0.650000       15.9994           0
     30798 LPSA28   24       ARHM     HO4      HCP1     0.420000       1.00800           0
     30799 LPSA28   24       ARHM     C6       CC331   -0.270000       12.0110           0
     30800 LPSA28   24       ARHM     H61      HCA3     0.900000E-01   1.00800           0
     30801 LPSA28   24       ARHM     H62      HCA3     0.900000E-01   1.00800           0
     30802 LPSA28   24       ARHM     H63      HCA3     0.900000E-01   1.00800           0
     30803 LPSA28   25       ARHM     C1       CC3162   0.290000       12.0110           0
     30804 LPSA28   25       ARHM     H1       HCA1     0.900000E-01   1.00800           0
     30805 LPSA28   25       ARHM     C5       CC3163   0.110000       12.0110           0
     30806 LPSA28   25       ARHM     H5       HCA1     0.900000E-01   1.00800           0
     30807 LPSA28   25       ARHM     O5       OC3C61  -0.400000       15.9994           0
     30808 LPSA28   25       ARHM     C2       CC3161   0.900000E-01   12.0110           0
     30809 LPSA28   25       ARHM     H2       HCA1     0.900000E-01   1.00800           0
     30810 LPSA28   25       ARHM     O2       OC301   -0.360000       15.9994           0
     30811 LPSA28   25       ARHM     C3       CC3161   0.900000E-01   12.0110           0
     30812 LPSA28   25       ARHM     H3       HCA1     0.900000E-01   1.00800           0
     30813 LPSA28   25       ARHM     O3       OC301   -0.360000       15.9994           0
     30814 LPSA28   25       ARHM     C4       CC3161   0.140000       12.0110           0
     30815 LPSA28   25       ARHM     H4       HCA1     0.900000E-01   1.00800           0
     30816 LPSA28   25       ARHM     O4       OC311   -0.650000       15.9994           0
     30817 LPSA28   25       ARHM     HO4      HCP1     0.420000       1.00800           0
     30818 LPSA28   25       ARHM     C6       CC331   -0.270000       12.0110           0
     30819 LPSA28   25       ARHM     H61      HCA3     0.900000E-01   1.00800           0
     30820 LPSA28   25       ARHM     H62      HCA3     0.900000E-01   1.00800           0
     30821 LPSA28   25       ARHM     H63      HCA3     0.900000E-01   1.00800           0
     30822 LPSA28   26       BMANNA   C1       CC3162   0.290000       12.0110           0
     30823 LPSA28   26       BMANNA   H1       HCA1     0.900000E-01   1.00800           0
     30824 LPSA28   26       BMANNA   C5       CC3163   0.110000       12.0110           0
     30825 LPSA28   26       BMANNA   H5       HCA1     0.900000E-01   1.00800           0
     30826 LPSA28   26       BMANNA   O5       OC3C61  -0.400000       15.9994           0
     30827 LPSA28   26       BMANNA   C2       CC3161   0.700000E-01   12.0110           0
     30828 LPSA28   26       BMANNA   H2       HCA1     0.900000E-01   1.00800           0
     30829 LPSA28   26       BMANNA   N        NC2D1   -0.470000       14.0070           0
     30830 LPSA28   26       BMANNA   HN       HCP1     0.310000       1.00800           0
     30831 LPSA28   26       BMANNA   C        CC2O1    0.510000       12.0110           0
     30832 LPSA28   26       BMANNA   O        OC2D1   -0.510000       15.9994           0
     30833 LPSA28   26       BMANNA   CT       CC331   -0.270000       12.0110           0
     30834 LPSA28   26       BMANNA   HT1      HCA3     0.900000E-01   1.00800           0
     30835 LPSA28   26       BMANNA   HT2      HCA3     0.900000E-01   1.00800           0
     30836 LPSA28   26       BMANNA   HT3      HCA3     0.900000E-01   1.00800           0
     30837 LPSA28   26       BMANNA   C3       CC3161   0.140000       12.0110           0
     30838 LPSA28   26       BMANNA   H3       HCA1     0.900000E-01   1.00800           0
     30839 LPSA28   26       BMANNA   O3       OC311   -0.650000       15.9994           0
     30840 LPSA28   26       BMANNA   HO3      HCP1     0.420000       1.00800           0
     30841 LPSA28   26       BMANNA   C4       CC3161   0.140000       12.0110           0
     30842 LPSA28   26       BMANNA   H4       HCA1     0.900000E-01   1.00800           0
     30843 LPSA28   26       BMANNA   O4       OC311   -0.650000       15.9994           0
     30844 LPSA28   26       BMANNA   HO4      HCP1     0.420000       1.00800           0
     30845 LPSA28   26       BMANNA   C6       CC321    0.500000E-01   12.0110           0
     30846 LPSA28   26       BMANNA   H61      HCA2     0.900000E-01   1.00800           0
     30847 LPSA28   26       BMANNA   H62      HCA2     0.900000E-01   1.00800           0
     30848 LPSA28   26       BMANNA   O6       OC311   -0.650000       15.9994           0
     30849 LPSA28   26       BMANNA   HO6      HCP1     0.420000       1.00800           0
     30850 LPSA28   27       BGLCNA   C1       CC3162   0.290000       12.0110           0
     30851 LPSA28   27       BGLCNA   H1       HCA1     0.900000E-01   1.00800           0
     30852 LPSA28   27       BGLCNA   C5       CC3163   0.110000       12.0110           0
     30853 LPSA28   27       BGLCNA   H5       HCA1     0.900000E-01   1.00800           0
     30854 LPSA28   27       BGLCNA   O5       OC3C61  -0.400000       15.9994           0
     30855 LPSA28   27       BGLCNA   C2       CC3161   0.700000E-01   12.0110           0
     30856 LPSA28   27       BGLCNA   H2       HCA1     0.900000E-01   1.00800           0
     30857 LPSA28   27       BGLCNA   N        NC2D1   -0.470000       14.0070           0
     30858 LPSA28   27       BGLCNA   HN       HCP1     0.310000       1.00800           0
     30859 LPSA28   27       BGLCNA   C        CC2O1    0.510000       12.0110           0
     30860 LPSA28   27       BGLCNA   O        OC2D1   -0.510000       15.9994           0
     30861 LPSA28   27       BGLCNA   CT       CC331   -0.270000       12.0110           0
     30862 LPSA28   27       BGLCNA   HT1      HCA3     0.900000E-01   1.00800           0
     30863 LPSA28   27       BGLCNA   HT2      HCA3     0.900000E-01   1.00800           0
     30864 LPSA28   27       BGLCNA   HT3      HCA3     0.900000E-01   1.00800           0
     30865 LPSA28   27       BGLCNA   C3       CC3161   0.900000E-01   12.0110           0
     30866 LPSA28   27       BGLCNA   H3       HCA1     0.900000E-01   1.00800           0
     30867 LPSA28   27       BGLCNA   O3       OC301   -0.360000       15.9994           0
     30868 LPSA28   27       BGLCNA   C4       CC3161   0.140000       12.0110           0
     30869 LPSA28   27       BGLCNA   H4       HCA1     0.900000E-01   1.00800           0
     30870 LPSA28   27       BGLCNA   O4       OC311   -0.650000       15.9994           0
     30871 LPSA28   27       BGLCNA   HO4      HCP1     0.420000       1.00800           0
     30872 LPSA28   27       BGLCNA   C6       CC321    0.500000E-01   12.0110           0
     30873 LPSA28   27       BGLCNA   H61      HCA2     0.900000E-01   1.00800           0
     30874 LPSA28   27       BGLCNA   H62      HCA2     0.900000E-01   1.00800           0
     30875 LPSA28   27       BGLCNA   O6       OC311   -0.650000       15.9994           0
     30876 LPSA28   27       BGLCNA   HO6      HCP1     0.420000       1.00800           0
     30877 LPSA28   28       AGAL     C1       CC3162   0.290000       12.0110           0
     30878 LPSA28   28       AGAL     H1       HCA1     0.900000E-01   1.00800           0
     30879 LPSA28   28       AGAL     C5       CC3163   0.110000       12.0110           0
     30880 LPSA28   28       AGAL     H5       HCA1     0.900000E-01   1.00800           0
     30881 LPSA28   28       AGAL     O5       OC3C61  -0.400000       15.9994           0
     30882 LPSA28   28       AGAL     C2       CC3161   0.900000E-01   12.0110           0
     30883 LPSA28   28       AGAL     H2       HCA1     0.900000E-01   1.00800           0
     30884 LPSA28   28       AGAL     O2       OC301   -0.360000       15.9994           0
     30885 LPSA28   28       AGAL     C3       CC3161   0.140000       12.0110           0
     30886 LPSA28   28       AGAL     H3       HCA1     0.900000E-01   1.00800           0
     30887 LPSA28   28       AGAL     O3       OC311   -0.650000       15.9994           0
     30888 LPSA28   28       AGAL     HO3      HCP1     0.420000       1.00800           0
     30889 LPSA28   28       AGAL     C4       CC3161   0.140000       12.0110           0
     30890 LPSA28   28       AGAL     H4       HCA1     0.900000E-01   1.00800           0
     30891 LPSA28   28       AGAL     O4       OC311   -0.650000       15.9994           0
     30892 LPSA28   28       AGAL     HO4      HCP1     0.420000       1.00800           0
     30893 LPSA28   28       AGAL     C6       CC321    0.500000E-01   12.0110           0
     30894 LPSA28   28       AGAL     H61      HCA2     0.900000E-01   1.00800           0
     30895 LPSA28   28       AGAL     H62      HCA2     0.900000E-01   1.00800           0
     30896 LPSA28   28       AGAL     O6       OC311   -0.650000       15.9994           0
     30897 LPSA28   28       AGAL     HO6      HCP1     0.420000       1.00800           0
     30898 LPSA28   29       ARHM     C1       CC3162   0.290000       12.0110           0
     30899 LPSA28   29       ARHM     H1       HCA1     0.900000E-01   1.00800           0
     30900 LPSA28   29       ARHM     C5       CC3163   0.110000       12.0110           0
     30901 LPSA28   29       ARHM     H5       HCA1     0.900000E-01   1.00800           0
     30902 LPSA28   29       ARHM     O5       OC3C61  -0.400000       15.9994           0
     30903 LPSA28   29       ARHM     C2       CC3161   0.900000E-01   12.0110           0
     30904 LPSA28   29       ARHM     H2       HCA1     0.900000E-01   1.00800           0
     30905 LPSA28   29       ARHM     O2       OC301   -0.360000       15.9994           0
     30906 LPSA28   29       ARHM     C3       CC3161   0.140000       12.0110           0
     30907 LPSA28   29       ARHM     H3       HCA1     0.900000E-01   1.00800           0
     30908 LPSA28   29       ARHM     O3       OC311   -0.650000       15.9994           0
     30909 LPSA28   29       ARHM     HO3      HCP1     0.420000       1.00800           0
     30910 LPSA28   29       ARHM     C4       CC3161   0.140000       12.0110           0
     30911 LPSA28   29       ARHM     H4       HCA1     0.900000E-01   1.00800           0
     30912 LPSA28   29       ARHM     O4       OC311   -0.650000       15.9994           0
     30913 LPSA28   29       ARHM     HO4      HCP1     0.420000       1.00800           0
     30914 LPSA28   29       ARHM     C6       CC331   -0.270000       12.0110           0
     30915 LPSA28   29       ARHM     H61      HCA3     0.900000E-01   1.00800           0
     30916 LPSA28   29       ARHM     H62      HCA3     0.900000E-01   1.00800           0
     30917 LPSA28   29       ARHM     H63      HCA3     0.900000E-01   1.00800           0
     30918 LPSA28   30       ARHM     C1       CC3162   0.290000       12.0110           0
     30919 LPSA28   30       ARHM     H1       HCA1     0.900000E-01   1.00800           0
     30920 LPSA28   30       ARHM     C5       CC3163   0.110000       12.0110           0
     30921 LPSA28   30       ARHM     H5       HCA1     0.900000E-01   1.00800           0
     30922 LPSA28   30       ARHM     O5       OC3C61  -0.400000       15.9994           0
     30923 LPSA28   30       ARHM     C2       CC3161   0.900000E-01   12.0110           0
     30924 LPSA28   30       ARHM     H2       HCA1     0.900000E-01   1.00800           0
     30925 LPSA28   30       ARHM     O2       OC301   -0.360000       15.9994           0
     30926 LPSA28   30       ARHM     C3       CC3161   0.900000E-01   12.0110           0
     30927 LPSA28   30       ARHM     H3       HCA1     0.900000E-01   1.00800           0
     30928 LPSA28   30       ARHM     O3       OC301   -0.360000       15.9994           0
     30929 LPSA28   30       ARHM     C4       CC3161   0.140000       12.0110           0
     30930 LPSA28   30       ARHM     H4       HCA1     0.900000E-01   1.00800           0
     30931 LPSA28   30       ARHM     O4       OC311   -0.650000       15.9994           0
     30932 LPSA28   30       ARHM     HO4      HCP1     0.420000       1.00800           0
     30933 LPSA28   30       ARHM     C6       CC331   -0.270000       12.0110           0
     30934 LPSA28   30       ARHM     H61      HCA3     0.900000E-01   1.00800           0
     30935 LPSA28   30       ARHM     H62      HCA3     0.900000E-01   1.00800           0
     30936 LPSA28   30       ARHM     H63      HCA3     0.900000E-01   1.00800           0
     30937 LPSA28   31       BMANNA   C1       CC3162   0.290000       12.0110           0
     30938 LPSA28   31       BMANNA   H1       HCA1     0.900000E-01   1.00800           0
     30939 LPSA28   31       BMANNA   C5       CC3163   0.110000       12.0110           0
     30940 LPSA28   31       BMANNA   H5       HCA1     0.900000E-01   1.00800           0
     30941 LPSA28   31       BMANNA   O5       OC3C61  -0.400000       15.9994           0
     30942 LPSA28   31       BMANNA   C2       CC3161   0.700000E-01   12.0110           0
     30943 LPSA28   31       BMANNA   H2       HCA1     0.900000E-01   1.00800           0
     30944 LPSA28   31       BMANNA   N        NC2D1   -0.470000       14.0070           0
     30945 LPSA28   31       BMANNA   HN       HCP1     0.310000       1.00800           0
     30946 LPSA28   31       BMANNA   C        CC2O1    0.510000       12.0110           0
     30947 LPSA28   31       BMANNA   O        OC2D1   -0.510000       15.9994           0
     30948 LPSA28   31       BMANNA   CT       CC331   -0.270000       12.0110           0
     30949 LPSA28   31       BMANNA   HT1      HCA3     0.900000E-01   1.00800           0
     30950 LPSA28   31       BMANNA   HT2      HCA3     0.900000E-01   1.00800           0
     30951 LPSA28   31       BMANNA   HT3      HCA3     0.900000E-01   1.00800           0
     30952 LPSA28   31       BMANNA   C3       CC3161   0.140000       12.0110           0
     30953 LPSA28   31       BMANNA   H3       HCA1     0.900000E-01   1.00800           0
     30954 LPSA28   31       BMANNA   O3       OC311   -0.650000       15.9994           0
     30955 LPSA28   31       BMANNA   HO3      HCP1     0.420000       1.00800           0
     30956 LPSA28   31       BMANNA   C4       CC3161   0.140000       12.0110           0
     30957 LPSA28   31       BMANNA   H4       HCA1     0.900000E-01   1.00800           0
     30958 LPSA28   31       BMANNA   O4       OC311   -0.650000       15.9994           0
     30959 LPSA28   31       BMANNA   HO4      HCP1     0.420000       1.00800           0
     30960 LPSA28   31       BMANNA   C6       CC321    0.500000E-01   12.0110           0
     30961 LPSA28   31       BMANNA   H61      HCA2     0.900000E-01   1.00800           0
     30962 LPSA28   31       BMANNA   H62      HCA2     0.900000E-01   1.00800           0
     30963 LPSA28   31       BMANNA   O6       OC311   -0.650000       15.9994           0
     30964 LPSA28   31       BMANNA   HO6      HCP1     0.420000       1.00800           0
     30965 LPSA28   32       BGLCNA   C1       CC3162   0.290000       12.0110           0
     30966 LPSA28   32       BGLCNA   H1       HCA1     0.900000E-01   1.00800           0
     30967 LPSA28   32       BGLCNA   C5       CC3163   0.110000       12.0110           0
     30968 LPSA28   32       BGLCNA   H5       HCA1     0.900000E-01   1.00800           0
     30969 LPSA28   32       BGLCNA   O5       OC3C61  -0.400000       15.9994           0
     30970 LPSA28   32       BGLCNA   C2       CC3161   0.700000E-01   12.0110           0
     30971 LPSA28   32       BGLCNA   H2       HCA1     0.900000E-01   1.00800           0
     30972 LPSA28   32       BGLCNA   N        NC2D1   -0.470000       14.0070           0
     30973 LPSA28   32       BGLCNA   HN       HCP1     0.310000       1.00800           0
     30974 LPSA28   32       BGLCNA   C        CC2O1    0.510000       12.0110           0
     30975 LPSA28   32       BGLCNA   O        OC2D1   -0.510000       15.9994           0
     30976 LPSA28   32       BGLCNA   CT       CC331   -0.270000       12.0110           0
     30977 LPSA28   32       BGLCNA   HT1      HCA3     0.900000E-01   1.00800           0
     30978 LPSA28   32       BGLCNA   HT2      HCA3     0.900000E-01   1.00800           0
     30979 LPSA28   32       BGLCNA   HT3      HCA3     0.900000E-01   1.00800           0
     30980 LPSA28   32       BGLCNA   C3       CC3161   0.900000E-01   12.0110           0
     30981 LPSA28   32       BGLCNA   H3       HCA1     0.900000E-01   1.00800           0
     30982 LPSA28   32       BGLCNA   O3       OC301   -0.360000       15.9994           0
     30983 LPSA28   32       BGLCNA   C4       CC3161   0.140000       12.0110           0
     30984 LPSA28   32       BGLCNA   H4       HCA1     0.900000E-01   1.00800           0
     30985 LPSA28   32       BGLCNA   O4       OC311   -0.650000       15.9994           0
     30986 LPSA28   32       BGLCNA   HO4      HCP1     0.420000       1.00800           0
     30987 LPSA28   32       BGLCNA   C6       CC321    0.500000E-01   12.0110           0
     30988 LPSA28   32       BGLCNA   H61      HCA2     0.900000E-01   1.00800           0
     30989 LPSA28   32       BGLCNA   H62      HCA2     0.900000E-01   1.00800           0
     30990 LPSA28   32       BGLCNA   O6       OC311   -0.650000       15.9994           0
     30991 LPSA28   32       BGLCNA   HO6      HCP1     0.420000       1.00800           0
     30992 LPSA28   33       AGAL     C1       CC3162   0.290000       12.0110           0
     30993 LPSA28   33       AGAL     H1       HCA1     0.900000E-01   1.00800           0
     30994 LPSA28   33       AGAL     C5       CC3163   0.110000       12.0110           0
     30995 LPSA28   33       AGAL     H5       HCA1     0.900000E-01   1.00800           0
     30996 LPSA28   33       AGAL     O5       OC3C61  -0.400000       15.9994           0
     30997 LPSA28   33       AGAL     C2       CC3161   0.900000E-01   12.0110           0
     30998 LPSA28   33       AGAL     H2       HCA1     0.900000E-01   1.00800           0
     30999 LPSA28   33       AGAL     O2       OC301   -0.360000       15.9994           0
     31000 LPSA28   33       AGAL     C3       CC3161   0.140000       12.0110           0
     31001 LPSA28   33       AGAL     H3       HCA1     0.900000E-01   1.00800           0
     31002 LPSA28   33       AGAL     O3       OC311   -0.650000       15.9994           0
     31003 LPSA28   33       AGAL     HO3      HCP1     0.420000       1.00800           0
     31004 LPSA28   33       AGAL     C4       CC3161   0.140000       12.0110           0
     31005 LPSA28   33       AGAL     H4       HCA1     0.900000E-01   1.00800           0
     31006 LPSA28   33       AGAL     O4       OC311   -0.650000       15.9994           0
     31007 LPSA28   33       AGAL     HO4      HCP1     0.420000       1.00800           0
     31008 LPSA28   33       AGAL     C6       CC321    0.500000E-01   12.0110           0
     31009 LPSA28   33       AGAL     H61      HCA2     0.900000E-01   1.00800           0
     31010 LPSA28   33       AGAL     H62      HCA2     0.900000E-01   1.00800           0
     31011 LPSA28   33       AGAL     O6       OC311   -0.650000       15.9994           0
     31012 LPSA28   33       AGAL     HO6      HCP1     0.420000       1.00800           0
     31013 LPSA28   34       ARHM     C1       CC3162   0.290000       12.0110           0
     31014 LPSA28   34       ARHM     H1       HCA1     0.900000E-01   1.00800           0
     31015 LPSA28   34       ARHM     C5       CC3163   0.110000       12.0110           0
     31016 LPSA28   34       ARHM     H5       HCA1     0.900000E-01   1.00800           0
     31017 LPSA28   34       ARHM     O5       OC3C61  -0.400000       15.9994           0
     31018 LPSA28   34       ARHM     C2       CC3161   0.900000E-01   12.0110           0
     31019 LPSA28   34       ARHM     H2       HCA1     0.900000E-01   1.00800           0
     31020 LPSA28   34       ARHM     O2       OC301   -0.360000       15.9994           0
     31021 LPSA28   34       ARHM     C3       CC3161   0.140000       12.0110           0
     31022 LPSA28   34       ARHM     H3       HCA1     0.900000E-01   1.00800           0
     31023 LPSA28   34       ARHM     O3       OC311   -0.650000       15.9994           0
     31024 LPSA28   34       ARHM     HO3      HCP1     0.420000       1.00800           0
     31025 LPSA28   34       ARHM     C4       CC3161   0.140000       12.0110           0
     31026 LPSA28   34       ARHM     H4       HCA1     0.900000E-01   1.00800           0
     31027 LPSA28   34       ARHM     O4       OC311   -0.650000       15.9994           0
     31028 LPSA28   34       ARHM     HO4      HCP1     0.420000       1.00800           0
     31029 LPSA28   34       ARHM     C6       CC331   -0.270000       12.0110           0
     31030 LPSA28   34       ARHM     H61      HCA3     0.900000E-01   1.00800           0
     31031 LPSA28   34       ARHM     H62      HCA3     0.900000E-01   1.00800           0
     31032 LPSA28   34       ARHM     H63      HCA3     0.900000E-01   1.00800           0
     31033 LPSA28   35       ARHM     C1       CC3162   0.290000       12.0110           0
     31034 LPSA28   35       ARHM     H1       HCA1     0.900000E-01   1.00800           0
     31035 LPSA28   35       ARHM     C5       CC3163   0.110000       12.0110           0
     31036 LPSA28   35       ARHM     H5       HCA1     0.900000E-01   1.00800           0
     31037 LPSA28   35       ARHM     O5       OC3C61  -0.400000       15.9994           0
     31038 LPSA28   35       ARHM     C2       CC3161   0.900000E-01   12.0110           0
     31039 LPSA28   35       ARHM     H2       HCA1     0.900000E-01   1.00800           0
     31040 LPSA28   35       ARHM     O2       OC301   -0.360000       15.9994           0
     31041 LPSA28   35       ARHM     C3       CC3161   0.140000       12.0110           0
     31042 LPSA28   35       ARHM     H3       HCA1     0.900000E-01   1.00800           0
     31043 LPSA28   35       ARHM     O3       OC311   -0.650000       15.9994           0
     31044 LPSA28   35       ARHM     HO3      HCP1     0.420000       1.00800           0
     31045 LPSA28   35       ARHM     C4       CC3161   0.140000       12.0110           0
     31046 LPSA28   35       ARHM     H4       HCA1     0.900000E-01   1.00800           0
     31047 LPSA28   35       ARHM     O4       OC311   -0.650000       15.9994           0
     31048 LPSA28   35       ARHM     HO4      HCP1     0.420000       1.00800           0
     31049 LPSA28   35       ARHM     C6       CC331   -0.270000       12.0110           0
     31050 LPSA28   35       ARHM     H61      HCA3     0.900000E-01   1.00800           0
     31051 LPSA28   35       ARHM     H62      HCA3     0.900000E-01   1.00800           0
     31052 LPSA28   35       ARHM     H63      HCA3     0.900000E-01   1.00800           0
     31053 LPSA28   36       BMANNA   C1       CC3162   0.290000       12.0110           0
     31054 LPSA28   36       BMANNA   H1       HCA1     0.900000E-01   1.00800           0
     31055 LPSA28   36       BMANNA   C5       CC3163   0.110000       12.0110           0
     31056 LPSA28   36       BMANNA   H5       HCA1     0.900000E-01   1.00800           0
     31057 LPSA28   36       BMANNA   O5       OC3C61  -0.400000       15.9994           0
     31058 LPSA28   36       BMANNA   C2       CC3161   0.700000E-01   12.0110           0
     31059 LPSA28   36       BMANNA   H2       HCA1     0.900000E-01   1.00800           0
     31060 LPSA28   36       BMANNA   N        NC2D1   -0.470000       14.0070           0
     31061 LPSA28   36       BMANNA   HN       HCP1     0.310000       1.00800           0
     31062 LPSA28   36       BMANNA   C        CC2O1    0.510000       12.0110           0
     31063 LPSA28   36       BMANNA   O        OC2D1   -0.510000       15.9994           0
     31064 LPSA28   36       BMANNA   CT       CC331   -0.270000       12.0110           0
     31065 LPSA28   36       BMANNA   HT1      HCA3     0.900000E-01   1.00800           0
     31066 LPSA28   36       BMANNA   HT2      HCA3     0.900000E-01   1.00800           0
     31067 LPSA28   36       BMANNA   HT3      HCA3     0.900000E-01   1.00800           0
     31068 LPSA28   36       BMANNA   C3       CC3161   0.140000       12.0110           0
     31069 LPSA28   36       BMANNA   H3       HCA1     0.900000E-01   1.00800           0
     31070 LPSA28   36       BMANNA   O3       OC311   -0.650000       15.9994           0
     31071 LPSA28   36       BMANNA   HO3      HCP1     0.420000       1.00800           0
     31072 LPSA28   36       BMANNA   C4       CC3161   0.140000       12.0110           0
     31073 LPSA28   36       BMANNA   H4       HCA1     0.900000E-01   1.00800           0
     31074 LPSA28   36       BMANNA   O4       OC311   -0.650000       15.9994           0
     31075 LPSA28   36       BMANNA   HO4      HCP1     0.420000       1.00800           0
     31076 LPSA28   36       BMANNA   C6       CC321    0.500000E-01   12.0110           0
     31077 LPSA28   36       BMANNA   H61      HCA2     0.900000E-01   1.00800           0
     31078 LPSA28   36       BMANNA   H62      HCA2     0.900000E-01   1.00800           0
     31079 LPSA28   36       BMANNA   O6       OC311   -0.650000       15.9994           0
     31080 LPSA28   36       BMANNA   HO6      HCP1     0.420000       1.00800           0
     31081 LPSA29   1        ECLIPA   HB6S     HCA2     0.900000E-01   1.00800           0
     31082 LPSA29   1        ECLIPA   OB6      OC301   -0.360000       15.9994           0
     31083 LPSA29   1        ECLIPA   CB6      CC321     0.00000       12.0110           0
     31084 LPSA29   1        ECLIPA   HB6R     HCA2     0.900000E-01   1.00800           0
     31085 LPSA29   1        ECLIPA   CB5      CC3163   0.110000       12.0110           0
     31086 LPSA29   1        ECLIPA   OB5      OC3C61  -0.400000       15.9994           0
     31087 LPSA29   1        ECLIPA   HB5      HCA1     0.900000E-01   1.00800           0
     31088 LPSA29   1        ECLIPA   CB1      CC3162   0.290000       12.0110           0
     31089 LPSA29   1        ECLIPA   HB1      HCA1     0.900000E-01   1.00800           0
     31090 LPSA29   1        ECLIPA   OA6      OC301   -0.360000       15.9994           0
     31091 LPSA29   1        ECLIPA   CA6      CC321     0.00000       12.0110           0
     31092 LPSA29   1        ECLIPA   HA6R     HCA2     0.900000E-01   1.00800           0
     31093 LPSA29   1        ECLIPA   HA6S     HCA2     0.900000E-01   1.00800           0
     31094 LPSA29   1        ECLIPA   CB4      CC3161  -0.900000E-01   12.0110           0
     31095 LPSA29   1        ECLIPA   HB4      HCA1     0.900000E-01   1.00800           0
     31096 LPSA29   1        ECLIPA   OB4      OC30P   -0.400000       15.9994           0
     31097 LPSA29   1        ECLIPA   PB       PC        1.10000       30.9740           0
     31098 LPSA29   1        ECLIPA   OPB4     OC2DP   -0.900000       15.9994           0
     31099 LPSA29   1        ECLIPA   OPB3     OC2DP   -0.900000       15.9994           0
     31100 LPSA29   1        ECLIPA   OPB2     OC2DP   -0.900000       15.9994           0
     31101 LPSA29   1        ECLIPA   CB3      CC3161   0.170000       12.0110           0
     31102 LPSA29   1        ECLIPA   OB3      OC301   -0.490000       15.9994           0
     31103 LPSA29   1        ECLIPA   HB3      HCA1     0.900000E-01   1.00800           0
     31104 LPSA29   1        ECLIPA   C71      CL       0.900000       12.0110           0
     31105 LPSA29   1        ECLIPA   O71      OBL     -0.630000       15.9994           0
     31106 LPSA29   1        ECLIPA   C72      CTL2    -0.220000       12.0110           0
     31107 LPSA29   1        ECLIPA   H72R     HAL2     0.900000E-01   1.00800           0
     31108 LPSA29   1        ECLIPA   H72S     HAL2     0.900000E-01   1.00800           0
     31109 LPSA29   1        ECLIPA   CB2      CC3161   0.700000E-01   12.0110           0
     31110 LPSA29   1        ECLIPA   HB2      HCA1     0.900000E-01   1.00800           0
     31111 LPSA29   1        ECLIPA   NB2      NC2D1   -0.470000       14.0070           0
     31112 LPSA29   1        ECLIPA   HNB2     HCP1     0.310000       1.00800           0
     31113 LPSA29   1        ECLIPA   CA4      CC3161   0.140000       12.0110           0
     31114 LPSA29   1        ECLIPA   HA4      HCA1     0.900000E-01   1.00800           0
     31115 LPSA29   1        ECLIPA   OA4      OC311   -0.650000       15.9994           0
     31116 LPSA29   1        ECLIPA   HOA4     HCP1     0.420000       1.00800           0
     31117 LPSA29   1        ECLIPA   CA5      CC3163   0.110000       12.0110           0
     31118 LPSA29   1        ECLIPA   HA5      HCA1     0.900000E-01   1.00800           0
     31119 LPSA29   1        ECLIPA   OA5      OC3C61  -0.400000       15.9994           0
     31120 LPSA29   1        ECLIPA   CA1      CC3162   0.110000       12.0110           0
     31121 LPSA29   1        ECLIPA   HA1      HCA1     0.900000E-01   1.00800           0
     31122 LPSA29   1        ECLIPA   OA1      OC30P   -0.400000       15.9994           0
     31123 LPSA29   1        ECLIPA   OPA2     OC2DP   -0.900000       15.9994           0
     31124 LPSA29   1        ECLIPA   OPA3     OC2DP   -0.900000       15.9994           0
     31125 LPSA29   1        ECLIPA   OPA4     OC2DP   -0.900000       15.9994           0
     31126 LPSA29   1        ECLIPA   PA       PC        1.10000       30.9740           0
     31127 LPSA29   1        ECLIPA   CA3      CC3161   0.170000       12.0110           0
     31128 LPSA29   1        ECLIPA   HA3      HCA1     0.900000E-01   1.00800           0
     31129 LPSA29   1        ECLIPA   OA3      OC301   -0.490000       15.9994           0
     31130 LPSA29   1        ECLIPA   C31      CL       0.900000       12.0110           0
     31131 LPSA29   1        ECLIPA   O31      OBL     -0.630000       15.9994           0
     31132 LPSA29   1        ECLIPA   C32      CTL2    -0.220000       12.0110           0
     31133 LPSA29   1        ECLIPA   H32R     HAL2     0.900000E-01   1.00800           0
     31134 LPSA29   1        ECLIPA   H32S     HAL2     0.900000E-01   1.00800           0
     31135 LPSA29   1        ECLIPA   CA2      CC3161   0.700000E-01   12.0110           0
     31136 LPSA29   1        ECLIPA   HA2      HCA1     0.900000E-01   1.00800           0
     31137 LPSA29   1        ECLIPA   NA2      NC2D1   -0.470000       14.0070           0
     31138 LPSA29   1        ECLIPA   HNA2     HCP1     0.310000       1.00800           0
     31139 LPSA29   1        ECLIPA   C73      CTL1     0.170000       12.0110           0
     31140 LPSA29   1        ECLIPA   H73R     HAL1     0.900000E-01   1.00800           0
     31141 LPSA29   1        ECLIPA   O73      OSL     -0.490000       15.9994           0
     31142 LPSA29   1        ECLIPA   C81      CL       0.900000       12.0110           0
     31143 LPSA29   1        ECLIPA   O81      OBL     -0.630000       15.9994           0
     31144 LPSA29   1        ECLIPA   C82      CTL2    -0.220000       12.0110           0
     31145 LPSA29   1        ECLIPA   H82R     HAL2     0.900000E-01   1.00800           0
     31146 LPSA29   1        ECLIPA   H82S     HAL2     0.900000E-01   1.00800           0
     31147 LPSA29   1        ECLIPA   C83      CTL2    -0.180000       12.0110           0
     31148 LPSA29   1        ECLIPA   H83R     HAL2     0.900000E-01   1.00800           0
     31149 LPSA29   1        ECLIPA   H83S     HAL2     0.900000E-01   1.00800           0
     31150 LPSA29   1        ECLIPA   C84      CTL2    -0.180000       12.0110           0
     31151 LPSA29   1        ECLIPA   H84R     HAL2     0.900000E-01   1.00800           0
     31152 LPSA29   1        ECLIPA   H84S     HAL2     0.900000E-01   1.00800           0
     31153 LPSA29   1        ECLIPA   C85      CTL2    -0.180000       12.0110           0
     31154 LPSA29   1        ECLIPA   H85R     HAL2     0.900000E-01   1.00800           0
     31155 LPSA29   1        ECLIPA   H85S     HAL2     0.900000E-01   1.00800           0
     31156 LPSA29   1        ECLIPA   C86      CTL2    -0.180000       12.0110           0
     31157 LPSA29   1        ECLIPA   H86R     HAL2     0.900000E-01   1.00800           0
     31158 LPSA29   1        ECLIPA   H86S     HAL2     0.900000E-01   1.00800           0
     31159 LPSA29   1        ECLIPA   C87      CTL2    -0.180000       12.0110           0
     31160 LPSA29   1        ECLIPA   H87R     HAL2     0.900000E-01   1.00800           0
     31161 LPSA29   1        ECLIPA   H87S     HAL2     0.900000E-01   1.00800           0
     31162 LPSA29   1        ECLIPA   C88      CTL2    -0.180000       12.0110           0
     31163 LPSA29   1        ECLIPA   H88R     HAL2     0.900000E-01   1.00800           0
     31164 LPSA29   1        ECLIPA   H88S     HAL2     0.900000E-01   1.00800           0
     31165 LPSA29   1        ECLIPA   C89      CTL2    -0.180000       12.0110           0
     31166 LPSA29   1        ECLIPA   H89R     HAL2     0.900000E-01   1.00800           0
     31167 LPSA29   1        ECLIPA   H89S     HAL2     0.900000E-01   1.00800           0
     31168 LPSA29   1        ECLIPA   C810     CTL2    -0.180000       12.0110           0
     31169 LPSA29   1        ECLIPA   H810R    HAL2     0.900000E-01   1.00800           0
     31170 LPSA29   1        ECLIPA   H810S    HAL2     0.900000E-01   1.00800           0
     31171 LPSA29   1        ECLIPA   C811     CTL2    -0.180000       12.0110           0
     31172 LPSA29   1        ECLIPA   H811R    HAL2     0.900000E-01   1.00800           0
     31173 LPSA29   1        ECLIPA   H811S    HAL2     0.900000E-01   1.00800           0
     31174 LPSA29   1        ECLIPA   C812     CTL2    -0.180000       12.0110           0
     31175 LPSA29   1        ECLIPA   H812R    HAL2     0.900000E-01   1.00800           0
     31176 LPSA29   1        ECLIPA   H812S    HAL2     0.900000E-01   1.00800           0
     31177 LPSA29   1        ECLIPA   C813     CTL2    -0.180000       12.0110           0
     31178 LPSA29   1        ECLIPA   H813R    HAL2     0.900000E-01   1.00800           0
     31179 LPSA29   1        ECLIPA   H813S    HAL2     0.900000E-01   1.00800           0
     31180 LPSA29   1        ECLIPA   C814     CTL3    -0.270000       12.0110           0
     31181 LPSA29   1        ECLIPA   H814R    HAL3     0.900000E-01   1.00800           0
     31182 LPSA29   1        ECLIPA   H814S    HAL3     0.900000E-01   1.00800           0
     31183 LPSA29   1        ECLIPA   H814T    HAL3     0.900000E-01   1.00800           0
     31184 LPSA29   1        ECLIPA   C74      CTL2    -0.180000       12.0110           0
     31185 LPSA29   1        ECLIPA   H74R     HAL2     0.900000E-01   1.00800           0
     31186 LPSA29   1        ECLIPA   H74S     HAL2     0.900000E-01   1.00800           0
     31187 LPSA29   1        ECLIPA   C75      CTL2    -0.180000       12.0110           0
     31188 LPSA29   1        ECLIPA   H75R     HAL2     0.900000E-01   1.00800           0
     31189 LPSA29   1        ECLIPA   H75S     HAL2     0.900000E-01   1.00800           0
     31190 LPSA29   1        ECLIPA   C76      CTL2    -0.180000       12.0110           0
     31191 LPSA29   1        ECLIPA   H76R     HAL2     0.900000E-01   1.00800           0
     31192 LPSA29   1        ECLIPA   H76S     HAL2     0.900000E-01   1.00800           0
     31193 LPSA29   1        ECLIPA   C77      CTL2    -0.180000       12.0110           0
     31194 LPSA29   1        ECLIPA   H77R     HAL2     0.900000E-01   1.00800           0
     31195 LPSA29   1        ECLIPA   H77S     HAL2     0.900000E-01   1.00800           0
     31196 LPSA29   1        ECLIPA   C78      CTL2    -0.180000       12.0110           0
     31197 LPSA29   1        ECLIPA   H78R     HAL2     0.900000E-01   1.00800           0
     31198 LPSA29   1        ECLIPA   H78S     HAL2     0.900000E-01   1.00800           0
     31199 LPSA29   1        ECLIPA   C79      CTL2    -0.180000       12.0110           0
     31200 LPSA29   1        ECLIPA   H79R     HAL2     0.900000E-01   1.00800           0
     31201 LPSA29   1        ECLIPA   H79S     HAL2     0.900000E-01   1.00800           0
     31202 LPSA29   1        ECLIPA   C710     CTL2    -0.180000       12.0110           0
     31203 LPSA29   1        ECLIPA   H710R    HAL2     0.900000E-01   1.00800           0
     31204 LPSA29   1        ECLIPA   H710S    HAL2     0.900000E-01   1.00800           0
     31205 LPSA29   1        ECLIPA   C711     CTL2    -0.180000       12.0110           0
     31206 LPSA29   1        ECLIPA   H711R    HAL2     0.900000E-01   1.00800           0
     31207 LPSA29   1        ECLIPA   H711S    HAL2     0.900000E-01   1.00800           0
     31208 LPSA29   1        ECLIPA   C712     CTL2    -0.180000       12.0110           0
     31209 LPSA29   1        ECLIPA   H712R    HAL2     0.900000E-01   1.00800           0
     31210 LPSA29   1        ECLIPA   H712S    HAL2     0.900000E-01   1.00800           0
     31211 LPSA29   1        ECLIPA   C713     CTL2    -0.180000       12.0110           0
     31212 LPSA29   1        ECLIPA   H713R    HAL2     0.900000E-01   1.00800           0
     31213 LPSA29   1        ECLIPA   H713S    HAL2     0.900000E-01   1.00800           0
     31214 LPSA29   1        ECLIPA   C714     CTL3    -0.270000       12.0110           0
     31215 LPSA29   1        ECLIPA   H714R    HAL3     0.900000E-01   1.00800           0
     31216 LPSA29   1        ECLIPA   H714S    HAL3     0.900000E-01   1.00800           0
     31217 LPSA29   1        ECLIPA   H714T    HAL3     0.900000E-01   1.00800           0
     31218 LPSA29   1        ECLIPA   C51      CC2O1    0.550000       12.0110           0
     31219 LPSA29   1        ECLIPA   O51      OC2D1   -0.550000       15.9994           0
     31220 LPSA29   1        ECLIPA   C52      CTL2    -0.180000       12.0110           0
     31221 LPSA29   1        ECLIPA   H52R     HAL2     0.900000E-01   1.00800           0
     31222 LPSA29   1        ECLIPA   H52S     HAL2     0.900000E-01   1.00800           0
     31223 LPSA29   1        ECLIPA   C53      CTL1     0.170000       12.0110           0
     31224 LPSA29   1        ECLIPA   H53R     HAL1     0.900000E-01   1.00800           0
     31225 LPSA29   1        ECLIPA   O53      OSL     -0.490000       15.9994           0
     31226 LPSA29   1        ECLIPA   C61      CL       0.900000       12.0110           0
     31227 LPSA29   1        ECLIPA   O61      OBL     -0.630000       15.9994           0
     31228 LPSA29   1        ECLIPA   C62      CTL2    -0.220000       12.0110           0
     31229 LPSA29   1        ECLIPA   H62R     HAL2     0.900000E-01   1.00800           0
     31230 LPSA29   1        ECLIPA   H62S     HAL2     0.900000E-01   1.00800           0
     31231 LPSA29   1        ECLIPA   C63      CTL2    -0.180000       12.0110           0
     31232 LPSA29   1        ECLIPA   H63R     HAL2     0.900000E-01   1.00800           0
     31233 LPSA29   1        ECLIPA   H63S     HAL2     0.900000E-01   1.00800           0
     31234 LPSA29   1        ECLIPA   C64      CTL2    -0.180000       12.0110           0
     31235 LPSA29   1        ECLIPA   H64R     HAL2     0.900000E-01   1.00800           0
     31236 LPSA29   1        ECLIPA   H64S     HAL2     0.900000E-01   1.00800           0
     31237 LPSA29   1        ECLIPA   C65      CTL2    -0.180000       12.0110           0
     31238 LPSA29   1        ECLIPA   H65R     HAL2     0.900000E-01   1.00800           0
     31239 LPSA29   1        ECLIPA   H65S     HAL2     0.900000E-01   1.00800           0
     31240 LPSA29   1        ECLIPA   C66      CTL2    -0.180000       12.0110           0
     31241 LPSA29   1        ECLIPA   H66R     HAL2     0.900000E-01   1.00800           0
     31242 LPSA29   1        ECLIPA   H66S     HAL2     0.900000E-01   1.00800           0
     31243 LPSA29   1        ECLIPA   C67      CTL2    -0.180000       12.0110           0
     31244 LPSA29   1        ECLIPA   H67R     HAL2     0.900000E-01   1.00800           0
     31245 LPSA29   1        ECLIPA   H67S     HAL2     0.900000E-01   1.00800           0
     31246 LPSA29   1        ECLIPA   C68      CTL2    -0.180000       12.0110           0
     31247 LPSA29   1        ECLIPA   H68R     HAL2     0.900000E-01   1.00800           0
     31248 LPSA29   1        ECLIPA   H68S     HAL2     0.900000E-01   1.00800           0
     31249 LPSA29   1        ECLIPA   C69      CTL2    -0.180000       12.0110           0
     31250 LPSA29   1        ECLIPA   H69R     HAL2     0.900000E-01   1.00800           0
     31251 LPSA29   1        ECLIPA   H69S     HAL2     0.900000E-01   1.00800           0
     31252 LPSA29   1        ECLIPA   C610     CTL2    -0.180000       12.0110           0
     31253 LPSA29   1        ECLIPA   H610R    HAL2     0.900000E-01   1.00800           0
     31254 LPSA29   1        ECLIPA   H610S    HAL2     0.900000E-01   1.00800           0
     31255 LPSA29   1        ECLIPA   C611     CTL2    -0.180000       12.0110           0
     31256 LPSA29   1        ECLIPA   H611R    HAL2     0.900000E-01   1.00800           0
     31257 LPSA29   1        ECLIPA   H611S    HAL2     0.900000E-01   1.00800           0
     31258 LPSA29   1        ECLIPA   C612     CTL3    -0.270000       12.0110           0
     31259 LPSA29   1        ECLIPA   H612R    HAL3     0.900000E-01   1.00800           0
     31260 LPSA29   1        ECLIPA   H612S    HAL3     0.900000E-01   1.00800           0
     31261 LPSA29   1        ECLIPA   H612T    HAL3     0.900000E-01   1.00800           0
     31262 LPSA29   1        ECLIPA   C54      CTL2    -0.180000       12.0110           0
     31263 LPSA29   1        ECLIPA   H54R     HAL2     0.900000E-01   1.00800           0
     31264 LPSA29   1        ECLIPA   H54S     HAL2     0.900000E-01   1.00800           0
     31265 LPSA29   1        ECLIPA   C55      CTL2    -0.180000       12.0110           0
     31266 LPSA29   1        ECLIPA   H55R     HAL2     0.900000E-01   1.00800           0
     31267 LPSA29   1        ECLIPA   H55S     HAL2     0.900000E-01   1.00800           0
     31268 LPSA29   1        ECLIPA   C56      CTL2    -0.180000       12.0110           0
     31269 LPSA29   1        ECLIPA   H56R     HAL2     0.900000E-01   1.00800           0
     31270 LPSA29   1        ECLIPA   H56S     HAL2     0.900000E-01   1.00800           0
     31271 LPSA29   1        ECLIPA   C57      CTL2    -0.180000       12.0110           0
     31272 LPSA29   1        ECLIPA   H57R     HAL2     0.900000E-01   1.00800           0
     31273 LPSA29   1        ECLIPA   H57S     HAL2     0.900000E-01   1.00800           0
     31274 LPSA29   1        ECLIPA   C58      CTL2    -0.180000       12.0110           0
     31275 LPSA29   1        ECLIPA   H58R     HAL2     0.900000E-01   1.00800           0
     31276 LPSA29   1        ECLIPA   H58S     HAL2     0.900000E-01   1.00800           0
     31277 LPSA29   1        ECLIPA   C59      CTL2    -0.180000       12.0110           0
     31278 LPSA29   1        ECLIPA   H59R     HAL2     0.900000E-01   1.00800           0
     31279 LPSA29   1        ECLIPA   H59S     HAL2     0.900000E-01   1.00800           0
     31280 LPSA29   1        ECLIPA   C510     CTL2    -0.180000       12.0110           0
     31281 LPSA29   1        ECLIPA   H510R    HAL2     0.900000E-01   1.00800           0
     31282 LPSA29   1        ECLIPA   H510S    HAL2     0.900000E-01   1.00800           0
     31283 LPSA29   1        ECLIPA   C511     CTL2    -0.180000       12.0110           0
     31284 LPSA29   1        ECLIPA   H511R    HAL2     0.900000E-01   1.00800           0
     31285 LPSA29   1        ECLIPA   H511S    HAL2     0.900000E-01   1.00800           0
     31286 LPSA29   1        ECLIPA   C512     CTL2    -0.180000       12.0110           0
     31287 LPSA29   1        ECLIPA   H512R    HAL2     0.900000E-01   1.00800           0
     31288 LPSA29   1        ECLIPA   H512S    HAL2     0.900000E-01   1.00800           0
     31289 LPSA29   1        ECLIPA   C513     CTL2    -0.180000       12.0110           0
     31290 LPSA29   1        ECLIPA   H513R    HAL2     0.900000E-01   1.00800           0
     31291 LPSA29   1        ECLIPA   H513S    HAL2     0.900000E-01   1.00800           0
     31292 LPSA29   1        ECLIPA   C514     CTL3    -0.270000       12.0110           0
     31293 LPSA29   1        ECLIPA   H514R    HAL3     0.900000E-01   1.00800           0
     31294 LPSA29   1        ECLIPA   H514S    HAL3     0.900000E-01   1.00800           0
     31295 LPSA29   1        ECLIPA   H514T    HAL3     0.900000E-01   1.00800           0
     31296 LPSA29   1        ECLIPA   C33      CTL1     0.140000       12.0110           0
     31297 LPSA29   1        ECLIPA   H33R     HAL1     0.900000E-01   1.00800           0
     31298 LPSA29   1        ECLIPA   O33      OH1     -0.660000       15.9994           0
     31299 LPSA29   1        ECLIPA   HO33     H        0.430000       1.00800           0
     31300 LPSA29   1        ECLIPA   C34      CTL2    -0.180000       12.0110           0
     31301 LPSA29   1        ECLIPA   H34R     HAL2     0.900000E-01   1.00800           0
     31302 LPSA29   1        ECLIPA   H34S     HAL2     0.900000E-01   1.00800           0
     31303 LPSA29   1        ECLIPA   C35      CTL2    -0.180000       12.0110           0
     31304 LPSA29   1        ECLIPA   H35R     HAL2     0.900000E-01   1.00800           0
     31305 LPSA29   1        ECLIPA   H35S     HAL2     0.900000E-01   1.00800           0
     31306 LPSA29   1        ECLIPA   C36      CTL2    -0.180000       12.0110           0
     31307 LPSA29   1        ECLIPA   H36R     HAL2     0.900000E-01   1.00800           0
     31308 LPSA29   1        ECLIPA   H36S     HAL2     0.900000E-01   1.00800           0
     31309 LPSA29   1        ECLIPA   C37      CTL2    -0.180000       12.0110           0
     31310 LPSA29   1        ECLIPA   H37R     HAL2     0.900000E-01   1.00800           0
     31311 LPSA29   1        ECLIPA   H37S     HAL2     0.900000E-01   1.00800           0
     31312 LPSA29   1        ECLIPA   C38      CTL2    -0.180000       12.0110           0
     31313 LPSA29   1        ECLIPA   H38R     HAL2     0.900000E-01   1.00800           0
     31314 LPSA29   1        ECLIPA   H38S     HAL2     0.900000E-01   1.00800           0
     31315 LPSA29   1        ECLIPA   C39      CTL2    -0.180000       12.0110           0
     31316 LPSA29   1        ECLIPA   H39R     HAL2     0.900000E-01   1.00800           0
     31317 LPSA29   1        ECLIPA   H39S     HAL2     0.900000E-01   1.00800           0
     31318 LPSA29   1        ECLIPA   C310     CTL2    -0.180000       12.0110           0
     31319 LPSA29   1        ECLIPA   H310R    HAL2     0.900000E-01   1.00800           0
     31320 LPSA29   1        ECLIPA   H310S    HAL2     0.900000E-01   1.00800           0
     31321 LPSA29   1        ECLIPA   C311     CTL2    -0.180000       12.0110           0
     31322 LPSA29   1        ECLIPA   H311R    HAL2     0.900000E-01   1.00800           0
     31323 LPSA29   1        ECLIPA   H311S    HAL2     0.900000E-01   1.00800           0
     31324 LPSA29   1        ECLIPA   C312     CTL2    -0.180000       12.0110           0
     31325 LPSA29   1        ECLIPA   H312R    HAL2     0.900000E-01   1.00800           0
     31326 LPSA29   1        ECLIPA   H312S    HAL2     0.900000E-01   1.00800           0
     31327 LPSA29   1        ECLIPA   C313     CTL2    -0.180000       12.0110           0
     31328 LPSA29   1        ECLIPA   H313R    HAL2     0.900000E-01   1.00800           0
     31329 LPSA29   1        ECLIPA   H313S    HAL2     0.900000E-01   1.00800           0
     31330 LPSA29   1        ECLIPA   C314     CTL3    -0.270000       12.0110           0
     31331 LPSA29   1        ECLIPA   H314R    HAL3     0.900000E-01   1.00800           0
     31332 LPSA29   1        ECLIPA   H314S    HAL3     0.900000E-01   1.00800           0
     31333 LPSA29   1        ECLIPA   H314T    HAL3     0.900000E-01   1.00800           0
     31334 LPSA29   1        ECLIPA   C11      CC2O1    0.550000       12.0110           0
     31335 LPSA29   1        ECLIPA   O11      OC2D1   -0.550000       15.9994           0
     31336 LPSA29   1        ECLIPA   C12      CTL2    -0.180000       12.0110           0
     31337 LPSA29   1        ECLIPA   H12R     HAL2     0.900000E-01   1.00800           0
     31338 LPSA29   1        ECLIPA   H12S     HAL2     0.900000E-01   1.00800           0
     31339 LPSA29   1        ECLIPA   C13      CTL1     0.140000       12.0110           0
     31340 LPSA29   1        ECLIPA   H13R     HAL1     0.900000E-01   1.00800           0
     31341 LPSA29   1        ECLIPA   O13      OH1     -0.660000       15.9994           0
     31342 LPSA29   1        ECLIPA   HO13     H        0.430000       1.00800           0
     31343 LPSA29   1        ECLIPA   C14      CTL2    -0.180000       12.0110           0
     31344 LPSA29   1        ECLIPA   H14R     HAL2     0.900000E-01   1.00800           0
     31345 LPSA29   1        ECLIPA   H14S     HAL2     0.900000E-01   1.00800           0
     31346 LPSA29   1        ECLIPA   C15      CTL2    -0.180000       12.0110           0
     31347 LPSA29   1        ECLIPA   H15R     HAL2     0.900000E-01   1.00800           0
     31348 LPSA29   1        ECLIPA   H15S     HAL2     0.900000E-01   1.00800           0
     31349 LPSA29   1        ECLIPA   C16      CTL2    -0.180000       12.0110           0
     31350 LPSA29   1        ECLIPA   H16R     HAL2     0.900000E-01   1.00800           0
     31351 LPSA29   1        ECLIPA   H16S     HAL2     0.900000E-01   1.00800           0
     31352 LPSA29   1        ECLIPA   C17      CTL2    -0.180000       12.0110           0
     31353 LPSA29   1        ECLIPA   H17R     HAL2     0.900000E-01   1.00800           0
     31354 LPSA29   1        ECLIPA   H17S     HAL2     0.900000E-01   1.00800           0
     31355 LPSA29   1        ECLIPA   C18      CTL2    -0.180000       12.0110           0
     31356 LPSA29   1        ECLIPA   H18R     HAL2     0.900000E-01   1.00800           0
     31357 LPSA29   1        ECLIPA   H18S     HAL2     0.900000E-01   1.00800           0
     31358 LPSA29   1        ECLIPA   C19      CTL2    -0.180000       12.0110           0
     31359 LPSA29   1        ECLIPA   H19R     HAL2     0.900000E-01   1.00800           0
     31360 LPSA29   1        ECLIPA   H19S     HAL2     0.900000E-01   1.00800           0
     31361 LPSA29   1        ECLIPA   C110     CTL2    -0.180000       12.0110           0
     31362 LPSA29   1        ECLIPA   H110R    HAL2     0.900000E-01   1.00800           0
     31363 LPSA29   1        ECLIPA   H110S    HAL2     0.900000E-01   1.00800           0
     31364 LPSA29   1        ECLIPA   C111     CTL2    -0.180000       12.0110           0
     31365 LPSA29   1        ECLIPA   H111R    HAL2     0.900000E-01   1.00800           0
     31366 LPSA29   1        ECLIPA   H111S    HAL2     0.900000E-01   1.00800           0
     31367 LPSA29   1        ECLIPA   C112     CTL2    -0.180000       12.0110           0
     31368 LPSA29   1        ECLIPA   H112R    HAL2     0.900000E-01   1.00800           0
     31369 LPSA29   1        ECLIPA   H112S    HAL2     0.900000E-01   1.00800           0
     31370 LPSA29   1        ECLIPA   C113     CTL2    -0.180000       12.0110           0
     31371 LPSA29   1        ECLIPA   H113R    HAL2     0.900000E-01   1.00800           0
     31372 LPSA29   1        ECLIPA   H113S    HAL2     0.900000E-01   1.00800           0
     31373 LPSA29   1        ECLIPA   C114     CTL3    -0.270000       12.0110           0
     31374 LPSA29   1        ECLIPA   H114R    HAL3     0.900000E-01   1.00800           0
     31375 LPSA29   1        ECLIPA   H114S    HAL3     0.900000E-01   1.00800           0
     31376 LPSA29   1        ECLIPA   H114T    HAL3     0.900000E-01   1.00800           0
     31377 LPSA29   2        AKDO     C1       CC2O2    0.300000       12.0110           0
     31378 LPSA29   2        AKDO     O11      OC2D2   -0.600000       15.9994           0
     31379 LPSA29   2        AKDO     O12      OC2D2   -0.600000       15.9994           0
     31380 LPSA29   2        AKDO     C2       CC3062   0.280000       12.0110           0
     31381 LPSA29   2        AKDO     C6       CC3163   0.110000       12.0110           0
     31382 LPSA29   2        AKDO     H6       HCA1     0.900000E-01   1.00800           0
     31383 LPSA29   2        AKDO     O6       OC3C61  -0.400000       15.9994           0
     31384 LPSA29   2        AKDO     C3       CC3261  -0.180000       12.0110           0
     31385 LPSA29   2        AKDO     H31      HCA2     0.900000E-01   1.00800           0
     31386 LPSA29   2        AKDO     H32      HCA2     0.900000E-01   1.00800           0
     31387 LPSA29   2        AKDO     C4       CC3161   0.900000E-01   12.0110           0
     31388 LPSA29   2        AKDO     H4       HCA1     0.900000E-01   1.00800           0
     31389 LPSA29   2        AKDO     O4       OC301   -0.360000       15.9994           0
     31390 LPSA29   2        AKDO     C5       CC3161   0.900000E-01   12.0110           0
     31391 LPSA29   2        AKDO     H5       HCA1     0.900000E-01   1.00800           0
     31392 LPSA29   2        AKDO     O5       OC301   -0.360000       15.9994           0
     31393 LPSA29   2        AKDO     C7       CC312    0.140000       12.0110           0
     31394 LPSA29   2        AKDO     H7       HCA1     0.900000E-01   1.00800           0
     31395 LPSA29   2        AKDO     O7       OC311   -0.650000       15.9994           0
     31396 LPSA29   2        AKDO     HO7      HCP1     0.420000       1.00800           0
     31397 LPSA29   2        AKDO     C8       CC322    0.500000E-01   12.0110           0
     31398 LPSA29   2        AKDO     H81      HCA2     0.900000E-01   1.00800           0
     31399 LPSA29   2        AKDO     H82      HCA2     0.900000E-01   1.00800           0
     31400 LPSA29   2        AKDO     O8       OC311   -0.650000       15.9994           0
     31401 LPSA29   2        AKDO     HO8      HCP1     0.420000       1.00800           0
     31402 LPSA29   3        AKDO     C1       CC2O2    0.300000       12.0110           0
     31403 LPSA29   3        AKDO     O11      OC2D2   -0.600000       15.9994           0
     31404 LPSA29   3        AKDO     O12      OC2D2   -0.600000       15.9994           0
     31405 LPSA29   3        AKDO     C2       CC3062   0.280000       12.0110           0
     31406 LPSA29   3        AKDO     C6       CC3163   0.110000       12.0110           0
     31407 LPSA29   3        AKDO     H6       HCA1     0.900000E-01   1.00800           0
     31408 LPSA29   3        AKDO     O6       OC3C61  -0.400000       15.9994           0
     31409 LPSA29   3        AKDO     C3       CC3261  -0.180000       12.0110           0
     31410 LPSA29   3        AKDO     H31      HCA2     0.900000E-01   1.00800           0
     31411 LPSA29   3        AKDO     H32      HCA2     0.900000E-01   1.00800           0
     31412 LPSA29   3        AKDO     C4       CC3161   0.140000       12.0110           0
     31413 LPSA29   3        AKDO     H4       HCA1     0.900000E-01   1.00800           0
     31414 LPSA29   3        AKDO     O4       OC311   -0.650000       15.9994           0
     31415 LPSA29   3        AKDO     HO4      HCP1     0.420000       1.00800           0
     31416 LPSA29   3        AKDO     C5       CC3161   0.140000       12.0110           0
     31417 LPSA29   3        AKDO     H5       HCA1     0.900000E-01   1.00800           0
     31418 LPSA29   3        AKDO     O5       OC311   -0.650000       15.9994           0
     31419 LPSA29   3        AKDO     HO5      HCP1     0.420000       1.00800           0
     31420 LPSA29   3        AKDO     C7       CC312    0.140000       12.0110           0
     31421 LPSA29   3        AKDO     H7       HCA1     0.900000E-01   1.00800           0
     31422 LPSA29   3        AKDO     O7       OC311   -0.650000       15.9994           0
     31423 LPSA29   3        AKDO     HO7      HCP1     0.420000       1.00800           0
     31424 LPSA29   3        AKDO     C8       CC322    0.500000E-01   12.0110           0
     31425 LPSA29   3        AKDO     H81      HCA2     0.900000E-01   1.00800           0
     31426 LPSA29   3        AKDO     H82      HCA2     0.900000E-01   1.00800           0
     31427 LPSA29   3        AKDO     O8       OC311   -0.650000       15.9994           0
     31428 LPSA29   3        AKDO     HO8      HCP1     0.420000       1.00800           0
     31429 LPSA29   4        AHEP     C1       CC3162   0.290000       12.0110           0
     31430 LPSA29   4        AHEP     H1       HCA1     0.900000E-01   1.00800           0
     31431 LPSA29   4        AHEP     C5       CC3163   0.110000       12.0110           0
     31432 LPSA29   4        AHEP     H5       HCA1     0.900000E-01   1.00800           0
     31433 LPSA29   4        AHEP     O5       OC3C61  -0.400000       15.9994           0
     31434 LPSA29   4        AHEP     C2       CC3161   0.140000       12.0110           0
     31435 LPSA29   4        AHEP     H2       HCA1     0.900000E-01   1.00800           0
     31436 LPSA29   4        AHEP     O2       OC311   -0.650000       15.9994           0
     31437 LPSA29   4        AHEP     HO2      HCP1     0.420000       1.00800           0
     31438 LPSA29   4        AHEP     C3       CC3161   0.900000E-01   12.0110           0
     31439 LPSA29   4        AHEP     H3       HCA1     0.900000E-01   1.00800           0
     31440 LPSA29   4        AHEP     O3       OC301   -0.360000       15.9994           0
     31441 LPSA29   4        AHEP     C4       CC3161  -0.900000E-01   12.0110           0
     31442 LPSA29   4        AHEP     H4       HCA1     0.900000E-01   1.00800           0
     31443 LPSA29   4        AHEP     O4       OC30P   -0.400000       15.9994           0
     31444 LPSA29   4        AHEP     P4       PC        1.10000       30.9740           0
     31445 LPSA29   4        AHEP     OP42     OC2DP   -0.900000       15.9994           0
     31446 LPSA29   4        AHEP     OP43     OC2DP   -0.900000       15.9994           0
     31447 LPSA29   4        AHEP     OP44     OC2DP   -0.900000       15.9994           0
     31448 LPSA29   4        AHEP     C6       CC312    0.140000       12.0110           0
     31449 LPSA29   4        AHEP     H6       HCA1     0.900000E-01   1.00800           0
     31450 LPSA29   4        AHEP     O6       OC311   -0.650000       15.9994           0
     31451 LPSA29   4        AHEP     HO6      HCP1     0.420000       1.00800           0
     31452 LPSA29   4        AHEP     C7       CC322    0.500000E-01   12.0110           0
     31453 LPSA29   4        AHEP     H71      HCA2     0.900000E-01   1.00800           0
     31454 LPSA29   4        AHEP     H72      HCA2     0.900000E-01   1.00800           0
     31455 LPSA29   4        AHEP     O7       OC311   -0.650000       15.9994           0
     31456 LPSA29   4        AHEP     HO7      HCP1     0.420000       1.00800           0
     31457 LPSA29   5        AHEP     C1       CC3162   0.290000       12.0110           0
     31458 LPSA29   5        AHEP     H1       HCA1     0.900000E-01   1.00800           0
     31459 LPSA29   5        AHEP     C5       CC3163   0.110000       12.0110           0
     31460 LPSA29   5        AHEP     H5       HCA1     0.900000E-01   1.00800           0
     31461 LPSA29   5        AHEP     O5       OC3C61  -0.400000       15.9994           0
     31462 LPSA29   5        AHEP     C2       CC3161   0.140000       12.0110           0
     31463 LPSA29   5        AHEP     H2       HCA1     0.900000E-01   1.00800           0
     31464 LPSA29   5        AHEP     O2       OC311   -0.650000       15.9994           0
     31465 LPSA29   5        AHEP     HO2      HCP1     0.420000       1.00800           0
     31466 LPSA29   5        AHEP     C3       CC3161   0.900000E-01   12.0110           0
     31467 LPSA29   5        AHEP     H3       HCA1     0.900000E-01   1.00800           0
     31468 LPSA29   5        AHEP     O3       OC301   -0.360000       15.9994           0
     31469 LPSA29   5        AHEP     C4       CC3161  -0.900000E-01   12.0110           0
     31470 LPSA29   5        AHEP     H4       HCA1     0.900000E-01   1.00800           0
     31471 LPSA29   5        AHEP     O4       OC30P   -0.400000       15.9994           0
     31472 LPSA29   5        AHEP     P4       PC        1.10000       30.9740           0
     31473 LPSA29   5        AHEP     OP42     OC2DP   -0.900000       15.9994           0
     31474 LPSA29   5        AHEP     OP43     OC2DP   -0.900000       15.9994           0
     31475 LPSA29   5        AHEP     OP44     OC2DP   -0.900000       15.9994           0
     31476 LPSA29   5        AHEP     C6       CC312    0.140000       12.0110           0
     31477 LPSA29   5        AHEP     H6       HCA1     0.900000E-01   1.00800           0
     31478 LPSA29   5        AHEP     O6       OC311   -0.650000       15.9994           0
     31479 LPSA29   5        AHEP     HO6      HCP1     0.420000       1.00800           0
     31480 LPSA29   5        AHEP     C7       CC322     0.00000       12.0110           0
     31481 LPSA29   5        AHEP     H71      HCA2     0.900000E-01   1.00800           0
     31482 LPSA29   5        AHEP     H72      HCA2     0.900000E-01   1.00800           0
     31483 LPSA29   5        AHEP     O7       OC301   -0.360000       15.9994           0
     31484 LPSA29   6        AHEP     C1       CC3162   0.290000       12.0110           0
     31485 LPSA29   6        AHEP     H1       HCA1     0.900000E-01   1.00800           0
     31486 LPSA29   6        AHEP     C5       CC3163   0.110000       12.0110           0
     31487 LPSA29   6        AHEP     H5       HCA1     0.900000E-01   1.00800           0
     31488 LPSA29   6        AHEP     O5       OC3C61  -0.400000       15.9994           0
     31489 LPSA29   6        AHEP     C2       CC3161   0.140000       12.0110           0
     31490 LPSA29   6        AHEP     H2       HCA1     0.900000E-01   1.00800           0
     31491 LPSA29   6        AHEP     O2       OC311   -0.650000       15.9994           0
     31492 LPSA29   6        AHEP     HO2      HCP1     0.420000       1.00800           0
     31493 LPSA29   6        AHEP     C3       CC3161   0.140000       12.0110           0
     31494 LPSA29   6        AHEP     H3       HCA1     0.900000E-01   1.00800           0
     31495 LPSA29   6        AHEP     O3       OC311   -0.650000       15.9994           0
     31496 LPSA29   6        AHEP     HO3      HCP1     0.420000       1.00800           0
     31497 LPSA29   6        AHEP     C4       CC3161   0.140000       12.0110           0
     31498 LPSA29   6        AHEP     H4       HCA1     0.900000E-01   1.00800           0
     31499 LPSA29   6        AHEP     O4       OC311   -0.650000       15.9994           0
     31500 LPSA29   6        AHEP     HO4      HCP1     0.420000       1.00800           0
     31501 LPSA29   6        AHEP     C6       CC312    0.140000       12.0110           0
     31502 LPSA29   6        AHEP     H6       HCA1     0.900000E-01   1.00800           0
     31503 LPSA29   6        AHEP     O6       OC311   -0.650000       15.9994           0
     31504 LPSA29   6        AHEP     HO6      HCP1     0.420000       1.00800           0
     31505 LPSA29   6        AHEP     C7       CC322    0.500000E-01   12.0110           0
     31506 LPSA29   6        AHEP     H71      HCA2     0.900000E-01   1.00800           0
     31507 LPSA29   6        AHEP     H72      HCA2     0.900000E-01   1.00800           0
     31508 LPSA29   6        AHEP     O7       OC311   -0.650000       15.9994           0
     31509 LPSA29   6        AHEP     HO7      HCP1     0.420000       1.00800           0
     31510 LPSA29   7        AGLC     C1       CC3162   0.290000       12.0110           0
     31511 LPSA29   7        AGLC     H1       HCA1     0.900000E-01   1.00800           0
     31512 LPSA29   7        AGLC     C5       CC3163   0.110000       12.0110           0
     31513 LPSA29   7        AGLC     H5       HCA1     0.900000E-01   1.00800           0
     31514 LPSA29   7        AGLC     O5       OC3C61  -0.400000       15.9994           0
     31515 LPSA29   7        AGLC     C2       CC3161   0.140000       12.0110           0
     31516 LPSA29   7        AGLC     H2       HCA1     0.900000E-01   1.00800           0
     31517 LPSA29   7        AGLC     O2       OC311   -0.650000       15.9994           0
     31518 LPSA29   7        AGLC     HO2      HCP1     0.420000       1.00800           0
     31519 LPSA29   7        AGLC     C3       CC3161   0.900000E-01   12.0110           0
     31520 LPSA29   7        AGLC     H3       HCA1     0.900000E-01   1.00800           0
     31521 LPSA29   7        AGLC     O3       OC301   -0.360000       15.9994           0
     31522 LPSA29   7        AGLC     C4       CC3161   0.140000       12.0110           0
     31523 LPSA29   7        AGLC     H4       HCA1     0.900000E-01   1.00800           0
     31524 LPSA29   7        AGLC     O4       OC311   -0.650000       15.9994           0
     31525 LPSA29   7        AGLC     HO4      HCP1     0.420000       1.00800           0
     31526 LPSA29   7        AGLC     C6       CC321    0.500000E-01   12.0110           0
     31527 LPSA29   7        AGLC     H61      HCA2     0.900000E-01   1.00800           0
     31528 LPSA29   7        AGLC     H62      HCA2     0.900000E-01   1.00800           0
     31529 LPSA29   7        AGLC     O6       OC311   -0.650000       15.9994           0
     31530 LPSA29   7        AGLC     HO6      HCP1     0.420000       1.00800           0
     31531 LPSA29   8        AGLC     C1       CC3162   0.290000       12.0110           0
     31532 LPSA29   8        AGLC     H1       HCA1     0.900000E-01   1.00800           0
     31533 LPSA29   8        AGLC     C5       CC3163   0.110000       12.0110           0
     31534 LPSA29   8        AGLC     H5       HCA1     0.900000E-01   1.00800           0
     31535 LPSA29   8        AGLC     O5       OC3C61  -0.400000       15.9994           0
     31536 LPSA29   8        AGLC     C2       CC3161   0.900000E-01   12.0110           0
     31537 LPSA29   8        AGLC     H2       HCA1     0.900000E-01   1.00800           0
     31538 LPSA29   8        AGLC     O2       OC301   -0.360000       15.9994           0
     31539 LPSA29   8        AGLC     C3       CC3161   0.900000E-01   12.0110           0
     31540 LPSA29   8        AGLC     H3       HCA1     0.900000E-01   1.00800           0
     31541 LPSA29   8        AGLC     O3       OC301   -0.360000       15.9994           0
     31542 LPSA29   8        AGLC     C4       CC3161   0.140000       12.0110           0
     31543 LPSA29   8        AGLC     H4       HCA1     0.900000E-01   1.00800           0
     31544 LPSA29   8        AGLC     O4       OC311   -0.650000       15.9994           0
     31545 LPSA29   8        AGLC     HO4      HCP1     0.420000       1.00800           0
     31546 LPSA29   8        AGLC     C6       CC321    0.500000E-01   12.0110           0
     31547 LPSA29   8        AGLC     H61      HCA2     0.900000E-01   1.00800           0
     31548 LPSA29   8        AGLC     H62      HCA2     0.900000E-01   1.00800           0
     31549 LPSA29   8        AGLC     O6       OC311   -0.650000       15.9994           0
     31550 LPSA29   8        AGLC     HO6      HCP1     0.420000       1.00800           0
     31551 LPSA29   9        AGAL     C1       CC3162   0.290000       12.0110           0
     31552 LPSA29   9        AGAL     H1       HCA1     0.900000E-01   1.00800           0
     31553 LPSA29   9        AGAL     C5       CC3163   0.110000       12.0110           0
     31554 LPSA29   9        AGAL     H5       HCA1     0.900000E-01   1.00800           0
     31555 LPSA29   9        AGAL     O5       OC3C61  -0.400000       15.9994           0
     31556 LPSA29   9        AGAL     C2       CC3161   0.900000E-01   12.0110           0
     31557 LPSA29   9        AGAL     H2       HCA1     0.900000E-01   1.00800           0
     31558 LPSA29   9        AGAL     O2       OC301   -0.360000       15.9994           0
     31559 LPSA29   9        AGAL     C3       CC3161   0.140000       12.0110           0
     31560 LPSA29   9        AGAL     H3       HCA1     0.900000E-01   1.00800           0
     31561 LPSA29   9        AGAL     O3       OC311   -0.650000       15.9994           0
     31562 LPSA29   9        AGAL     HO3      HCP1     0.420000       1.00800           0
     31563 LPSA29   9        AGAL     C4       CC3161   0.140000       12.0110           0
     31564 LPSA29   9        AGAL     H4       HCA1     0.900000E-01   1.00800           0
     31565 LPSA29   9        AGAL     O4       OC311   -0.650000       15.9994           0
     31566 LPSA29   9        AGAL     HO4      HCP1     0.420000       1.00800           0
     31567 LPSA29   9        AGAL     C6       CC321    0.500000E-01   12.0110           0
     31568 LPSA29   9        AGAL     H61      HCA2     0.900000E-01   1.00800           0
     31569 LPSA29   9        AGAL     H62      HCA2     0.900000E-01   1.00800           0
     31570 LPSA29   9        AGAL     O6       OC311   -0.650000       15.9994           0
     31571 LPSA29   9        AGAL     HO6      HCP1     0.420000       1.00800           0
     31572 LPSA29   10       AGAL     C1       CC3162   0.290000       12.0110           0
     31573 LPSA29   10       AGAL     H1       HCA1     0.900000E-01   1.00800           0
     31574 LPSA29   10       AGAL     C5       CC3163   0.110000       12.0110           0
     31575 LPSA29   10       AGAL     H5       HCA1     0.900000E-01   1.00800           0
     31576 LPSA29   10       AGAL     O5       OC3C61  -0.400000       15.9994           0
     31577 LPSA29   10       AGAL     C2       CC3161   0.140000       12.0110           0
     31578 LPSA29   10       AGAL     H2       HCA1     0.900000E-01   1.00800           0
     31579 LPSA29   10       AGAL     O2       OC311   -0.650000       15.9994           0
     31580 LPSA29   10       AGAL     HO2      HCP1     0.420000       1.00800           0
     31581 LPSA29   10       AGAL     C3       CC3161   0.140000       12.0110           0
     31582 LPSA29   10       AGAL     H3       HCA1     0.900000E-01   1.00800           0
     31583 LPSA29   10       AGAL     O3       OC311   -0.650000       15.9994           0
     31584 LPSA29   10       AGAL     HO3      HCP1     0.420000       1.00800           0
     31585 LPSA29   10       AGAL     C4       CC3161   0.140000       12.0110           0
     31586 LPSA29   10       AGAL     H4       HCA1     0.900000E-01   1.00800           0
     31587 LPSA29   10       AGAL     O4       OC311   -0.650000       15.9994           0
     31588 LPSA29   10       AGAL     HO4      HCP1     0.420000       1.00800           0
     31589 LPSA29   10       AGAL     C6       CC321    0.500000E-01   12.0110           0
     31590 LPSA29   10       AGAL     H61      HCA2     0.900000E-01   1.00800           0
     31591 LPSA29   10       AGAL     H62      HCA2     0.900000E-01   1.00800           0
     31592 LPSA29   10       AGAL     O6       OC311   -0.650000       15.9994           0
     31593 LPSA29   10       AGAL     HO6      HCP1     0.420000       1.00800           0
     31594 LPSA29   11       BGLC     C1       CC3162   0.290000       12.0110           0
     31595 LPSA29   11       BGLC     H1       HCA1     0.900000E-01   1.00800           0
     31596 LPSA29   11       BGLC     C5       CC3163   0.110000       12.0110           0
     31597 LPSA29   11       BGLC     H5       HCA1     0.900000E-01   1.00800           0
     31598 LPSA29   11       BGLC     O5       OC3C61  -0.400000       15.9994           0
     31599 LPSA29   11       BGLC     C2       CC3161   0.140000       12.0110           0
     31600 LPSA29   11       BGLC     H2       HCA1     0.900000E-01   1.00800           0
     31601 LPSA29   11       BGLC     O2       OC311   -0.650000       15.9994           0
     31602 LPSA29   11       BGLC     HO2      HCP1     0.420000       1.00800           0
     31603 LPSA29   11       BGLC     C3       CC3161   0.900000E-01   12.0110           0
     31604 LPSA29   11       BGLC     H3       HCA1     0.900000E-01   1.00800           0
     31605 LPSA29   11       BGLC     O3       OC301   -0.360000       15.9994           0
     31606 LPSA29   11       BGLC     C4       CC3161   0.140000       12.0110           0
     31607 LPSA29   11       BGLC     H4       HCA1     0.900000E-01   1.00800           0
     31608 LPSA29   11       BGLC     O4       OC311   -0.650000       15.9994           0
     31609 LPSA29   11       BGLC     HO4      HCP1     0.420000       1.00800           0
     31610 LPSA29   11       BGLC     C6       CC321    0.500000E-01   12.0110           0
     31611 LPSA29   11       BGLC     H61      HCA2     0.900000E-01   1.00800           0
     31612 LPSA29   11       BGLC     H62      HCA2     0.900000E-01   1.00800           0
     31613 LPSA29   11       BGLC     O6       OC311   -0.650000       15.9994           0
     31614 LPSA29   11       BGLC     HO6      HCP1     0.420000       1.00800           0
     31615 LPSA29   12       BGLCNA   C1       CC3162   0.290000       12.0110           0
     31616 LPSA29   12       BGLCNA   H1       HCA1     0.900000E-01   1.00800           0
     31617 LPSA29   12       BGLCNA   C5       CC3163   0.110000       12.0110           0
     31618 LPSA29   12       BGLCNA   H5       HCA1     0.900000E-01   1.00800           0
     31619 LPSA29   12       BGLCNA   O5       OC3C61  -0.400000       15.9994           0
     31620 LPSA29   12       BGLCNA   C2       CC3161   0.700000E-01   12.0110           0
     31621 LPSA29   12       BGLCNA   H2       HCA1     0.900000E-01   1.00800           0
     31622 LPSA29   12       BGLCNA   N        NC2D1   -0.470000       14.0070           0
     31623 LPSA29   12       BGLCNA   HN       HCP1     0.310000       1.00800           0
     31624 LPSA29   12       BGLCNA   C        CC2O1    0.510000       12.0110           0
     31625 LPSA29   12       BGLCNA   O        OC2D1   -0.510000       15.9994           0
     31626 LPSA29   12       BGLCNA   CT       CC331   -0.270000       12.0110           0
     31627 LPSA29   12       BGLCNA   HT1      HCA3     0.900000E-01   1.00800           0
     31628 LPSA29   12       BGLCNA   HT2      HCA3     0.900000E-01   1.00800           0
     31629 LPSA29   12       BGLCNA   HT3      HCA3     0.900000E-01   1.00800           0
     31630 LPSA29   12       BGLCNA   C3       CC3161   0.900000E-01   12.0110           0
     31631 LPSA29   12       BGLCNA   H3       HCA1     0.900000E-01   1.00800           0
     31632 LPSA29   12       BGLCNA   O3       OC301   -0.360000       15.9994           0
     31633 LPSA29   12       BGLCNA   C4       CC3161   0.140000       12.0110           0
     31634 LPSA29   12       BGLCNA   H4       HCA1     0.900000E-01   1.00800           0
     31635 LPSA29   12       BGLCNA   O4       OC311   -0.650000       15.9994           0
     31636 LPSA29   12       BGLCNA   HO4      HCP1     0.420000       1.00800           0
     31637 LPSA29   12       BGLCNA   C6       CC321    0.500000E-01   12.0110           0
     31638 LPSA29   12       BGLCNA   H61      HCA2     0.900000E-01   1.00800           0
     31639 LPSA29   12       BGLCNA   H62      HCA2     0.900000E-01   1.00800           0
     31640 LPSA29   12       BGLCNA   O6       OC311   -0.650000       15.9994           0
     31641 LPSA29   12       BGLCNA   HO6      HCP1     0.420000       1.00800           0
     31642 LPSA29   13       AGAL     C1       CC3162   0.290000       12.0110           0
     31643 LPSA29   13       AGAL     H1       HCA1     0.900000E-01   1.00800           0
     31644 LPSA29   13       AGAL     C5       CC3163   0.110000       12.0110           0
     31645 LPSA29   13       AGAL     H5       HCA1     0.900000E-01   1.00800           0
     31646 LPSA29   13       AGAL     O5       OC3C61  -0.400000       15.9994           0
     31647 LPSA29   13       AGAL     C2       CC3161   0.900000E-01   12.0110           0
     31648 LPSA29   13       AGAL     H2       HCA1     0.900000E-01   1.00800           0
     31649 LPSA29   13       AGAL     O2       OC301   -0.360000       15.9994           0
     31650 LPSA29   13       AGAL     C3       CC3161   0.140000       12.0110           0
     31651 LPSA29   13       AGAL     H3       HCA1     0.900000E-01   1.00800           0
     31652 LPSA29   13       AGAL     O3       OC311   -0.650000       15.9994           0
     31653 LPSA29   13       AGAL     HO3      HCP1     0.420000       1.00800           0
     31654 LPSA29   13       AGAL     C4       CC3161   0.140000       12.0110           0
     31655 LPSA29   13       AGAL     H4       HCA1     0.900000E-01   1.00800           0
     31656 LPSA29   13       AGAL     O4       OC311   -0.650000       15.9994           0
     31657 LPSA29   13       AGAL     HO4      HCP1     0.420000       1.00800           0
     31658 LPSA29   13       AGAL     C6       CC321    0.500000E-01   12.0110           0
     31659 LPSA29   13       AGAL     H61      HCA2     0.900000E-01   1.00800           0
     31660 LPSA29   13       AGAL     H62      HCA2     0.900000E-01   1.00800           0
     31661 LPSA29   13       AGAL     O6       OC311   -0.650000       15.9994           0
     31662 LPSA29   13       AGAL     HO6      HCP1     0.420000       1.00800           0
     31663 LPSA29   14       ARHM     C1       CC3162   0.290000       12.0110           0
     31664 LPSA29   14       ARHM     H1       HCA1     0.900000E-01   1.00800           0
     31665 LPSA29   14       ARHM     C5       CC3163   0.110000       12.0110           0
     31666 LPSA29   14       ARHM     H5       HCA1     0.900000E-01   1.00800           0
     31667 LPSA29   14       ARHM     O5       OC3C61  -0.400000       15.9994           0
     31668 LPSA29   14       ARHM     C2       CC3161   0.900000E-01   12.0110           0
     31669 LPSA29   14       ARHM     H2       HCA1     0.900000E-01   1.00800           0
     31670 LPSA29   14       ARHM     O2       OC301   -0.360000       15.9994           0
     31671 LPSA29   14       ARHM     C3       CC3161   0.140000       12.0110           0
     31672 LPSA29   14       ARHM     H3       HCA1     0.900000E-01   1.00800           0
     31673 LPSA29   14       ARHM     O3       OC311   -0.650000       15.9994           0
     31674 LPSA29   14       ARHM     HO3      HCP1     0.420000       1.00800           0
     31675 LPSA29   14       ARHM     C4       CC3161   0.140000       12.0110           0
     31676 LPSA29   14       ARHM     H4       HCA1     0.900000E-01   1.00800           0
     31677 LPSA29   14       ARHM     O4       OC311   -0.650000       15.9994           0
     31678 LPSA29   14       ARHM     HO4      HCP1     0.420000       1.00800           0
     31679 LPSA29   14       ARHM     C6       CC331   -0.270000       12.0110           0
     31680 LPSA29   14       ARHM     H61      HCA3     0.900000E-01   1.00800           0
     31681 LPSA29   14       ARHM     H62      HCA3     0.900000E-01   1.00800           0
     31682 LPSA29   14       ARHM     H63      HCA3     0.900000E-01   1.00800           0
     31683 LPSA29   15       ARHM     C1       CC3162   0.290000       12.0110           0
     31684 LPSA29   15       ARHM     H1       HCA1     0.900000E-01   1.00800           0
     31685 LPSA29   15       ARHM     C5       CC3163   0.110000       12.0110           0
     31686 LPSA29   15       ARHM     H5       HCA1     0.900000E-01   1.00800           0
     31687 LPSA29   15       ARHM     O5       OC3C61  -0.400000       15.9994           0
     31688 LPSA29   15       ARHM     C2       CC3161   0.900000E-01   12.0110           0
     31689 LPSA29   15       ARHM     H2       HCA1     0.900000E-01   1.00800           0
     31690 LPSA29   15       ARHM     O2       OC301   -0.360000       15.9994           0
     31691 LPSA29   15       ARHM     C3       CC3161   0.900000E-01   12.0110           0
     31692 LPSA29   15       ARHM     H3       HCA1     0.900000E-01   1.00800           0
     31693 LPSA29   15       ARHM     O3       OC301   -0.360000       15.9994           0
     31694 LPSA29   15       ARHM     C4       CC3161   0.140000       12.0110           0
     31695 LPSA29   15       ARHM     H4       HCA1     0.900000E-01   1.00800           0
     31696 LPSA29   15       ARHM     O4       OC311   -0.650000       15.9994           0
     31697 LPSA29   15       ARHM     HO4      HCP1     0.420000       1.00800           0
     31698 LPSA29   15       ARHM     C6       CC331   -0.270000       12.0110           0
     31699 LPSA29   15       ARHM     H61      HCA3     0.900000E-01   1.00800           0
     31700 LPSA29   15       ARHM     H62      HCA3     0.900000E-01   1.00800           0
     31701 LPSA29   15       ARHM     H63      HCA3     0.900000E-01   1.00800           0
     31702 LPSA29   16       BMANNA   C1       CC3162   0.290000       12.0110           0
     31703 LPSA29   16       BMANNA   H1       HCA1     0.900000E-01   1.00800           0
     31704 LPSA29   16       BMANNA   C5       CC3163   0.110000       12.0110           0
     31705 LPSA29   16       BMANNA   H5       HCA1     0.900000E-01   1.00800           0
     31706 LPSA29   16       BMANNA   O5       OC3C61  -0.400000       15.9994           0
     31707 LPSA29   16       BMANNA   C2       CC3161   0.700000E-01   12.0110           0
     31708 LPSA29   16       BMANNA   H2       HCA1     0.900000E-01   1.00800           0
     31709 LPSA29   16       BMANNA   N        NC2D1   -0.470000       14.0070           0
     31710 LPSA29   16       BMANNA   HN       HCP1     0.310000       1.00800           0
     31711 LPSA29   16       BMANNA   C        CC2O1    0.510000       12.0110           0
     31712 LPSA29   16       BMANNA   O        OC2D1   -0.510000       15.9994           0
     31713 LPSA29   16       BMANNA   CT       CC331   -0.270000       12.0110           0
     31714 LPSA29   16       BMANNA   HT1      HCA3     0.900000E-01   1.00800           0
     31715 LPSA29   16       BMANNA   HT2      HCA3     0.900000E-01   1.00800           0
     31716 LPSA29   16       BMANNA   HT3      HCA3     0.900000E-01   1.00800           0
     31717 LPSA29   16       BMANNA   C3       CC3161   0.140000       12.0110           0
     31718 LPSA29   16       BMANNA   H3       HCA1     0.900000E-01   1.00800           0
     31719 LPSA29   16       BMANNA   O3       OC311   -0.650000       15.9994           0
     31720 LPSA29   16       BMANNA   HO3      HCP1     0.420000       1.00800           0
     31721 LPSA29   16       BMANNA   C4       CC3161   0.140000       12.0110           0
     31722 LPSA29   16       BMANNA   H4       HCA1     0.900000E-01   1.00800           0
     31723 LPSA29   16       BMANNA   O4       OC311   -0.650000       15.9994           0
     31724 LPSA29   16       BMANNA   HO4      HCP1     0.420000       1.00800           0
     31725 LPSA29   16       BMANNA   C6       CC321    0.500000E-01   12.0110           0
     31726 LPSA29   16       BMANNA   H61      HCA2     0.900000E-01   1.00800           0
     31727 LPSA29   16       BMANNA   H62      HCA2     0.900000E-01   1.00800           0
     31728 LPSA29   16       BMANNA   O6       OC311   -0.650000       15.9994           0
     31729 LPSA29   16       BMANNA   HO6      HCP1     0.420000       1.00800           0
     31730 LPSA29   17       BGLCNA   C1       CC3162   0.290000       12.0110           0
     31731 LPSA29   17       BGLCNA   H1       HCA1     0.900000E-01   1.00800           0
     31732 LPSA29   17       BGLCNA   C5       CC3163   0.110000       12.0110           0
     31733 LPSA29   17       BGLCNA   H5       HCA1     0.900000E-01   1.00800           0
     31734 LPSA29   17       BGLCNA   O5       OC3C61  -0.400000       15.9994           0
     31735 LPSA29   17       BGLCNA   C2       CC3161   0.700000E-01   12.0110           0
     31736 LPSA29   17       BGLCNA   H2       HCA1     0.900000E-01   1.00800           0
     31737 LPSA29   17       BGLCNA   N        NC2D1   -0.470000       14.0070           0
     31738 LPSA29   17       BGLCNA   HN       HCP1     0.310000       1.00800           0
     31739 LPSA29   17       BGLCNA   C        CC2O1    0.510000       12.0110           0
     31740 LPSA29   17       BGLCNA   O        OC2D1   -0.510000       15.9994           0
     31741 LPSA29   17       BGLCNA   CT       CC331   -0.270000       12.0110           0
     31742 LPSA29   17       BGLCNA   HT1      HCA3     0.900000E-01   1.00800           0
     31743 LPSA29   17       BGLCNA   HT2      HCA3     0.900000E-01   1.00800           0
     31744 LPSA29   17       BGLCNA   HT3      HCA3     0.900000E-01   1.00800           0
     31745 LPSA29   17       BGLCNA   C3       CC3161   0.900000E-01   12.0110           0
     31746 LPSA29   17       BGLCNA   H3       HCA1     0.900000E-01   1.00800           0
     31747 LPSA29   17       BGLCNA   O3       OC301   -0.360000       15.9994           0
     31748 LPSA29   17       BGLCNA   C4       CC3161   0.140000       12.0110           0
     31749 LPSA29   17       BGLCNA   H4       HCA1     0.900000E-01   1.00800           0
     31750 LPSA29   17       BGLCNA   O4       OC311   -0.650000       15.9994           0
     31751 LPSA29   17       BGLCNA   HO4      HCP1     0.420000       1.00800           0
     31752 LPSA29   17       BGLCNA   C6       CC321    0.500000E-01   12.0110           0
     31753 LPSA29   17       BGLCNA   H61      HCA2     0.900000E-01   1.00800           0
     31754 LPSA29   17       BGLCNA   H62      HCA2     0.900000E-01   1.00800           0
     31755 LPSA29   17       BGLCNA   O6       OC311   -0.650000       15.9994           0
     31756 LPSA29   17       BGLCNA   HO6      HCP1     0.420000       1.00800           0
     31757 LPSA29   18       AGAL     C1       CC3162   0.290000       12.0110           0
     31758 LPSA29   18       AGAL     H1       HCA1     0.900000E-01   1.00800           0
     31759 LPSA29   18       AGAL     C5       CC3163   0.110000       12.0110           0
     31760 LPSA29   18       AGAL     H5       HCA1     0.900000E-01   1.00800           0
     31761 LPSA29   18       AGAL     O5       OC3C61  -0.400000       15.9994           0
     31762 LPSA29   18       AGAL     C2       CC3161   0.900000E-01   12.0110           0
     31763 LPSA29   18       AGAL     H2       HCA1     0.900000E-01   1.00800           0
     31764 LPSA29   18       AGAL     O2       OC301   -0.360000       15.9994           0
     31765 LPSA29   18       AGAL     C3       CC3161   0.140000       12.0110           0
     31766 LPSA29   18       AGAL     H3       HCA1     0.900000E-01   1.00800           0
     31767 LPSA29   18       AGAL     O3       OC311   -0.650000       15.9994           0
     31768 LPSA29   18       AGAL     HO3      HCP1     0.420000       1.00800           0
     31769 LPSA29   18       AGAL     C4       CC3161   0.140000       12.0110           0
     31770 LPSA29   18       AGAL     H4       HCA1     0.900000E-01   1.00800           0
     31771 LPSA29   18       AGAL     O4       OC311   -0.650000       15.9994           0
     31772 LPSA29   18       AGAL     HO4      HCP1     0.420000       1.00800           0
     31773 LPSA29   18       AGAL     C6       CC321    0.500000E-01   12.0110           0
     31774 LPSA29   18       AGAL     H61      HCA2     0.900000E-01   1.00800           0
     31775 LPSA29   18       AGAL     H62      HCA2     0.900000E-01   1.00800           0
     31776 LPSA29   18       AGAL     O6       OC311   -0.650000       15.9994           0
     31777 LPSA29   18       AGAL     HO6      HCP1     0.420000       1.00800           0
     31778 LPSA29   19       ARHM     C1       CC3162   0.290000       12.0110           0
     31779 LPSA29   19       ARHM     H1       HCA1     0.900000E-01   1.00800           0
     31780 LPSA29   19       ARHM     C5       CC3163   0.110000       12.0110           0
     31781 LPSA29   19       ARHM     H5       HCA1     0.900000E-01   1.00800           0
     31782 LPSA29   19       ARHM     O5       OC3C61  -0.400000       15.9994           0
     31783 LPSA29   19       ARHM     C2       CC3161   0.900000E-01   12.0110           0
     31784 LPSA29   19       ARHM     H2       HCA1     0.900000E-01   1.00800           0
     31785 LPSA29   19       ARHM     O2       OC301   -0.360000       15.9994           0
     31786 LPSA29   19       ARHM     C3       CC3161   0.140000       12.0110           0
     31787 LPSA29   19       ARHM     H3       HCA1     0.900000E-01   1.00800           0
     31788 LPSA29   19       ARHM     O3       OC311   -0.650000       15.9994           0
     31789 LPSA29   19       ARHM     HO3      HCP1     0.420000       1.00800           0
     31790 LPSA29   19       ARHM     C4       CC3161   0.140000       12.0110           0
     31791 LPSA29   19       ARHM     H4       HCA1     0.900000E-01   1.00800           0
     31792 LPSA29   19       ARHM     O4       OC311   -0.650000       15.9994           0
     31793 LPSA29   19       ARHM     HO4      HCP1     0.420000       1.00800           0
     31794 LPSA29   19       ARHM     C6       CC331   -0.270000       12.0110           0
     31795 LPSA29   19       ARHM     H61      HCA3     0.900000E-01   1.00800           0
     31796 LPSA29   19       ARHM     H62      HCA3     0.900000E-01   1.00800           0
     31797 LPSA29   19       ARHM     H63      HCA3     0.900000E-01   1.00800           0
     31798 LPSA29   20       ARHM     C1       CC3162   0.290000       12.0110           0
     31799 LPSA29   20       ARHM     H1       HCA1     0.900000E-01   1.00800           0
     31800 LPSA29   20       ARHM     C5       CC3163   0.110000       12.0110           0
     31801 LPSA29   20       ARHM     H5       HCA1     0.900000E-01   1.00800           0
     31802 LPSA29   20       ARHM     O5       OC3C61  -0.400000       15.9994           0
     31803 LPSA29   20       ARHM     C2       CC3161   0.900000E-01   12.0110           0
     31804 LPSA29   20       ARHM     H2       HCA1     0.900000E-01   1.00800           0
     31805 LPSA29   20       ARHM     O2       OC301   -0.360000       15.9994           0
     31806 LPSA29   20       ARHM     C3       CC3161   0.900000E-01   12.0110           0
     31807 LPSA29   20       ARHM     H3       HCA1     0.900000E-01   1.00800           0
     31808 LPSA29   20       ARHM     O3       OC301   -0.360000       15.9994           0
     31809 LPSA29   20       ARHM     C4       CC3161   0.140000       12.0110           0
     31810 LPSA29   20       ARHM     H4       HCA1     0.900000E-01   1.00800           0
     31811 LPSA29   20       ARHM     O4       OC311   -0.650000       15.9994           0
     31812 LPSA29   20       ARHM     HO4      HCP1     0.420000       1.00800           0
     31813 LPSA29   20       ARHM     C6       CC331   -0.270000       12.0110           0
     31814 LPSA29   20       ARHM     H61      HCA3     0.900000E-01   1.00800           0
     31815 LPSA29   20       ARHM     H62      HCA3     0.900000E-01   1.00800           0
     31816 LPSA29   20       ARHM     H63      HCA3     0.900000E-01   1.00800           0
     31817 LPSA29   21       BMANNA   C1       CC3162   0.290000       12.0110           0
     31818 LPSA29   21       BMANNA   H1       HCA1     0.900000E-01   1.00800           0
     31819 LPSA29   21       BMANNA   C5       CC3163   0.110000       12.0110           0
     31820 LPSA29   21       BMANNA   H5       HCA1     0.900000E-01   1.00800           0
     31821 LPSA29   21       BMANNA   O5       OC3C61  -0.400000       15.9994           0
     31822 LPSA29   21       BMANNA   C2       CC3161   0.700000E-01   12.0110           0
     31823 LPSA29   21       BMANNA   H2       HCA1     0.900000E-01   1.00800           0
     31824 LPSA29   21       BMANNA   N        NC2D1   -0.470000       14.0070           0
     31825 LPSA29   21       BMANNA   HN       HCP1     0.310000       1.00800           0
     31826 LPSA29   21       BMANNA   C        CC2O1    0.510000       12.0110           0
     31827 LPSA29   21       BMANNA   O        OC2D1   -0.510000       15.9994           0
     31828 LPSA29   21       BMANNA   CT       CC331   -0.270000       12.0110           0
     31829 LPSA29   21       BMANNA   HT1      HCA3     0.900000E-01   1.00800           0
     31830 LPSA29   21       BMANNA   HT2      HCA3     0.900000E-01   1.00800           0
     31831 LPSA29   21       BMANNA   HT3      HCA3     0.900000E-01   1.00800           0
     31832 LPSA29   21       BMANNA   C3       CC3161   0.140000       12.0110           0
     31833 LPSA29   21       BMANNA   H3       HCA1     0.900000E-01   1.00800           0
     31834 LPSA29   21       BMANNA   O3       OC311   -0.650000       15.9994           0
     31835 LPSA29   21       BMANNA   HO3      HCP1     0.420000       1.00800           0
     31836 LPSA29   21       BMANNA   C4       CC3161   0.140000       12.0110           0
     31837 LPSA29   21       BMANNA   H4       HCA1     0.900000E-01   1.00800           0
     31838 LPSA29   21       BMANNA   O4       OC311   -0.650000       15.9994           0
     31839 LPSA29   21       BMANNA   HO4      HCP1     0.420000       1.00800           0
     31840 LPSA29   21       BMANNA   C6       CC321    0.500000E-01   12.0110           0
     31841 LPSA29   21       BMANNA   H61      HCA2     0.900000E-01   1.00800           0
     31842 LPSA29   21       BMANNA   H62      HCA2     0.900000E-01   1.00800           0
     31843 LPSA29   21       BMANNA   O6       OC311   -0.650000       15.9994           0
     31844 LPSA29   21       BMANNA   HO6      HCP1     0.420000       1.00800           0
     31845 LPSA29   22       BGLCNA   C1       CC3162   0.290000       12.0110           0
     31846 LPSA29   22       BGLCNA   H1       HCA1     0.900000E-01   1.00800           0
     31847 LPSA29   22       BGLCNA   C5       CC3163   0.110000       12.0110           0
     31848 LPSA29   22       BGLCNA   H5       HCA1     0.900000E-01   1.00800           0
     31849 LPSA29   22       BGLCNA   O5       OC3C61  -0.400000       15.9994           0
     31850 LPSA29   22       BGLCNA   C2       CC3161   0.700000E-01   12.0110           0
     31851 LPSA29   22       BGLCNA   H2       HCA1     0.900000E-01   1.00800           0
     31852 LPSA29   22       BGLCNA   N        NC2D1   -0.470000       14.0070           0
     31853 LPSA29   22       BGLCNA   HN       HCP1     0.310000       1.00800           0
     31854 LPSA29   22       BGLCNA   C        CC2O1    0.510000       12.0110           0
     31855 LPSA29   22       BGLCNA   O        OC2D1   -0.510000       15.9994           0
     31856 LPSA29   22       BGLCNA   CT       CC331   -0.270000       12.0110           0
     31857 LPSA29   22       BGLCNA   HT1      HCA3     0.900000E-01   1.00800           0
     31858 LPSA29   22       BGLCNA   HT2      HCA3     0.900000E-01   1.00800           0
     31859 LPSA29   22       BGLCNA   HT3      HCA3     0.900000E-01   1.00800           0
     31860 LPSA29   22       BGLCNA   C3       CC3161   0.900000E-01   12.0110           0
     31861 LPSA29   22       BGLCNA   H3       HCA1     0.900000E-01   1.00800           0
     31862 LPSA29   22       BGLCNA   O3       OC301   -0.360000       15.9994           0
     31863 LPSA29   22       BGLCNA   C4       CC3161   0.140000       12.0110           0
     31864 LPSA29   22       BGLCNA   H4       HCA1     0.900000E-01   1.00800           0
     31865 LPSA29   22       BGLCNA   O4       OC311   -0.650000       15.9994           0
     31866 LPSA29   22       BGLCNA   HO4      HCP1     0.420000       1.00800           0
     31867 LPSA29   22       BGLCNA   C6       CC321    0.500000E-01   12.0110           0
     31868 LPSA29   22       BGLCNA   H61      HCA2     0.900000E-01   1.00800           0
     31869 LPSA29   22       BGLCNA   H62      HCA2     0.900000E-01   1.00800           0
     31870 LPSA29   22       BGLCNA   O6       OC311   -0.650000       15.9994           0
     31871 LPSA29   22       BGLCNA   HO6      HCP1     0.420000       1.00800           0
     31872 LPSA29   23       AGAL     C1       CC3162   0.290000       12.0110           0
     31873 LPSA29   23       AGAL     H1       HCA1     0.900000E-01   1.00800           0
     31874 LPSA29   23       AGAL     C5       CC3163   0.110000       12.0110           0
     31875 LPSA29   23       AGAL     H5       HCA1     0.900000E-01   1.00800           0
     31876 LPSA29   23       AGAL     O5       OC3C61  -0.400000       15.9994           0
     31877 LPSA29   23       AGAL     C2       CC3161   0.900000E-01   12.0110           0
     31878 LPSA29   23       AGAL     H2       HCA1     0.900000E-01   1.00800           0
     31879 LPSA29   23       AGAL     O2       OC301   -0.360000       15.9994           0
     31880 LPSA29   23       AGAL     C3       CC3161   0.140000       12.0110           0
     31881 LPSA29   23       AGAL     H3       HCA1     0.900000E-01   1.00800           0
     31882 LPSA29   23       AGAL     O3       OC311   -0.650000       15.9994           0
     31883 LPSA29   23       AGAL     HO3      HCP1     0.420000       1.00800           0
     31884 LPSA29   23       AGAL     C4       CC3161   0.140000       12.0110           0
     31885 LPSA29   23       AGAL     H4       HCA1     0.900000E-01   1.00800           0
     31886 LPSA29   23       AGAL     O4       OC311   -0.650000       15.9994           0
     31887 LPSA29   23       AGAL     HO4      HCP1     0.420000       1.00800           0
     31888 LPSA29   23       AGAL     C6       CC321    0.500000E-01   12.0110           0
     31889 LPSA29   23       AGAL     H61      HCA2     0.900000E-01   1.00800           0
     31890 LPSA29   23       AGAL     H62      HCA2     0.900000E-01   1.00800           0
     31891 LPSA29   23       AGAL     O6       OC311   -0.650000       15.9994           0
     31892 LPSA29   23       AGAL     HO6      HCP1     0.420000       1.00800           0
     31893 LPSA29   24       ARHM     C1       CC3162   0.290000       12.0110           0
     31894 LPSA29   24       ARHM     H1       HCA1     0.900000E-01   1.00800           0
     31895 LPSA29   24       ARHM     C5       CC3163   0.110000       12.0110           0
     31896 LPSA29   24       ARHM     H5       HCA1     0.900000E-01   1.00800           0
     31897 LPSA29   24       ARHM     O5       OC3C61  -0.400000       15.9994           0
     31898 LPSA29   24       ARHM     C2       CC3161   0.900000E-01   12.0110           0
     31899 LPSA29   24       ARHM     H2       HCA1     0.900000E-01   1.00800           0
     31900 LPSA29   24       ARHM     O2       OC301   -0.360000       15.9994           0
     31901 LPSA29   24       ARHM     C3       CC3161   0.140000       12.0110           0
     31902 LPSA29   24       ARHM     H3       HCA1     0.900000E-01   1.00800           0
     31903 LPSA29   24       ARHM     O3       OC311   -0.650000       15.9994           0
     31904 LPSA29   24       ARHM     HO3      HCP1     0.420000       1.00800           0
     31905 LPSA29   24       ARHM     C4       CC3161   0.140000       12.0110           0
     31906 LPSA29   24       ARHM     H4       HCA1     0.900000E-01   1.00800           0
     31907 LPSA29   24       ARHM     O4       OC311   -0.650000       15.9994           0
     31908 LPSA29   24       ARHM     HO4      HCP1     0.420000       1.00800           0
     31909 LPSA29   24       ARHM     C6       CC331   -0.270000       12.0110           0
     31910 LPSA29   24       ARHM     H61      HCA3     0.900000E-01   1.00800           0
     31911 LPSA29   24       ARHM     H62      HCA3     0.900000E-01   1.00800           0
     31912 LPSA29   24       ARHM     H63      HCA3     0.900000E-01   1.00800           0
     31913 LPSA29   25       ARHM     C1       CC3162   0.290000       12.0110           0
     31914 LPSA29   25       ARHM     H1       HCA1     0.900000E-01   1.00800           0
     31915 LPSA29   25       ARHM     C5       CC3163   0.110000       12.0110           0
     31916 LPSA29   25       ARHM     H5       HCA1     0.900000E-01   1.00800           0
     31917 LPSA29   25       ARHM     O5       OC3C61  -0.400000       15.9994           0
     31918 LPSA29   25       ARHM     C2       CC3161   0.900000E-01   12.0110           0
     31919 LPSA29   25       ARHM     H2       HCA1     0.900000E-01   1.00800           0
     31920 LPSA29   25       ARHM     O2       OC301   -0.360000       15.9994           0
     31921 LPSA29   25       ARHM     C3       CC3161   0.900000E-01   12.0110           0
     31922 LPSA29   25       ARHM     H3       HCA1     0.900000E-01   1.00800           0
     31923 LPSA29   25       ARHM     O3       OC301   -0.360000       15.9994           0
     31924 LPSA29   25       ARHM     C4       CC3161   0.140000       12.0110           0
     31925 LPSA29   25       ARHM     H4       HCA1     0.900000E-01   1.00800           0
     31926 LPSA29   25       ARHM     O4       OC311   -0.650000       15.9994           0
     31927 LPSA29   25       ARHM     HO4      HCP1     0.420000       1.00800           0
     31928 LPSA29   25       ARHM     C6       CC331   -0.270000       12.0110           0
     31929 LPSA29   25       ARHM     H61      HCA3     0.900000E-01   1.00800           0
     31930 LPSA29   25       ARHM     H62      HCA3     0.900000E-01   1.00800           0
     31931 LPSA29   25       ARHM     H63      HCA3     0.900000E-01   1.00800           0
     31932 LPSA29   26       BMANNA   C1       CC3162   0.290000       12.0110           0
     31933 LPSA29   26       BMANNA   H1       HCA1     0.900000E-01   1.00800           0
     31934 LPSA29   26       BMANNA   C5       CC3163   0.110000       12.0110           0
     31935 LPSA29   26       BMANNA   H5       HCA1     0.900000E-01   1.00800           0
     31936 LPSA29   26       BMANNA   O5       OC3C61  -0.400000       15.9994           0
     31937 LPSA29   26       BMANNA   C2       CC3161   0.700000E-01   12.0110           0
     31938 LPSA29   26       BMANNA   H2       HCA1     0.900000E-01   1.00800           0
     31939 LPSA29   26       BMANNA   N        NC2D1   -0.470000       14.0070           0
     31940 LPSA29   26       BMANNA   HN       HCP1     0.310000       1.00800           0
     31941 LPSA29   26       BMANNA   C        CC2O1    0.510000       12.0110           0
     31942 LPSA29   26       BMANNA   O        OC2D1   -0.510000       15.9994           0
     31943 LPSA29   26       BMANNA   CT       CC331   -0.270000       12.0110           0
     31944 LPSA29   26       BMANNA   HT1      HCA3     0.900000E-01   1.00800           0
     31945 LPSA29   26       BMANNA   HT2      HCA3     0.900000E-01   1.00800           0
     31946 LPSA29   26       BMANNA   HT3      HCA3     0.900000E-01   1.00800           0
     31947 LPSA29   26       BMANNA   C3       CC3161   0.140000       12.0110           0
     31948 LPSA29   26       BMANNA   H3       HCA1     0.900000E-01   1.00800           0
     31949 LPSA29   26       BMANNA   O3       OC311   -0.650000       15.9994           0
     31950 LPSA29   26       BMANNA   HO3      HCP1     0.420000       1.00800           0
     31951 LPSA29   26       BMANNA   C4       CC3161   0.140000       12.0110           0
     31952 LPSA29   26       BMANNA   H4       HCA1     0.900000E-01   1.00800           0
     31953 LPSA29   26       BMANNA   O4       OC311   -0.650000       15.9994           0
     31954 LPSA29   26       BMANNA   HO4      HCP1     0.420000       1.00800           0
     31955 LPSA29   26       BMANNA   C6       CC321    0.500000E-01   12.0110           0
     31956 LPSA29   26       BMANNA   H61      HCA2     0.900000E-01   1.00800           0
     31957 LPSA29   26       BMANNA   H62      HCA2     0.900000E-01   1.00800           0
     31958 LPSA29   26       BMANNA   O6       OC311   -0.650000       15.9994           0
     31959 LPSA29   26       BMANNA   HO6      HCP1     0.420000       1.00800           0
     31960 LPSA29   27       BGLCNA   C1       CC3162   0.290000       12.0110           0
     31961 LPSA29   27       BGLCNA   H1       HCA1     0.900000E-01   1.00800           0
     31962 LPSA29   27       BGLCNA   C5       CC3163   0.110000       12.0110           0
     31963 LPSA29   27       BGLCNA   H5       HCA1     0.900000E-01   1.00800           0
     31964 LPSA29   27       BGLCNA   O5       OC3C61  -0.400000       15.9994           0
     31965 LPSA29   27       BGLCNA   C2       CC3161   0.700000E-01   12.0110           0
     31966 LPSA29   27       BGLCNA   H2       HCA1     0.900000E-01   1.00800           0
     31967 LPSA29   27       BGLCNA   N        NC2D1   -0.470000       14.0070           0
     31968 LPSA29   27       BGLCNA   HN       HCP1     0.310000       1.00800           0
     31969 LPSA29   27       BGLCNA   C        CC2O1    0.510000       12.0110           0
     31970 LPSA29   27       BGLCNA   O        OC2D1   -0.510000       15.9994           0
     31971 LPSA29   27       BGLCNA   CT       CC331   -0.270000       12.0110           0
     31972 LPSA29   27       BGLCNA   HT1      HCA3     0.900000E-01   1.00800           0
     31973 LPSA29   27       BGLCNA   HT2      HCA3     0.900000E-01   1.00800           0
     31974 LPSA29   27       BGLCNA   HT3      HCA3     0.900000E-01   1.00800           0
     31975 LPSA29   27       BGLCNA   C3       CC3161   0.900000E-01   12.0110           0
     31976 LPSA29   27       BGLCNA   H3       HCA1     0.900000E-01   1.00800           0
     31977 LPSA29   27       BGLCNA   O3       OC301   -0.360000       15.9994           0
     31978 LPSA29   27       BGLCNA   C4       CC3161   0.140000       12.0110           0
     31979 LPSA29   27       BGLCNA   H4       HCA1     0.900000E-01   1.00800           0
     31980 LPSA29   27       BGLCNA   O4       OC311   -0.650000       15.9994           0
     31981 LPSA29   27       BGLCNA   HO4      HCP1     0.420000       1.00800           0
     31982 LPSA29   27       BGLCNA   C6       CC321    0.500000E-01   12.0110           0
     31983 LPSA29   27       BGLCNA   H61      HCA2     0.900000E-01   1.00800           0
     31984 LPSA29   27       BGLCNA   H62      HCA2     0.900000E-01   1.00800           0
     31985 LPSA29   27       BGLCNA   O6       OC311   -0.650000       15.9994           0
     31986 LPSA29   27       BGLCNA   HO6      HCP1     0.420000       1.00800           0
     31987 LPSA29   28       AGAL     C1       CC3162   0.290000       12.0110           0
     31988 LPSA29   28       AGAL     H1       HCA1     0.900000E-01   1.00800           0
     31989 LPSA29   28       AGAL     C5       CC3163   0.110000       12.0110           0
     31990 LPSA29   28       AGAL     H5       HCA1     0.900000E-01   1.00800           0
     31991 LPSA29   28       AGAL     O5       OC3C61  -0.400000       15.9994           0
     31992 LPSA29   28       AGAL     C2       CC3161   0.900000E-01   12.0110           0
     31993 LPSA29   28       AGAL     H2       HCA1     0.900000E-01   1.00800           0
     31994 LPSA29   28       AGAL     O2       OC301   -0.360000       15.9994           0
     31995 LPSA29   28       AGAL     C3       CC3161   0.140000       12.0110           0
     31996 LPSA29   28       AGAL     H3       HCA1     0.900000E-01   1.00800           0
     31997 LPSA29   28       AGAL     O3       OC311   -0.650000       15.9994           0
     31998 LPSA29   28       AGAL     HO3      HCP1     0.420000       1.00800           0
     31999 LPSA29   28       AGAL     C4       CC3161   0.140000       12.0110           0
     32000 LPSA29   28       AGAL     H4       HCA1     0.900000E-01   1.00800           0
     32001 LPSA29   28       AGAL     O4       OC311   -0.650000       15.9994           0
     32002 LPSA29   28       AGAL     HO4      HCP1     0.420000       1.00800           0
     32003 LPSA29   28       AGAL     C6       CC321    0.500000E-01   12.0110           0
     32004 LPSA29   28       AGAL     H61      HCA2     0.900000E-01   1.00800           0
     32005 LPSA29   28       AGAL     H62      HCA2     0.900000E-01   1.00800           0
     32006 LPSA29   28       AGAL     O6       OC311   -0.650000       15.9994           0
     32007 LPSA29   28       AGAL     HO6      HCP1     0.420000       1.00800           0
     32008 LPSA29   29       ARHM     C1       CC3162   0.290000       12.0110           0
     32009 LPSA29   29       ARHM     H1       HCA1     0.900000E-01   1.00800           0
     32010 LPSA29   29       ARHM     C5       CC3163   0.110000       12.0110           0
     32011 LPSA29   29       ARHM     H5       HCA1     0.900000E-01   1.00800           0
     32012 LPSA29   29       ARHM     O5       OC3C61  -0.400000       15.9994           0
     32013 LPSA29   29       ARHM     C2       CC3161   0.900000E-01   12.0110           0
     32014 LPSA29   29       ARHM     H2       HCA1     0.900000E-01   1.00800           0
     32015 LPSA29   29       ARHM     O2       OC301   -0.360000       15.9994           0
     32016 LPSA29   29       ARHM     C3       CC3161   0.140000       12.0110           0
     32017 LPSA29   29       ARHM     H3       HCA1     0.900000E-01   1.00800           0
     32018 LPSA29   29       ARHM     O3       OC311   -0.650000       15.9994           0
     32019 LPSA29   29       ARHM     HO3      HCP1     0.420000       1.00800           0
     32020 LPSA29   29       ARHM     C4       CC3161   0.140000       12.0110           0
     32021 LPSA29   29       ARHM     H4       HCA1     0.900000E-01   1.00800           0
     32022 LPSA29   29       ARHM     O4       OC311   -0.650000       15.9994           0
     32023 LPSA29   29       ARHM     HO4      HCP1     0.420000       1.00800           0
     32024 LPSA29   29       ARHM     C6       CC331   -0.270000       12.0110           0
     32025 LPSA29   29       ARHM     H61      HCA3     0.900000E-01   1.00800           0
     32026 LPSA29   29       ARHM     H62      HCA3     0.900000E-01   1.00800           0
     32027 LPSA29   29       ARHM     H63      HCA3     0.900000E-01   1.00800           0
     32028 LPSA29   30       ARHM     C1       CC3162   0.290000       12.0110           0
     32029 LPSA29   30       ARHM     H1       HCA1     0.900000E-01   1.00800           0
     32030 LPSA29   30       ARHM     C5       CC3163   0.110000       12.0110           0
     32031 LPSA29   30       ARHM     H5       HCA1     0.900000E-01   1.00800           0
     32032 LPSA29   30       ARHM     O5       OC3C61  -0.400000       15.9994           0
     32033 LPSA29   30       ARHM     C2       CC3161   0.900000E-01   12.0110           0
     32034 LPSA29   30       ARHM     H2       HCA1     0.900000E-01   1.00800           0
     32035 LPSA29   30       ARHM     O2       OC301   -0.360000       15.9994           0
     32036 LPSA29   30       ARHM     C3       CC3161   0.900000E-01   12.0110           0
     32037 LPSA29   30       ARHM     H3       HCA1     0.900000E-01   1.00800           0
     32038 LPSA29   30       ARHM     O3       OC301   -0.360000       15.9994           0
     32039 LPSA29   30       ARHM     C4       CC3161   0.140000       12.0110           0
     32040 LPSA29   30       ARHM     H4       HCA1     0.900000E-01   1.00800           0
     32041 LPSA29   30       ARHM     O4       OC311   -0.650000       15.9994           0
     32042 LPSA29   30       ARHM     HO4      HCP1     0.420000       1.00800           0
     32043 LPSA29   30       ARHM     C6       CC331   -0.270000       12.0110           0
     32044 LPSA29   30       ARHM     H61      HCA3     0.900000E-01   1.00800           0
     32045 LPSA29   30       ARHM     H62      HCA3     0.900000E-01   1.00800           0
     32046 LPSA29   30       ARHM     H63      HCA3     0.900000E-01   1.00800           0
     32047 LPSA29   31       BMANNA   C1       CC3162   0.290000       12.0110           0
     32048 LPSA29   31       BMANNA   H1       HCA1     0.900000E-01   1.00800           0
     32049 LPSA29   31       BMANNA   C5       CC3163   0.110000       12.0110           0
     32050 LPSA29   31       BMANNA   H5       HCA1     0.900000E-01   1.00800           0
     32051 LPSA29   31       BMANNA   O5       OC3C61  -0.400000       15.9994           0
     32052 LPSA29   31       BMANNA   C2       CC3161   0.700000E-01   12.0110           0
     32053 LPSA29   31       BMANNA   H2       HCA1     0.900000E-01   1.00800           0
     32054 LPSA29   31       BMANNA   N        NC2D1   -0.470000       14.0070           0
     32055 LPSA29   31       BMANNA   HN       HCP1     0.310000       1.00800           0
     32056 LPSA29   31       BMANNA   C        CC2O1    0.510000       12.0110           0
     32057 LPSA29   31       BMANNA   O        OC2D1   -0.510000       15.9994           0
     32058 LPSA29   31       BMANNA   CT       CC331   -0.270000       12.0110           0
     32059 LPSA29   31       BMANNA   HT1      HCA3     0.900000E-01   1.00800           0
     32060 LPSA29   31       BMANNA   HT2      HCA3     0.900000E-01   1.00800           0
     32061 LPSA29   31       BMANNA   HT3      HCA3     0.900000E-01   1.00800           0
     32062 LPSA29   31       BMANNA   C3       CC3161   0.140000       12.0110           0
     32063 LPSA29   31       BMANNA   H3       HCA1     0.900000E-01   1.00800           0
     32064 LPSA29   31       BMANNA   O3       OC311   -0.650000       15.9994           0
     32065 LPSA29   31       BMANNA   HO3      HCP1     0.420000       1.00800           0
     32066 LPSA29   31       BMANNA   C4       CC3161   0.140000       12.0110           0
     32067 LPSA29   31       BMANNA   H4       HCA1     0.900000E-01   1.00800           0
     32068 LPSA29   31       BMANNA   O4       OC311   -0.650000       15.9994           0
     32069 LPSA29   31       BMANNA   HO4      HCP1     0.420000       1.00800           0
     32070 LPSA29   31       BMANNA   C6       CC321    0.500000E-01   12.0110           0
     32071 LPSA29   31       BMANNA   H61      HCA2     0.900000E-01   1.00800           0
     32072 LPSA29   31       BMANNA   H62      HCA2     0.900000E-01   1.00800           0
     32073 LPSA29   31       BMANNA   O6       OC311   -0.650000       15.9994           0
     32074 LPSA29   31       BMANNA   HO6      HCP1     0.420000       1.00800           0
     32075 LPSA29   32       BGLCNA   C1       CC3162   0.290000       12.0110           0
     32076 LPSA29   32       BGLCNA   H1       HCA1     0.900000E-01   1.00800           0
     32077 LPSA29   32       BGLCNA   C5       CC3163   0.110000       12.0110           0
     32078 LPSA29   32       BGLCNA   H5       HCA1     0.900000E-01   1.00800           0
     32079 LPSA29   32       BGLCNA   O5       OC3C61  -0.400000       15.9994           0
     32080 LPSA29   32       BGLCNA   C2       CC3161   0.700000E-01   12.0110           0
     32081 LPSA29   32       BGLCNA   H2       HCA1     0.900000E-01   1.00800           0
     32082 LPSA29   32       BGLCNA   N        NC2D1   -0.470000       14.0070           0
     32083 LPSA29   32       BGLCNA   HN       HCP1     0.310000       1.00800           0
     32084 LPSA29   32       BGLCNA   C        CC2O1    0.510000       12.0110           0
     32085 LPSA29   32       BGLCNA   O        OC2D1   -0.510000       15.9994           0
     32086 LPSA29   32       BGLCNA   CT       CC331   -0.270000       12.0110           0
     32087 LPSA29   32       BGLCNA   HT1      HCA3     0.900000E-01   1.00800           0
     32088 LPSA29   32       BGLCNA   HT2      HCA3     0.900000E-01   1.00800           0
     32089 LPSA29   32       BGLCNA   HT3      HCA3     0.900000E-01   1.00800           0
     32090 LPSA29   32       BGLCNA   C3       CC3161   0.900000E-01   12.0110           0
     32091 LPSA29   32       BGLCNA   H3       HCA1     0.900000E-01   1.00800           0
     32092 LPSA29   32       BGLCNA   O3       OC301   -0.360000       15.9994           0
     32093 LPSA29   32       BGLCNA   C4       CC3161   0.140000       12.0110           0
     32094 LPSA29   32       BGLCNA   H4       HCA1     0.900000E-01   1.00800           0
     32095 LPSA29   32       BGLCNA   O4       OC311   -0.650000       15.9994           0
     32096 LPSA29   32       BGLCNA   HO4      HCP1     0.420000       1.00800           0
     32097 LPSA29   32       BGLCNA   C6       CC321    0.500000E-01   12.0110           0
     32098 LPSA29   32       BGLCNA   H61      HCA2     0.900000E-01   1.00800           0
     32099 LPSA29   32       BGLCNA   H62      HCA2     0.900000E-01   1.00800           0
     32100 LPSA29   32       BGLCNA   O6       OC311   -0.650000       15.9994           0
     32101 LPSA29   32       BGLCNA   HO6      HCP1     0.420000       1.00800           0
     32102 LPSA29   33       AGAL     C1       CC3162   0.290000       12.0110           0
     32103 LPSA29   33       AGAL     H1       HCA1     0.900000E-01   1.00800           0
     32104 LPSA29   33       AGAL     C5       CC3163   0.110000       12.0110           0
     32105 LPSA29   33       AGAL     H5       HCA1     0.900000E-01   1.00800           0
     32106 LPSA29   33       AGAL     O5       OC3C61  -0.400000       15.9994           0
     32107 LPSA29   33       AGAL     C2       CC3161   0.900000E-01   12.0110           0
     32108 LPSA29   33       AGAL     H2       HCA1     0.900000E-01   1.00800           0
     32109 LPSA29   33       AGAL     O2       OC301   -0.360000       15.9994           0
     32110 LPSA29   33       AGAL     C3       CC3161   0.140000       12.0110           0
     32111 LPSA29   33       AGAL     H3       HCA1     0.900000E-01   1.00800           0
     32112 LPSA29   33       AGAL     O3       OC311   -0.650000       15.9994           0
     32113 LPSA29   33       AGAL     HO3      HCP1     0.420000       1.00800           0
     32114 LPSA29   33       AGAL     C4       CC3161   0.140000       12.0110           0
     32115 LPSA29   33       AGAL     H4       HCA1     0.900000E-01   1.00800           0
     32116 LPSA29   33       AGAL     O4       OC311   -0.650000       15.9994           0
     32117 LPSA29   33       AGAL     HO4      HCP1     0.420000       1.00800           0
     32118 LPSA29   33       AGAL     C6       CC321    0.500000E-01   12.0110           0
     32119 LPSA29   33       AGAL     H61      HCA2     0.900000E-01   1.00800           0
     32120 LPSA29   33       AGAL     H62      HCA2     0.900000E-01   1.00800           0
     32121 LPSA29   33       AGAL     O6       OC311   -0.650000       15.9994           0
     32122 LPSA29   33       AGAL     HO6      HCP1     0.420000       1.00800           0
     32123 LPSA29   34       ARHM     C1       CC3162   0.290000       12.0110           0
     32124 LPSA29   34       ARHM     H1       HCA1     0.900000E-01   1.00800           0
     32125 LPSA29   34       ARHM     C5       CC3163   0.110000       12.0110           0
     32126 LPSA29   34       ARHM     H5       HCA1     0.900000E-01   1.00800           0
     32127 LPSA29   34       ARHM     O5       OC3C61  -0.400000       15.9994           0
     32128 LPSA29   34       ARHM     C2       CC3161   0.900000E-01   12.0110           0
     32129 LPSA29   34       ARHM     H2       HCA1     0.900000E-01   1.00800           0
     32130 LPSA29   34       ARHM     O2       OC301   -0.360000       15.9994           0
     32131 LPSA29   34       ARHM     C3       CC3161   0.140000       12.0110           0
     32132 LPSA29   34       ARHM     H3       HCA1     0.900000E-01   1.00800           0
     32133 LPSA29   34       ARHM     O3       OC311   -0.650000       15.9994           0
     32134 LPSA29   34       ARHM     HO3      HCP1     0.420000       1.00800           0
     32135 LPSA29   34       ARHM     C4       CC3161   0.140000       12.0110           0
     32136 LPSA29   34       ARHM     H4       HCA1     0.900000E-01   1.00800           0
     32137 LPSA29   34       ARHM     O4       OC311   -0.650000       15.9994           0
     32138 LPSA29   34       ARHM     HO4      HCP1     0.420000       1.00800           0
     32139 LPSA29   34       ARHM     C6       CC331   -0.270000       12.0110           0
     32140 LPSA29   34       ARHM     H61      HCA3     0.900000E-01   1.00800           0
     32141 LPSA29   34       ARHM     H62      HCA3     0.900000E-01   1.00800           0
     32142 LPSA29   34       ARHM     H63      HCA3     0.900000E-01   1.00800           0
     32143 LPSA29   35       ARHM     C1       CC3162   0.290000       12.0110           0
     32144 LPSA29   35       ARHM     H1       HCA1     0.900000E-01   1.00800           0
     32145 LPSA29   35       ARHM     C5       CC3163   0.110000       12.0110           0
     32146 LPSA29   35       ARHM     H5       HCA1     0.900000E-01   1.00800           0
     32147 LPSA29   35       ARHM     O5       OC3C61  -0.400000       15.9994           0
     32148 LPSA29   35       ARHM     C2       CC3161   0.900000E-01   12.0110           0
     32149 LPSA29   35       ARHM     H2       HCA1     0.900000E-01   1.00800           0
     32150 LPSA29   35       ARHM     O2       OC301   -0.360000       15.9994           0
     32151 LPSA29   35       ARHM     C3       CC3161   0.140000       12.0110           0
     32152 LPSA29   35       ARHM     H3       HCA1     0.900000E-01   1.00800           0
     32153 LPSA29   35       ARHM     O3       OC311   -0.650000       15.9994           0
     32154 LPSA29   35       ARHM     HO3      HCP1     0.420000       1.00800           0
     32155 LPSA29   35       ARHM     C4       CC3161   0.140000       12.0110           0
     32156 LPSA29   35       ARHM     H4       HCA1     0.900000E-01   1.00800           0
     32157 LPSA29   35       ARHM     O4       OC311   -0.650000       15.9994           0
     32158 LPSA29   35       ARHM     HO4      HCP1     0.420000       1.00800           0
     32159 LPSA29   35       ARHM     C6       CC331   -0.270000       12.0110           0
     32160 LPSA29   35       ARHM     H61      HCA3     0.900000E-01   1.00800           0
     32161 LPSA29   35       ARHM     H62      HCA3     0.900000E-01   1.00800           0
     32162 LPSA29   35       ARHM     H63      HCA3     0.900000E-01   1.00800           0
     32163 LPSA29   36       BMANNA   C1       CC3162   0.290000       12.0110           0
     32164 LPSA29   36       BMANNA   H1       HCA1     0.900000E-01   1.00800           0
     32165 LPSA29   36       BMANNA   C5       CC3163   0.110000       12.0110           0
     32166 LPSA29   36       BMANNA   H5       HCA1     0.900000E-01   1.00800           0
     32167 LPSA29   36       BMANNA   O5       OC3C61  -0.400000       15.9994           0
     32168 LPSA29   36       BMANNA   C2       CC3161   0.700000E-01   12.0110           0
     32169 LPSA29   36       BMANNA   H2       HCA1     0.900000E-01   1.00800           0
     32170 LPSA29   36       BMANNA   N        NC2D1   -0.470000       14.0070           0
     32171 LPSA29   36       BMANNA   HN       HCP1     0.310000       1.00800           0
     32172 LPSA29   36       BMANNA   C        CC2O1    0.510000       12.0110           0
     32173 LPSA29   36       BMANNA   O        OC2D1   -0.510000       15.9994           0
     32174 LPSA29   36       BMANNA   CT       CC331   -0.270000       12.0110           0
     32175 LPSA29   36       BMANNA   HT1      HCA3     0.900000E-01   1.00800           0
     32176 LPSA29   36       BMANNA   HT2      HCA3     0.900000E-01   1.00800           0
     32177 LPSA29   36       BMANNA   HT3      HCA3     0.900000E-01   1.00800           0
     32178 LPSA29   36       BMANNA   C3       CC3161   0.140000       12.0110           0
     32179 LPSA29   36       BMANNA   H3       HCA1     0.900000E-01   1.00800           0
     32180 LPSA29   36       BMANNA   O3       OC311   -0.650000       15.9994           0
     32181 LPSA29   36       BMANNA   HO3      HCP1     0.420000       1.00800           0
     32182 LPSA29   36       BMANNA   C4       CC3161   0.140000       12.0110           0
     32183 LPSA29   36       BMANNA   H4       HCA1     0.900000E-01   1.00800           0
     32184 LPSA29   36       BMANNA   O4       OC311   -0.650000       15.9994           0
     32185 LPSA29   36       BMANNA   HO4      HCP1     0.420000       1.00800           0
     32186 LPSA29   36       BMANNA   C6       CC321    0.500000E-01   12.0110           0
     32187 LPSA29   36       BMANNA   H61      HCA2     0.900000E-01   1.00800           0
     32188 LPSA29   36       BMANNA   H62      HCA2     0.900000E-01   1.00800           0
     32189 LPSA29   36       BMANNA   O6       OC311   -0.650000       15.9994           0
     32190 LPSA29   36       BMANNA   HO6      HCP1     0.420000       1.00800           0
     32191 LPSA30   1        ECLIPA   HB6S     HCA2     0.900000E-01   1.00800           0
     32192 LPSA30   1        ECLIPA   OB6      OC301   -0.360000       15.9994           0
     32193 LPSA30   1        ECLIPA   CB6      CC321     0.00000       12.0110           0
     32194 LPSA30   1        ECLIPA   HB6R     HCA2     0.900000E-01   1.00800           0
     32195 LPSA30   1        ECLIPA   CB5      CC3163   0.110000       12.0110           0
     32196 LPSA30   1        ECLIPA   OB5      OC3C61  -0.400000       15.9994           0
     32197 LPSA30   1        ECLIPA   HB5      HCA1     0.900000E-01   1.00800           0
     32198 LPSA30   1        ECLIPA   CB1      CC3162   0.290000       12.0110           0
     32199 LPSA30   1        ECLIPA   HB1      HCA1     0.900000E-01   1.00800           0
     32200 LPSA30   1        ECLIPA   OA6      OC301   -0.360000       15.9994           0
     32201 LPSA30   1        ECLIPA   CA6      CC321     0.00000       12.0110           0
     32202 LPSA30   1        ECLIPA   HA6R     HCA2     0.900000E-01   1.00800           0
     32203 LPSA30   1        ECLIPA   HA6S     HCA2     0.900000E-01   1.00800           0
     32204 LPSA30   1        ECLIPA   CB4      CC3161  -0.900000E-01   12.0110           0
     32205 LPSA30   1        ECLIPA   HB4      HCA1     0.900000E-01   1.00800           0
     32206 LPSA30   1        ECLIPA   OB4      OC30P   -0.400000       15.9994           0
     32207 LPSA30   1        ECLIPA   PB       PC        1.10000       30.9740           0
     32208 LPSA30   1        ECLIPA   OPB4     OC2DP   -0.900000       15.9994           0
     32209 LPSA30   1        ECLIPA   OPB3     OC2DP   -0.900000       15.9994           0
     32210 LPSA30   1        ECLIPA   OPB2     OC2DP   -0.900000       15.9994           0
     32211 LPSA30   1        ECLIPA   CB3      CC3161   0.170000       12.0110           0
     32212 LPSA30   1        ECLIPA   OB3      OC301   -0.490000       15.9994           0
     32213 LPSA30   1        ECLIPA   HB3      HCA1     0.900000E-01   1.00800           0
     32214 LPSA30   1        ECLIPA   C71      CL       0.900000       12.0110           0
     32215 LPSA30   1        ECLIPA   O71      OBL     -0.630000       15.9994           0
     32216 LPSA30   1        ECLIPA   C72      CTL2    -0.220000       12.0110           0
     32217 LPSA30   1        ECLIPA   H72R     HAL2     0.900000E-01   1.00800           0
     32218 LPSA30   1        ECLIPA   H72S     HAL2     0.900000E-01   1.00800           0
     32219 LPSA30   1        ECLIPA   CB2      CC3161   0.700000E-01   12.0110           0
     32220 LPSA30   1        ECLIPA   HB2      HCA1     0.900000E-01   1.00800           0
     32221 LPSA30   1        ECLIPA   NB2      NC2D1   -0.470000       14.0070           0
     32222 LPSA30   1        ECLIPA   HNB2     HCP1     0.310000       1.00800           0
     32223 LPSA30   1        ECLIPA   CA4      CC3161   0.140000       12.0110           0
     32224 LPSA30   1        ECLIPA   HA4      HCA1     0.900000E-01   1.00800           0
     32225 LPSA30   1        ECLIPA   OA4      OC311   -0.650000       15.9994           0
     32226 LPSA30   1        ECLIPA   HOA4     HCP1     0.420000       1.00800           0
     32227 LPSA30   1        ECLIPA   CA5      CC3163   0.110000       12.0110           0
     32228 LPSA30   1        ECLIPA   HA5      HCA1     0.900000E-01   1.00800           0
     32229 LPSA30   1        ECLIPA   OA5      OC3C61  -0.400000       15.9994           0
     32230 LPSA30   1        ECLIPA   CA1      CC3162   0.110000       12.0110           0
     32231 LPSA30   1        ECLIPA   HA1      HCA1     0.900000E-01   1.00800           0
     32232 LPSA30   1        ECLIPA   OA1      OC30P   -0.400000       15.9994           0
     32233 LPSA30   1        ECLIPA   OPA2     OC2DP   -0.900000       15.9994           0
     32234 LPSA30   1        ECLIPA   OPA3     OC2DP   -0.900000       15.9994           0
     32235 LPSA30   1        ECLIPA   OPA4     OC2DP   -0.900000       15.9994           0
     32236 LPSA30   1        ECLIPA   PA       PC        1.10000       30.9740           0
     32237 LPSA30   1        ECLIPA   CA3      CC3161   0.170000       12.0110           0
     32238 LPSA30   1        ECLIPA   HA3      HCA1     0.900000E-01   1.00800           0
     32239 LPSA30   1        ECLIPA   OA3      OC301   -0.490000       15.9994           0
     32240 LPSA30   1        ECLIPA   C31      CL       0.900000       12.0110           0
     32241 LPSA30   1        ECLIPA   O31      OBL     -0.630000       15.9994           0
     32242 LPSA30   1        ECLIPA   C32      CTL2    -0.220000       12.0110           0
     32243 LPSA30   1        ECLIPA   H32R     HAL2     0.900000E-01   1.00800           0
     32244 LPSA30   1        ECLIPA   H32S     HAL2     0.900000E-01   1.00800           0
     32245 LPSA30   1        ECLIPA   CA2      CC3161   0.700000E-01   12.0110           0
     32246 LPSA30   1        ECLIPA   HA2      HCA1     0.900000E-01   1.00800           0
     32247 LPSA30   1        ECLIPA   NA2      NC2D1   -0.470000       14.0070           0
     32248 LPSA30   1        ECLIPA   HNA2     HCP1     0.310000       1.00800           0
     32249 LPSA30   1        ECLIPA   C73      CTL1     0.170000       12.0110           0
     32250 LPSA30   1        ECLIPA   H73R     HAL1     0.900000E-01   1.00800           0
     32251 LPSA30   1        ECLIPA   O73      OSL     -0.490000       15.9994           0
     32252 LPSA30   1        ECLIPA   C81      CL       0.900000       12.0110           0
     32253 LPSA30   1        ECLIPA   O81      OBL     -0.630000       15.9994           0
     32254 LPSA30   1        ECLIPA   C82      CTL2    -0.220000       12.0110           0
     32255 LPSA30   1        ECLIPA   H82R     HAL2     0.900000E-01   1.00800           0
     32256 LPSA30   1        ECLIPA   H82S     HAL2     0.900000E-01   1.00800           0
     32257 LPSA30   1        ECLIPA   C83      CTL2    -0.180000       12.0110           0
     32258 LPSA30   1        ECLIPA   H83R     HAL2     0.900000E-01   1.00800           0
     32259 LPSA30   1        ECLIPA   H83S     HAL2     0.900000E-01   1.00800           0
     32260 LPSA30   1        ECLIPA   C84      CTL2    -0.180000       12.0110           0
     32261 LPSA30   1        ECLIPA   H84R     HAL2     0.900000E-01   1.00800           0
     32262 LPSA30   1        ECLIPA   H84S     HAL2     0.900000E-01   1.00800           0
     32263 LPSA30   1        ECLIPA   C85      CTL2    -0.180000       12.0110           0
     32264 LPSA30   1        ECLIPA   H85R     HAL2     0.900000E-01   1.00800           0
     32265 LPSA30   1        ECLIPA   H85S     HAL2     0.900000E-01   1.00800           0
     32266 LPSA30   1        ECLIPA   C86      CTL2    -0.180000       12.0110           0
     32267 LPSA30   1        ECLIPA   H86R     HAL2     0.900000E-01   1.00800           0
     32268 LPSA30   1        ECLIPA   H86S     HAL2     0.900000E-01   1.00800           0
     32269 LPSA30   1        ECLIPA   C87      CTL2    -0.180000       12.0110           0
     32270 LPSA30   1        ECLIPA   H87R     HAL2     0.900000E-01   1.00800           0
     32271 LPSA30   1        ECLIPA   H87S     HAL2     0.900000E-01   1.00800           0
     32272 LPSA30   1        ECLIPA   C88      CTL2    -0.180000       12.0110           0
     32273 LPSA30   1        ECLIPA   H88R     HAL2     0.900000E-01   1.00800           0
     32274 LPSA30   1        ECLIPA   H88S     HAL2     0.900000E-01   1.00800           0
     32275 LPSA30   1        ECLIPA   C89      CTL2    -0.180000       12.0110           0
     32276 LPSA30   1        ECLIPA   H89R     HAL2     0.900000E-01   1.00800           0
     32277 LPSA30   1        ECLIPA   H89S     HAL2     0.900000E-01   1.00800           0
     32278 LPSA30   1        ECLIPA   C810     CTL2    -0.180000       12.0110           0
     32279 LPSA30   1        ECLIPA   H810R    HAL2     0.900000E-01   1.00800           0
     32280 LPSA30   1        ECLIPA   H810S    HAL2     0.900000E-01   1.00800           0
     32281 LPSA30   1        ECLIPA   C811     CTL2    -0.180000       12.0110           0
     32282 LPSA30   1        ECLIPA   H811R    HAL2     0.900000E-01   1.00800           0
     32283 LPSA30   1        ECLIPA   H811S    HAL2     0.900000E-01   1.00800           0
     32284 LPSA30   1        ECLIPA   C812     CTL2    -0.180000       12.0110           0
     32285 LPSA30   1        ECLIPA   H812R    HAL2     0.900000E-01   1.00800           0
     32286 LPSA30   1        ECLIPA   H812S    HAL2     0.900000E-01   1.00800           0
     32287 LPSA30   1        ECLIPA   C813     CTL2    -0.180000       12.0110           0
     32288 LPSA30   1        ECLIPA   H813R    HAL2     0.900000E-01   1.00800           0
     32289 LPSA30   1        ECLIPA   H813S    HAL2     0.900000E-01   1.00800           0
     32290 LPSA30   1        ECLIPA   C814     CTL3    -0.270000       12.0110           0
     32291 LPSA30   1        ECLIPA   H814R    HAL3     0.900000E-01   1.00800           0
     32292 LPSA30   1        ECLIPA   H814S    HAL3     0.900000E-01   1.00800           0
     32293 LPSA30   1        ECLIPA   H814T    HAL3     0.900000E-01   1.00800           0
     32294 LPSA30   1        ECLIPA   C74      CTL2    -0.180000       12.0110           0
     32295 LPSA30   1        ECLIPA   H74R     HAL2     0.900000E-01   1.00800           0
     32296 LPSA30   1        ECLIPA   H74S     HAL2     0.900000E-01   1.00800           0
     32297 LPSA30   1        ECLIPA   C75      CTL2    -0.180000       12.0110           0
     32298 LPSA30   1        ECLIPA   H75R     HAL2     0.900000E-01   1.00800           0
     32299 LPSA30   1        ECLIPA   H75S     HAL2     0.900000E-01   1.00800           0
     32300 LPSA30   1        ECLIPA   C76      CTL2    -0.180000       12.0110           0
     32301 LPSA30   1        ECLIPA   H76R     HAL2     0.900000E-01   1.00800           0
     32302 LPSA30   1        ECLIPA   H76S     HAL2     0.900000E-01   1.00800           0
     32303 LPSA30   1        ECLIPA   C77      CTL2    -0.180000       12.0110           0
     32304 LPSA30   1        ECLIPA   H77R     HAL2     0.900000E-01   1.00800           0
     32305 LPSA30   1        ECLIPA   H77S     HAL2     0.900000E-01   1.00800           0
     32306 LPSA30   1        ECLIPA   C78      CTL2    -0.180000       12.0110           0
     32307 LPSA30   1        ECLIPA   H78R     HAL2     0.900000E-01   1.00800           0
     32308 LPSA30   1        ECLIPA   H78S     HAL2     0.900000E-01   1.00800           0
     32309 LPSA30   1        ECLIPA   C79      CTL2    -0.180000       12.0110           0
     32310 LPSA30   1        ECLIPA   H79R     HAL2     0.900000E-01   1.00800           0
     32311 LPSA30   1        ECLIPA   H79S     HAL2     0.900000E-01   1.00800           0
     32312 LPSA30   1        ECLIPA   C710     CTL2    -0.180000       12.0110           0
     32313 LPSA30   1        ECLIPA   H710R    HAL2     0.900000E-01   1.00800           0
     32314 LPSA30   1        ECLIPA   H710S    HAL2     0.900000E-01   1.00800           0
     32315 LPSA30   1        ECLIPA   C711     CTL2    -0.180000       12.0110           0
     32316 LPSA30   1        ECLIPA   H711R    HAL2     0.900000E-01   1.00800           0
     32317 LPSA30   1        ECLIPA   H711S    HAL2     0.900000E-01   1.00800           0
     32318 LPSA30   1        ECLIPA   C712     CTL2    -0.180000       12.0110           0
     32319 LPSA30   1        ECLIPA   H712R    HAL2     0.900000E-01   1.00800           0
     32320 LPSA30   1        ECLIPA   H712S    HAL2     0.900000E-01   1.00800           0
     32321 LPSA30   1        ECLIPA   C713     CTL2    -0.180000       12.0110           0
     32322 LPSA30   1        ECLIPA   H713R    HAL2     0.900000E-01   1.00800           0
     32323 LPSA30   1        ECLIPA   H713S    HAL2     0.900000E-01   1.00800           0
     32324 LPSA30   1        ECLIPA   C714     CTL3    -0.270000       12.0110           0
     32325 LPSA30   1        ECLIPA   H714R    HAL3     0.900000E-01   1.00800           0
     32326 LPSA30   1        ECLIPA   H714S    HAL3     0.900000E-01   1.00800           0
     32327 LPSA30   1        ECLIPA   H714T    HAL3     0.900000E-01   1.00800           0
     32328 LPSA30   1        ECLIPA   C51      CC2O1    0.550000       12.0110           0
     32329 LPSA30   1        ECLIPA   O51      OC2D1   -0.550000       15.9994           0
     32330 LPSA30   1        ECLIPA   C52      CTL2    -0.180000       12.0110           0
     32331 LPSA30   1        ECLIPA   H52R     HAL2     0.900000E-01   1.00800           0
     32332 LPSA30   1        ECLIPA   H52S     HAL2     0.900000E-01   1.00800           0
     32333 LPSA30   1        ECLIPA   C53      CTL1     0.170000       12.0110           0
     32334 LPSA30   1        ECLIPA   H53R     HAL1     0.900000E-01   1.00800           0
     32335 LPSA30   1        ECLIPA   O53      OSL     -0.490000       15.9994           0
     32336 LPSA30   1        ECLIPA   C61      CL       0.900000       12.0110           0
     32337 LPSA30   1        ECLIPA   O61      OBL     -0.630000       15.9994           0
     32338 LPSA30   1        ECLIPA   C62      CTL2    -0.220000       12.0110           0
     32339 LPSA30   1        ECLIPA   H62R     HAL2     0.900000E-01   1.00800           0
     32340 LPSA30   1        ECLIPA   H62S     HAL2     0.900000E-01   1.00800           0
     32341 LPSA30   1        ECLIPA   C63      CTL2    -0.180000       12.0110           0
     32342 LPSA30   1        ECLIPA   H63R     HAL2     0.900000E-01   1.00800           0
     32343 LPSA30   1        ECLIPA   H63S     HAL2     0.900000E-01   1.00800           0
     32344 LPSA30   1        ECLIPA   C64      CTL2    -0.180000       12.0110           0
     32345 LPSA30   1        ECLIPA   H64R     HAL2     0.900000E-01   1.00800           0
     32346 LPSA30   1        ECLIPA   H64S     HAL2     0.900000E-01   1.00800           0
     32347 LPSA30   1        ECLIPA   C65      CTL2    -0.180000       12.0110           0
     32348 LPSA30   1        ECLIPA   H65R     HAL2     0.900000E-01   1.00800           0
     32349 LPSA30   1        ECLIPA   H65S     HAL2     0.900000E-01   1.00800           0
     32350 LPSA30   1        ECLIPA   C66      CTL2    -0.180000       12.0110           0
     32351 LPSA30   1        ECLIPA   H66R     HAL2     0.900000E-01   1.00800           0
     32352 LPSA30   1        ECLIPA   H66S     HAL2     0.900000E-01   1.00800           0
     32353 LPSA30   1        ECLIPA   C67      CTL2    -0.180000       12.0110           0
     32354 LPSA30   1        ECLIPA   H67R     HAL2     0.900000E-01   1.00800           0
     32355 LPSA30   1        ECLIPA   H67S     HAL2     0.900000E-01   1.00800           0
     32356 LPSA30   1        ECLIPA   C68      CTL2    -0.180000       12.0110           0
     32357 LPSA30   1        ECLIPA   H68R     HAL2     0.900000E-01   1.00800           0
     32358 LPSA30   1        ECLIPA   H68S     HAL2     0.900000E-01   1.00800           0
     32359 LPSA30   1        ECLIPA   C69      CTL2    -0.180000       12.0110           0
     32360 LPSA30   1        ECLIPA   H69R     HAL2     0.900000E-01   1.00800           0
     32361 LPSA30   1        ECLIPA   H69S     HAL2     0.900000E-01   1.00800           0
     32362 LPSA30   1        ECLIPA   C610     CTL2    -0.180000       12.0110           0
     32363 LPSA30   1        ECLIPA   H610R    HAL2     0.900000E-01   1.00800           0
     32364 LPSA30   1        ECLIPA   H610S    HAL2     0.900000E-01   1.00800           0
     32365 LPSA30   1        ECLIPA   C611     CTL2    -0.180000       12.0110           0
     32366 LPSA30   1        ECLIPA   H611R    HAL2     0.900000E-01   1.00800           0
     32367 LPSA30   1        ECLIPA   H611S    HAL2     0.900000E-01   1.00800           0
     32368 LPSA30   1        ECLIPA   C612     CTL3    -0.270000       12.0110           0
     32369 LPSA30   1        ECLIPA   H612R    HAL3     0.900000E-01   1.00800           0
     32370 LPSA30   1        ECLIPA   H612S    HAL3     0.900000E-01   1.00800           0
     32371 LPSA30   1        ECLIPA   H612T    HAL3     0.900000E-01   1.00800           0
     32372 LPSA30   1        ECLIPA   C54      CTL2    -0.180000       12.0110           0
     32373 LPSA30   1        ECLIPA   H54R     HAL2     0.900000E-01   1.00800           0
     32374 LPSA30   1        ECLIPA   H54S     HAL2     0.900000E-01   1.00800           0
     32375 LPSA30   1        ECLIPA   C55      CTL2    -0.180000       12.0110           0
     32376 LPSA30   1        ECLIPA   H55R     HAL2     0.900000E-01   1.00800           0
     32377 LPSA30   1        ECLIPA   H55S     HAL2     0.900000E-01   1.00800           0
     32378 LPSA30   1        ECLIPA   C56      CTL2    -0.180000       12.0110           0
     32379 LPSA30   1        ECLIPA   H56R     HAL2     0.900000E-01   1.00800           0
     32380 LPSA30   1        ECLIPA   H56S     HAL2     0.900000E-01   1.00800           0
     32381 LPSA30   1        ECLIPA   C57      CTL2    -0.180000       12.0110           0
     32382 LPSA30   1        ECLIPA   H57R     HAL2     0.900000E-01   1.00800           0
     32383 LPSA30   1        ECLIPA   H57S     HAL2     0.900000E-01   1.00800           0
     32384 LPSA30   1        ECLIPA   C58      CTL2    -0.180000       12.0110           0
     32385 LPSA30   1        ECLIPA   H58R     HAL2     0.900000E-01   1.00800           0
     32386 LPSA30   1        ECLIPA   H58S     HAL2     0.900000E-01   1.00800           0
     32387 LPSA30   1        ECLIPA   C59      CTL2    -0.180000       12.0110           0
     32388 LPSA30   1        ECLIPA   H59R     HAL2     0.900000E-01   1.00800           0
     32389 LPSA30   1        ECLIPA   H59S     HAL2     0.900000E-01   1.00800           0
     32390 LPSA30   1        ECLIPA   C510     CTL2    -0.180000       12.0110           0
     32391 LPSA30   1        ECLIPA   H510R    HAL2     0.900000E-01   1.00800           0
     32392 LPSA30   1        ECLIPA   H510S    HAL2     0.900000E-01   1.00800           0
     32393 LPSA30   1        ECLIPA   C511     CTL2    -0.180000       12.0110           0
     32394 LPSA30   1        ECLIPA   H511R    HAL2     0.900000E-01   1.00800           0
     32395 LPSA30   1        ECLIPA   H511S    HAL2     0.900000E-01   1.00800           0
     32396 LPSA30   1        ECLIPA   C512     CTL2    -0.180000       12.0110           0
     32397 LPSA30   1        ECLIPA   H512R    HAL2     0.900000E-01   1.00800           0
     32398 LPSA30   1        ECLIPA   H512S    HAL2     0.900000E-01   1.00800           0
     32399 LPSA30   1        ECLIPA   C513     CTL2    -0.180000       12.0110           0
     32400 LPSA30   1        ECLIPA   H513R    HAL2     0.900000E-01   1.00800           0
     32401 LPSA30   1        ECLIPA   H513S    HAL2     0.900000E-01   1.00800           0
     32402 LPSA30   1        ECLIPA   C514     CTL3    -0.270000       12.0110           0
     32403 LPSA30   1        ECLIPA   H514R    HAL3     0.900000E-01   1.00800           0
     32404 LPSA30   1        ECLIPA   H514S    HAL3     0.900000E-01   1.00800           0
     32405 LPSA30   1        ECLIPA   H514T    HAL3     0.900000E-01   1.00800           0
     32406 LPSA30   1        ECLIPA   C33      CTL1     0.140000       12.0110           0
     32407 LPSA30   1        ECLIPA   H33R     HAL1     0.900000E-01   1.00800           0
     32408 LPSA30   1        ECLIPA   O33      OH1     -0.660000       15.9994           0
     32409 LPSA30   1        ECLIPA   HO33     H        0.430000       1.00800           0
     32410 LPSA30   1        ECLIPA   C34      CTL2    -0.180000       12.0110           0
     32411 LPSA30   1        ECLIPA   H34R     HAL2     0.900000E-01   1.00800           0
     32412 LPSA30   1        ECLIPA   H34S     HAL2     0.900000E-01   1.00800           0
     32413 LPSA30   1        ECLIPA   C35      CTL2    -0.180000       12.0110           0
     32414 LPSA30   1        ECLIPA   H35R     HAL2     0.900000E-01   1.00800           0
     32415 LPSA30   1        ECLIPA   H35S     HAL2     0.900000E-01   1.00800           0
     32416 LPSA30   1        ECLIPA   C36      CTL2    -0.180000       12.0110           0
     32417 LPSA30   1        ECLIPA   H36R     HAL2     0.900000E-01   1.00800           0
     32418 LPSA30   1        ECLIPA   H36S     HAL2     0.900000E-01   1.00800           0
     32419 LPSA30   1        ECLIPA   C37      CTL2    -0.180000       12.0110           0
     32420 LPSA30   1        ECLIPA   H37R     HAL2     0.900000E-01   1.00800           0
     32421 LPSA30   1        ECLIPA   H37S     HAL2     0.900000E-01   1.00800           0
     32422 LPSA30   1        ECLIPA   C38      CTL2    -0.180000       12.0110           0
     32423 LPSA30   1        ECLIPA   H38R     HAL2     0.900000E-01   1.00800           0
     32424 LPSA30   1        ECLIPA   H38S     HAL2     0.900000E-01   1.00800           0
     32425 LPSA30   1        ECLIPA   C39      CTL2    -0.180000       12.0110           0
     32426 LPSA30   1        ECLIPA   H39R     HAL2     0.900000E-01   1.00800           0
     32427 LPSA30   1        ECLIPA   H39S     HAL2     0.900000E-01   1.00800           0
     32428 LPSA30   1        ECLIPA   C310     CTL2    -0.180000       12.0110           0
     32429 LPSA30   1        ECLIPA   H310R    HAL2     0.900000E-01   1.00800           0
     32430 LPSA30   1        ECLIPA   H310S    HAL2     0.900000E-01   1.00800           0
     32431 LPSA30   1        ECLIPA   C311     CTL2    -0.180000       12.0110           0
     32432 LPSA30   1        ECLIPA   H311R    HAL2     0.900000E-01   1.00800           0
     32433 LPSA30   1        ECLIPA   H311S    HAL2     0.900000E-01   1.00800           0
     32434 LPSA30   1        ECLIPA   C312     CTL2    -0.180000       12.0110           0
     32435 LPSA30   1        ECLIPA   H312R    HAL2     0.900000E-01   1.00800           0
     32436 LPSA30   1        ECLIPA   H312S    HAL2     0.900000E-01   1.00800           0
     32437 LPSA30   1        ECLIPA   C313     CTL2    -0.180000       12.0110           0
     32438 LPSA30   1        ECLIPA   H313R    HAL2     0.900000E-01   1.00800           0
     32439 LPSA30   1        ECLIPA   H313S    HAL2     0.900000E-01   1.00800           0
     32440 LPSA30   1        ECLIPA   C314     CTL3    -0.270000       12.0110           0
     32441 LPSA30   1        ECLIPA   H314R    HAL3     0.900000E-01   1.00800           0
     32442 LPSA30   1        ECLIPA   H314S    HAL3     0.900000E-01   1.00800           0
     32443 LPSA30   1        ECLIPA   H314T    HAL3     0.900000E-01   1.00800           0
     32444 LPSA30   1        ECLIPA   C11      CC2O1    0.550000       12.0110           0
     32445 LPSA30   1        ECLIPA   O11      OC2D1   -0.550000       15.9994           0
     32446 LPSA30   1        ECLIPA   C12      CTL2    -0.180000       12.0110           0
     32447 LPSA30   1        ECLIPA   H12R     HAL2     0.900000E-01   1.00800           0
     32448 LPSA30   1        ECLIPA   H12S     HAL2     0.900000E-01   1.00800           0
     32449 LPSA30   1        ECLIPA   C13      CTL1     0.140000       12.0110           0
     32450 LPSA30   1        ECLIPA   H13R     HAL1     0.900000E-01   1.00800           0
     32451 LPSA30   1        ECLIPA   O13      OH1     -0.660000       15.9994           0
     32452 LPSA30   1        ECLIPA   HO13     H        0.430000       1.00800           0
     32453 LPSA30   1        ECLIPA   C14      CTL2    -0.180000       12.0110           0
     32454 LPSA30   1        ECLIPA   H14R     HAL2     0.900000E-01   1.00800           0
     32455 LPSA30   1        ECLIPA   H14S     HAL2     0.900000E-01   1.00800           0
     32456 LPSA30   1        ECLIPA   C15      CTL2    -0.180000       12.0110           0
     32457 LPSA30   1        ECLIPA   H15R     HAL2     0.900000E-01   1.00800           0
     32458 LPSA30   1        ECLIPA   H15S     HAL2     0.900000E-01   1.00800           0
     32459 LPSA30   1        ECLIPA   C16      CTL2    -0.180000       12.0110           0
     32460 LPSA30   1        ECLIPA   H16R     HAL2     0.900000E-01   1.00800           0
     32461 LPSA30   1        ECLIPA   H16S     HAL2     0.900000E-01   1.00800           0
     32462 LPSA30   1        ECLIPA   C17      CTL2    -0.180000       12.0110           0
     32463 LPSA30   1        ECLIPA   H17R     HAL2     0.900000E-01   1.00800           0
     32464 LPSA30   1        ECLIPA   H17S     HAL2     0.900000E-01   1.00800           0
     32465 LPSA30   1        ECLIPA   C18      CTL2    -0.180000       12.0110           0
     32466 LPSA30   1        ECLIPA   H18R     HAL2     0.900000E-01   1.00800           0
     32467 LPSA30   1        ECLIPA   H18S     HAL2     0.900000E-01   1.00800           0
     32468 LPSA30   1        ECLIPA   C19      CTL2    -0.180000       12.0110           0
     32469 LPSA30   1        ECLIPA   H19R     HAL2     0.900000E-01   1.00800           0
     32470 LPSA30   1        ECLIPA   H19S     HAL2     0.900000E-01   1.00800           0
     32471 LPSA30   1        ECLIPA   C110     CTL2    -0.180000       12.0110           0
     32472 LPSA30   1        ECLIPA   H110R    HAL2     0.900000E-01   1.00800           0
     32473 LPSA30   1        ECLIPA   H110S    HAL2     0.900000E-01   1.00800           0
     32474 LPSA30   1        ECLIPA   C111     CTL2    -0.180000       12.0110           0
     32475 LPSA30   1        ECLIPA   H111R    HAL2     0.900000E-01   1.00800           0
     32476 LPSA30   1        ECLIPA   H111S    HAL2     0.900000E-01   1.00800           0
     32477 LPSA30   1        ECLIPA   C112     CTL2    -0.180000       12.0110           0
     32478 LPSA30   1        ECLIPA   H112R    HAL2     0.900000E-01   1.00800           0
     32479 LPSA30   1        ECLIPA   H112S    HAL2     0.900000E-01   1.00800           0
     32480 LPSA30   1        ECLIPA   C113     CTL2    -0.180000       12.0110           0
     32481 LPSA30   1        ECLIPA   H113R    HAL2     0.900000E-01   1.00800           0
     32482 LPSA30   1        ECLIPA   H113S    HAL2     0.900000E-01   1.00800           0
     32483 LPSA30   1        ECLIPA   C114     CTL3    -0.270000       12.0110           0
     32484 LPSA30   1        ECLIPA   H114R    HAL3     0.900000E-01   1.00800           0
     32485 LPSA30   1        ECLIPA   H114S    HAL3     0.900000E-01   1.00800           0
     32486 LPSA30   1        ECLIPA   H114T    HAL3     0.900000E-01   1.00800           0
     32487 LPSA30   2        AKDO     C1       CC2O2    0.300000       12.0110           0
     32488 LPSA30   2        AKDO     O11      OC2D2   -0.600000       15.9994           0
     32489 LPSA30   2        AKDO     O12      OC2D2   -0.600000       15.9994           0
     32490 LPSA30   2        AKDO     C2       CC3062   0.280000       12.0110           0
     32491 LPSA30   2        AKDO     C6       CC3163   0.110000       12.0110           0
     32492 LPSA30   2        AKDO     H6       HCA1     0.900000E-01   1.00800           0
     32493 LPSA30   2        AKDO     O6       OC3C61  -0.400000       15.9994           0
     32494 LPSA30   2        AKDO     C3       CC3261  -0.180000       12.0110           0
     32495 LPSA30   2        AKDO     H31      HCA2     0.900000E-01   1.00800           0
     32496 LPSA30   2        AKDO     H32      HCA2     0.900000E-01   1.00800           0
     32497 LPSA30   2        AKDO     C4       CC3161   0.900000E-01   12.0110           0
     32498 LPSA30   2        AKDO     H4       HCA1     0.900000E-01   1.00800           0
     32499 LPSA30   2        AKDO     O4       OC301   -0.360000       15.9994           0
     32500 LPSA30   2        AKDO     C5       CC3161   0.900000E-01   12.0110           0
     32501 LPSA30   2        AKDO     H5       HCA1     0.900000E-01   1.00800           0
     32502 LPSA30   2        AKDO     O5       OC301   -0.360000       15.9994           0
     32503 LPSA30   2        AKDO     C7       CC312    0.140000       12.0110           0
     32504 LPSA30   2        AKDO     H7       HCA1     0.900000E-01   1.00800           0
     32505 LPSA30   2        AKDO     O7       OC311   -0.650000       15.9994           0
     32506 LPSA30   2        AKDO     HO7      HCP1     0.420000       1.00800           0
     32507 LPSA30   2        AKDO     C8       CC322    0.500000E-01   12.0110           0
     32508 LPSA30   2        AKDO     H81      HCA2     0.900000E-01   1.00800           0
     32509 LPSA30   2        AKDO     H82      HCA2     0.900000E-01   1.00800           0
     32510 LPSA30   2        AKDO     O8       OC311   -0.650000       15.9994           0
     32511 LPSA30   2        AKDO     HO8      HCP1     0.420000       1.00800           0
     32512 LPSA30   3        AKDO     C1       CC2O2    0.300000       12.0110           0
     32513 LPSA30   3        AKDO     O11      OC2D2   -0.600000       15.9994           0
     32514 LPSA30   3        AKDO     O12      OC2D2   -0.600000       15.9994           0
     32515 LPSA30   3        AKDO     C2       CC3062   0.280000       12.0110           0
     32516 LPSA30   3        AKDO     C6       CC3163   0.110000       12.0110           0
     32517 LPSA30   3        AKDO     H6       HCA1     0.900000E-01   1.00800           0
     32518 LPSA30   3        AKDO     O6       OC3C61  -0.400000       15.9994           0
     32519 LPSA30   3        AKDO     C3       CC3261  -0.180000       12.0110           0
     32520 LPSA30   3        AKDO     H31      HCA2     0.900000E-01   1.00800           0
     32521 LPSA30   3        AKDO     H32      HCA2     0.900000E-01   1.00800           0
     32522 LPSA30   3        AKDO     C4       CC3161   0.140000       12.0110           0
     32523 LPSA30   3        AKDO     H4       HCA1     0.900000E-01   1.00800           0
     32524 LPSA30   3        AKDO     O4       OC311   -0.650000       15.9994           0
     32525 LPSA30   3        AKDO     HO4      HCP1     0.420000       1.00800           0
     32526 LPSA30   3        AKDO     C5       CC3161   0.140000       12.0110           0
     32527 LPSA30   3        AKDO     H5       HCA1     0.900000E-01   1.00800           0
     32528 LPSA30   3        AKDO     O5       OC311   -0.650000       15.9994           0
     32529 LPSA30   3        AKDO     HO5      HCP1     0.420000       1.00800           0
     32530 LPSA30   3        AKDO     C7       CC312    0.140000       12.0110           0
     32531 LPSA30   3        AKDO     H7       HCA1     0.900000E-01   1.00800           0
     32532 LPSA30   3        AKDO     O7       OC311   -0.650000       15.9994           0
     32533 LPSA30   3        AKDO     HO7      HCP1     0.420000       1.00800           0
     32534 LPSA30   3        AKDO     C8       CC322    0.500000E-01   12.0110           0
     32535 LPSA30   3        AKDO     H81      HCA2     0.900000E-01   1.00800           0
     32536 LPSA30   3        AKDO     H82      HCA2     0.900000E-01   1.00800           0
     32537 LPSA30   3        AKDO     O8       OC311   -0.650000       15.9994           0
     32538 LPSA30   3        AKDO     HO8      HCP1     0.420000       1.00800           0
     32539 LPSA30   4        AHEP     C1       CC3162   0.290000       12.0110           0
     32540 LPSA30   4        AHEP     H1       HCA1     0.900000E-01   1.00800           0
     32541 LPSA30   4        AHEP     C5       CC3163   0.110000       12.0110           0
     32542 LPSA30   4        AHEP     H5       HCA1     0.900000E-01   1.00800           0
     32543 LPSA30   4        AHEP     O5       OC3C61  -0.400000       15.9994           0
     32544 LPSA30   4        AHEP     C2       CC3161   0.140000       12.0110           0
     32545 LPSA30   4        AHEP     H2       HCA1     0.900000E-01   1.00800           0
     32546 LPSA30   4        AHEP     O2       OC311   -0.650000       15.9994           0
     32547 LPSA30   4        AHEP     HO2      HCP1     0.420000       1.00800           0
     32548 LPSA30   4        AHEP     C3       CC3161   0.900000E-01   12.0110           0
     32549 LPSA30   4        AHEP     H3       HCA1     0.900000E-01   1.00800           0
     32550 LPSA30   4        AHEP     O3       OC301   -0.360000       15.9994           0
     32551 LPSA30   4        AHEP     C4       CC3161  -0.900000E-01   12.0110           0
     32552 LPSA30   4        AHEP     H4       HCA1     0.900000E-01   1.00800           0
     32553 LPSA30   4        AHEP     O4       OC30P   -0.400000       15.9994           0
     32554 LPSA30   4        AHEP     P4       PC        1.10000       30.9740           0
     32555 LPSA30   4        AHEP     OP42     OC2DP   -0.900000       15.9994           0
     32556 LPSA30   4        AHEP     OP43     OC2DP   -0.900000       15.9994           0
     32557 LPSA30   4        AHEP     OP44     OC2DP   -0.900000       15.9994           0
     32558 LPSA30   4        AHEP     C6       CC312    0.140000       12.0110           0
     32559 LPSA30   4        AHEP     H6       HCA1     0.900000E-01   1.00800           0
     32560 LPSA30   4        AHEP     O6       OC311   -0.650000       15.9994           0
     32561 LPSA30   4        AHEP     HO6      HCP1     0.420000       1.00800           0
     32562 LPSA30   4        AHEP     C7       CC322    0.500000E-01   12.0110           0
     32563 LPSA30   4        AHEP     H71      HCA2     0.900000E-01   1.00800           0
     32564 LPSA30   4        AHEP     H72      HCA2     0.900000E-01   1.00800           0
     32565 LPSA30   4        AHEP     O7       OC311   -0.650000       15.9994           0
     32566 LPSA30   4        AHEP     HO7      HCP1     0.420000       1.00800           0
     32567 LPSA30   5        AHEP     C1       CC3162   0.290000       12.0110           0
     32568 LPSA30   5        AHEP     H1       HCA1     0.900000E-01   1.00800           0
     32569 LPSA30   5        AHEP     C5       CC3163   0.110000       12.0110           0
     32570 LPSA30   5        AHEP     H5       HCA1     0.900000E-01   1.00800           0
     32571 LPSA30   5        AHEP     O5       OC3C61  -0.400000       15.9994           0
     32572 LPSA30   5        AHEP     C2       CC3161   0.140000       12.0110           0
     32573 LPSA30   5        AHEP     H2       HCA1     0.900000E-01   1.00800           0
     32574 LPSA30   5        AHEP     O2       OC311   -0.650000       15.9994           0
     32575 LPSA30   5        AHEP     HO2      HCP1     0.420000       1.00800           0
     32576 LPSA30   5        AHEP     C3       CC3161   0.900000E-01   12.0110           0
     32577 LPSA30   5        AHEP     H3       HCA1     0.900000E-01   1.00800           0
     32578 LPSA30   5        AHEP     O3       OC301   -0.360000       15.9994           0
     32579 LPSA30   5        AHEP     C4       CC3161  -0.900000E-01   12.0110           0
     32580 LPSA30   5        AHEP     H4       HCA1     0.900000E-01   1.00800           0
     32581 LPSA30   5        AHEP     O4       OC30P   -0.400000       15.9994           0
     32582 LPSA30   5        AHEP     P4       PC        1.10000       30.9740           0
     32583 LPSA30   5        AHEP     OP42     OC2DP   -0.900000       15.9994           0
     32584 LPSA30   5        AHEP     OP43     OC2DP   -0.900000       15.9994           0
     32585 LPSA30   5        AHEP     OP44     OC2DP   -0.900000       15.9994           0
     32586 LPSA30   5        AHEP     C6       CC312    0.140000       12.0110           0
     32587 LPSA30   5        AHEP     H6       HCA1     0.900000E-01   1.00800           0
     32588 LPSA30   5        AHEP     O6       OC311   -0.650000       15.9994           0
     32589 LPSA30   5        AHEP     HO6      HCP1     0.420000       1.00800           0
     32590 LPSA30   5        AHEP     C7       CC322     0.00000       12.0110           0
     32591 LPSA30   5        AHEP     H71      HCA2     0.900000E-01   1.00800           0
     32592 LPSA30   5        AHEP     H72      HCA2     0.900000E-01   1.00800           0
     32593 LPSA30   5        AHEP     O7       OC301   -0.360000       15.9994           0
     32594 LPSA30   6        AHEP     C1       CC3162   0.290000       12.0110           0
     32595 LPSA30   6        AHEP     H1       HCA1     0.900000E-01   1.00800           0
     32596 LPSA30   6        AHEP     C5       CC3163   0.110000       12.0110           0
     32597 LPSA30   6        AHEP     H5       HCA1     0.900000E-01   1.00800           0
     32598 LPSA30   6        AHEP     O5       OC3C61  -0.400000       15.9994           0
     32599 LPSA30   6        AHEP     C2       CC3161   0.140000       12.0110           0
     32600 LPSA30   6        AHEP     H2       HCA1     0.900000E-01   1.00800           0
     32601 LPSA30   6        AHEP     O2       OC311   -0.650000       15.9994           0
     32602 LPSA30   6        AHEP     HO2      HCP1     0.420000       1.00800           0
     32603 LPSA30   6        AHEP     C3       CC3161   0.140000       12.0110           0
     32604 LPSA30   6        AHEP     H3       HCA1     0.900000E-01   1.00800           0
     32605 LPSA30   6        AHEP     O3       OC311   -0.650000       15.9994           0
     32606 LPSA30   6        AHEP     HO3      HCP1     0.420000       1.00800           0
     32607 LPSA30   6        AHEP     C4       CC3161   0.140000       12.0110           0
     32608 LPSA30   6        AHEP     H4       HCA1     0.900000E-01   1.00800           0
     32609 LPSA30   6        AHEP     O4       OC311   -0.650000       15.9994           0
     32610 LPSA30   6        AHEP     HO4      HCP1     0.420000       1.00800           0
     32611 LPSA30   6        AHEP     C6       CC312    0.140000       12.0110           0
     32612 LPSA30   6        AHEP     H6       HCA1     0.900000E-01   1.00800           0
     32613 LPSA30   6        AHEP     O6       OC311   -0.650000       15.9994           0
     32614 LPSA30   6        AHEP     HO6      HCP1     0.420000       1.00800           0
     32615 LPSA30   6        AHEP     C7       CC322    0.500000E-01   12.0110           0
     32616 LPSA30   6        AHEP     H71      HCA2     0.900000E-01   1.00800           0
     32617 LPSA30   6        AHEP     H72      HCA2     0.900000E-01   1.00800           0
     32618 LPSA30   6        AHEP     O7       OC311   -0.650000       15.9994           0
     32619 LPSA30   6        AHEP     HO7      HCP1     0.420000       1.00800           0
     32620 LPSA30   7        AGLC     C1       CC3162   0.290000       12.0110           0
     32621 LPSA30   7        AGLC     H1       HCA1     0.900000E-01   1.00800           0
     32622 LPSA30   7        AGLC     C5       CC3163   0.110000       12.0110           0
     32623 LPSA30   7        AGLC     H5       HCA1     0.900000E-01   1.00800           0
     32624 LPSA30   7        AGLC     O5       OC3C61  -0.400000       15.9994           0
     32625 LPSA30   7        AGLC     C2       CC3161   0.140000       12.0110           0
     32626 LPSA30   7        AGLC     H2       HCA1     0.900000E-01   1.00800           0
     32627 LPSA30   7        AGLC     O2       OC311   -0.650000       15.9994           0
     32628 LPSA30   7        AGLC     HO2      HCP1     0.420000       1.00800           0
     32629 LPSA30   7        AGLC     C3       CC3161   0.900000E-01   12.0110           0
     32630 LPSA30   7        AGLC     H3       HCA1     0.900000E-01   1.00800           0
     32631 LPSA30   7        AGLC     O3       OC301   -0.360000       15.9994           0
     32632 LPSA30   7        AGLC     C4       CC3161   0.140000       12.0110           0
     32633 LPSA30   7        AGLC     H4       HCA1     0.900000E-01   1.00800           0
     32634 LPSA30   7        AGLC     O4       OC311   -0.650000       15.9994           0
     32635 LPSA30   7        AGLC     HO4      HCP1     0.420000       1.00800           0
     32636 LPSA30   7        AGLC     C6       CC321    0.500000E-01   12.0110           0
     32637 LPSA30   7        AGLC     H61      HCA2     0.900000E-01   1.00800           0
     32638 LPSA30   7        AGLC     H62      HCA2     0.900000E-01   1.00800           0
     32639 LPSA30   7        AGLC     O6       OC311   -0.650000       15.9994           0
     32640 LPSA30   7        AGLC     HO6      HCP1     0.420000       1.00800           0
     32641 LPSA30   8        AGLC     C1       CC3162   0.290000       12.0110           0
     32642 LPSA30   8        AGLC     H1       HCA1     0.900000E-01   1.00800           0
     32643 LPSA30   8        AGLC     C5       CC3163   0.110000       12.0110           0
     32644 LPSA30   8        AGLC     H5       HCA1     0.900000E-01   1.00800           0
     32645 LPSA30   8        AGLC     O5       OC3C61  -0.400000       15.9994           0
     32646 LPSA30   8        AGLC     C2       CC3161   0.900000E-01   12.0110           0
     32647 LPSA30   8        AGLC     H2       HCA1     0.900000E-01   1.00800           0
     32648 LPSA30   8        AGLC     O2       OC301   -0.360000       15.9994           0
     32649 LPSA30   8        AGLC     C3       CC3161   0.900000E-01   12.0110           0
     32650 LPSA30   8        AGLC     H3       HCA1     0.900000E-01   1.00800           0
     32651 LPSA30   8        AGLC     O3       OC301   -0.360000       15.9994           0
     32652 LPSA30   8        AGLC     C4       CC3161   0.140000       12.0110           0
     32653 LPSA30   8        AGLC     H4       HCA1     0.900000E-01   1.00800           0
     32654 LPSA30   8        AGLC     O4       OC311   -0.650000       15.9994           0
     32655 LPSA30   8        AGLC     HO4      HCP1     0.420000       1.00800           0
     32656 LPSA30   8        AGLC     C6       CC321    0.500000E-01   12.0110           0
     32657 LPSA30   8        AGLC     H61      HCA2     0.900000E-01   1.00800           0
     32658 LPSA30   8        AGLC     H62      HCA2     0.900000E-01   1.00800           0
     32659 LPSA30   8        AGLC     O6       OC311   -0.650000       15.9994           0
     32660 LPSA30   8        AGLC     HO6      HCP1     0.420000       1.00800           0
     32661 LPSA30   9        AGAL     C1       CC3162   0.290000       12.0110           0
     32662 LPSA30   9        AGAL     H1       HCA1     0.900000E-01   1.00800           0
     32663 LPSA30   9        AGAL     C5       CC3163   0.110000       12.0110           0
     32664 LPSA30   9        AGAL     H5       HCA1     0.900000E-01   1.00800           0
     32665 LPSA30   9        AGAL     O5       OC3C61  -0.400000       15.9994           0
     32666 LPSA30   9        AGAL     C2       CC3161   0.900000E-01   12.0110           0
     32667 LPSA30   9        AGAL     H2       HCA1     0.900000E-01   1.00800           0
     32668 LPSA30   9        AGAL     O2       OC301   -0.360000       15.9994           0
     32669 LPSA30   9        AGAL     C3       CC3161   0.140000       12.0110           0
     32670 LPSA30   9        AGAL     H3       HCA1     0.900000E-01   1.00800           0
     32671 LPSA30   9        AGAL     O3       OC311   -0.650000       15.9994           0
     32672 LPSA30   9        AGAL     HO3      HCP1     0.420000       1.00800           0
     32673 LPSA30   9        AGAL     C4       CC3161   0.140000       12.0110           0
     32674 LPSA30   9        AGAL     H4       HCA1     0.900000E-01   1.00800           0
     32675 LPSA30   9        AGAL     O4       OC311   -0.650000       15.9994           0
     32676 LPSA30   9        AGAL     HO4      HCP1     0.420000       1.00800           0
     32677 LPSA30   9        AGAL     C6       CC321    0.500000E-01   12.0110           0
     32678 LPSA30   9        AGAL     H61      HCA2     0.900000E-01   1.00800           0
     32679 LPSA30   9        AGAL     H62      HCA2     0.900000E-01   1.00800           0
     32680 LPSA30   9        AGAL     O6       OC311   -0.650000       15.9994           0
     32681 LPSA30   9        AGAL     HO6      HCP1     0.420000       1.00800           0
     32682 LPSA30   10       AGAL     C1       CC3162   0.290000       12.0110           0
     32683 LPSA30   10       AGAL     H1       HCA1     0.900000E-01   1.00800           0
     32684 LPSA30   10       AGAL     C5       CC3163   0.110000       12.0110           0
     32685 LPSA30   10       AGAL     H5       HCA1     0.900000E-01   1.00800           0
     32686 LPSA30   10       AGAL     O5       OC3C61  -0.400000       15.9994           0
     32687 LPSA30   10       AGAL     C2       CC3161   0.140000       12.0110           0
     32688 LPSA30   10       AGAL     H2       HCA1     0.900000E-01   1.00800           0
     32689 LPSA30   10       AGAL     O2       OC311   -0.650000       15.9994           0
     32690 LPSA30   10       AGAL     HO2      HCP1     0.420000       1.00800           0
     32691 LPSA30   10       AGAL     C3       CC3161   0.140000       12.0110           0
     32692 LPSA30   10       AGAL     H3       HCA1     0.900000E-01   1.00800           0
     32693 LPSA30   10       AGAL     O3       OC311   -0.650000       15.9994           0
     32694 LPSA30   10       AGAL     HO3      HCP1     0.420000       1.00800           0
     32695 LPSA30   10       AGAL     C4       CC3161   0.140000       12.0110           0
     32696 LPSA30   10       AGAL     H4       HCA1     0.900000E-01   1.00800           0
     32697 LPSA30   10       AGAL     O4       OC311   -0.650000       15.9994           0
     32698 LPSA30   10       AGAL     HO4      HCP1     0.420000       1.00800           0
     32699 LPSA30   10       AGAL     C6       CC321    0.500000E-01   12.0110           0
     32700 LPSA30   10       AGAL     H61      HCA2     0.900000E-01   1.00800           0
     32701 LPSA30   10       AGAL     H62      HCA2     0.900000E-01   1.00800           0
     32702 LPSA30   10       AGAL     O6       OC311   -0.650000       15.9994           0
     32703 LPSA30   10       AGAL     HO6      HCP1     0.420000       1.00800           0
     32704 LPSA30   11       BGLC     C1       CC3162   0.290000       12.0110           0
     32705 LPSA30   11       BGLC     H1       HCA1     0.900000E-01   1.00800           0
     32706 LPSA30   11       BGLC     C5       CC3163   0.110000       12.0110           0
     32707 LPSA30   11       BGLC     H5       HCA1     0.900000E-01   1.00800           0
     32708 LPSA30   11       BGLC     O5       OC3C61  -0.400000       15.9994           0
     32709 LPSA30   11       BGLC     C2       CC3161   0.140000       12.0110           0
     32710 LPSA30   11       BGLC     H2       HCA1     0.900000E-01   1.00800           0
     32711 LPSA30   11       BGLC     O2       OC311   -0.650000       15.9994           0
     32712 LPSA30   11       BGLC     HO2      HCP1     0.420000       1.00800           0
     32713 LPSA30   11       BGLC     C3       CC3161   0.900000E-01   12.0110           0
     32714 LPSA30   11       BGLC     H3       HCA1     0.900000E-01   1.00800           0
     32715 LPSA30   11       BGLC     O3       OC301   -0.360000       15.9994           0
     32716 LPSA30   11       BGLC     C4       CC3161   0.140000       12.0110           0
     32717 LPSA30   11       BGLC     H4       HCA1     0.900000E-01   1.00800           0
     32718 LPSA30   11       BGLC     O4       OC311   -0.650000       15.9994           0
     32719 LPSA30   11       BGLC     HO4      HCP1     0.420000       1.00800           0
     32720 LPSA30   11       BGLC     C6       CC321    0.500000E-01   12.0110           0
     32721 LPSA30   11       BGLC     H61      HCA2     0.900000E-01   1.00800           0
     32722 LPSA30   11       BGLC     H62      HCA2     0.900000E-01   1.00800           0
     32723 LPSA30   11       BGLC     O6       OC311   -0.650000       15.9994           0
     32724 LPSA30   11       BGLC     HO6      HCP1     0.420000       1.00800           0
     32725 LPSA30   12       BGLCNA   C1       CC3162   0.290000       12.0110           0
     32726 LPSA30   12       BGLCNA   H1       HCA1     0.900000E-01   1.00800           0
     32727 LPSA30   12       BGLCNA   C5       CC3163   0.110000       12.0110           0
     32728 LPSA30   12       BGLCNA   H5       HCA1     0.900000E-01   1.00800           0
     32729 LPSA30   12       BGLCNA   O5       OC3C61  -0.400000       15.9994           0
     32730 LPSA30   12       BGLCNA   C2       CC3161   0.700000E-01   12.0110           0
     32731 LPSA30   12       BGLCNA   H2       HCA1     0.900000E-01   1.00800           0
     32732 LPSA30   12       BGLCNA   N        NC2D1   -0.470000       14.0070           0
     32733 LPSA30   12       BGLCNA   HN       HCP1     0.310000       1.00800           0
     32734 LPSA30   12       BGLCNA   C        CC2O1    0.510000       12.0110           0
     32735 LPSA30   12       BGLCNA   O        OC2D1   -0.510000       15.9994           0
     32736 LPSA30   12       BGLCNA   CT       CC331   -0.270000       12.0110           0
     32737 LPSA30   12       BGLCNA   HT1      HCA3     0.900000E-01   1.00800           0
     32738 LPSA30   12       BGLCNA   HT2      HCA3     0.900000E-01   1.00800           0
     32739 LPSA30   12       BGLCNA   HT3      HCA3     0.900000E-01   1.00800           0
     32740 LPSA30   12       BGLCNA   C3       CC3161   0.900000E-01   12.0110           0
     32741 LPSA30   12       BGLCNA   H3       HCA1     0.900000E-01   1.00800           0
     32742 LPSA30   12       BGLCNA   O3       OC301   -0.360000       15.9994           0
     32743 LPSA30   12       BGLCNA   C4       CC3161   0.140000       12.0110           0
     32744 LPSA30   12       BGLCNA   H4       HCA1     0.900000E-01   1.00800           0
     32745 LPSA30   12       BGLCNA   O4       OC311   -0.650000       15.9994           0
     32746 LPSA30   12       BGLCNA   HO4      HCP1     0.420000       1.00800           0
     32747 LPSA30   12       BGLCNA   C6       CC321    0.500000E-01   12.0110           0
     32748 LPSA30   12       BGLCNA   H61      HCA2     0.900000E-01   1.00800           0
     32749 LPSA30   12       BGLCNA   H62      HCA2     0.900000E-01   1.00800           0
     32750 LPSA30   12       BGLCNA   O6       OC311   -0.650000       15.9994           0
     32751 LPSA30   12       BGLCNA   HO6      HCP1     0.420000       1.00800           0
     32752 LPSA30   13       AGAL     C1       CC3162   0.290000       12.0110           0
     32753 LPSA30   13       AGAL     H1       HCA1     0.900000E-01   1.00800           0
     32754 LPSA30   13       AGAL     C5       CC3163   0.110000       12.0110           0
     32755 LPSA30   13       AGAL     H5       HCA1     0.900000E-01   1.00800           0
     32756 LPSA30   13       AGAL     O5       OC3C61  -0.400000       15.9994           0
     32757 LPSA30   13       AGAL     C2       CC3161   0.900000E-01   12.0110           0
     32758 LPSA30   13       AGAL     H2       HCA1     0.900000E-01   1.00800           0
     32759 LPSA30   13       AGAL     O2       OC301   -0.360000       15.9994           0
     32760 LPSA30   13       AGAL     C3       CC3161   0.140000       12.0110           0
     32761 LPSA30   13       AGAL     H3       HCA1     0.900000E-01   1.00800           0
     32762 LPSA30   13       AGAL     O3       OC311   -0.650000       15.9994           0
     32763 LPSA30   13       AGAL     HO3      HCP1     0.420000       1.00800           0
     32764 LPSA30   13       AGAL     C4       CC3161   0.140000       12.0110           0
     32765 LPSA30   13       AGAL     H4       HCA1     0.900000E-01   1.00800           0
     32766 LPSA30   13       AGAL     O4       OC311   -0.650000       15.9994           0
     32767 LPSA30   13       AGAL     HO4      HCP1     0.420000       1.00800           0
     32768 LPSA30   13       AGAL     C6       CC321    0.500000E-01   12.0110           0
     32769 LPSA30   13       AGAL     H61      HCA2     0.900000E-01   1.00800           0
     32770 LPSA30   13       AGAL     H62      HCA2     0.900000E-01   1.00800           0
     32771 LPSA30   13       AGAL     O6       OC311   -0.650000       15.9994           0
     32772 LPSA30   13       AGAL     HO6      HCP1     0.420000       1.00800           0
     32773 LPSA30   14       ARHM     C1       CC3162   0.290000       12.0110           0
     32774 LPSA30   14       ARHM     H1       HCA1     0.900000E-01   1.00800           0
     32775 LPSA30   14       ARHM     C5       CC3163   0.110000       12.0110           0
     32776 LPSA30   14       ARHM     H5       HCA1     0.900000E-01   1.00800           0
     32777 LPSA30   14       ARHM     O5       OC3C61  -0.400000       15.9994           0
     32778 LPSA30   14       ARHM     C2       CC3161   0.900000E-01   12.0110           0
     32779 LPSA30   14       ARHM     H2       HCA1     0.900000E-01   1.00800           0
     32780 LPSA30   14       ARHM     O2       OC301   -0.360000       15.9994           0
     32781 LPSA30   14       ARHM     C3       CC3161   0.140000       12.0110           0
     32782 LPSA30   14       ARHM     H3       HCA1     0.900000E-01   1.00800           0
     32783 LPSA30   14       ARHM     O3       OC311   -0.650000       15.9994           0
     32784 LPSA30   14       ARHM     HO3      HCP1     0.420000       1.00800           0
     32785 LPSA30   14       ARHM     C4       CC3161   0.140000       12.0110           0
     32786 LPSA30   14       ARHM     H4       HCA1     0.900000E-01   1.00800           0
     32787 LPSA30   14       ARHM     O4       OC311   -0.650000       15.9994           0
     32788 LPSA30   14       ARHM     HO4      HCP1     0.420000       1.00800           0
     32789 LPSA30   14       ARHM     C6       CC331   -0.270000       12.0110           0
     32790 LPSA30   14       ARHM     H61      HCA3     0.900000E-01   1.00800           0
     32791 LPSA30   14       ARHM     H62      HCA3     0.900000E-01   1.00800           0
     32792 LPSA30   14       ARHM     H63      HCA3     0.900000E-01   1.00800           0
     32793 LPSA30   15       ARHM     C1       CC3162   0.290000       12.0110           0
     32794 LPSA30   15       ARHM     H1       HCA1     0.900000E-01   1.00800           0
     32795 LPSA30   15       ARHM     C5       CC3163   0.110000       12.0110           0
     32796 LPSA30   15       ARHM     H5       HCA1     0.900000E-01   1.00800           0
     32797 LPSA30   15       ARHM     O5       OC3C61  -0.400000       15.9994           0
     32798 LPSA30   15       ARHM     C2       CC3161   0.900000E-01   12.0110           0
     32799 LPSA30   15       ARHM     H2       HCA1     0.900000E-01   1.00800           0
     32800 LPSA30   15       ARHM     O2       OC301   -0.360000       15.9994           0
     32801 LPSA30   15       ARHM     C3       CC3161   0.900000E-01   12.0110           0
     32802 LPSA30   15       ARHM     H3       HCA1     0.900000E-01   1.00800           0
     32803 LPSA30   15       ARHM     O3       OC301   -0.360000       15.9994           0
     32804 LPSA30   15       ARHM     C4       CC3161   0.140000       12.0110           0
     32805 LPSA30   15       ARHM     H4       HCA1     0.900000E-01   1.00800           0
     32806 LPSA30   15       ARHM     O4       OC311   -0.650000       15.9994           0
     32807 LPSA30   15       ARHM     HO4      HCP1     0.420000       1.00800           0
     32808 LPSA30   15       ARHM     C6       CC331   -0.270000       12.0110           0
     32809 LPSA30   15       ARHM     H61      HCA3     0.900000E-01   1.00800           0
     32810 LPSA30   15       ARHM     H62      HCA3     0.900000E-01   1.00800           0
     32811 LPSA30   15       ARHM     H63      HCA3     0.900000E-01   1.00800           0
     32812 LPSA30   16       BMANNA   C1       CC3162   0.290000       12.0110           0
     32813 LPSA30   16       BMANNA   H1       HCA1     0.900000E-01   1.00800           0
     32814 LPSA30   16       BMANNA   C5       CC3163   0.110000       12.0110           0
     32815 LPSA30   16       BMANNA   H5       HCA1     0.900000E-01   1.00800           0
     32816 LPSA30   16       BMANNA   O5       OC3C61  -0.400000       15.9994           0
     32817 LPSA30   16       BMANNA   C2       CC3161   0.700000E-01   12.0110           0
     32818 LPSA30   16       BMANNA   H2       HCA1     0.900000E-01   1.00800           0
     32819 LPSA30   16       BMANNA   N        NC2D1   -0.470000       14.0070           0
     32820 LPSA30   16       BMANNA   HN       HCP1     0.310000       1.00800           0
     32821 LPSA30   16       BMANNA   C        CC2O1    0.510000       12.0110           0
     32822 LPSA30   16       BMANNA   O        OC2D1   -0.510000       15.9994           0
     32823 LPSA30   16       BMANNA   CT       CC331   -0.270000       12.0110           0
     32824 LPSA30   16       BMANNA   HT1      HCA3     0.900000E-01   1.00800           0
     32825 LPSA30   16       BMANNA   HT2      HCA3     0.900000E-01   1.00800           0
     32826 LPSA30   16       BMANNA   HT3      HCA3     0.900000E-01   1.00800           0
     32827 LPSA30   16       BMANNA   C3       CC3161   0.140000       12.0110           0
     32828 LPSA30   16       BMANNA   H3       HCA1     0.900000E-01   1.00800           0
     32829 LPSA30   16       BMANNA   O3       OC311   -0.650000       15.9994           0
     32830 LPSA30   16       BMANNA   HO3      HCP1     0.420000       1.00800           0
     32831 LPSA30   16       BMANNA   C4       CC3161   0.140000       12.0110           0
     32832 LPSA30   16       BMANNA   H4       HCA1     0.900000E-01   1.00800           0
     32833 LPSA30   16       BMANNA   O4       OC311   -0.650000       15.9994           0
     32834 LPSA30   16       BMANNA   HO4      HCP1     0.420000       1.00800           0
     32835 LPSA30   16       BMANNA   C6       CC321    0.500000E-01   12.0110           0
     32836 LPSA30   16       BMANNA   H61      HCA2     0.900000E-01   1.00800           0
     32837 LPSA30   16       BMANNA   H62      HCA2     0.900000E-01   1.00800           0
     32838 LPSA30   16       BMANNA   O6       OC311   -0.650000       15.9994           0
     32839 LPSA30   16       BMANNA   HO6      HCP1     0.420000       1.00800           0
     32840 LPSA30   17       BGLCNA   C1       CC3162   0.290000       12.0110           0
     32841 LPSA30   17       BGLCNA   H1       HCA1     0.900000E-01   1.00800           0
     32842 LPSA30   17       BGLCNA   C5       CC3163   0.110000       12.0110           0
     32843 LPSA30   17       BGLCNA   H5       HCA1     0.900000E-01   1.00800           0
     32844 LPSA30   17       BGLCNA   O5       OC3C61  -0.400000       15.9994           0
     32845 LPSA30   17       BGLCNA   C2       CC3161   0.700000E-01   12.0110           0
     32846 LPSA30   17       BGLCNA   H2       HCA1     0.900000E-01   1.00800           0
     32847 LPSA30   17       BGLCNA   N        NC2D1   -0.470000       14.0070           0
     32848 LPSA30   17       BGLCNA   HN       HCP1     0.310000       1.00800           0
     32849 LPSA30   17       BGLCNA   C        CC2O1    0.510000       12.0110           0
     32850 LPSA30   17       BGLCNA   O        OC2D1   -0.510000       15.9994           0
     32851 LPSA30   17       BGLCNA   CT       CC331   -0.270000       12.0110           0
     32852 LPSA30   17       BGLCNA   HT1      HCA3     0.900000E-01   1.00800           0
     32853 LPSA30   17       BGLCNA   HT2      HCA3     0.900000E-01   1.00800           0
     32854 LPSA30   17       BGLCNA   HT3      HCA3     0.900000E-01   1.00800           0
     32855 LPSA30   17       BGLCNA   C3       CC3161   0.900000E-01   12.0110           0
     32856 LPSA30   17       BGLCNA   H3       HCA1     0.900000E-01   1.00800           0
     32857 LPSA30   17       BGLCNA   O3       OC301   -0.360000       15.9994           0
     32858 LPSA30   17       BGLCNA   C4       CC3161   0.140000       12.0110           0
     32859 LPSA30   17       BGLCNA   H4       HCA1     0.900000E-01   1.00800           0
     32860 LPSA30   17       BGLCNA   O4       OC311   -0.650000       15.9994           0
     32861 LPSA30   17       BGLCNA   HO4      HCP1     0.420000       1.00800           0
     32862 LPSA30   17       BGLCNA   C6       CC321    0.500000E-01   12.0110           0
     32863 LPSA30   17       BGLCNA   H61      HCA2     0.900000E-01   1.00800           0
     32864 LPSA30   17       BGLCNA   H62      HCA2     0.900000E-01   1.00800           0
     32865 LPSA30   17       BGLCNA   O6       OC311   -0.650000       15.9994           0
     32866 LPSA30   17       BGLCNA   HO6      HCP1     0.420000       1.00800           0
     32867 LPSA30   18       AGAL     C1       CC3162   0.290000       12.0110           0
     32868 LPSA30   18       AGAL     H1       HCA1     0.900000E-01   1.00800           0
     32869 LPSA30   18       AGAL     C5       CC3163   0.110000       12.0110           0
     32870 LPSA30   18       AGAL     H5       HCA1     0.900000E-01   1.00800           0
     32871 LPSA30   18       AGAL     O5       OC3C61  -0.400000       15.9994           0
     32872 LPSA30   18       AGAL     C2       CC3161   0.900000E-01   12.0110           0
     32873 LPSA30   18       AGAL     H2       HCA1     0.900000E-01   1.00800           0
     32874 LPSA30   18       AGAL     O2       OC301   -0.360000       15.9994           0
     32875 LPSA30   18       AGAL     C3       CC3161   0.140000       12.0110           0
     32876 LPSA30   18       AGAL     H3       HCA1     0.900000E-01   1.00800           0
     32877 LPSA30   18       AGAL     O3       OC311   -0.650000       15.9994           0
     32878 LPSA30   18       AGAL     HO3      HCP1     0.420000       1.00800           0
     32879 LPSA30   18       AGAL     C4       CC3161   0.140000       12.0110           0
     32880 LPSA30   18       AGAL     H4       HCA1     0.900000E-01   1.00800           0
     32881 LPSA30   18       AGAL     O4       OC311   -0.650000       15.9994           0
     32882 LPSA30   18       AGAL     HO4      HCP1     0.420000       1.00800           0
     32883 LPSA30   18       AGAL     C6       CC321    0.500000E-01   12.0110           0
     32884 LPSA30   18       AGAL     H61      HCA2     0.900000E-01   1.00800           0
     32885 LPSA30   18       AGAL     H62      HCA2     0.900000E-01   1.00800           0
     32886 LPSA30   18       AGAL     O6       OC311   -0.650000       15.9994           0
     32887 LPSA30   18       AGAL     HO6      HCP1     0.420000       1.00800           0
     32888 LPSA30   19       ARHM     C1       CC3162   0.290000       12.0110           0
     32889 LPSA30   19       ARHM     H1       HCA1     0.900000E-01   1.00800           0
     32890 LPSA30   19       ARHM     C5       CC3163   0.110000       12.0110           0
     32891 LPSA30   19       ARHM     H5       HCA1     0.900000E-01   1.00800           0
     32892 LPSA30   19       ARHM     O5       OC3C61  -0.400000       15.9994           0
     32893 LPSA30   19       ARHM     C2       CC3161   0.900000E-01   12.0110           0
     32894 LPSA30   19       ARHM     H2       HCA1     0.900000E-01   1.00800           0
     32895 LPSA30   19       ARHM     O2       OC301   -0.360000       15.9994           0
     32896 LPSA30   19       ARHM     C3       CC3161   0.140000       12.0110           0
     32897 LPSA30   19       ARHM     H3       HCA1     0.900000E-01   1.00800           0
     32898 LPSA30   19       ARHM     O3       OC311   -0.650000       15.9994           0
     32899 LPSA30   19       ARHM     HO3      HCP1     0.420000       1.00800           0
     32900 LPSA30   19       ARHM     C4       CC3161   0.140000       12.0110           0
     32901 LPSA30   19       ARHM     H4       HCA1     0.900000E-01   1.00800           0
     32902 LPSA30   19       ARHM     O4       OC311   -0.650000       15.9994           0
     32903 LPSA30   19       ARHM     HO4      HCP1     0.420000       1.00800           0
     32904 LPSA30   19       ARHM     C6       CC331   -0.270000       12.0110           0
     32905 LPSA30   19       ARHM     H61      HCA3     0.900000E-01   1.00800           0
     32906 LPSA30   19       ARHM     H62      HCA3     0.900000E-01   1.00800           0
     32907 LPSA30   19       ARHM     H63      HCA3     0.900000E-01   1.00800           0
     32908 LPSA30   20       ARHM     C1       CC3162   0.290000       12.0110           0
     32909 LPSA30   20       ARHM     H1       HCA1     0.900000E-01   1.00800           0
     32910 LPSA30   20       ARHM     C5       CC3163   0.110000       12.0110           0
     32911 LPSA30   20       ARHM     H5       HCA1     0.900000E-01   1.00800           0
     32912 LPSA30   20       ARHM     O5       OC3C61  -0.400000       15.9994           0
     32913 LPSA30   20       ARHM     C2       CC3161   0.900000E-01   12.0110           0
     32914 LPSA30   20       ARHM     H2       HCA1     0.900000E-01   1.00800           0
     32915 LPSA30   20       ARHM     O2       OC301   -0.360000       15.9994           0
     32916 LPSA30   20       ARHM     C3       CC3161   0.900000E-01   12.0110           0
     32917 LPSA30   20       ARHM     H3       HCA1     0.900000E-01   1.00800           0
     32918 LPSA30   20       ARHM     O3       OC301   -0.360000       15.9994           0
     32919 LPSA30   20       ARHM     C4       CC3161   0.140000       12.0110           0
     32920 LPSA30   20       ARHM     H4       HCA1     0.900000E-01   1.00800           0
     32921 LPSA30   20       ARHM     O4       OC311   -0.650000       15.9994           0
     32922 LPSA30   20       ARHM     HO4      HCP1     0.420000       1.00800           0
     32923 LPSA30   20       ARHM     C6       CC331   -0.270000       12.0110           0
     32924 LPSA30   20       ARHM     H61      HCA3     0.900000E-01   1.00800           0
     32925 LPSA30   20       ARHM     H62      HCA3     0.900000E-01   1.00800           0
     32926 LPSA30   20       ARHM     H63      HCA3     0.900000E-01   1.00800           0
     32927 LPSA30   21       BMANNA   C1       CC3162   0.290000       12.0110           0
     32928 LPSA30   21       BMANNA   H1       HCA1     0.900000E-01   1.00800           0
     32929 LPSA30   21       BMANNA   C5       CC3163   0.110000       12.0110           0
     32930 LPSA30   21       BMANNA   H5       HCA1     0.900000E-01   1.00800           0
     32931 LPSA30   21       BMANNA   O5       OC3C61  -0.400000       15.9994           0
     32932 LPSA30   21       BMANNA   C2       CC3161   0.700000E-01   12.0110           0
     32933 LPSA30   21       BMANNA   H2       HCA1     0.900000E-01   1.00800           0
     32934 LPSA30   21       BMANNA   N        NC2D1   -0.470000       14.0070           0
     32935 LPSA30   21       BMANNA   HN       HCP1     0.310000       1.00800           0
     32936 LPSA30   21       BMANNA   C        CC2O1    0.510000       12.0110           0
     32937 LPSA30   21       BMANNA   O        OC2D1   -0.510000       15.9994           0
     32938 LPSA30   21       BMANNA   CT       CC331   -0.270000       12.0110           0
     32939 LPSA30   21       BMANNA   HT1      HCA3     0.900000E-01   1.00800           0
     32940 LPSA30   21       BMANNA   HT2      HCA3     0.900000E-01   1.00800           0
     32941 LPSA30   21       BMANNA   HT3      HCA3     0.900000E-01   1.00800           0
     32942 LPSA30   21       BMANNA   C3       CC3161   0.140000       12.0110           0
     32943 LPSA30   21       BMANNA   H3       HCA1     0.900000E-01   1.00800           0
     32944 LPSA30   21       BMANNA   O3       OC311   -0.650000       15.9994           0
     32945 LPSA30   21       BMANNA   HO3      HCP1     0.420000       1.00800           0
     32946 LPSA30   21       BMANNA   C4       CC3161   0.140000       12.0110           0
     32947 LPSA30   21       BMANNA   H4       HCA1     0.900000E-01   1.00800           0
     32948 LPSA30   21       BMANNA   O4       OC311   -0.650000       15.9994           0
     32949 LPSA30   21       BMANNA   HO4      HCP1     0.420000       1.00800           0
     32950 LPSA30   21       BMANNA   C6       CC321    0.500000E-01   12.0110           0
     32951 LPSA30   21       BMANNA   H61      HCA2     0.900000E-01   1.00800           0
     32952 LPSA30   21       BMANNA   H62      HCA2     0.900000E-01   1.00800           0
     32953 LPSA30   21       BMANNA   O6       OC311   -0.650000       15.9994           0
     32954 LPSA30   21       BMANNA   HO6      HCP1     0.420000       1.00800           0
     32955 LPSA30   22       BGLCNA   C1       CC3162   0.290000       12.0110           0
     32956 LPSA30   22       BGLCNA   H1       HCA1     0.900000E-01   1.00800           0
     32957 LPSA30   22       BGLCNA   C5       CC3163   0.110000       12.0110           0
     32958 LPSA30   22       BGLCNA   H5       HCA1     0.900000E-01   1.00800           0
     32959 LPSA30   22       BGLCNA   O5       OC3C61  -0.400000       15.9994           0
     32960 LPSA30   22       BGLCNA   C2       CC3161   0.700000E-01   12.0110           0
     32961 LPSA30   22       BGLCNA   H2       HCA1     0.900000E-01   1.00800           0
     32962 LPSA30   22       BGLCNA   N        NC2D1   -0.470000       14.0070           0
     32963 LPSA30   22       BGLCNA   HN       HCP1     0.310000       1.00800           0
     32964 LPSA30   22       BGLCNA   C        CC2O1    0.510000       12.0110           0
     32965 LPSA30   22       BGLCNA   O        OC2D1   -0.510000       15.9994           0
     32966 LPSA30   22       BGLCNA   CT       CC331   -0.270000       12.0110           0
     32967 LPSA30   22       BGLCNA   HT1      HCA3     0.900000E-01   1.00800           0
     32968 LPSA30   22       BGLCNA   HT2      HCA3     0.900000E-01   1.00800           0
     32969 LPSA30   22       BGLCNA   HT3      HCA3     0.900000E-01   1.00800           0
     32970 LPSA30   22       BGLCNA   C3       CC3161   0.900000E-01   12.0110           0
     32971 LPSA30   22       BGLCNA   H3       HCA1     0.900000E-01   1.00800           0
     32972 LPSA30   22       BGLCNA   O3       OC301   -0.360000       15.9994           0
     32973 LPSA30   22       BGLCNA   C4       CC3161   0.140000       12.0110           0
     32974 LPSA30   22       BGLCNA   H4       HCA1     0.900000E-01   1.00800           0
     32975 LPSA30   22       BGLCNA   O4       OC311   -0.650000       15.9994           0
     32976 LPSA30   22       BGLCNA   HO4      HCP1     0.420000       1.00800           0
     32977 LPSA30   22       BGLCNA   C6       CC321    0.500000E-01   12.0110           0
     32978 LPSA30   22       BGLCNA   H61      HCA2     0.900000E-01   1.00800           0
     32979 LPSA30   22       BGLCNA   H62      HCA2     0.900000E-01   1.00800           0
     32980 LPSA30   22       BGLCNA   O6       OC311   -0.650000       15.9994           0
     32981 LPSA30   22       BGLCNA   HO6      HCP1     0.420000       1.00800           0
     32982 LPSA30   23       AGAL     C1       CC3162   0.290000       12.0110           0
     32983 LPSA30   23       AGAL     H1       HCA1     0.900000E-01   1.00800           0
     32984 LPSA30   23       AGAL     C5       CC3163   0.110000       12.0110           0
     32985 LPSA30   23       AGAL     H5       HCA1     0.900000E-01   1.00800           0
     32986 LPSA30   23       AGAL     O5       OC3C61  -0.400000       15.9994           0
     32987 LPSA30   23       AGAL     C2       CC3161   0.900000E-01   12.0110           0
     32988 LPSA30   23       AGAL     H2       HCA1     0.900000E-01   1.00800           0
     32989 LPSA30   23       AGAL     O2       OC301   -0.360000       15.9994           0
     32990 LPSA30   23       AGAL     C3       CC3161   0.140000       12.0110           0
     32991 LPSA30   23       AGAL     H3       HCA1     0.900000E-01   1.00800           0
     32992 LPSA30   23       AGAL     O3       OC311   -0.650000       15.9994           0
     32993 LPSA30   23       AGAL     HO3      HCP1     0.420000       1.00800           0
     32994 LPSA30   23       AGAL     C4       CC3161   0.140000       12.0110           0
     32995 LPSA30   23       AGAL     H4       HCA1     0.900000E-01   1.00800           0
     32996 LPSA30   23       AGAL     O4       OC311   -0.650000       15.9994           0
     32997 LPSA30   23       AGAL     HO4      HCP1     0.420000       1.00800           0
     32998 LPSA30   23       AGAL     C6       CC321    0.500000E-01   12.0110           0
     32999 LPSA30   23       AGAL     H61      HCA2     0.900000E-01   1.00800           0
     33000 LPSA30   23       AGAL     H62      HCA2     0.900000E-01   1.00800           0
     33001 LPSA30   23       AGAL     O6       OC311   -0.650000       15.9994           0
     33002 LPSA30   23       AGAL     HO6      HCP1     0.420000       1.00800           0
     33003 LPSA30   24       ARHM     C1       CC3162   0.290000       12.0110           0
     33004 LPSA30   24       ARHM     H1       HCA1     0.900000E-01   1.00800           0
     33005 LPSA30   24       ARHM     C5       CC3163   0.110000       12.0110           0
     33006 LPSA30   24       ARHM     H5       HCA1     0.900000E-01   1.00800           0
     33007 LPSA30   24       ARHM     O5       OC3C61  -0.400000       15.9994           0
     33008 LPSA30   24       ARHM     C2       CC3161   0.900000E-01   12.0110           0
     33009 LPSA30   24       ARHM     H2       HCA1     0.900000E-01   1.00800           0
     33010 LPSA30   24       ARHM     O2       OC301   -0.360000       15.9994           0
     33011 LPSA30   24       ARHM     C3       CC3161   0.140000       12.0110           0
     33012 LPSA30   24       ARHM     H3       HCA1     0.900000E-01   1.00800           0
     33013 LPSA30   24       ARHM     O3       OC311   -0.650000       15.9994           0
     33014 LPSA30   24       ARHM     HO3      HCP1     0.420000       1.00800           0
     33015 LPSA30   24       ARHM     C4       CC3161   0.140000       12.0110           0
     33016 LPSA30   24       ARHM     H4       HCA1     0.900000E-01   1.00800           0
     33017 LPSA30   24       ARHM     O4       OC311   -0.650000       15.9994           0
     33018 LPSA30   24       ARHM     HO4      HCP1     0.420000       1.00800           0
     33019 LPSA30   24       ARHM     C6       CC331   -0.270000       12.0110           0
     33020 LPSA30   24       ARHM     H61      HCA3     0.900000E-01   1.00800           0
     33021 LPSA30   24       ARHM     H62      HCA3     0.900000E-01   1.00800           0
     33022 LPSA30   24       ARHM     H63      HCA3     0.900000E-01   1.00800           0
     33023 LPSA30   25       ARHM     C1       CC3162   0.290000       12.0110           0
     33024 LPSA30   25       ARHM     H1       HCA1     0.900000E-01   1.00800           0
     33025 LPSA30   25       ARHM     C5       CC3163   0.110000       12.0110           0
     33026 LPSA30   25       ARHM     H5       HCA1     0.900000E-01   1.00800           0
     33027 LPSA30   25       ARHM     O5       OC3C61  -0.400000       15.9994           0
     33028 LPSA30   25       ARHM     C2       CC3161   0.900000E-01   12.0110           0
     33029 LPSA30   25       ARHM     H2       HCA1     0.900000E-01   1.00800           0
     33030 LPSA30   25       ARHM     O2       OC301   -0.360000       15.9994           0
     33031 LPSA30   25       ARHM     C3       CC3161   0.900000E-01   12.0110           0
     33032 LPSA30   25       ARHM     H3       HCA1     0.900000E-01   1.00800           0
     33033 LPSA30   25       ARHM     O3       OC301   -0.360000       15.9994           0
     33034 LPSA30   25       ARHM     C4       CC3161   0.140000       12.0110           0
     33035 LPSA30   25       ARHM     H4       HCA1     0.900000E-01   1.00800           0
     33036 LPSA30   25       ARHM     O4       OC311   -0.650000       15.9994           0
     33037 LPSA30   25       ARHM     HO4      HCP1     0.420000       1.00800           0
     33038 LPSA30   25       ARHM     C6       CC331   -0.270000       12.0110           0
     33039 LPSA30   25       ARHM     H61      HCA3     0.900000E-01   1.00800           0
     33040 LPSA30   25       ARHM     H62      HCA3     0.900000E-01   1.00800           0
     33041 LPSA30   25       ARHM     H63      HCA3     0.900000E-01   1.00800           0
     33042 LPSA30   26       BMANNA   C1       CC3162   0.290000       12.0110           0
     33043 LPSA30   26       BMANNA   H1       HCA1     0.900000E-01   1.00800           0
     33044 LPSA30   26       BMANNA   C5       CC3163   0.110000       12.0110           0
     33045 LPSA30   26       BMANNA   H5       HCA1     0.900000E-01   1.00800           0
     33046 LPSA30   26       BMANNA   O5       OC3C61  -0.400000       15.9994           0
     33047 LPSA30   26       BMANNA   C2       CC3161   0.700000E-01   12.0110           0
     33048 LPSA30   26       BMANNA   H2       HCA1     0.900000E-01   1.00800           0
     33049 LPSA30   26       BMANNA   N        NC2D1   -0.470000       14.0070           0
     33050 LPSA30   26       BMANNA   HN       HCP1     0.310000       1.00800           0
     33051 LPSA30   26       BMANNA   C        CC2O1    0.510000       12.0110           0
     33052 LPSA30   26       BMANNA   O        OC2D1   -0.510000       15.9994           0
     33053 LPSA30   26       BMANNA   CT       CC331   -0.270000       12.0110           0
     33054 LPSA30   26       BMANNA   HT1      HCA3     0.900000E-01   1.00800           0
     33055 LPSA30   26       BMANNA   HT2      HCA3     0.900000E-01   1.00800           0
     33056 LPSA30   26       BMANNA   HT3      HCA3     0.900000E-01   1.00800           0
     33057 LPSA30   26       BMANNA   C3       CC3161   0.140000       12.0110           0
     33058 LPSA30   26       BMANNA   H3       HCA1     0.900000E-01   1.00800           0
     33059 LPSA30   26       BMANNA   O3       OC311   -0.650000       15.9994           0
     33060 LPSA30   26       BMANNA   HO3      HCP1     0.420000       1.00800           0
     33061 LPSA30   26       BMANNA   C4       CC3161   0.140000       12.0110           0
     33062 LPSA30   26       BMANNA   H4       HCA1     0.900000E-01   1.00800           0
     33063 LPSA30   26       BMANNA   O4       OC311   -0.650000       15.9994           0
     33064 LPSA30   26       BMANNA   HO4      HCP1     0.420000       1.00800           0
     33065 LPSA30   26       BMANNA   C6       CC321    0.500000E-01   12.0110           0
     33066 LPSA30   26       BMANNA   H61      HCA2     0.900000E-01   1.00800           0
     33067 LPSA30   26       BMANNA   H62      HCA2     0.900000E-01   1.00800           0
     33068 LPSA30   26       BMANNA   O6       OC311   -0.650000       15.9994           0
     33069 LPSA30   26       BMANNA   HO6      HCP1     0.420000       1.00800           0
     33070 LPSA30   27       BGLCNA   C1       CC3162   0.290000       12.0110           0
     33071 LPSA30   27       BGLCNA   H1       HCA1     0.900000E-01   1.00800           0
     33072 LPSA30   27       BGLCNA   C5       CC3163   0.110000       12.0110           0
     33073 LPSA30   27       BGLCNA   H5       HCA1     0.900000E-01   1.00800           0
     33074 LPSA30   27       BGLCNA   O5       OC3C61  -0.400000       15.9994           0
     33075 LPSA30   27       BGLCNA   C2       CC3161   0.700000E-01   12.0110           0
     33076 LPSA30   27       BGLCNA   H2       HCA1     0.900000E-01   1.00800           0
     33077 LPSA30   27       BGLCNA   N        NC2D1   -0.470000       14.0070           0
     33078 LPSA30   27       BGLCNA   HN       HCP1     0.310000       1.00800           0
     33079 LPSA30   27       BGLCNA   C        CC2O1    0.510000       12.0110           0
     33080 LPSA30   27       BGLCNA   O        OC2D1   -0.510000       15.9994           0
     33081 LPSA30   27       BGLCNA   CT       CC331   -0.270000       12.0110           0
     33082 LPSA30   27       BGLCNA   HT1      HCA3     0.900000E-01   1.00800           0
     33083 LPSA30   27       BGLCNA   HT2      HCA3     0.900000E-01   1.00800           0
     33084 LPSA30   27       BGLCNA   HT3      HCA3     0.900000E-01   1.00800           0
     33085 LPSA30   27       BGLCNA   C3       CC3161   0.900000E-01   12.0110           0
     33086 LPSA30   27       BGLCNA   H3       HCA1     0.900000E-01   1.00800           0
     33087 LPSA30   27       BGLCNA   O3       OC301   -0.360000       15.9994           0
     33088 LPSA30   27       BGLCNA   C4       CC3161   0.140000       12.0110           0
     33089 LPSA30   27       BGLCNA   H4       HCA1     0.900000E-01   1.00800           0
     33090 LPSA30   27       BGLCNA   O4       OC311   -0.650000       15.9994           0
     33091 LPSA30   27       BGLCNA   HO4      HCP1     0.420000       1.00800           0
     33092 LPSA30   27       BGLCNA   C6       CC321    0.500000E-01   12.0110           0
     33093 LPSA30   27       BGLCNA   H61      HCA2     0.900000E-01   1.00800           0
     33094 LPSA30   27       BGLCNA   H62      HCA2     0.900000E-01   1.00800           0
     33095 LPSA30   27       BGLCNA   O6       OC311   -0.650000       15.9994           0
     33096 LPSA30   27       BGLCNA   HO6      HCP1     0.420000       1.00800           0
     33097 LPSA30   28       AGAL     C1       CC3162   0.290000       12.0110           0
     33098 LPSA30   28       AGAL     H1       HCA1     0.900000E-01   1.00800           0
     33099 LPSA30   28       AGAL     C5       CC3163   0.110000       12.0110           0
     33100 LPSA30   28       AGAL     H5       HCA1     0.900000E-01   1.00800           0
     33101 LPSA30   28       AGAL     O5       OC3C61  -0.400000       15.9994           0
     33102 LPSA30   28       AGAL     C2       CC3161   0.900000E-01   12.0110           0
     33103 LPSA30   28       AGAL     H2       HCA1     0.900000E-01   1.00800           0
     33104 LPSA30   28       AGAL     O2       OC301   -0.360000       15.9994           0
     33105 LPSA30   28       AGAL     C3       CC3161   0.140000       12.0110           0
     33106 LPSA30   28       AGAL     H3       HCA1     0.900000E-01   1.00800           0
     33107 LPSA30   28       AGAL     O3       OC311   -0.650000       15.9994           0
     33108 LPSA30   28       AGAL     HO3      HCP1     0.420000       1.00800           0
     33109 LPSA30   28       AGAL     C4       CC3161   0.140000       12.0110           0
     33110 LPSA30   28       AGAL     H4       HCA1     0.900000E-01   1.00800           0
     33111 LPSA30   28       AGAL     O4       OC311   -0.650000       15.9994           0
     33112 LPSA30   28       AGAL     HO4      HCP1     0.420000       1.00800           0
     33113 LPSA30   28       AGAL     C6       CC321    0.500000E-01   12.0110           0
     33114 LPSA30   28       AGAL     H61      HCA2     0.900000E-01   1.00800           0
     33115 LPSA30   28       AGAL     H62      HCA2     0.900000E-01   1.00800           0
     33116 LPSA30   28       AGAL     O6       OC311   -0.650000       15.9994           0
     33117 LPSA30   28       AGAL     HO6      HCP1     0.420000       1.00800           0
     33118 LPSA30   29       ARHM     C1       CC3162   0.290000       12.0110           0
     33119 LPSA30   29       ARHM     H1       HCA1     0.900000E-01   1.00800           0
     33120 LPSA30   29       ARHM     C5       CC3163   0.110000       12.0110           0
     33121 LPSA30   29       ARHM     H5       HCA1     0.900000E-01   1.00800           0
     33122 LPSA30   29       ARHM     O5       OC3C61  -0.400000       15.9994           0
     33123 LPSA30   29       ARHM     C2       CC3161   0.900000E-01   12.0110           0
     33124 LPSA30   29       ARHM     H2       HCA1     0.900000E-01   1.00800           0
     33125 LPSA30   29       ARHM     O2       OC301   -0.360000       15.9994           0
     33126 LPSA30   29       ARHM     C3       CC3161   0.140000       12.0110           0
     33127 LPSA30   29       ARHM     H3       HCA1     0.900000E-01   1.00800           0
     33128 LPSA30   29       ARHM     O3       OC311   -0.650000       15.9994           0
     33129 LPSA30   29       ARHM     HO3      HCP1     0.420000       1.00800           0
     33130 LPSA30   29       ARHM     C4       CC3161   0.140000       12.0110           0
     33131 LPSA30   29       ARHM     H4       HCA1     0.900000E-01   1.00800           0
     33132 LPSA30   29       ARHM     O4       OC311   -0.650000       15.9994           0
     33133 LPSA30   29       ARHM     HO4      HCP1     0.420000       1.00800           0
     33134 LPSA30   29       ARHM     C6       CC331   -0.270000       12.0110           0
     33135 LPSA30   29       ARHM     H61      HCA3     0.900000E-01   1.00800           0
     33136 LPSA30   29       ARHM     H62      HCA3     0.900000E-01   1.00800           0
     33137 LPSA30   29       ARHM     H63      HCA3     0.900000E-01   1.00800           0
     33138 LPSA30   30       ARHM     C1       CC3162   0.290000       12.0110           0
     33139 LPSA30   30       ARHM     H1       HCA1     0.900000E-01   1.00800           0
     33140 LPSA30   30       ARHM     C5       CC3163   0.110000       12.0110           0
     33141 LPSA30   30       ARHM     H5       HCA1     0.900000E-01   1.00800           0
     33142 LPSA30   30       ARHM     O5       OC3C61  -0.400000       15.9994           0
     33143 LPSA30   30       ARHM     C2       CC3161   0.900000E-01   12.0110           0
     33144 LPSA30   30       ARHM     H2       HCA1     0.900000E-01   1.00800           0
     33145 LPSA30   30       ARHM     O2       OC301   -0.360000       15.9994           0
     33146 LPSA30   30       ARHM     C3       CC3161   0.900000E-01   12.0110           0
     33147 LPSA30   30       ARHM     H3       HCA1     0.900000E-01   1.00800           0
     33148 LPSA30   30       ARHM     O3       OC301   -0.360000       15.9994           0
     33149 LPSA30   30       ARHM     C4       CC3161   0.140000       12.0110           0
     33150 LPSA30   30       ARHM     H4       HCA1     0.900000E-01   1.00800           0
     33151 LPSA30   30       ARHM     O4       OC311   -0.650000       15.9994           0
     33152 LPSA30   30       ARHM     HO4      HCP1     0.420000       1.00800           0
     33153 LPSA30   30       ARHM     C6       CC331   -0.270000       12.0110           0
     33154 LPSA30   30       ARHM     H61      HCA3     0.900000E-01   1.00800           0
     33155 LPSA30   30       ARHM     H62      HCA3     0.900000E-01   1.00800           0
     33156 LPSA30   30       ARHM     H63      HCA3     0.900000E-01   1.00800           0
     33157 LPSA30   31       BMANNA   C1       CC3162   0.290000       12.0110           0
     33158 LPSA30   31       BMANNA   H1       HCA1     0.900000E-01   1.00800           0
     33159 LPSA30   31       BMANNA   C5       CC3163   0.110000       12.0110           0
     33160 LPSA30   31       BMANNA   H5       HCA1     0.900000E-01   1.00800           0
     33161 LPSA30   31       BMANNA   O5       OC3C61  -0.400000       15.9994           0
     33162 LPSA30   31       BMANNA   C2       CC3161   0.700000E-01   12.0110           0
     33163 LPSA30   31       BMANNA   H2       HCA1     0.900000E-01   1.00800           0
     33164 LPSA30   31       BMANNA   N        NC2D1   -0.470000       14.0070           0
     33165 LPSA30   31       BMANNA   HN       HCP1     0.310000       1.00800           0
     33166 LPSA30   31       BMANNA   C        CC2O1    0.510000       12.0110           0
     33167 LPSA30   31       BMANNA   O        OC2D1   -0.510000       15.9994           0
     33168 LPSA30   31       BMANNA   CT       CC331   -0.270000       12.0110           0
     33169 LPSA30   31       BMANNA   HT1      HCA3     0.900000E-01   1.00800           0
     33170 LPSA30   31       BMANNA   HT2      HCA3     0.900000E-01   1.00800           0
     33171 LPSA30   31       BMANNA   HT3      HCA3     0.900000E-01   1.00800           0
     33172 LPSA30   31       BMANNA   C3       CC3161   0.140000       12.0110           0
     33173 LPSA30   31       BMANNA   H3       HCA1     0.900000E-01   1.00800           0
     33174 LPSA30   31       BMANNA   O3       OC311   -0.650000       15.9994           0
     33175 LPSA30   31       BMANNA   HO3      HCP1     0.420000       1.00800           0
     33176 LPSA30   31       BMANNA   C4       CC3161   0.140000       12.0110           0
     33177 LPSA30   31       BMANNA   H4       HCA1     0.900000E-01   1.00800           0
     33178 LPSA30   31       BMANNA   O4       OC311   -0.650000       15.9994           0
     33179 LPSA30   31       BMANNA   HO4      HCP1     0.420000       1.00800           0
     33180 LPSA30   31       BMANNA   C6       CC321    0.500000E-01   12.0110           0
     33181 LPSA30   31       BMANNA   H61      HCA2     0.900000E-01   1.00800           0
     33182 LPSA30   31       BMANNA   H62      HCA2     0.900000E-01   1.00800           0
     33183 LPSA30   31       BMANNA   O6       OC311   -0.650000       15.9994           0
     33184 LPSA30   31       BMANNA   HO6      HCP1     0.420000       1.00800           0
     33185 LPSA30   32       BGLCNA   C1       CC3162   0.290000       12.0110           0
     33186 LPSA30   32       BGLCNA   H1       HCA1     0.900000E-01   1.00800           0
     33187 LPSA30   32       BGLCNA   C5       CC3163   0.110000       12.0110           0
     33188 LPSA30   32       BGLCNA   H5       HCA1     0.900000E-01   1.00800           0
     33189 LPSA30   32       BGLCNA   O5       OC3C61  -0.400000       15.9994           0
     33190 LPSA30   32       BGLCNA   C2       CC3161   0.700000E-01   12.0110           0
     33191 LPSA30   32       BGLCNA   H2       HCA1     0.900000E-01   1.00800           0
     33192 LPSA30   32       BGLCNA   N        NC2D1   -0.470000       14.0070           0
     33193 LPSA30   32       BGLCNA   HN       HCP1     0.310000       1.00800           0
     33194 LPSA30   32       BGLCNA   C        CC2O1    0.510000       12.0110           0
     33195 LPSA30   32       BGLCNA   O        OC2D1   -0.510000       15.9994           0
     33196 LPSA30   32       BGLCNA   CT       CC331   -0.270000       12.0110           0
     33197 LPSA30   32       BGLCNA   HT1      HCA3     0.900000E-01   1.00800           0
     33198 LPSA30   32       BGLCNA   HT2      HCA3     0.900000E-01   1.00800           0
     33199 LPSA30   32       BGLCNA   HT3      HCA3     0.900000E-01   1.00800           0
     33200 LPSA30   32       BGLCNA   C3       CC3161   0.900000E-01   12.0110           0
     33201 LPSA30   32       BGLCNA   H3       HCA1     0.900000E-01   1.00800           0
     33202 LPSA30   32       BGLCNA   O3       OC301   -0.360000       15.9994           0
     33203 LPSA30   32       BGLCNA   C4       CC3161   0.140000       12.0110           0
     33204 LPSA30   32       BGLCNA   H4       HCA1     0.900000E-01   1.00800           0
     33205 LPSA30   32       BGLCNA   O4       OC311   -0.650000       15.9994           0
     33206 LPSA30   32       BGLCNA   HO4      HCP1     0.420000       1.00800           0
     33207 LPSA30   32       BGLCNA   C6       CC321    0.500000E-01   12.0110           0
     33208 LPSA30   32       BGLCNA   H61      HCA2     0.900000E-01   1.00800           0
     33209 LPSA30   32       BGLCNA   H62      HCA2     0.900000E-01   1.00800           0
     33210 LPSA30   32       BGLCNA   O6       OC311   -0.650000       15.9994           0
     33211 LPSA30   32       BGLCNA   HO6      HCP1     0.420000       1.00800           0
     33212 LPSA30   33       AGAL     C1       CC3162   0.290000       12.0110           0
     33213 LPSA30   33       AGAL     H1       HCA1     0.900000E-01   1.00800           0
     33214 LPSA30   33       AGAL     C5       CC3163   0.110000       12.0110           0
     33215 LPSA30   33       AGAL     H5       HCA1     0.900000E-01   1.00800           0
     33216 LPSA30   33       AGAL     O5       OC3C61  -0.400000       15.9994           0
     33217 LPSA30   33       AGAL     C2       CC3161   0.900000E-01   12.0110           0
     33218 LPSA30   33       AGAL     H2       HCA1     0.900000E-01   1.00800           0
     33219 LPSA30   33       AGAL     O2       OC301   -0.360000       15.9994           0
     33220 LPSA30   33       AGAL     C3       CC3161   0.140000       12.0110           0
     33221 LPSA30   33       AGAL     H3       HCA1     0.900000E-01   1.00800           0
     33222 LPSA30   33       AGAL     O3       OC311   -0.650000       15.9994           0
     33223 LPSA30   33       AGAL     HO3      HCP1     0.420000       1.00800           0
     33224 LPSA30   33       AGAL     C4       CC3161   0.140000       12.0110           0
     33225 LPSA30   33       AGAL     H4       HCA1     0.900000E-01   1.00800           0
     33226 LPSA30   33       AGAL     O4       OC311   -0.650000       15.9994           0
     33227 LPSA30   33       AGAL     HO4      HCP1     0.420000       1.00800           0
     33228 LPSA30   33       AGAL     C6       CC321    0.500000E-01   12.0110           0
     33229 LPSA30   33       AGAL     H61      HCA2     0.900000E-01   1.00800           0
     33230 LPSA30   33       AGAL     H62      HCA2     0.900000E-01   1.00800           0
     33231 LPSA30   33       AGAL     O6       OC311   -0.650000       15.9994           0
     33232 LPSA30   33       AGAL     HO6      HCP1     0.420000       1.00800           0
     33233 LPSA30   34       ARHM     C1       CC3162   0.290000       12.0110           0
     33234 LPSA30   34       ARHM     H1       HCA1     0.900000E-01   1.00800           0
     33235 LPSA30   34       ARHM     C5       CC3163   0.110000       12.0110           0
     33236 LPSA30   34       ARHM     H5       HCA1     0.900000E-01   1.00800           0
     33237 LPSA30   34       ARHM     O5       OC3C61  -0.400000       15.9994           0
     33238 LPSA30   34       ARHM     C2       CC3161   0.900000E-01   12.0110           0
     33239 LPSA30   34       ARHM     H2       HCA1     0.900000E-01   1.00800           0
     33240 LPSA30   34       ARHM     O2       OC301   -0.360000       15.9994           0
     33241 LPSA30   34       ARHM     C3       CC3161   0.140000       12.0110           0
     33242 LPSA30   34       ARHM     H3       HCA1     0.900000E-01   1.00800           0
     33243 LPSA30   34       ARHM     O3       OC311   -0.650000       15.9994           0
     33244 LPSA30   34       ARHM     HO3      HCP1     0.420000       1.00800           0
     33245 LPSA30   34       ARHM     C4       CC3161   0.140000       12.0110           0
     33246 LPSA30   34       ARHM     H4       HCA1     0.900000E-01   1.00800           0
     33247 LPSA30   34       ARHM     O4       OC311   -0.650000       15.9994           0
     33248 LPSA30   34       ARHM     HO4      HCP1     0.420000       1.00800           0
     33249 LPSA30   34       ARHM     C6       CC331   -0.270000       12.0110           0
     33250 LPSA30   34       ARHM     H61      HCA3     0.900000E-01   1.00800           0
     33251 LPSA30   34       ARHM     H62      HCA3     0.900000E-01   1.00800           0
     33252 LPSA30   34       ARHM     H63      HCA3     0.900000E-01   1.00800           0
     33253 LPSA30   35       ARHM     C1       CC3162   0.290000       12.0110           0
     33254 LPSA30   35       ARHM     H1       HCA1     0.900000E-01   1.00800           0
     33255 LPSA30   35       ARHM     C5       CC3163   0.110000       12.0110           0
     33256 LPSA30   35       ARHM     H5       HCA1     0.900000E-01   1.00800           0
     33257 LPSA30   35       ARHM     O5       OC3C61  -0.400000       15.9994           0
     33258 LPSA30   35       ARHM     C2       CC3161   0.900000E-01   12.0110           0
     33259 LPSA30   35       ARHM     H2       HCA1     0.900000E-01   1.00800           0
     33260 LPSA30   35       ARHM     O2       OC301   -0.360000       15.9994           0
     33261 LPSA30   35       ARHM     C3       CC3161   0.140000       12.0110           0
     33262 LPSA30   35       ARHM     H3       HCA1     0.900000E-01   1.00800           0
     33263 LPSA30   35       ARHM     O3       OC311   -0.650000       15.9994           0
     33264 LPSA30   35       ARHM     HO3      HCP1     0.420000       1.00800           0
     33265 LPSA30   35       ARHM     C4       CC3161   0.140000       12.0110           0
     33266 LPSA30   35       ARHM     H4       HCA1     0.900000E-01   1.00800           0
     33267 LPSA30   35       ARHM     O4       OC311   -0.650000       15.9994           0
     33268 LPSA30   35       ARHM     HO4      HCP1     0.420000       1.00800           0
     33269 LPSA30   35       ARHM     C6       CC331   -0.270000       12.0110           0
     33270 LPSA30   35       ARHM     H61      HCA3     0.900000E-01   1.00800           0
     33271 LPSA30   35       ARHM     H62      HCA3     0.900000E-01   1.00800           0
     33272 LPSA30   35       ARHM     H63      HCA3     0.900000E-01   1.00800           0
     33273 LPSA30   36       BMANNA   C1       CC3162   0.290000       12.0110           0
     33274 LPSA30   36       BMANNA   H1       HCA1     0.900000E-01   1.00800           0
     33275 LPSA30   36       BMANNA   C5       CC3163   0.110000       12.0110           0
     33276 LPSA30   36       BMANNA   H5       HCA1     0.900000E-01   1.00800           0
     33277 LPSA30   36       BMANNA   O5       OC3C61  -0.400000       15.9994           0
     33278 LPSA30   36       BMANNA   C2       CC3161   0.700000E-01   12.0110           0
     33279 LPSA30   36       BMANNA   H2       HCA1     0.900000E-01   1.00800           0
     33280 LPSA30   36       BMANNA   N        NC2D1   -0.470000       14.0070           0
     33281 LPSA30   36       BMANNA   HN       HCP1     0.310000       1.00800           0
     33282 LPSA30   36       BMANNA   C        CC2O1    0.510000       12.0110           0
     33283 LPSA30   36       BMANNA   O        OC2D1   -0.510000       15.9994           0
     33284 LPSA30   36       BMANNA   CT       CC331   -0.270000       12.0110           0
     33285 LPSA30   36       BMANNA   HT1      HCA3     0.900000E-01   1.00800           0
     33286 LPSA30   36       BMANNA   HT2      HCA3     0.900000E-01   1.00800           0
     33287 LPSA30   36       BMANNA   HT3      HCA3     0.900000E-01   1.00800           0
     33288 LPSA30   36       BMANNA   C3       CC3161   0.140000       12.0110           0
     33289 LPSA30   36       BMANNA   H3       HCA1     0.900000E-01   1.00800           0
     33290 LPSA30   36       BMANNA   O3       OC311   -0.650000       15.9994           0
     33291 LPSA30   36       BMANNA   HO3      HCP1     0.420000       1.00800           0
     33292 LPSA30   36       BMANNA   C4       CC3161   0.140000       12.0110           0
     33293 LPSA30   36       BMANNA   H4       HCA1     0.900000E-01   1.00800           0
     33294 LPSA30   36       BMANNA   O4       OC311   -0.650000       15.9994           0
     33295 LPSA30   36       BMANNA   HO4      HCP1     0.420000       1.00800           0
     33296 LPSA30   36       BMANNA   C6       CC321    0.500000E-01   12.0110           0
     33297 LPSA30   36       BMANNA   H61      HCA2     0.900000E-01   1.00800           0
     33298 LPSA30   36       BMANNA   H62      HCA2     0.900000E-01   1.00800           0
     33299 LPSA30   36       BMANNA   O6       OC311   -0.650000       15.9994           0
     33300 LPSA30   36       BMANNA   HO6      HCP1     0.420000       1.00800           0
     33301 LPSA31   1        ECLIPA   HB6S     HCA2     0.900000E-01   1.00800           0
     33302 LPSA31   1        ECLIPA   OB6      OC301   -0.360000       15.9994           0
     33303 LPSA31   1        ECLIPA   CB6      CC321     0.00000       12.0110           0
     33304 LPSA31   1        ECLIPA   HB6R     HCA2     0.900000E-01   1.00800           0
     33305 LPSA31   1        ECLIPA   CB5      CC3163   0.110000       12.0110           0
     33306 LPSA31   1        ECLIPA   OB5      OC3C61  -0.400000       15.9994           0
     33307 LPSA31   1        ECLIPA   HB5      HCA1     0.900000E-01   1.00800           0
     33308 LPSA31   1        ECLIPA   CB1      CC3162   0.290000       12.0110           0
     33309 LPSA31   1        ECLIPA   HB1      HCA1     0.900000E-01   1.00800           0
     33310 LPSA31   1        ECLIPA   OA6      OC301   -0.360000       15.9994           0
     33311 LPSA31   1        ECLIPA   CA6      CC321     0.00000       12.0110           0
     33312 LPSA31   1        ECLIPA   HA6R     HCA2     0.900000E-01   1.00800           0
     33313 LPSA31   1        ECLIPA   HA6S     HCA2     0.900000E-01   1.00800           0
     33314 LPSA31   1        ECLIPA   CB4      CC3161  -0.900000E-01   12.0110           0
     33315 LPSA31   1        ECLIPA   HB4      HCA1     0.900000E-01   1.00800           0
     33316 LPSA31   1        ECLIPA   OB4      OC30P   -0.400000       15.9994           0
     33317 LPSA31   1        ECLIPA   PB       PC        1.10000       30.9740           0
     33318 LPSA31   1        ECLIPA   OPB4     OC2DP   -0.900000       15.9994           0
     33319 LPSA31   1        ECLIPA   OPB3     OC2DP   -0.900000       15.9994           0
     33320 LPSA31   1        ECLIPA   OPB2     OC2DP   -0.900000       15.9994           0
     33321 LPSA31   1        ECLIPA   CB3      CC3161   0.170000       12.0110           0
     33322 LPSA31   1        ECLIPA   OB3      OC301   -0.490000       15.9994           0
     33323 LPSA31   1        ECLIPA   HB3      HCA1     0.900000E-01   1.00800           0
     33324 LPSA31   1        ECLIPA   C71      CL       0.900000       12.0110           0
     33325 LPSA31   1        ECLIPA   O71      OBL     -0.630000       15.9994           0
     33326 LPSA31   1        ECLIPA   C72      CTL2    -0.220000       12.0110           0
     33327 LPSA31   1        ECLIPA   H72R     HAL2     0.900000E-01   1.00800           0
     33328 LPSA31   1        ECLIPA   H72S     HAL2     0.900000E-01   1.00800           0
     33329 LPSA31   1        ECLIPA   CB2      CC3161   0.700000E-01   12.0110           0
     33330 LPSA31   1        ECLIPA   HB2      HCA1     0.900000E-01   1.00800           0
     33331 LPSA31   1        ECLIPA   NB2      NC2D1   -0.470000       14.0070           0
     33332 LPSA31   1        ECLIPA   HNB2     HCP1     0.310000       1.00800           0
     33333 LPSA31   1        ECLIPA   CA4      CC3161   0.140000       12.0110           0
     33334 LPSA31   1        ECLIPA   HA4      HCA1     0.900000E-01   1.00800           0
     33335 LPSA31   1        ECLIPA   OA4      OC311   -0.650000       15.9994           0
     33336 LPSA31   1        ECLIPA   HOA4     HCP1     0.420000       1.00800           0
     33337 LPSA31   1        ECLIPA   CA5      CC3163   0.110000       12.0110           0
     33338 LPSA31   1        ECLIPA   HA5      HCA1     0.900000E-01   1.00800           0
     33339 LPSA31   1        ECLIPA   OA5      OC3C61  -0.400000       15.9994           0
     33340 LPSA31   1        ECLIPA   CA1      CC3162   0.110000       12.0110           0
     33341 LPSA31   1        ECLIPA   HA1      HCA1     0.900000E-01   1.00800           0
     33342 LPSA31   1        ECLIPA   OA1      OC30P   -0.400000       15.9994           0
     33343 LPSA31   1        ECLIPA   OPA2     OC2DP   -0.900000       15.9994           0
     33344 LPSA31   1        ECLIPA   OPA3     OC2DP   -0.900000       15.9994           0
     33345 LPSA31   1        ECLIPA   OPA4     OC2DP   -0.900000       15.9994           0
     33346 LPSA31   1        ECLIPA   PA       PC        1.10000       30.9740           0
     33347 LPSA31   1        ECLIPA   CA3      CC3161   0.170000       12.0110           0
     33348 LPSA31   1        ECLIPA   HA3      HCA1     0.900000E-01   1.00800           0
     33349 LPSA31   1        ECLIPA   OA3      OC301   -0.490000       15.9994           0
     33350 LPSA31   1        ECLIPA   C31      CL       0.900000       12.0110           0
     33351 LPSA31   1        ECLIPA   O31      OBL     -0.630000       15.9994           0
     33352 LPSA31   1        ECLIPA   C32      CTL2    -0.220000       12.0110           0
     33353 LPSA31   1        ECLIPA   H32R     HAL2     0.900000E-01   1.00800           0
     33354 LPSA31   1        ECLIPA   H32S     HAL2     0.900000E-01   1.00800           0
     33355 LPSA31   1        ECLIPA   CA2      CC3161   0.700000E-01   12.0110           0
     33356 LPSA31   1        ECLIPA   HA2      HCA1     0.900000E-01   1.00800           0
     33357 LPSA31   1        ECLIPA   NA2      NC2D1   -0.470000       14.0070           0
     33358 LPSA31   1        ECLIPA   HNA2     HCP1     0.310000       1.00800           0
     33359 LPSA31   1        ECLIPA   C73      CTL1     0.170000       12.0110           0
     33360 LPSA31   1        ECLIPA   H73R     HAL1     0.900000E-01   1.00800           0
     33361 LPSA31   1        ECLIPA   O73      OSL     -0.490000       15.9994           0
     33362 LPSA31   1        ECLIPA   C81      CL       0.900000       12.0110           0
     33363 LPSA31   1        ECLIPA   O81      OBL     -0.630000       15.9994           0
     33364 LPSA31   1        ECLIPA   C82      CTL2    -0.220000       12.0110           0
     33365 LPSA31   1        ECLIPA   H82R     HAL2     0.900000E-01   1.00800           0
     33366 LPSA31   1        ECLIPA   H82S     HAL2     0.900000E-01   1.00800           0
     33367 LPSA31   1        ECLIPA   C83      CTL2    -0.180000       12.0110           0
     33368 LPSA31   1        ECLIPA   H83R     HAL2     0.900000E-01   1.00800           0
     33369 LPSA31   1        ECLIPA   H83S     HAL2     0.900000E-01   1.00800           0
     33370 LPSA31   1        ECLIPA   C84      CTL2    -0.180000       12.0110           0
     33371 LPSA31   1        ECLIPA   H84R     HAL2     0.900000E-01   1.00800           0
     33372 LPSA31   1        ECLIPA   H84S     HAL2     0.900000E-01   1.00800           0
     33373 LPSA31   1        ECLIPA   C85      CTL2    -0.180000       12.0110           0
     33374 LPSA31   1        ECLIPA   H85R     HAL2     0.900000E-01   1.00800           0
     33375 LPSA31   1        ECLIPA   H85S     HAL2     0.900000E-01   1.00800           0
     33376 LPSA31   1        ECLIPA   C86      CTL2    -0.180000       12.0110           0
     33377 LPSA31   1        ECLIPA   H86R     HAL2     0.900000E-01   1.00800           0
     33378 LPSA31   1        ECLIPA   H86S     HAL2     0.900000E-01   1.00800           0
     33379 LPSA31   1        ECLIPA   C87      CTL2    -0.180000       12.0110           0
     33380 LPSA31   1        ECLIPA   H87R     HAL2     0.900000E-01   1.00800           0
     33381 LPSA31   1        ECLIPA   H87S     HAL2     0.900000E-01   1.00800           0
     33382 LPSA31   1        ECLIPA   C88      CTL2    -0.180000       12.0110           0
     33383 LPSA31   1        ECLIPA   H88R     HAL2     0.900000E-01   1.00800           0
     33384 LPSA31   1        ECLIPA   H88S     HAL2     0.900000E-01   1.00800           0
     33385 LPSA31   1        ECLIPA   C89      CTL2    -0.180000       12.0110           0
     33386 LPSA31   1        ECLIPA   H89R     HAL2     0.900000E-01   1.00800           0
     33387 LPSA31   1        ECLIPA   H89S     HAL2     0.900000E-01   1.00800           0
     33388 LPSA31   1        ECLIPA   C810     CTL2    -0.180000       12.0110           0
     33389 LPSA31   1        ECLIPA   H810R    HAL2     0.900000E-01   1.00800           0
     33390 LPSA31   1        ECLIPA   H810S    HAL2     0.900000E-01   1.00800           0
     33391 LPSA31   1        ECLIPA   C811     CTL2    -0.180000       12.0110           0
     33392 LPSA31   1        ECLIPA   H811R    HAL2     0.900000E-01   1.00800           0
     33393 LPSA31   1        ECLIPA   H811S    HAL2     0.900000E-01   1.00800           0
     33394 LPSA31   1        ECLIPA   C812     CTL2    -0.180000       12.0110           0
     33395 LPSA31   1        ECLIPA   H812R    HAL2     0.900000E-01   1.00800           0
     33396 LPSA31   1        ECLIPA   H812S    HAL2     0.900000E-01   1.00800           0
     33397 LPSA31   1        ECLIPA   C813     CTL2    -0.180000       12.0110           0
     33398 LPSA31   1        ECLIPA   H813R    HAL2     0.900000E-01   1.00800           0
     33399 LPSA31   1        ECLIPA   H813S    HAL2     0.900000E-01   1.00800           0
     33400 LPSA31   1        ECLIPA   C814     CTL3    -0.270000       12.0110           0
     33401 LPSA31   1        ECLIPA   H814R    HAL3     0.900000E-01   1.00800           0
     33402 LPSA31   1        ECLIPA   H814S    HAL3     0.900000E-01   1.00800           0
     33403 LPSA31   1        ECLIPA   H814T    HAL3     0.900000E-01   1.00800           0
     33404 LPSA31   1        ECLIPA   C74      CTL2    -0.180000       12.0110           0
     33405 LPSA31   1        ECLIPA   H74R     HAL2     0.900000E-01   1.00800           0
     33406 LPSA31   1        ECLIPA   H74S     HAL2     0.900000E-01   1.00800           0
     33407 LPSA31   1        ECLIPA   C75      CTL2    -0.180000       12.0110           0
     33408 LPSA31   1        ECLIPA   H75R     HAL2     0.900000E-01   1.00800           0
     33409 LPSA31   1        ECLIPA   H75S     HAL2     0.900000E-01   1.00800           0
     33410 LPSA31   1        ECLIPA   C76      CTL2    -0.180000       12.0110           0
     33411 LPSA31   1        ECLIPA   H76R     HAL2     0.900000E-01   1.00800           0
     33412 LPSA31   1        ECLIPA   H76S     HAL2     0.900000E-01   1.00800           0
     33413 LPSA31   1        ECLIPA   C77      CTL2    -0.180000       12.0110           0
     33414 LPSA31   1        ECLIPA   H77R     HAL2     0.900000E-01   1.00800           0
     33415 LPSA31   1        ECLIPA   H77S     HAL2     0.900000E-01   1.00800           0
     33416 LPSA31   1        ECLIPA   C78      CTL2    -0.180000       12.0110           0
     33417 LPSA31   1        ECLIPA   H78R     HAL2     0.900000E-01   1.00800           0
     33418 LPSA31   1        ECLIPA   H78S     HAL2     0.900000E-01   1.00800           0
     33419 LPSA31   1        ECLIPA   C79      CTL2    -0.180000       12.0110           0
     33420 LPSA31   1        ECLIPA   H79R     HAL2     0.900000E-01   1.00800           0
     33421 LPSA31   1        ECLIPA   H79S     HAL2     0.900000E-01   1.00800           0
     33422 LPSA31   1        ECLIPA   C710     CTL2    -0.180000       12.0110           0
     33423 LPSA31   1        ECLIPA   H710R    HAL2     0.900000E-01   1.00800           0
     33424 LPSA31   1        ECLIPA   H710S    HAL2     0.900000E-01   1.00800           0
     33425 LPSA31   1        ECLIPA   C711     CTL2    -0.180000       12.0110           0
     33426 LPSA31   1        ECLIPA   H711R    HAL2     0.900000E-01   1.00800           0
     33427 LPSA31   1        ECLIPA   H711S    HAL2     0.900000E-01   1.00800           0
     33428 LPSA31   1        ECLIPA   C712     CTL2    -0.180000       12.0110           0
     33429 LPSA31   1        ECLIPA   H712R    HAL2     0.900000E-01   1.00800           0
     33430 LPSA31   1        ECLIPA   H712S    HAL2     0.900000E-01   1.00800           0
     33431 LPSA31   1        ECLIPA   C713     CTL2    -0.180000       12.0110           0
     33432 LPSA31   1        ECLIPA   H713R    HAL2     0.900000E-01   1.00800           0
     33433 LPSA31   1        ECLIPA   H713S    HAL2     0.900000E-01   1.00800           0
     33434 LPSA31   1        ECLIPA   C714     CTL3    -0.270000       12.0110           0
     33435 LPSA31   1        ECLIPA   H714R    HAL3     0.900000E-01   1.00800           0
     33436 LPSA31   1        ECLIPA   H714S    HAL3     0.900000E-01   1.00800           0
     33437 LPSA31   1        ECLIPA   H714T    HAL3     0.900000E-01   1.00800           0
     33438 LPSA31   1        ECLIPA   C51      CC2O1    0.550000       12.0110           0
     33439 LPSA31   1        ECLIPA   O51      OC2D1   -0.550000       15.9994           0
     33440 LPSA31   1        ECLIPA   C52      CTL2    -0.180000       12.0110           0
     33441 LPSA31   1        ECLIPA   H52R     HAL2     0.900000E-01   1.00800           0
     33442 LPSA31   1        ECLIPA   H52S     HAL2     0.900000E-01   1.00800           0
     33443 LPSA31   1        ECLIPA   C53      CTL1     0.170000       12.0110           0
     33444 LPSA31   1        ECLIPA   H53R     HAL1     0.900000E-01   1.00800           0
     33445 LPSA31   1        ECLIPA   O53      OSL     -0.490000       15.9994           0
     33446 LPSA31   1        ECLIPA   C61      CL       0.900000       12.0110           0
     33447 LPSA31   1        ECLIPA   O61      OBL     -0.630000       15.9994           0
     33448 LPSA31   1        ECLIPA   C62      CTL2    -0.220000       12.0110           0
     33449 LPSA31   1        ECLIPA   H62R     HAL2     0.900000E-01   1.00800           0
     33450 LPSA31   1        ECLIPA   H62S     HAL2     0.900000E-01   1.00800           0
     33451 LPSA31   1        ECLIPA   C63      CTL2    -0.180000       12.0110           0
     33452 LPSA31   1        ECLIPA   H63R     HAL2     0.900000E-01   1.00800           0
     33453 LPSA31   1        ECLIPA   H63S     HAL2     0.900000E-01   1.00800           0
     33454 LPSA31   1        ECLIPA   C64      CTL2    -0.180000       12.0110           0
     33455 LPSA31   1        ECLIPA   H64R     HAL2     0.900000E-01   1.00800           0
     33456 LPSA31   1        ECLIPA   H64S     HAL2     0.900000E-01   1.00800           0
     33457 LPSA31   1        ECLIPA   C65      CTL2    -0.180000       12.0110           0
     33458 LPSA31   1        ECLIPA   H65R     HAL2     0.900000E-01   1.00800           0
     33459 LPSA31   1        ECLIPA   H65S     HAL2     0.900000E-01   1.00800           0
     33460 LPSA31   1        ECLIPA   C66      CTL2    -0.180000       12.0110           0
     33461 LPSA31   1        ECLIPA   H66R     HAL2     0.900000E-01   1.00800           0
     33462 LPSA31   1        ECLIPA   H66S     HAL2     0.900000E-01   1.00800           0
     33463 LPSA31   1        ECLIPA   C67      CTL2    -0.180000       12.0110           0
     33464 LPSA31   1        ECLIPA   H67R     HAL2     0.900000E-01   1.00800           0
     33465 LPSA31   1        ECLIPA   H67S     HAL2     0.900000E-01   1.00800           0
     33466 LPSA31   1        ECLIPA   C68      CTL2    -0.180000       12.0110           0
     33467 LPSA31   1        ECLIPA   H68R     HAL2     0.900000E-01   1.00800           0
     33468 LPSA31   1        ECLIPA   H68S     HAL2     0.900000E-01   1.00800           0
     33469 LPSA31   1        ECLIPA   C69      CTL2    -0.180000       12.0110           0
     33470 LPSA31   1        ECLIPA   H69R     HAL2     0.900000E-01   1.00800           0
     33471 LPSA31   1        ECLIPA   H69S     HAL2     0.900000E-01   1.00800           0
     33472 LPSA31   1        ECLIPA   C610     CTL2    -0.180000       12.0110           0
     33473 LPSA31   1        ECLIPA   H610R    HAL2     0.900000E-01   1.00800           0
     33474 LPSA31   1        ECLIPA   H610S    HAL2     0.900000E-01   1.00800           0
     33475 LPSA31   1        ECLIPA   C611     CTL2    -0.180000       12.0110           0
     33476 LPSA31   1        ECLIPA   H611R    HAL2     0.900000E-01   1.00800           0
     33477 LPSA31   1        ECLIPA   H611S    HAL2     0.900000E-01   1.00800           0
     33478 LPSA31   1        ECLIPA   C612     CTL3    -0.270000       12.0110           0
     33479 LPSA31   1        ECLIPA   H612R    HAL3     0.900000E-01   1.00800           0
     33480 LPSA31   1        ECLIPA   H612S    HAL3     0.900000E-01   1.00800           0
     33481 LPSA31   1        ECLIPA   H612T    HAL3     0.900000E-01   1.00800           0
     33482 LPSA31   1        ECLIPA   C54      CTL2    -0.180000       12.0110           0
     33483 LPSA31   1        ECLIPA   H54R     HAL2     0.900000E-01   1.00800           0
     33484 LPSA31   1        ECLIPA   H54S     HAL2     0.900000E-01   1.00800           0
     33485 LPSA31   1        ECLIPA   C55      CTL2    -0.180000       12.0110           0
     33486 LPSA31   1        ECLIPA   H55R     HAL2     0.900000E-01   1.00800           0
     33487 LPSA31   1        ECLIPA   H55S     HAL2     0.900000E-01   1.00800           0
     33488 LPSA31   1        ECLIPA   C56      CTL2    -0.180000       12.0110           0
     33489 LPSA31   1        ECLIPA   H56R     HAL2     0.900000E-01   1.00800           0
     33490 LPSA31   1        ECLIPA   H56S     HAL2     0.900000E-01   1.00800           0
     33491 LPSA31   1        ECLIPA   C57      CTL2    -0.180000       12.0110           0
     33492 LPSA31   1        ECLIPA   H57R     HAL2     0.900000E-01   1.00800           0
     33493 LPSA31   1        ECLIPA   H57S     HAL2     0.900000E-01   1.00800           0
     33494 LPSA31   1        ECLIPA   C58      CTL2    -0.180000       12.0110           0
     33495 LPSA31   1        ECLIPA   H58R     HAL2     0.900000E-01   1.00800           0
     33496 LPSA31   1        ECLIPA   H58S     HAL2     0.900000E-01   1.00800           0
     33497 LPSA31   1        ECLIPA   C59      CTL2    -0.180000       12.0110           0
     33498 LPSA31   1        ECLIPA   H59R     HAL2     0.900000E-01   1.00800           0
     33499 LPSA31   1        ECLIPA   H59S     HAL2     0.900000E-01   1.00800           0
     33500 LPSA31   1        ECLIPA   C510     CTL2    -0.180000       12.0110           0
     33501 LPSA31   1        ECLIPA   H510R    HAL2     0.900000E-01   1.00800           0
     33502 LPSA31   1        ECLIPA   H510S    HAL2     0.900000E-01   1.00800           0
     33503 LPSA31   1        ECLIPA   C511     CTL2    -0.180000       12.0110           0
     33504 LPSA31   1        ECLIPA   H511R    HAL2     0.900000E-01   1.00800           0
     33505 LPSA31   1        ECLIPA   H511S    HAL2     0.900000E-01   1.00800           0
     33506 LPSA31   1        ECLIPA   C512     CTL2    -0.180000       12.0110           0
     33507 LPSA31   1        ECLIPA   H512R    HAL2     0.900000E-01   1.00800           0
     33508 LPSA31   1        ECLIPA   H512S    HAL2     0.900000E-01   1.00800           0
     33509 LPSA31   1        ECLIPA   C513     CTL2    -0.180000       12.0110           0
     33510 LPSA31   1        ECLIPA   H513R    HAL2     0.900000E-01   1.00800           0
     33511 LPSA31   1        ECLIPA   H513S    HAL2     0.900000E-01   1.00800           0
     33512 LPSA31   1        ECLIPA   C514     CTL3    -0.270000       12.0110           0
     33513 LPSA31   1        ECLIPA   H514R    HAL3     0.900000E-01   1.00800           0
     33514 LPSA31   1        ECLIPA   H514S    HAL3     0.900000E-01   1.00800           0
     33515 LPSA31   1        ECLIPA   H514T    HAL3     0.900000E-01   1.00800           0
     33516 LPSA31   1        ECLIPA   C33      CTL1     0.140000       12.0110           0
     33517 LPSA31   1        ECLIPA   H33R     HAL1     0.900000E-01   1.00800           0
     33518 LPSA31   1        ECLIPA   O33      OH1     -0.660000       15.9994           0
     33519 LPSA31   1        ECLIPA   HO33     H        0.430000       1.00800           0
     33520 LPSA31   1        ECLIPA   C34      CTL2    -0.180000       12.0110           0
     33521 LPSA31   1        ECLIPA   H34R     HAL2     0.900000E-01   1.00800           0
     33522 LPSA31   1        ECLIPA   H34S     HAL2     0.900000E-01   1.00800           0
     33523 LPSA31   1        ECLIPA   C35      CTL2    -0.180000       12.0110           0
     33524 LPSA31   1        ECLIPA   H35R     HAL2     0.900000E-01   1.00800           0
     33525 LPSA31   1        ECLIPA   H35S     HAL2     0.900000E-01   1.00800           0
     33526 LPSA31   1        ECLIPA   C36      CTL2    -0.180000       12.0110           0
     33527 LPSA31   1        ECLIPA   H36R     HAL2     0.900000E-01   1.00800           0
     33528 LPSA31   1        ECLIPA   H36S     HAL2     0.900000E-01   1.00800           0
     33529 LPSA31   1        ECLIPA   C37      CTL2    -0.180000       12.0110           0
     33530 LPSA31   1        ECLIPA   H37R     HAL2     0.900000E-01   1.00800           0
     33531 LPSA31   1        ECLIPA   H37S     HAL2     0.900000E-01   1.00800           0
     33532 LPSA31   1        ECLIPA   C38      CTL2    -0.180000       12.0110           0
     33533 LPSA31   1        ECLIPA   H38R     HAL2     0.900000E-01   1.00800           0
     33534 LPSA31   1        ECLIPA   H38S     HAL2     0.900000E-01   1.00800           0
     33535 LPSA31   1        ECLIPA   C39      CTL2    -0.180000       12.0110           0
     33536 LPSA31   1        ECLIPA   H39R     HAL2     0.900000E-01   1.00800           0
     33537 LPSA31   1        ECLIPA   H39S     HAL2     0.900000E-01   1.00800           0
     33538 LPSA31   1        ECLIPA   C310     CTL2    -0.180000       12.0110           0
     33539 LPSA31   1        ECLIPA   H310R    HAL2     0.900000E-01   1.00800           0
     33540 LPSA31   1        ECLIPA   H310S    HAL2     0.900000E-01   1.00800           0
     33541 LPSA31   1        ECLIPA   C311     CTL2    -0.180000       12.0110           0
     33542 LPSA31   1        ECLIPA   H311R    HAL2     0.900000E-01   1.00800           0
     33543 LPSA31   1        ECLIPA   H311S    HAL2     0.900000E-01   1.00800           0
     33544 LPSA31   1        ECLIPA   C312     CTL2    -0.180000       12.0110           0
     33545 LPSA31   1        ECLIPA   H312R    HAL2     0.900000E-01   1.00800           0
     33546 LPSA31   1        ECLIPA   H312S    HAL2     0.900000E-01   1.00800           0
     33547 LPSA31   1        ECLIPA   C313     CTL2    -0.180000       12.0110           0
     33548 LPSA31   1        ECLIPA   H313R    HAL2     0.900000E-01   1.00800           0
     33549 LPSA31   1        ECLIPA   H313S    HAL2     0.900000E-01   1.00800           0
     33550 LPSA31   1        ECLIPA   C314     CTL3    -0.270000       12.0110           0
     33551 LPSA31   1        ECLIPA   H314R    HAL3     0.900000E-01   1.00800           0
     33552 LPSA31   1        ECLIPA   H314S    HAL3     0.900000E-01   1.00800           0
     33553 LPSA31   1        ECLIPA   H314T    HAL3     0.900000E-01   1.00800           0
     33554 LPSA31   1        ECLIPA   C11      CC2O1    0.550000       12.0110           0
     33555 LPSA31   1        ECLIPA   O11      OC2D1   -0.550000       15.9994           0
     33556 LPSA31   1        ECLIPA   C12      CTL2    -0.180000       12.0110           0
     33557 LPSA31   1        ECLIPA   H12R     HAL2     0.900000E-01   1.00800           0
     33558 LPSA31   1        ECLIPA   H12S     HAL2     0.900000E-01   1.00800           0
     33559 LPSA31   1        ECLIPA   C13      CTL1     0.140000       12.0110           0
     33560 LPSA31   1        ECLIPA   H13R     HAL1     0.900000E-01   1.00800           0
     33561 LPSA31   1        ECLIPA   O13      OH1     -0.660000       15.9994           0
     33562 LPSA31   1        ECLIPA   HO13     H        0.430000       1.00800           0
     33563 LPSA31   1        ECLIPA   C14      CTL2    -0.180000       12.0110           0
     33564 LPSA31   1        ECLIPA   H14R     HAL2     0.900000E-01   1.00800           0
     33565 LPSA31   1        ECLIPA   H14S     HAL2     0.900000E-01   1.00800           0
     33566 LPSA31   1        ECLIPA   C15      CTL2    -0.180000       12.0110           0
     33567 LPSA31   1        ECLIPA   H15R     HAL2     0.900000E-01   1.00800           0
     33568 LPSA31   1        ECLIPA   H15S     HAL2     0.900000E-01   1.00800           0
     33569 LPSA31   1        ECLIPA   C16      CTL2    -0.180000       12.0110           0
     33570 LPSA31   1        ECLIPA   H16R     HAL2     0.900000E-01   1.00800           0
     33571 LPSA31   1        ECLIPA   H16S     HAL2     0.900000E-01   1.00800           0
     33572 LPSA31   1        ECLIPA   C17      CTL2    -0.180000       12.0110           0
     33573 LPSA31   1        ECLIPA   H17R     HAL2     0.900000E-01   1.00800           0
     33574 LPSA31   1        ECLIPA   H17S     HAL2     0.900000E-01   1.00800           0
     33575 LPSA31   1        ECLIPA   C18      CTL2    -0.180000       12.0110           0
     33576 LPSA31   1        ECLIPA   H18R     HAL2     0.900000E-01   1.00800           0
     33577 LPSA31   1        ECLIPA   H18S     HAL2     0.900000E-01   1.00800           0
     33578 LPSA31   1        ECLIPA   C19      CTL2    -0.180000       12.0110           0
     33579 LPSA31   1        ECLIPA   H19R     HAL2     0.900000E-01   1.00800           0
     33580 LPSA31   1        ECLIPA   H19S     HAL2     0.900000E-01   1.00800           0
     33581 LPSA31   1        ECLIPA   C110     CTL2    -0.180000       12.0110           0
     33582 LPSA31   1        ECLIPA   H110R    HAL2     0.900000E-01   1.00800           0
     33583 LPSA31   1        ECLIPA   H110S    HAL2     0.900000E-01   1.00800           0
     33584 LPSA31   1        ECLIPA   C111     CTL2    -0.180000       12.0110           0
     33585 LPSA31   1        ECLIPA   H111R    HAL2     0.900000E-01   1.00800           0
     33586 LPSA31   1        ECLIPA   H111S    HAL2     0.900000E-01   1.00800           0
     33587 LPSA31   1        ECLIPA   C112     CTL2    -0.180000       12.0110           0
     33588 LPSA31   1        ECLIPA   H112R    HAL2     0.900000E-01   1.00800           0
     33589 LPSA31   1        ECLIPA   H112S    HAL2     0.900000E-01   1.00800           0
     33590 LPSA31   1        ECLIPA   C113     CTL2    -0.180000       12.0110           0
     33591 LPSA31   1        ECLIPA   H113R    HAL2     0.900000E-01   1.00800           0
     33592 LPSA31   1        ECLIPA   H113S    HAL2     0.900000E-01   1.00800           0
     33593 LPSA31   1        ECLIPA   C114     CTL3    -0.270000       12.0110           0
     33594 LPSA31   1        ECLIPA   H114R    HAL3     0.900000E-01   1.00800           0
     33595 LPSA31   1        ECLIPA   H114S    HAL3     0.900000E-01   1.00800           0
     33596 LPSA31   1        ECLIPA   H114T    HAL3     0.900000E-01   1.00800           0
     33597 LPSA31   2        AKDO     C1       CC2O2    0.300000       12.0110           0
     33598 LPSA31   2        AKDO     O11      OC2D2   -0.600000       15.9994           0
     33599 LPSA31   2        AKDO     O12      OC2D2   -0.600000       15.9994           0
     33600 LPSA31   2        AKDO     C2       CC3062   0.280000       12.0110           0
     33601 LPSA31   2        AKDO     C6       CC3163   0.110000       12.0110           0
     33602 LPSA31   2        AKDO     H6       HCA1     0.900000E-01   1.00800           0
     33603 LPSA31   2        AKDO     O6       OC3C61  -0.400000       15.9994           0
     33604 LPSA31   2        AKDO     C3       CC3261  -0.180000       12.0110           0
     33605 LPSA31   2        AKDO     H31      HCA2     0.900000E-01   1.00800           0
     33606 LPSA31   2        AKDO     H32      HCA2     0.900000E-01   1.00800           0
     33607 LPSA31   2        AKDO     C4       CC3161   0.900000E-01   12.0110           0
     33608 LPSA31   2        AKDO     H4       HCA1     0.900000E-01   1.00800           0
     33609 LPSA31   2        AKDO     O4       OC301   -0.360000       15.9994           0
     33610 LPSA31   2        AKDO     C5       CC3161   0.900000E-01   12.0110           0
     33611 LPSA31   2        AKDO     H5       HCA1     0.900000E-01   1.00800           0
     33612 LPSA31   2        AKDO     O5       OC301   -0.360000       15.9994           0
     33613 LPSA31   2        AKDO     C7       CC312    0.140000       12.0110           0
     33614 LPSA31   2        AKDO     H7       HCA1     0.900000E-01   1.00800           0
     33615 LPSA31   2        AKDO     O7       OC311   -0.650000       15.9994           0
     33616 LPSA31   2        AKDO     HO7      HCP1     0.420000       1.00800           0
     33617 LPSA31   2        AKDO     C8       CC322    0.500000E-01   12.0110           0
     33618 LPSA31   2        AKDO     H81      HCA2     0.900000E-01   1.00800           0
     33619 LPSA31   2        AKDO     H82      HCA2     0.900000E-01   1.00800           0
     33620 LPSA31   2        AKDO     O8       OC311   -0.650000       15.9994           0
     33621 LPSA31   2        AKDO     HO8      HCP1     0.420000       1.00800           0
     33622 LPSA31   3        AKDO     C1       CC2O2    0.300000       12.0110           0
     33623 LPSA31   3        AKDO     O11      OC2D2   -0.600000       15.9994           0
     33624 LPSA31   3        AKDO     O12      OC2D2   -0.600000       15.9994           0
     33625 LPSA31   3        AKDO     C2       CC3062   0.280000       12.0110           0
     33626 LPSA31   3        AKDO     C6       CC3163   0.110000       12.0110           0
     33627 LPSA31   3        AKDO     H6       HCA1     0.900000E-01   1.00800           0
     33628 LPSA31   3        AKDO     O6       OC3C61  -0.400000       15.9994           0
     33629 LPSA31   3        AKDO     C3       CC3261  -0.180000       12.0110           0
     33630 LPSA31   3        AKDO     H31      HCA2     0.900000E-01   1.00800           0
     33631 LPSA31   3        AKDO     H32      HCA2     0.900000E-01   1.00800           0
     33632 LPSA31   3        AKDO     C4       CC3161   0.140000       12.0110           0
     33633 LPSA31   3        AKDO     H4       HCA1     0.900000E-01   1.00800           0
     33634 LPSA31   3        AKDO     O4       OC311   -0.650000       15.9994           0
     33635 LPSA31   3        AKDO     HO4      HCP1     0.420000       1.00800           0
     33636 LPSA31   3        AKDO     C5       CC3161   0.140000       12.0110           0
     33637 LPSA31   3        AKDO     H5       HCA1     0.900000E-01   1.00800           0
     33638 LPSA31   3        AKDO     O5       OC311   -0.650000       15.9994           0
     33639 LPSA31   3        AKDO     HO5      HCP1     0.420000       1.00800           0
     33640 LPSA31   3        AKDO     C7       CC312    0.140000       12.0110           0
     33641 LPSA31   3        AKDO     H7       HCA1     0.900000E-01   1.00800           0
     33642 LPSA31   3        AKDO     O7       OC311   -0.650000       15.9994           0
     33643 LPSA31   3        AKDO     HO7      HCP1     0.420000       1.00800           0
     33644 LPSA31   3        AKDO     C8       CC322    0.500000E-01   12.0110           0
     33645 LPSA31   3        AKDO     H81      HCA2     0.900000E-01   1.00800           0
     33646 LPSA31   3        AKDO     H82      HCA2     0.900000E-01   1.00800           0
     33647 LPSA31   3        AKDO     O8       OC311   -0.650000       15.9994           0
     33648 LPSA31   3        AKDO     HO8      HCP1     0.420000       1.00800           0
     33649 LPSA31   4        AHEP     C1       CC3162   0.290000       12.0110           0
     33650 LPSA31   4        AHEP     H1       HCA1     0.900000E-01   1.00800           0
     33651 LPSA31   4        AHEP     C5       CC3163   0.110000       12.0110           0
     33652 LPSA31   4        AHEP     H5       HCA1     0.900000E-01   1.00800           0
     33653 LPSA31   4        AHEP     O5       OC3C61  -0.400000       15.9994           0
     33654 LPSA31   4        AHEP     C2       CC3161   0.140000       12.0110           0
     33655 LPSA31   4        AHEP     H2       HCA1     0.900000E-01   1.00800           0
     33656 LPSA31   4        AHEP     O2       OC311   -0.650000       15.9994           0
     33657 LPSA31   4        AHEP     HO2      HCP1     0.420000       1.00800           0
     33658 LPSA31   4        AHEP     C3       CC3161   0.900000E-01   12.0110           0
     33659 LPSA31   4        AHEP     H3       HCA1     0.900000E-01   1.00800           0
     33660 LPSA31   4        AHEP     O3       OC301   -0.360000       15.9994           0
     33661 LPSA31   4        AHEP     C4       CC3161  -0.900000E-01   12.0110           0
     33662 LPSA31   4        AHEP     H4       HCA1     0.900000E-01   1.00800           0
     33663 LPSA31   4        AHEP     O4       OC30P   -0.400000       15.9994           0
     33664 LPSA31   4        AHEP     P4       PC        1.10000       30.9740           0
     33665 LPSA31   4        AHEP     OP42     OC2DP   -0.900000       15.9994           0
     33666 LPSA31   4        AHEP     OP43     OC2DP   -0.900000       15.9994           0
     33667 LPSA31   4        AHEP     OP44     OC2DP   -0.900000       15.9994           0
     33668 LPSA31   4        AHEP     C6       CC312    0.140000       12.0110           0
     33669 LPSA31   4        AHEP     H6       HCA1     0.900000E-01   1.00800           0
     33670 LPSA31   4        AHEP     O6       OC311   -0.650000       15.9994           0
     33671 LPSA31   4        AHEP     HO6      HCP1     0.420000       1.00800           0
     33672 LPSA31   4        AHEP     C7       CC322    0.500000E-01   12.0110           0
     33673 LPSA31   4        AHEP     H71      HCA2     0.900000E-01   1.00800           0
     33674 LPSA31   4        AHEP     H72      HCA2     0.900000E-01   1.00800           0
     33675 LPSA31   4        AHEP     O7       OC311   -0.650000       15.9994           0
     33676 LPSA31   4        AHEP     HO7      HCP1     0.420000       1.00800           0
     33677 LPSA31   5        AHEP     C1       CC3162   0.290000       12.0110           0
     33678 LPSA31   5        AHEP     H1       HCA1     0.900000E-01   1.00800           0
     33679 LPSA31   5        AHEP     C5       CC3163   0.110000       12.0110           0
     33680 LPSA31   5        AHEP     H5       HCA1     0.900000E-01   1.00800           0
     33681 LPSA31   5        AHEP     O5       OC3C61  -0.400000       15.9994           0
     33682 LPSA31   5        AHEP     C2       CC3161   0.140000       12.0110           0
     33683 LPSA31   5        AHEP     H2       HCA1     0.900000E-01   1.00800           0
     33684 LPSA31   5        AHEP     O2       OC311   -0.650000       15.9994           0
     33685 LPSA31   5        AHEP     HO2      HCP1     0.420000       1.00800           0
     33686 LPSA31   5        AHEP     C3       CC3161   0.900000E-01   12.0110           0
     33687 LPSA31   5        AHEP     H3       HCA1     0.900000E-01   1.00800           0
     33688 LPSA31   5        AHEP     O3       OC301   -0.360000       15.9994           0
     33689 LPSA31   5        AHEP     C4       CC3161  -0.900000E-01   12.0110           0
     33690 LPSA31   5        AHEP     H4       HCA1     0.900000E-01   1.00800           0
     33691 LPSA31   5        AHEP     O4       OC30P   -0.400000       15.9994           0
     33692 LPSA31   5        AHEP     P4       PC        1.10000       30.9740           0
     33693 LPSA31   5        AHEP     OP42     OC2DP   -0.900000       15.9994           0
     33694 LPSA31   5        AHEP     OP43     OC2DP   -0.900000       15.9994           0
     33695 LPSA31   5        AHEP     OP44     OC2DP   -0.900000       15.9994           0
     33696 LPSA31   5        AHEP     C6       CC312    0.140000       12.0110           0
     33697 LPSA31   5        AHEP     H6       HCA1     0.900000E-01   1.00800           0
     33698 LPSA31   5        AHEP     O6       OC311   -0.650000       15.9994           0
     33699 LPSA31   5        AHEP     HO6      HCP1     0.420000       1.00800           0
     33700 LPSA31   5        AHEP     C7       CC322     0.00000       12.0110           0
     33701 LPSA31   5        AHEP     H71      HCA2     0.900000E-01   1.00800           0
     33702 LPSA31   5        AHEP     H72      HCA2     0.900000E-01   1.00800           0
     33703 LPSA31   5        AHEP     O7       OC301   -0.360000       15.9994           0
     33704 LPSA31   6        AHEP     C1       CC3162   0.290000       12.0110           0
     33705 LPSA31   6        AHEP     H1       HCA1     0.900000E-01   1.00800           0
     33706 LPSA31   6        AHEP     C5       CC3163   0.110000       12.0110           0
     33707 LPSA31   6        AHEP     H5       HCA1     0.900000E-01   1.00800           0
     33708 LPSA31   6        AHEP     O5       OC3C61  -0.400000       15.9994           0
     33709 LPSA31   6        AHEP     C2       CC3161   0.140000       12.0110           0
     33710 LPSA31   6        AHEP     H2       HCA1     0.900000E-01   1.00800           0
     33711 LPSA31   6        AHEP     O2       OC311   -0.650000       15.9994           0
     33712 LPSA31   6        AHEP     HO2      HCP1     0.420000       1.00800           0
     33713 LPSA31   6        AHEP     C3       CC3161   0.140000       12.0110           0
     33714 LPSA31   6        AHEP     H3       HCA1     0.900000E-01   1.00800           0
     33715 LPSA31   6        AHEP     O3       OC311   -0.650000       15.9994           0
     33716 LPSA31   6        AHEP     HO3      HCP1     0.420000       1.00800           0
     33717 LPSA31   6        AHEP     C4       CC3161   0.140000       12.0110           0
     33718 LPSA31   6        AHEP     H4       HCA1     0.900000E-01   1.00800           0
     33719 LPSA31   6        AHEP     O4       OC311   -0.650000       15.9994           0
     33720 LPSA31   6        AHEP     HO4      HCP1     0.420000       1.00800           0
     33721 LPSA31   6        AHEP     C6       CC312    0.140000       12.0110           0
     33722 LPSA31   6        AHEP     H6       HCA1     0.900000E-01   1.00800           0
     33723 LPSA31   6        AHEP     O6       OC311   -0.650000       15.9994           0
     33724 LPSA31   6        AHEP     HO6      HCP1     0.420000       1.00800           0
     33725 LPSA31   6        AHEP     C7       CC322    0.500000E-01   12.0110           0
     33726 LPSA31   6        AHEP     H71      HCA2     0.900000E-01   1.00800           0
     33727 LPSA31   6        AHEP     H72      HCA2     0.900000E-01   1.00800           0
     33728 LPSA31   6        AHEP     O7       OC311   -0.650000       15.9994           0
     33729 LPSA31   6        AHEP     HO7      HCP1     0.420000       1.00800           0
     33730 LPSA31   7        AGLC     C1       CC3162   0.290000       12.0110           0
     33731 LPSA31   7        AGLC     H1       HCA1     0.900000E-01   1.00800           0
     33732 LPSA31   7        AGLC     C5       CC3163   0.110000       12.0110           0
     33733 LPSA31   7        AGLC     H5       HCA1     0.900000E-01   1.00800           0
     33734 LPSA31   7        AGLC     O5       OC3C61  -0.400000       15.9994           0
     33735 LPSA31   7        AGLC     C2       CC3161   0.140000       12.0110           0
     33736 LPSA31   7        AGLC     H2       HCA1     0.900000E-01   1.00800           0
     33737 LPSA31   7        AGLC     O2       OC311   -0.650000       15.9994           0
     33738 LPSA31   7        AGLC     HO2      HCP1     0.420000       1.00800           0
     33739 LPSA31   7        AGLC     C3       CC3161   0.900000E-01   12.0110           0
     33740 LPSA31   7        AGLC     H3       HCA1     0.900000E-01   1.00800           0
     33741 LPSA31   7        AGLC     O3       OC301   -0.360000       15.9994           0
     33742 LPSA31   7        AGLC     C4       CC3161   0.140000       12.0110           0
     33743 LPSA31   7        AGLC     H4       HCA1     0.900000E-01   1.00800           0
     33744 LPSA31   7        AGLC     O4       OC311   -0.650000       15.9994           0
     33745 LPSA31   7        AGLC     HO4      HCP1     0.420000       1.00800           0
     33746 LPSA31   7        AGLC     C6       CC321    0.500000E-01   12.0110           0
     33747 LPSA31   7        AGLC     H61      HCA2     0.900000E-01   1.00800           0
     33748 LPSA31   7        AGLC     H62      HCA2     0.900000E-01   1.00800           0
     33749 LPSA31   7        AGLC     O6       OC311   -0.650000       15.9994           0
     33750 LPSA31   7        AGLC     HO6      HCP1     0.420000       1.00800           0
     33751 LPSA31   8        AGLC     C1       CC3162   0.290000       12.0110           0
     33752 LPSA31   8        AGLC     H1       HCA1     0.900000E-01   1.00800           0
     33753 LPSA31   8        AGLC     C5       CC3163   0.110000       12.0110           0
     33754 LPSA31   8        AGLC     H5       HCA1     0.900000E-01   1.00800           0
     33755 LPSA31   8        AGLC     O5       OC3C61  -0.400000       15.9994           0
     33756 LPSA31   8        AGLC     C2       CC3161   0.900000E-01   12.0110           0
     33757 LPSA31   8        AGLC     H2       HCA1     0.900000E-01   1.00800           0
     33758 LPSA31   8        AGLC     O2       OC301   -0.360000       15.9994           0
     33759 LPSA31   8        AGLC     C3       CC3161   0.900000E-01   12.0110           0
     33760 LPSA31   8        AGLC     H3       HCA1     0.900000E-01   1.00800           0
     33761 LPSA31   8        AGLC     O3       OC301   -0.360000       15.9994           0
     33762 LPSA31   8        AGLC     C4       CC3161   0.140000       12.0110           0
     33763 LPSA31   8        AGLC     H4       HCA1     0.900000E-01   1.00800           0
     33764 LPSA31   8        AGLC     O4       OC311   -0.650000       15.9994           0
     33765 LPSA31   8        AGLC     HO4      HCP1     0.420000       1.00800           0
     33766 LPSA31   8        AGLC     C6       CC321    0.500000E-01   12.0110           0
     33767 LPSA31   8        AGLC     H61      HCA2     0.900000E-01   1.00800           0
     33768 LPSA31   8        AGLC     H62      HCA2     0.900000E-01   1.00800           0
     33769 LPSA31   8        AGLC     O6       OC311   -0.650000       15.9994           0
     33770 LPSA31   8        AGLC     HO6      HCP1     0.420000       1.00800           0
     33771 LPSA31   9        AGAL     C1       CC3162   0.290000       12.0110           0
     33772 LPSA31   9        AGAL     H1       HCA1     0.900000E-01   1.00800           0
     33773 LPSA31   9        AGAL     C5       CC3163   0.110000       12.0110           0
     33774 LPSA31   9        AGAL     H5       HCA1     0.900000E-01   1.00800           0
     33775 LPSA31   9        AGAL     O5       OC3C61  -0.400000       15.9994           0
     33776 LPSA31   9        AGAL     C2       CC3161   0.900000E-01   12.0110           0
     33777 LPSA31   9        AGAL     H2       HCA1     0.900000E-01   1.00800           0
     33778 LPSA31   9        AGAL     O2       OC301   -0.360000       15.9994           0
     33779 LPSA31   9        AGAL     C3       CC3161   0.140000       12.0110           0
     33780 LPSA31   9        AGAL     H3       HCA1     0.900000E-01   1.00800           0
     33781 LPSA31   9        AGAL     O3       OC311   -0.650000       15.9994           0
     33782 LPSA31   9        AGAL     HO3      HCP1     0.420000       1.00800           0
     33783 LPSA31   9        AGAL     C4       CC3161   0.140000       12.0110           0
     33784 LPSA31   9        AGAL     H4       HCA1     0.900000E-01   1.00800           0
     33785 LPSA31   9        AGAL     O4       OC311   -0.650000       15.9994           0
     33786 LPSA31   9        AGAL     HO4      HCP1     0.420000       1.00800           0
     33787 LPSA31   9        AGAL     C6       CC321    0.500000E-01   12.0110           0
     33788 LPSA31   9        AGAL     H61      HCA2     0.900000E-01   1.00800           0
     33789 LPSA31   9        AGAL     H62      HCA2     0.900000E-01   1.00800           0
     33790 LPSA31   9        AGAL     O6       OC311   -0.650000       15.9994           0
     33791 LPSA31   9        AGAL     HO6      HCP1     0.420000       1.00800           0
     33792 LPSA31   10       AGAL     C1       CC3162   0.290000       12.0110           0
     33793 LPSA31   10       AGAL     H1       HCA1     0.900000E-01   1.00800           0
     33794 LPSA31   10       AGAL     C5       CC3163   0.110000       12.0110           0
     33795 LPSA31   10       AGAL     H5       HCA1     0.900000E-01   1.00800           0
     33796 LPSA31   10       AGAL     O5       OC3C61  -0.400000       15.9994           0
     33797 LPSA31   10       AGAL     C2       CC3161   0.140000       12.0110           0
     33798 LPSA31   10       AGAL     H2       HCA1     0.900000E-01   1.00800           0
     33799 LPSA31   10       AGAL     O2       OC311   -0.650000       15.9994           0
     33800 LPSA31   10       AGAL     HO2      HCP1     0.420000       1.00800           0
     33801 LPSA31   10       AGAL     C3       CC3161   0.140000       12.0110           0
     33802 LPSA31   10       AGAL     H3       HCA1     0.900000E-01   1.00800           0
     33803 LPSA31   10       AGAL     O3       OC311   -0.650000       15.9994           0
     33804 LPSA31   10       AGAL     HO3      HCP1     0.420000       1.00800           0
     33805 LPSA31   10       AGAL     C4       CC3161   0.140000       12.0110           0
     33806 LPSA31   10       AGAL     H4       HCA1     0.900000E-01   1.00800           0
     33807 LPSA31   10       AGAL     O4       OC311   -0.650000       15.9994           0
     33808 LPSA31   10       AGAL     HO4      HCP1     0.420000       1.00800           0
     33809 LPSA31   10       AGAL     C6       CC321    0.500000E-01   12.0110           0
     33810 LPSA31   10       AGAL     H61      HCA2     0.900000E-01   1.00800           0
     33811 LPSA31   10       AGAL     H62      HCA2     0.900000E-01   1.00800           0
     33812 LPSA31   10       AGAL     O6       OC311   -0.650000       15.9994           0
     33813 LPSA31   10       AGAL     HO6      HCP1     0.420000       1.00800           0
     33814 LPSA31   11       BGLC     C1       CC3162   0.290000       12.0110           0
     33815 LPSA31   11       BGLC     H1       HCA1     0.900000E-01   1.00800           0
     33816 LPSA31   11       BGLC     C5       CC3163   0.110000       12.0110           0
     33817 LPSA31   11       BGLC     H5       HCA1     0.900000E-01   1.00800           0
     33818 LPSA31   11       BGLC     O5       OC3C61  -0.400000       15.9994           0
     33819 LPSA31   11       BGLC     C2       CC3161   0.140000       12.0110           0
     33820 LPSA31   11       BGLC     H2       HCA1     0.900000E-01   1.00800           0
     33821 LPSA31   11       BGLC     O2       OC311   -0.650000       15.9994           0
     33822 LPSA31   11       BGLC     HO2      HCP1     0.420000       1.00800           0
     33823 LPSA31   11       BGLC     C3       CC3161   0.900000E-01   12.0110           0
     33824 LPSA31   11       BGLC     H3       HCA1     0.900000E-01   1.00800           0
     33825 LPSA31   11       BGLC     O3       OC301   -0.360000       15.9994           0
     33826 LPSA31   11       BGLC     C4       CC3161   0.140000       12.0110           0
     33827 LPSA31   11       BGLC     H4       HCA1     0.900000E-01   1.00800           0
     33828 LPSA31   11       BGLC     O4       OC311   -0.650000       15.9994           0
     33829 LPSA31   11       BGLC     HO4      HCP1     0.420000       1.00800           0
     33830 LPSA31   11       BGLC     C6       CC321    0.500000E-01   12.0110           0
     33831 LPSA31   11       BGLC     H61      HCA2     0.900000E-01   1.00800           0
     33832 LPSA31   11       BGLC     H62      HCA2     0.900000E-01   1.00800           0
     33833 LPSA31   11       BGLC     O6       OC311   -0.650000       15.9994           0
     33834 LPSA31   11       BGLC     HO6      HCP1     0.420000       1.00800           0
     33835 LPSA31   12       BGLCNA   C1       CC3162   0.290000       12.0110           0
     33836 LPSA31   12       BGLCNA   H1       HCA1     0.900000E-01   1.00800           0
     33837 LPSA31   12       BGLCNA   C5       CC3163   0.110000       12.0110           0
     33838 LPSA31   12       BGLCNA   H5       HCA1     0.900000E-01   1.00800           0
     33839 LPSA31   12       BGLCNA   O5       OC3C61  -0.400000       15.9994           0
     33840 LPSA31   12       BGLCNA   C2       CC3161   0.700000E-01   12.0110           0
     33841 LPSA31   12       BGLCNA   H2       HCA1     0.900000E-01   1.00800           0
     33842 LPSA31   12       BGLCNA   N        NC2D1   -0.470000       14.0070           0
     33843 LPSA31   12       BGLCNA   HN       HCP1     0.310000       1.00800           0
     33844 LPSA31   12       BGLCNA   C        CC2O1    0.510000       12.0110           0
     33845 LPSA31   12       BGLCNA   O        OC2D1   -0.510000       15.9994           0
     33846 LPSA31   12       BGLCNA   CT       CC331   -0.270000       12.0110           0
     33847 LPSA31   12       BGLCNA   HT1      HCA3     0.900000E-01   1.00800           0
     33848 LPSA31   12       BGLCNA   HT2      HCA3     0.900000E-01   1.00800           0
     33849 LPSA31   12       BGLCNA   HT3      HCA3     0.900000E-01   1.00800           0
     33850 LPSA31   12       BGLCNA   C3       CC3161   0.900000E-01   12.0110           0
     33851 LPSA31   12       BGLCNA   H3       HCA1     0.900000E-01   1.00800           0
     33852 LPSA31   12       BGLCNA   O3       OC301   -0.360000       15.9994           0
     33853 LPSA31   12       BGLCNA   C4       CC3161   0.140000       12.0110           0
     33854 LPSA31   12       BGLCNA   H4       HCA1     0.900000E-01   1.00800           0
     33855 LPSA31   12       BGLCNA   O4       OC311   -0.650000       15.9994           0
     33856 LPSA31   12       BGLCNA   HO4      HCP1     0.420000       1.00800           0
     33857 LPSA31   12       BGLCNA   C6       CC321    0.500000E-01   12.0110           0
     33858 LPSA31   12       BGLCNA   H61      HCA2     0.900000E-01   1.00800           0
     33859 LPSA31   12       BGLCNA   H62      HCA2     0.900000E-01   1.00800           0
     33860 LPSA31   12       BGLCNA   O6       OC311   -0.650000       15.9994           0
     33861 LPSA31   12       BGLCNA   HO6      HCP1     0.420000       1.00800           0
     33862 LPSA31   13       AGAL     C1       CC3162   0.290000       12.0110           0
     33863 LPSA31   13       AGAL     H1       HCA1     0.900000E-01   1.00800           0
     33864 LPSA31   13       AGAL     C5       CC3163   0.110000       12.0110           0
     33865 LPSA31   13       AGAL     H5       HCA1     0.900000E-01   1.00800           0
     33866 LPSA31   13       AGAL     O5       OC3C61  -0.400000       15.9994           0
     33867 LPSA31   13       AGAL     C2       CC3161   0.900000E-01   12.0110           0
     33868 LPSA31   13       AGAL     H2       HCA1     0.900000E-01   1.00800           0
     33869 LPSA31   13       AGAL     O2       OC301   -0.360000       15.9994           0
     33870 LPSA31   13       AGAL     C3       CC3161   0.140000       12.0110           0
     33871 LPSA31   13       AGAL     H3       HCA1     0.900000E-01   1.00800           0
     33872 LPSA31   13       AGAL     O3       OC311   -0.650000       15.9994           0
     33873 LPSA31   13       AGAL     HO3      HCP1     0.420000       1.00800           0
     33874 LPSA31   13       AGAL     C4       CC3161   0.140000       12.0110           0
     33875 LPSA31   13       AGAL     H4       HCA1     0.900000E-01   1.00800           0
     33876 LPSA31   13       AGAL     O4       OC311   -0.650000       15.9994           0
     33877 LPSA31   13       AGAL     HO4      HCP1     0.420000       1.00800           0
     33878 LPSA31   13       AGAL     C6       CC321    0.500000E-01   12.0110           0
     33879 LPSA31   13       AGAL     H61      HCA2     0.900000E-01   1.00800           0
     33880 LPSA31   13       AGAL     H62      HCA2     0.900000E-01   1.00800           0
     33881 LPSA31   13       AGAL     O6       OC311   -0.650000       15.9994           0
     33882 LPSA31   13       AGAL     HO6      HCP1     0.420000       1.00800           0
     33883 LPSA31   14       ARHM     C1       CC3162   0.290000       12.0110           0
     33884 LPSA31   14       ARHM     H1       HCA1     0.900000E-01   1.00800           0
     33885 LPSA31   14       ARHM     C5       CC3163   0.110000       12.0110           0
     33886 LPSA31   14       ARHM     H5       HCA1     0.900000E-01   1.00800           0
     33887 LPSA31   14       ARHM     O5       OC3C61  -0.400000       15.9994           0
     33888 LPSA31   14       ARHM     C2       CC3161   0.900000E-01   12.0110           0
     33889 LPSA31   14       ARHM     H2       HCA1     0.900000E-01   1.00800           0
     33890 LPSA31   14       ARHM     O2       OC301   -0.360000       15.9994           0
     33891 LPSA31   14       ARHM     C3       CC3161   0.140000       12.0110           0
     33892 LPSA31   14       ARHM     H3       HCA1     0.900000E-01   1.00800           0
     33893 LPSA31   14       ARHM     O3       OC311   -0.650000       15.9994           0
     33894 LPSA31   14       ARHM     HO3      HCP1     0.420000       1.00800           0
     33895 LPSA31   14       ARHM     C4       CC3161   0.140000       12.0110           0
     33896 LPSA31   14       ARHM     H4       HCA1     0.900000E-01   1.00800           0
     33897 LPSA31   14       ARHM     O4       OC311   -0.650000       15.9994           0
     33898 LPSA31   14       ARHM     HO4      HCP1     0.420000       1.00800           0
     33899 LPSA31   14       ARHM     C6       CC331   -0.270000       12.0110           0
     33900 LPSA31   14       ARHM     H61      HCA3     0.900000E-01   1.00800           0
     33901 LPSA31   14       ARHM     H62      HCA3     0.900000E-01   1.00800           0
     33902 LPSA31   14       ARHM     H63      HCA3     0.900000E-01   1.00800           0
     33903 LPSA31   15       ARHM     C1       CC3162   0.290000       12.0110           0
     33904 LPSA31   15       ARHM     H1       HCA1     0.900000E-01   1.00800           0
     33905 LPSA31   15       ARHM     C5       CC3163   0.110000       12.0110           0
     33906 LPSA31   15       ARHM     H5       HCA1     0.900000E-01   1.00800           0
     33907 LPSA31   15       ARHM     O5       OC3C61  -0.400000       15.9994           0
     33908 LPSA31   15       ARHM     C2       CC3161   0.900000E-01   12.0110           0
     33909 LPSA31   15       ARHM     H2       HCA1     0.900000E-01   1.00800           0
     33910 LPSA31   15       ARHM     O2       OC301   -0.360000       15.9994           0
     33911 LPSA31   15       ARHM     C3       CC3161   0.900000E-01   12.0110           0
     33912 LPSA31   15       ARHM     H3       HCA1     0.900000E-01   1.00800           0
     33913 LPSA31   15       ARHM     O3       OC301   -0.360000       15.9994           0
     33914 LPSA31   15       ARHM     C4       CC3161   0.140000       12.0110           0
     33915 LPSA31   15       ARHM     H4       HCA1     0.900000E-01   1.00800           0
     33916 LPSA31   15       ARHM     O4       OC311   -0.650000       15.9994           0
     33917 LPSA31   15       ARHM     HO4      HCP1     0.420000       1.00800           0
     33918 LPSA31   15       ARHM     C6       CC331   -0.270000       12.0110           0
     33919 LPSA31   15       ARHM     H61      HCA3     0.900000E-01   1.00800           0
     33920 LPSA31   15       ARHM     H62      HCA3     0.900000E-01   1.00800           0
     33921 LPSA31   15       ARHM     H63      HCA3     0.900000E-01   1.00800           0
     33922 LPSA31   16       BMANNA   C1       CC3162   0.290000       12.0110           0
     33923 LPSA31   16       BMANNA   H1       HCA1     0.900000E-01   1.00800           0
     33924 LPSA31   16       BMANNA   C5       CC3163   0.110000       12.0110           0
     33925 LPSA31   16       BMANNA   H5       HCA1     0.900000E-01   1.00800           0
     33926 LPSA31   16       BMANNA   O5       OC3C61  -0.400000       15.9994           0
     33927 LPSA31   16       BMANNA   C2       CC3161   0.700000E-01   12.0110           0
     33928 LPSA31   16       BMANNA   H2       HCA1     0.900000E-01   1.00800           0
     33929 LPSA31   16       BMANNA   N        NC2D1   -0.470000       14.0070           0
     33930 LPSA31   16       BMANNA   HN       HCP1     0.310000       1.00800           0
     33931 LPSA31   16       BMANNA   C        CC2O1    0.510000       12.0110           0
     33932 LPSA31   16       BMANNA   O        OC2D1   -0.510000       15.9994           0
     33933 LPSA31   16       BMANNA   CT       CC331   -0.270000       12.0110           0
     33934 LPSA31   16       BMANNA   HT1      HCA3     0.900000E-01   1.00800           0
     33935 LPSA31   16       BMANNA   HT2      HCA3     0.900000E-01   1.00800           0
     33936 LPSA31   16       BMANNA   HT3      HCA3     0.900000E-01   1.00800           0
     33937 LPSA31   16       BMANNA   C3       CC3161   0.140000       12.0110           0
     33938 LPSA31   16       BMANNA   H3       HCA1     0.900000E-01   1.00800           0
     33939 LPSA31   16       BMANNA   O3       OC311   -0.650000       15.9994           0
     33940 LPSA31   16       BMANNA   HO3      HCP1     0.420000       1.00800           0
     33941 LPSA31   16       BMANNA   C4       CC3161   0.140000       12.0110           0
     33942 LPSA31   16       BMANNA   H4       HCA1     0.900000E-01   1.00800           0
     33943 LPSA31   16       BMANNA   O4       OC311   -0.650000       15.9994           0
     33944 LPSA31   16       BMANNA   HO4      HCP1     0.420000       1.00800           0
     33945 LPSA31   16       BMANNA   C6       CC321    0.500000E-01   12.0110           0
     33946 LPSA31   16       BMANNA   H61      HCA2     0.900000E-01   1.00800           0
     33947 LPSA31   16       BMANNA   H62      HCA2     0.900000E-01   1.00800           0
     33948 LPSA31   16       BMANNA   O6       OC311   -0.650000       15.9994           0
     33949 LPSA31   16       BMANNA   HO6      HCP1     0.420000       1.00800           0
     33950 LPSA31   17       BGLCNA   C1       CC3162   0.290000       12.0110           0
     33951 LPSA31   17       BGLCNA   H1       HCA1     0.900000E-01   1.00800           0
     33952 LPSA31   17       BGLCNA   C5       CC3163   0.110000       12.0110           0
     33953 LPSA31   17       BGLCNA   H5       HCA1     0.900000E-01   1.00800           0
     33954 LPSA31   17       BGLCNA   O5       OC3C61  -0.400000       15.9994           0
     33955 LPSA31   17       BGLCNA   C2       CC3161   0.700000E-01   12.0110           0
     33956 LPSA31   17       BGLCNA   H2       HCA1     0.900000E-01   1.00800           0
     33957 LPSA31   17       BGLCNA   N        NC2D1   -0.470000       14.0070           0
     33958 LPSA31   17       BGLCNA   HN       HCP1     0.310000       1.00800           0
     33959 LPSA31   17       BGLCNA   C        CC2O1    0.510000       12.0110           0
     33960 LPSA31   17       BGLCNA   O        OC2D1   -0.510000       15.9994           0
     33961 LPSA31   17       BGLCNA   CT       CC331   -0.270000       12.0110           0
     33962 LPSA31   17       BGLCNA   HT1      HCA3     0.900000E-01   1.00800           0
     33963 LPSA31   17       BGLCNA   HT2      HCA3     0.900000E-01   1.00800           0
     33964 LPSA31   17       BGLCNA   HT3      HCA3     0.900000E-01   1.00800           0
     33965 LPSA31   17       BGLCNA   C3       CC3161   0.900000E-01   12.0110           0
     33966 LPSA31   17       BGLCNA   H3       HCA1     0.900000E-01   1.00800           0
     33967 LPSA31   17       BGLCNA   O3       OC301   -0.360000       15.9994           0
     33968 LPSA31   17       BGLCNA   C4       CC3161   0.140000       12.0110           0
     33969 LPSA31   17       BGLCNA   H4       HCA1     0.900000E-01   1.00800           0
     33970 LPSA31   17       BGLCNA   O4       OC311   -0.650000       15.9994           0
     33971 LPSA31   17       BGLCNA   HO4      HCP1     0.420000       1.00800           0
     33972 LPSA31   17       BGLCNA   C6       CC321    0.500000E-01   12.0110           0
     33973 LPSA31   17       BGLCNA   H61      HCA2     0.900000E-01   1.00800           0
     33974 LPSA31   17       BGLCNA   H62      HCA2     0.900000E-01   1.00800           0
     33975 LPSA31   17       BGLCNA   O6       OC311   -0.650000       15.9994           0
     33976 LPSA31   17       BGLCNA   HO6      HCP1     0.420000       1.00800           0
     33977 LPSA31   18       AGAL     C1       CC3162   0.290000       12.0110           0
     33978 LPSA31   18       AGAL     H1       HCA1     0.900000E-01   1.00800           0
     33979 LPSA31   18       AGAL     C5       CC3163   0.110000       12.0110           0
     33980 LPSA31   18       AGAL     H5       HCA1     0.900000E-01   1.00800           0
     33981 LPSA31   18       AGAL     O5       OC3C61  -0.400000       15.9994           0
     33982 LPSA31   18       AGAL     C2       CC3161   0.900000E-01   12.0110           0
     33983 LPSA31   18       AGAL     H2       HCA1     0.900000E-01   1.00800           0
     33984 LPSA31   18       AGAL     O2       OC301   -0.360000       15.9994           0
     33985 LPSA31   18       AGAL     C3       CC3161   0.140000       12.0110           0
     33986 LPSA31   18       AGAL     H3       HCA1     0.900000E-01   1.00800           0
     33987 LPSA31   18       AGAL     O3       OC311   -0.650000       15.9994           0
     33988 LPSA31   18       AGAL     HO3      HCP1     0.420000       1.00800           0
     33989 LPSA31   18       AGAL     C4       CC3161   0.140000       12.0110           0
     33990 LPSA31   18       AGAL     H4       HCA1     0.900000E-01   1.00800           0
     33991 LPSA31   18       AGAL     O4       OC311   -0.650000       15.9994           0
     33992 LPSA31   18       AGAL     HO4      HCP1     0.420000       1.00800           0
     33993 LPSA31   18       AGAL     C6       CC321    0.500000E-01   12.0110           0
     33994 LPSA31   18       AGAL     H61      HCA2     0.900000E-01   1.00800           0
     33995 LPSA31   18       AGAL     H62      HCA2     0.900000E-01   1.00800           0
     33996 LPSA31   18       AGAL     O6       OC311   -0.650000       15.9994           0
     33997 LPSA31   18       AGAL     HO6      HCP1     0.420000       1.00800           0
     33998 LPSA31   19       ARHM     C1       CC3162   0.290000       12.0110           0
     33999 LPSA31   19       ARHM     H1       HCA1     0.900000E-01   1.00800           0
     34000 LPSA31   19       ARHM     C5       CC3163   0.110000       12.0110           0
     34001 LPSA31   19       ARHM     H5       HCA1     0.900000E-01   1.00800           0
     34002 LPSA31   19       ARHM     O5       OC3C61  -0.400000       15.9994           0
     34003 LPSA31   19       ARHM     C2       CC3161   0.900000E-01   12.0110           0
     34004 LPSA31   19       ARHM     H2       HCA1     0.900000E-01   1.00800           0
     34005 LPSA31   19       ARHM     O2       OC301   -0.360000       15.9994           0
     34006 LPSA31   19       ARHM     C3       CC3161   0.140000       12.0110           0
     34007 LPSA31   19       ARHM     H3       HCA1     0.900000E-01   1.00800           0
     34008 LPSA31   19       ARHM     O3       OC311   -0.650000       15.9994           0
     34009 LPSA31   19       ARHM     HO3      HCP1     0.420000       1.00800           0
     34010 LPSA31   19       ARHM     C4       CC3161   0.140000       12.0110           0
     34011 LPSA31   19       ARHM     H4       HCA1     0.900000E-01   1.00800           0
     34012 LPSA31   19       ARHM     O4       OC311   -0.650000       15.9994           0
     34013 LPSA31   19       ARHM     HO4      HCP1     0.420000       1.00800           0
     34014 LPSA31   19       ARHM     C6       CC331   -0.270000       12.0110           0
     34015 LPSA31   19       ARHM     H61      HCA3     0.900000E-01   1.00800           0
     34016 LPSA31   19       ARHM     H62      HCA3     0.900000E-01   1.00800           0
     34017 LPSA31   19       ARHM     H63      HCA3     0.900000E-01   1.00800           0
     34018 LPSA31   20       ARHM     C1       CC3162   0.290000       12.0110           0
     34019 LPSA31   20       ARHM     H1       HCA1     0.900000E-01   1.00800           0
     34020 LPSA31   20       ARHM     C5       CC3163   0.110000       12.0110           0
     34021 LPSA31   20       ARHM     H5       HCA1     0.900000E-01   1.00800           0
     34022 LPSA31   20       ARHM     O5       OC3C61  -0.400000       15.9994           0
     34023 LPSA31   20       ARHM     C2       CC3161   0.900000E-01   12.0110           0
     34024 LPSA31   20       ARHM     H2       HCA1     0.900000E-01   1.00800           0
     34025 LPSA31   20       ARHM     O2       OC301   -0.360000       15.9994           0
     34026 LPSA31   20       ARHM     C3       CC3161   0.900000E-01   12.0110           0
     34027 LPSA31   20       ARHM     H3       HCA1     0.900000E-01   1.00800           0
     34028 LPSA31   20       ARHM     O3       OC301   -0.360000       15.9994           0
     34029 LPSA31   20       ARHM     C4       CC3161   0.140000       12.0110           0
     34030 LPSA31   20       ARHM     H4       HCA1     0.900000E-01   1.00800           0
     34031 LPSA31   20       ARHM     O4       OC311   -0.650000       15.9994           0
     34032 LPSA31   20       ARHM     HO4      HCP1     0.420000       1.00800           0
     34033 LPSA31   20       ARHM     C6       CC331   -0.270000       12.0110           0
     34034 LPSA31   20       ARHM     H61      HCA3     0.900000E-01   1.00800           0
     34035 LPSA31   20       ARHM     H62      HCA3     0.900000E-01   1.00800           0
     34036 LPSA31   20       ARHM     H63      HCA3     0.900000E-01   1.00800           0
     34037 LPSA31   21       BMANNA   C1       CC3162   0.290000       12.0110           0
     34038 LPSA31   21       BMANNA   H1       HCA1     0.900000E-01   1.00800           0
     34039 LPSA31   21       BMANNA   C5       CC3163   0.110000       12.0110           0
     34040 LPSA31   21       BMANNA   H5       HCA1     0.900000E-01   1.00800           0
     34041 LPSA31   21       BMANNA   O5       OC3C61  -0.400000       15.9994           0
     34042 LPSA31   21       BMANNA   C2       CC3161   0.700000E-01   12.0110           0
     34043 LPSA31   21       BMANNA   H2       HCA1     0.900000E-01   1.00800           0
     34044 LPSA31   21       BMANNA   N        NC2D1   -0.470000       14.0070           0
     34045 LPSA31   21       BMANNA   HN       HCP1     0.310000       1.00800           0
     34046 LPSA31   21       BMANNA   C        CC2O1    0.510000       12.0110           0
     34047 LPSA31   21       BMANNA   O        OC2D1   -0.510000       15.9994           0
     34048 LPSA31   21       BMANNA   CT       CC331   -0.270000       12.0110           0
     34049 LPSA31   21       BMANNA   HT1      HCA3     0.900000E-01   1.00800           0
     34050 LPSA31   21       BMANNA   HT2      HCA3     0.900000E-01   1.00800           0
     34051 LPSA31   21       BMANNA   HT3      HCA3     0.900000E-01   1.00800           0
     34052 LPSA31   21       BMANNA   C3       CC3161   0.140000       12.0110           0
     34053 LPSA31   21       BMANNA   H3       HCA1     0.900000E-01   1.00800           0
     34054 LPSA31   21       BMANNA   O3       OC311   -0.650000       15.9994           0
     34055 LPSA31   21       BMANNA   HO3      HCP1     0.420000       1.00800           0
     34056 LPSA31   21       BMANNA   C4       CC3161   0.140000       12.0110           0
     34057 LPSA31   21       BMANNA   H4       HCA1     0.900000E-01   1.00800           0
     34058 LPSA31   21       BMANNA   O4       OC311   -0.650000       15.9994           0
     34059 LPSA31   21       BMANNA   HO4      HCP1     0.420000       1.00800           0
     34060 LPSA31   21       BMANNA   C6       CC321    0.500000E-01   12.0110           0
     34061 LPSA31   21       BMANNA   H61      HCA2     0.900000E-01   1.00800           0
     34062 LPSA31   21       BMANNA   H62      HCA2     0.900000E-01   1.00800           0
     34063 LPSA31   21       BMANNA   O6       OC311   -0.650000       15.9994           0
     34064 LPSA31   21       BMANNA   HO6      HCP1     0.420000       1.00800           0
     34065 LPSA31   22       BGLCNA   C1       CC3162   0.290000       12.0110           0
     34066 LPSA31   22       BGLCNA   H1       HCA1     0.900000E-01   1.00800           0
     34067 LPSA31   22       BGLCNA   C5       CC3163   0.110000       12.0110           0
     34068 LPSA31   22       BGLCNA   H5       HCA1     0.900000E-01   1.00800           0
     34069 LPSA31   22       BGLCNA   O5       OC3C61  -0.400000       15.9994           0
     34070 LPSA31   22       BGLCNA   C2       CC3161   0.700000E-01   12.0110           0
     34071 LPSA31   22       BGLCNA   H2       HCA1     0.900000E-01   1.00800           0
     34072 LPSA31   22       BGLCNA   N        NC2D1   -0.470000       14.0070           0
     34073 LPSA31   22       BGLCNA   HN       HCP1     0.310000       1.00800           0
     34074 LPSA31   22       BGLCNA   C        CC2O1    0.510000       12.0110           0
     34075 LPSA31   22       BGLCNA   O        OC2D1   -0.510000       15.9994           0
     34076 LPSA31   22       BGLCNA   CT       CC331   -0.270000       12.0110           0
     34077 LPSA31   22       BGLCNA   HT1      HCA3     0.900000E-01   1.00800           0
     34078 LPSA31   22       BGLCNA   HT2      HCA3     0.900000E-01   1.00800           0
     34079 LPSA31   22       BGLCNA   HT3      HCA3     0.900000E-01   1.00800           0
     34080 LPSA31   22       BGLCNA   C3       CC3161   0.900000E-01   12.0110           0
     34081 LPSA31   22       BGLCNA   H3       HCA1     0.900000E-01   1.00800           0
     34082 LPSA31   22       BGLCNA   O3       OC301   -0.360000       15.9994           0
     34083 LPSA31   22       BGLCNA   C4       CC3161   0.140000       12.0110           0
     34084 LPSA31   22       BGLCNA   H4       HCA1     0.900000E-01   1.00800           0
     34085 LPSA31   22       BGLCNA   O4       OC311   -0.650000       15.9994           0
     34086 LPSA31   22       BGLCNA   HO4      HCP1     0.420000       1.00800           0
     34087 LPSA31   22       BGLCNA   C6       CC321    0.500000E-01   12.0110           0
     34088 LPSA31   22       BGLCNA   H61      HCA2     0.900000E-01   1.00800           0
     34089 LPSA31   22       BGLCNA   H62      HCA2     0.900000E-01   1.00800           0
     34090 LPSA31   22       BGLCNA   O6       OC311   -0.650000       15.9994           0
     34091 LPSA31   22       BGLCNA   HO6      HCP1     0.420000       1.00800           0
     34092 LPSA31   23       AGAL     C1       CC3162   0.290000       12.0110           0
     34093 LPSA31   23       AGAL     H1       HCA1     0.900000E-01   1.00800           0
     34094 LPSA31   23       AGAL     C5       CC3163   0.110000       12.0110           0
     34095 LPSA31   23       AGAL     H5       HCA1     0.900000E-01   1.00800           0
     34096 LPSA31   23       AGAL     O5       OC3C61  -0.400000       15.9994           0
     34097 LPSA31   23       AGAL     C2       CC3161   0.900000E-01   12.0110           0
     34098 LPSA31   23       AGAL     H2       HCA1     0.900000E-01   1.00800           0
     34099 LPSA31   23       AGAL     O2       OC301   -0.360000       15.9994           0
     34100 LPSA31   23       AGAL     C3       CC3161   0.140000       12.0110           0
     34101 LPSA31   23       AGAL     H3       HCA1     0.900000E-01   1.00800           0
     34102 LPSA31   23       AGAL     O3       OC311   -0.650000       15.9994           0
     34103 LPSA31   23       AGAL     HO3      HCP1     0.420000       1.00800           0
     34104 LPSA31   23       AGAL     C4       CC3161   0.140000       12.0110           0
     34105 LPSA31   23       AGAL     H4       HCA1     0.900000E-01   1.00800           0
     34106 LPSA31   23       AGAL     O4       OC311   -0.650000       15.9994           0
     34107 LPSA31   23       AGAL     HO4      HCP1     0.420000       1.00800           0
     34108 LPSA31   23       AGAL     C6       CC321    0.500000E-01   12.0110           0
     34109 LPSA31   23       AGAL     H61      HCA2     0.900000E-01   1.00800           0
     34110 LPSA31   23       AGAL     H62      HCA2     0.900000E-01   1.00800           0
     34111 LPSA31   23       AGAL     O6       OC311   -0.650000       15.9994           0
     34112 LPSA31   23       AGAL     HO6      HCP1     0.420000       1.00800           0
     34113 LPSA31   24       ARHM     C1       CC3162   0.290000       12.0110           0
     34114 LPSA31   24       ARHM     H1       HCA1     0.900000E-01   1.00800           0
     34115 LPSA31   24       ARHM     C5       CC3163   0.110000       12.0110           0
     34116 LPSA31   24       ARHM     H5       HCA1     0.900000E-01   1.00800           0
     34117 LPSA31   24       ARHM     O5       OC3C61  -0.400000       15.9994           0
     34118 LPSA31   24       ARHM     C2       CC3161   0.900000E-01   12.0110           0
     34119 LPSA31   24       ARHM     H2       HCA1     0.900000E-01   1.00800           0
     34120 LPSA31   24       ARHM     O2       OC301   -0.360000       15.9994           0
     34121 LPSA31   24       ARHM     C3       CC3161   0.140000       12.0110           0
     34122 LPSA31   24       ARHM     H3       HCA1     0.900000E-01   1.00800           0
     34123 LPSA31   24       ARHM     O3       OC311   -0.650000       15.9994           0
     34124 LPSA31   24       ARHM     HO3      HCP1     0.420000       1.00800           0
     34125 LPSA31   24       ARHM     C4       CC3161   0.140000       12.0110           0
     34126 LPSA31   24       ARHM     H4       HCA1     0.900000E-01   1.00800           0
     34127 LPSA31   24       ARHM     O4       OC311   -0.650000       15.9994           0
     34128 LPSA31   24       ARHM     HO4      HCP1     0.420000       1.00800           0
     34129 LPSA31   24       ARHM     C6       CC331   -0.270000       12.0110           0
     34130 LPSA31   24       ARHM     H61      HCA3     0.900000E-01   1.00800           0
     34131 LPSA31   24       ARHM     H62      HCA3     0.900000E-01   1.00800           0
     34132 LPSA31   24       ARHM     H63      HCA3     0.900000E-01   1.00800           0
     34133 LPSA31   25       ARHM     C1       CC3162   0.290000       12.0110           0
     34134 LPSA31   25       ARHM     H1       HCA1     0.900000E-01   1.00800           0
     34135 LPSA31   25       ARHM     C5       CC3163   0.110000       12.0110           0
     34136 LPSA31   25       ARHM     H5       HCA1     0.900000E-01   1.00800           0
     34137 LPSA31   25       ARHM     O5       OC3C61  -0.400000       15.9994           0
     34138 LPSA31   25       ARHM     C2       CC3161   0.900000E-01   12.0110           0
     34139 LPSA31   25       ARHM     H2       HCA1     0.900000E-01   1.00800           0
     34140 LPSA31   25       ARHM     O2       OC301   -0.360000       15.9994           0
     34141 LPSA31   25       ARHM     C3       CC3161   0.900000E-01   12.0110           0
     34142 LPSA31   25       ARHM     H3       HCA1     0.900000E-01   1.00800           0
     34143 LPSA31   25       ARHM     O3       OC301   -0.360000       15.9994           0
     34144 LPSA31   25       ARHM     C4       CC3161   0.140000       12.0110           0
     34145 LPSA31   25       ARHM     H4       HCA1     0.900000E-01   1.00800           0
     34146 LPSA31   25       ARHM     O4       OC311   -0.650000       15.9994           0
     34147 LPSA31   25       ARHM     HO4      HCP1     0.420000       1.00800           0
     34148 LPSA31   25       ARHM     C6       CC331   -0.270000       12.0110           0
     34149 LPSA31   25       ARHM     H61      HCA3     0.900000E-01   1.00800           0
     34150 LPSA31   25       ARHM     H62      HCA3     0.900000E-01   1.00800           0
     34151 LPSA31   25       ARHM     H63      HCA3     0.900000E-01   1.00800           0
     34152 LPSA31   26       BMANNA   C1       CC3162   0.290000       12.0110           0
     34153 LPSA31   26       BMANNA   H1       HCA1     0.900000E-01   1.00800           0
     34154 LPSA31   26       BMANNA   C5       CC3163   0.110000       12.0110           0
     34155 LPSA31   26       BMANNA   H5       HCA1     0.900000E-01   1.00800           0
     34156 LPSA31   26       BMANNA   O5       OC3C61  -0.400000       15.9994           0
     34157 LPSA31   26       BMANNA   C2       CC3161   0.700000E-01   12.0110           0
     34158 LPSA31   26       BMANNA   H2       HCA1     0.900000E-01   1.00800           0
     34159 LPSA31   26       BMANNA   N        NC2D1   -0.470000       14.0070           0
     34160 LPSA31   26       BMANNA   HN       HCP1     0.310000       1.00800           0
     34161 LPSA31   26       BMANNA   C        CC2O1    0.510000       12.0110           0
     34162 LPSA31   26       BMANNA   O        OC2D1   -0.510000       15.9994           0
     34163 LPSA31   26       BMANNA   CT       CC331   -0.270000       12.0110           0
     34164 LPSA31   26       BMANNA   HT1      HCA3     0.900000E-01   1.00800           0
     34165 LPSA31   26       BMANNA   HT2      HCA3     0.900000E-01   1.00800           0
     34166 LPSA31   26       BMANNA   HT3      HCA3     0.900000E-01   1.00800           0
     34167 LPSA31   26       BMANNA   C3       CC3161   0.140000       12.0110           0
     34168 LPSA31   26       BMANNA   H3       HCA1     0.900000E-01   1.00800           0
     34169 LPSA31   26       BMANNA   O3       OC311   -0.650000       15.9994           0
     34170 LPSA31   26       BMANNA   HO3      HCP1     0.420000       1.00800           0
     34171 LPSA31   26       BMANNA   C4       CC3161   0.140000       12.0110           0
     34172 LPSA31   26       BMANNA   H4       HCA1     0.900000E-01   1.00800           0
     34173 LPSA31   26       BMANNA   O4       OC311   -0.650000       15.9994           0
     34174 LPSA31   26       BMANNA   HO4      HCP1     0.420000       1.00800           0
     34175 LPSA31   26       BMANNA   C6       CC321    0.500000E-01   12.0110           0
     34176 LPSA31   26       BMANNA   H61      HCA2     0.900000E-01   1.00800           0
     34177 LPSA31   26       BMANNA   H62      HCA2     0.900000E-01   1.00800           0
     34178 LPSA31   26       BMANNA   O6       OC311   -0.650000       15.9994           0
     34179 LPSA31   26       BMANNA   HO6      HCP1     0.420000       1.00800           0
     34180 LPSA31   27       BGLCNA   C1       CC3162   0.290000       12.0110           0
     34181 LPSA31   27       BGLCNA   H1       HCA1     0.900000E-01   1.00800           0
     34182 LPSA31   27       BGLCNA   C5       CC3163   0.110000       12.0110           0
     34183 LPSA31   27       BGLCNA   H5       HCA1     0.900000E-01   1.00800           0
     34184 LPSA31   27       BGLCNA   O5       OC3C61  -0.400000       15.9994           0
     34185 LPSA31   27       BGLCNA   C2       CC3161   0.700000E-01   12.0110           0
     34186 LPSA31   27       BGLCNA   H2       HCA1     0.900000E-01   1.00800           0
     34187 LPSA31   27       BGLCNA   N        NC2D1   -0.470000       14.0070           0
     34188 LPSA31   27       BGLCNA   HN       HCP1     0.310000       1.00800           0
     34189 LPSA31   27       BGLCNA   C        CC2O1    0.510000       12.0110           0
     34190 LPSA31   27       BGLCNA   O        OC2D1   -0.510000       15.9994           0
     34191 LPSA31   27       BGLCNA   CT       CC331   -0.270000       12.0110           0
     34192 LPSA31   27       BGLCNA   HT1      HCA3     0.900000E-01   1.00800           0
     34193 LPSA31   27       BGLCNA   HT2      HCA3     0.900000E-01   1.00800           0
     34194 LPSA31   27       BGLCNA   HT3      HCA3     0.900000E-01   1.00800           0
     34195 LPSA31   27       BGLCNA   C3       CC3161   0.900000E-01   12.0110           0
     34196 LPSA31   27       BGLCNA   H3       HCA1     0.900000E-01   1.00800           0
     34197 LPSA31   27       BGLCNA   O3       OC301   -0.360000       15.9994           0
     34198 LPSA31   27       BGLCNA   C4       CC3161   0.140000       12.0110           0
     34199 LPSA31   27       BGLCNA   H4       HCA1     0.900000E-01   1.00800           0
     34200 LPSA31   27       BGLCNA   O4       OC311   -0.650000       15.9994           0
     34201 LPSA31   27       BGLCNA   HO4      HCP1     0.420000       1.00800           0
     34202 LPSA31   27       BGLCNA   C6       CC321    0.500000E-01   12.0110           0
     34203 LPSA31   27       BGLCNA   H61      HCA2     0.900000E-01   1.00800           0
     34204 LPSA31   27       BGLCNA   H62      HCA2     0.900000E-01   1.00800           0
     34205 LPSA31   27       BGLCNA   O6       OC311   -0.650000       15.9994           0
     34206 LPSA31   27       BGLCNA   HO6      HCP1     0.420000       1.00800           0
     34207 LPSA31   28       AGAL     C1       CC3162   0.290000       12.0110           0
     34208 LPSA31   28       AGAL     H1       HCA1     0.900000E-01   1.00800           0
     34209 LPSA31   28       AGAL     C5       CC3163   0.110000       12.0110           0
     34210 LPSA31   28       AGAL     H5       HCA1     0.900000E-01   1.00800           0
     34211 LPSA31   28       AGAL     O5       OC3C61  -0.400000       15.9994           0
     34212 LPSA31   28       AGAL     C2       CC3161   0.900000E-01   12.0110           0
     34213 LPSA31   28       AGAL     H2       HCA1     0.900000E-01   1.00800           0
     34214 LPSA31   28       AGAL     O2       OC301   -0.360000       15.9994           0
     34215 LPSA31   28       AGAL     C3       CC3161   0.140000       12.0110           0
     34216 LPSA31   28       AGAL     H3       HCA1     0.900000E-01   1.00800           0
     34217 LPSA31   28       AGAL     O3       OC311   -0.650000       15.9994           0
     34218 LPSA31   28       AGAL     HO3      HCP1     0.420000       1.00800           0
     34219 LPSA31   28       AGAL     C4       CC3161   0.140000       12.0110           0
     34220 LPSA31   28       AGAL     H4       HCA1     0.900000E-01   1.00800           0
     34221 LPSA31   28       AGAL     O4       OC311   -0.650000       15.9994           0
     34222 LPSA31   28       AGAL     HO4      HCP1     0.420000       1.00800           0
     34223 LPSA31   28       AGAL     C6       CC321    0.500000E-01   12.0110           0
     34224 LPSA31   28       AGAL     H61      HCA2     0.900000E-01   1.00800           0
     34225 LPSA31   28       AGAL     H62      HCA2     0.900000E-01   1.00800           0
     34226 LPSA31   28       AGAL     O6       OC311   -0.650000       15.9994           0
     34227 LPSA31   28       AGAL     HO6      HCP1     0.420000       1.00800           0
     34228 LPSA31   29       ARHM     C1       CC3162   0.290000       12.0110           0
     34229 LPSA31   29       ARHM     H1       HCA1     0.900000E-01   1.00800           0
     34230 LPSA31   29       ARHM     C5       CC3163   0.110000       12.0110           0
     34231 LPSA31   29       ARHM     H5       HCA1     0.900000E-01   1.00800           0
     34232 LPSA31   29       ARHM     O5       OC3C61  -0.400000       15.9994           0
     34233 LPSA31   29       ARHM     C2       CC3161   0.900000E-01   12.0110           0
     34234 LPSA31   29       ARHM     H2       HCA1     0.900000E-01   1.00800           0
     34235 LPSA31   29       ARHM     O2       OC301   -0.360000       15.9994           0
     34236 LPSA31   29       ARHM     C3       CC3161   0.140000       12.0110           0
     34237 LPSA31   29       ARHM     H3       HCA1     0.900000E-01   1.00800           0
     34238 LPSA31   29       ARHM     O3       OC311   -0.650000       15.9994           0
     34239 LPSA31   29       ARHM     HO3      HCP1     0.420000       1.00800           0
     34240 LPSA31   29       ARHM     C4       CC3161   0.140000       12.0110           0
     34241 LPSA31   29       ARHM     H4       HCA1     0.900000E-01   1.00800           0
     34242 LPSA31   29       ARHM     O4       OC311   -0.650000       15.9994           0
     34243 LPSA31   29       ARHM     HO4      HCP1     0.420000       1.00800           0
     34244 LPSA31   29       ARHM     C6       CC331   -0.270000       12.0110           0
     34245 LPSA31   29       ARHM     H61      HCA3     0.900000E-01   1.00800           0
     34246 LPSA31   29       ARHM     H62      HCA3     0.900000E-01   1.00800           0
     34247 LPSA31   29       ARHM     H63      HCA3     0.900000E-01   1.00800           0
     34248 LPSA31   30       ARHM     C1       CC3162   0.290000       12.0110           0
     34249 LPSA31   30       ARHM     H1       HCA1     0.900000E-01   1.00800           0
     34250 LPSA31   30       ARHM     C5       CC3163   0.110000       12.0110           0
     34251 LPSA31   30       ARHM     H5       HCA1     0.900000E-01   1.00800           0
     34252 LPSA31   30       ARHM     O5       OC3C61  -0.400000       15.9994           0
     34253 LPSA31   30       ARHM     C2       CC3161   0.900000E-01   12.0110           0
     34254 LPSA31   30       ARHM     H2       HCA1     0.900000E-01   1.00800           0
     34255 LPSA31   30       ARHM     O2       OC301   -0.360000       15.9994           0
     34256 LPSA31   30       ARHM     C3       CC3161   0.900000E-01   12.0110           0
     34257 LPSA31   30       ARHM     H3       HCA1     0.900000E-01   1.00800           0
     34258 LPSA31   30       ARHM     O3       OC301   -0.360000       15.9994           0
     34259 LPSA31   30       ARHM     C4       CC3161   0.140000       12.0110           0
     34260 LPSA31   30       ARHM     H4       HCA1     0.900000E-01   1.00800           0
     34261 LPSA31   30       ARHM     O4       OC311   -0.650000       15.9994           0
     34262 LPSA31   30       ARHM     HO4      HCP1     0.420000       1.00800           0
     34263 LPSA31   30       ARHM     C6       CC331   -0.270000       12.0110           0
     34264 LPSA31   30       ARHM     H61      HCA3     0.900000E-01   1.00800           0
     34265 LPSA31   30       ARHM     H62      HCA3     0.900000E-01   1.00800           0
     34266 LPSA31   30       ARHM     H63      HCA3     0.900000E-01   1.00800           0
     34267 LPSA31   31       BMANNA   C1       CC3162   0.290000       12.0110           0
     34268 LPSA31   31       BMANNA   H1       HCA1     0.900000E-01   1.00800           0
     34269 LPSA31   31       BMANNA   C5       CC3163   0.110000       12.0110           0
     34270 LPSA31   31       BMANNA   H5       HCA1     0.900000E-01   1.00800           0
     34271 LPSA31   31       BMANNA   O5       OC3C61  -0.400000       15.9994           0
     34272 LPSA31   31       BMANNA   C2       CC3161   0.700000E-01   12.0110           0
     34273 LPSA31   31       BMANNA   H2       HCA1     0.900000E-01   1.00800           0
     34274 LPSA31   31       BMANNA   N        NC2D1   -0.470000       14.0070           0
     34275 LPSA31   31       BMANNA   HN       HCP1     0.310000       1.00800           0
     34276 LPSA31   31       BMANNA   C        CC2O1    0.510000       12.0110           0
     34277 LPSA31   31       BMANNA   O        OC2D1   -0.510000       15.9994           0
     34278 LPSA31   31       BMANNA   CT       CC331   -0.270000       12.0110           0
     34279 LPSA31   31       BMANNA   HT1      HCA3     0.900000E-01   1.00800           0
     34280 LPSA31   31       BMANNA   HT2      HCA3     0.900000E-01   1.00800           0
     34281 LPSA31   31       BMANNA   HT3      HCA3     0.900000E-01   1.00800           0
     34282 LPSA31   31       BMANNA   C3       CC3161   0.140000       12.0110           0
     34283 LPSA31   31       BMANNA   H3       HCA1     0.900000E-01   1.00800           0
     34284 LPSA31   31       BMANNA   O3       OC311   -0.650000       15.9994           0
     34285 LPSA31   31       BMANNA   HO3      HCP1     0.420000       1.00800           0
     34286 LPSA31   31       BMANNA   C4       CC3161   0.140000       12.0110           0
     34287 LPSA31   31       BMANNA   H4       HCA1     0.900000E-01   1.00800           0
     34288 LPSA31   31       BMANNA   O4       OC311   -0.650000       15.9994           0
     34289 LPSA31   31       BMANNA   HO4      HCP1     0.420000       1.00800           0
     34290 LPSA31   31       BMANNA   C6       CC321    0.500000E-01   12.0110           0
     34291 LPSA31   31       BMANNA   H61      HCA2     0.900000E-01   1.00800           0
     34292 LPSA31   31       BMANNA   H62      HCA2     0.900000E-01   1.00800           0
     34293 LPSA31   31       BMANNA   O6       OC311   -0.650000       15.9994           0
     34294 LPSA31   31       BMANNA   HO6      HCP1     0.420000       1.00800           0
     34295 LPSA31   32       BGLCNA   C1       CC3162   0.290000       12.0110           0
     34296 LPSA31   32       BGLCNA   H1       HCA1     0.900000E-01   1.00800           0
     34297 LPSA31   32       BGLCNA   C5       CC3163   0.110000       12.0110           0
     34298 LPSA31   32       BGLCNA   H5       HCA1     0.900000E-01   1.00800           0
     34299 LPSA31   32       BGLCNA   O5       OC3C61  -0.400000       15.9994           0
     34300 LPSA31   32       BGLCNA   C2       CC3161   0.700000E-01   12.0110           0
     34301 LPSA31   32       BGLCNA   H2       HCA1     0.900000E-01   1.00800           0
     34302 LPSA31   32       BGLCNA   N        NC2D1   -0.470000       14.0070           0
     34303 LPSA31   32       BGLCNA   HN       HCP1     0.310000       1.00800           0
     34304 LPSA31   32       BGLCNA   C        CC2O1    0.510000       12.0110           0
     34305 LPSA31   32       BGLCNA   O        OC2D1   -0.510000       15.9994           0
     34306 LPSA31   32       BGLCNA   CT       CC331   -0.270000       12.0110           0
     34307 LPSA31   32       BGLCNA   HT1      HCA3     0.900000E-01   1.00800           0
     34308 LPSA31   32       BGLCNA   HT2      HCA3     0.900000E-01   1.00800           0
     34309 LPSA31   32       BGLCNA   HT3      HCA3     0.900000E-01   1.00800           0
     34310 LPSA31   32       BGLCNA   C3       CC3161   0.900000E-01   12.0110           0
     34311 LPSA31   32       BGLCNA   H3       HCA1     0.900000E-01   1.00800           0
     34312 LPSA31   32       BGLCNA   O3       OC301   -0.360000       15.9994           0
     34313 LPSA31   32       BGLCNA   C4       CC3161   0.140000       12.0110           0
     34314 LPSA31   32       BGLCNA   H4       HCA1     0.900000E-01   1.00800           0
     34315 LPSA31   32       BGLCNA   O4       OC311   -0.650000       15.9994           0
     34316 LPSA31   32       BGLCNA   HO4      HCP1     0.420000       1.00800           0
     34317 LPSA31   32       BGLCNA   C6       CC321    0.500000E-01   12.0110           0
     34318 LPSA31   32       BGLCNA   H61      HCA2     0.900000E-01   1.00800           0
     34319 LPSA31   32       BGLCNA   H62      HCA2     0.900000E-01   1.00800           0
     34320 LPSA31   32       BGLCNA   O6       OC311   -0.650000       15.9994           0
     34321 LPSA31   32       BGLCNA   HO6      HCP1     0.420000       1.00800           0
     34322 LPSA31   33       AGAL     C1       CC3162   0.290000       12.0110           0
     34323 LPSA31   33       AGAL     H1       HCA1     0.900000E-01   1.00800           0
     34324 LPSA31   33       AGAL     C5       CC3163   0.110000       12.0110           0
     34325 LPSA31   33       AGAL     H5       HCA1     0.900000E-01   1.00800           0
     34326 LPSA31   33       AGAL     O5       OC3C61  -0.400000       15.9994           0
     34327 LPSA31   33       AGAL     C2       CC3161   0.900000E-01   12.0110           0
     34328 LPSA31   33       AGAL     H2       HCA1     0.900000E-01   1.00800           0
     34329 LPSA31   33       AGAL     O2       OC301   -0.360000       15.9994           0
     34330 LPSA31   33       AGAL     C3       CC3161   0.140000       12.0110           0
     34331 LPSA31   33       AGAL     H3       HCA1     0.900000E-01   1.00800           0
     34332 LPSA31   33       AGAL     O3       OC311   -0.650000       15.9994           0
     34333 LPSA31   33       AGAL     HO3      HCP1     0.420000       1.00800           0
     34334 LPSA31   33       AGAL     C4       CC3161   0.140000       12.0110           0
     34335 LPSA31   33       AGAL     H4       HCA1     0.900000E-01   1.00800           0
     34336 LPSA31   33       AGAL     O4       OC311   -0.650000       15.9994           0
     34337 LPSA31   33       AGAL     HO4      HCP1     0.420000       1.00800           0
     34338 LPSA31   33       AGAL     C6       CC321    0.500000E-01   12.0110           0
     34339 LPSA31   33       AGAL     H61      HCA2     0.900000E-01   1.00800           0
     34340 LPSA31   33       AGAL     H62      HCA2     0.900000E-01   1.00800           0
     34341 LPSA31   33       AGAL     O6       OC311   -0.650000       15.9994           0
     34342 LPSA31   33       AGAL     HO6      HCP1     0.420000       1.00800           0
     34343 LPSA31   34       ARHM     C1       CC3162   0.290000       12.0110           0
     34344 LPSA31   34       ARHM     H1       HCA1     0.900000E-01   1.00800           0
     34345 LPSA31   34       ARHM     C5       CC3163   0.110000       12.0110           0
     34346 LPSA31   34       ARHM     H5       HCA1     0.900000E-01   1.00800           0
     34347 LPSA31   34       ARHM     O5       OC3C61  -0.400000       15.9994           0
     34348 LPSA31   34       ARHM     C2       CC3161   0.900000E-01   12.0110           0
     34349 LPSA31   34       ARHM     H2       HCA1     0.900000E-01   1.00800           0
     34350 LPSA31   34       ARHM     O2       OC301   -0.360000       15.9994           0
     34351 LPSA31   34       ARHM     C3       CC3161   0.140000       12.0110           0
     34352 LPSA31   34       ARHM     H3       HCA1     0.900000E-01   1.00800           0
     34353 LPSA31   34       ARHM     O3       OC311   -0.650000       15.9994           0
     34354 LPSA31   34       ARHM     HO3      HCP1     0.420000       1.00800           0
     34355 LPSA31   34       ARHM     C4       CC3161   0.140000       12.0110           0
     34356 LPSA31   34       ARHM     H4       HCA1     0.900000E-01   1.00800           0
     34357 LPSA31   34       ARHM     O4       OC311   -0.650000       15.9994           0
     34358 LPSA31   34       ARHM     HO4      HCP1     0.420000       1.00800           0
     34359 LPSA31   34       ARHM     C6       CC331   -0.270000       12.0110           0
     34360 LPSA31   34       ARHM     H61      HCA3     0.900000E-01   1.00800           0
     34361 LPSA31   34       ARHM     H62      HCA3     0.900000E-01   1.00800           0
     34362 LPSA31   34       ARHM     H63      HCA3     0.900000E-01   1.00800           0
     34363 LPSA31   35       ARHM     C1       CC3162   0.290000       12.0110           0
     34364 LPSA31   35       ARHM     H1       HCA1     0.900000E-01   1.00800           0
     34365 LPSA31   35       ARHM     C5       CC3163   0.110000       12.0110           0
     34366 LPSA31   35       ARHM     H5       HCA1     0.900000E-01   1.00800           0
     34367 LPSA31   35       ARHM     O5       OC3C61  -0.400000       15.9994           0
     34368 LPSA31   35       ARHM     C2       CC3161   0.900000E-01   12.0110           0
     34369 LPSA31   35       ARHM     H2       HCA1     0.900000E-01   1.00800           0
     34370 LPSA31   35       ARHM     O2       OC301   -0.360000       15.9994           0
     34371 LPSA31   35       ARHM     C3       CC3161   0.140000       12.0110           0
     34372 LPSA31   35       ARHM     H3       HCA1     0.900000E-01   1.00800           0
     34373 LPSA31   35       ARHM     O3       OC311   -0.650000       15.9994           0
     34374 LPSA31   35       ARHM     HO3      HCP1     0.420000       1.00800           0
     34375 LPSA31   35       ARHM     C4       CC3161   0.140000       12.0110           0
     34376 LPSA31   35       ARHM     H4       HCA1     0.900000E-01   1.00800           0
     34377 LPSA31   35       ARHM     O4       OC311   -0.650000       15.9994           0
     34378 LPSA31   35       ARHM     HO4      HCP1     0.420000       1.00800           0
     34379 LPSA31   35       ARHM     C6       CC331   -0.270000       12.0110           0
     34380 LPSA31   35       ARHM     H61      HCA3     0.900000E-01   1.00800           0
     34381 LPSA31   35       ARHM     H62      HCA3     0.900000E-01   1.00800           0
     34382 LPSA31   35       ARHM     H63      HCA3     0.900000E-01   1.00800           0
     34383 LPSA31   36       BMANNA   C1       CC3162   0.290000       12.0110           0
     34384 LPSA31   36       BMANNA   H1       HCA1     0.900000E-01   1.00800           0
     34385 LPSA31   36       BMANNA   C5       CC3163   0.110000       12.0110           0
     34386 LPSA31   36       BMANNA   H5       HCA1     0.900000E-01   1.00800           0
     34387 LPSA31   36       BMANNA   O5       OC3C61  -0.400000       15.9994           0
     34388 LPSA31   36       BMANNA   C2       CC3161   0.700000E-01   12.0110           0
     34389 LPSA31   36       BMANNA   H2       HCA1     0.900000E-01   1.00800           0
     34390 LPSA31   36       BMANNA   N        NC2D1   -0.470000       14.0070           0
     34391 LPSA31   36       BMANNA   HN       HCP1     0.310000       1.00800           0
     34392 LPSA31   36       BMANNA   C        CC2O1    0.510000       12.0110           0
     34393 LPSA31   36       BMANNA   O        OC2D1   -0.510000       15.9994           0
     34394 LPSA31   36       BMANNA   CT       CC331   -0.270000       12.0110           0
     34395 LPSA31   36       BMANNA   HT1      HCA3     0.900000E-01   1.00800           0
     34396 LPSA31   36       BMANNA   HT2      HCA3     0.900000E-01   1.00800           0
     34397 LPSA31   36       BMANNA   HT3      HCA3     0.900000E-01   1.00800           0
     34398 LPSA31   36       BMANNA   C3       CC3161   0.140000       12.0110           0
     34399 LPSA31   36       BMANNA   H3       HCA1     0.900000E-01   1.00800           0
     34400 LPSA31   36       BMANNA   O3       OC311   -0.650000       15.9994           0
     34401 LPSA31   36       BMANNA   HO3      HCP1     0.420000       1.00800           0
     34402 LPSA31   36       BMANNA   C4       CC3161   0.140000       12.0110           0
     34403 LPSA31   36       BMANNA   H4       HCA1     0.900000E-01   1.00800           0
     34404 LPSA31   36       BMANNA   O4       OC311   -0.650000       15.9994           0
     34405 LPSA31   36       BMANNA   HO4      HCP1     0.420000       1.00800           0
     34406 LPSA31   36       BMANNA   C6       CC321    0.500000E-01   12.0110           0
     34407 LPSA31   36       BMANNA   H61      HCA2     0.900000E-01   1.00800           0
     34408 LPSA31   36       BMANNA   H62      HCA2     0.900000E-01   1.00800           0
     34409 LPSA31   36       BMANNA   O6       OC311   -0.650000       15.9994           0
     34410 LPSA31   36       BMANNA   HO6      HCP1     0.420000       1.00800           0
     34411 LPSA32   1        ECLIPA   HB6S     HCA2     0.900000E-01   1.00800           0
     34412 LPSA32   1        ECLIPA   OB6      OC301   -0.360000       15.9994           0
     34413 LPSA32   1        ECLIPA   CB6      CC321     0.00000       12.0110           0
     34414 LPSA32   1        ECLIPA   HB6R     HCA2     0.900000E-01   1.00800           0
     34415 LPSA32   1        ECLIPA   CB5      CC3163   0.110000       12.0110           0
     34416 LPSA32   1        ECLIPA   OB5      OC3C61  -0.400000       15.9994           0
     34417 LPSA32   1        ECLIPA   HB5      HCA1     0.900000E-01   1.00800           0
     34418 LPSA32   1        ECLIPA   CB1      CC3162   0.290000       12.0110           0
     34419 LPSA32   1        ECLIPA   HB1      HCA1     0.900000E-01   1.00800           0
     34420 LPSA32   1        ECLIPA   OA6      OC301   -0.360000       15.9994           0
     34421 LPSA32   1        ECLIPA   CA6      CC321     0.00000       12.0110           0
     34422 LPSA32   1        ECLIPA   HA6R     HCA2     0.900000E-01   1.00800           0
     34423 LPSA32   1        ECLIPA   HA6S     HCA2     0.900000E-01   1.00800           0
     34424 LPSA32   1        ECLIPA   CB4      CC3161  -0.900000E-01   12.0110           0
     34425 LPSA32   1        ECLIPA   HB4      HCA1     0.900000E-01   1.00800           0
     34426 LPSA32   1        ECLIPA   OB4      OC30P   -0.400000       15.9994           0
     34427 LPSA32   1        ECLIPA   PB       PC        1.10000       30.9740           0
     34428 LPSA32   1        ECLIPA   OPB4     OC2DP   -0.900000       15.9994           0
     34429 LPSA32   1        ECLIPA   OPB3     OC2DP   -0.900000       15.9994           0
     34430 LPSA32   1        ECLIPA   OPB2     OC2DP   -0.900000       15.9994           0
     34431 LPSA32   1        ECLIPA   CB3      CC3161   0.170000       12.0110           0
     34432 LPSA32   1        ECLIPA   OB3      OC301   -0.490000       15.9994           0
     34433 LPSA32   1        ECLIPA   HB3      HCA1     0.900000E-01   1.00800           0
     34434 LPSA32   1        ECLIPA   C71      CL       0.900000       12.0110           0
     34435 LPSA32   1        ECLIPA   O71      OBL     -0.630000       15.9994           0
     34436 LPSA32   1        ECLIPA   C72      CTL2    -0.220000       12.0110           0
     34437 LPSA32   1        ECLIPA   H72R     HAL2     0.900000E-01   1.00800           0
     34438 LPSA32   1        ECLIPA   H72S     HAL2     0.900000E-01   1.00800           0
     34439 LPSA32   1        ECLIPA   CB2      CC3161   0.700000E-01   12.0110           0
     34440 LPSA32   1        ECLIPA   HB2      HCA1     0.900000E-01   1.00800           0
     34441 LPSA32   1        ECLIPA   NB2      NC2D1   -0.470000       14.0070           0
     34442 LPSA32   1        ECLIPA   HNB2     HCP1     0.310000       1.00800           0
     34443 LPSA32   1        ECLIPA   CA4      CC3161   0.140000       12.0110           0
     34444 LPSA32   1        ECLIPA   HA4      HCA1     0.900000E-01   1.00800           0
     34445 LPSA32   1        ECLIPA   OA4      OC311   -0.650000       15.9994           0
     34446 LPSA32   1        ECLIPA   HOA4     HCP1     0.420000       1.00800           0
     34447 LPSA32   1        ECLIPA   CA5      CC3163   0.110000       12.0110           0
     34448 LPSA32   1        ECLIPA   HA5      HCA1     0.900000E-01   1.00800           0
     34449 LPSA32   1        ECLIPA   OA5      OC3C61  -0.400000       15.9994           0
     34450 LPSA32   1        ECLIPA   CA1      CC3162   0.110000       12.0110           0
     34451 LPSA32   1        ECLIPA   HA1      HCA1     0.900000E-01   1.00800           0
     34452 LPSA32   1        ECLIPA   OA1      OC30P   -0.400000       15.9994           0
     34453 LPSA32   1        ECLIPA   OPA2     OC2DP   -0.900000       15.9994           0
     34454 LPSA32   1        ECLIPA   OPA3     OC2DP   -0.900000       15.9994           0
     34455 LPSA32   1        ECLIPA   OPA4     OC2DP   -0.900000       15.9994           0
     34456 LPSA32   1        ECLIPA   PA       PC        1.10000       30.9740           0
     34457 LPSA32   1        ECLIPA   CA3      CC3161   0.170000       12.0110           0
     34458 LPSA32   1        ECLIPA   HA3      HCA1     0.900000E-01   1.00800           0
     34459 LPSA32   1        ECLIPA   OA3      OC301   -0.490000       15.9994           0
     34460 LPSA32   1        ECLIPA   C31      CL       0.900000       12.0110           0
     34461 LPSA32   1        ECLIPA   O31      OBL     -0.630000       15.9994           0
     34462 LPSA32   1        ECLIPA   C32      CTL2    -0.220000       12.0110           0
     34463 LPSA32   1        ECLIPA   H32R     HAL2     0.900000E-01   1.00800           0
     34464 LPSA32   1        ECLIPA   H32S     HAL2     0.900000E-01   1.00800           0
     34465 LPSA32   1        ECLIPA   CA2      CC3161   0.700000E-01   12.0110           0
     34466 LPSA32   1        ECLIPA   HA2      HCA1     0.900000E-01   1.00800           0
     34467 LPSA32   1        ECLIPA   NA2      NC2D1   -0.470000       14.0070           0
     34468 LPSA32   1        ECLIPA   HNA2     HCP1     0.310000       1.00800           0
     34469 LPSA32   1        ECLIPA   C73      CTL1     0.170000       12.0110           0
     34470 LPSA32   1        ECLIPA   H73R     HAL1     0.900000E-01   1.00800           0
     34471 LPSA32   1        ECLIPA   O73      OSL     -0.490000       15.9994           0
     34472 LPSA32   1        ECLIPA   C81      CL       0.900000       12.0110           0
     34473 LPSA32   1        ECLIPA   O81      OBL     -0.630000       15.9994           0
     34474 LPSA32   1        ECLIPA   C82      CTL2    -0.220000       12.0110           0
     34475 LPSA32   1        ECLIPA   H82R     HAL2     0.900000E-01   1.00800           0
     34476 LPSA32   1        ECLIPA   H82S     HAL2     0.900000E-01   1.00800           0
     34477 LPSA32   1        ECLIPA   C83      CTL2    -0.180000       12.0110           0
     34478 LPSA32   1        ECLIPA   H83R     HAL2     0.900000E-01   1.00800           0
     34479 LPSA32   1        ECLIPA   H83S     HAL2     0.900000E-01   1.00800           0
     34480 LPSA32   1        ECLIPA   C84      CTL2    -0.180000       12.0110           0
     34481 LPSA32   1        ECLIPA   H84R     HAL2     0.900000E-01   1.00800           0
     34482 LPSA32   1        ECLIPA   H84S     HAL2     0.900000E-01   1.00800           0
     34483 LPSA32   1        ECLIPA   C85      CTL2    -0.180000       12.0110           0
     34484 LPSA32   1        ECLIPA   H85R     HAL2     0.900000E-01   1.00800           0
     34485 LPSA32   1        ECLIPA   H85S     HAL2     0.900000E-01   1.00800           0
     34486 LPSA32   1        ECLIPA   C86      CTL2    -0.180000       12.0110           0
     34487 LPSA32   1        ECLIPA   H86R     HAL2     0.900000E-01   1.00800           0
     34488 LPSA32   1        ECLIPA   H86S     HAL2     0.900000E-01   1.00800           0
     34489 LPSA32   1        ECLIPA   C87      CTL2    -0.180000       12.0110           0
     34490 LPSA32   1        ECLIPA   H87R     HAL2     0.900000E-01   1.00800           0
     34491 LPSA32   1        ECLIPA   H87S     HAL2     0.900000E-01   1.00800           0
     34492 LPSA32   1        ECLIPA   C88      CTL2    -0.180000       12.0110           0
     34493 LPSA32   1        ECLIPA   H88R     HAL2     0.900000E-01   1.00800           0
     34494 LPSA32   1        ECLIPA   H88S     HAL2     0.900000E-01   1.00800           0
     34495 LPSA32   1        ECLIPA   C89      CTL2    -0.180000       12.0110           0
     34496 LPSA32   1        ECLIPA   H89R     HAL2     0.900000E-01   1.00800           0
     34497 LPSA32   1        ECLIPA   H89S     HAL2     0.900000E-01   1.00800           0
     34498 LPSA32   1        ECLIPA   C810     CTL2    -0.180000       12.0110           0
     34499 LPSA32   1        ECLIPA   H810R    HAL2     0.900000E-01   1.00800           0
     34500 LPSA32   1        ECLIPA   H810S    HAL2     0.900000E-01   1.00800           0
     34501 LPSA32   1        ECLIPA   C811     CTL2    -0.180000       12.0110           0
     34502 LPSA32   1        ECLIPA   H811R    HAL2     0.900000E-01   1.00800           0
     34503 LPSA32   1        ECLIPA   H811S    HAL2     0.900000E-01   1.00800           0
     34504 LPSA32   1        ECLIPA   C812     CTL2    -0.180000       12.0110           0
     34505 LPSA32   1        ECLIPA   H812R    HAL2     0.900000E-01   1.00800           0
     34506 LPSA32   1        ECLIPA   H812S    HAL2     0.900000E-01   1.00800           0
     34507 LPSA32   1        ECLIPA   C813     CTL2    -0.180000       12.0110           0
     34508 LPSA32   1        ECLIPA   H813R    HAL2     0.900000E-01   1.00800           0
     34509 LPSA32   1        ECLIPA   H813S    HAL2     0.900000E-01   1.00800           0
     34510 LPSA32   1        ECLIPA   C814     CTL3    -0.270000       12.0110           0
     34511 LPSA32   1        ECLIPA   H814R    HAL3     0.900000E-01   1.00800           0
     34512 LPSA32   1        ECLIPA   H814S    HAL3     0.900000E-01   1.00800           0
     34513 LPSA32   1        ECLIPA   H814T    HAL3     0.900000E-01   1.00800           0
     34514 LPSA32   1        ECLIPA   C74      CTL2    -0.180000       12.0110           0
     34515 LPSA32   1        ECLIPA   H74R     HAL2     0.900000E-01   1.00800           0
     34516 LPSA32   1        ECLIPA   H74S     HAL2     0.900000E-01   1.00800           0
     34517 LPSA32   1        ECLIPA   C75      CTL2    -0.180000       12.0110           0
     34518 LPSA32   1        ECLIPA   H75R     HAL2     0.900000E-01   1.00800           0
     34519 LPSA32   1        ECLIPA   H75S     HAL2     0.900000E-01   1.00800           0
     34520 LPSA32   1        ECLIPA   C76      CTL2    -0.180000       12.0110           0
     34521 LPSA32   1        ECLIPA   H76R     HAL2     0.900000E-01   1.00800           0
     34522 LPSA32   1        ECLIPA   H76S     HAL2     0.900000E-01   1.00800           0
     34523 LPSA32   1        ECLIPA   C77      CTL2    -0.180000       12.0110           0
     34524 LPSA32   1        ECLIPA   H77R     HAL2     0.900000E-01   1.00800           0
     34525 LPSA32   1        ECLIPA   H77S     HAL2     0.900000E-01   1.00800           0
     34526 LPSA32   1        ECLIPA   C78      CTL2    -0.180000       12.0110           0
     34527 LPSA32   1        ECLIPA   H78R     HAL2     0.900000E-01   1.00800           0
     34528 LPSA32   1        ECLIPA   H78S     HAL2     0.900000E-01   1.00800           0
     34529 LPSA32   1        ECLIPA   C79      CTL2    -0.180000       12.0110           0
     34530 LPSA32   1        ECLIPA   H79R     HAL2     0.900000E-01   1.00800           0
     34531 LPSA32   1        ECLIPA   H79S     HAL2     0.900000E-01   1.00800           0
     34532 LPSA32   1        ECLIPA   C710     CTL2    -0.180000       12.0110           0
     34533 LPSA32   1        ECLIPA   H710R    HAL2     0.900000E-01   1.00800           0
     34534 LPSA32   1        ECLIPA   H710S    HAL2     0.900000E-01   1.00800           0
     34535 LPSA32   1        ECLIPA   C711     CTL2    -0.180000       12.0110           0
     34536 LPSA32   1        ECLIPA   H711R    HAL2     0.900000E-01   1.00800           0
     34537 LPSA32   1        ECLIPA   H711S    HAL2     0.900000E-01   1.00800           0
     34538 LPSA32   1        ECLIPA   C712     CTL2    -0.180000       12.0110           0
     34539 LPSA32   1        ECLIPA   H712R    HAL2     0.900000E-01   1.00800           0
     34540 LPSA32   1        ECLIPA   H712S    HAL2     0.900000E-01   1.00800           0
     34541 LPSA32   1        ECLIPA   C713     CTL2    -0.180000       12.0110           0
     34542 LPSA32   1        ECLIPA   H713R    HAL2     0.900000E-01   1.00800           0
     34543 LPSA32   1        ECLIPA   H713S    HAL2     0.900000E-01   1.00800           0
     34544 LPSA32   1        ECLIPA   C714     CTL3    -0.270000       12.0110           0
     34545 LPSA32   1        ECLIPA   H714R    HAL3     0.900000E-01   1.00800           0
     34546 LPSA32   1        ECLIPA   H714S    HAL3     0.900000E-01   1.00800           0
     34547 LPSA32   1        ECLIPA   H714T    HAL3     0.900000E-01   1.00800           0
     34548 LPSA32   1        ECLIPA   C51      CC2O1    0.550000       12.0110           0
     34549 LPSA32   1        ECLIPA   O51      OC2D1   -0.550000       15.9994           0
     34550 LPSA32   1        ECLIPA   C52      CTL2    -0.180000       12.0110           0
     34551 LPSA32   1        ECLIPA   H52R     HAL2     0.900000E-01   1.00800           0
     34552 LPSA32   1        ECLIPA   H52S     HAL2     0.900000E-01   1.00800           0
     34553 LPSA32   1        ECLIPA   C53      CTL1     0.170000       12.0110           0
     34554 LPSA32   1        ECLIPA   H53R     HAL1     0.900000E-01   1.00800           0
     34555 LPSA32   1        ECLIPA   O53      OSL     -0.490000       15.9994           0
     34556 LPSA32   1        ECLIPA   C61      CL       0.900000       12.0110           0
     34557 LPSA32   1        ECLIPA   O61      OBL     -0.630000       15.9994           0
     34558 LPSA32   1        ECLIPA   C62      CTL2    -0.220000       12.0110           0
     34559 LPSA32   1        ECLIPA   H62R     HAL2     0.900000E-01   1.00800           0
     34560 LPSA32   1        ECLIPA   H62S     HAL2     0.900000E-01   1.00800           0
     34561 LPSA32   1        ECLIPA   C63      CTL2    -0.180000       12.0110           0
     34562 LPSA32   1        ECLIPA   H63R     HAL2     0.900000E-01   1.00800           0
     34563 LPSA32   1        ECLIPA   H63S     HAL2     0.900000E-01   1.00800           0
     34564 LPSA32   1        ECLIPA   C64      CTL2    -0.180000       12.0110           0
     34565 LPSA32   1        ECLIPA   H64R     HAL2     0.900000E-01   1.00800           0
     34566 LPSA32   1        ECLIPA   H64S     HAL2     0.900000E-01   1.00800           0
     34567 LPSA32   1        ECLIPA   C65      CTL2    -0.180000       12.0110           0
     34568 LPSA32   1        ECLIPA   H65R     HAL2     0.900000E-01   1.00800           0
     34569 LPSA32   1        ECLIPA   H65S     HAL2     0.900000E-01   1.00800           0
     34570 LPSA32   1        ECLIPA   C66      CTL2    -0.180000       12.0110           0
     34571 LPSA32   1        ECLIPA   H66R     HAL2     0.900000E-01   1.00800           0
     34572 LPSA32   1        ECLIPA   H66S     HAL2     0.900000E-01   1.00800           0
     34573 LPSA32   1        ECLIPA   C67      CTL2    -0.180000       12.0110           0
     34574 LPSA32   1        ECLIPA   H67R     HAL2     0.900000E-01   1.00800           0
     34575 LPSA32   1        ECLIPA   H67S     HAL2     0.900000E-01   1.00800           0
     34576 LPSA32   1        ECLIPA   C68      CTL2    -0.180000       12.0110           0
     34577 LPSA32   1        ECLIPA   H68R     HAL2     0.900000E-01   1.00800           0
     34578 LPSA32   1        ECLIPA   H68S     HAL2     0.900000E-01   1.00800           0
     34579 LPSA32   1        ECLIPA   C69      CTL2    -0.180000       12.0110           0
     34580 LPSA32   1        ECLIPA   H69R     HAL2     0.900000E-01   1.00800           0
     34581 LPSA32   1        ECLIPA   H69S     HAL2     0.900000E-01   1.00800           0
     34582 LPSA32   1        ECLIPA   C610     CTL2    -0.180000       12.0110           0
     34583 LPSA32   1        ECLIPA   H610R    HAL2     0.900000E-01   1.00800           0
     34584 LPSA32   1        ECLIPA   H610S    HAL2     0.900000E-01   1.00800           0
     34585 LPSA32   1        ECLIPA   C611     CTL2    -0.180000       12.0110           0
     34586 LPSA32   1        ECLIPA   H611R    HAL2     0.900000E-01   1.00800           0
     34587 LPSA32   1        ECLIPA   H611S    HAL2     0.900000E-01   1.00800           0
     34588 LPSA32   1        ECLIPA   C612     CTL3    -0.270000       12.0110           0
     34589 LPSA32   1        ECLIPA   H612R    HAL3     0.900000E-01   1.00800           0
     34590 LPSA32   1        ECLIPA   H612S    HAL3     0.900000E-01   1.00800           0
     34591 LPSA32   1        ECLIPA   H612T    HAL3     0.900000E-01   1.00800           0
     34592 LPSA32   1        ECLIPA   C54      CTL2    -0.180000       12.0110           0
     34593 LPSA32   1        ECLIPA   H54R     HAL2     0.900000E-01   1.00800           0
     34594 LPSA32   1        ECLIPA   H54S     HAL2     0.900000E-01   1.00800           0
     34595 LPSA32   1        ECLIPA   C55      CTL2    -0.180000       12.0110           0
     34596 LPSA32   1        ECLIPA   H55R     HAL2     0.900000E-01   1.00800           0
     34597 LPSA32   1        ECLIPA   H55S     HAL2     0.900000E-01   1.00800           0
     34598 LPSA32   1        ECLIPA   C56      CTL2    -0.180000       12.0110           0
     34599 LPSA32   1        ECLIPA   H56R     HAL2     0.900000E-01   1.00800           0
     34600 LPSA32   1        ECLIPA   H56S     HAL2     0.900000E-01   1.00800           0
     34601 LPSA32   1        ECLIPA   C57      CTL2    -0.180000       12.0110           0
     34602 LPSA32   1        ECLIPA   H57R     HAL2     0.900000E-01   1.00800           0
     34603 LPSA32   1        ECLIPA   H57S     HAL2     0.900000E-01   1.00800           0
     34604 LPSA32   1        ECLIPA   C58      CTL2    -0.180000       12.0110           0
     34605 LPSA32   1        ECLIPA   H58R     HAL2     0.900000E-01   1.00800           0
     34606 LPSA32   1        ECLIPA   H58S     HAL2     0.900000E-01   1.00800           0
     34607 LPSA32   1        ECLIPA   C59      CTL2    -0.180000       12.0110           0
     34608 LPSA32   1        ECLIPA   H59R     HAL2     0.900000E-01   1.00800           0
     34609 LPSA32   1        ECLIPA   H59S     HAL2     0.900000E-01   1.00800           0
     34610 LPSA32   1        ECLIPA   C510     CTL2    -0.180000       12.0110           0
     34611 LPSA32   1        ECLIPA   H510R    HAL2     0.900000E-01   1.00800           0
     34612 LPSA32   1        ECLIPA   H510S    HAL2     0.900000E-01   1.00800           0
     34613 LPSA32   1        ECLIPA   C511     CTL2    -0.180000       12.0110           0
     34614 LPSA32   1        ECLIPA   H511R    HAL2     0.900000E-01   1.00800           0
     34615 LPSA32   1        ECLIPA   H511S    HAL2     0.900000E-01   1.00800           0
     34616 LPSA32   1        ECLIPA   C512     CTL2    -0.180000       12.0110           0
     34617 LPSA32   1        ECLIPA   H512R    HAL2     0.900000E-01   1.00800           0
     34618 LPSA32   1        ECLIPA   H512S    HAL2     0.900000E-01   1.00800           0
     34619 LPSA32   1        ECLIPA   C513     CTL2    -0.180000       12.0110           0
     34620 LPSA32   1        ECLIPA   H513R    HAL2     0.900000E-01   1.00800           0
     34621 LPSA32   1        ECLIPA   H513S    HAL2     0.900000E-01   1.00800           0
     34622 LPSA32   1        ECLIPA   C514     CTL3    -0.270000       12.0110           0
     34623 LPSA32   1        ECLIPA   H514R    HAL3     0.900000E-01   1.00800           0
     34624 LPSA32   1        ECLIPA   H514S    HAL3     0.900000E-01   1.00800           0
     34625 LPSA32   1        ECLIPA   H514T    HAL3     0.900000E-01   1.00800           0
     34626 LPSA32   1        ECLIPA   C33      CTL1     0.140000       12.0110           0
     34627 LPSA32   1        ECLIPA   H33R     HAL1     0.900000E-01   1.00800           0
     34628 LPSA32   1        ECLIPA   O33      OH1     -0.660000       15.9994           0
     34629 LPSA32   1        ECLIPA   HO33     H        0.430000       1.00800           0
     34630 LPSA32   1        ECLIPA   C34      CTL2    -0.180000       12.0110           0
     34631 LPSA32   1        ECLIPA   H34R     HAL2     0.900000E-01   1.00800           0
     34632 LPSA32   1        ECLIPA   H34S     HAL2     0.900000E-01   1.00800           0
     34633 LPSA32   1        ECLIPA   C35      CTL2    -0.180000       12.0110           0
     34634 LPSA32   1        ECLIPA   H35R     HAL2     0.900000E-01   1.00800           0
     34635 LPSA32   1        ECLIPA   H35S     HAL2     0.900000E-01   1.00800           0
     34636 LPSA32   1        ECLIPA   C36      CTL2    -0.180000       12.0110           0
     34637 LPSA32   1        ECLIPA   H36R     HAL2     0.900000E-01   1.00800           0
     34638 LPSA32   1        ECLIPA   H36S     HAL2     0.900000E-01   1.00800           0
     34639 LPSA32   1        ECLIPA   C37      CTL2    -0.180000       12.0110           0
     34640 LPSA32   1        ECLIPA   H37R     HAL2     0.900000E-01   1.00800           0
     34641 LPSA32   1        ECLIPA   H37S     HAL2     0.900000E-01   1.00800           0
     34642 LPSA32   1        ECLIPA   C38      CTL2    -0.180000       12.0110           0
     34643 LPSA32   1        ECLIPA   H38R     HAL2     0.900000E-01   1.00800           0
     34644 LPSA32   1        ECLIPA   H38S     HAL2     0.900000E-01   1.00800           0
     34645 LPSA32   1        ECLIPA   C39      CTL2    -0.180000       12.0110           0
     34646 LPSA32   1        ECLIPA   H39R     HAL2     0.900000E-01   1.00800           0
     34647 LPSA32   1        ECLIPA   H39S     HAL2     0.900000E-01   1.00800           0
     34648 LPSA32   1        ECLIPA   C310     CTL2    -0.180000       12.0110           0
     34649 LPSA32   1        ECLIPA   H310R    HAL2     0.900000E-01   1.00800           0
     34650 LPSA32   1        ECLIPA   H310S    HAL2     0.900000E-01   1.00800           0
     34651 LPSA32   1        ECLIPA   C311     CTL2    -0.180000       12.0110           0
     34652 LPSA32   1        ECLIPA   H311R    HAL2     0.900000E-01   1.00800           0
     34653 LPSA32   1        ECLIPA   H311S    HAL2     0.900000E-01   1.00800           0
     34654 LPSA32   1        ECLIPA   C312     CTL2    -0.180000       12.0110           0
     34655 LPSA32   1        ECLIPA   H312R    HAL2     0.900000E-01   1.00800           0
     34656 LPSA32   1        ECLIPA   H312S    HAL2     0.900000E-01   1.00800           0
     34657 LPSA32   1        ECLIPA   C313     CTL2    -0.180000       12.0110           0
     34658 LPSA32   1        ECLIPA   H313R    HAL2     0.900000E-01   1.00800           0
     34659 LPSA32   1        ECLIPA   H313S    HAL2     0.900000E-01   1.00800           0
     34660 LPSA32   1        ECLIPA   C314     CTL3    -0.270000       12.0110           0
     34661 LPSA32   1        ECLIPA   H314R    HAL3     0.900000E-01   1.00800           0
     34662 LPSA32   1        ECLIPA   H314S    HAL3     0.900000E-01   1.00800           0
     34663 LPSA32   1        ECLIPA   H314T    HAL3     0.900000E-01   1.00800           0
     34664 LPSA32   1        ECLIPA   C11      CC2O1    0.550000       12.0110           0
     34665 LPSA32   1        ECLIPA   O11      OC2D1   -0.550000       15.9994           0
     34666 LPSA32   1        ECLIPA   C12      CTL2    -0.180000       12.0110           0
     34667 LPSA32   1        ECLIPA   H12R     HAL2     0.900000E-01   1.00800           0
     34668 LPSA32   1        ECLIPA   H12S     HAL2     0.900000E-01   1.00800           0
     34669 LPSA32   1        ECLIPA   C13      CTL1     0.140000       12.0110           0
     34670 LPSA32   1        ECLIPA   H13R     HAL1     0.900000E-01   1.00800           0
     34671 LPSA32   1        ECLIPA   O13      OH1     -0.660000       15.9994           0
     34672 LPSA32   1        ECLIPA   HO13     H        0.430000       1.00800           0
     34673 LPSA32   1        ECLIPA   C14      CTL2    -0.180000       12.0110           0
     34674 LPSA32   1        ECLIPA   H14R     HAL2     0.900000E-01   1.00800           0
     34675 LPSA32   1        ECLIPA   H14S     HAL2     0.900000E-01   1.00800           0
     34676 LPSA32   1        ECLIPA   C15      CTL2    -0.180000       12.0110           0
     34677 LPSA32   1        ECLIPA   H15R     HAL2     0.900000E-01   1.00800           0
     34678 LPSA32   1        ECLIPA   H15S     HAL2     0.900000E-01   1.00800           0
     34679 LPSA32   1        ECLIPA   C16      CTL2    -0.180000       12.0110           0
     34680 LPSA32   1        ECLIPA   H16R     HAL2     0.900000E-01   1.00800           0
     34681 LPSA32   1        ECLIPA   H16S     HAL2     0.900000E-01   1.00800           0
     34682 LPSA32   1        ECLIPA   C17      CTL2    -0.180000       12.0110           0
     34683 LPSA32   1        ECLIPA   H17R     HAL2     0.900000E-01   1.00800           0
     34684 LPSA32   1        ECLIPA   H17S     HAL2     0.900000E-01   1.00800           0
     34685 LPSA32   1        ECLIPA   C18      CTL2    -0.180000       12.0110           0
     34686 LPSA32   1        ECLIPA   H18R     HAL2     0.900000E-01   1.00800           0
     34687 LPSA32   1        ECLIPA   H18S     HAL2     0.900000E-01   1.00800           0
     34688 LPSA32   1        ECLIPA   C19      CTL2    -0.180000       12.0110           0
     34689 LPSA32   1        ECLIPA   H19R     HAL2     0.900000E-01   1.00800           0
     34690 LPSA32   1        ECLIPA   H19S     HAL2     0.900000E-01   1.00800           0
     34691 LPSA32   1        ECLIPA   C110     CTL2    -0.180000       12.0110           0
     34692 LPSA32   1        ECLIPA   H110R    HAL2     0.900000E-01   1.00800           0
     34693 LPSA32   1        ECLIPA   H110S    HAL2     0.900000E-01   1.00800           0
     34694 LPSA32   1        ECLIPA   C111     CTL2    -0.180000       12.0110           0
     34695 LPSA32   1        ECLIPA   H111R    HAL2     0.900000E-01   1.00800           0
     34696 LPSA32   1        ECLIPA   H111S    HAL2     0.900000E-01   1.00800           0
     34697 LPSA32   1        ECLIPA   C112     CTL2    -0.180000       12.0110           0
     34698 LPSA32   1        ECLIPA   H112R    HAL2     0.900000E-01   1.00800           0
     34699 LPSA32   1        ECLIPA   H112S    HAL2     0.900000E-01   1.00800           0
     34700 LPSA32   1        ECLIPA   C113     CTL2    -0.180000       12.0110           0
     34701 LPSA32   1        ECLIPA   H113R    HAL2     0.900000E-01   1.00800           0
     34702 LPSA32   1        ECLIPA   H113S    HAL2     0.900000E-01   1.00800           0
     34703 LPSA32   1        ECLIPA   C114     CTL3    -0.270000       12.0110           0
     34704 LPSA32   1        ECLIPA   H114R    HAL3     0.900000E-01   1.00800           0
     34705 LPSA32   1        ECLIPA   H114S    HAL3     0.900000E-01   1.00800           0
     34706 LPSA32   1        ECLIPA   H114T    HAL3     0.900000E-01   1.00800           0
     34707 LPSA32   2        AKDO     C1       CC2O2    0.300000       12.0110           0
     34708 LPSA32   2        AKDO     O11      OC2D2   -0.600000       15.9994           0
     34709 LPSA32   2        AKDO     O12      OC2D2   -0.600000       15.9994           0
     34710 LPSA32   2        AKDO     C2       CC3062   0.280000       12.0110           0
     34711 LPSA32   2        AKDO     C6       CC3163   0.110000       12.0110           0
     34712 LPSA32   2        AKDO     H6       HCA1     0.900000E-01   1.00800           0
     34713 LPSA32   2        AKDO     O6       OC3C61  -0.400000       15.9994           0
     34714 LPSA32   2        AKDO     C3       CC3261  -0.180000       12.0110           0
     34715 LPSA32   2        AKDO     H31      HCA2     0.900000E-01   1.00800           0
     34716 LPSA32   2        AKDO     H32      HCA2     0.900000E-01   1.00800           0
     34717 LPSA32   2        AKDO     C4       CC3161   0.900000E-01   12.0110           0
     34718 LPSA32   2        AKDO     H4       HCA1     0.900000E-01   1.00800           0
     34719 LPSA32   2        AKDO     O4       OC301   -0.360000       15.9994           0
     34720 LPSA32   2        AKDO     C5       CC3161   0.900000E-01   12.0110           0
     34721 LPSA32   2        AKDO     H5       HCA1     0.900000E-01   1.00800           0
     34722 LPSA32   2        AKDO     O5       OC301   -0.360000       15.9994           0
     34723 LPSA32   2        AKDO     C7       CC312    0.140000       12.0110           0
     34724 LPSA32   2        AKDO     H7       HCA1     0.900000E-01   1.00800           0
     34725 LPSA32   2        AKDO     O7       OC311   -0.650000       15.9994           0
     34726 LPSA32   2        AKDO     HO7      HCP1     0.420000       1.00800           0
     34727 LPSA32   2        AKDO     C8       CC322    0.500000E-01   12.0110           0
     34728 LPSA32   2        AKDO     H81      HCA2     0.900000E-01   1.00800           0
     34729 LPSA32   2        AKDO     H82      HCA2     0.900000E-01   1.00800           0
     34730 LPSA32   2        AKDO     O8       OC311   -0.650000       15.9994           0
     34731 LPSA32   2        AKDO     HO8      HCP1     0.420000       1.00800           0
     34732 LPSA32   3        AKDO     C1       CC2O2    0.300000       12.0110           0
     34733 LPSA32   3        AKDO     O11      OC2D2   -0.600000       15.9994           0
     34734 LPSA32   3        AKDO     O12      OC2D2   -0.600000       15.9994           0
     34735 LPSA32   3        AKDO     C2       CC3062   0.280000       12.0110           0
     34736 LPSA32   3        AKDO     C6       CC3163   0.110000       12.0110           0
     34737 LPSA32   3        AKDO     H6       HCA1     0.900000E-01   1.00800           0
     34738 LPSA32   3        AKDO     O6       OC3C61  -0.400000       15.9994           0
     34739 LPSA32   3        AKDO     C3       CC3261  -0.180000       12.0110           0
     34740 LPSA32   3        AKDO     H31      HCA2     0.900000E-01   1.00800           0
     34741 LPSA32   3        AKDO     H32      HCA2     0.900000E-01   1.00800           0
     34742 LPSA32   3        AKDO     C4       CC3161   0.140000       12.0110           0
     34743 LPSA32   3        AKDO     H4       HCA1     0.900000E-01   1.00800           0
     34744 LPSA32   3        AKDO     O4       OC311   -0.650000       15.9994           0
     34745 LPSA32   3        AKDO     HO4      HCP1     0.420000       1.00800           0
     34746 LPSA32   3        AKDO     C5       CC3161   0.140000       12.0110           0
     34747 LPSA32   3        AKDO     H5       HCA1     0.900000E-01   1.00800           0
     34748 LPSA32   3        AKDO     O5       OC311   -0.650000       15.9994           0
     34749 LPSA32   3        AKDO     HO5      HCP1     0.420000       1.00800           0
     34750 LPSA32   3        AKDO     C7       CC312    0.140000       12.0110           0
     34751 LPSA32   3        AKDO     H7       HCA1     0.900000E-01   1.00800           0
     34752 LPSA32   3        AKDO     O7       OC311   -0.650000       15.9994           0
     34753 LPSA32   3        AKDO     HO7      HCP1     0.420000       1.00800           0
     34754 LPSA32   3        AKDO     C8       CC322    0.500000E-01   12.0110           0
     34755 LPSA32   3        AKDO     H81      HCA2     0.900000E-01   1.00800           0
     34756 LPSA32   3        AKDO     H82      HCA2     0.900000E-01   1.00800           0
     34757 LPSA32   3        AKDO     O8       OC311   -0.650000       15.9994           0
     34758 LPSA32   3        AKDO     HO8      HCP1     0.420000       1.00800           0
     34759 LPSA32   4        AHEP     C1       CC3162   0.290000       12.0110           0
     34760 LPSA32   4        AHEP     H1       HCA1     0.900000E-01   1.00800           0
     34761 LPSA32   4        AHEP     C5       CC3163   0.110000       12.0110           0
     34762 LPSA32   4        AHEP     H5       HCA1     0.900000E-01   1.00800           0
     34763 LPSA32   4        AHEP     O5       OC3C61  -0.400000       15.9994           0
     34764 LPSA32   4        AHEP     C2       CC3161   0.140000       12.0110           0
     34765 LPSA32   4        AHEP     H2       HCA1     0.900000E-01   1.00800           0
     34766 LPSA32   4        AHEP     O2       OC311   -0.650000       15.9994           0
     34767 LPSA32   4        AHEP     HO2      HCP1     0.420000       1.00800           0
     34768 LPSA32   4        AHEP     C3       CC3161   0.900000E-01   12.0110           0
     34769 LPSA32   4        AHEP     H3       HCA1     0.900000E-01   1.00800           0
     34770 LPSA32   4        AHEP     O3       OC301   -0.360000       15.9994           0
     34771 LPSA32   4        AHEP     C4       CC3161  -0.900000E-01   12.0110           0
     34772 LPSA32   4        AHEP     H4       HCA1     0.900000E-01   1.00800           0
     34773 LPSA32   4        AHEP     O4       OC30P   -0.400000       15.9994           0
     34774 LPSA32   4        AHEP     P4       PC        1.10000       30.9740           0
     34775 LPSA32   4        AHEP     OP42     OC2DP   -0.900000       15.9994           0
     34776 LPSA32   4        AHEP     OP43     OC2DP   -0.900000       15.9994           0
     34777 LPSA32   4        AHEP     OP44     OC2DP   -0.900000       15.9994           0
     34778 LPSA32   4        AHEP     C6       CC312    0.140000       12.0110           0
     34779 LPSA32   4        AHEP     H6       HCA1     0.900000E-01   1.00800           0
     34780 LPSA32   4        AHEP     O6       OC311   -0.650000       15.9994           0
     34781 LPSA32   4        AHEP     HO6      HCP1     0.420000       1.00800           0
     34782 LPSA32   4        AHEP     C7       CC322    0.500000E-01   12.0110           0
     34783 LPSA32   4        AHEP     H71      HCA2     0.900000E-01   1.00800           0
     34784 LPSA32   4        AHEP     H72      HCA2     0.900000E-01   1.00800           0
     34785 LPSA32   4        AHEP     O7       OC311   -0.650000       15.9994           0
     34786 LPSA32   4        AHEP     HO7      HCP1     0.420000       1.00800           0
     34787 LPSA32   5        AHEP     C1       CC3162   0.290000       12.0110           0
     34788 LPSA32   5        AHEP     H1       HCA1     0.900000E-01   1.00800           0
     34789 LPSA32   5        AHEP     C5       CC3163   0.110000       12.0110           0
     34790 LPSA32   5        AHEP     H5       HCA1     0.900000E-01   1.00800           0
     34791 LPSA32   5        AHEP     O5       OC3C61  -0.400000       15.9994           0
     34792 LPSA32   5        AHEP     C2       CC3161   0.140000       12.0110           0
     34793 LPSA32   5        AHEP     H2       HCA1     0.900000E-01   1.00800           0
     34794 LPSA32   5        AHEP     O2       OC311   -0.650000       15.9994           0
     34795 LPSA32   5        AHEP     HO2      HCP1     0.420000       1.00800           0
     34796 LPSA32   5        AHEP     C3       CC3161   0.900000E-01   12.0110           0
     34797 LPSA32   5        AHEP     H3       HCA1     0.900000E-01   1.00800           0
     34798 LPSA32   5        AHEP     O3       OC301   -0.360000       15.9994           0
     34799 LPSA32   5        AHEP     C4       CC3161  -0.900000E-01   12.0110           0
     34800 LPSA32   5        AHEP     H4       HCA1     0.900000E-01   1.00800           0
     34801 LPSA32   5        AHEP     O4       OC30P   -0.400000       15.9994           0
     34802 LPSA32   5        AHEP     P4       PC        1.10000       30.9740           0
     34803 LPSA32   5        AHEP     OP42     OC2DP   -0.900000       15.9994           0
     34804 LPSA32   5        AHEP     OP43     OC2DP   -0.900000       15.9994           0
     34805 LPSA32   5        AHEP     OP44     OC2DP   -0.900000       15.9994           0
     34806 LPSA32   5        AHEP     C6       CC312    0.140000       12.0110           0
     34807 LPSA32   5        AHEP     H6       HCA1     0.900000E-01   1.00800           0
     34808 LPSA32   5        AHEP     O6       OC311   -0.650000       15.9994           0
     34809 LPSA32   5        AHEP     HO6      HCP1     0.420000       1.00800           0
     34810 LPSA32   5        AHEP     C7       CC322     0.00000       12.0110           0
     34811 LPSA32   5        AHEP     H71      HCA2     0.900000E-01   1.00800           0
     34812 LPSA32   5        AHEP     H72      HCA2     0.900000E-01   1.00800           0
     34813 LPSA32   5        AHEP     O7       OC301   -0.360000       15.9994           0
     34814 LPSA32   6        AHEP     C1       CC3162   0.290000       12.0110           0
     34815 LPSA32   6        AHEP     H1       HCA1     0.900000E-01   1.00800           0
     34816 LPSA32   6        AHEP     C5       CC3163   0.110000       12.0110           0
     34817 LPSA32   6        AHEP     H5       HCA1     0.900000E-01   1.00800           0
     34818 LPSA32   6        AHEP     O5       OC3C61  -0.400000       15.9994           0
     34819 LPSA32   6        AHEP     C2       CC3161   0.140000       12.0110           0
     34820 LPSA32   6        AHEP     H2       HCA1     0.900000E-01   1.00800           0
     34821 LPSA32   6        AHEP     O2       OC311   -0.650000       15.9994           0
     34822 LPSA32   6        AHEP     HO2      HCP1     0.420000       1.00800           0
     34823 LPSA32   6        AHEP     C3       CC3161   0.140000       12.0110           0
     34824 LPSA32   6        AHEP     H3       HCA1     0.900000E-01   1.00800           0
     34825 LPSA32   6        AHEP     O3       OC311   -0.650000       15.9994           0
     34826 LPSA32   6        AHEP     HO3      HCP1     0.420000       1.00800           0
     34827 LPSA32   6        AHEP     C4       CC3161   0.140000       12.0110           0
     34828 LPSA32   6        AHEP     H4       HCA1     0.900000E-01   1.00800           0
     34829 LPSA32   6        AHEP     O4       OC311   -0.650000       15.9994           0
     34830 LPSA32   6        AHEP     HO4      HCP1     0.420000       1.00800           0
     34831 LPSA32   6        AHEP     C6       CC312    0.140000       12.0110           0
     34832 LPSA32   6        AHEP     H6       HCA1     0.900000E-01   1.00800           0
     34833 LPSA32   6        AHEP     O6       OC311   -0.650000       15.9994           0
     34834 LPSA32   6        AHEP     HO6      HCP1     0.420000       1.00800           0
     34835 LPSA32   6        AHEP     C7       CC322    0.500000E-01   12.0110           0
     34836 LPSA32   6        AHEP     H71      HCA2     0.900000E-01   1.00800           0
     34837 LPSA32   6        AHEP     H72      HCA2     0.900000E-01   1.00800           0
     34838 LPSA32   6        AHEP     O7       OC311   -0.650000       15.9994           0
     34839 LPSA32   6        AHEP     HO7      HCP1     0.420000       1.00800           0
     34840 LPSA32   7        AGLC     C1       CC3162   0.290000       12.0110           0
     34841 LPSA32   7        AGLC     H1       HCA1     0.900000E-01   1.00800           0
     34842 LPSA32   7        AGLC     C5       CC3163   0.110000       12.0110           0
     34843 LPSA32   7        AGLC     H5       HCA1     0.900000E-01   1.00800           0
     34844 LPSA32   7        AGLC     O5       OC3C61  -0.400000       15.9994           0
     34845 LPSA32   7        AGLC     C2       CC3161   0.140000       12.0110           0
     34846 LPSA32   7        AGLC     H2       HCA1     0.900000E-01   1.00800           0
     34847 LPSA32   7        AGLC     O2       OC311   -0.650000       15.9994           0
     34848 LPSA32   7        AGLC     HO2      HCP1     0.420000       1.00800           0
     34849 LPSA32   7        AGLC     C3       CC3161   0.900000E-01   12.0110           0
     34850 LPSA32   7        AGLC     H3       HCA1     0.900000E-01   1.00800           0
     34851 LPSA32   7        AGLC     O3       OC301   -0.360000       15.9994           0
     34852 LPSA32   7        AGLC     C4       CC3161   0.140000       12.0110           0
     34853 LPSA32   7        AGLC     H4       HCA1     0.900000E-01   1.00800           0
     34854 LPSA32   7        AGLC     O4       OC311   -0.650000       15.9994           0
     34855 LPSA32   7        AGLC     HO4      HCP1     0.420000       1.00800           0
     34856 LPSA32   7        AGLC     C6       CC321    0.500000E-01   12.0110           0
     34857 LPSA32   7        AGLC     H61      HCA2     0.900000E-01   1.00800           0
     34858 LPSA32   7        AGLC     H62      HCA2     0.900000E-01   1.00800           0
     34859 LPSA32   7        AGLC     O6       OC311   -0.650000       15.9994           0
     34860 LPSA32   7        AGLC     HO6      HCP1     0.420000       1.00800           0
     34861 LPSA32   8        AGLC     C1       CC3162   0.290000       12.0110           0
     34862 LPSA32   8        AGLC     H1       HCA1     0.900000E-01   1.00800           0
     34863 LPSA32   8        AGLC     C5       CC3163   0.110000       12.0110           0
     34864 LPSA32   8        AGLC     H5       HCA1     0.900000E-01   1.00800           0
     34865 LPSA32   8        AGLC     O5       OC3C61  -0.400000       15.9994           0
     34866 LPSA32   8        AGLC     C2       CC3161   0.900000E-01   12.0110           0
     34867 LPSA32   8        AGLC     H2       HCA1     0.900000E-01   1.00800           0
     34868 LPSA32   8        AGLC     O2       OC301   -0.360000       15.9994           0
     34869 LPSA32   8        AGLC     C3       CC3161   0.900000E-01   12.0110           0
     34870 LPSA32   8        AGLC     H3       HCA1     0.900000E-01   1.00800           0
     34871 LPSA32   8        AGLC     O3       OC301   -0.360000       15.9994           0
     34872 LPSA32   8        AGLC     C4       CC3161   0.140000       12.0110           0
     34873 LPSA32   8        AGLC     H4       HCA1     0.900000E-01   1.00800           0
     34874 LPSA32   8        AGLC     O4       OC311   -0.650000       15.9994           0
     34875 LPSA32   8        AGLC     HO4      HCP1     0.420000       1.00800           0
     34876 LPSA32   8        AGLC     C6       CC321    0.500000E-01   12.0110           0
     34877 LPSA32   8        AGLC     H61      HCA2     0.900000E-01   1.00800           0
     34878 LPSA32   8        AGLC     H62      HCA2     0.900000E-01   1.00800           0
     34879 LPSA32   8        AGLC     O6       OC311   -0.650000       15.9994           0
     34880 LPSA32   8        AGLC     HO6      HCP1     0.420000       1.00800           0
     34881 LPSA32   9        AGAL     C1       CC3162   0.290000       12.0110           0
     34882 LPSA32   9        AGAL     H1       HCA1     0.900000E-01   1.00800           0
     34883 LPSA32   9        AGAL     C5       CC3163   0.110000       12.0110           0
     34884 LPSA32   9        AGAL     H5       HCA1     0.900000E-01   1.00800           0
     34885 LPSA32   9        AGAL     O5       OC3C61  -0.400000       15.9994           0
     34886 LPSA32   9        AGAL     C2       CC3161   0.900000E-01   12.0110           0
     34887 LPSA32   9        AGAL     H2       HCA1     0.900000E-01   1.00800           0
     34888 LPSA32   9        AGAL     O2       OC301   -0.360000       15.9994           0
     34889 LPSA32   9        AGAL     C3       CC3161   0.140000       12.0110           0
     34890 LPSA32   9        AGAL     H3       HCA1     0.900000E-01   1.00800           0
     34891 LPSA32   9        AGAL     O3       OC311   -0.650000       15.9994           0
     34892 LPSA32   9        AGAL     HO3      HCP1     0.420000       1.00800           0
     34893 LPSA32   9        AGAL     C4       CC3161   0.140000       12.0110           0
     34894 LPSA32   9        AGAL     H4       HCA1     0.900000E-01   1.00800           0
     34895 LPSA32   9        AGAL     O4       OC311   -0.650000       15.9994           0
     34896 LPSA32   9        AGAL     HO4      HCP1     0.420000       1.00800           0
     34897 LPSA32   9        AGAL     C6       CC321    0.500000E-01   12.0110           0
     34898 LPSA32   9        AGAL     H61      HCA2     0.900000E-01   1.00800           0
     34899 LPSA32   9        AGAL     H62      HCA2     0.900000E-01   1.00800           0
     34900 LPSA32   9        AGAL     O6       OC311   -0.650000       15.9994           0
     34901 LPSA32   9        AGAL     HO6      HCP1     0.420000       1.00800           0
     34902 LPSA32   10       AGAL     C1       CC3162   0.290000       12.0110           0
     34903 LPSA32   10       AGAL     H1       HCA1     0.900000E-01   1.00800           0
     34904 LPSA32   10       AGAL     C5       CC3163   0.110000       12.0110           0
     34905 LPSA32   10       AGAL     H5       HCA1     0.900000E-01   1.00800           0
     34906 LPSA32   10       AGAL     O5       OC3C61  -0.400000       15.9994           0
     34907 LPSA32   10       AGAL     C2       CC3161   0.140000       12.0110           0
     34908 LPSA32   10       AGAL     H2       HCA1     0.900000E-01   1.00800           0
     34909 LPSA32   10       AGAL     O2       OC311   -0.650000       15.9994           0
     34910 LPSA32   10       AGAL     HO2      HCP1     0.420000       1.00800           0
     34911 LPSA32   10       AGAL     C3       CC3161   0.140000       12.0110           0
     34912 LPSA32   10       AGAL     H3       HCA1     0.900000E-01   1.00800           0
     34913 LPSA32   10       AGAL     O3       OC311   -0.650000       15.9994           0
     34914 LPSA32   10       AGAL     HO3      HCP1     0.420000       1.00800           0
     34915 LPSA32   10       AGAL     C4       CC3161   0.140000       12.0110           0
     34916 LPSA32   10       AGAL     H4       HCA1     0.900000E-01   1.00800           0
     34917 LPSA32   10       AGAL     O4       OC311   -0.650000       15.9994           0
     34918 LPSA32   10       AGAL     HO4      HCP1     0.420000       1.00800           0
     34919 LPSA32   10       AGAL     C6       CC321    0.500000E-01   12.0110           0
     34920 LPSA32   10       AGAL     H61      HCA2     0.900000E-01   1.00800           0
     34921 LPSA32   10       AGAL     H62      HCA2     0.900000E-01   1.00800           0
     34922 LPSA32   10       AGAL     O6       OC311   -0.650000       15.9994           0
     34923 LPSA32   10       AGAL     HO6      HCP1     0.420000       1.00800           0
     34924 LPSA32   11       BGLC     C1       CC3162   0.290000       12.0110           0
     34925 LPSA32   11       BGLC     H1       HCA1     0.900000E-01   1.00800           0
     34926 LPSA32   11       BGLC     C5       CC3163   0.110000       12.0110           0
     34927 LPSA32   11       BGLC     H5       HCA1     0.900000E-01   1.00800           0
     34928 LPSA32   11       BGLC     O5       OC3C61  -0.400000       15.9994           0
     34929 LPSA32   11       BGLC     C2       CC3161   0.140000       12.0110           0
     34930 LPSA32   11       BGLC     H2       HCA1     0.900000E-01   1.00800           0
     34931 LPSA32   11       BGLC     O2       OC311   -0.650000       15.9994           0
     34932 LPSA32   11       BGLC     HO2      HCP1     0.420000       1.00800           0
     34933 LPSA32   11       BGLC     C3       CC3161   0.900000E-01   12.0110           0
     34934 LPSA32   11       BGLC     H3       HCA1     0.900000E-01   1.00800           0
     34935 LPSA32   11       BGLC     O3       OC301   -0.360000       15.9994           0
     34936 LPSA32   11       BGLC     C4       CC3161   0.140000       12.0110           0
     34937 LPSA32   11       BGLC     H4       HCA1     0.900000E-01   1.00800           0
     34938 LPSA32   11       BGLC     O4       OC311   -0.650000       15.9994           0
     34939 LPSA32   11       BGLC     HO4      HCP1     0.420000       1.00800           0
     34940 LPSA32   11       BGLC     C6       CC321    0.500000E-01   12.0110           0
     34941 LPSA32   11       BGLC     H61      HCA2     0.900000E-01   1.00800           0
     34942 LPSA32   11       BGLC     H62      HCA2     0.900000E-01   1.00800           0
     34943 LPSA32   11       BGLC     O6       OC311   -0.650000       15.9994           0
     34944 LPSA32   11       BGLC     HO6      HCP1     0.420000       1.00800           0
     34945 LPSA32   12       BGLCNA   C1       CC3162   0.290000       12.0110           0
     34946 LPSA32   12       BGLCNA   H1       HCA1     0.900000E-01   1.00800           0
     34947 LPSA32   12       BGLCNA   C5       CC3163   0.110000       12.0110           0
     34948 LPSA32   12       BGLCNA   H5       HCA1     0.900000E-01   1.00800           0
     34949 LPSA32   12       BGLCNA   O5       OC3C61  -0.400000       15.9994           0
     34950 LPSA32   12       BGLCNA   C2       CC3161   0.700000E-01   12.0110           0
     34951 LPSA32   12       BGLCNA   H2       HCA1     0.900000E-01   1.00800           0
     34952 LPSA32   12       BGLCNA   N        NC2D1   -0.470000       14.0070           0
     34953 LPSA32   12       BGLCNA   HN       HCP1     0.310000       1.00800           0
     34954 LPSA32   12       BGLCNA   C        CC2O1    0.510000       12.0110           0
     34955 LPSA32   12       BGLCNA   O        OC2D1   -0.510000       15.9994           0
     34956 LPSA32   12       BGLCNA   CT       CC331   -0.270000       12.0110           0
     34957 LPSA32   12       BGLCNA   HT1      HCA3     0.900000E-01   1.00800           0
     34958 LPSA32   12       BGLCNA   HT2      HCA3     0.900000E-01   1.00800           0
     34959 LPSA32   12       BGLCNA   HT3      HCA3     0.900000E-01   1.00800           0
     34960 LPSA32   12       BGLCNA   C3       CC3161   0.900000E-01   12.0110           0
     34961 LPSA32   12       BGLCNA   H3       HCA1     0.900000E-01   1.00800           0
     34962 LPSA32   12       BGLCNA   O3       OC301   -0.360000       15.9994           0
     34963 LPSA32   12       BGLCNA   C4       CC3161   0.140000       12.0110           0
     34964 LPSA32   12       BGLCNA   H4       HCA1     0.900000E-01   1.00800           0
     34965 LPSA32   12       BGLCNA   O4       OC311   -0.650000       15.9994           0
     34966 LPSA32   12       BGLCNA   HO4      HCP1     0.420000       1.00800           0
     34967 LPSA32   12       BGLCNA   C6       CC321    0.500000E-01   12.0110           0
     34968 LPSA32   12       BGLCNA   H61      HCA2     0.900000E-01   1.00800           0
     34969 LPSA32   12       BGLCNA   H62      HCA2     0.900000E-01   1.00800           0
     34970 LPSA32   12       BGLCNA   O6       OC311   -0.650000       15.9994           0
     34971 LPSA32   12       BGLCNA   HO6      HCP1     0.420000       1.00800           0
     34972 LPSA32   13       AGAL     C1       CC3162   0.290000       12.0110           0
     34973 LPSA32   13       AGAL     H1       HCA1     0.900000E-01   1.00800           0
     34974 LPSA32   13       AGAL     C5       CC3163   0.110000       12.0110           0
     34975 LPSA32   13       AGAL     H5       HCA1     0.900000E-01   1.00800           0
     34976 LPSA32   13       AGAL     O5       OC3C61  -0.400000       15.9994           0
     34977 LPSA32   13       AGAL     C2       CC3161   0.900000E-01   12.0110           0
     34978 LPSA32   13       AGAL     H2       HCA1     0.900000E-01   1.00800           0
     34979 LPSA32   13       AGAL     O2       OC301   -0.360000       15.9994           0
     34980 LPSA32   13       AGAL     C3       CC3161   0.140000       12.0110           0
     34981 LPSA32   13       AGAL     H3       HCA1     0.900000E-01   1.00800           0
     34982 LPSA32   13       AGAL     O3       OC311   -0.650000       15.9994           0
     34983 LPSA32   13       AGAL     HO3      HCP1     0.420000       1.00800           0
     34984 LPSA32   13       AGAL     C4       CC3161   0.140000       12.0110           0
     34985 LPSA32   13       AGAL     H4       HCA1     0.900000E-01   1.00800           0
     34986 LPSA32   13       AGAL     O4       OC311   -0.650000       15.9994           0
     34987 LPSA32   13       AGAL     HO4      HCP1     0.420000       1.00800           0
     34988 LPSA32   13       AGAL     C6       CC321    0.500000E-01   12.0110           0
     34989 LPSA32   13       AGAL     H61      HCA2     0.900000E-01   1.00800           0
     34990 LPSA32   13       AGAL     H62      HCA2     0.900000E-01   1.00800           0
     34991 LPSA32   13       AGAL     O6       OC311   -0.650000       15.9994           0
     34992 LPSA32   13       AGAL     HO6      HCP1     0.420000       1.00800           0
     34993 LPSA32   14       ARHM     C1       CC3162   0.290000       12.0110           0
     34994 LPSA32   14       ARHM     H1       HCA1     0.900000E-01   1.00800           0
     34995 LPSA32   14       ARHM     C5       CC3163   0.110000       12.0110           0
     34996 LPSA32   14       ARHM     H5       HCA1     0.900000E-01   1.00800           0
     34997 LPSA32   14       ARHM     O5       OC3C61  -0.400000       15.9994           0
     34998 LPSA32   14       ARHM     C2       CC3161   0.900000E-01   12.0110           0
     34999 LPSA32   14       ARHM     H2       HCA1     0.900000E-01   1.00800           0
     35000 LPSA32   14       ARHM     O2       OC301   -0.360000       15.9994           0
     35001 LPSA32   14       ARHM     C3       CC3161   0.140000       12.0110           0
     35002 LPSA32   14       ARHM     H3       HCA1     0.900000E-01   1.00800           0
     35003 LPSA32   14       ARHM     O3       OC311   -0.650000       15.9994           0
     35004 LPSA32   14       ARHM     HO3      HCP1     0.420000       1.00800           0
     35005 LPSA32   14       ARHM     C4       CC3161   0.140000       12.0110           0
     35006 LPSA32   14       ARHM     H4       HCA1     0.900000E-01   1.00800           0
     35007 LPSA32   14       ARHM     O4       OC311   -0.650000       15.9994           0
     35008 LPSA32   14       ARHM     HO4      HCP1     0.420000       1.00800           0
     35009 LPSA32   14       ARHM     C6       CC331   -0.270000       12.0110           0
     35010 LPSA32   14       ARHM     H61      HCA3     0.900000E-01   1.00800           0
     35011 LPSA32   14       ARHM     H62      HCA3     0.900000E-01   1.00800           0
     35012 LPSA32   14       ARHM     H63      HCA3     0.900000E-01   1.00800           0
     35013 LPSA32   15       ARHM     C1       CC3162   0.290000       12.0110           0
     35014 LPSA32   15       ARHM     H1       HCA1     0.900000E-01   1.00800           0
     35015 LPSA32   15       ARHM     C5       CC3163   0.110000       12.0110           0
     35016 LPSA32   15       ARHM     H5       HCA1     0.900000E-01   1.00800           0
     35017 LPSA32   15       ARHM     O5       OC3C61  -0.400000       15.9994           0
     35018 LPSA32   15       ARHM     C2       CC3161   0.900000E-01   12.0110           0
     35019 LPSA32   15       ARHM     H2       HCA1     0.900000E-01   1.00800           0
     35020 LPSA32   15       ARHM     O2       OC301   -0.360000       15.9994           0
     35021 LPSA32   15       ARHM     C3       CC3161   0.900000E-01   12.0110           0
     35022 LPSA32   15       ARHM     H3       HCA1     0.900000E-01   1.00800           0
     35023 LPSA32   15       ARHM     O3       OC301   -0.360000       15.9994           0
     35024 LPSA32   15       ARHM     C4       CC3161   0.140000       12.0110           0
     35025 LPSA32   15       ARHM     H4       HCA1     0.900000E-01   1.00800           0
     35026 LPSA32   15       ARHM     O4       OC311   -0.650000       15.9994           0
     35027 LPSA32   15       ARHM     HO4      HCP1     0.420000       1.00800           0
     35028 LPSA32   15       ARHM     C6       CC331   -0.270000       12.0110           0
     35029 LPSA32   15       ARHM     H61      HCA3     0.900000E-01   1.00800           0
     35030 LPSA32   15       ARHM     H62      HCA3     0.900000E-01   1.00800           0
     35031 LPSA32   15       ARHM     H63      HCA3     0.900000E-01   1.00800           0
     35032 LPSA32   16       BMANNA   C1       CC3162   0.290000       12.0110           0
     35033 LPSA32   16       BMANNA   H1       HCA1     0.900000E-01   1.00800           0
     35034 LPSA32   16       BMANNA   C5       CC3163   0.110000       12.0110           0
     35035 LPSA32   16       BMANNA   H5       HCA1     0.900000E-01   1.00800           0
     35036 LPSA32   16       BMANNA   O5       OC3C61  -0.400000       15.9994           0
     35037 LPSA32   16       BMANNA   C2       CC3161   0.700000E-01   12.0110           0
     35038 LPSA32   16       BMANNA   H2       HCA1     0.900000E-01   1.00800           0
     35039 LPSA32   16       BMANNA   N        NC2D1   -0.470000       14.0070           0
     35040 LPSA32   16       BMANNA   HN       HCP1     0.310000       1.00800           0
     35041 LPSA32   16       BMANNA   C        CC2O1    0.510000       12.0110           0
     35042 LPSA32   16       BMANNA   O        OC2D1   -0.510000       15.9994           0
     35043 LPSA32   16       BMANNA   CT       CC331   -0.270000       12.0110           0
     35044 LPSA32   16       BMANNA   HT1      HCA3     0.900000E-01   1.00800           0
     35045 LPSA32   16       BMANNA   HT2      HCA3     0.900000E-01   1.00800           0
     35046 LPSA32   16       BMANNA   HT3      HCA3     0.900000E-01   1.00800           0
     35047 LPSA32   16       BMANNA   C3       CC3161   0.140000       12.0110           0
     35048 LPSA32   16       BMANNA   H3       HCA1     0.900000E-01   1.00800           0
     35049 LPSA32   16       BMANNA   O3       OC311   -0.650000       15.9994           0
     35050 LPSA32   16       BMANNA   HO3      HCP1     0.420000       1.00800           0
     35051 LPSA32   16       BMANNA   C4       CC3161   0.140000       12.0110           0
     35052 LPSA32   16       BMANNA   H4       HCA1     0.900000E-01   1.00800           0
     35053 LPSA32   16       BMANNA   O4       OC311   -0.650000       15.9994           0
     35054 LPSA32   16       BMANNA   HO4      HCP1     0.420000       1.00800           0
     35055 LPSA32   16       BMANNA   C6       CC321    0.500000E-01   12.0110           0
     35056 LPSA32   16       BMANNA   H61      HCA2     0.900000E-01   1.00800           0
     35057 LPSA32   16       BMANNA   H62      HCA2     0.900000E-01   1.00800           0
     35058 LPSA32   16       BMANNA   O6       OC311   -0.650000       15.9994           0
     35059 LPSA32   16       BMANNA   HO6      HCP1     0.420000       1.00800           0
     35060 LPSA32   17       BGLCNA   C1       CC3162   0.290000       12.0110           0
     35061 LPSA32   17       BGLCNA   H1       HCA1     0.900000E-01   1.00800           0
     35062 LPSA32   17       BGLCNA   C5       CC3163   0.110000       12.0110           0
     35063 LPSA32   17       BGLCNA   H5       HCA1     0.900000E-01   1.00800           0
     35064 LPSA32   17       BGLCNA   O5       OC3C61  -0.400000       15.9994           0
     35065 LPSA32   17       BGLCNA   C2       CC3161   0.700000E-01   12.0110           0
     35066 LPSA32   17       BGLCNA   H2       HCA1     0.900000E-01   1.00800           0
     35067 LPSA32   17       BGLCNA   N        NC2D1   -0.470000       14.0070           0
     35068 LPSA32   17       BGLCNA   HN       HCP1     0.310000       1.00800           0
     35069 LPSA32   17       BGLCNA   C        CC2O1    0.510000       12.0110           0
     35070 LPSA32   17       BGLCNA   O        OC2D1   -0.510000       15.9994           0
     35071 LPSA32   17       BGLCNA   CT       CC331   -0.270000       12.0110           0
     35072 LPSA32   17       BGLCNA   HT1      HCA3     0.900000E-01   1.00800           0
     35073 LPSA32   17       BGLCNA   HT2      HCA3     0.900000E-01   1.00800           0
     35074 LPSA32   17       BGLCNA   HT3      HCA3     0.900000E-01   1.00800           0
     35075 LPSA32   17       BGLCNA   C3       CC3161   0.900000E-01   12.0110           0
     35076 LPSA32   17       BGLCNA   H3       HCA1     0.900000E-01   1.00800           0
     35077 LPSA32   17       BGLCNA   O3       OC301   -0.360000       15.9994           0
     35078 LPSA32   17       BGLCNA   C4       CC3161   0.140000       12.0110           0
     35079 LPSA32   17       BGLCNA   H4       HCA1     0.900000E-01   1.00800           0
     35080 LPSA32   17       BGLCNA   O4       OC311   -0.650000       15.9994           0
     35081 LPSA32   17       BGLCNA   HO4      HCP1     0.420000       1.00800           0
     35082 LPSA32   17       BGLCNA   C6       CC321    0.500000E-01   12.0110           0
     35083 LPSA32   17       BGLCNA   H61      HCA2     0.900000E-01   1.00800           0
     35084 LPSA32   17       BGLCNA   H62      HCA2     0.900000E-01   1.00800           0
     35085 LPSA32   17       BGLCNA   O6       OC311   -0.650000       15.9994           0
     35086 LPSA32   17       BGLCNA   HO6      HCP1     0.420000       1.00800           0
     35087 LPSA32   18       AGAL     C1       CC3162   0.290000       12.0110           0
     35088 LPSA32   18       AGAL     H1       HCA1     0.900000E-01   1.00800           0
     35089 LPSA32   18       AGAL     C5       CC3163   0.110000       12.0110           0
     35090 LPSA32   18       AGAL     H5       HCA1     0.900000E-01   1.00800           0
     35091 LPSA32   18       AGAL     O5       OC3C61  -0.400000       15.9994           0
     35092 LPSA32   18       AGAL     C2       CC3161   0.900000E-01   12.0110           0
     35093 LPSA32   18       AGAL     H2       HCA1     0.900000E-01   1.00800           0
     35094 LPSA32   18       AGAL     O2       OC301   -0.360000       15.9994           0
     35095 LPSA32   18       AGAL     C3       CC3161   0.140000       12.0110           0
     35096 LPSA32   18       AGAL     H3       HCA1     0.900000E-01   1.00800           0
     35097 LPSA32   18       AGAL     O3       OC311   -0.650000       15.9994           0
     35098 LPSA32   18       AGAL     HO3      HCP1     0.420000       1.00800           0
     35099 LPSA32   18       AGAL     C4       CC3161   0.140000       12.0110           0
     35100 LPSA32   18       AGAL     H4       HCA1     0.900000E-01   1.00800           0
     35101 LPSA32   18       AGAL     O4       OC311   -0.650000       15.9994           0
     35102 LPSA32   18       AGAL     HO4      HCP1     0.420000       1.00800           0
     35103 LPSA32   18       AGAL     C6       CC321    0.500000E-01   12.0110           0
     35104 LPSA32   18       AGAL     H61      HCA2     0.900000E-01   1.00800           0
     35105 LPSA32   18       AGAL     H62      HCA2     0.900000E-01   1.00800           0
     35106 LPSA32   18       AGAL     O6       OC311   -0.650000       15.9994           0
     35107 LPSA32   18       AGAL     HO6      HCP1     0.420000       1.00800           0
     35108 LPSA32   19       ARHM     C1       CC3162   0.290000       12.0110           0
     35109 LPSA32   19       ARHM     H1       HCA1     0.900000E-01   1.00800           0
     35110 LPSA32   19       ARHM     C5       CC3163   0.110000       12.0110           0
     35111 LPSA32   19       ARHM     H5       HCA1     0.900000E-01   1.00800           0
     35112 LPSA32   19       ARHM     O5       OC3C61  -0.400000       15.9994           0
     35113 LPSA32   19       ARHM     C2       CC3161   0.900000E-01   12.0110           0
     35114 LPSA32   19       ARHM     H2       HCA1     0.900000E-01   1.00800           0
     35115 LPSA32   19       ARHM     O2       OC301   -0.360000       15.9994           0
     35116 LPSA32   19       ARHM     C3       CC3161   0.140000       12.0110           0
     35117 LPSA32   19       ARHM     H3       HCA1     0.900000E-01   1.00800           0
     35118 LPSA32   19       ARHM     O3       OC311   -0.650000       15.9994           0
     35119 LPSA32   19       ARHM     HO3      HCP1     0.420000       1.00800           0
     35120 LPSA32   19       ARHM     C4       CC3161   0.140000       12.0110           0
     35121 LPSA32   19       ARHM     H4       HCA1     0.900000E-01   1.00800           0
     35122 LPSA32   19       ARHM     O4       OC311   -0.650000       15.9994           0
     35123 LPSA32   19       ARHM     HO4      HCP1     0.420000       1.00800           0
     35124 LPSA32   19       ARHM     C6       CC331   -0.270000       12.0110           0
     35125 LPSA32   19       ARHM     H61      HCA3     0.900000E-01   1.00800           0
     35126 LPSA32   19       ARHM     H62      HCA3     0.900000E-01   1.00800           0
     35127 LPSA32   19       ARHM     H63      HCA3     0.900000E-01   1.00800           0
     35128 LPSA32   20       ARHM     C1       CC3162   0.290000       12.0110           0
     35129 LPSA32   20       ARHM     H1       HCA1     0.900000E-01   1.00800           0
     35130 LPSA32   20       ARHM     C5       CC3163   0.110000       12.0110           0
     35131 LPSA32   20       ARHM     H5       HCA1     0.900000E-01   1.00800           0
     35132 LPSA32   20       ARHM     O5       OC3C61  -0.400000       15.9994           0
     35133 LPSA32   20       ARHM     C2       CC3161   0.900000E-01   12.0110           0
     35134 LPSA32   20       ARHM     H2       HCA1     0.900000E-01   1.00800           0
     35135 LPSA32   20       ARHM     O2       OC301   -0.360000       15.9994           0
     35136 LPSA32   20       ARHM     C3       CC3161   0.900000E-01   12.0110           0
     35137 LPSA32   20       ARHM     H3       HCA1     0.900000E-01   1.00800           0
     35138 LPSA32   20       ARHM     O3       OC301   -0.360000       15.9994           0
     35139 LPSA32   20       ARHM     C4       CC3161   0.140000       12.0110           0
     35140 LPSA32   20       ARHM     H4       HCA1     0.900000E-01   1.00800           0
     35141 LPSA32   20       ARHM     O4       OC311   -0.650000       15.9994           0
     35142 LPSA32   20       ARHM     HO4      HCP1     0.420000       1.00800           0
     35143 LPSA32   20       ARHM     C6       CC331   -0.270000       12.0110           0
     35144 LPSA32   20       ARHM     H61      HCA3     0.900000E-01   1.00800           0
     35145 LPSA32   20       ARHM     H62      HCA3     0.900000E-01   1.00800           0
     35146 LPSA32   20       ARHM     H63      HCA3     0.900000E-01   1.00800           0
     35147 LPSA32   21       BMANNA   C1       CC3162   0.290000       12.0110           0
     35148 LPSA32   21       BMANNA   H1       HCA1     0.900000E-01   1.00800           0
     35149 LPSA32   21       BMANNA   C5       CC3163   0.110000       12.0110           0
     35150 LPSA32   21       BMANNA   H5       HCA1     0.900000E-01   1.00800           0
     35151 LPSA32   21       BMANNA   O5       OC3C61  -0.400000       15.9994           0
     35152 LPSA32   21       BMANNA   C2       CC3161   0.700000E-01   12.0110           0
     35153 LPSA32   21       BMANNA   H2       HCA1     0.900000E-01   1.00800           0
     35154 LPSA32   21       BMANNA   N        NC2D1   -0.470000       14.0070           0
     35155 LPSA32   21       BMANNA   HN       HCP1     0.310000       1.00800           0
     35156 LPSA32   21       BMANNA   C        CC2O1    0.510000       12.0110           0
     35157 LPSA32   21       BMANNA   O        OC2D1   -0.510000       15.9994           0
     35158 LPSA32   21       BMANNA   CT       CC331   -0.270000       12.0110           0
     35159 LPSA32   21       BMANNA   HT1      HCA3     0.900000E-01   1.00800           0
     35160 LPSA32   21       BMANNA   HT2      HCA3     0.900000E-01   1.00800           0
     35161 LPSA32   21       BMANNA   HT3      HCA3     0.900000E-01   1.00800           0
     35162 LPSA32   21       BMANNA   C3       CC3161   0.140000       12.0110           0
     35163 LPSA32   21       BMANNA   H3       HCA1     0.900000E-01   1.00800           0
     35164 LPSA32   21       BMANNA   O3       OC311   -0.650000       15.9994           0
     35165 LPSA32   21       BMANNA   HO3      HCP1     0.420000       1.00800           0
     35166 LPSA32   21       BMANNA   C4       CC3161   0.140000       12.0110           0
     35167 LPSA32   21       BMANNA   H4       HCA1     0.900000E-01   1.00800           0
     35168 LPSA32   21       BMANNA   O4       OC311   -0.650000       15.9994           0
     35169 LPSA32   21       BMANNA   HO4      HCP1     0.420000       1.00800           0
     35170 LPSA32   21       BMANNA   C6       CC321    0.500000E-01   12.0110           0
     35171 LPSA32   21       BMANNA   H61      HCA2     0.900000E-01   1.00800           0
     35172 LPSA32   21       BMANNA   H62      HCA2     0.900000E-01   1.00800           0
     35173 LPSA32   21       BMANNA   O6       OC311   -0.650000       15.9994           0
     35174 LPSA32   21       BMANNA   HO6      HCP1     0.420000       1.00800           0
     35175 LPSA32   22       BGLCNA   C1       CC3162   0.290000       12.0110           0
     35176 LPSA32   22       BGLCNA   H1       HCA1     0.900000E-01   1.00800           0
     35177 LPSA32   22       BGLCNA   C5       CC3163   0.110000       12.0110           0
     35178 LPSA32   22       BGLCNA   H5       HCA1     0.900000E-01   1.00800           0
     35179 LPSA32   22       BGLCNA   O5       OC3C61  -0.400000       15.9994           0
     35180 LPSA32   22       BGLCNA   C2       CC3161   0.700000E-01   12.0110           0
     35181 LPSA32   22       BGLCNA   H2       HCA1     0.900000E-01   1.00800           0
     35182 LPSA32   22       BGLCNA   N        NC2D1   -0.470000       14.0070           0
     35183 LPSA32   22       BGLCNA   HN       HCP1     0.310000       1.00800           0
     35184 LPSA32   22       BGLCNA   C        CC2O1    0.510000       12.0110           0
     35185 LPSA32   22       BGLCNA   O        OC2D1   -0.510000       15.9994           0
     35186 LPSA32   22       BGLCNA   CT       CC331   -0.270000       12.0110           0
     35187 LPSA32   22       BGLCNA   HT1      HCA3     0.900000E-01   1.00800           0
     35188 LPSA32   22       BGLCNA   HT2      HCA3     0.900000E-01   1.00800           0
     35189 LPSA32   22       BGLCNA   HT3      HCA3     0.900000E-01   1.00800           0
     35190 LPSA32   22       BGLCNA   C3       CC3161   0.900000E-01   12.0110           0
     35191 LPSA32   22       BGLCNA   H3       HCA1     0.900000E-01   1.00800           0
     35192 LPSA32   22       BGLCNA   O3       OC301   -0.360000       15.9994           0
     35193 LPSA32   22       BGLCNA   C4       CC3161   0.140000       12.0110           0
     35194 LPSA32   22       BGLCNA   H4       HCA1     0.900000E-01   1.00800           0
     35195 LPSA32   22       BGLCNA   O4       OC311   -0.650000       15.9994           0
     35196 LPSA32   22       BGLCNA   HO4      HCP1     0.420000       1.00800           0
     35197 LPSA32   22       BGLCNA   C6       CC321    0.500000E-01   12.0110           0
     35198 LPSA32   22       BGLCNA   H61      HCA2     0.900000E-01   1.00800           0
     35199 LPSA32   22       BGLCNA   H62      HCA2     0.900000E-01   1.00800           0
     35200 LPSA32   22       BGLCNA   O6       OC311   -0.650000       15.9994           0
     35201 LPSA32   22       BGLCNA   HO6      HCP1     0.420000       1.00800           0
     35202 LPSA32   23       AGAL     C1       CC3162   0.290000       12.0110           0
     35203 LPSA32   23       AGAL     H1       HCA1     0.900000E-01   1.00800           0
     35204 LPSA32   23       AGAL     C5       CC3163   0.110000       12.0110           0
     35205 LPSA32   23       AGAL     H5       HCA1     0.900000E-01   1.00800           0
     35206 LPSA32   23       AGAL     O5       OC3C61  -0.400000       15.9994           0
     35207 LPSA32   23       AGAL     C2       CC3161   0.900000E-01   12.0110           0
     35208 LPSA32   23       AGAL     H2       HCA1     0.900000E-01   1.00800           0
     35209 LPSA32   23       AGAL     O2       OC301   -0.360000       15.9994           0
     35210 LPSA32   23       AGAL     C3       CC3161   0.140000       12.0110           0
     35211 LPSA32   23       AGAL     H3       HCA1     0.900000E-01   1.00800           0
     35212 LPSA32   23       AGAL     O3       OC311   -0.650000       15.9994           0
     35213 LPSA32   23       AGAL     HO3      HCP1     0.420000       1.00800           0
     35214 LPSA32   23       AGAL     C4       CC3161   0.140000       12.0110           0
     35215 LPSA32   23       AGAL     H4       HCA1     0.900000E-01   1.00800           0
     35216 LPSA32   23       AGAL     O4       OC311   -0.650000       15.9994           0
     35217 LPSA32   23       AGAL     HO4      HCP1     0.420000       1.00800           0
     35218 LPSA32   23       AGAL     C6       CC321    0.500000E-01   12.0110           0
     35219 LPSA32   23       AGAL     H61      HCA2     0.900000E-01   1.00800           0
     35220 LPSA32   23       AGAL     H62      HCA2     0.900000E-01   1.00800           0
     35221 LPSA32   23       AGAL     O6       OC311   -0.650000       15.9994           0
     35222 LPSA32   23       AGAL     HO6      HCP1     0.420000       1.00800           0
     35223 LPSA32   24       ARHM     C1       CC3162   0.290000       12.0110           0
     35224 LPSA32   24       ARHM     H1       HCA1     0.900000E-01   1.00800           0
     35225 LPSA32   24       ARHM     C5       CC3163   0.110000       12.0110           0
     35226 LPSA32   24       ARHM     H5       HCA1     0.900000E-01   1.00800           0
     35227 LPSA32   24       ARHM     O5       OC3C61  -0.400000       15.9994           0
     35228 LPSA32   24       ARHM     C2       CC3161   0.900000E-01   12.0110           0
     35229 LPSA32   24       ARHM     H2       HCA1     0.900000E-01   1.00800           0
     35230 LPSA32   24       ARHM     O2       OC301   -0.360000       15.9994           0
     35231 LPSA32   24       ARHM     C3       CC3161   0.140000       12.0110           0
     35232 LPSA32   24       ARHM     H3       HCA1     0.900000E-01   1.00800           0
     35233 LPSA32   24       ARHM     O3       OC311   -0.650000       15.9994           0
     35234 LPSA32   24       ARHM     HO3      HCP1     0.420000       1.00800           0
     35235 LPSA32   24       ARHM     C4       CC3161   0.140000       12.0110           0
     35236 LPSA32   24       ARHM     H4       HCA1     0.900000E-01   1.00800           0
     35237 LPSA32   24       ARHM     O4       OC311   -0.650000       15.9994           0
     35238 LPSA32   24       ARHM     HO4      HCP1     0.420000       1.00800           0
     35239 LPSA32   24       ARHM     C6       CC331   -0.270000       12.0110           0
     35240 LPSA32   24       ARHM     H61      HCA3     0.900000E-01   1.00800           0
     35241 LPSA32   24       ARHM     H62      HCA3     0.900000E-01   1.00800           0
     35242 LPSA32   24       ARHM     H63      HCA3     0.900000E-01   1.00800           0
     35243 LPSA32   25       ARHM     C1       CC3162   0.290000       12.0110           0
     35244 LPSA32   25       ARHM     H1       HCA1     0.900000E-01   1.00800           0
     35245 LPSA32   25       ARHM     C5       CC3163   0.110000       12.0110           0
     35246 LPSA32   25       ARHM     H5       HCA1     0.900000E-01   1.00800           0
     35247 LPSA32   25       ARHM     O5       OC3C61  -0.400000       15.9994           0
     35248 LPSA32   25       ARHM     C2       CC3161   0.900000E-01   12.0110           0
     35249 LPSA32   25       ARHM     H2       HCA1     0.900000E-01   1.00800           0
     35250 LPSA32   25       ARHM     O2       OC301   -0.360000       15.9994           0
     35251 LPSA32   25       ARHM     C3       CC3161   0.900000E-01   12.0110           0
     35252 LPSA32   25       ARHM     H3       HCA1     0.900000E-01   1.00800           0
     35253 LPSA32   25       ARHM     O3       OC301   -0.360000       15.9994           0
     35254 LPSA32   25       ARHM     C4       CC3161   0.140000       12.0110           0
     35255 LPSA32   25       ARHM     H4       HCA1     0.900000E-01   1.00800           0
     35256 LPSA32   25       ARHM     O4       OC311   -0.650000       15.9994           0
     35257 LPSA32   25       ARHM     HO4      HCP1     0.420000       1.00800           0
     35258 LPSA32   25       ARHM     C6       CC331   -0.270000       12.0110           0
     35259 LPSA32   25       ARHM     H61      HCA3     0.900000E-01   1.00800           0
     35260 LPSA32   25       ARHM     H62      HCA3     0.900000E-01   1.00800           0
     35261 LPSA32   25       ARHM     H63      HCA3     0.900000E-01   1.00800           0
     35262 LPSA32   26       BMANNA   C1       CC3162   0.290000       12.0110           0
     35263 LPSA32   26       BMANNA   H1       HCA1     0.900000E-01   1.00800           0
     35264 LPSA32   26       BMANNA   C5       CC3163   0.110000       12.0110           0
     35265 LPSA32   26       BMANNA   H5       HCA1     0.900000E-01   1.00800           0
     35266 LPSA32   26       BMANNA   O5       OC3C61  -0.400000       15.9994           0
     35267 LPSA32   26       BMANNA   C2       CC3161   0.700000E-01   12.0110           0
     35268 LPSA32   26       BMANNA   H2       HCA1     0.900000E-01   1.00800           0
     35269 LPSA32   26       BMANNA   N        NC2D1   -0.470000       14.0070           0
     35270 LPSA32   26       BMANNA   HN       HCP1     0.310000       1.00800           0
     35271 LPSA32   26       BMANNA   C        CC2O1    0.510000       12.0110           0
     35272 LPSA32   26       BMANNA   O        OC2D1   -0.510000       15.9994           0
     35273 LPSA32   26       BMANNA   CT       CC331   -0.270000       12.0110           0
     35274 LPSA32   26       BMANNA   HT1      HCA3     0.900000E-01   1.00800           0
     35275 LPSA32   26       BMANNA   HT2      HCA3     0.900000E-01   1.00800           0
     35276 LPSA32   26       BMANNA   HT3      HCA3     0.900000E-01   1.00800           0
     35277 LPSA32   26       BMANNA   C3       CC3161   0.140000       12.0110           0
     35278 LPSA32   26       BMANNA   H3       HCA1     0.900000E-01   1.00800           0
     35279 LPSA32   26       BMANNA   O3       OC311   -0.650000       15.9994           0
     35280 LPSA32   26       BMANNA   HO3      HCP1     0.420000       1.00800           0
     35281 LPSA32   26       BMANNA   C4       CC3161   0.140000       12.0110           0
     35282 LPSA32   26       BMANNA   H4       HCA1     0.900000E-01   1.00800           0
     35283 LPSA32   26       BMANNA   O4       OC311   -0.650000       15.9994           0
     35284 LPSA32   26       BMANNA   HO4      HCP1     0.420000       1.00800           0
     35285 LPSA32   26       BMANNA   C6       CC321    0.500000E-01   12.0110           0
     35286 LPSA32   26       BMANNA   H61      HCA2     0.900000E-01   1.00800           0
     35287 LPSA32   26       BMANNA   H62      HCA2     0.900000E-01   1.00800           0
     35288 LPSA32   26       BMANNA   O6       OC311   -0.650000       15.9994           0
     35289 LPSA32   26       BMANNA   HO6      HCP1     0.420000       1.00800           0
     35290 LPSA32   27       BGLCNA   C1       CC3162   0.290000       12.0110           0
     35291 LPSA32   27       BGLCNA   H1       HCA1     0.900000E-01   1.00800           0
     35292 LPSA32   27       BGLCNA   C5       CC3163   0.110000       12.0110           0
     35293 LPSA32   27       BGLCNA   H5       HCA1     0.900000E-01   1.00800           0
     35294 LPSA32   27       BGLCNA   O5       OC3C61  -0.400000       15.9994           0
     35295 LPSA32   27       BGLCNA   C2       CC3161   0.700000E-01   12.0110           0
     35296 LPSA32   27       BGLCNA   H2       HCA1     0.900000E-01   1.00800           0
     35297 LPSA32   27       BGLCNA   N        NC2D1   -0.470000       14.0070           0
     35298 LPSA32   27       BGLCNA   HN       HCP1     0.310000       1.00800           0
     35299 LPSA32   27       BGLCNA   C        CC2O1    0.510000       12.0110           0
     35300 LPSA32   27       BGLCNA   O        OC2D1   -0.510000       15.9994           0
     35301 LPSA32   27       BGLCNA   CT       CC331   -0.270000       12.0110           0
     35302 LPSA32   27       BGLCNA   HT1      HCA3     0.900000E-01   1.00800           0
     35303 LPSA32   27       BGLCNA   HT2      HCA3     0.900000E-01   1.00800           0
     35304 LPSA32   27       BGLCNA   HT3      HCA3     0.900000E-01   1.00800           0
     35305 LPSA32   27       BGLCNA   C3       CC3161   0.900000E-01   12.0110           0
     35306 LPSA32   27       BGLCNA   H3       HCA1     0.900000E-01   1.00800           0
     35307 LPSA32   27       BGLCNA   O3       OC301   -0.360000       15.9994           0
     35308 LPSA32   27       BGLCNA   C4       CC3161   0.140000       12.0110           0
     35309 LPSA32   27       BGLCNA   H4       HCA1     0.900000E-01   1.00800           0
     35310 LPSA32   27       BGLCNA   O4       OC311   -0.650000       15.9994           0
     35311 LPSA32   27       BGLCNA   HO4      HCP1     0.420000       1.00800           0
     35312 LPSA32   27       BGLCNA   C6       CC321    0.500000E-01   12.0110           0
     35313 LPSA32   27       BGLCNA   H61      HCA2     0.900000E-01   1.00800           0
     35314 LPSA32   27       BGLCNA   H62      HCA2     0.900000E-01   1.00800           0
     35315 LPSA32   27       BGLCNA   O6       OC311   -0.650000       15.9994           0
     35316 LPSA32   27       BGLCNA   HO6      HCP1     0.420000       1.00800           0
     35317 LPSA32   28       AGAL     C1       CC3162   0.290000       12.0110           0
     35318 LPSA32   28       AGAL     H1       HCA1     0.900000E-01   1.00800           0
     35319 LPSA32   28       AGAL     C5       CC3163   0.110000       12.0110           0
     35320 LPSA32   28       AGAL     H5       HCA1     0.900000E-01   1.00800           0
     35321 LPSA32   28       AGAL     O5       OC3C61  -0.400000       15.9994           0
     35322 LPSA32   28       AGAL     C2       CC3161   0.900000E-01   12.0110           0
     35323 LPSA32   28       AGAL     H2       HCA1     0.900000E-01   1.00800           0
     35324 LPSA32   28       AGAL     O2       OC301   -0.360000       15.9994           0
     35325 LPSA32   28       AGAL     C3       CC3161   0.140000       12.0110           0
     35326 LPSA32   28       AGAL     H3       HCA1     0.900000E-01   1.00800           0
     35327 LPSA32   28       AGAL     O3       OC311   -0.650000       15.9994           0
     35328 LPSA32   28       AGAL     HO3      HCP1     0.420000       1.00800           0
     35329 LPSA32   28       AGAL     C4       CC3161   0.140000       12.0110           0
     35330 LPSA32   28       AGAL     H4       HCA1     0.900000E-01   1.00800           0
     35331 LPSA32   28       AGAL     O4       OC311   -0.650000       15.9994           0
     35332 LPSA32   28       AGAL     HO4      HCP1     0.420000       1.00800           0
     35333 LPSA32   28       AGAL     C6       CC321    0.500000E-01   12.0110           0
     35334 LPSA32   28       AGAL     H61      HCA2     0.900000E-01   1.00800           0
     35335 LPSA32   28       AGAL     H62      HCA2     0.900000E-01   1.00800           0
     35336 LPSA32   28       AGAL     O6       OC311   -0.650000       15.9994           0
     35337 LPSA32   28       AGAL     HO6      HCP1     0.420000       1.00800           0
     35338 LPSA32   29       ARHM     C1       CC3162   0.290000       12.0110           0
     35339 LPSA32   29       ARHM     H1       HCA1     0.900000E-01   1.00800           0
     35340 LPSA32   29       ARHM     C5       CC3163   0.110000       12.0110           0
     35341 LPSA32   29       ARHM     H5       HCA1     0.900000E-01   1.00800           0
     35342 LPSA32   29       ARHM     O5       OC3C61  -0.400000       15.9994           0
     35343 LPSA32   29       ARHM     C2       CC3161   0.900000E-01   12.0110           0
     35344 LPSA32   29       ARHM     H2       HCA1     0.900000E-01   1.00800           0
     35345 LPSA32   29       ARHM     O2       OC301   -0.360000       15.9994           0
     35346 LPSA32   29       ARHM     C3       CC3161   0.140000       12.0110           0
     35347 LPSA32   29       ARHM     H3       HCA1     0.900000E-01   1.00800           0
     35348 LPSA32   29       ARHM     O3       OC311   -0.650000       15.9994           0
     35349 LPSA32   29       ARHM     HO3      HCP1     0.420000       1.00800           0
     35350 LPSA32   29       ARHM     C4       CC3161   0.140000       12.0110           0
     35351 LPSA32   29       ARHM     H4       HCA1     0.900000E-01   1.00800           0
     35352 LPSA32   29       ARHM     O4       OC311   -0.650000       15.9994           0
     35353 LPSA32   29       ARHM     HO4      HCP1     0.420000       1.00800           0
     35354 LPSA32   29       ARHM     C6       CC331   -0.270000       12.0110           0
     35355 LPSA32   29       ARHM     H61      HCA3     0.900000E-01   1.00800           0
     35356 LPSA32   29       ARHM     H62      HCA3     0.900000E-01   1.00800           0
     35357 LPSA32   29       ARHM     H63      HCA3     0.900000E-01   1.00800           0
     35358 LPSA32   30       ARHM     C1       CC3162   0.290000       12.0110           0
     35359 LPSA32   30       ARHM     H1       HCA1     0.900000E-01   1.00800           0
     35360 LPSA32   30       ARHM     C5       CC3163   0.110000       12.0110           0
     35361 LPSA32   30       ARHM     H5       HCA1     0.900000E-01   1.00800           0
     35362 LPSA32   30       ARHM     O5       OC3C61  -0.400000       15.9994           0
     35363 LPSA32   30       ARHM     C2       CC3161   0.900000E-01   12.0110           0
     35364 LPSA32   30       ARHM     H2       HCA1     0.900000E-01   1.00800           0
     35365 LPSA32   30       ARHM     O2       OC301   -0.360000       15.9994           0
     35366 LPSA32   30       ARHM     C3       CC3161   0.900000E-01   12.0110           0
     35367 LPSA32   30       ARHM     H3       HCA1     0.900000E-01   1.00800           0
     35368 LPSA32   30       ARHM     O3       OC301   -0.360000       15.9994           0
     35369 LPSA32   30       ARHM     C4       CC3161   0.140000       12.0110           0
     35370 LPSA32   30       ARHM     H4       HCA1     0.900000E-01   1.00800           0
     35371 LPSA32   30       ARHM     O4       OC311   -0.650000       15.9994           0
     35372 LPSA32   30       ARHM     HO4      HCP1     0.420000       1.00800           0
     35373 LPSA32   30       ARHM     C6       CC331   -0.270000       12.0110           0
     35374 LPSA32   30       ARHM     H61      HCA3     0.900000E-01   1.00800           0
     35375 LPSA32   30       ARHM     H62      HCA3     0.900000E-01   1.00800           0
     35376 LPSA32   30       ARHM     H63      HCA3     0.900000E-01   1.00800           0
     35377 LPSA32   31       BMANNA   C1       CC3162   0.290000       12.0110           0
     35378 LPSA32   31       BMANNA   H1       HCA1     0.900000E-01   1.00800           0
     35379 LPSA32   31       BMANNA   C5       CC3163   0.110000       12.0110           0
     35380 LPSA32   31       BMANNA   H5       HCA1     0.900000E-01   1.00800           0
     35381 LPSA32   31       BMANNA   O5       OC3C61  -0.400000       15.9994           0
     35382 LPSA32   31       BMANNA   C2       CC3161   0.700000E-01   12.0110           0
     35383 LPSA32   31       BMANNA   H2       HCA1     0.900000E-01   1.00800           0
     35384 LPSA32   31       BMANNA   N        NC2D1   -0.470000       14.0070           0
     35385 LPSA32   31       BMANNA   HN       HCP1     0.310000       1.00800           0
     35386 LPSA32   31       BMANNA   C        CC2O1    0.510000       12.0110           0
     35387 LPSA32   31       BMANNA   O        OC2D1   -0.510000       15.9994           0
     35388 LPSA32   31       BMANNA   CT       CC331   -0.270000       12.0110           0
     35389 LPSA32   31       BMANNA   HT1      HCA3     0.900000E-01   1.00800           0
     35390 LPSA32   31       BMANNA   HT2      HCA3     0.900000E-01   1.00800           0
     35391 LPSA32   31       BMANNA   HT3      HCA3     0.900000E-01   1.00800           0
     35392 LPSA32   31       BMANNA   C3       CC3161   0.140000       12.0110           0
     35393 LPSA32   31       BMANNA   H3       HCA1     0.900000E-01   1.00800           0
     35394 LPSA32   31       BMANNA   O3       OC311   -0.650000       15.9994           0
     35395 LPSA32   31       BMANNA   HO3      HCP1     0.420000       1.00800           0
     35396 LPSA32   31       BMANNA   C4       CC3161   0.140000       12.0110           0
     35397 LPSA32   31       BMANNA   H4       HCA1     0.900000E-01   1.00800           0
     35398 LPSA32   31       BMANNA   O4       OC311   -0.650000       15.9994           0
     35399 LPSA32   31       BMANNA   HO4      HCP1     0.420000       1.00800           0
     35400 LPSA32   31       BMANNA   C6       CC321    0.500000E-01   12.0110           0
     35401 LPSA32   31       BMANNA   H61      HCA2     0.900000E-01   1.00800           0
     35402 LPSA32   31       BMANNA   H62      HCA2     0.900000E-01   1.00800           0
     35403 LPSA32   31       BMANNA   O6       OC311   -0.650000       15.9994           0
     35404 LPSA32   31       BMANNA   HO6      HCP1     0.420000       1.00800           0
     35405 LPSA32   32       BGLCNA   C1       CC3162   0.290000       12.0110           0
     35406 LPSA32   32       BGLCNA   H1       HCA1     0.900000E-01   1.00800           0
     35407 LPSA32   32       BGLCNA   C5       CC3163   0.110000       12.0110           0
     35408 LPSA32   32       BGLCNA   H5       HCA1     0.900000E-01   1.00800           0
     35409 LPSA32   32       BGLCNA   O5       OC3C61  -0.400000       15.9994           0
     35410 LPSA32   32       BGLCNA   C2       CC3161   0.700000E-01   12.0110           0
     35411 LPSA32   32       BGLCNA   H2       HCA1     0.900000E-01   1.00800           0
     35412 LPSA32   32       BGLCNA   N        NC2D1   -0.470000       14.0070           0
     35413 LPSA32   32       BGLCNA   HN       HCP1     0.310000       1.00800           0
     35414 LPSA32   32       BGLCNA   C        CC2O1    0.510000       12.0110           0
     35415 LPSA32   32       BGLCNA   O        OC2D1   -0.510000       15.9994           0
     35416 LPSA32   32       BGLCNA   CT       CC331   -0.270000       12.0110           0
     35417 LPSA32   32       BGLCNA   HT1      HCA3     0.900000E-01   1.00800           0
     35418 LPSA32   32       BGLCNA   HT2      HCA3     0.900000E-01   1.00800           0
     35419 LPSA32   32       BGLCNA   HT3      HCA3     0.900000E-01   1.00800           0
     35420 LPSA32   32       BGLCNA   C3       CC3161   0.900000E-01   12.0110           0
     35421 LPSA32   32       BGLCNA   H3       HCA1     0.900000E-01   1.00800           0
     35422 LPSA32   32       BGLCNA   O3       OC301   -0.360000       15.9994           0
     35423 LPSA32   32       BGLCNA   C4       CC3161   0.140000       12.0110           0
     35424 LPSA32   32       BGLCNA   H4       HCA1     0.900000E-01   1.00800           0
     35425 LPSA32   32       BGLCNA   O4       OC311   -0.650000       15.9994           0
     35426 LPSA32   32       BGLCNA   HO4      HCP1     0.420000       1.00800           0
     35427 LPSA32   32       BGLCNA   C6       CC321    0.500000E-01   12.0110           0
     35428 LPSA32   32       BGLCNA   H61      HCA2     0.900000E-01   1.00800           0
     35429 LPSA32   32       BGLCNA   H62      HCA2     0.900000E-01   1.00800           0
     35430 LPSA32   32       BGLCNA   O6       OC311   -0.650000       15.9994           0
     35431 LPSA32   32       BGLCNA   HO6      HCP1     0.420000       1.00800           0
     35432 LPSA32   33       AGAL     C1       CC3162   0.290000       12.0110           0
     35433 LPSA32   33       AGAL     H1       HCA1     0.900000E-01   1.00800           0
     35434 LPSA32   33       AGAL     C5       CC3163   0.110000       12.0110           0
     35435 LPSA32   33       AGAL     H5       HCA1     0.900000E-01   1.00800           0
     35436 LPSA32   33       AGAL     O5       OC3C61  -0.400000       15.9994           0
     35437 LPSA32   33       AGAL     C2       CC3161   0.900000E-01   12.0110           0
     35438 LPSA32   33       AGAL     H2       HCA1     0.900000E-01   1.00800           0
     35439 LPSA32   33       AGAL     O2       OC301   -0.360000       15.9994           0
     35440 LPSA32   33       AGAL     C3       CC3161   0.140000       12.0110           0
     35441 LPSA32   33       AGAL     H3       HCA1     0.900000E-01   1.00800           0
     35442 LPSA32   33       AGAL     O3       OC311   -0.650000       15.9994           0
     35443 LPSA32   33       AGAL     HO3      HCP1     0.420000       1.00800           0
     35444 LPSA32   33       AGAL     C4       CC3161   0.140000       12.0110           0
     35445 LPSA32   33       AGAL     H4       HCA1     0.900000E-01   1.00800           0
     35446 LPSA32   33       AGAL     O4       OC311   -0.650000       15.9994           0
     35447 LPSA32   33       AGAL     HO4      HCP1     0.420000       1.00800           0
     35448 LPSA32   33       AGAL     C6       CC321    0.500000E-01   12.0110           0
     35449 LPSA32   33       AGAL     H61      HCA2     0.900000E-01   1.00800           0
     35450 LPSA32   33       AGAL     H62      HCA2     0.900000E-01   1.00800           0
     35451 LPSA32   33       AGAL     O6       OC311   -0.650000       15.9994           0
     35452 LPSA32   33       AGAL     HO6      HCP1     0.420000       1.00800           0
     35453 LPSA32   34       ARHM     C1       CC3162   0.290000       12.0110           0
     35454 LPSA32   34       ARHM     H1       HCA1     0.900000E-01   1.00800           0
     35455 LPSA32   34       ARHM     C5       CC3163   0.110000       12.0110           0
     35456 LPSA32   34       ARHM     H5       HCA1     0.900000E-01   1.00800           0
     35457 LPSA32   34       ARHM     O5       OC3C61  -0.400000       15.9994           0
     35458 LPSA32   34       ARHM     C2       CC3161   0.900000E-01   12.0110           0
     35459 LPSA32   34       ARHM     H2       HCA1     0.900000E-01   1.00800           0
     35460 LPSA32   34       ARHM     O2       OC301   -0.360000       15.9994           0
     35461 LPSA32   34       ARHM     C3       CC3161   0.140000       12.0110           0
     35462 LPSA32   34       ARHM     H3       HCA1     0.900000E-01   1.00800           0
     35463 LPSA32   34       ARHM     O3       OC311   -0.650000       15.9994           0
     35464 LPSA32   34       ARHM     HO3      HCP1     0.420000       1.00800           0
     35465 LPSA32   34       ARHM     C4       CC3161   0.140000       12.0110           0
     35466 LPSA32   34       ARHM     H4       HCA1     0.900000E-01   1.00800           0
     35467 LPSA32   34       ARHM     O4       OC311   -0.650000       15.9994           0
     35468 LPSA32   34       ARHM     HO4      HCP1     0.420000       1.00800           0
     35469 LPSA32   34       ARHM     C6       CC331   -0.270000       12.0110           0
     35470 LPSA32   34       ARHM     H61      HCA3     0.900000E-01   1.00800           0
     35471 LPSA32   34       ARHM     H62      HCA3     0.900000E-01   1.00800           0
     35472 LPSA32   34       ARHM     H63      HCA3     0.900000E-01   1.00800           0
     35473 LPSA32   35       ARHM     C1       CC3162   0.290000       12.0110           0
     35474 LPSA32   35       ARHM     H1       HCA1     0.900000E-01   1.00800           0
     35475 LPSA32   35       ARHM     C5       CC3163   0.110000       12.0110           0
     35476 LPSA32   35       ARHM     H5       HCA1     0.900000E-01   1.00800           0
     35477 LPSA32   35       ARHM     O5       OC3C61  -0.400000       15.9994           0
     35478 LPSA32   35       ARHM     C2       CC3161   0.900000E-01   12.0110           0
     35479 LPSA32   35       ARHM     H2       HCA1     0.900000E-01   1.00800           0
     35480 LPSA32   35       ARHM     O2       OC301   -0.360000       15.9994           0
     35481 LPSA32   35       ARHM     C3       CC3161   0.140000       12.0110           0
     35482 LPSA32   35       ARHM     H3       HCA1     0.900000E-01   1.00800           0
     35483 LPSA32   35       ARHM     O3       OC311   -0.650000       15.9994           0
     35484 LPSA32   35       ARHM     HO3      HCP1     0.420000       1.00800           0
     35485 LPSA32   35       ARHM     C4       CC3161   0.140000       12.0110           0
     35486 LPSA32   35       ARHM     H4       HCA1     0.900000E-01   1.00800           0
     35487 LPSA32   35       ARHM     O4       OC311   -0.650000       15.9994           0
     35488 LPSA32   35       ARHM     HO4      HCP1     0.420000       1.00800           0
     35489 LPSA32   35       ARHM     C6       CC331   -0.270000       12.0110           0
     35490 LPSA32   35       ARHM     H61      HCA3     0.900000E-01   1.00800           0
     35491 LPSA32   35       ARHM     H62      HCA3     0.900000E-01   1.00800           0
     35492 LPSA32   35       ARHM     H63      HCA3     0.900000E-01   1.00800           0
     35493 LPSA32   36       BMANNA   C1       CC3162   0.290000       12.0110           0
     35494 LPSA32   36       BMANNA   H1       HCA1     0.900000E-01   1.00800           0
     35495 LPSA32   36       BMANNA   C5       CC3163   0.110000       12.0110           0
     35496 LPSA32   36       BMANNA   H5       HCA1     0.900000E-01   1.00800           0
     35497 LPSA32   36       BMANNA   O5       OC3C61  -0.400000       15.9994           0
     35498 LPSA32   36       BMANNA   C2       CC3161   0.700000E-01   12.0110           0
     35499 LPSA32   36       BMANNA   H2       HCA1     0.900000E-01   1.00800           0
     35500 LPSA32   36       BMANNA   N        NC2D1   -0.470000       14.0070           0
     35501 LPSA32   36       BMANNA   HN       HCP1     0.310000       1.00800           0
     35502 LPSA32   36       BMANNA   C        CC2O1    0.510000       12.0110           0
     35503 LPSA32   36       BMANNA   O        OC2D1   -0.510000       15.9994           0
     35504 LPSA32   36       BMANNA   CT       CC331   -0.270000       12.0110           0
     35505 LPSA32   36       BMANNA   HT1      HCA3     0.900000E-01   1.00800           0
     35506 LPSA32   36       BMANNA   HT2      HCA3     0.900000E-01   1.00800           0
     35507 LPSA32   36       BMANNA   HT3      HCA3     0.900000E-01   1.00800           0
     35508 LPSA32   36       BMANNA   C3       CC3161   0.140000       12.0110           0
     35509 LPSA32   36       BMANNA   H3       HCA1     0.900000E-01   1.00800           0
     35510 LPSA32   36       BMANNA   O3       OC311   -0.650000       15.9994           0
     35511 LPSA32   36       BMANNA   HO3      HCP1     0.420000       1.00800           0
     35512 LPSA32   36       BMANNA   C4       CC3161   0.140000       12.0110           0
     35513 LPSA32   36       BMANNA   H4       HCA1     0.900000E-01   1.00800           0
     35514 LPSA32   36       BMANNA   O4       OC311   -0.650000       15.9994           0
     35515 LPSA32   36       BMANNA   HO4      HCP1     0.420000       1.00800           0
     35516 LPSA32   36       BMANNA   C6       CC321    0.500000E-01   12.0110           0
     35517 LPSA32   36       BMANNA   H61      HCA2     0.900000E-01   1.00800           0
     35518 LPSA32   36       BMANNA   H62      HCA2     0.900000E-01   1.00800           0
     35519 LPSA32   36       BMANNA   O6       OC311   -0.650000       15.9994           0
     35520 LPSA32   36       BMANNA   HO6      HCP1     0.420000       1.00800           0
     35521 LPSA33   1        ECLIPA   HB6S     HCA2     0.900000E-01   1.00800           0
     35522 LPSA33   1        ECLIPA   OB6      OC301   -0.360000       15.9994           0
     35523 LPSA33   1        ECLIPA   CB6      CC321     0.00000       12.0110           0
     35524 LPSA33   1        ECLIPA   HB6R     HCA2     0.900000E-01   1.00800           0
     35525 LPSA33   1        ECLIPA   CB5      CC3163   0.110000       12.0110           0
     35526 LPSA33   1        ECLIPA   OB5      OC3C61  -0.400000       15.9994           0
     35527 LPSA33   1        ECLIPA   HB5      HCA1     0.900000E-01   1.00800           0
     35528 LPSA33   1        ECLIPA   CB1      CC3162   0.290000       12.0110           0
     35529 LPSA33   1        ECLIPA   HB1      HCA1     0.900000E-01   1.00800           0
     35530 LPSA33   1        ECLIPA   OA6      OC301   -0.360000       15.9994           0
     35531 LPSA33   1        ECLIPA   CA6      CC321     0.00000       12.0110           0
     35532 LPSA33   1        ECLIPA   HA6R     HCA2     0.900000E-01   1.00800           0
     35533 LPSA33   1        ECLIPA   HA6S     HCA2     0.900000E-01   1.00800           0
     35534 LPSA33   1        ECLIPA   CB4      CC3161  -0.900000E-01   12.0110           0
     35535 LPSA33   1        ECLIPA   HB4      HCA1     0.900000E-01   1.00800           0
     35536 LPSA33   1        ECLIPA   OB4      OC30P   -0.400000       15.9994           0
     35537 LPSA33   1        ECLIPA   PB       PC        1.10000       30.9740           0
     35538 LPSA33   1        ECLIPA   OPB4     OC2DP   -0.900000       15.9994           0
     35539 LPSA33   1        ECLIPA   OPB3     OC2DP   -0.900000       15.9994           0
     35540 LPSA33   1        ECLIPA   OPB2     OC2DP   -0.900000       15.9994           0
     35541 LPSA33   1        ECLIPA   CB3      CC3161   0.170000       12.0110           0
     35542 LPSA33   1        ECLIPA   OB3      OC301   -0.490000       15.9994           0
     35543 LPSA33   1        ECLIPA   HB3      HCA1     0.900000E-01   1.00800           0
     35544 LPSA33   1        ECLIPA   C71      CL       0.900000       12.0110           0
     35545 LPSA33   1        ECLIPA   O71      OBL     -0.630000       15.9994           0
     35546 LPSA33   1        ECLIPA   C72      CTL2    -0.220000       12.0110           0
     35547 LPSA33   1        ECLIPA   H72R     HAL2     0.900000E-01   1.00800           0
     35548 LPSA33   1        ECLIPA   H72S     HAL2     0.900000E-01   1.00800           0
     35549 LPSA33   1        ECLIPA   CB2      CC3161   0.700000E-01   12.0110           0
     35550 LPSA33   1        ECLIPA   HB2      HCA1     0.900000E-01   1.00800           0
     35551 LPSA33   1        ECLIPA   NB2      NC2D1   -0.470000       14.0070           0
     35552 LPSA33   1        ECLIPA   HNB2     HCP1     0.310000       1.00800           0
     35553 LPSA33   1        ECLIPA   CA4      CC3161   0.140000       12.0110           0
     35554 LPSA33   1        ECLIPA   HA4      HCA1     0.900000E-01   1.00800           0
     35555 LPSA33   1        ECLIPA   OA4      OC311   -0.650000       15.9994           0
     35556 LPSA33   1        ECLIPA   HOA4     HCP1     0.420000       1.00800           0
     35557 LPSA33   1        ECLIPA   CA5      CC3163   0.110000       12.0110           0
     35558 LPSA33   1        ECLIPA   HA5      HCA1     0.900000E-01   1.00800           0
     35559 LPSA33   1        ECLIPA   OA5      OC3C61  -0.400000       15.9994           0
     35560 LPSA33   1        ECLIPA   CA1      CC3162   0.110000       12.0110           0
     35561 LPSA33   1        ECLIPA   HA1      HCA1     0.900000E-01   1.00800           0
     35562 LPSA33   1        ECLIPA   OA1      OC30P   -0.400000       15.9994           0
     35563 LPSA33   1        ECLIPA   OPA2     OC2DP   -0.900000       15.9994           0
     35564 LPSA33   1        ECLIPA   OPA3     OC2DP   -0.900000       15.9994           0
     35565 LPSA33   1        ECLIPA   OPA4     OC2DP   -0.900000       15.9994           0
     35566 LPSA33   1        ECLIPA   PA       PC        1.10000       30.9740           0
     35567 LPSA33   1        ECLIPA   CA3      CC3161   0.170000       12.0110           0
     35568 LPSA33   1        ECLIPA   HA3      HCA1     0.900000E-01   1.00800           0
     35569 LPSA33   1        ECLIPA   OA3      OC301   -0.490000       15.9994           0
     35570 LPSA33   1        ECLIPA   C31      CL       0.900000       12.0110           0
     35571 LPSA33   1        ECLIPA   O31      OBL     -0.630000       15.9994           0
     35572 LPSA33   1        ECLIPA   C32      CTL2    -0.220000       12.0110           0
     35573 LPSA33   1        ECLIPA   H32R     HAL2     0.900000E-01   1.00800           0
     35574 LPSA33   1        ECLIPA   H32S     HAL2     0.900000E-01   1.00800           0
     35575 LPSA33   1        ECLIPA   CA2      CC3161   0.700000E-01   12.0110           0
     35576 LPSA33   1        ECLIPA   HA2      HCA1     0.900000E-01   1.00800           0
     35577 LPSA33   1        ECLIPA   NA2      NC2D1   -0.470000       14.0070           0
     35578 LPSA33   1        ECLIPA   HNA2     HCP1     0.310000       1.00800           0
     35579 LPSA33   1        ECLIPA   C73      CTL1     0.170000       12.0110           0
     35580 LPSA33   1        ECLIPA   H73R     HAL1     0.900000E-01   1.00800           0
     35581 LPSA33   1        ECLIPA   O73      OSL     -0.490000       15.9994           0
     35582 LPSA33   1        ECLIPA   C81      CL       0.900000       12.0110           0
     35583 LPSA33   1        ECLIPA   O81      OBL     -0.630000       15.9994           0
     35584 LPSA33   1        ECLIPA   C82      CTL2    -0.220000       12.0110           0
     35585 LPSA33   1        ECLIPA   H82R     HAL2     0.900000E-01   1.00800           0
     35586 LPSA33   1        ECLIPA   H82S     HAL2     0.900000E-01   1.00800           0
     35587 LPSA33   1        ECLIPA   C83      CTL2    -0.180000       12.0110           0
     35588 LPSA33   1        ECLIPA   H83R     HAL2     0.900000E-01   1.00800           0
     35589 LPSA33   1        ECLIPA   H83S     HAL2     0.900000E-01   1.00800           0
     35590 LPSA33   1        ECLIPA   C84      CTL2    -0.180000       12.0110           0
     35591 LPSA33   1        ECLIPA   H84R     HAL2     0.900000E-01   1.00800           0
     35592 LPSA33   1        ECLIPA   H84S     HAL2     0.900000E-01   1.00800           0
     35593 LPSA33   1        ECLIPA   C85      CTL2    -0.180000       12.0110           0
     35594 LPSA33   1        ECLIPA   H85R     HAL2     0.900000E-01   1.00800           0
     35595 LPSA33   1        ECLIPA   H85S     HAL2     0.900000E-01   1.00800           0
     35596 LPSA33   1        ECLIPA   C86      CTL2    -0.180000       12.0110           0
     35597 LPSA33   1        ECLIPA   H86R     HAL2     0.900000E-01   1.00800           0
     35598 LPSA33   1        ECLIPA   H86S     HAL2     0.900000E-01   1.00800           0
     35599 LPSA33   1        ECLIPA   C87      CTL2    -0.180000       12.0110           0
     35600 LPSA33   1        ECLIPA   H87R     HAL2     0.900000E-01   1.00800           0
     35601 LPSA33   1        ECLIPA   H87S     HAL2     0.900000E-01   1.00800           0
     35602 LPSA33   1        ECLIPA   C88      CTL2    -0.180000       12.0110           0
     35603 LPSA33   1        ECLIPA   H88R     HAL2     0.900000E-01   1.00800           0
     35604 LPSA33   1        ECLIPA   H88S     HAL2     0.900000E-01   1.00800           0
     35605 LPSA33   1        ECLIPA   C89      CTL2    -0.180000       12.0110           0
     35606 LPSA33   1        ECLIPA   H89R     HAL2     0.900000E-01   1.00800           0
     35607 LPSA33   1        ECLIPA   H89S     HAL2     0.900000E-01   1.00800           0
     35608 LPSA33   1        ECLIPA   C810     CTL2    -0.180000       12.0110           0
     35609 LPSA33   1        ECLIPA   H810R    HAL2     0.900000E-01   1.00800           0
     35610 LPSA33   1        ECLIPA   H810S    HAL2     0.900000E-01   1.00800           0
     35611 LPSA33   1        ECLIPA   C811     CTL2    -0.180000       12.0110           0
     35612 LPSA33   1        ECLIPA   H811R    HAL2     0.900000E-01   1.00800           0
     35613 LPSA33   1        ECLIPA   H811S    HAL2     0.900000E-01   1.00800           0
     35614 LPSA33   1        ECLIPA   C812     CTL2    -0.180000       12.0110           0
     35615 LPSA33   1        ECLIPA   H812R    HAL2     0.900000E-01   1.00800           0
     35616 LPSA33   1        ECLIPA   H812S    HAL2     0.900000E-01   1.00800           0
     35617 LPSA33   1        ECLIPA   C813     CTL2    -0.180000       12.0110           0
     35618 LPSA33   1        ECLIPA   H813R    HAL2     0.900000E-01   1.00800           0
     35619 LPSA33   1        ECLIPA   H813S    HAL2     0.900000E-01   1.00800           0
     35620 LPSA33   1        ECLIPA   C814     CTL3    -0.270000       12.0110           0
     35621 LPSA33   1        ECLIPA   H814R    HAL3     0.900000E-01   1.00800           0
     35622 LPSA33   1        ECLIPA   H814S    HAL3     0.900000E-01   1.00800           0
     35623 LPSA33   1        ECLIPA   H814T    HAL3     0.900000E-01   1.00800           0
     35624 LPSA33   1        ECLIPA   C74      CTL2    -0.180000       12.0110           0
     35625 LPSA33   1        ECLIPA   H74R     HAL2     0.900000E-01   1.00800           0
     35626 LPSA33   1        ECLIPA   H74S     HAL2     0.900000E-01   1.00800           0
     35627 LPSA33   1        ECLIPA   C75      CTL2    -0.180000       12.0110           0
     35628 LPSA33   1        ECLIPA   H75R     HAL2     0.900000E-01   1.00800           0
     35629 LPSA33   1        ECLIPA   H75S     HAL2     0.900000E-01   1.00800           0
     35630 LPSA33   1        ECLIPA   C76      CTL2    -0.180000       12.0110           0
     35631 LPSA33   1        ECLIPA   H76R     HAL2     0.900000E-01   1.00800           0
     35632 LPSA33   1        ECLIPA   H76S     HAL2     0.900000E-01   1.00800           0
     35633 LPSA33   1        ECLIPA   C77      CTL2    -0.180000       12.0110           0
     35634 LPSA33   1        ECLIPA   H77R     HAL2     0.900000E-01   1.00800           0
     35635 LPSA33   1        ECLIPA   H77S     HAL2     0.900000E-01   1.00800           0
     35636 LPSA33   1        ECLIPA   C78      CTL2    -0.180000       12.0110           0
     35637 LPSA33   1        ECLIPA   H78R     HAL2     0.900000E-01   1.00800           0
     35638 LPSA33   1        ECLIPA   H78S     HAL2     0.900000E-01   1.00800           0
     35639 LPSA33   1        ECLIPA   C79      CTL2    -0.180000       12.0110           0
     35640 LPSA33   1        ECLIPA   H79R     HAL2     0.900000E-01   1.00800           0
     35641 LPSA33   1        ECLIPA   H79S     HAL2     0.900000E-01   1.00800           0
     35642 LPSA33   1        ECLIPA   C710     CTL2    -0.180000       12.0110           0
     35643 LPSA33   1        ECLIPA   H710R    HAL2     0.900000E-01   1.00800           0
     35644 LPSA33   1        ECLIPA   H710S    HAL2     0.900000E-01   1.00800           0
     35645 LPSA33   1        ECLIPA   C711     CTL2    -0.180000       12.0110           0
     35646 LPSA33   1        ECLIPA   H711R    HAL2     0.900000E-01   1.00800           0
     35647 LPSA33   1        ECLIPA   H711S    HAL2     0.900000E-01   1.00800           0
     35648 LPSA33   1        ECLIPA   C712     CTL2    -0.180000       12.0110           0
     35649 LPSA33   1        ECLIPA   H712R    HAL2     0.900000E-01   1.00800           0
     35650 LPSA33   1        ECLIPA   H712S    HAL2     0.900000E-01   1.00800           0
     35651 LPSA33   1        ECLIPA   C713     CTL2    -0.180000       12.0110           0
     35652 LPSA33   1        ECLIPA   H713R    HAL2     0.900000E-01   1.00800           0
     35653 LPSA33   1        ECLIPA   H713S    HAL2     0.900000E-01   1.00800           0
     35654 LPSA33   1        ECLIPA   C714     CTL3    -0.270000       12.0110           0
     35655 LPSA33   1        ECLIPA   H714R    HAL3     0.900000E-01   1.00800           0
     35656 LPSA33   1        ECLIPA   H714S    HAL3     0.900000E-01   1.00800           0
     35657 LPSA33   1        ECLIPA   H714T    HAL3     0.900000E-01   1.00800           0
     35658 LPSA33   1        ECLIPA   C51      CC2O1    0.550000       12.0110           0
     35659 LPSA33   1        ECLIPA   O51      OC2D1   -0.550000       15.9994           0
     35660 LPSA33   1        ECLIPA   C52      CTL2    -0.180000       12.0110           0
     35661 LPSA33   1        ECLIPA   H52R     HAL2     0.900000E-01   1.00800           0
     35662 LPSA33   1        ECLIPA   H52S     HAL2     0.900000E-01   1.00800           0
     35663 LPSA33   1        ECLIPA   C53      CTL1     0.170000       12.0110           0
     35664 LPSA33   1        ECLIPA   H53R     HAL1     0.900000E-01   1.00800           0
     35665 LPSA33   1        ECLIPA   O53      OSL     -0.490000       15.9994           0
     35666 LPSA33   1        ECLIPA   C61      CL       0.900000       12.0110           0
     35667 LPSA33   1        ECLIPA   O61      OBL     -0.630000       15.9994           0
     35668 LPSA33   1        ECLIPA   C62      CTL2    -0.220000       12.0110           0
     35669 LPSA33   1        ECLIPA   H62R     HAL2     0.900000E-01   1.00800           0
     35670 LPSA33   1        ECLIPA   H62S     HAL2     0.900000E-01   1.00800           0
     35671 LPSA33   1        ECLIPA   C63      CTL2    -0.180000       12.0110           0
     35672 LPSA33   1        ECLIPA   H63R     HAL2     0.900000E-01   1.00800           0
     35673 LPSA33   1        ECLIPA   H63S     HAL2     0.900000E-01   1.00800           0
     35674 LPSA33   1        ECLIPA   C64      CTL2    -0.180000       12.0110           0
     35675 LPSA33   1        ECLIPA   H64R     HAL2     0.900000E-01   1.00800           0
     35676 LPSA33   1        ECLIPA   H64S     HAL2     0.900000E-01   1.00800           0
     35677 LPSA33   1        ECLIPA   C65      CTL2    -0.180000       12.0110           0
     35678 LPSA33   1        ECLIPA   H65R     HAL2     0.900000E-01   1.00800           0
     35679 LPSA33   1        ECLIPA   H65S     HAL2     0.900000E-01   1.00800           0
     35680 LPSA33   1        ECLIPA   C66      CTL2    -0.180000       12.0110           0
     35681 LPSA33   1        ECLIPA   H66R     HAL2     0.900000E-01   1.00800           0
     35682 LPSA33   1        ECLIPA   H66S     HAL2     0.900000E-01   1.00800           0
     35683 LPSA33   1        ECLIPA   C67      CTL2    -0.180000       12.0110           0
     35684 LPSA33   1        ECLIPA   H67R     HAL2     0.900000E-01   1.00800           0
     35685 LPSA33   1        ECLIPA   H67S     HAL2     0.900000E-01   1.00800           0
     35686 LPSA33   1        ECLIPA   C68      CTL2    -0.180000       12.0110           0
     35687 LPSA33   1        ECLIPA   H68R     HAL2     0.900000E-01   1.00800           0
     35688 LPSA33   1        ECLIPA   H68S     HAL2     0.900000E-01   1.00800           0
     35689 LPSA33   1        ECLIPA   C69      CTL2    -0.180000       12.0110           0
     35690 LPSA33   1        ECLIPA   H69R     HAL2     0.900000E-01   1.00800           0
     35691 LPSA33   1        ECLIPA   H69S     HAL2     0.900000E-01   1.00800           0
     35692 LPSA33   1        ECLIPA   C610     CTL2    -0.180000       12.0110           0
     35693 LPSA33   1        ECLIPA   H610R    HAL2     0.900000E-01   1.00800           0
     35694 LPSA33   1        ECLIPA   H610S    HAL2     0.900000E-01   1.00800           0
     35695 LPSA33   1        ECLIPA   C611     CTL2    -0.180000       12.0110           0
     35696 LPSA33   1        ECLIPA   H611R    HAL2     0.900000E-01   1.00800           0
     35697 LPSA33   1        ECLIPA   H611S    HAL2     0.900000E-01   1.00800           0
     35698 LPSA33   1        ECLIPA   C612     CTL3    -0.270000       12.0110           0
     35699 LPSA33   1        ECLIPA   H612R    HAL3     0.900000E-01   1.00800           0
     35700 LPSA33   1        ECLIPA   H612S    HAL3     0.900000E-01   1.00800           0
     35701 LPSA33   1        ECLIPA   H612T    HAL3     0.900000E-01   1.00800           0
     35702 LPSA33   1        ECLIPA   C54      CTL2    -0.180000       12.0110           0
     35703 LPSA33   1        ECLIPA   H54R     HAL2     0.900000E-01   1.00800           0
     35704 LPSA33   1        ECLIPA   H54S     HAL2     0.900000E-01   1.00800           0
     35705 LPSA33   1        ECLIPA   C55      CTL2    -0.180000       12.0110           0
     35706 LPSA33   1        ECLIPA   H55R     HAL2     0.900000E-01   1.00800           0
     35707 LPSA33   1        ECLIPA   H55S     HAL2     0.900000E-01   1.00800           0
     35708 LPSA33   1        ECLIPA   C56      CTL2    -0.180000       12.0110           0
     35709 LPSA33   1        ECLIPA   H56R     HAL2     0.900000E-01   1.00800           0
     35710 LPSA33   1        ECLIPA   H56S     HAL2     0.900000E-01   1.00800           0
     35711 LPSA33   1        ECLIPA   C57      CTL2    -0.180000       12.0110           0
     35712 LPSA33   1        ECLIPA   H57R     HAL2     0.900000E-01   1.00800           0
     35713 LPSA33   1        ECLIPA   H57S     HAL2     0.900000E-01   1.00800           0
     35714 LPSA33   1        ECLIPA   C58      CTL2    -0.180000       12.0110           0
     35715 LPSA33   1        ECLIPA   H58R     HAL2     0.900000E-01   1.00800           0
     35716 LPSA33   1        ECLIPA   H58S     HAL2     0.900000E-01   1.00800           0
     35717 LPSA33   1        ECLIPA   C59      CTL2    -0.180000       12.0110           0
     35718 LPSA33   1        ECLIPA   H59R     HAL2     0.900000E-01   1.00800           0
     35719 LPSA33   1        ECLIPA   H59S     HAL2     0.900000E-01   1.00800           0
     35720 LPSA33   1        ECLIPA   C510     CTL2    -0.180000       12.0110           0
     35721 LPSA33   1        ECLIPA   H510R    HAL2     0.900000E-01   1.00800           0
     35722 LPSA33   1        ECLIPA   H510S    HAL2     0.900000E-01   1.00800           0
     35723 LPSA33   1        ECLIPA   C511     CTL2    -0.180000       12.0110           0
     35724 LPSA33   1        ECLIPA   H511R    HAL2     0.900000E-01   1.00800           0
     35725 LPSA33   1        ECLIPA   H511S    HAL2     0.900000E-01   1.00800           0
     35726 LPSA33   1        ECLIPA   C512     CTL2    -0.180000       12.0110           0
     35727 LPSA33   1        ECLIPA   H512R    HAL2     0.900000E-01   1.00800           0
     35728 LPSA33   1        ECLIPA   H512S    HAL2     0.900000E-01   1.00800           0
     35729 LPSA33   1        ECLIPA   C513     CTL2    -0.180000       12.0110           0
     35730 LPSA33   1        ECLIPA   H513R    HAL2     0.900000E-01   1.00800           0
     35731 LPSA33   1        ECLIPA   H513S    HAL2     0.900000E-01   1.00800           0
     35732 LPSA33   1        ECLIPA   C514     CTL3    -0.270000       12.0110           0
     35733 LPSA33   1        ECLIPA   H514R    HAL3     0.900000E-01   1.00800           0
     35734 LPSA33   1        ECLIPA   H514S    HAL3     0.900000E-01   1.00800           0
     35735 LPSA33   1        ECLIPA   H514T    HAL3     0.900000E-01   1.00800           0
     35736 LPSA33   1        ECLIPA   C33      CTL1     0.140000       12.0110           0
     35737 LPSA33   1        ECLIPA   H33R     HAL1     0.900000E-01   1.00800           0
     35738 LPSA33   1        ECLIPA   O33      OH1     -0.660000       15.9994           0
     35739 LPSA33   1        ECLIPA   HO33     H        0.430000       1.00800           0
     35740 LPSA33   1        ECLIPA   C34      CTL2    -0.180000       12.0110           0
     35741 LPSA33   1        ECLIPA   H34R     HAL2     0.900000E-01   1.00800           0
     35742 LPSA33   1        ECLIPA   H34S     HAL2     0.900000E-01   1.00800           0
     35743 LPSA33   1        ECLIPA   C35      CTL2    -0.180000       12.0110           0
     35744 LPSA33   1        ECLIPA   H35R     HAL2     0.900000E-01   1.00800           0
     35745 LPSA33   1        ECLIPA   H35S     HAL2     0.900000E-01   1.00800           0
     35746 LPSA33   1        ECLIPA   C36      CTL2    -0.180000       12.0110           0
     35747 LPSA33   1        ECLIPA   H36R     HAL2     0.900000E-01   1.00800           0
     35748 LPSA33   1        ECLIPA   H36S     HAL2     0.900000E-01   1.00800           0
     35749 LPSA33   1        ECLIPA   C37      CTL2    -0.180000       12.0110           0
     35750 LPSA33   1        ECLIPA   H37R     HAL2     0.900000E-01   1.00800           0
     35751 LPSA33   1        ECLIPA   H37S     HAL2     0.900000E-01   1.00800           0
     35752 LPSA33   1        ECLIPA   C38      CTL2    -0.180000       12.0110           0
     35753 LPSA33   1        ECLIPA   H38R     HAL2     0.900000E-01   1.00800           0
     35754 LPSA33   1        ECLIPA   H38S     HAL2     0.900000E-01   1.00800           0
     35755 LPSA33   1        ECLIPA   C39      CTL2    -0.180000       12.0110           0
     35756 LPSA33   1        ECLIPA   H39R     HAL2     0.900000E-01   1.00800           0
     35757 LPSA33   1        ECLIPA   H39S     HAL2     0.900000E-01   1.00800           0
     35758 LPSA33   1        ECLIPA   C310     CTL2    -0.180000       12.0110           0
     35759 LPSA33   1        ECLIPA   H310R    HAL2     0.900000E-01   1.00800           0
     35760 LPSA33   1        ECLIPA   H310S    HAL2     0.900000E-01   1.00800           0
     35761 LPSA33   1        ECLIPA   C311     CTL2    -0.180000       12.0110           0
     35762 LPSA33   1        ECLIPA   H311R    HAL2     0.900000E-01   1.00800           0
     35763 LPSA33   1        ECLIPA   H311S    HAL2     0.900000E-01   1.00800           0
     35764 LPSA33   1        ECLIPA   C312     CTL2    -0.180000       12.0110           0
     35765 LPSA33   1        ECLIPA   H312R    HAL2     0.900000E-01   1.00800           0
     35766 LPSA33   1        ECLIPA   H312S    HAL2     0.900000E-01   1.00800           0
     35767 LPSA33   1        ECLIPA   C313     CTL2    -0.180000       12.0110           0
     35768 LPSA33   1        ECLIPA   H313R    HAL2     0.900000E-01   1.00800           0
     35769 LPSA33   1        ECLIPA   H313S    HAL2     0.900000E-01   1.00800           0
     35770 LPSA33   1        ECLIPA   C314     CTL3    -0.270000       12.0110           0
     35771 LPSA33   1        ECLIPA   H314R    HAL3     0.900000E-01   1.00800           0
     35772 LPSA33   1        ECLIPA   H314S    HAL3     0.900000E-01   1.00800           0
     35773 LPSA33   1        ECLIPA   H314T    HAL3     0.900000E-01   1.00800           0
     35774 LPSA33   1        ECLIPA   C11      CC2O1    0.550000       12.0110           0
     35775 LPSA33   1        ECLIPA   O11      OC2D1   -0.550000       15.9994           0
     35776 LPSA33   1        ECLIPA   C12      CTL2    -0.180000       12.0110           0
     35777 LPSA33   1        ECLIPA   H12R     HAL2     0.900000E-01   1.00800           0
     35778 LPSA33   1        ECLIPA   H12S     HAL2     0.900000E-01   1.00800           0
     35779 LPSA33   1        ECLIPA   C13      CTL1     0.140000       12.0110           0
     35780 LPSA33   1        ECLIPA   H13R     HAL1     0.900000E-01   1.00800           0
     35781 LPSA33   1        ECLIPA   O13      OH1     -0.660000       15.9994           0
     35782 LPSA33   1        ECLIPA   HO13     H        0.430000       1.00800           0
     35783 LPSA33   1        ECLIPA   C14      CTL2    -0.180000       12.0110           0
     35784 LPSA33   1        ECLIPA   H14R     HAL2     0.900000E-01   1.00800           0
     35785 LPSA33   1        ECLIPA   H14S     HAL2     0.900000E-01   1.00800           0
     35786 LPSA33   1        ECLIPA   C15      CTL2    -0.180000       12.0110           0
     35787 LPSA33   1        ECLIPA   H15R     HAL2     0.900000E-01   1.00800           0
     35788 LPSA33   1        ECLIPA   H15S     HAL2     0.900000E-01   1.00800           0
     35789 LPSA33   1        ECLIPA   C16      CTL2    -0.180000       12.0110           0
     35790 LPSA33   1        ECLIPA   H16R     HAL2     0.900000E-01   1.00800           0
     35791 LPSA33   1        ECLIPA   H16S     HAL2     0.900000E-01   1.00800           0
     35792 LPSA33   1        ECLIPA   C17      CTL2    -0.180000       12.0110           0
     35793 LPSA33   1        ECLIPA   H17R     HAL2     0.900000E-01   1.00800           0
     35794 LPSA33   1        ECLIPA   H17S     HAL2     0.900000E-01   1.00800           0
     35795 LPSA33   1        ECLIPA   C18      CTL2    -0.180000       12.0110           0
     35796 LPSA33   1        ECLIPA   H18R     HAL2     0.900000E-01   1.00800           0
     35797 LPSA33   1        ECLIPA   H18S     HAL2     0.900000E-01   1.00800           0
     35798 LPSA33   1        ECLIPA   C19      CTL2    -0.180000       12.0110           0
     35799 LPSA33   1        ECLIPA   H19R     HAL2     0.900000E-01   1.00800           0
     35800 LPSA33   1        ECLIPA   H19S     HAL2     0.900000E-01   1.00800           0
     35801 LPSA33   1        ECLIPA   C110     CTL2    -0.180000       12.0110           0
     35802 LPSA33   1        ECLIPA   H110R    HAL2     0.900000E-01   1.00800           0
     35803 LPSA33   1        ECLIPA   H110S    HAL2     0.900000E-01   1.00800           0
     35804 LPSA33   1        ECLIPA   C111     CTL2    -0.180000       12.0110           0
     35805 LPSA33   1        ECLIPA   H111R    HAL2     0.900000E-01   1.00800           0
     35806 LPSA33   1        ECLIPA   H111S    HAL2     0.900000E-01   1.00800           0
     35807 LPSA33   1        ECLIPA   C112     CTL2    -0.180000       12.0110           0
     35808 LPSA33   1        ECLIPA   H112R    HAL2     0.900000E-01   1.00800           0
     35809 LPSA33   1        ECLIPA   H112S    HAL2     0.900000E-01   1.00800           0
     35810 LPSA33   1        ECLIPA   C113     CTL2    -0.180000       12.0110           0
     35811 LPSA33   1        ECLIPA   H113R    HAL2     0.900000E-01   1.00800           0
     35812 LPSA33   1        ECLIPA   H113S    HAL2     0.900000E-01   1.00800           0
     35813 LPSA33   1        ECLIPA   C114     CTL3    -0.270000       12.0110           0
     35814 LPSA33   1        ECLIPA   H114R    HAL3     0.900000E-01   1.00800           0
     35815 LPSA33   1        ECLIPA   H114S    HAL3     0.900000E-01   1.00800           0
     35816 LPSA33   1        ECLIPA   H114T    HAL3     0.900000E-01   1.00800           0
     35817 LPSA33   2        AKDO     C1       CC2O2    0.300000       12.0110           0
     35818 LPSA33   2        AKDO     O11      OC2D2   -0.600000       15.9994           0
     35819 LPSA33   2        AKDO     O12      OC2D2   -0.600000       15.9994           0
     35820 LPSA33   2        AKDO     C2       CC3062   0.280000       12.0110           0
     35821 LPSA33   2        AKDO     C6       CC3163   0.110000       12.0110           0
     35822 LPSA33   2        AKDO     H6       HCA1     0.900000E-01   1.00800           0
     35823 LPSA33   2        AKDO     O6       OC3C61  -0.400000       15.9994           0
     35824 LPSA33   2        AKDO     C3       CC3261  -0.180000       12.0110           0
     35825 LPSA33   2        AKDO     H31      HCA2     0.900000E-01   1.00800           0
     35826 LPSA33   2        AKDO     H32      HCA2     0.900000E-01   1.00800           0
     35827 LPSA33   2        AKDO     C4       CC3161   0.900000E-01   12.0110           0
     35828 LPSA33   2        AKDO     H4       HCA1     0.900000E-01   1.00800           0
     35829 LPSA33   2        AKDO     O4       OC301   -0.360000       15.9994           0
     35830 LPSA33   2        AKDO     C5       CC3161   0.900000E-01   12.0110           0
     35831 LPSA33   2        AKDO     H5       HCA1     0.900000E-01   1.00800           0
     35832 LPSA33   2        AKDO     O5       OC301   -0.360000       15.9994           0
     35833 LPSA33   2        AKDO     C7       CC312    0.140000       12.0110           0
     35834 LPSA33   2        AKDO     H7       HCA1     0.900000E-01   1.00800           0
     35835 LPSA33   2        AKDO     O7       OC311   -0.650000       15.9994           0
     35836 LPSA33   2        AKDO     HO7      HCP1     0.420000       1.00800           0
     35837 LPSA33   2        AKDO     C8       CC322    0.500000E-01   12.0110           0
     35838 LPSA33   2        AKDO     H81      HCA2     0.900000E-01   1.00800           0
     35839 LPSA33   2        AKDO     H82      HCA2     0.900000E-01   1.00800           0
     35840 LPSA33   2        AKDO     O8       OC311   -0.650000       15.9994           0
     35841 LPSA33   2        AKDO     HO8      HCP1     0.420000       1.00800           0
     35842 LPSA33   3        AKDO     C1       CC2O2    0.300000       12.0110           0
     35843 LPSA33   3        AKDO     O11      OC2D2   -0.600000       15.9994           0
     35844 LPSA33   3        AKDO     O12      OC2D2   -0.600000       15.9994           0
     35845 LPSA33   3        AKDO     C2       CC3062   0.280000       12.0110           0
     35846 LPSA33   3        AKDO     C6       CC3163   0.110000       12.0110           0
     35847 LPSA33   3        AKDO     H6       HCA1     0.900000E-01   1.00800           0
     35848 LPSA33   3        AKDO     O6       OC3C61  -0.400000       15.9994           0
     35849 LPSA33   3        AKDO     C3       CC3261  -0.180000       12.0110           0
     35850 LPSA33   3        AKDO     H31      HCA2     0.900000E-01   1.00800           0
     35851 LPSA33   3        AKDO     H32      HCA2     0.900000E-01   1.00800           0
     35852 LPSA33   3        AKDO     C4       CC3161   0.140000       12.0110           0
     35853 LPSA33   3        AKDO     H4       HCA1     0.900000E-01   1.00800           0
     35854 LPSA33   3        AKDO     O4       OC311   -0.650000       15.9994           0
     35855 LPSA33   3        AKDO     HO4      HCP1     0.420000       1.00800           0
     35856 LPSA33   3        AKDO     C5       CC3161   0.140000       12.0110           0
     35857 LPSA33   3        AKDO     H5       HCA1     0.900000E-01   1.00800           0
     35858 LPSA33   3        AKDO     O5       OC311   -0.650000       15.9994           0
     35859 LPSA33   3        AKDO     HO5      HCP1     0.420000       1.00800           0
     35860 LPSA33   3        AKDO     C7       CC312    0.140000       12.0110           0
     35861 LPSA33   3        AKDO     H7       HCA1     0.900000E-01   1.00800           0
     35862 LPSA33   3        AKDO     O7       OC311   -0.650000       15.9994           0
     35863 LPSA33   3        AKDO     HO7      HCP1     0.420000       1.00800           0
     35864 LPSA33   3        AKDO     C8       CC322    0.500000E-01   12.0110           0
     35865 LPSA33   3        AKDO     H81      HCA2     0.900000E-01   1.00800           0
     35866 LPSA33   3        AKDO     H82      HCA2     0.900000E-01   1.00800           0
     35867 LPSA33   3        AKDO     O8       OC311   -0.650000       15.9994           0
     35868 LPSA33   3        AKDO     HO8      HCP1     0.420000       1.00800           0
     35869 LPSA33   4        AHEP     C1       CC3162   0.290000       12.0110           0
     35870 LPSA33   4        AHEP     H1       HCA1     0.900000E-01   1.00800           0
     35871 LPSA33   4        AHEP     C5       CC3163   0.110000       12.0110           0
     35872 LPSA33   4        AHEP     H5       HCA1     0.900000E-01   1.00800           0
     35873 LPSA33   4        AHEP     O5       OC3C61  -0.400000       15.9994           0
     35874 LPSA33   4        AHEP     C2       CC3161   0.140000       12.0110           0
     35875 LPSA33   4        AHEP     H2       HCA1     0.900000E-01   1.00800           0
     35876 LPSA33   4        AHEP     O2       OC311   -0.650000       15.9994           0
     35877 LPSA33   4        AHEP     HO2      HCP1     0.420000       1.00800           0
     35878 LPSA33   4        AHEP     C3       CC3161   0.900000E-01   12.0110           0
     35879 LPSA33   4        AHEP     H3       HCA1     0.900000E-01   1.00800           0
     35880 LPSA33   4        AHEP     O3       OC301   -0.360000       15.9994           0
     35881 LPSA33   4        AHEP     C4       CC3161  -0.900000E-01   12.0110           0
     35882 LPSA33   4        AHEP     H4       HCA1     0.900000E-01   1.00800           0
     35883 LPSA33   4        AHEP     O4       OC30P   -0.400000       15.9994           0
     35884 LPSA33   4        AHEP     P4       PC        1.10000       30.9740           0
     35885 LPSA33   4        AHEP     OP42     OC2DP   -0.900000       15.9994           0
     35886 LPSA33   4        AHEP     OP43     OC2DP   -0.900000       15.9994           0
     35887 LPSA33   4        AHEP     OP44     OC2DP   -0.900000       15.9994           0
     35888 LPSA33   4        AHEP     C6       CC312    0.140000       12.0110           0
     35889 LPSA33   4        AHEP     H6       HCA1     0.900000E-01   1.00800           0
     35890 LPSA33   4        AHEP     O6       OC311   -0.650000       15.9994           0
     35891 LPSA33   4        AHEP     HO6      HCP1     0.420000       1.00800           0
     35892 LPSA33   4        AHEP     C7       CC322    0.500000E-01   12.0110           0
     35893 LPSA33   4        AHEP     H71      HCA2     0.900000E-01   1.00800           0
     35894 LPSA33   4        AHEP     H72      HCA2     0.900000E-01   1.00800           0
     35895 LPSA33   4        AHEP     O7       OC311   -0.650000       15.9994           0
     35896 LPSA33   4        AHEP     HO7      HCP1     0.420000       1.00800           0
     35897 LPSA33   5        AHEP     C1       CC3162   0.290000       12.0110           0
     35898 LPSA33   5        AHEP     H1       HCA1     0.900000E-01   1.00800           0
     35899 LPSA33   5        AHEP     C5       CC3163   0.110000       12.0110           0
     35900 LPSA33   5        AHEP     H5       HCA1     0.900000E-01   1.00800           0
     35901 LPSA33   5        AHEP     O5       OC3C61  -0.400000       15.9994           0
     35902 LPSA33   5        AHEP     C2       CC3161   0.140000       12.0110           0
     35903 LPSA33   5        AHEP     H2       HCA1     0.900000E-01   1.00800           0
     35904 LPSA33   5        AHEP     O2       OC311   -0.650000       15.9994           0
     35905 LPSA33   5        AHEP     HO2      HCP1     0.420000       1.00800           0
     35906 LPSA33   5        AHEP     C3       CC3161   0.900000E-01   12.0110           0
     35907 LPSA33   5        AHEP     H3       HCA1     0.900000E-01   1.00800           0
     35908 LPSA33   5        AHEP     O3       OC301   -0.360000       15.9994           0
     35909 LPSA33   5        AHEP     C4       CC3161  -0.900000E-01   12.0110           0
     35910 LPSA33   5        AHEP     H4       HCA1     0.900000E-01   1.00800           0
     35911 LPSA33   5        AHEP     O4       OC30P   -0.400000       15.9994           0
     35912 LPSA33   5        AHEP     P4       PC        1.10000       30.9740           0
     35913 LPSA33   5        AHEP     OP42     OC2DP   -0.900000       15.9994           0
     35914 LPSA33   5        AHEP     OP43     OC2DP   -0.900000       15.9994           0
     35915 LPSA33   5        AHEP     OP44     OC2DP   -0.900000       15.9994           0
     35916 LPSA33   5        AHEP     C6       CC312    0.140000       12.0110           0
     35917 LPSA33   5        AHEP     H6       HCA1     0.900000E-01   1.00800           0
     35918 LPSA33   5        AHEP     O6       OC311   -0.650000       15.9994           0
     35919 LPSA33   5        AHEP     HO6      HCP1     0.420000       1.00800           0
     35920 LPSA33   5        AHEP     C7       CC322     0.00000       12.0110           0
     35921 LPSA33   5        AHEP     H71      HCA2     0.900000E-01   1.00800           0
     35922 LPSA33   5        AHEP     H72      HCA2     0.900000E-01   1.00800           0
     35923 LPSA33   5        AHEP     O7       OC301   -0.360000       15.9994           0
     35924 LPSA33   6        AHEP     C1       CC3162   0.290000       12.0110           0
     35925 LPSA33   6        AHEP     H1       HCA1     0.900000E-01   1.00800           0
     35926 LPSA33   6        AHEP     C5       CC3163   0.110000       12.0110           0
     35927 LPSA33   6        AHEP     H5       HCA1     0.900000E-01   1.00800           0
     35928 LPSA33   6        AHEP     O5       OC3C61  -0.400000       15.9994           0
     35929 LPSA33   6        AHEP     C2       CC3161   0.140000       12.0110           0
     35930 LPSA33   6        AHEP     H2       HCA1     0.900000E-01   1.00800           0
     35931 LPSA33   6        AHEP     O2       OC311   -0.650000       15.9994           0
     35932 LPSA33   6        AHEP     HO2      HCP1     0.420000       1.00800           0
     35933 LPSA33   6        AHEP     C3       CC3161   0.140000       12.0110           0
     35934 LPSA33   6        AHEP     H3       HCA1     0.900000E-01   1.00800           0
     35935 LPSA33   6        AHEP     O3       OC311   -0.650000       15.9994           0
     35936 LPSA33   6        AHEP     HO3      HCP1     0.420000       1.00800           0
     35937 LPSA33   6        AHEP     C4       CC3161   0.140000       12.0110           0
     35938 LPSA33   6        AHEP     H4       HCA1     0.900000E-01   1.00800           0
     35939 LPSA33   6        AHEP     O4       OC311   -0.650000       15.9994           0
     35940 LPSA33   6        AHEP     HO4      HCP1     0.420000       1.00800           0
     35941 LPSA33   6        AHEP     C6       CC312    0.140000       12.0110           0
     35942 LPSA33   6        AHEP     H6       HCA1     0.900000E-01   1.00800           0
     35943 LPSA33   6        AHEP     O6       OC311   -0.650000       15.9994           0
     35944 LPSA33   6        AHEP     HO6      HCP1     0.420000       1.00800           0
     35945 LPSA33   6        AHEP     C7       CC322    0.500000E-01   12.0110           0
     35946 LPSA33   6        AHEP     H71      HCA2     0.900000E-01   1.00800           0
     35947 LPSA33   6        AHEP     H72      HCA2     0.900000E-01   1.00800           0
     35948 LPSA33   6        AHEP     O7       OC311   -0.650000       15.9994           0
     35949 LPSA33   6        AHEP     HO7      HCP1     0.420000       1.00800           0
     35950 LPSA33   7        AGLC     C1       CC3162   0.290000       12.0110           0
     35951 LPSA33   7        AGLC     H1       HCA1     0.900000E-01   1.00800           0
     35952 LPSA33   7        AGLC     C5       CC3163   0.110000       12.0110           0
     35953 LPSA33   7        AGLC     H5       HCA1     0.900000E-01   1.00800           0
     35954 LPSA33   7        AGLC     O5       OC3C61  -0.400000       15.9994           0
     35955 LPSA33   7        AGLC     C2       CC3161   0.140000       12.0110           0
     35956 LPSA33   7        AGLC     H2       HCA1     0.900000E-01   1.00800           0
     35957 LPSA33   7        AGLC     O2       OC311   -0.650000       15.9994           0
     35958 LPSA33   7        AGLC     HO2      HCP1     0.420000       1.00800           0
     35959 LPSA33   7        AGLC     C3       CC3161   0.900000E-01   12.0110           0
     35960 LPSA33   7        AGLC     H3       HCA1     0.900000E-01   1.00800           0
     35961 LPSA33   7        AGLC     O3       OC301   -0.360000       15.9994           0
     35962 LPSA33   7        AGLC     C4       CC3161   0.140000       12.0110           0
     35963 LPSA33   7        AGLC     H4       HCA1     0.900000E-01   1.00800           0
     35964 LPSA33   7        AGLC     O4       OC311   -0.650000       15.9994           0
     35965 LPSA33   7        AGLC     HO4      HCP1     0.420000       1.00800           0
     35966 LPSA33   7        AGLC     C6       CC321    0.500000E-01   12.0110           0
     35967 LPSA33   7        AGLC     H61      HCA2     0.900000E-01   1.00800           0
     35968 LPSA33   7        AGLC     H62      HCA2     0.900000E-01   1.00800           0
     35969 LPSA33   7        AGLC     O6       OC311   -0.650000       15.9994           0
     35970 LPSA33   7        AGLC     HO6      HCP1     0.420000       1.00800           0
     35971 LPSA33   8        AGLC     C1       CC3162   0.290000       12.0110           0
     35972 LPSA33   8        AGLC     H1       HCA1     0.900000E-01   1.00800           0
     35973 LPSA33   8        AGLC     C5       CC3163   0.110000       12.0110           0
     35974 LPSA33   8        AGLC     H5       HCA1     0.900000E-01   1.00800           0
     35975 LPSA33   8        AGLC     O5       OC3C61  -0.400000       15.9994           0
     35976 LPSA33   8        AGLC     C2       CC3161   0.900000E-01   12.0110           0
     35977 LPSA33   8        AGLC     H2       HCA1     0.900000E-01   1.00800           0
     35978 LPSA33   8        AGLC     O2       OC301   -0.360000       15.9994           0
     35979 LPSA33   8        AGLC     C3       CC3161   0.900000E-01   12.0110           0
     35980 LPSA33   8        AGLC     H3       HCA1     0.900000E-01   1.00800           0
     35981 LPSA33   8        AGLC     O3       OC301   -0.360000       15.9994           0
     35982 LPSA33   8        AGLC     C4       CC3161   0.140000       12.0110           0
     35983 LPSA33   8        AGLC     H4       HCA1     0.900000E-01   1.00800           0
     35984 LPSA33   8        AGLC     O4       OC311   -0.650000       15.9994           0
     35985 LPSA33   8        AGLC     HO4      HCP1     0.420000       1.00800           0
     35986 LPSA33   8        AGLC     C6       CC321    0.500000E-01   12.0110           0
     35987 LPSA33   8        AGLC     H61      HCA2     0.900000E-01   1.00800           0
     35988 LPSA33   8        AGLC     H62      HCA2     0.900000E-01   1.00800           0
     35989 LPSA33   8        AGLC     O6       OC311   -0.650000       15.9994           0
     35990 LPSA33   8        AGLC     HO6      HCP1     0.420000       1.00800           0
     35991 LPSA33   9        AGAL     C1       CC3162   0.290000       12.0110           0
     35992 LPSA33   9        AGAL     H1       HCA1     0.900000E-01   1.00800           0
     35993 LPSA33   9        AGAL     C5       CC3163   0.110000       12.0110           0
     35994 LPSA33   9        AGAL     H5       HCA1     0.900000E-01   1.00800           0
     35995 LPSA33   9        AGAL     O5       OC3C61  -0.400000       15.9994           0
     35996 LPSA33   9        AGAL     C2       CC3161   0.900000E-01   12.0110           0
     35997 LPSA33   9        AGAL     H2       HCA1     0.900000E-01   1.00800           0
     35998 LPSA33   9        AGAL     O2       OC301   -0.360000       15.9994           0
     35999 LPSA33   9        AGAL     C3       CC3161   0.140000       12.0110           0
     36000 LPSA33   9        AGAL     H3       HCA1     0.900000E-01   1.00800           0
     36001 LPSA33   9        AGAL     O3       OC311   -0.650000       15.9994           0
     36002 LPSA33   9        AGAL     HO3      HCP1     0.420000       1.00800           0
     36003 LPSA33   9        AGAL     C4       CC3161   0.140000       12.0110           0
     36004 LPSA33   9        AGAL     H4       HCA1     0.900000E-01   1.00800           0
     36005 LPSA33   9        AGAL     O4       OC311   -0.650000       15.9994           0
     36006 LPSA33   9        AGAL     HO4      HCP1     0.420000       1.00800           0
     36007 LPSA33   9        AGAL     C6       CC321    0.500000E-01   12.0110           0
     36008 LPSA33   9        AGAL     H61      HCA2     0.900000E-01   1.00800           0
     36009 LPSA33   9        AGAL     H62      HCA2     0.900000E-01   1.00800           0
     36010 LPSA33   9        AGAL     O6       OC311   -0.650000       15.9994           0
     36011 LPSA33   9        AGAL     HO6      HCP1     0.420000       1.00800           0
     36012 LPSA33   10       AGAL     C1       CC3162   0.290000       12.0110           0
     36013 LPSA33   10       AGAL     H1       HCA1     0.900000E-01   1.00800           0
     36014 LPSA33   10       AGAL     C5       CC3163   0.110000       12.0110           0
     36015 LPSA33   10       AGAL     H5       HCA1     0.900000E-01   1.00800           0
     36016 LPSA33   10       AGAL     O5       OC3C61  -0.400000       15.9994           0
     36017 LPSA33   10       AGAL     C2       CC3161   0.140000       12.0110           0
     36018 LPSA33   10       AGAL     H2       HCA1     0.900000E-01   1.00800           0
     36019 LPSA33   10       AGAL     O2       OC311   -0.650000       15.9994           0
     36020 LPSA33   10       AGAL     HO2      HCP1     0.420000       1.00800           0
     36021 LPSA33   10       AGAL     C3       CC3161   0.140000       12.0110           0
     36022 LPSA33   10       AGAL     H3       HCA1     0.900000E-01   1.00800           0
     36023 LPSA33   10       AGAL     O3       OC311   -0.650000       15.9994           0
     36024 LPSA33   10       AGAL     HO3      HCP1     0.420000       1.00800           0
     36025 LPSA33   10       AGAL     C4       CC3161   0.140000       12.0110           0
     36026 LPSA33   10       AGAL     H4       HCA1     0.900000E-01   1.00800           0
     36027 LPSA33   10       AGAL     O4       OC311   -0.650000       15.9994           0
     36028 LPSA33   10       AGAL     HO4      HCP1     0.420000       1.00800           0
     36029 LPSA33   10       AGAL     C6       CC321    0.500000E-01   12.0110           0
     36030 LPSA33   10       AGAL     H61      HCA2     0.900000E-01   1.00800           0
     36031 LPSA33   10       AGAL     H62      HCA2     0.900000E-01   1.00800           0
     36032 LPSA33   10       AGAL     O6       OC311   -0.650000       15.9994           0
     36033 LPSA33   10       AGAL     HO6      HCP1     0.420000       1.00800           0
     36034 LPSA33   11       BGLC     C1       CC3162   0.290000       12.0110           0
     36035 LPSA33   11       BGLC     H1       HCA1     0.900000E-01   1.00800           0
     36036 LPSA33   11       BGLC     C5       CC3163   0.110000       12.0110           0
     36037 LPSA33   11       BGLC     H5       HCA1     0.900000E-01   1.00800           0
     36038 LPSA33   11       BGLC     O5       OC3C61  -0.400000       15.9994           0
     36039 LPSA33   11       BGLC     C2       CC3161   0.140000       12.0110           0
     36040 LPSA33   11       BGLC     H2       HCA1     0.900000E-01   1.00800           0
     36041 LPSA33   11       BGLC     O2       OC311   -0.650000       15.9994           0
     36042 LPSA33   11       BGLC     HO2      HCP1     0.420000       1.00800           0
     36043 LPSA33   11       BGLC     C3       CC3161   0.900000E-01   12.0110           0
     36044 LPSA33   11       BGLC     H3       HCA1     0.900000E-01   1.00800           0
     36045 LPSA33   11       BGLC     O3       OC301   -0.360000       15.9994           0
     36046 LPSA33   11       BGLC     C4       CC3161   0.140000       12.0110           0
     36047 LPSA33   11       BGLC     H4       HCA1     0.900000E-01   1.00800           0
     36048 LPSA33   11       BGLC     O4       OC311   -0.650000       15.9994           0
     36049 LPSA33   11       BGLC     HO4      HCP1     0.420000       1.00800           0
     36050 LPSA33   11       BGLC     C6       CC321    0.500000E-01   12.0110           0
     36051 LPSA33   11       BGLC     H61      HCA2     0.900000E-01   1.00800           0
     36052 LPSA33   11       BGLC     H62      HCA2     0.900000E-01   1.00800           0
     36053 LPSA33   11       BGLC     O6       OC311   -0.650000       15.9994           0
     36054 LPSA33   11       BGLC     HO6      HCP1     0.420000       1.00800           0
     36055 LPSA33   12       BGLCNA   C1       CC3162   0.290000       12.0110           0
     36056 LPSA33   12       BGLCNA   H1       HCA1     0.900000E-01   1.00800           0
     36057 LPSA33   12       BGLCNA   C5       CC3163   0.110000       12.0110           0
     36058 LPSA33   12       BGLCNA   H5       HCA1     0.900000E-01   1.00800           0
     36059 LPSA33   12       BGLCNA   O5       OC3C61  -0.400000       15.9994           0
     36060 LPSA33   12       BGLCNA   C2       CC3161   0.700000E-01   12.0110           0
     36061 LPSA33   12       BGLCNA   H2       HCA1     0.900000E-01   1.00800           0
     36062 LPSA33   12       BGLCNA   N        NC2D1   -0.470000       14.0070           0
     36063 LPSA33   12       BGLCNA   HN       HCP1     0.310000       1.00800           0
     36064 LPSA33   12       BGLCNA   C        CC2O1    0.510000       12.0110           0
     36065 LPSA33   12       BGLCNA   O        OC2D1   -0.510000       15.9994           0
     36066 LPSA33   12       BGLCNA   CT       CC331   -0.270000       12.0110           0
     36067 LPSA33   12       BGLCNA   HT1      HCA3     0.900000E-01   1.00800           0
     36068 LPSA33   12       BGLCNA   HT2      HCA3     0.900000E-01   1.00800           0
     36069 LPSA33   12       BGLCNA   HT3      HCA3     0.900000E-01   1.00800           0
     36070 LPSA33   12       BGLCNA   C3       CC3161   0.900000E-01   12.0110           0
     36071 LPSA33   12       BGLCNA   H3       HCA1     0.900000E-01   1.00800           0
     36072 LPSA33   12       BGLCNA   O3       OC301   -0.360000       15.9994           0
     36073 LPSA33   12       BGLCNA   C4       CC3161   0.140000       12.0110           0
     36074 LPSA33   12       BGLCNA   H4       HCA1     0.900000E-01   1.00800           0
     36075 LPSA33   12       BGLCNA   O4       OC311   -0.650000       15.9994           0
     36076 LPSA33   12       BGLCNA   HO4      HCP1     0.420000       1.00800           0
     36077 LPSA33   12       BGLCNA   C6       CC321    0.500000E-01   12.0110           0
     36078 LPSA33   12       BGLCNA   H61      HCA2     0.900000E-01   1.00800           0
     36079 LPSA33   12       BGLCNA   H62      HCA2     0.900000E-01   1.00800           0
     36080 LPSA33   12       BGLCNA   O6       OC311   -0.650000       15.9994           0
     36081 LPSA33   12       BGLCNA   HO6      HCP1     0.420000       1.00800           0
     36082 LPSA33   13       AGAL     C1       CC3162   0.290000       12.0110           0
     36083 LPSA33   13       AGAL     H1       HCA1     0.900000E-01   1.00800           0
     36084 LPSA33   13       AGAL     C5       CC3163   0.110000       12.0110           0
     36085 LPSA33   13       AGAL     H5       HCA1     0.900000E-01   1.00800           0
     36086 LPSA33   13       AGAL     O5       OC3C61  -0.400000       15.9994           0
     36087 LPSA33   13       AGAL     C2       CC3161   0.900000E-01   12.0110           0
     36088 LPSA33   13       AGAL     H2       HCA1     0.900000E-01   1.00800           0
     36089 LPSA33   13       AGAL     O2       OC301   -0.360000       15.9994           0
     36090 LPSA33   13       AGAL     C3       CC3161   0.140000       12.0110           0
     36091 LPSA33   13       AGAL     H3       HCA1     0.900000E-01   1.00800           0
     36092 LPSA33   13       AGAL     O3       OC311   -0.650000       15.9994           0
     36093 LPSA33   13       AGAL     HO3      HCP1     0.420000       1.00800           0
     36094 LPSA33   13       AGAL     C4       CC3161   0.140000       12.0110           0
     36095 LPSA33   13       AGAL     H4       HCA1     0.900000E-01   1.00800           0
     36096 LPSA33   13       AGAL     O4       OC311   -0.650000       15.9994           0
     36097 LPSA33   13       AGAL     HO4      HCP1     0.420000       1.00800           0
     36098 LPSA33   13       AGAL     C6       CC321    0.500000E-01   12.0110           0
     36099 LPSA33   13       AGAL     H61      HCA2     0.900000E-01   1.00800           0
     36100 LPSA33   13       AGAL     H62      HCA2     0.900000E-01   1.00800           0
     36101 LPSA33   13       AGAL     O6       OC311   -0.650000       15.9994           0
     36102 LPSA33   13       AGAL     HO6      HCP1     0.420000       1.00800           0
     36103 LPSA33   14       ARHM     C1       CC3162   0.290000       12.0110           0
     36104 LPSA33   14       ARHM     H1       HCA1     0.900000E-01   1.00800           0
     36105 LPSA33   14       ARHM     C5       CC3163   0.110000       12.0110           0
     36106 LPSA33   14       ARHM     H5       HCA1     0.900000E-01   1.00800           0
     36107 LPSA33   14       ARHM     O5       OC3C61  -0.400000       15.9994           0
     36108 LPSA33   14       ARHM     C2       CC3161   0.900000E-01   12.0110           0
     36109 LPSA33   14       ARHM     H2       HCA1     0.900000E-01   1.00800           0
     36110 LPSA33   14       ARHM     O2       OC301   -0.360000       15.9994           0
     36111 LPSA33   14       ARHM     C3       CC3161   0.140000       12.0110           0
     36112 LPSA33   14       ARHM     H3       HCA1     0.900000E-01   1.00800           0
     36113 LPSA33   14       ARHM     O3       OC311   -0.650000       15.9994           0
     36114 LPSA33   14       ARHM     HO3      HCP1     0.420000       1.00800           0
     36115 LPSA33   14       ARHM     C4       CC3161   0.140000       12.0110           0
     36116 LPSA33   14       ARHM     H4       HCA1     0.900000E-01   1.00800           0
     36117 LPSA33   14       ARHM     O4       OC311   -0.650000       15.9994           0
     36118 LPSA33   14       ARHM     HO4      HCP1     0.420000       1.00800           0
     36119 LPSA33   14       ARHM     C6       CC331   -0.270000       12.0110           0
     36120 LPSA33   14       ARHM     H61      HCA3     0.900000E-01   1.00800           0
     36121 LPSA33   14       ARHM     H62      HCA3     0.900000E-01   1.00800           0
     36122 LPSA33   14       ARHM     H63      HCA3     0.900000E-01   1.00800           0
     36123 LPSA33   15       ARHM     C1       CC3162   0.290000       12.0110           0
     36124 LPSA33   15       ARHM     H1       HCA1     0.900000E-01   1.00800           0
     36125 LPSA33   15       ARHM     C5       CC3163   0.110000       12.0110           0
     36126 LPSA33   15       ARHM     H5       HCA1     0.900000E-01   1.00800           0
     36127 LPSA33   15       ARHM     O5       OC3C61  -0.400000       15.9994           0
     36128 LPSA33   15       ARHM     C2       CC3161   0.900000E-01   12.0110           0
     36129 LPSA33   15       ARHM     H2       HCA1     0.900000E-01   1.00800           0
     36130 LPSA33   15       ARHM     O2       OC301   -0.360000       15.9994           0
     36131 LPSA33   15       ARHM     C3       CC3161   0.900000E-01   12.0110           0
     36132 LPSA33   15       ARHM     H3       HCA1     0.900000E-01   1.00800           0
     36133 LPSA33   15       ARHM     O3       OC301   -0.360000       15.9994           0
     36134 LPSA33   15       ARHM     C4       CC3161   0.140000       12.0110           0
     36135 LPSA33   15       ARHM     H4       HCA1     0.900000E-01   1.00800           0
     36136 LPSA33   15       ARHM     O4       OC311   -0.650000       15.9994           0
     36137 LPSA33   15       ARHM     HO4      HCP1     0.420000       1.00800           0
     36138 LPSA33   15       ARHM     C6       CC331   -0.270000       12.0110           0
     36139 LPSA33   15       ARHM     H61      HCA3     0.900000E-01   1.00800           0
     36140 LPSA33   15       ARHM     H62      HCA3     0.900000E-01   1.00800           0
     36141 LPSA33   15       ARHM     H63      HCA3     0.900000E-01   1.00800           0
     36142 LPSA33   16       BMANNA   C1       CC3162   0.290000       12.0110           0
     36143 LPSA33   16       BMANNA   H1       HCA1     0.900000E-01   1.00800           0
     36144 LPSA33   16       BMANNA   C5       CC3163   0.110000       12.0110           0
     36145 LPSA33   16       BMANNA   H5       HCA1     0.900000E-01   1.00800           0
     36146 LPSA33   16       BMANNA   O5       OC3C61  -0.400000       15.9994           0
     36147 LPSA33   16       BMANNA   C2       CC3161   0.700000E-01   12.0110           0
     36148 LPSA33   16       BMANNA   H2       HCA1     0.900000E-01   1.00800           0
     36149 LPSA33   16       BMANNA   N        NC2D1   -0.470000       14.0070           0
     36150 LPSA33   16       BMANNA   HN       HCP1     0.310000       1.00800           0
     36151 LPSA33   16       BMANNA   C        CC2O1    0.510000       12.0110           0
     36152 LPSA33   16       BMANNA   O        OC2D1   -0.510000       15.9994           0
     36153 LPSA33   16       BMANNA   CT       CC331   -0.270000       12.0110           0
     36154 LPSA33   16       BMANNA   HT1      HCA3     0.900000E-01   1.00800           0
     36155 LPSA33   16       BMANNA   HT2      HCA3     0.900000E-01   1.00800           0
     36156 LPSA33   16       BMANNA   HT3      HCA3     0.900000E-01   1.00800           0
     36157 LPSA33   16       BMANNA   C3       CC3161   0.140000       12.0110           0
     36158 LPSA33   16       BMANNA   H3       HCA1     0.900000E-01   1.00800           0
     36159 LPSA33   16       BMANNA   O3       OC311   -0.650000       15.9994           0
     36160 LPSA33   16       BMANNA   HO3      HCP1     0.420000       1.00800           0
     36161 LPSA33   16       BMANNA   C4       CC3161   0.140000       12.0110           0
     36162 LPSA33   16       BMANNA   H4       HCA1     0.900000E-01   1.00800           0
     36163 LPSA33   16       BMANNA   O4       OC311   -0.650000       15.9994           0
     36164 LPSA33   16       BMANNA   HO4      HCP1     0.420000       1.00800           0
     36165 LPSA33   16       BMANNA   C6       CC321    0.500000E-01   12.0110           0
     36166 LPSA33   16       BMANNA   H61      HCA2     0.900000E-01   1.00800           0
     36167 LPSA33   16       BMANNA   H62      HCA2     0.900000E-01   1.00800           0
     36168 LPSA33   16       BMANNA   O6       OC311   -0.650000       15.9994           0
     36169 LPSA33   16       BMANNA   HO6      HCP1     0.420000       1.00800           0
     36170 LPSA33   17       BGLCNA   C1       CC3162   0.290000       12.0110           0
     36171 LPSA33   17       BGLCNA   H1       HCA1     0.900000E-01   1.00800           0
     36172 LPSA33   17       BGLCNA   C5       CC3163   0.110000       12.0110           0
     36173 LPSA33   17       BGLCNA   H5       HCA1     0.900000E-01   1.00800           0
     36174 LPSA33   17       BGLCNA   O5       OC3C61  -0.400000       15.9994           0
     36175 LPSA33   17       BGLCNA   C2       CC3161   0.700000E-01   12.0110           0
     36176 LPSA33   17       BGLCNA   H2       HCA1     0.900000E-01   1.00800           0
     36177 LPSA33   17       BGLCNA   N        NC2D1   -0.470000       14.0070           0
     36178 LPSA33   17       BGLCNA   HN       HCP1     0.310000       1.00800           0
     36179 LPSA33   17       BGLCNA   C        CC2O1    0.510000       12.0110           0
     36180 LPSA33   17       BGLCNA   O        OC2D1   -0.510000       15.9994           0
     36181 LPSA33   17       BGLCNA   CT       CC331   -0.270000       12.0110           0
     36182 LPSA33   17       BGLCNA   HT1      HCA3     0.900000E-01   1.00800           0
     36183 LPSA33   17       BGLCNA   HT2      HCA3     0.900000E-01   1.00800           0
     36184 LPSA33   17       BGLCNA   HT3      HCA3     0.900000E-01   1.00800           0
     36185 LPSA33   17       BGLCNA   C3       CC3161   0.900000E-01   12.0110           0
     36186 LPSA33   17       BGLCNA   H3       HCA1     0.900000E-01   1.00800           0
     36187 LPSA33   17       BGLCNA   O3       OC301   -0.360000       15.9994           0
     36188 LPSA33   17       BGLCNA   C4       CC3161   0.140000       12.0110           0
     36189 LPSA33   17       BGLCNA   H4       HCA1     0.900000E-01   1.00800           0
     36190 LPSA33   17       BGLCNA   O4       OC311   -0.650000       15.9994           0
     36191 LPSA33   17       BGLCNA   HO4      HCP1     0.420000       1.00800           0
     36192 LPSA33   17       BGLCNA   C6       CC321    0.500000E-01   12.0110           0
     36193 LPSA33   17       BGLCNA   H61      HCA2     0.900000E-01   1.00800           0
     36194 LPSA33   17       BGLCNA   H62      HCA2     0.900000E-01   1.00800           0
     36195 LPSA33   17       BGLCNA   O6       OC311   -0.650000       15.9994           0
     36196 LPSA33   17       BGLCNA   HO6      HCP1     0.420000       1.00800           0
     36197 LPSA33   18       AGAL     C1       CC3162   0.290000       12.0110           0
     36198 LPSA33   18       AGAL     H1       HCA1     0.900000E-01   1.00800           0
     36199 LPSA33   18       AGAL     C5       CC3163   0.110000       12.0110           0
     36200 LPSA33   18       AGAL     H5       HCA1     0.900000E-01   1.00800           0
     36201 LPSA33   18       AGAL     O5       OC3C61  -0.400000       15.9994           0
     36202 LPSA33   18       AGAL     C2       CC3161   0.900000E-01   12.0110           0
     36203 LPSA33   18       AGAL     H2       HCA1     0.900000E-01   1.00800           0
     36204 LPSA33   18       AGAL     O2       OC301   -0.360000       15.9994           0
     36205 LPSA33   18       AGAL     C3       CC3161   0.140000       12.0110           0
     36206 LPSA33   18       AGAL     H3       HCA1     0.900000E-01   1.00800           0
     36207 LPSA33   18       AGAL     O3       OC311   -0.650000       15.9994           0
     36208 LPSA33   18       AGAL     HO3      HCP1     0.420000       1.00800           0
     36209 LPSA33   18       AGAL     C4       CC3161   0.140000       12.0110           0
     36210 LPSA33   18       AGAL     H4       HCA1     0.900000E-01   1.00800           0
     36211 LPSA33   18       AGAL     O4       OC311   -0.650000       15.9994           0
     36212 LPSA33   18       AGAL     HO4      HCP1     0.420000       1.00800           0
     36213 LPSA33   18       AGAL     C6       CC321    0.500000E-01   12.0110           0
     36214 LPSA33   18       AGAL     H61      HCA2     0.900000E-01   1.00800           0
     36215 LPSA33   18       AGAL     H62      HCA2     0.900000E-01   1.00800           0
     36216 LPSA33   18       AGAL     O6       OC311   -0.650000       15.9994           0
     36217 LPSA33   18       AGAL     HO6      HCP1     0.420000       1.00800           0
     36218 LPSA33   19       ARHM     C1       CC3162   0.290000       12.0110           0
     36219 LPSA33   19       ARHM     H1       HCA1     0.900000E-01   1.00800           0
     36220 LPSA33   19       ARHM     C5       CC3163   0.110000       12.0110           0
     36221 LPSA33   19       ARHM     H5       HCA1     0.900000E-01   1.00800           0
     36222 LPSA33   19       ARHM     O5       OC3C61  -0.400000       15.9994           0
     36223 LPSA33   19       ARHM     C2       CC3161   0.900000E-01   12.0110           0
     36224 LPSA33   19       ARHM     H2       HCA1     0.900000E-01   1.00800           0
     36225 LPSA33   19       ARHM     O2       OC301   -0.360000       15.9994           0
     36226 LPSA33   19       ARHM     C3       CC3161   0.140000       12.0110           0
     36227 LPSA33   19       ARHM     H3       HCA1     0.900000E-01   1.00800           0
     36228 LPSA33   19       ARHM     O3       OC311   -0.650000       15.9994           0
     36229 LPSA33   19       ARHM     HO3      HCP1     0.420000       1.00800           0
     36230 LPSA33   19       ARHM     C4       CC3161   0.140000       12.0110           0
     36231 LPSA33   19       ARHM     H4       HCA1     0.900000E-01   1.00800           0
     36232 LPSA33   19       ARHM     O4       OC311   -0.650000       15.9994           0
     36233 LPSA33   19       ARHM     HO4      HCP1     0.420000       1.00800           0
     36234 LPSA33   19       ARHM     C6       CC331   -0.270000       12.0110           0
     36235 LPSA33   19       ARHM     H61      HCA3     0.900000E-01   1.00800           0
     36236 LPSA33   19       ARHM     H62      HCA3     0.900000E-01   1.00800           0
     36237 LPSA33   19       ARHM     H63      HCA3     0.900000E-01   1.00800           0
     36238 LPSA33   20       ARHM     C1       CC3162   0.290000       12.0110           0
     36239 LPSA33   20       ARHM     H1       HCA1     0.900000E-01   1.00800           0
     36240 LPSA33   20       ARHM     C5       CC3163   0.110000       12.0110           0
     36241 LPSA33   20       ARHM     H5       HCA1     0.900000E-01   1.00800           0
     36242 LPSA33   20       ARHM     O5       OC3C61  -0.400000       15.9994           0
     36243 LPSA33   20       ARHM     C2       CC3161   0.900000E-01   12.0110           0
     36244 LPSA33   20       ARHM     H2       HCA1     0.900000E-01   1.00800           0
     36245 LPSA33   20       ARHM     O2       OC301   -0.360000       15.9994           0
     36246 LPSA33   20       ARHM     C3       CC3161   0.900000E-01   12.0110           0
     36247 LPSA33   20       ARHM     H3       HCA1     0.900000E-01   1.00800           0
     36248 LPSA33   20       ARHM     O3       OC301   -0.360000       15.9994           0
     36249 LPSA33   20       ARHM     C4       CC3161   0.140000       12.0110           0
     36250 LPSA33   20       ARHM     H4       HCA1     0.900000E-01   1.00800           0
     36251 LPSA33   20       ARHM     O4       OC311   -0.650000       15.9994           0
     36252 LPSA33   20       ARHM     HO4      HCP1     0.420000       1.00800           0
     36253 LPSA33   20       ARHM     C6       CC331   -0.270000       12.0110           0
     36254 LPSA33   20       ARHM     H61      HCA3     0.900000E-01   1.00800           0
     36255 LPSA33   20       ARHM     H62      HCA3     0.900000E-01   1.00800           0
     36256 LPSA33   20       ARHM     H63      HCA3     0.900000E-01   1.00800           0
     36257 LPSA33   21       BMANNA   C1       CC3162   0.290000       12.0110           0
     36258 LPSA33   21       BMANNA   H1       HCA1     0.900000E-01   1.00800           0
     36259 LPSA33   21       BMANNA   C5       CC3163   0.110000       12.0110           0
     36260 LPSA33   21       BMANNA   H5       HCA1     0.900000E-01   1.00800           0
     36261 LPSA33   21       BMANNA   O5       OC3C61  -0.400000       15.9994           0
     36262 LPSA33   21       BMANNA   C2       CC3161   0.700000E-01   12.0110           0
     36263 LPSA33   21       BMANNA   H2       HCA1     0.900000E-01   1.00800           0
     36264 LPSA33   21       BMANNA   N        NC2D1   -0.470000       14.0070           0
     36265 LPSA33   21       BMANNA   HN       HCP1     0.310000       1.00800           0
     36266 LPSA33   21       BMANNA   C        CC2O1    0.510000       12.0110           0
     36267 LPSA33   21       BMANNA   O        OC2D1   -0.510000       15.9994           0
     36268 LPSA33   21       BMANNA   CT       CC331   -0.270000       12.0110           0
     36269 LPSA33   21       BMANNA   HT1      HCA3     0.900000E-01   1.00800           0
     36270 LPSA33   21       BMANNA   HT2      HCA3     0.900000E-01   1.00800           0
     36271 LPSA33   21       BMANNA   HT3      HCA3     0.900000E-01   1.00800           0
     36272 LPSA33   21       BMANNA   C3       CC3161   0.140000       12.0110           0
     36273 LPSA33   21       BMANNA   H3       HCA1     0.900000E-01   1.00800           0
     36274 LPSA33   21       BMANNA   O3       OC311   -0.650000       15.9994           0
     36275 LPSA33   21       BMANNA   HO3      HCP1     0.420000       1.00800           0
     36276 LPSA33   21       BMANNA   C4       CC3161   0.140000       12.0110           0
     36277 LPSA33   21       BMANNA   H4       HCA1     0.900000E-01   1.00800           0
     36278 LPSA33   21       BMANNA   O4       OC311   -0.650000       15.9994           0
     36279 LPSA33   21       BMANNA   HO4      HCP1     0.420000       1.00800           0
     36280 LPSA33   21       BMANNA   C6       CC321    0.500000E-01   12.0110           0
     36281 LPSA33   21       BMANNA   H61      HCA2     0.900000E-01   1.00800           0
     36282 LPSA33   21       BMANNA   H62      HCA2     0.900000E-01   1.00800           0
     36283 LPSA33   21       BMANNA   O6       OC311   -0.650000       15.9994           0
     36284 LPSA33   21       BMANNA   HO6      HCP1     0.420000       1.00800           0
     36285 LPSA33   22       BGLCNA   C1       CC3162   0.290000       12.0110           0
     36286 LPSA33   22       BGLCNA   H1       HCA1     0.900000E-01   1.00800           0
     36287 LPSA33   22       BGLCNA   C5       CC3163   0.110000       12.0110           0
     36288 LPSA33   22       BGLCNA   H5       HCA1     0.900000E-01   1.00800           0
     36289 LPSA33   22       BGLCNA   O5       OC3C61  -0.400000       15.9994           0
     36290 LPSA33   22       BGLCNA   C2       CC3161   0.700000E-01   12.0110           0
     36291 LPSA33   22       BGLCNA   H2       HCA1     0.900000E-01   1.00800           0
     36292 LPSA33   22       BGLCNA   N        NC2D1   -0.470000       14.0070           0
     36293 LPSA33   22       BGLCNA   HN       HCP1     0.310000       1.00800           0
     36294 LPSA33   22       BGLCNA   C        CC2O1    0.510000       12.0110           0
     36295 LPSA33   22       BGLCNA   O        OC2D1   -0.510000       15.9994           0
     36296 LPSA33   22       BGLCNA   CT       CC331   -0.270000       12.0110           0
     36297 LPSA33   22       BGLCNA   HT1      HCA3     0.900000E-01   1.00800           0
     36298 LPSA33   22       BGLCNA   HT2      HCA3     0.900000E-01   1.00800           0
     36299 LPSA33   22       BGLCNA   HT3      HCA3     0.900000E-01   1.00800           0
     36300 LPSA33   22       BGLCNA   C3       CC3161   0.900000E-01   12.0110           0
     36301 LPSA33   22       BGLCNA   H3       HCA1     0.900000E-01   1.00800           0
     36302 LPSA33   22       BGLCNA   O3       OC301   -0.360000       15.9994           0
     36303 LPSA33   22       BGLCNA   C4       CC3161   0.140000       12.0110           0
     36304 LPSA33   22       BGLCNA   H4       HCA1     0.900000E-01   1.00800           0
     36305 LPSA33   22       BGLCNA   O4       OC311   -0.650000       15.9994           0
     36306 LPSA33   22       BGLCNA   HO4      HCP1     0.420000       1.00800           0
     36307 LPSA33   22       BGLCNA   C6       CC321    0.500000E-01   12.0110           0
     36308 LPSA33   22       BGLCNA   H61      HCA2     0.900000E-01   1.00800           0
     36309 LPSA33   22       BGLCNA   H62      HCA2     0.900000E-01   1.00800           0
     36310 LPSA33   22       BGLCNA   O6       OC311   -0.650000       15.9994           0
     36311 LPSA33   22       BGLCNA   HO6      HCP1     0.420000       1.00800           0
     36312 LPSA33   23       AGAL     C1       CC3162   0.290000       12.0110           0
     36313 LPSA33   23       AGAL     H1       HCA1     0.900000E-01   1.00800           0
     36314 LPSA33   23       AGAL     C5       CC3163   0.110000       12.0110           0
     36315 LPSA33   23       AGAL     H5       HCA1     0.900000E-01   1.00800           0
     36316 LPSA33   23       AGAL     O5       OC3C61  -0.400000       15.9994           0
     36317 LPSA33   23       AGAL     C2       CC3161   0.900000E-01   12.0110           0
     36318 LPSA33   23       AGAL     H2       HCA1     0.900000E-01   1.00800           0
     36319 LPSA33   23       AGAL     O2       OC301   -0.360000       15.9994           0
     36320 LPSA33   23       AGAL     C3       CC3161   0.140000       12.0110           0
     36321 LPSA33   23       AGAL     H3       HCA1     0.900000E-01   1.00800           0
     36322 LPSA33   23       AGAL     O3       OC311   -0.650000       15.9994           0
     36323 LPSA33   23       AGAL     HO3      HCP1     0.420000       1.00800           0
     36324 LPSA33   23       AGAL     C4       CC3161   0.140000       12.0110           0
     36325 LPSA33   23       AGAL     H4       HCA1     0.900000E-01   1.00800           0
     36326 LPSA33   23       AGAL     O4       OC311   -0.650000       15.9994           0
     36327 LPSA33   23       AGAL     HO4      HCP1     0.420000       1.00800           0
     36328 LPSA33   23       AGAL     C6       CC321    0.500000E-01   12.0110           0
     36329 LPSA33   23       AGAL     H61      HCA2     0.900000E-01   1.00800           0
     36330 LPSA33   23       AGAL     H62      HCA2     0.900000E-01   1.00800           0
     36331 LPSA33   23       AGAL     O6       OC311   -0.650000       15.9994           0
     36332 LPSA33   23       AGAL     HO6      HCP1     0.420000       1.00800           0
     36333 LPSA33   24       ARHM     C1       CC3162   0.290000       12.0110           0
     36334 LPSA33   24       ARHM     H1       HCA1     0.900000E-01   1.00800           0
     36335 LPSA33   24       ARHM     C5       CC3163   0.110000       12.0110           0
     36336 LPSA33   24       ARHM     H5       HCA1     0.900000E-01   1.00800           0
     36337 LPSA33   24       ARHM     O5       OC3C61  -0.400000       15.9994           0
     36338 LPSA33   24       ARHM     C2       CC3161   0.900000E-01   12.0110           0
     36339 LPSA33   24       ARHM     H2       HCA1     0.900000E-01   1.00800           0
     36340 LPSA33   24       ARHM     O2       OC301   -0.360000       15.9994           0
     36341 LPSA33   24       ARHM     C3       CC3161   0.140000       12.0110           0
     36342 LPSA33   24       ARHM     H3       HCA1     0.900000E-01   1.00800           0
     36343 LPSA33   24       ARHM     O3       OC311   -0.650000       15.9994           0
     36344 LPSA33   24       ARHM     HO3      HCP1     0.420000       1.00800           0
     36345 LPSA33   24       ARHM     C4       CC3161   0.140000       12.0110           0
     36346 LPSA33   24       ARHM     H4       HCA1     0.900000E-01   1.00800           0
     36347 LPSA33   24       ARHM     O4       OC311   -0.650000       15.9994           0
     36348 LPSA33   24       ARHM     HO4      HCP1     0.420000       1.00800           0
     36349 LPSA33   24       ARHM     C6       CC331   -0.270000       12.0110           0
     36350 LPSA33   24       ARHM     H61      HCA3     0.900000E-01   1.00800           0
     36351 LPSA33   24       ARHM     H62      HCA3     0.900000E-01   1.00800           0
     36352 LPSA33   24       ARHM     H63      HCA3     0.900000E-01   1.00800           0
     36353 LPSA33   25       ARHM     C1       CC3162   0.290000       12.0110           0
     36354 LPSA33   25       ARHM     H1       HCA1     0.900000E-01   1.00800           0
     36355 LPSA33   25       ARHM     C5       CC3163   0.110000       12.0110           0
     36356 LPSA33   25       ARHM     H5       HCA1     0.900000E-01   1.00800           0
     36357 LPSA33   25       ARHM     O5       OC3C61  -0.400000       15.9994           0
     36358 LPSA33   25       ARHM     C2       CC3161   0.900000E-01   12.0110           0
     36359 LPSA33   25       ARHM     H2       HCA1     0.900000E-01   1.00800           0
     36360 LPSA33   25       ARHM     O2       OC301   -0.360000       15.9994           0
     36361 LPSA33   25       ARHM     C3       CC3161   0.900000E-01   12.0110           0
     36362 LPSA33   25       ARHM     H3       HCA1     0.900000E-01   1.00800           0
     36363 LPSA33   25       ARHM     O3       OC301   -0.360000       15.9994           0
     36364 LPSA33   25       ARHM     C4       CC3161   0.140000       12.0110           0
     36365 LPSA33   25       ARHM     H4       HCA1     0.900000E-01   1.00800           0
     36366 LPSA33   25       ARHM     O4       OC311   -0.650000       15.9994           0
     36367 LPSA33   25       ARHM     HO4      HCP1     0.420000       1.00800           0
     36368 LPSA33   25       ARHM     C6       CC331   -0.270000       12.0110           0
     36369 LPSA33   25       ARHM     H61      HCA3     0.900000E-01   1.00800           0
     36370 LPSA33   25       ARHM     H62      HCA3     0.900000E-01   1.00800           0
     36371 LPSA33   25       ARHM     H63      HCA3     0.900000E-01   1.00800           0
     36372 LPSA33   26       BMANNA   C1       CC3162   0.290000       12.0110           0
     36373 LPSA33   26       BMANNA   H1       HCA1     0.900000E-01   1.00800           0
     36374 LPSA33   26       BMANNA   C5       CC3163   0.110000       12.0110           0
     36375 LPSA33   26       BMANNA   H5       HCA1     0.900000E-01   1.00800           0
     36376 LPSA33   26       BMANNA   O5       OC3C61  -0.400000       15.9994           0
     36377 LPSA33   26       BMANNA   C2       CC3161   0.700000E-01   12.0110           0
     36378 LPSA33   26       BMANNA   H2       HCA1     0.900000E-01   1.00800           0
     36379 LPSA33   26       BMANNA   N        NC2D1   -0.470000       14.0070           0
     36380 LPSA33   26       BMANNA   HN       HCP1     0.310000       1.00800           0
     36381 LPSA33   26       BMANNA   C        CC2O1    0.510000       12.0110           0
     36382 LPSA33   26       BMANNA   O        OC2D1   -0.510000       15.9994           0
     36383 LPSA33   26       BMANNA   CT       CC331   -0.270000       12.0110           0
     36384 LPSA33   26       BMANNA   HT1      HCA3     0.900000E-01   1.00800           0
     36385 LPSA33   26       BMANNA   HT2      HCA3     0.900000E-01   1.00800           0
     36386 LPSA33   26       BMANNA   HT3      HCA3     0.900000E-01   1.00800           0
     36387 LPSA33   26       BMANNA   C3       CC3161   0.140000       12.0110           0
     36388 LPSA33   26       BMANNA   H3       HCA1     0.900000E-01   1.00800           0
     36389 LPSA33   26       BMANNA   O3       OC311   -0.650000       15.9994           0
     36390 LPSA33   26       BMANNA   HO3      HCP1     0.420000       1.00800           0
     36391 LPSA33   26       BMANNA   C4       CC3161   0.140000       12.0110           0
     36392 LPSA33   26       BMANNA   H4       HCA1     0.900000E-01   1.00800           0
     36393 LPSA33   26       BMANNA   O4       OC311   -0.650000       15.9994           0
     36394 LPSA33   26       BMANNA   HO4      HCP1     0.420000       1.00800           0
     36395 LPSA33   26       BMANNA   C6       CC321    0.500000E-01   12.0110           0
     36396 LPSA33   26       BMANNA   H61      HCA2     0.900000E-01   1.00800           0
     36397 LPSA33   26       BMANNA   H62      HCA2     0.900000E-01   1.00800           0
     36398 LPSA33   26       BMANNA   O6       OC311   -0.650000       15.9994           0
     36399 LPSA33   26       BMANNA   HO6      HCP1     0.420000       1.00800           0
     36400 LPSA33   27       BGLCNA   C1       CC3162   0.290000       12.0110           0
     36401 LPSA33   27       BGLCNA   H1       HCA1     0.900000E-01   1.00800           0
     36402 LPSA33   27       BGLCNA   C5       CC3163   0.110000       12.0110           0
     36403 LPSA33   27       BGLCNA   H5       HCA1     0.900000E-01   1.00800           0
     36404 LPSA33   27       BGLCNA   O5       OC3C61  -0.400000       15.9994           0
     36405 LPSA33   27       BGLCNA   C2       CC3161   0.700000E-01   12.0110           0
     36406 LPSA33   27       BGLCNA   H2       HCA1     0.900000E-01   1.00800           0
     36407 LPSA33   27       BGLCNA   N        NC2D1   -0.470000       14.0070           0
     36408 LPSA33   27       BGLCNA   HN       HCP1     0.310000       1.00800           0
     36409 LPSA33   27       BGLCNA   C        CC2O1    0.510000       12.0110           0
     36410 LPSA33   27       BGLCNA   O        OC2D1   -0.510000       15.9994           0
     36411 LPSA33   27       BGLCNA   CT       CC331   -0.270000       12.0110           0
     36412 LPSA33   27       BGLCNA   HT1      HCA3     0.900000E-01   1.00800           0
     36413 LPSA33   27       BGLCNA   HT2      HCA3     0.900000E-01   1.00800           0
     36414 LPSA33   27       BGLCNA   HT3      HCA3     0.900000E-01   1.00800           0
     36415 LPSA33   27       BGLCNA   C3       CC3161   0.900000E-01   12.0110           0
     36416 LPSA33   27       BGLCNA   H3       HCA1     0.900000E-01   1.00800           0
     36417 LPSA33   27       BGLCNA   O3       OC301   -0.360000       15.9994           0
     36418 LPSA33   27       BGLCNA   C4       CC3161   0.140000       12.0110           0
     36419 LPSA33   27       BGLCNA   H4       HCA1     0.900000E-01   1.00800           0
     36420 LPSA33   27       BGLCNA   O4       OC311   -0.650000       15.9994           0
     36421 LPSA33   27       BGLCNA   HO4      HCP1     0.420000       1.00800           0
     36422 LPSA33   27       BGLCNA   C6       CC321    0.500000E-01   12.0110           0
     36423 LPSA33   27       BGLCNA   H61      HCA2     0.900000E-01   1.00800           0
     36424 LPSA33   27       BGLCNA   H62      HCA2     0.900000E-01   1.00800           0
     36425 LPSA33   27       BGLCNA   O6       OC311   -0.650000       15.9994           0
     36426 LPSA33   27       BGLCNA   HO6      HCP1     0.420000       1.00800           0
     36427 LPSA33   28       AGAL     C1       CC3162   0.290000       12.0110           0
     36428 LPSA33   28       AGAL     H1       HCA1     0.900000E-01   1.00800           0
     36429 LPSA33   28       AGAL     C5       CC3163   0.110000       12.0110           0
     36430 LPSA33   28       AGAL     H5       HCA1     0.900000E-01   1.00800           0
     36431 LPSA33   28       AGAL     O5       OC3C61  -0.400000       15.9994           0
     36432 LPSA33   28       AGAL     C2       CC3161   0.900000E-01   12.0110           0
     36433 LPSA33   28       AGAL     H2       HCA1     0.900000E-01   1.00800           0
     36434 LPSA33   28       AGAL     O2       OC301   -0.360000       15.9994           0
     36435 LPSA33   28       AGAL     C3       CC3161   0.140000       12.0110           0
     36436 LPSA33   28       AGAL     H3       HCA1     0.900000E-01   1.00800           0
     36437 LPSA33   28       AGAL     O3       OC311   -0.650000       15.9994           0
     36438 LPSA33   28       AGAL     HO3      HCP1     0.420000       1.00800           0
     36439 LPSA33   28       AGAL     C4       CC3161   0.140000       12.0110           0
     36440 LPSA33   28       AGAL     H4       HCA1     0.900000E-01   1.00800           0
     36441 LPSA33   28       AGAL     O4       OC311   -0.650000       15.9994           0
     36442 LPSA33   28       AGAL     HO4      HCP1     0.420000       1.00800           0
     36443 LPSA33   28       AGAL     C6       CC321    0.500000E-01   12.0110           0
     36444 LPSA33   28       AGAL     H61      HCA2     0.900000E-01   1.00800           0
     36445 LPSA33   28       AGAL     H62      HCA2     0.900000E-01   1.00800           0
     36446 LPSA33   28       AGAL     O6       OC311   -0.650000       15.9994           0
     36447 LPSA33   28       AGAL     HO6      HCP1     0.420000       1.00800           0
     36448 LPSA33   29       ARHM     C1       CC3162   0.290000       12.0110           0
     36449 LPSA33   29       ARHM     H1       HCA1     0.900000E-01   1.00800           0
     36450 LPSA33   29       ARHM     C5       CC3163   0.110000       12.0110           0
     36451 LPSA33   29       ARHM     H5       HCA1     0.900000E-01   1.00800           0
     36452 LPSA33   29       ARHM     O5       OC3C61  -0.400000       15.9994           0
     36453 LPSA33   29       ARHM     C2       CC3161   0.900000E-01   12.0110           0
     36454 LPSA33   29       ARHM     H2       HCA1     0.900000E-01   1.00800           0
     36455 LPSA33   29       ARHM     O2       OC301   -0.360000       15.9994           0
     36456 LPSA33   29       ARHM     C3       CC3161   0.140000       12.0110           0
     36457 LPSA33   29       ARHM     H3       HCA1     0.900000E-01   1.00800           0
     36458 LPSA33   29       ARHM     O3       OC311   -0.650000       15.9994           0
     36459 LPSA33   29       ARHM     HO3      HCP1     0.420000       1.00800           0
     36460 LPSA33   29       ARHM     C4       CC3161   0.140000       12.0110           0
     36461 LPSA33   29       ARHM     H4       HCA1     0.900000E-01   1.00800           0
     36462 LPSA33   29       ARHM     O4       OC311   -0.650000       15.9994           0
     36463 LPSA33   29       ARHM     HO4      HCP1     0.420000       1.00800           0
     36464 LPSA33   29       ARHM     C6       CC331   -0.270000       12.0110           0
     36465 LPSA33   29       ARHM     H61      HCA3     0.900000E-01   1.00800           0
     36466 LPSA33   29       ARHM     H62      HCA3     0.900000E-01   1.00800           0
     36467 LPSA33   29       ARHM     H63      HCA3     0.900000E-01   1.00800           0
     36468 LPSA33   30       ARHM     C1       CC3162   0.290000       12.0110           0
     36469 LPSA33   30       ARHM     H1       HCA1     0.900000E-01   1.00800           0
     36470 LPSA33   30       ARHM     C5       CC3163   0.110000       12.0110           0
     36471 LPSA33   30       ARHM     H5       HCA1     0.900000E-01   1.00800           0
     36472 LPSA33   30       ARHM     O5       OC3C61  -0.400000       15.9994           0
     36473 LPSA33   30       ARHM     C2       CC3161   0.900000E-01   12.0110           0
     36474 LPSA33   30       ARHM     H2       HCA1     0.900000E-01   1.00800           0
     36475 LPSA33   30       ARHM     O2       OC301   -0.360000       15.9994           0
     36476 LPSA33   30       ARHM     C3       CC3161   0.900000E-01   12.0110           0
     36477 LPSA33   30       ARHM     H3       HCA1     0.900000E-01   1.00800           0
     36478 LPSA33   30       ARHM     O3       OC301   -0.360000       15.9994           0
     36479 LPSA33   30       ARHM     C4       CC3161   0.140000       12.0110           0
     36480 LPSA33   30       ARHM     H4       HCA1     0.900000E-01   1.00800           0
     36481 LPSA33   30       ARHM     O4       OC311   -0.650000       15.9994           0
     36482 LPSA33   30       ARHM     HO4      HCP1     0.420000       1.00800           0
     36483 LPSA33   30       ARHM     C6       CC331   -0.270000       12.0110           0
     36484 LPSA33   30       ARHM     H61      HCA3     0.900000E-01   1.00800           0
     36485 LPSA33   30       ARHM     H62      HCA3     0.900000E-01   1.00800           0
     36486 LPSA33   30       ARHM     H63      HCA3     0.900000E-01   1.00800           0
     36487 LPSA33   31       BMANNA   C1       CC3162   0.290000       12.0110           0
     36488 LPSA33   31       BMANNA   H1       HCA1     0.900000E-01   1.00800           0
     36489 LPSA33   31       BMANNA   C5       CC3163   0.110000       12.0110           0
     36490 LPSA33   31       BMANNA   H5       HCA1     0.900000E-01   1.00800           0
     36491 LPSA33   31       BMANNA   O5       OC3C61  -0.400000       15.9994           0
     36492 LPSA33   31       BMANNA   C2       CC3161   0.700000E-01   12.0110           0
     36493 LPSA33   31       BMANNA   H2       HCA1     0.900000E-01   1.00800           0
     36494 LPSA33   31       BMANNA   N        NC2D1   -0.470000       14.0070           0
     36495 LPSA33   31       BMANNA   HN       HCP1     0.310000       1.00800           0
     36496 LPSA33   31       BMANNA   C        CC2O1    0.510000       12.0110           0
     36497 LPSA33   31       BMANNA   O        OC2D1   -0.510000       15.9994           0
     36498 LPSA33   31       BMANNA   CT       CC331   -0.270000       12.0110           0
     36499 LPSA33   31       BMANNA   HT1      HCA3     0.900000E-01   1.00800           0
     36500 LPSA33   31       BMANNA   HT2      HCA3     0.900000E-01   1.00800           0
     36501 LPSA33   31       BMANNA   HT3      HCA3     0.900000E-01   1.00800           0
     36502 LPSA33   31       BMANNA   C3       CC3161   0.140000       12.0110           0
     36503 LPSA33   31       BMANNA   H3       HCA1     0.900000E-01   1.00800           0
     36504 LPSA33   31       BMANNA   O3       OC311   -0.650000       15.9994           0
     36505 LPSA33   31       BMANNA   HO3      HCP1     0.420000       1.00800           0
     36506 LPSA33   31       BMANNA   C4       CC3161   0.140000       12.0110           0
     36507 LPSA33   31       BMANNA   H4       HCA1     0.900000E-01   1.00800           0
     36508 LPSA33   31       BMANNA   O4       OC311   -0.650000       15.9994           0
     36509 LPSA33   31       BMANNA   HO4      HCP1     0.420000       1.00800           0
     36510 LPSA33   31       BMANNA   C6       CC321    0.500000E-01   12.0110           0
     36511 LPSA33   31       BMANNA   H61      HCA2     0.900000E-01   1.00800           0
     36512 LPSA33   31       BMANNA   H62      HCA2     0.900000E-01   1.00800           0
     36513 LPSA33   31       BMANNA   O6       OC311   -0.650000       15.9994           0
     36514 LPSA33   31       BMANNA   HO6      HCP1     0.420000       1.00800           0
     36515 LPSA33   32       BGLCNA   C1       CC3162   0.290000       12.0110           0
     36516 LPSA33   32       BGLCNA   H1       HCA1     0.900000E-01   1.00800           0
     36517 LPSA33   32       BGLCNA   C5       CC3163   0.110000       12.0110           0
     36518 LPSA33   32       BGLCNA   H5       HCA1     0.900000E-01   1.00800           0
     36519 LPSA33   32       BGLCNA   O5       OC3C61  -0.400000       15.9994           0
     36520 LPSA33   32       BGLCNA   C2       CC3161   0.700000E-01   12.0110           0
     36521 LPSA33   32       BGLCNA   H2       HCA1     0.900000E-01   1.00800           0
     36522 LPSA33   32       BGLCNA   N        NC2D1   -0.470000       14.0070           0
     36523 LPSA33   32       BGLCNA   HN       HCP1     0.310000       1.00800           0
     36524 LPSA33   32       BGLCNA   C        CC2O1    0.510000       12.0110           0
     36525 LPSA33   32       BGLCNA   O        OC2D1   -0.510000       15.9994           0
     36526 LPSA33   32       BGLCNA   CT       CC331   -0.270000       12.0110           0
     36527 LPSA33   32       BGLCNA   HT1      HCA3     0.900000E-01   1.00800           0
     36528 LPSA33   32       BGLCNA   HT2      HCA3     0.900000E-01   1.00800           0
     36529 LPSA33   32       BGLCNA   HT3      HCA3     0.900000E-01   1.00800           0
     36530 LPSA33   32       BGLCNA   C3       CC3161   0.900000E-01   12.0110           0
     36531 LPSA33   32       BGLCNA   H3       HCA1     0.900000E-01   1.00800           0
     36532 LPSA33   32       BGLCNA   O3       OC301   -0.360000       15.9994           0
     36533 LPSA33   32       BGLCNA   C4       CC3161   0.140000       12.0110           0
     36534 LPSA33   32       BGLCNA   H4       HCA1     0.900000E-01   1.00800           0
     36535 LPSA33   32       BGLCNA   O4       OC311   -0.650000       15.9994           0
     36536 LPSA33   32       BGLCNA   HO4      HCP1     0.420000       1.00800           0
     36537 LPSA33   32       BGLCNA   C6       CC321    0.500000E-01   12.0110           0
     36538 LPSA33   32       BGLCNA   H61      HCA2     0.900000E-01   1.00800           0
     36539 LPSA33   32       BGLCNA   H62      HCA2     0.900000E-01   1.00800           0
     36540 LPSA33   32       BGLCNA   O6       OC311   -0.650000       15.9994           0
     36541 LPSA33   32       BGLCNA   HO6      HCP1     0.420000       1.00800           0
     36542 LPSA33   33       AGAL     C1       CC3162   0.290000       12.0110           0
     36543 LPSA33   33       AGAL     H1       HCA1     0.900000E-01   1.00800           0
     36544 LPSA33   33       AGAL     C5       CC3163   0.110000       12.0110           0
     36545 LPSA33   33       AGAL     H5       HCA1     0.900000E-01   1.00800           0
     36546 LPSA33   33       AGAL     O5       OC3C61  -0.400000       15.9994           0
     36547 LPSA33   33       AGAL     C2       CC3161   0.900000E-01   12.0110           0
     36548 LPSA33   33       AGAL     H2       HCA1     0.900000E-01   1.00800           0
     36549 LPSA33   33       AGAL     O2       OC301   -0.360000       15.9994           0
     36550 LPSA33   33       AGAL     C3       CC3161   0.140000       12.0110           0
     36551 LPSA33   33       AGAL     H3       HCA1     0.900000E-01   1.00800           0
     36552 LPSA33   33       AGAL     O3       OC311   -0.650000       15.9994           0
     36553 LPSA33   33       AGAL     HO3      HCP1     0.420000       1.00800           0
     36554 LPSA33   33       AGAL     C4       CC3161   0.140000       12.0110           0
     36555 LPSA33   33       AGAL     H4       HCA1     0.900000E-01   1.00800           0
     36556 LPSA33   33       AGAL     O4       OC311   -0.650000       15.9994           0
     36557 LPSA33   33       AGAL     HO4      HCP1     0.420000       1.00800           0
     36558 LPSA33   33       AGAL     C6       CC321    0.500000E-01   12.0110           0
     36559 LPSA33   33       AGAL     H61      HCA2     0.900000E-01   1.00800           0
     36560 LPSA33   33       AGAL     H62      HCA2     0.900000E-01   1.00800           0
     36561 LPSA33   33       AGAL     O6       OC311   -0.650000       15.9994           0
     36562 LPSA33   33       AGAL     HO6      HCP1     0.420000       1.00800           0
     36563 LPSA33   34       ARHM     C1       CC3162   0.290000       12.0110           0
     36564 LPSA33   34       ARHM     H1       HCA1     0.900000E-01   1.00800           0
     36565 LPSA33   34       ARHM     C5       CC3163   0.110000       12.0110           0
     36566 LPSA33   34       ARHM     H5       HCA1     0.900000E-01   1.00800           0
     36567 LPSA33   34       ARHM     O5       OC3C61  -0.400000       15.9994           0
     36568 LPSA33   34       ARHM     C2       CC3161   0.900000E-01   12.0110           0
     36569 LPSA33   34       ARHM     H2       HCA1     0.900000E-01   1.00800           0
     36570 LPSA33   34       ARHM     O2       OC301   -0.360000       15.9994           0
     36571 LPSA33   34       ARHM     C3       CC3161   0.140000       12.0110           0
     36572 LPSA33   34       ARHM     H3       HCA1     0.900000E-01   1.00800           0
     36573 LPSA33   34       ARHM     O3       OC311   -0.650000       15.9994           0
     36574 LPSA33   34       ARHM     HO3      HCP1     0.420000       1.00800           0
     36575 LPSA33   34       ARHM     C4       CC3161   0.140000       12.0110           0
     36576 LPSA33   34       ARHM     H4       HCA1     0.900000E-01   1.00800           0
     36577 LPSA33   34       ARHM     O4       OC311   -0.650000       15.9994           0
     36578 LPSA33   34       ARHM     HO4      HCP1     0.420000       1.00800           0
     36579 LPSA33   34       ARHM     C6       CC331   -0.270000       12.0110           0
     36580 LPSA33   34       ARHM     H61      HCA3     0.900000E-01   1.00800           0
     36581 LPSA33   34       ARHM     H62      HCA3     0.900000E-01   1.00800           0
     36582 LPSA33   34       ARHM     H63      HCA3     0.900000E-01   1.00800           0
     36583 LPSA33   35       ARHM     C1       CC3162   0.290000       12.0110           0
     36584 LPSA33   35       ARHM     H1       HCA1     0.900000E-01   1.00800           0
     36585 LPSA33   35       ARHM     C5       CC3163   0.110000       12.0110           0
     36586 LPSA33   35       ARHM     H5       HCA1     0.900000E-01   1.00800           0
     36587 LPSA33   35       ARHM     O5       OC3C61  -0.400000       15.9994           0
     36588 LPSA33   35       ARHM     C2       CC3161   0.900000E-01   12.0110           0
     36589 LPSA33   35       ARHM     H2       HCA1     0.900000E-01   1.00800           0
     36590 LPSA33   35       ARHM     O2       OC301   -0.360000       15.9994           0
     36591 LPSA33   35       ARHM     C3       CC3161   0.140000       12.0110           0
     36592 LPSA33   35       ARHM     H3       HCA1     0.900000E-01   1.00800           0
     36593 LPSA33   35       ARHM     O3       OC311   -0.650000       15.9994           0
     36594 LPSA33   35       ARHM     HO3      HCP1     0.420000       1.00800           0
     36595 LPSA33   35       ARHM     C4       CC3161   0.140000       12.0110           0
     36596 LPSA33   35       ARHM     H4       HCA1     0.900000E-01   1.00800           0
     36597 LPSA33   35       ARHM     O4       OC311   -0.650000       15.9994           0
     36598 LPSA33   35       ARHM     HO4      HCP1     0.420000       1.00800           0
     36599 LPSA33   35       ARHM     C6       CC331   -0.270000       12.0110           0
     36600 LPSA33   35       ARHM     H61      HCA3     0.900000E-01   1.00800           0
     36601 LPSA33   35       ARHM     H62      HCA3     0.900000E-01   1.00800           0
     36602 LPSA33   35       ARHM     H63      HCA3     0.900000E-01   1.00800           0
     36603 LPSA33   36       BMANNA   C1       CC3162   0.290000       12.0110           0
     36604 LPSA33   36       BMANNA   H1       HCA1     0.900000E-01   1.00800           0
     36605 LPSA33   36       BMANNA   C5       CC3163   0.110000       12.0110           0
     36606 LPSA33   36       BMANNA   H5       HCA1     0.900000E-01   1.00800           0
     36607 LPSA33   36       BMANNA   O5       OC3C61  -0.400000       15.9994           0
     36608 LPSA33   36       BMANNA   C2       CC3161   0.700000E-01   12.0110           0
     36609 LPSA33   36       BMANNA   H2       HCA1     0.900000E-01   1.00800           0
     36610 LPSA33   36       BMANNA   N        NC2D1   -0.470000       14.0070           0
     36611 LPSA33   36       BMANNA   HN       HCP1     0.310000       1.00800           0
     36612 LPSA33   36       BMANNA   C        CC2O1    0.510000       12.0110           0
     36613 LPSA33   36       BMANNA   O        OC2D1   -0.510000       15.9994           0
     36614 LPSA33   36       BMANNA   CT       CC331   -0.270000       12.0110           0
     36615 LPSA33   36       BMANNA   HT1      HCA3     0.900000E-01   1.00800           0
     36616 LPSA33   36       BMANNA   HT2      HCA3     0.900000E-01   1.00800           0
     36617 LPSA33   36       BMANNA   HT3      HCA3     0.900000E-01   1.00800           0
     36618 LPSA33   36       BMANNA   C3       CC3161   0.140000       12.0110           0
     36619 LPSA33   36       BMANNA   H3       HCA1     0.900000E-01   1.00800           0
     36620 LPSA33   36       BMANNA   O3       OC311   -0.650000       15.9994           0
     36621 LPSA33   36       BMANNA   HO3      HCP1     0.420000       1.00800           0
     36622 LPSA33   36       BMANNA   C4       CC3161   0.140000       12.0110           0
     36623 LPSA33   36       BMANNA   H4       HCA1     0.900000E-01   1.00800           0
     36624 LPSA33   36       BMANNA   O4       OC311   -0.650000       15.9994           0
     36625 LPSA33   36       BMANNA   HO4      HCP1     0.420000       1.00800           0
     36626 LPSA33   36       BMANNA   C6       CC321    0.500000E-01   12.0110           0
     36627 LPSA33   36       BMANNA   H61      HCA2     0.900000E-01   1.00800           0
     36628 LPSA33   36       BMANNA   H62      HCA2     0.900000E-01   1.00800           0
     36629 LPSA33   36       BMANNA   O6       OC311   -0.650000       15.9994           0
     36630 LPSA33   36       BMANNA   HO6      HCP1     0.420000       1.00800           0
     36631 LPSA34   1        ECLIPA   HB6S     HCA2     0.900000E-01   1.00800           0
     36632 LPSA34   1        ECLIPA   OB6      OC301   -0.360000       15.9994           0
     36633 LPSA34   1        ECLIPA   CB6      CC321     0.00000       12.0110           0
     36634 LPSA34   1        ECLIPA   HB6R     HCA2     0.900000E-01   1.00800           0
     36635 LPSA34   1        ECLIPA   CB5      CC3163   0.110000       12.0110           0
     36636 LPSA34   1        ECLIPA   OB5      OC3C61  -0.400000       15.9994           0
     36637 LPSA34   1        ECLIPA   HB5      HCA1     0.900000E-01   1.00800           0
     36638 LPSA34   1        ECLIPA   CB1      CC3162   0.290000       12.0110           0
     36639 LPSA34   1        ECLIPA   HB1      HCA1     0.900000E-01   1.00800           0
     36640 LPSA34   1        ECLIPA   OA6      OC301   -0.360000       15.9994           0
     36641 LPSA34   1        ECLIPA   CA6      CC321     0.00000       12.0110           0
     36642 LPSA34   1        ECLIPA   HA6R     HCA2     0.900000E-01   1.00800           0
     36643 LPSA34   1        ECLIPA   HA6S     HCA2     0.900000E-01   1.00800           0
     36644 LPSA34   1        ECLIPA   CB4      CC3161  -0.900000E-01   12.0110           0
     36645 LPSA34   1        ECLIPA   HB4      HCA1     0.900000E-01   1.00800           0
     36646 LPSA34   1        ECLIPA   OB4      OC30P   -0.400000       15.9994           0
     36647 LPSA34   1        ECLIPA   PB       PC        1.10000       30.9740           0
     36648 LPSA34   1        ECLIPA   OPB4     OC2DP   -0.900000       15.9994           0
     36649 LPSA34   1        ECLIPA   OPB3     OC2DP   -0.900000       15.9994           0
     36650 LPSA34   1        ECLIPA   OPB2     OC2DP   -0.900000       15.9994           0
     36651 LPSA34   1        ECLIPA   CB3      CC3161   0.170000       12.0110           0
     36652 LPSA34   1        ECLIPA   OB3      OC301   -0.490000       15.9994           0
     36653 LPSA34   1        ECLIPA   HB3      HCA1     0.900000E-01   1.00800           0
     36654 LPSA34   1        ECLIPA   C71      CL       0.900000       12.0110           0
     36655 LPSA34   1        ECLIPA   O71      OBL     -0.630000       15.9994           0
     36656 LPSA34   1        ECLIPA   C72      CTL2    -0.220000       12.0110           0
     36657 LPSA34   1        ECLIPA   H72R     HAL2     0.900000E-01   1.00800           0
     36658 LPSA34   1        ECLIPA   H72S     HAL2     0.900000E-01   1.00800           0
     36659 LPSA34   1        ECLIPA   CB2      CC3161   0.700000E-01   12.0110           0
     36660 LPSA34   1        ECLIPA   HB2      HCA1     0.900000E-01   1.00800           0
     36661 LPSA34   1        ECLIPA   NB2      NC2D1   -0.470000       14.0070           0
     36662 LPSA34   1        ECLIPA   HNB2     HCP1     0.310000       1.00800           0
     36663 LPSA34   1        ECLIPA   CA4      CC3161   0.140000       12.0110           0
     36664 LPSA34   1        ECLIPA   HA4      HCA1     0.900000E-01   1.00800           0
     36665 LPSA34   1        ECLIPA   OA4      OC311   -0.650000       15.9994           0
     36666 LPSA34   1        ECLIPA   HOA4     HCP1     0.420000       1.00800           0
     36667 LPSA34   1        ECLIPA   CA5      CC3163   0.110000       12.0110           0
     36668 LPSA34   1        ECLIPA   HA5      HCA1     0.900000E-01   1.00800           0
     36669 LPSA34   1        ECLIPA   OA5      OC3C61  -0.400000       15.9994           0
     36670 LPSA34   1        ECLIPA   CA1      CC3162   0.110000       12.0110           0
     36671 LPSA34   1        ECLIPA   HA1      HCA1     0.900000E-01   1.00800           0
     36672 LPSA34   1        ECLIPA   OA1      OC30P   -0.400000       15.9994           0
     36673 LPSA34   1        ECLIPA   OPA2     OC2DP   -0.900000       15.9994           0
     36674 LPSA34   1        ECLIPA   OPA3     OC2DP   -0.900000       15.9994           0
     36675 LPSA34   1        ECLIPA   OPA4     OC2DP   -0.900000       15.9994           0
     36676 LPSA34   1        ECLIPA   PA       PC        1.10000       30.9740           0
     36677 LPSA34   1        ECLIPA   CA3      CC3161   0.170000       12.0110           0
     36678 LPSA34   1        ECLIPA   HA3      HCA1     0.900000E-01   1.00800           0
     36679 LPSA34   1        ECLIPA   OA3      OC301   -0.490000       15.9994           0
     36680 LPSA34   1        ECLIPA   C31      CL       0.900000       12.0110           0
     36681 LPSA34   1        ECLIPA   O31      OBL     -0.630000       15.9994           0
     36682 LPSA34   1        ECLIPA   C32      CTL2    -0.220000       12.0110           0
     36683 LPSA34   1        ECLIPA   H32R     HAL2     0.900000E-01   1.00800           0
     36684 LPSA34   1        ECLIPA   H32S     HAL2     0.900000E-01   1.00800           0
     36685 LPSA34   1        ECLIPA   CA2      CC3161   0.700000E-01   12.0110           0
     36686 LPSA34   1        ECLIPA   HA2      HCA1     0.900000E-01   1.00800           0
     36687 LPSA34   1        ECLIPA   NA2      NC2D1   -0.470000       14.0070           0
     36688 LPSA34   1        ECLIPA   HNA2     HCP1     0.310000       1.00800           0
     36689 LPSA34   1        ECLIPA   C73      CTL1     0.170000       12.0110           0
     36690 LPSA34   1        ECLIPA   H73R     HAL1     0.900000E-01   1.00800           0
     36691 LPSA34   1        ECLIPA   O73      OSL     -0.490000       15.9994           0
     36692 LPSA34   1        ECLIPA   C81      CL       0.900000       12.0110           0
     36693 LPSA34   1        ECLIPA   O81      OBL     -0.630000       15.9994           0
     36694 LPSA34   1        ECLIPA   C82      CTL2    -0.220000       12.0110           0
     36695 LPSA34   1        ECLIPA   H82R     HAL2     0.900000E-01   1.00800           0
     36696 LPSA34   1        ECLIPA   H82S     HAL2     0.900000E-01   1.00800           0
     36697 LPSA34   1        ECLIPA   C83      CTL2    -0.180000       12.0110           0
     36698 LPSA34   1        ECLIPA   H83R     HAL2     0.900000E-01   1.00800           0
     36699 LPSA34   1        ECLIPA   H83S     HAL2     0.900000E-01   1.00800           0
     36700 LPSA34   1        ECLIPA   C84      CTL2    -0.180000       12.0110           0
     36701 LPSA34   1        ECLIPA   H84R     HAL2     0.900000E-01   1.00800           0
     36702 LPSA34   1        ECLIPA   H84S     HAL2     0.900000E-01   1.00800           0
     36703 LPSA34   1        ECLIPA   C85      CTL2    -0.180000       12.0110           0
     36704 LPSA34   1        ECLIPA   H85R     HAL2     0.900000E-01   1.00800           0
     36705 LPSA34   1        ECLIPA   H85S     HAL2     0.900000E-01   1.00800           0
     36706 LPSA34   1        ECLIPA   C86      CTL2    -0.180000       12.0110           0
     36707 LPSA34   1        ECLIPA   H86R     HAL2     0.900000E-01   1.00800           0
     36708 LPSA34   1        ECLIPA   H86S     HAL2     0.900000E-01   1.00800           0
     36709 LPSA34   1        ECLIPA   C87      CTL2    -0.180000       12.0110           0
     36710 LPSA34   1        ECLIPA   H87R     HAL2     0.900000E-01   1.00800           0
     36711 LPSA34   1        ECLIPA   H87S     HAL2     0.900000E-01   1.00800           0
     36712 LPSA34   1        ECLIPA   C88      CTL2    -0.180000       12.0110           0
     36713 LPSA34   1        ECLIPA   H88R     HAL2     0.900000E-01   1.00800           0
     36714 LPSA34   1        ECLIPA   H88S     HAL2     0.900000E-01   1.00800           0
     36715 LPSA34   1        ECLIPA   C89      CTL2    -0.180000       12.0110           0
     36716 LPSA34   1        ECLIPA   H89R     HAL2     0.900000E-01   1.00800           0
     36717 LPSA34   1        ECLIPA   H89S     HAL2     0.900000E-01   1.00800           0
     36718 LPSA34   1        ECLIPA   C810     CTL2    -0.180000       12.0110           0
     36719 LPSA34   1        ECLIPA   H810R    HAL2     0.900000E-01   1.00800           0
     36720 LPSA34   1        ECLIPA   H810S    HAL2     0.900000E-01   1.00800           0
     36721 LPSA34   1        ECLIPA   C811     CTL2    -0.180000       12.0110           0
     36722 LPSA34   1        ECLIPA   H811R    HAL2     0.900000E-01   1.00800           0
     36723 LPSA34   1        ECLIPA   H811S    HAL2     0.900000E-01   1.00800           0
     36724 LPSA34   1        ECLIPA   C812     CTL2    -0.180000       12.0110           0
     36725 LPSA34   1        ECLIPA   H812R    HAL2     0.900000E-01   1.00800           0
     36726 LPSA34   1        ECLIPA   H812S    HAL2     0.900000E-01   1.00800           0
     36727 LPSA34   1        ECLIPA   C813     CTL2    -0.180000       12.0110           0
     36728 LPSA34   1        ECLIPA   H813R    HAL2     0.900000E-01   1.00800           0
     36729 LPSA34   1        ECLIPA   H813S    HAL2     0.900000E-01   1.00800           0
     36730 LPSA34   1        ECLIPA   C814     CTL3    -0.270000       12.0110           0
     36731 LPSA34   1        ECLIPA   H814R    HAL3     0.900000E-01   1.00800           0
     36732 LPSA34   1        ECLIPA   H814S    HAL3     0.900000E-01   1.00800           0
     36733 LPSA34   1        ECLIPA   H814T    HAL3     0.900000E-01   1.00800           0
     36734 LPSA34   1        ECLIPA   C74      CTL2    -0.180000       12.0110           0
     36735 LPSA34   1        ECLIPA   H74R     HAL2     0.900000E-01   1.00800           0
     36736 LPSA34   1        ECLIPA   H74S     HAL2     0.900000E-01   1.00800           0
     36737 LPSA34   1        ECLIPA   C75      CTL2    -0.180000       12.0110           0
     36738 LPSA34   1        ECLIPA   H75R     HAL2     0.900000E-01   1.00800           0
     36739 LPSA34   1        ECLIPA   H75S     HAL2     0.900000E-01   1.00800           0
     36740 LPSA34   1        ECLIPA   C76      CTL2    -0.180000       12.0110           0
     36741 LPSA34   1        ECLIPA   H76R     HAL2     0.900000E-01   1.00800           0
     36742 LPSA34   1        ECLIPA   H76S     HAL2     0.900000E-01   1.00800           0
     36743 LPSA34   1        ECLIPA   C77      CTL2    -0.180000       12.0110           0
     36744 LPSA34   1        ECLIPA   H77R     HAL2     0.900000E-01   1.00800           0
     36745 LPSA34   1        ECLIPA   H77S     HAL2     0.900000E-01   1.00800           0
     36746 LPSA34   1        ECLIPA   C78      CTL2    -0.180000       12.0110           0
     36747 LPSA34   1        ECLIPA   H78R     HAL2     0.900000E-01   1.00800           0
     36748 LPSA34   1        ECLIPA   H78S     HAL2     0.900000E-01   1.00800           0
     36749 LPSA34   1        ECLIPA   C79      CTL2    -0.180000       12.0110           0
     36750 LPSA34   1        ECLIPA   H79R     HAL2     0.900000E-01   1.00800           0
     36751 LPSA34   1        ECLIPA   H79S     HAL2     0.900000E-01   1.00800           0
     36752 LPSA34   1        ECLIPA   C710     CTL2    -0.180000       12.0110           0
     36753 LPSA34   1        ECLIPA   H710R    HAL2     0.900000E-01   1.00800           0
     36754 LPSA34   1        ECLIPA   H710S    HAL2     0.900000E-01   1.00800           0
     36755 LPSA34   1        ECLIPA   C711     CTL2    -0.180000       12.0110           0
     36756 LPSA34   1        ECLIPA   H711R    HAL2     0.900000E-01   1.00800           0
     36757 LPSA34   1        ECLIPA   H711S    HAL2     0.900000E-01   1.00800           0
     36758 LPSA34   1        ECLIPA   C712     CTL2    -0.180000       12.0110           0
     36759 LPSA34   1        ECLIPA   H712R    HAL2     0.900000E-01   1.00800           0
     36760 LPSA34   1        ECLIPA   H712S    HAL2     0.900000E-01   1.00800           0
     36761 LPSA34   1        ECLIPA   C713     CTL2    -0.180000       12.0110           0
     36762 LPSA34   1        ECLIPA   H713R    HAL2     0.900000E-01   1.00800           0
     36763 LPSA34   1        ECLIPA   H713S    HAL2     0.900000E-01   1.00800           0
     36764 LPSA34   1        ECLIPA   C714     CTL3    -0.270000       12.0110           0
     36765 LPSA34   1        ECLIPA   H714R    HAL3     0.900000E-01   1.00800           0
     36766 LPSA34   1        ECLIPA   H714S    HAL3     0.900000E-01   1.00800           0
     36767 LPSA34   1        ECLIPA   H714T    HAL3     0.900000E-01   1.00800           0
     36768 LPSA34   1        ECLIPA   C51      CC2O1    0.550000       12.0110           0
     36769 LPSA34   1        ECLIPA   O51      OC2D1   -0.550000       15.9994           0
     36770 LPSA34   1        ECLIPA   C52      CTL2    -0.180000       12.0110           0
     36771 LPSA34   1        ECLIPA   H52R     HAL2     0.900000E-01   1.00800           0
     36772 LPSA34   1        ECLIPA   H52S     HAL2     0.900000E-01   1.00800           0
     36773 LPSA34   1        ECLIPA   C53      CTL1     0.170000       12.0110           0
     36774 LPSA34   1        ECLIPA   H53R     HAL1     0.900000E-01   1.00800           0
     36775 LPSA34   1        ECLIPA   O53      OSL     -0.490000       15.9994           0
     36776 LPSA34   1        ECLIPA   C61      CL       0.900000       12.0110           0
     36777 LPSA34   1        ECLIPA   O61      OBL     -0.630000       15.9994           0
     36778 LPSA34   1        ECLIPA   C62      CTL2    -0.220000       12.0110           0
     36779 LPSA34   1        ECLIPA   H62R     HAL2     0.900000E-01   1.00800           0
     36780 LPSA34   1        ECLIPA   H62S     HAL2     0.900000E-01   1.00800           0
     36781 LPSA34   1        ECLIPA   C63      CTL2    -0.180000       12.0110           0
     36782 LPSA34   1        ECLIPA   H63R     HAL2     0.900000E-01   1.00800           0
     36783 LPSA34   1        ECLIPA   H63S     HAL2     0.900000E-01   1.00800           0
     36784 LPSA34   1        ECLIPA   C64      CTL2    -0.180000       12.0110           0
     36785 LPSA34   1        ECLIPA   H64R     HAL2     0.900000E-01   1.00800           0
     36786 LPSA34   1        ECLIPA   H64S     HAL2     0.900000E-01   1.00800           0
     36787 LPSA34   1        ECLIPA   C65      CTL2    -0.180000       12.0110           0
     36788 LPSA34   1        ECLIPA   H65R     HAL2     0.900000E-01   1.00800           0
     36789 LPSA34   1        ECLIPA   H65S     HAL2     0.900000E-01   1.00800           0
     36790 LPSA34   1        ECLIPA   C66      CTL2    -0.180000       12.0110           0
     36791 LPSA34   1        ECLIPA   H66R     HAL2     0.900000E-01   1.00800           0
     36792 LPSA34   1        ECLIPA   H66S     HAL2     0.900000E-01   1.00800           0
     36793 LPSA34   1        ECLIPA   C67      CTL2    -0.180000       12.0110           0
     36794 LPSA34   1        ECLIPA   H67R     HAL2     0.900000E-01   1.00800           0
     36795 LPSA34   1        ECLIPA   H67S     HAL2     0.900000E-01   1.00800           0
     36796 LPSA34   1        ECLIPA   C68      CTL2    -0.180000       12.0110           0
     36797 LPSA34   1        ECLIPA   H68R     HAL2     0.900000E-01   1.00800           0
     36798 LPSA34   1        ECLIPA   H68S     HAL2     0.900000E-01   1.00800           0
     36799 LPSA34   1        ECLIPA   C69      CTL2    -0.180000       12.0110           0
     36800 LPSA34   1        ECLIPA   H69R     HAL2     0.900000E-01   1.00800           0
     36801 LPSA34   1        ECLIPA   H69S     HAL2     0.900000E-01   1.00800           0
     36802 LPSA34   1        ECLIPA   C610     CTL2    -0.180000       12.0110           0
     36803 LPSA34   1        ECLIPA   H610R    HAL2     0.900000E-01   1.00800           0
     36804 LPSA34   1        ECLIPA   H610S    HAL2     0.900000E-01   1.00800           0
     36805 LPSA34   1        ECLIPA   C611     CTL2    -0.180000       12.0110           0
     36806 LPSA34   1        ECLIPA   H611R    HAL2     0.900000E-01   1.00800           0
     36807 LPSA34   1        ECLIPA   H611S    HAL2     0.900000E-01   1.00800           0
     36808 LPSA34   1        ECLIPA   C612     CTL3    -0.270000       12.0110           0
     36809 LPSA34   1        ECLIPA   H612R    HAL3     0.900000E-01   1.00800           0
     36810 LPSA34   1        ECLIPA   H612S    HAL3     0.900000E-01   1.00800           0
     36811 LPSA34   1        ECLIPA   H612T    HAL3     0.900000E-01   1.00800           0
     36812 LPSA34   1        ECLIPA   C54      CTL2    -0.180000       12.0110           0
     36813 LPSA34   1        ECLIPA   H54R     HAL2     0.900000E-01   1.00800           0
     36814 LPSA34   1        ECLIPA   H54S     HAL2     0.900000E-01   1.00800           0
     36815 LPSA34   1        ECLIPA   C55      CTL2    -0.180000       12.0110           0
     36816 LPSA34   1        ECLIPA   H55R     HAL2     0.900000E-01   1.00800           0
     36817 LPSA34   1        ECLIPA   H55S     HAL2     0.900000E-01   1.00800           0
     36818 LPSA34   1        ECLIPA   C56      CTL2    -0.180000       12.0110           0
     36819 LPSA34   1        ECLIPA   H56R     HAL2     0.900000E-01   1.00800           0
     36820 LPSA34   1        ECLIPA   H56S     HAL2     0.900000E-01   1.00800           0
     36821 LPSA34   1        ECLIPA   C57      CTL2    -0.180000       12.0110           0
     36822 LPSA34   1        ECLIPA   H57R     HAL2     0.900000E-01   1.00800           0
     36823 LPSA34   1        ECLIPA   H57S     HAL2     0.900000E-01   1.00800           0
     36824 LPSA34   1        ECLIPA   C58      CTL2    -0.180000       12.0110           0
     36825 LPSA34   1        ECLIPA   H58R     HAL2     0.900000E-01   1.00800           0
     36826 LPSA34   1        ECLIPA   H58S     HAL2     0.900000E-01   1.00800           0
     36827 LPSA34   1        ECLIPA   C59      CTL2    -0.180000       12.0110           0
     36828 LPSA34   1        ECLIPA   H59R     HAL2     0.900000E-01   1.00800           0
     36829 LPSA34   1        ECLIPA   H59S     HAL2     0.900000E-01   1.00800           0
     36830 LPSA34   1        ECLIPA   C510     CTL2    -0.180000       12.0110           0
     36831 LPSA34   1        ECLIPA   H510R    HAL2     0.900000E-01   1.00800           0
     36832 LPSA34   1        ECLIPA   H510S    HAL2     0.900000E-01   1.00800           0
     36833 LPSA34   1        ECLIPA   C511     CTL2    -0.180000       12.0110           0
     36834 LPSA34   1        ECLIPA   H511R    HAL2     0.900000E-01   1.00800           0
     36835 LPSA34   1        ECLIPA   H511S    HAL2     0.900000E-01   1.00800           0
     36836 LPSA34   1        ECLIPA   C512     CTL2    -0.180000       12.0110           0
     36837 LPSA34   1        ECLIPA   H512R    HAL2     0.900000E-01   1.00800           0
     36838 LPSA34   1        ECLIPA   H512S    HAL2     0.900000E-01   1.00800           0
     36839 LPSA34   1        ECLIPA   C513     CTL2    -0.180000       12.0110           0
     36840 LPSA34   1        ECLIPA   H513R    HAL2     0.900000E-01   1.00800           0
     36841 LPSA34   1        ECLIPA   H513S    HAL2     0.900000E-01   1.00800           0
     36842 LPSA34   1        ECLIPA   C514     CTL3    -0.270000       12.0110           0
     36843 LPSA34   1        ECLIPA   H514R    HAL3     0.900000E-01   1.00800           0
     36844 LPSA34   1        ECLIPA   H514S    HAL3     0.900000E-01   1.00800           0
     36845 LPSA34   1        ECLIPA   H514T    HAL3     0.900000E-01   1.00800           0
     36846 LPSA34   1        ECLIPA   C33      CTL1     0.140000       12.0110           0
     36847 LPSA34   1        ECLIPA   H33R     HAL1     0.900000E-01   1.00800           0
     36848 LPSA34   1        ECLIPA   O33      OH1     -0.660000       15.9994           0
     36849 LPSA34   1        ECLIPA   HO33     H        0.430000       1.00800           0
     36850 LPSA34   1        ECLIPA   C34      CTL2    -0.180000       12.0110           0
     36851 LPSA34   1        ECLIPA   H34R     HAL2     0.900000E-01   1.00800           0
     36852 LPSA34   1        ECLIPA   H34S     HAL2     0.900000E-01   1.00800           0
     36853 LPSA34   1        ECLIPA   C35      CTL2    -0.180000       12.0110           0
     36854 LPSA34   1        ECLIPA   H35R     HAL2     0.900000E-01   1.00800           0
     36855 LPSA34   1        ECLIPA   H35S     HAL2     0.900000E-01   1.00800           0
     36856 LPSA34   1        ECLIPA   C36      CTL2    -0.180000       12.0110           0
     36857 LPSA34   1        ECLIPA   H36R     HAL2     0.900000E-01   1.00800           0
     36858 LPSA34   1        ECLIPA   H36S     HAL2     0.900000E-01   1.00800           0
     36859 LPSA34   1        ECLIPA   C37      CTL2    -0.180000       12.0110           0
     36860 LPSA34   1        ECLIPA   H37R     HAL2     0.900000E-01   1.00800           0
     36861 LPSA34   1        ECLIPA   H37S     HAL2     0.900000E-01   1.00800           0
     36862 LPSA34   1        ECLIPA   C38      CTL2    -0.180000       12.0110           0
     36863 LPSA34   1        ECLIPA   H38R     HAL2     0.900000E-01   1.00800           0
     36864 LPSA34   1        ECLIPA   H38S     HAL2     0.900000E-01   1.00800           0
     36865 LPSA34   1        ECLIPA   C39      CTL2    -0.180000       12.0110           0
     36866 LPSA34   1        ECLIPA   H39R     HAL2     0.900000E-01   1.00800           0
     36867 LPSA34   1        ECLIPA   H39S     HAL2     0.900000E-01   1.00800           0
     36868 LPSA34   1        ECLIPA   C310     CTL2    -0.180000       12.0110           0
     36869 LPSA34   1        ECLIPA   H310R    HAL2     0.900000E-01   1.00800           0
     36870 LPSA34   1        ECLIPA   H310S    HAL2     0.900000E-01   1.00800           0
     36871 LPSA34   1        ECLIPA   C311     CTL2    -0.180000       12.0110           0
     36872 LPSA34   1        ECLIPA   H311R    HAL2     0.900000E-01   1.00800           0
     36873 LPSA34   1        ECLIPA   H311S    HAL2     0.900000E-01   1.00800           0
     36874 LPSA34   1        ECLIPA   C312     CTL2    -0.180000       12.0110           0
     36875 LPSA34   1        ECLIPA   H312R    HAL2     0.900000E-01   1.00800           0
     36876 LPSA34   1        ECLIPA   H312S    HAL2     0.900000E-01   1.00800           0
     36877 LPSA34   1        ECLIPA   C313     CTL2    -0.180000       12.0110           0
     36878 LPSA34   1        ECLIPA   H313R    HAL2     0.900000E-01   1.00800           0
     36879 LPSA34   1        ECLIPA   H313S    HAL2     0.900000E-01   1.00800           0
     36880 LPSA34   1        ECLIPA   C314     CTL3    -0.270000       12.0110           0
     36881 LPSA34   1        ECLIPA   H314R    HAL3     0.900000E-01   1.00800           0
     36882 LPSA34   1        ECLIPA   H314S    HAL3     0.900000E-01   1.00800           0
     36883 LPSA34   1        ECLIPA   H314T    HAL3     0.900000E-01   1.00800           0
     36884 LPSA34   1        ECLIPA   C11      CC2O1    0.550000       12.0110           0
     36885 LPSA34   1        ECLIPA   O11      OC2D1   -0.550000       15.9994           0
     36886 LPSA34   1        ECLIPA   C12      CTL2    -0.180000       12.0110           0
     36887 LPSA34   1        ECLIPA   H12R     HAL2     0.900000E-01   1.00800           0
     36888 LPSA34   1        ECLIPA   H12S     HAL2     0.900000E-01   1.00800           0
     36889 LPSA34   1        ECLIPA   C13      CTL1     0.140000       12.0110           0
     36890 LPSA34   1        ECLIPA   H13R     HAL1     0.900000E-01   1.00800           0
     36891 LPSA34   1        ECLIPA   O13      OH1     -0.660000       15.9994           0
     36892 LPSA34   1        ECLIPA   HO13     H        0.430000       1.00800           0
     36893 LPSA34   1        ECLIPA   C14      CTL2    -0.180000       12.0110           0
     36894 LPSA34   1        ECLIPA   H14R     HAL2     0.900000E-01   1.00800           0
     36895 LPSA34   1        ECLIPA   H14S     HAL2     0.900000E-01   1.00800           0
     36896 LPSA34   1        ECLIPA   C15      CTL2    -0.180000       12.0110           0
     36897 LPSA34   1        ECLIPA   H15R     HAL2     0.900000E-01   1.00800           0
     36898 LPSA34   1        ECLIPA   H15S     HAL2     0.900000E-01   1.00800           0
     36899 LPSA34   1        ECLIPA   C16      CTL2    -0.180000       12.0110           0
     36900 LPSA34   1        ECLIPA   H16R     HAL2     0.900000E-01   1.00800           0
     36901 LPSA34   1        ECLIPA   H16S     HAL2     0.900000E-01   1.00800           0
     36902 LPSA34   1        ECLIPA   C17      CTL2    -0.180000       12.0110           0
     36903 LPSA34   1        ECLIPA   H17R     HAL2     0.900000E-01   1.00800           0
     36904 LPSA34   1        ECLIPA   H17S     HAL2     0.900000E-01   1.00800           0
     36905 LPSA34   1        ECLIPA   C18      CTL2    -0.180000       12.0110           0
     36906 LPSA34   1        ECLIPA   H18R     HAL2     0.900000E-01   1.00800           0
     36907 LPSA34   1        ECLIPA   H18S     HAL2     0.900000E-01   1.00800           0
     36908 LPSA34   1        ECLIPA   C19      CTL2    -0.180000       12.0110           0
     36909 LPSA34   1        ECLIPA   H19R     HAL2     0.900000E-01   1.00800           0
     36910 LPSA34   1        ECLIPA   H19S     HAL2     0.900000E-01   1.00800           0
     36911 LPSA34   1        ECLIPA   C110     CTL2    -0.180000       12.0110           0
     36912 LPSA34   1        ECLIPA   H110R    HAL2     0.900000E-01   1.00800           0
     36913 LPSA34   1        ECLIPA   H110S    HAL2     0.900000E-01   1.00800           0
     36914 LPSA34   1        ECLIPA   C111     CTL2    -0.180000       12.0110           0
     36915 LPSA34   1        ECLIPA   H111R    HAL2     0.900000E-01   1.00800           0
     36916 LPSA34   1        ECLIPA   H111S    HAL2     0.900000E-01   1.00800           0
     36917 LPSA34   1        ECLIPA   C112     CTL2    -0.180000       12.0110           0
     36918 LPSA34   1        ECLIPA   H112R    HAL2     0.900000E-01   1.00800           0
     36919 LPSA34   1        ECLIPA   H112S    HAL2     0.900000E-01   1.00800           0
     36920 LPSA34   1        ECLIPA   C113     CTL2    -0.180000       12.0110           0
     36921 LPSA34   1        ECLIPA   H113R    HAL2     0.900000E-01   1.00800           0
     36922 LPSA34   1        ECLIPA   H113S    HAL2     0.900000E-01   1.00800           0
     36923 LPSA34   1        ECLIPA   C114     CTL3    -0.270000       12.0110           0
     36924 LPSA34   1        ECLIPA   H114R    HAL3     0.900000E-01   1.00800           0
     36925 LPSA34   1        ECLIPA   H114S    HAL3     0.900000E-01   1.00800           0
     36926 LPSA34   1        ECLIPA   H114T    HAL3     0.900000E-01   1.00800           0
     36927 LPSA34   2        AKDO     C1       CC2O2    0.300000       12.0110           0
     36928 LPSA34   2        AKDO     O11      OC2D2   -0.600000       15.9994           0
     36929 LPSA34   2        AKDO     O12      OC2D2   -0.600000       15.9994           0
     36930 LPSA34   2        AKDO     C2       CC3062   0.280000       12.0110           0
     36931 LPSA34   2        AKDO     C6       CC3163   0.110000       12.0110           0
     36932 LPSA34   2        AKDO     H6       HCA1     0.900000E-01   1.00800           0
     36933 LPSA34   2        AKDO     O6       OC3C61  -0.400000       15.9994           0
     36934 LPSA34   2        AKDO     C3       CC3261  -0.180000       12.0110           0
     36935 LPSA34   2        AKDO     H31      HCA2     0.900000E-01   1.00800           0
     36936 LPSA34   2        AKDO     H32      HCA2     0.900000E-01   1.00800           0
     36937 LPSA34   2        AKDO     C4       CC3161   0.900000E-01   12.0110           0
     36938 LPSA34   2        AKDO     H4       HCA1     0.900000E-01   1.00800           0
     36939 LPSA34   2        AKDO     O4       OC301   -0.360000       15.9994           0
     36940 LPSA34   2        AKDO     C5       CC3161   0.900000E-01   12.0110           0
     36941 LPSA34   2        AKDO     H5       HCA1     0.900000E-01   1.00800           0
     36942 LPSA34   2        AKDO     O5       OC301   -0.360000       15.9994           0
     36943 LPSA34   2        AKDO     C7       CC312    0.140000       12.0110           0
     36944 LPSA34   2        AKDO     H7       HCA1     0.900000E-01   1.00800           0
     36945 LPSA34   2        AKDO     O7       OC311   -0.650000       15.9994           0
     36946 LPSA34   2        AKDO     HO7      HCP1     0.420000       1.00800           0
     36947 LPSA34   2        AKDO     C8       CC322    0.500000E-01   12.0110           0
     36948 LPSA34   2        AKDO     H81      HCA2     0.900000E-01   1.00800           0
     36949 LPSA34   2        AKDO     H82      HCA2     0.900000E-01   1.00800           0
     36950 LPSA34   2        AKDO     O8       OC311   -0.650000       15.9994           0
     36951 LPSA34   2        AKDO     HO8      HCP1     0.420000       1.00800           0
     36952 LPSA34   3        AKDO     C1       CC2O2    0.300000       12.0110           0
     36953 LPSA34   3        AKDO     O11      OC2D2   -0.600000       15.9994           0
     36954 LPSA34   3        AKDO     O12      OC2D2   -0.600000       15.9994           0
     36955 LPSA34   3        AKDO     C2       CC3062   0.280000       12.0110           0
     36956 LPSA34   3        AKDO     C6       CC3163   0.110000       12.0110           0
     36957 LPSA34   3        AKDO     H6       HCA1     0.900000E-01   1.00800           0
     36958 LPSA34   3        AKDO     O6       OC3C61  -0.400000       15.9994           0
     36959 LPSA34   3        AKDO     C3       CC3261  -0.180000       12.0110           0
     36960 LPSA34   3        AKDO     H31      HCA2     0.900000E-01   1.00800           0
     36961 LPSA34   3        AKDO     H32      HCA2     0.900000E-01   1.00800           0
     36962 LPSA34   3        AKDO     C4       CC3161   0.140000       12.0110           0
     36963 LPSA34   3        AKDO     H4       HCA1     0.900000E-01   1.00800           0
     36964 LPSA34   3        AKDO     O4       OC311   -0.650000       15.9994           0
     36965 LPSA34   3        AKDO     HO4      HCP1     0.420000       1.00800           0
     36966 LPSA34   3        AKDO     C5       CC3161   0.140000       12.0110           0
     36967 LPSA34   3        AKDO     H5       HCA1     0.900000E-01   1.00800           0
     36968 LPSA34   3        AKDO     O5       OC311   -0.650000       15.9994           0
     36969 LPSA34   3        AKDO     HO5      HCP1     0.420000       1.00800           0
     36970 LPSA34   3        AKDO     C7       CC312    0.140000       12.0110           0
     36971 LPSA34   3        AKDO     H7       HCA1     0.900000E-01   1.00800           0
     36972 LPSA34   3        AKDO     O7       OC311   -0.650000       15.9994           0
     36973 LPSA34   3        AKDO     HO7      HCP1     0.420000       1.00800           0
     36974 LPSA34   3        AKDO     C8       CC322    0.500000E-01   12.0110           0
     36975 LPSA34   3        AKDO     H81      HCA2     0.900000E-01   1.00800           0
     36976 LPSA34   3        AKDO     H82      HCA2     0.900000E-01   1.00800           0
     36977 LPSA34   3        AKDO     O8       OC311   -0.650000       15.9994           0
     36978 LPSA34   3        AKDO     HO8      HCP1     0.420000       1.00800           0
     36979 LPSA34   4        AHEP     C1       CC3162   0.290000       12.0110           0
     36980 LPSA34   4        AHEP     H1       HCA1     0.900000E-01   1.00800           0
     36981 LPSA34   4        AHEP     C5       CC3163   0.110000       12.0110           0
     36982 LPSA34   4        AHEP     H5       HCA1     0.900000E-01   1.00800           0
     36983 LPSA34   4        AHEP     O5       OC3C61  -0.400000       15.9994           0
     36984 LPSA34   4        AHEP     C2       CC3161   0.140000       12.0110           0
     36985 LPSA34   4        AHEP     H2       HCA1     0.900000E-01   1.00800           0
     36986 LPSA34   4        AHEP     O2       OC311   -0.650000       15.9994           0
     36987 LPSA34   4        AHEP     HO2      HCP1     0.420000       1.00800           0
     36988 LPSA34   4        AHEP     C3       CC3161   0.900000E-01   12.0110           0
     36989 LPSA34   4        AHEP     H3       HCA1     0.900000E-01   1.00800           0
     36990 LPSA34   4        AHEP     O3       OC301   -0.360000       15.9994           0
     36991 LPSA34   4        AHEP     C4       CC3161  -0.900000E-01   12.0110           0
     36992 LPSA34   4        AHEP     H4       HCA1     0.900000E-01   1.00800           0
     36993 LPSA34   4        AHEP     O4       OC30P   -0.400000       15.9994           0
     36994 LPSA34   4        AHEP     P4       PC        1.10000       30.9740           0
     36995 LPSA34   4        AHEP     OP42     OC2DP   -0.900000       15.9994           0
     36996 LPSA34   4        AHEP     OP43     OC2DP   -0.900000       15.9994           0
     36997 LPSA34   4        AHEP     OP44     OC2DP   -0.900000       15.9994           0
     36998 LPSA34   4        AHEP     C6       CC312    0.140000       12.0110           0
     36999 LPSA34   4        AHEP     H6       HCA1     0.900000E-01   1.00800           0
     37000 LPSA34   4        AHEP     O6       OC311   -0.650000       15.9994           0
     37001 LPSA34   4        AHEP     HO6      HCP1     0.420000       1.00800           0
     37002 LPSA34   4        AHEP     C7       CC322    0.500000E-01   12.0110           0
     37003 LPSA34   4        AHEP     H71      HCA2     0.900000E-01   1.00800           0
     37004 LPSA34   4        AHEP     H72      HCA2     0.900000E-01   1.00800           0
     37005 LPSA34   4        AHEP     O7       OC311   -0.650000       15.9994           0
     37006 LPSA34   4        AHEP     HO7      HCP1     0.420000       1.00800           0
     37007 LPSA34   5        AHEP     C1       CC3162   0.290000       12.0110           0
     37008 LPSA34   5        AHEP     H1       HCA1     0.900000E-01   1.00800           0
     37009 LPSA34   5        AHEP     C5       CC3163   0.110000       12.0110           0
     37010 LPSA34   5        AHEP     H5       HCA1     0.900000E-01   1.00800           0
     37011 LPSA34   5        AHEP     O5       OC3C61  -0.400000       15.9994           0
     37012 LPSA34   5        AHEP     C2       CC3161   0.140000       12.0110           0
     37013 LPSA34   5        AHEP     H2       HCA1     0.900000E-01   1.00800           0
     37014 LPSA34   5        AHEP     O2       OC311   -0.650000       15.9994           0
     37015 LPSA34   5        AHEP     HO2      HCP1     0.420000       1.00800           0
     37016 LPSA34   5        AHEP     C3       CC3161   0.900000E-01   12.0110           0
     37017 LPSA34   5        AHEP     H3       HCA1     0.900000E-01   1.00800           0
     37018 LPSA34   5        AHEP     O3       OC301   -0.360000       15.9994           0
     37019 LPSA34   5        AHEP     C4       CC3161  -0.900000E-01   12.0110           0
     37020 LPSA34   5        AHEP     H4       HCA1     0.900000E-01   1.00800           0
     37021 LPSA34   5        AHEP     O4       OC30P   -0.400000       15.9994           0
     37022 LPSA34   5        AHEP     P4       PC        1.10000       30.9740           0
     37023 LPSA34   5        AHEP     OP42     OC2DP   -0.900000       15.9994           0
     37024 LPSA34   5        AHEP     OP43     OC2DP   -0.900000       15.9994           0
     37025 LPSA34   5        AHEP     OP44     OC2DP   -0.900000       15.9994           0
     37026 LPSA34   5        AHEP     C6       CC312    0.140000       12.0110           0
     37027 LPSA34   5        AHEP     H6       HCA1     0.900000E-01   1.00800           0
     37028 LPSA34   5        AHEP     O6       OC311   -0.650000       15.9994           0
     37029 LPSA34   5        AHEP     HO6      HCP1     0.420000       1.00800           0
     37030 LPSA34   5        AHEP     C7       CC322     0.00000       12.0110           0
     37031 LPSA34   5        AHEP     H71      HCA2     0.900000E-01   1.00800           0
     37032 LPSA34   5        AHEP     H72      HCA2     0.900000E-01   1.00800           0
     37033 LPSA34   5        AHEP     O7       OC301   -0.360000       15.9994           0
     37034 LPSA34   6        AHEP     C1       CC3162   0.290000       12.0110           0
     37035 LPSA34   6        AHEP     H1       HCA1     0.900000E-01   1.00800           0
     37036 LPSA34   6        AHEP     C5       CC3163   0.110000       12.0110           0
     37037 LPSA34   6        AHEP     H5       HCA1     0.900000E-01   1.00800           0
     37038 LPSA34   6        AHEP     O5       OC3C61  -0.400000       15.9994           0
     37039 LPSA34   6        AHEP     C2       CC3161   0.140000       12.0110           0
     37040 LPSA34   6        AHEP     H2       HCA1     0.900000E-01   1.00800           0
     37041 LPSA34   6        AHEP     O2       OC311   -0.650000       15.9994           0
     37042 LPSA34   6        AHEP     HO2      HCP1     0.420000       1.00800           0
     37043 LPSA34   6        AHEP     C3       CC3161   0.140000       12.0110           0
     37044 LPSA34   6        AHEP     H3       HCA1     0.900000E-01   1.00800           0
     37045 LPSA34   6        AHEP     O3       OC311   -0.650000       15.9994           0
     37046 LPSA34   6        AHEP     HO3      HCP1     0.420000       1.00800           0
     37047 LPSA34   6        AHEP     C4       CC3161   0.140000       12.0110           0
     37048 LPSA34   6        AHEP     H4       HCA1     0.900000E-01   1.00800           0
     37049 LPSA34   6        AHEP     O4       OC311   -0.650000       15.9994           0
     37050 LPSA34   6        AHEP     HO4      HCP1     0.420000       1.00800           0
     37051 LPSA34   6        AHEP     C6       CC312    0.140000       12.0110           0
     37052 LPSA34   6        AHEP     H6       HCA1     0.900000E-01   1.00800           0
     37053 LPSA34   6        AHEP     O6       OC311   -0.650000       15.9994           0
     37054 LPSA34   6        AHEP     HO6      HCP1     0.420000       1.00800           0
     37055 LPSA34   6        AHEP     C7       CC322    0.500000E-01   12.0110           0
     37056 LPSA34   6        AHEP     H71      HCA2     0.900000E-01   1.00800           0
     37057 LPSA34   6        AHEP     H72      HCA2     0.900000E-01   1.00800           0
     37058 LPSA34   6        AHEP     O7       OC311   -0.650000       15.9994           0
     37059 LPSA34   6        AHEP     HO7      HCP1     0.420000       1.00800           0
     37060 LPSA34   7        AGLC     C1       CC3162   0.290000       12.0110           0
     37061 LPSA34   7        AGLC     H1       HCA1     0.900000E-01   1.00800           0
     37062 LPSA34   7        AGLC     C5       CC3163   0.110000       12.0110           0
     37063 LPSA34   7        AGLC     H5       HCA1     0.900000E-01   1.00800           0
     37064 LPSA34   7        AGLC     O5       OC3C61  -0.400000       15.9994           0
     37065 LPSA34   7        AGLC     C2       CC3161   0.140000       12.0110           0
     37066 LPSA34   7        AGLC     H2       HCA1     0.900000E-01   1.00800           0
     37067 LPSA34   7        AGLC     O2       OC311   -0.650000       15.9994           0
     37068 LPSA34   7        AGLC     HO2      HCP1     0.420000       1.00800           0
     37069 LPSA34   7        AGLC     C3       CC3161   0.900000E-01   12.0110           0
     37070 LPSA34   7        AGLC     H3       HCA1     0.900000E-01   1.00800           0
     37071 LPSA34   7        AGLC     O3       OC301   -0.360000       15.9994           0
     37072 LPSA34   7        AGLC     C4       CC3161   0.140000       12.0110           0
     37073 LPSA34   7        AGLC     H4       HCA1     0.900000E-01   1.00800           0
     37074 LPSA34   7        AGLC     O4       OC311   -0.650000       15.9994           0
     37075 LPSA34   7        AGLC     HO4      HCP1     0.420000       1.00800           0
     37076 LPSA34   7        AGLC     C6       CC321    0.500000E-01   12.0110           0
     37077 LPSA34   7        AGLC     H61      HCA2     0.900000E-01   1.00800           0
     37078 LPSA34   7        AGLC     H62      HCA2     0.900000E-01   1.00800           0
     37079 LPSA34   7        AGLC     O6       OC311   -0.650000       15.9994           0
     37080 LPSA34   7        AGLC     HO6      HCP1     0.420000       1.00800           0
     37081 LPSA34   8        AGLC     C1       CC3162   0.290000       12.0110           0
     37082 LPSA34   8        AGLC     H1       HCA1     0.900000E-01   1.00800           0
     37083 LPSA34   8        AGLC     C5       CC3163   0.110000       12.0110           0
     37084 LPSA34   8        AGLC     H5       HCA1     0.900000E-01   1.00800           0
     37085 LPSA34   8        AGLC     O5       OC3C61  -0.400000       15.9994           0
     37086 LPSA34   8        AGLC     C2       CC3161   0.900000E-01   12.0110           0
     37087 LPSA34   8        AGLC     H2       HCA1     0.900000E-01   1.00800           0
     37088 LPSA34   8        AGLC     O2       OC301   -0.360000       15.9994           0
     37089 LPSA34   8        AGLC     C3       CC3161   0.900000E-01   12.0110           0
     37090 LPSA34   8        AGLC     H3       HCA1     0.900000E-01   1.00800           0
     37091 LPSA34   8        AGLC     O3       OC301   -0.360000       15.9994           0
     37092 LPSA34   8        AGLC     C4       CC3161   0.140000       12.0110           0
     37093 LPSA34   8        AGLC     H4       HCA1     0.900000E-01   1.00800           0
     37094 LPSA34   8        AGLC     O4       OC311   -0.650000       15.9994           0
     37095 LPSA34   8        AGLC     HO4      HCP1     0.420000       1.00800           0
     37096 LPSA34   8        AGLC     C6       CC321    0.500000E-01   12.0110           0
     37097 LPSA34   8        AGLC     H61      HCA2     0.900000E-01   1.00800           0
     37098 LPSA34   8        AGLC     H62      HCA2     0.900000E-01   1.00800           0
     37099 LPSA34   8        AGLC     O6       OC311   -0.650000       15.9994           0
     37100 LPSA34   8        AGLC     HO6      HCP1     0.420000       1.00800           0
     37101 LPSA34   9        AGAL     C1       CC3162   0.290000       12.0110           0
     37102 LPSA34   9        AGAL     H1       HCA1     0.900000E-01   1.00800           0
     37103 LPSA34   9        AGAL     C5       CC3163   0.110000       12.0110           0
     37104 LPSA34   9        AGAL     H5       HCA1     0.900000E-01   1.00800           0
     37105 LPSA34   9        AGAL     O5       OC3C61  -0.400000       15.9994           0
     37106 LPSA34   9        AGAL     C2       CC3161   0.900000E-01   12.0110           0
     37107 LPSA34   9        AGAL     H2       HCA1     0.900000E-01   1.00800           0
     37108 LPSA34   9        AGAL     O2       OC301   -0.360000       15.9994           0
     37109 LPSA34   9        AGAL     C3       CC3161   0.140000       12.0110           0
     37110 LPSA34   9        AGAL     H3       HCA1     0.900000E-01   1.00800           0
     37111 LPSA34   9        AGAL     O3       OC311   -0.650000       15.9994           0
     37112 LPSA34   9        AGAL     HO3      HCP1     0.420000       1.00800           0
     37113 LPSA34   9        AGAL     C4       CC3161   0.140000       12.0110           0
     37114 LPSA34   9        AGAL     H4       HCA1     0.900000E-01   1.00800           0
     37115 LPSA34   9        AGAL     O4       OC311   -0.650000       15.9994           0
     37116 LPSA34   9        AGAL     HO4      HCP1     0.420000       1.00800           0
     37117 LPSA34   9        AGAL     C6       CC321    0.500000E-01   12.0110           0
     37118 LPSA34   9        AGAL     H61      HCA2     0.900000E-01   1.00800           0
     37119 LPSA34   9        AGAL     H62      HCA2     0.900000E-01   1.00800           0
     37120 LPSA34   9        AGAL     O6       OC311   -0.650000       15.9994           0
     37121 LPSA34   9        AGAL     HO6      HCP1     0.420000       1.00800           0
     37122 LPSA34   10       AGAL     C1       CC3162   0.290000       12.0110           0
     37123 LPSA34   10       AGAL     H1       HCA1     0.900000E-01   1.00800           0
     37124 LPSA34   10       AGAL     C5       CC3163   0.110000       12.0110           0
     37125 LPSA34   10       AGAL     H5       HCA1     0.900000E-01   1.00800           0
     37126 LPSA34   10       AGAL     O5       OC3C61  -0.400000       15.9994           0
     37127 LPSA34   10       AGAL     C2       CC3161   0.140000       12.0110           0
     37128 LPSA34   10       AGAL     H2       HCA1     0.900000E-01   1.00800           0
     37129 LPSA34   10       AGAL     O2       OC311   -0.650000       15.9994           0
     37130 LPSA34   10       AGAL     HO2      HCP1     0.420000       1.00800           0
     37131 LPSA34   10       AGAL     C3       CC3161   0.140000       12.0110           0
     37132 LPSA34   10       AGAL     H3       HCA1     0.900000E-01   1.00800           0
     37133 LPSA34   10       AGAL     O3       OC311   -0.650000       15.9994           0
     37134 LPSA34   10       AGAL     HO3      HCP1     0.420000       1.00800           0
     37135 LPSA34   10       AGAL     C4       CC3161   0.140000       12.0110           0
     37136 LPSA34   10       AGAL     H4       HCA1     0.900000E-01   1.00800           0
     37137 LPSA34   10       AGAL     O4       OC311   -0.650000       15.9994           0
     37138 LPSA34   10       AGAL     HO4      HCP1     0.420000       1.00800           0
     37139 LPSA34   10       AGAL     C6       CC321    0.500000E-01   12.0110           0
     37140 LPSA34   10       AGAL     H61      HCA2     0.900000E-01   1.00800           0
     37141 LPSA34   10       AGAL     H62      HCA2     0.900000E-01   1.00800           0
     37142 LPSA34   10       AGAL     O6       OC311   -0.650000       15.9994           0
     37143 LPSA34   10       AGAL     HO6      HCP1     0.420000       1.00800           0
     37144 LPSA34   11       BGLC     C1       CC3162   0.290000       12.0110           0
     37145 LPSA34   11       BGLC     H1       HCA1     0.900000E-01   1.00800           0
     37146 LPSA34   11       BGLC     C5       CC3163   0.110000       12.0110           0
     37147 LPSA34   11       BGLC     H5       HCA1     0.900000E-01   1.00800           0
     37148 LPSA34   11       BGLC     O5       OC3C61  -0.400000       15.9994           0
     37149 LPSA34   11       BGLC     C2       CC3161   0.140000       12.0110           0
     37150 LPSA34   11       BGLC     H2       HCA1     0.900000E-01   1.00800           0
     37151 LPSA34   11       BGLC     O2       OC311   -0.650000       15.9994           0
     37152 LPSA34   11       BGLC     HO2      HCP1     0.420000       1.00800           0
     37153 LPSA34   11       BGLC     C3       CC3161   0.900000E-01   12.0110           0
     37154 LPSA34   11       BGLC     H3       HCA1     0.900000E-01   1.00800           0
     37155 LPSA34   11       BGLC     O3       OC301   -0.360000       15.9994           0
     37156 LPSA34   11       BGLC     C4       CC3161   0.140000       12.0110           0
     37157 LPSA34   11       BGLC     H4       HCA1     0.900000E-01   1.00800           0
     37158 LPSA34   11       BGLC     O4       OC311   -0.650000       15.9994           0
     37159 LPSA34   11       BGLC     HO4      HCP1     0.420000       1.00800           0
     37160 LPSA34   11       BGLC     C6       CC321    0.500000E-01   12.0110           0
     37161 LPSA34   11       BGLC     H61      HCA2     0.900000E-01   1.00800           0
     37162 LPSA34   11       BGLC     H62      HCA2     0.900000E-01   1.00800           0
     37163 LPSA34   11       BGLC     O6       OC311   -0.650000       15.9994           0
     37164 LPSA34   11       BGLC     HO6      HCP1     0.420000       1.00800           0
     37165 LPSA34   12       BGLCNA   C1       CC3162   0.290000       12.0110           0
     37166 LPSA34   12       BGLCNA   H1       HCA1     0.900000E-01   1.00800           0
     37167 LPSA34   12       BGLCNA   C5       CC3163   0.110000       12.0110           0
     37168 LPSA34   12       BGLCNA   H5       HCA1     0.900000E-01   1.00800           0
     37169 LPSA34   12       BGLCNA   O5       OC3C61  -0.400000       15.9994           0
     37170 LPSA34   12       BGLCNA   C2       CC3161   0.700000E-01   12.0110           0
     37171 LPSA34   12       BGLCNA   H2       HCA1     0.900000E-01   1.00800           0
     37172 LPSA34   12       BGLCNA   N        NC2D1   -0.470000       14.0070           0
     37173 LPSA34   12       BGLCNA   HN       HCP1     0.310000       1.00800           0
     37174 LPSA34   12       BGLCNA   C        CC2O1    0.510000       12.0110           0
     37175 LPSA34   12       BGLCNA   O        OC2D1   -0.510000       15.9994           0
     37176 LPSA34   12       BGLCNA   CT       CC331   -0.270000       12.0110           0
     37177 LPSA34   12       BGLCNA   HT1      HCA3     0.900000E-01   1.00800           0
     37178 LPSA34   12       BGLCNA   HT2      HCA3     0.900000E-01   1.00800           0
     37179 LPSA34   12       BGLCNA   HT3      HCA3     0.900000E-01   1.00800           0
     37180 LPSA34   12       BGLCNA   C3       CC3161   0.900000E-01   12.0110           0
     37181 LPSA34   12       BGLCNA   H3       HCA1     0.900000E-01   1.00800           0
     37182 LPSA34   12       BGLCNA   O3       OC301   -0.360000       15.9994           0
     37183 LPSA34   12       BGLCNA   C4       CC3161   0.140000       12.0110           0
     37184 LPSA34   12       BGLCNA   H4       HCA1     0.900000E-01   1.00800           0
     37185 LPSA34   12       BGLCNA   O4       OC311   -0.650000       15.9994           0
     37186 LPSA34   12       BGLCNA   HO4      HCP1     0.420000       1.00800           0
     37187 LPSA34   12       BGLCNA   C6       CC321    0.500000E-01   12.0110           0
     37188 LPSA34   12       BGLCNA   H61      HCA2     0.900000E-01   1.00800           0
     37189 LPSA34   12       BGLCNA   H62      HCA2     0.900000E-01   1.00800           0
     37190 LPSA34   12       BGLCNA   O6       OC311   -0.650000       15.9994           0
     37191 LPSA34   12       BGLCNA   HO6      HCP1     0.420000       1.00800           0
     37192 LPSA34   13       AGAL     C1       CC3162   0.290000       12.0110           0
     37193 LPSA34   13       AGAL     H1       HCA1     0.900000E-01   1.00800           0
     37194 LPSA34   13       AGAL     C5       CC3163   0.110000       12.0110           0
     37195 LPSA34   13       AGAL     H5       HCA1     0.900000E-01   1.00800           0
     37196 LPSA34   13       AGAL     O5       OC3C61  -0.400000       15.9994           0
     37197 LPSA34   13       AGAL     C2       CC3161   0.900000E-01   12.0110           0
     37198 LPSA34   13       AGAL     H2       HCA1     0.900000E-01   1.00800           0
     37199 LPSA34   13       AGAL     O2       OC301   -0.360000       15.9994           0
     37200 LPSA34   13       AGAL     C3       CC3161   0.140000       12.0110           0
     37201 LPSA34   13       AGAL     H3       HCA1     0.900000E-01   1.00800           0
     37202 LPSA34   13       AGAL     O3       OC311   -0.650000       15.9994           0
     37203 LPSA34   13       AGAL     HO3      HCP1     0.420000       1.00800           0
     37204 LPSA34   13       AGAL     C4       CC3161   0.140000       12.0110           0
     37205 LPSA34   13       AGAL     H4       HCA1     0.900000E-01   1.00800           0
     37206 LPSA34   13       AGAL     O4       OC311   -0.650000       15.9994           0
     37207 LPSA34   13       AGAL     HO4      HCP1     0.420000       1.00800           0
     37208 LPSA34   13       AGAL     C6       CC321    0.500000E-01   12.0110           0
     37209 LPSA34   13       AGAL     H61      HCA2     0.900000E-01   1.00800           0
     37210 LPSA34   13       AGAL     H62      HCA2     0.900000E-01   1.00800           0
     37211 LPSA34   13       AGAL     O6       OC311   -0.650000       15.9994           0
     37212 LPSA34   13       AGAL     HO6      HCP1     0.420000       1.00800           0
     37213 LPSA34   14       ARHM     C1       CC3162   0.290000       12.0110           0
     37214 LPSA34   14       ARHM     H1       HCA1     0.900000E-01   1.00800           0
     37215 LPSA34   14       ARHM     C5       CC3163   0.110000       12.0110           0
     37216 LPSA34   14       ARHM     H5       HCA1     0.900000E-01   1.00800           0
     37217 LPSA34   14       ARHM     O5       OC3C61  -0.400000       15.9994           0
     37218 LPSA34   14       ARHM     C2       CC3161   0.900000E-01   12.0110           0
     37219 LPSA34   14       ARHM     H2       HCA1     0.900000E-01   1.00800           0
     37220 LPSA34   14       ARHM     O2       OC301   -0.360000       15.9994           0
     37221 LPSA34   14       ARHM     C3       CC3161   0.140000       12.0110           0
     37222 LPSA34   14       ARHM     H3       HCA1     0.900000E-01   1.00800           0
     37223 LPSA34   14       ARHM     O3       OC311   -0.650000       15.9994           0
     37224 LPSA34   14       ARHM     HO3      HCP1     0.420000       1.00800           0
     37225 LPSA34   14       ARHM     C4       CC3161   0.140000       12.0110           0
     37226 LPSA34   14       ARHM     H4       HCA1     0.900000E-01   1.00800           0
     37227 LPSA34   14       ARHM     O4       OC311   -0.650000       15.9994           0
     37228 LPSA34   14       ARHM     HO4      HCP1     0.420000       1.00800           0
     37229 LPSA34   14       ARHM     C6       CC331   -0.270000       12.0110           0
     37230 LPSA34   14       ARHM     H61      HCA3     0.900000E-01   1.00800           0
     37231 LPSA34   14       ARHM     H62      HCA3     0.900000E-01   1.00800           0
     37232 LPSA34   14       ARHM     H63      HCA3     0.900000E-01   1.00800           0
     37233 LPSA34   15       ARHM     C1       CC3162   0.290000       12.0110           0
     37234 LPSA34   15       ARHM     H1       HCA1     0.900000E-01   1.00800           0
     37235 LPSA34   15       ARHM     C5       CC3163   0.110000       12.0110           0
     37236 LPSA34   15       ARHM     H5       HCA1     0.900000E-01   1.00800           0
     37237 LPSA34   15       ARHM     O5       OC3C61  -0.400000       15.9994           0
     37238 LPSA34   15       ARHM     C2       CC3161   0.900000E-01   12.0110           0
     37239 LPSA34   15       ARHM     H2       HCA1     0.900000E-01   1.00800           0
     37240 LPSA34   15       ARHM     O2       OC301   -0.360000       15.9994           0
     37241 LPSA34   15       ARHM     C3       CC3161   0.900000E-01   12.0110           0
     37242 LPSA34   15       ARHM     H3       HCA1     0.900000E-01   1.00800           0
     37243 LPSA34   15       ARHM     O3       OC301   -0.360000       15.9994           0
     37244 LPSA34   15       ARHM     C4       CC3161   0.140000       12.0110           0
     37245 LPSA34   15       ARHM     H4       HCA1     0.900000E-01   1.00800           0
     37246 LPSA34   15       ARHM     O4       OC311   -0.650000       15.9994           0
     37247 LPSA34   15       ARHM     HO4      HCP1     0.420000       1.00800           0
     37248 LPSA34   15       ARHM     C6       CC331   -0.270000       12.0110           0
     37249 LPSA34   15       ARHM     H61      HCA3     0.900000E-01   1.00800           0
     37250 LPSA34   15       ARHM     H62      HCA3     0.900000E-01   1.00800           0
     37251 LPSA34   15       ARHM     H63      HCA3     0.900000E-01   1.00800           0
     37252 LPSA34   16       BMANNA   C1       CC3162   0.290000       12.0110           0
     37253 LPSA34   16       BMANNA   H1       HCA1     0.900000E-01   1.00800           0
     37254 LPSA34   16       BMANNA   C5       CC3163   0.110000       12.0110           0
     37255 LPSA34   16       BMANNA   H5       HCA1     0.900000E-01   1.00800           0
     37256 LPSA34   16       BMANNA   O5       OC3C61  -0.400000       15.9994           0
     37257 LPSA34   16       BMANNA   C2       CC3161   0.700000E-01   12.0110           0
     37258 LPSA34   16       BMANNA   H2       HCA1     0.900000E-01   1.00800           0
     37259 LPSA34   16       BMANNA   N        NC2D1   -0.470000       14.0070           0
     37260 LPSA34   16       BMANNA   HN       HCP1     0.310000       1.00800           0
     37261 LPSA34   16       BMANNA   C        CC2O1    0.510000       12.0110           0
     37262 LPSA34   16       BMANNA   O        OC2D1   -0.510000       15.9994           0
     37263 LPSA34   16       BMANNA   CT       CC331   -0.270000       12.0110           0
     37264 LPSA34   16       BMANNA   HT1      HCA3     0.900000E-01   1.00800           0
     37265 LPSA34   16       BMANNA   HT2      HCA3     0.900000E-01   1.00800           0
     37266 LPSA34   16       BMANNA   HT3      HCA3     0.900000E-01   1.00800           0
     37267 LPSA34   16       BMANNA   C3       CC3161   0.140000       12.0110           0
     37268 LPSA34   16       BMANNA   H3       HCA1     0.900000E-01   1.00800           0
     37269 LPSA34   16       BMANNA   O3       OC311   -0.650000       15.9994           0
     37270 LPSA34   16       BMANNA   HO3      HCP1     0.420000       1.00800           0
     37271 LPSA34   16       BMANNA   C4       CC3161   0.140000       12.0110           0
     37272 LPSA34   16       BMANNA   H4       HCA1     0.900000E-01   1.00800           0
     37273 LPSA34   16       BMANNA   O4       OC311   -0.650000       15.9994           0
     37274 LPSA34   16       BMANNA   HO4      HCP1     0.420000       1.00800           0
     37275 LPSA34   16       BMANNA   C6       CC321    0.500000E-01   12.0110           0
     37276 LPSA34   16       BMANNA   H61      HCA2     0.900000E-01   1.00800           0
     37277 LPSA34   16       BMANNA   H62      HCA2     0.900000E-01   1.00800           0
     37278 LPSA34   16       BMANNA   O6       OC311   -0.650000       15.9994           0
     37279 LPSA34   16       BMANNA   HO6      HCP1     0.420000       1.00800           0
     37280 LPSA34   17       BGLCNA   C1       CC3162   0.290000       12.0110           0
     37281 LPSA34   17       BGLCNA   H1       HCA1     0.900000E-01   1.00800           0
     37282 LPSA34   17       BGLCNA   C5       CC3163   0.110000       12.0110           0
     37283 LPSA34   17       BGLCNA   H5       HCA1     0.900000E-01   1.00800           0
     37284 LPSA34   17       BGLCNA   O5       OC3C61  -0.400000       15.9994           0
     37285 LPSA34   17       BGLCNA   C2       CC3161   0.700000E-01   12.0110           0
     37286 LPSA34   17       BGLCNA   H2       HCA1     0.900000E-01   1.00800           0
     37287 LPSA34   17       BGLCNA   N        NC2D1   -0.470000       14.0070           0
     37288 LPSA34   17       BGLCNA   HN       HCP1     0.310000       1.00800           0
     37289 LPSA34   17       BGLCNA   C        CC2O1    0.510000       12.0110           0
     37290 LPSA34   17       BGLCNA   O        OC2D1   -0.510000       15.9994           0
     37291 LPSA34   17       BGLCNA   CT       CC331   -0.270000       12.0110           0
     37292 LPSA34   17       BGLCNA   HT1      HCA3     0.900000E-01   1.00800           0
     37293 LPSA34   17       BGLCNA   HT2      HCA3     0.900000E-01   1.00800           0
     37294 LPSA34   17       BGLCNA   HT3      HCA3     0.900000E-01   1.00800           0
     37295 LPSA34   17       BGLCNA   C3       CC3161   0.900000E-01   12.0110           0
     37296 LPSA34   17       BGLCNA   H3       HCA1     0.900000E-01   1.00800           0
     37297 LPSA34   17       BGLCNA   O3       OC301   -0.360000       15.9994           0
     37298 LPSA34   17       BGLCNA   C4       CC3161   0.140000       12.0110           0
     37299 LPSA34   17       BGLCNA   H4       HCA1     0.900000E-01   1.00800           0
     37300 LPSA34   17       BGLCNA   O4       OC311   -0.650000       15.9994           0
     37301 LPSA34   17       BGLCNA   HO4      HCP1     0.420000       1.00800           0
     37302 LPSA34   17       BGLCNA   C6       CC321    0.500000E-01   12.0110           0
     37303 LPSA34   17       BGLCNA   H61      HCA2     0.900000E-01   1.00800           0
     37304 LPSA34   17       BGLCNA   H62      HCA2     0.900000E-01   1.00800           0
     37305 LPSA34   17       BGLCNA   O6       OC311   -0.650000       15.9994           0
     37306 LPSA34   17       BGLCNA   HO6      HCP1     0.420000       1.00800           0
     37307 LPSA34   18       AGAL     C1       CC3162   0.290000       12.0110           0
     37308 LPSA34   18       AGAL     H1       HCA1     0.900000E-01   1.00800           0
     37309 LPSA34   18       AGAL     C5       CC3163   0.110000       12.0110           0
     37310 LPSA34   18       AGAL     H5       HCA1     0.900000E-01   1.00800           0
     37311 LPSA34   18       AGAL     O5       OC3C61  -0.400000       15.9994           0
     37312 LPSA34   18       AGAL     C2       CC3161   0.900000E-01   12.0110           0
     37313 LPSA34   18       AGAL     H2       HCA1     0.900000E-01   1.00800           0
     37314 LPSA34   18       AGAL     O2       OC301   -0.360000       15.9994           0
     37315 LPSA34   18       AGAL     C3       CC3161   0.140000       12.0110           0
     37316 LPSA34   18       AGAL     H3       HCA1     0.900000E-01   1.00800           0
     37317 LPSA34   18       AGAL     O3       OC311   -0.650000       15.9994           0
     37318 LPSA34   18       AGAL     HO3      HCP1     0.420000       1.00800           0
     37319 LPSA34   18       AGAL     C4       CC3161   0.140000       12.0110           0
     37320 LPSA34   18       AGAL     H4       HCA1     0.900000E-01   1.00800           0
     37321 LPSA34   18       AGAL     O4       OC311   -0.650000       15.9994           0
     37322 LPSA34   18       AGAL     HO4      HCP1     0.420000       1.00800           0
     37323 LPSA34   18       AGAL     C6       CC321    0.500000E-01   12.0110           0
     37324 LPSA34   18       AGAL     H61      HCA2     0.900000E-01   1.00800           0
     37325 LPSA34   18       AGAL     H62      HCA2     0.900000E-01   1.00800           0
     37326 LPSA34   18       AGAL     O6       OC311   -0.650000       15.9994           0
     37327 LPSA34   18       AGAL     HO6      HCP1     0.420000       1.00800           0
     37328 LPSA34   19       ARHM     C1       CC3162   0.290000       12.0110           0
     37329 LPSA34   19       ARHM     H1       HCA1     0.900000E-01   1.00800           0
     37330 LPSA34   19       ARHM     C5       CC3163   0.110000       12.0110           0
     37331 LPSA34   19       ARHM     H5       HCA1     0.900000E-01   1.00800           0
     37332 LPSA34   19       ARHM     O5       OC3C61  -0.400000       15.9994           0
     37333 LPSA34   19       ARHM     C2       CC3161   0.900000E-01   12.0110           0
     37334 LPSA34   19       ARHM     H2       HCA1     0.900000E-01   1.00800           0
     37335 LPSA34   19       ARHM     O2       OC301   -0.360000       15.9994           0
     37336 LPSA34   19       ARHM     C3       CC3161   0.140000       12.0110           0
     37337 LPSA34   19       ARHM     H3       HCA1     0.900000E-01   1.00800           0
     37338 LPSA34   19       ARHM     O3       OC311   -0.650000       15.9994           0
     37339 LPSA34   19       ARHM     HO3      HCP1     0.420000       1.00800           0
     37340 LPSA34   19       ARHM     C4       CC3161   0.140000       12.0110           0
     37341 LPSA34   19       ARHM     H4       HCA1     0.900000E-01   1.00800           0
     37342 LPSA34   19       ARHM     O4       OC311   -0.650000       15.9994           0
     37343 LPSA34   19       ARHM     HO4      HCP1     0.420000       1.00800           0
     37344 LPSA34   19       ARHM     C6       CC331   -0.270000       12.0110           0
     37345 LPSA34   19       ARHM     H61      HCA3     0.900000E-01   1.00800           0
     37346 LPSA34   19       ARHM     H62      HCA3     0.900000E-01   1.00800           0
     37347 LPSA34   19       ARHM     H63      HCA3     0.900000E-01   1.00800           0
     37348 LPSA34   20       ARHM     C1       CC3162   0.290000       12.0110           0
     37349 LPSA34   20       ARHM     H1       HCA1     0.900000E-01   1.00800           0
     37350 LPSA34   20       ARHM     C5       CC3163   0.110000       12.0110           0
     37351 LPSA34   20       ARHM     H5       HCA1     0.900000E-01   1.00800           0
     37352 LPSA34   20       ARHM     O5       OC3C61  -0.400000       15.9994           0
     37353 LPSA34   20       ARHM     C2       CC3161   0.900000E-01   12.0110           0
     37354 LPSA34   20       ARHM     H2       HCA1     0.900000E-01   1.00800           0
     37355 LPSA34   20       ARHM     O2       OC301   -0.360000       15.9994           0
     37356 LPSA34   20       ARHM     C3       CC3161   0.900000E-01   12.0110           0
     37357 LPSA34   20       ARHM     H3       HCA1     0.900000E-01   1.00800           0
     37358 LPSA34   20       ARHM     O3       OC301   -0.360000       15.9994           0
     37359 LPSA34   20       ARHM     C4       CC3161   0.140000       12.0110           0
     37360 LPSA34   20       ARHM     H4       HCA1     0.900000E-01   1.00800           0
     37361 LPSA34   20       ARHM     O4       OC311   -0.650000       15.9994           0
     37362 LPSA34   20       ARHM     HO4      HCP1     0.420000       1.00800           0
     37363 LPSA34   20       ARHM     C6       CC331   -0.270000       12.0110           0
     37364 LPSA34   20       ARHM     H61      HCA3     0.900000E-01   1.00800           0
     37365 LPSA34   20       ARHM     H62      HCA3     0.900000E-01   1.00800           0
     37366 LPSA34   20       ARHM     H63      HCA3     0.900000E-01   1.00800           0
     37367 LPSA34   21       BMANNA   C1       CC3162   0.290000       12.0110           0
     37368 LPSA34   21       BMANNA   H1       HCA1     0.900000E-01   1.00800           0
     37369 LPSA34   21       BMANNA   C5       CC3163   0.110000       12.0110           0
     37370 LPSA34   21       BMANNA   H5       HCA1     0.900000E-01   1.00800           0
     37371 LPSA34   21       BMANNA   O5       OC3C61  -0.400000       15.9994           0
     37372 LPSA34   21       BMANNA   C2       CC3161   0.700000E-01   12.0110           0
     37373 LPSA34   21       BMANNA   H2       HCA1     0.900000E-01   1.00800           0
     37374 LPSA34   21       BMANNA   N        NC2D1   -0.470000       14.0070           0
     37375 LPSA34   21       BMANNA   HN       HCP1     0.310000       1.00800           0
     37376 LPSA34   21       BMANNA   C        CC2O1    0.510000       12.0110           0
     37377 LPSA34   21       BMANNA   O        OC2D1   -0.510000       15.9994           0
     37378 LPSA34   21       BMANNA   CT       CC331   -0.270000       12.0110           0
     37379 LPSA34   21       BMANNA   HT1      HCA3     0.900000E-01   1.00800           0
     37380 LPSA34   21       BMANNA   HT2      HCA3     0.900000E-01   1.00800           0
     37381 LPSA34   21       BMANNA   HT3      HCA3     0.900000E-01   1.00800           0
     37382 LPSA34   21       BMANNA   C3       CC3161   0.140000       12.0110           0
     37383 LPSA34   21       BMANNA   H3       HCA1     0.900000E-01   1.00800           0
     37384 LPSA34   21       BMANNA   O3       OC311   -0.650000       15.9994           0
     37385 LPSA34   21       BMANNA   HO3      HCP1     0.420000       1.00800           0
     37386 LPSA34   21       BMANNA   C4       CC3161   0.140000       12.0110           0
     37387 LPSA34   21       BMANNA   H4       HCA1     0.900000E-01   1.00800           0
     37388 LPSA34   21       BMANNA   O4       OC311   -0.650000       15.9994           0
     37389 LPSA34   21       BMANNA   HO4      HCP1     0.420000       1.00800           0
     37390 LPSA34   21       BMANNA   C6       CC321    0.500000E-01   12.0110           0
     37391 LPSA34   21       BMANNA   H61      HCA2     0.900000E-01   1.00800           0
     37392 LPSA34   21       BMANNA   H62      HCA2     0.900000E-01   1.00800           0
     37393 LPSA34   21       BMANNA   O6       OC311   -0.650000       15.9994           0
     37394 LPSA34   21       BMANNA   HO6      HCP1     0.420000       1.00800           0
     37395 LPSA34   22       BGLCNA   C1       CC3162   0.290000       12.0110           0
     37396 LPSA34   22       BGLCNA   H1       HCA1     0.900000E-01   1.00800           0
     37397 LPSA34   22       BGLCNA   C5       CC3163   0.110000       12.0110           0
     37398 LPSA34   22       BGLCNA   H5       HCA1     0.900000E-01   1.00800           0
     37399 LPSA34   22       BGLCNA   O5       OC3C61  -0.400000       15.9994           0
     37400 LPSA34   22       BGLCNA   C2       CC3161   0.700000E-01   12.0110           0
     37401 LPSA34   22       BGLCNA   H2       HCA1     0.900000E-01   1.00800           0
     37402 LPSA34   22       BGLCNA   N        NC2D1   -0.470000       14.0070           0
     37403 LPSA34   22       BGLCNA   HN       HCP1     0.310000       1.00800           0
     37404 LPSA34   22       BGLCNA   C        CC2O1    0.510000       12.0110           0
     37405 LPSA34   22       BGLCNA   O        OC2D1   -0.510000       15.9994           0
     37406 LPSA34   22       BGLCNA   CT       CC331   -0.270000       12.0110           0
     37407 LPSA34   22       BGLCNA   HT1      HCA3     0.900000E-01   1.00800           0
     37408 LPSA34   22       BGLCNA   HT2      HCA3     0.900000E-01   1.00800           0
     37409 LPSA34   22       BGLCNA   HT3      HCA3     0.900000E-01   1.00800           0
     37410 LPSA34   22       BGLCNA   C3       CC3161   0.900000E-01   12.0110           0
     37411 LPSA34   22       BGLCNA   H3       HCA1     0.900000E-01   1.00800           0
     37412 LPSA34   22       BGLCNA   O3       OC301   -0.360000       15.9994           0
     37413 LPSA34   22       BGLCNA   C4       CC3161   0.140000       12.0110           0
     37414 LPSA34   22       BGLCNA   H4       HCA1     0.900000E-01   1.00800           0
     37415 LPSA34   22       BGLCNA   O4       OC311   -0.650000       15.9994           0
     37416 LPSA34   22       BGLCNA   HO4      HCP1     0.420000       1.00800           0
     37417 LPSA34   22       BGLCNA   C6       CC321    0.500000E-01   12.0110           0
     37418 LPSA34   22       BGLCNA   H61      HCA2     0.900000E-01   1.00800           0
     37419 LPSA34   22       BGLCNA   H62      HCA2     0.900000E-01   1.00800           0
     37420 LPSA34   22       BGLCNA   O6       OC311   -0.650000       15.9994           0
     37421 LPSA34   22       BGLCNA   HO6      HCP1     0.420000       1.00800           0
     37422 LPSA34   23       AGAL     C1       CC3162   0.290000       12.0110           0
     37423 LPSA34   23       AGAL     H1       HCA1     0.900000E-01   1.00800           0
     37424 LPSA34   23       AGAL     C5       CC3163   0.110000       12.0110           0
     37425 LPSA34   23       AGAL     H5       HCA1     0.900000E-01   1.00800           0
     37426 LPSA34   23       AGAL     O5       OC3C61  -0.400000       15.9994           0
     37427 LPSA34   23       AGAL     C2       CC3161   0.900000E-01   12.0110           0
     37428 LPSA34   23       AGAL     H2       HCA1     0.900000E-01   1.00800           0
     37429 LPSA34   23       AGAL     O2       OC301   -0.360000       15.9994           0
     37430 LPSA34   23       AGAL     C3       CC3161   0.140000       12.0110           0
     37431 LPSA34   23       AGAL     H3       HCA1     0.900000E-01   1.00800           0
     37432 LPSA34   23       AGAL     O3       OC311   -0.650000       15.9994           0
     37433 LPSA34   23       AGAL     HO3      HCP1     0.420000       1.00800           0
     37434 LPSA34   23       AGAL     C4       CC3161   0.140000       12.0110           0
     37435 LPSA34   23       AGAL     H4       HCA1     0.900000E-01   1.00800           0
     37436 LPSA34   23       AGAL     O4       OC311   -0.650000       15.9994           0
     37437 LPSA34   23       AGAL     HO4      HCP1     0.420000       1.00800           0
     37438 LPSA34   23       AGAL     C6       CC321    0.500000E-01   12.0110           0
     37439 LPSA34   23       AGAL     H61      HCA2     0.900000E-01   1.00800           0
     37440 LPSA34   23       AGAL     H62      HCA2     0.900000E-01   1.00800           0
     37441 LPSA34   23       AGAL     O6       OC311   -0.650000       15.9994           0
     37442 LPSA34   23       AGAL     HO6      HCP1     0.420000       1.00800           0
     37443 LPSA34   24       ARHM     C1       CC3162   0.290000       12.0110           0
     37444 LPSA34   24       ARHM     H1       HCA1     0.900000E-01   1.00800           0
     37445 LPSA34   24       ARHM     C5       CC3163   0.110000       12.0110           0
     37446 LPSA34   24       ARHM     H5       HCA1     0.900000E-01   1.00800           0
     37447 LPSA34   24       ARHM     O5       OC3C61  -0.400000       15.9994           0
     37448 LPSA34   24       ARHM     C2       CC3161   0.900000E-01   12.0110           0
     37449 LPSA34   24       ARHM     H2       HCA1     0.900000E-01   1.00800           0
     37450 LPSA34   24       ARHM     O2       OC301   -0.360000       15.9994           0
     37451 LPSA34   24       ARHM     C3       CC3161   0.140000       12.0110           0
     37452 LPSA34   24       ARHM     H3       HCA1     0.900000E-01   1.00800           0
     37453 LPSA34   24       ARHM     O3       OC311   -0.650000       15.9994           0
     37454 LPSA34   24       ARHM     HO3      HCP1     0.420000       1.00800           0
     37455 LPSA34   24       ARHM     C4       CC3161   0.140000       12.0110           0
     37456 LPSA34   24       ARHM     H4       HCA1     0.900000E-01   1.00800           0
     37457 LPSA34   24       ARHM     O4       OC311   -0.650000       15.9994           0
     37458 LPSA34   24       ARHM     HO4      HCP1     0.420000       1.00800           0
     37459 LPSA34   24       ARHM     C6       CC331   -0.270000       12.0110           0
     37460 LPSA34   24       ARHM     H61      HCA3     0.900000E-01   1.00800           0
     37461 LPSA34   24       ARHM     H62      HCA3     0.900000E-01   1.00800           0
     37462 LPSA34   24       ARHM     H63      HCA3     0.900000E-01   1.00800           0
     37463 LPSA34   25       ARHM     C1       CC3162   0.290000       12.0110           0
     37464 LPSA34   25       ARHM     H1       HCA1     0.900000E-01   1.00800           0
     37465 LPSA34   25       ARHM     C5       CC3163   0.110000       12.0110           0
     37466 LPSA34   25       ARHM     H5       HCA1     0.900000E-01   1.00800           0
     37467 LPSA34   25       ARHM     O5       OC3C61  -0.400000       15.9994           0
     37468 LPSA34   25       ARHM     C2       CC3161   0.900000E-01   12.0110           0
     37469 LPSA34   25       ARHM     H2       HCA1     0.900000E-01   1.00800           0
     37470 LPSA34   25       ARHM     O2       OC301   -0.360000       15.9994           0
     37471 LPSA34   25       ARHM     C3       CC3161   0.900000E-01   12.0110           0
     37472 LPSA34   25       ARHM     H3       HCA1     0.900000E-01   1.00800           0
     37473 LPSA34   25       ARHM     O3       OC301   -0.360000       15.9994           0
     37474 LPSA34   25       ARHM     C4       CC3161   0.140000       12.0110           0
     37475 LPSA34   25       ARHM     H4       HCA1     0.900000E-01   1.00800           0
     37476 LPSA34   25       ARHM     O4       OC311   -0.650000       15.9994           0
     37477 LPSA34   25       ARHM     HO4      HCP1     0.420000       1.00800           0
     37478 LPSA34   25       ARHM     C6       CC331   -0.270000       12.0110           0
     37479 LPSA34   25       ARHM     H61      HCA3     0.900000E-01   1.00800           0
     37480 LPSA34   25       ARHM     H62      HCA3     0.900000E-01   1.00800           0
     37481 LPSA34   25       ARHM     H63      HCA3     0.900000E-01   1.00800           0
     37482 LPSA34   26       BMANNA   C1       CC3162   0.290000       12.0110           0
     37483 LPSA34   26       BMANNA   H1       HCA1     0.900000E-01   1.00800           0
     37484 LPSA34   26       BMANNA   C5       CC3163   0.110000       12.0110           0
     37485 LPSA34   26       BMANNA   H5       HCA1     0.900000E-01   1.00800           0
     37486 LPSA34   26       BMANNA   O5       OC3C61  -0.400000       15.9994           0
     37487 LPSA34   26       BMANNA   C2       CC3161   0.700000E-01   12.0110           0
     37488 LPSA34   26       BMANNA   H2       HCA1     0.900000E-01   1.00800           0
     37489 LPSA34   26       BMANNA   N        NC2D1   -0.470000       14.0070           0
     37490 LPSA34   26       BMANNA   HN       HCP1     0.310000       1.00800           0
     37491 LPSA34   26       BMANNA   C        CC2O1    0.510000       12.0110           0
     37492 LPSA34   26       BMANNA   O        OC2D1   -0.510000       15.9994           0
     37493 LPSA34   26       BMANNA   CT       CC331   -0.270000       12.0110           0
     37494 LPSA34   26       BMANNA   HT1      HCA3     0.900000E-01   1.00800           0
     37495 LPSA34   26       BMANNA   HT2      HCA3     0.900000E-01   1.00800           0
     37496 LPSA34   26       BMANNA   HT3      HCA3     0.900000E-01   1.00800           0
     37497 LPSA34   26       BMANNA   C3       CC3161   0.140000       12.0110           0
     37498 LPSA34   26       BMANNA   H3       HCA1     0.900000E-01   1.00800           0
     37499 LPSA34   26       BMANNA   O3       OC311   -0.650000       15.9994           0
     37500 LPSA34   26       BMANNA   HO3      HCP1     0.420000       1.00800           0
     37501 LPSA34   26       BMANNA   C4       CC3161   0.140000       12.0110           0
     37502 LPSA34   26       BMANNA   H4       HCA1     0.900000E-01   1.00800           0
     37503 LPSA34   26       BMANNA   O4       OC311   -0.650000       15.9994           0
     37504 LPSA34   26       BMANNA   HO4      HCP1     0.420000       1.00800           0
     37505 LPSA34   26       BMANNA   C6       CC321    0.500000E-01   12.0110           0
     37506 LPSA34   26       BMANNA   H61      HCA2     0.900000E-01   1.00800           0
     37507 LPSA34   26       BMANNA   H62      HCA2     0.900000E-01   1.00800           0
     37508 LPSA34   26       BMANNA   O6       OC311   -0.650000       15.9994           0
     37509 LPSA34   26       BMANNA   HO6      HCP1     0.420000       1.00800           0
     37510 LPSA34   27       BGLCNA   C1       CC3162   0.290000       12.0110           0
     37511 LPSA34   27       BGLCNA   H1       HCA1     0.900000E-01   1.00800           0
     37512 LPSA34   27       BGLCNA   C5       CC3163   0.110000       12.0110           0
     37513 LPSA34   27       BGLCNA   H5       HCA1     0.900000E-01   1.00800           0
     37514 LPSA34   27       BGLCNA   O5       OC3C61  -0.400000       15.9994           0
     37515 LPSA34   27       BGLCNA   C2       CC3161   0.700000E-01   12.0110           0
     37516 LPSA34   27       BGLCNA   H2       HCA1     0.900000E-01   1.00800           0
     37517 LPSA34   27       BGLCNA   N        NC2D1   -0.470000       14.0070           0
     37518 LPSA34   27       BGLCNA   HN       HCP1     0.310000       1.00800           0
     37519 LPSA34   27       BGLCNA   C        CC2O1    0.510000       12.0110           0
     37520 LPSA34   27       BGLCNA   O        OC2D1   -0.510000       15.9994           0
     37521 LPSA34   27       BGLCNA   CT       CC331   -0.270000       12.0110           0
     37522 LPSA34   27       BGLCNA   HT1      HCA3     0.900000E-01   1.00800           0
     37523 LPSA34   27       BGLCNA   HT2      HCA3     0.900000E-01   1.00800           0
     37524 LPSA34   27       BGLCNA   HT3      HCA3     0.900000E-01   1.00800           0
     37525 LPSA34   27       BGLCNA   C3       CC3161   0.900000E-01   12.0110           0
     37526 LPSA34   27       BGLCNA   H3       HCA1     0.900000E-01   1.00800           0
     37527 LPSA34   27       BGLCNA   O3       OC301   -0.360000       15.9994           0
     37528 LPSA34   27       BGLCNA   C4       CC3161   0.140000       12.0110           0
     37529 LPSA34   27       BGLCNA   H4       HCA1     0.900000E-01   1.00800           0
     37530 LPSA34   27       BGLCNA   O4       OC311   -0.650000       15.9994           0
     37531 LPSA34   27       BGLCNA   HO4      HCP1     0.420000       1.00800           0
     37532 LPSA34   27       BGLCNA   C6       CC321    0.500000E-01   12.0110           0
     37533 LPSA34   27       BGLCNA   H61      HCA2     0.900000E-01   1.00800           0
     37534 LPSA34   27       BGLCNA   H62      HCA2     0.900000E-01   1.00800           0
     37535 LPSA34   27       BGLCNA   O6       OC311   -0.650000       15.9994           0
     37536 LPSA34   27       BGLCNA   HO6      HCP1     0.420000       1.00800           0
     37537 LPSA34   28       AGAL     C1       CC3162   0.290000       12.0110           0
     37538 LPSA34   28       AGAL     H1       HCA1     0.900000E-01   1.00800           0
     37539 LPSA34   28       AGAL     C5       CC3163   0.110000       12.0110           0
     37540 LPSA34   28       AGAL     H5       HCA1     0.900000E-01   1.00800           0
     37541 LPSA34   28       AGAL     O5       OC3C61  -0.400000       15.9994           0
     37542 LPSA34   28       AGAL     C2       CC3161   0.900000E-01   12.0110           0
     37543 LPSA34   28       AGAL     H2       HCA1     0.900000E-01   1.00800           0
     37544 LPSA34   28       AGAL     O2       OC301   -0.360000       15.9994           0
     37545 LPSA34   28       AGAL     C3       CC3161   0.140000       12.0110           0
     37546 LPSA34   28       AGAL     H3       HCA1     0.900000E-01   1.00800           0
     37547 LPSA34   28       AGAL     O3       OC311   -0.650000       15.9994           0
     37548 LPSA34   28       AGAL     HO3      HCP1     0.420000       1.00800           0
     37549 LPSA34   28       AGAL     C4       CC3161   0.140000       12.0110           0
     37550 LPSA34   28       AGAL     H4       HCA1     0.900000E-01   1.00800           0
     37551 LPSA34   28       AGAL     O4       OC311   -0.650000       15.9994           0
     37552 LPSA34   28       AGAL     HO4      HCP1     0.420000       1.00800           0
     37553 LPSA34   28       AGAL     C6       CC321    0.500000E-01   12.0110           0
     37554 LPSA34   28       AGAL     H61      HCA2     0.900000E-01   1.00800           0
     37555 LPSA34   28       AGAL     H62      HCA2     0.900000E-01   1.00800           0
     37556 LPSA34   28       AGAL     O6       OC311   -0.650000       15.9994           0
     37557 LPSA34   28       AGAL     HO6      HCP1     0.420000       1.00800           0
     37558 LPSA34   29       ARHM     C1       CC3162   0.290000       12.0110           0
     37559 LPSA34   29       ARHM     H1       HCA1     0.900000E-01   1.00800           0
     37560 LPSA34   29       ARHM     C5       CC3163   0.110000       12.0110           0
     37561 LPSA34   29       ARHM     H5       HCA1     0.900000E-01   1.00800           0
     37562 LPSA34   29       ARHM     O5       OC3C61  -0.400000       15.9994           0
     37563 LPSA34   29       ARHM     C2       CC3161   0.900000E-01   12.0110           0
     37564 LPSA34   29       ARHM     H2       HCA1     0.900000E-01   1.00800           0
     37565 LPSA34   29       ARHM     O2       OC301   -0.360000       15.9994           0
     37566 LPSA34   29       ARHM     C3       CC3161   0.140000       12.0110           0
     37567 LPSA34   29       ARHM     H3       HCA1     0.900000E-01   1.00800           0
     37568 LPSA34   29       ARHM     O3       OC311   -0.650000       15.9994           0
     37569 LPSA34   29       ARHM     HO3      HCP1     0.420000       1.00800           0
     37570 LPSA34   29       ARHM     C4       CC3161   0.140000       12.0110           0
     37571 LPSA34   29       ARHM     H4       HCA1     0.900000E-01   1.00800           0
     37572 LPSA34   29       ARHM     O4       OC311   -0.650000       15.9994           0
     37573 LPSA34   29       ARHM     HO4      HCP1     0.420000       1.00800           0
     37574 LPSA34   29       ARHM     C6       CC331   -0.270000       12.0110           0
     37575 LPSA34   29       ARHM     H61      HCA3     0.900000E-01   1.00800           0
     37576 LPSA34   29       ARHM     H62      HCA3     0.900000E-01   1.00800           0
     37577 LPSA34   29       ARHM     H63      HCA3     0.900000E-01   1.00800           0
     37578 LPSA34   30       ARHM     C1       CC3162   0.290000       12.0110           0
     37579 LPSA34   30       ARHM     H1       HCA1     0.900000E-01   1.00800           0
     37580 LPSA34   30       ARHM     C5       CC3163   0.110000       12.0110           0
     37581 LPSA34   30       ARHM     H5       HCA1     0.900000E-01   1.00800           0
     37582 LPSA34   30       ARHM     O5       OC3C61  -0.400000       15.9994           0
     37583 LPSA34   30       ARHM     C2       CC3161   0.900000E-01   12.0110           0
     37584 LPSA34   30       ARHM     H2       HCA1     0.900000E-01   1.00800           0
     37585 LPSA34   30       ARHM     O2       OC301   -0.360000       15.9994           0
     37586 LPSA34   30       ARHM     C3       CC3161   0.900000E-01   12.0110           0
     37587 LPSA34   30       ARHM     H3       HCA1     0.900000E-01   1.00800           0
     37588 LPSA34   30       ARHM     O3       OC301   -0.360000       15.9994           0
     37589 LPSA34   30       ARHM     C4       CC3161   0.140000       12.0110           0
     37590 LPSA34   30       ARHM     H4       HCA1     0.900000E-01   1.00800           0
     37591 LPSA34   30       ARHM     O4       OC311   -0.650000       15.9994           0
     37592 LPSA34   30       ARHM     HO4      HCP1     0.420000       1.00800           0
     37593 LPSA34   30       ARHM     C6       CC331   -0.270000       12.0110           0
     37594 LPSA34   30       ARHM     H61      HCA3     0.900000E-01   1.00800           0
     37595 LPSA34   30       ARHM     H62      HCA3     0.900000E-01   1.00800           0
     37596 LPSA34   30       ARHM     H63      HCA3     0.900000E-01   1.00800           0
     37597 LPSA34   31       BMANNA   C1       CC3162   0.290000       12.0110           0
     37598 LPSA34   31       BMANNA   H1       HCA1     0.900000E-01   1.00800           0
     37599 LPSA34   31       BMANNA   C5       CC3163   0.110000       12.0110           0
     37600 LPSA34   31       BMANNA   H5       HCA1     0.900000E-01   1.00800           0
     37601 LPSA34   31       BMANNA   O5       OC3C61  -0.400000       15.9994           0
     37602 LPSA34   31       BMANNA   C2       CC3161   0.700000E-01   12.0110           0
     37603 LPSA34   31       BMANNA   H2       HCA1     0.900000E-01   1.00800           0
     37604 LPSA34   31       BMANNA   N        NC2D1   -0.470000       14.0070           0
     37605 LPSA34   31       BMANNA   HN       HCP1     0.310000       1.00800           0
     37606 LPSA34   31       BMANNA   C        CC2O1    0.510000       12.0110           0
     37607 LPSA34   31       BMANNA   O        OC2D1   -0.510000       15.9994           0
     37608 LPSA34   31       BMANNA   CT       CC331   -0.270000       12.0110           0
     37609 LPSA34   31       BMANNA   HT1      HCA3     0.900000E-01   1.00800           0
     37610 LPSA34   31       BMANNA   HT2      HCA3     0.900000E-01   1.00800           0
     37611 LPSA34   31       BMANNA   HT3      HCA3     0.900000E-01   1.00800           0
     37612 LPSA34   31       BMANNA   C3       CC3161   0.140000       12.0110           0
     37613 LPSA34   31       BMANNA   H3       HCA1     0.900000E-01   1.00800           0
     37614 LPSA34   31       BMANNA   O3       OC311   -0.650000       15.9994           0
     37615 LPSA34   31       BMANNA   HO3      HCP1     0.420000       1.00800           0
     37616 LPSA34   31       BMANNA   C4       CC3161   0.140000       12.0110           0
     37617 LPSA34   31       BMANNA   H4       HCA1     0.900000E-01   1.00800           0
     37618 LPSA34   31       BMANNA   O4       OC311   -0.650000       15.9994           0
     37619 LPSA34   31       BMANNA   HO4      HCP1     0.420000       1.00800           0
     37620 LPSA34   31       BMANNA   C6       CC321    0.500000E-01   12.0110           0
     37621 LPSA34   31       BMANNA   H61      HCA2     0.900000E-01   1.00800           0
     37622 LPSA34   31       BMANNA   H62      HCA2     0.900000E-01   1.00800           0
     37623 LPSA34   31       BMANNA   O6       OC311   -0.650000       15.9994           0
     37624 LPSA34   31       BMANNA   HO6      HCP1     0.420000       1.00800           0
     37625 LPSA34   32       BGLCNA   C1       CC3162   0.290000       12.0110           0
     37626 LPSA34   32       BGLCNA   H1       HCA1     0.900000E-01   1.00800           0
     37627 LPSA34   32       BGLCNA   C5       CC3163   0.110000       12.0110           0
     37628 LPSA34   32       BGLCNA   H5       HCA1     0.900000E-01   1.00800           0
     37629 LPSA34   32       BGLCNA   O5       OC3C61  -0.400000       15.9994           0
     37630 LPSA34   32       BGLCNA   C2       CC3161   0.700000E-01   12.0110           0
     37631 LPSA34   32       BGLCNA   H2       HCA1     0.900000E-01   1.00800           0
     37632 LPSA34   32       BGLCNA   N        NC2D1   -0.470000       14.0070           0
     37633 LPSA34   32       BGLCNA   HN       HCP1     0.310000       1.00800           0
     37634 LPSA34   32       BGLCNA   C        CC2O1    0.510000       12.0110           0
     37635 LPSA34   32       BGLCNA   O        OC2D1   -0.510000       15.9994           0
     37636 LPSA34   32       BGLCNA   CT       CC331   -0.270000       12.0110           0
     37637 LPSA34   32       BGLCNA   HT1      HCA3     0.900000E-01   1.00800           0
     37638 LPSA34   32       BGLCNA   HT2      HCA3     0.900000E-01   1.00800           0
     37639 LPSA34   32       BGLCNA   HT3      HCA3     0.900000E-01   1.00800           0
     37640 LPSA34   32       BGLCNA   C3       CC3161   0.900000E-01   12.0110           0
     37641 LPSA34   32       BGLCNA   H3       HCA1     0.900000E-01   1.00800           0
     37642 LPSA34   32       BGLCNA   O3       OC301   -0.360000       15.9994           0
     37643 LPSA34   32       BGLCNA   C4       CC3161   0.140000       12.0110           0
     37644 LPSA34   32       BGLCNA   H4       HCA1     0.900000E-01   1.00800           0
     37645 LPSA34   32       BGLCNA   O4       OC311   -0.650000       15.9994           0
     37646 LPSA34   32       BGLCNA   HO4      HCP1     0.420000       1.00800           0
     37647 LPSA34   32       BGLCNA   C6       CC321    0.500000E-01   12.0110           0
     37648 LPSA34   32       BGLCNA   H61      HCA2     0.900000E-01   1.00800           0
     37649 LPSA34   32       BGLCNA   H62      HCA2     0.900000E-01   1.00800           0
     37650 LPSA34   32       BGLCNA   O6       OC311   -0.650000       15.9994           0
     37651 LPSA34   32       BGLCNA   HO6      HCP1     0.420000       1.00800           0
     37652 LPSA34   33       AGAL     C1       CC3162   0.290000       12.0110           0
     37653 LPSA34   33       AGAL     H1       HCA1     0.900000E-01   1.00800           0
     37654 LPSA34   33       AGAL     C5       CC3163   0.110000       12.0110           0
     37655 LPSA34   33       AGAL     H5       HCA1     0.900000E-01   1.00800           0
     37656 LPSA34   33       AGAL     O5       OC3C61  -0.400000       15.9994           0
     37657 LPSA34   33       AGAL     C2       CC3161   0.900000E-01   12.0110           0
     37658 LPSA34   33       AGAL     H2       HCA1     0.900000E-01   1.00800           0
     37659 LPSA34   33       AGAL     O2       OC301   -0.360000       15.9994           0
     37660 LPSA34   33       AGAL     C3       CC3161   0.140000       12.0110           0
     37661 LPSA34   33       AGAL     H3       HCA1     0.900000E-01   1.00800           0
     37662 LPSA34   33       AGAL     O3       OC311   -0.650000       15.9994           0
     37663 LPSA34   33       AGAL     HO3      HCP1     0.420000       1.00800           0
     37664 LPSA34   33       AGAL     C4       CC3161   0.140000       12.0110           0
     37665 LPSA34   33       AGAL     H4       HCA1     0.900000E-01   1.00800           0
     37666 LPSA34   33       AGAL     O4       OC311   -0.650000       15.9994           0
     37667 LPSA34   33       AGAL     HO4      HCP1     0.420000       1.00800           0
     37668 LPSA34   33       AGAL     C6       CC321    0.500000E-01   12.0110           0
     37669 LPSA34   33       AGAL     H61      HCA2     0.900000E-01   1.00800           0
     37670 LPSA34   33       AGAL     H62      HCA2     0.900000E-01   1.00800           0
     37671 LPSA34   33       AGAL     O6       OC311   -0.650000       15.9994           0
     37672 LPSA34   33       AGAL     HO6      HCP1     0.420000       1.00800           0
     37673 LPSA34   34       ARHM     C1       CC3162   0.290000       12.0110           0
     37674 LPSA34   34       ARHM     H1       HCA1     0.900000E-01   1.00800           0
     37675 LPSA34   34       ARHM     C5       CC3163   0.110000       12.0110           0
     37676 LPSA34   34       ARHM     H5       HCA1     0.900000E-01   1.00800           0
     37677 LPSA34   34       ARHM     O5       OC3C61  -0.400000       15.9994           0
     37678 LPSA34   34       ARHM     C2       CC3161   0.900000E-01   12.0110           0
     37679 LPSA34   34       ARHM     H2       HCA1     0.900000E-01   1.00800           0
     37680 LPSA34   34       ARHM     O2       OC301   -0.360000       15.9994           0
     37681 LPSA34   34       ARHM     C3       CC3161   0.140000       12.0110           0
     37682 LPSA34   34       ARHM     H3       HCA1     0.900000E-01   1.00800           0
     37683 LPSA34   34       ARHM     O3       OC311   -0.650000       15.9994           0
     37684 LPSA34   34       ARHM     HO3      HCP1     0.420000       1.00800           0
     37685 LPSA34   34       ARHM     C4       CC3161   0.140000       12.0110           0
     37686 LPSA34   34       ARHM     H4       HCA1     0.900000E-01   1.00800           0
     37687 LPSA34   34       ARHM     O4       OC311   -0.650000       15.9994           0
     37688 LPSA34   34       ARHM     HO4      HCP1     0.420000       1.00800           0
     37689 LPSA34   34       ARHM     C6       CC331   -0.270000       12.0110           0
     37690 LPSA34   34       ARHM     H61      HCA3     0.900000E-01   1.00800           0
     37691 LPSA34   34       ARHM     H62      HCA3     0.900000E-01   1.00800           0
     37692 LPSA34   34       ARHM     H63      HCA3     0.900000E-01   1.00800           0
     37693 LPSA34   35       ARHM     C1       CC3162   0.290000       12.0110           0
     37694 LPSA34   35       ARHM     H1       HCA1     0.900000E-01   1.00800           0
     37695 LPSA34   35       ARHM     C5       CC3163   0.110000       12.0110           0
     37696 LPSA34   35       ARHM     H5       HCA1     0.900000E-01   1.00800           0
     37697 LPSA34   35       ARHM     O5       OC3C61  -0.400000       15.9994           0
     37698 LPSA34   35       ARHM     C2       CC3161   0.900000E-01   12.0110           0
     37699 LPSA34   35       ARHM     H2       HCA1     0.900000E-01   1.00800           0
     37700 LPSA34   35       ARHM     O2       OC301   -0.360000       15.9994           0
     37701 LPSA34   35       ARHM     C3       CC3161   0.140000       12.0110           0
     37702 LPSA34   35       ARHM     H3       HCA1     0.900000E-01   1.00800           0
     37703 LPSA34   35       ARHM     O3       OC311   -0.650000       15.9994           0
     37704 LPSA34   35       ARHM     HO3      HCP1     0.420000       1.00800           0
     37705 LPSA34   35       ARHM     C4       CC3161   0.140000       12.0110           0
     37706 LPSA34   35       ARHM     H4       HCA1     0.900000E-01   1.00800           0
     37707 LPSA34   35       ARHM     O4       OC311   -0.650000       15.9994           0
     37708 LPSA34   35       ARHM     HO4      HCP1     0.420000       1.00800           0
     37709 LPSA34   35       ARHM     C6       CC331   -0.270000       12.0110           0
     37710 LPSA34   35       ARHM     H61      HCA3     0.900000E-01   1.00800           0
     37711 LPSA34   35       ARHM     H62      HCA3     0.900000E-01   1.00800           0
     37712 LPSA34   35       ARHM     H63      HCA3     0.900000E-01   1.00800           0
     37713 LPSA34   36       BMANNA   C1       CC3162   0.290000       12.0110           0
     37714 LPSA34   36       BMANNA   H1       HCA1     0.900000E-01   1.00800           0
     37715 LPSA34   36       BMANNA   C5       CC3163   0.110000       12.0110           0
     37716 LPSA34   36       BMANNA   H5       HCA1     0.900000E-01   1.00800           0
     37717 LPSA34   36       BMANNA   O5       OC3C61  -0.400000       15.9994           0
     37718 LPSA34   36       BMANNA   C2       CC3161   0.700000E-01   12.0110           0
     37719 LPSA34   36       BMANNA   H2       HCA1     0.900000E-01   1.00800           0
     37720 LPSA34   36       BMANNA   N        NC2D1   -0.470000       14.0070           0
     37721 LPSA34   36       BMANNA   HN       HCP1     0.310000       1.00800           0
     37722 LPSA34   36       BMANNA   C        CC2O1    0.510000       12.0110           0
     37723 LPSA34   36       BMANNA   O        OC2D1   -0.510000       15.9994           0
     37724 LPSA34   36       BMANNA   CT       CC331   -0.270000       12.0110           0
     37725 LPSA34   36       BMANNA   HT1      HCA3     0.900000E-01   1.00800           0
     37726 LPSA34   36       BMANNA   HT2      HCA3     0.900000E-01   1.00800           0
     37727 LPSA34   36       BMANNA   HT3      HCA3     0.900000E-01   1.00800           0
     37728 LPSA34   36       BMANNA   C3       CC3161   0.140000       12.0110           0
     37729 LPSA34   36       BMANNA   H3       HCA1     0.900000E-01   1.00800           0
     37730 LPSA34   36       BMANNA   O3       OC311   -0.650000       15.9994           0
     37731 LPSA34   36       BMANNA   HO3      HCP1     0.420000       1.00800           0
     37732 LPSA34   36       BMANNA   C4       CC3161   0.140000       12.0110           0
     37733 LPSA34   36       BMANNA   H4       HCA1     0.900000E-01   1.00800           0
     37734 LPSA34   36       BMANNA   O4       OC311   -0.650000       15.9994           0
     37735 LPSA34   36       BMANNA   HO4      HCP1     0.420000       1.00800           0
     37736 LPSA34   36       BMANNA   C6       CC321    0.500000E-01   12.0110           0
     37737 LPSA34   36       BMANNA   H61      HCA2     0.900000E-01   1.00800           0
     37738 LPSA34   36       BMANNA   H62      HCA2     0.900000E-01   1.00800           0
     37739 LPSA34   36       BMANNA   O6       OC311   -0.650000       15.9994           0
     37740 LPSA34   36       BMANNA   HO6      HCP1     0.420000       1.00800           0
     37741 LPSA35   1        ECLIPA   HB6S     HCA2     0.900000E-01   1.00800           0
     37742 LPSA35   1        ECLIPA   OB6      OC301   -0.360000       15.9994           0
     37743 LPSA35   1        ECLIPA   CB6      CC321     0.00000       12.0110           0
     37744 LPSA35   1        ECLIPA   HB6R     HCA2     0.900000E-01   1.00800           0
     37745 LPSA35   1        ECLIPA   CB5      CC3163   0.110000       12.0110           0
     37746 LPSA35   1        ECLIPA   OB5      OC3C61  -0.400000       15.9994           0
     37747 LPSA35   1        ECLIPA   HB5      HCA1     0.900000E-01   1.00800           0
     37748 LPSA35   1        ECLIPA   CB1      CC3162   0.290000       12.0110           0
     37749 LPSA35   1        ECLIPA   HB1      HCA1     0.900000E-01   1.00800           0
     37750 LPSA35   1        ECLIPA   OA6      OC301   -0.360000       15.9994           0
     37751 LPSA35   1        ECLIPA   CA6      CC321     0.00000       12.0110           0
     37752 LPSA35   1        ECLIPA   HA6R     HCA2     0.900000E-01   1.00800           0
     37753 LPSA35   1        ECLIPA   HA6S     HCA2     0.900000E-01   1.00800           0
     37754 LPSA35   1        ECLIPA   CB4      CC3161  -0.900000E-01   12.0110           0
     37755 LPSA35   1        ECLIPA   HB4      HCA1     0.900000E-01   1.00800           0
     37756 LPSA35   1        ECLIPA   OB4      OC30P   -0.400000       15.9994           0
     37757 LPSA35   1        ECLIPA   PB       PC        1.10000       30.9740           0
     37758 LPSA35   1        ECLIPA   OPB4     OC2DP   -0.900000       15.9994           0
     37759 LPSA35   1        ECLIPA   OPB3     OC2DP   -0.900000       15.9994           0
     37760 LPSA35   1        ECLIPA   OPB2     OC2DP   -0.900000       15.9994           0
     37761 LPSA35   1        ECLIPA   CB3      CC3161   0.170000       12.0110           0
     37762 LPSA35   1        ECLIPA   OB3      OC301   -0.490000       15.9994           0
     37763 LPSA35   1        ECLIPA   HB3      HCA1     0.900000E-01   1.00800           0
     37764 LPSA35   1        ECLIPA   C71      CL       0.900000       12.0110           0
     37765 LPSA35   1        ECLIPA   O71      OBL     -0.630000       15.9994           0
     37766 LPSA35   1        ECLIPA   C72      CTL2    -0.220000       12.0110           0
     37767 LPSA35   1        ECLIPA   H72R     HAL2     0.900000E-01   1.00800           0
     37768 LPSA35   1        ECLIPA   H72S     HAL2     0.900000E-01   1.00800           0
     37769 LPSA35   1        ECLIPA   CB2      CC3161   0.700000E-01   12.0110           0
     37770 LPSA35   1        ECLIPA   HB2      HCA1     0.900000E-01   1.00800           0
     37771 LPSA35   1        ECLIPA   NB2      NC2D1   -0.470000       14.0070           0
     37772 LPSA35   1        ECLIPA   HNB2     HCP1     0.310000       1.00800           0
     37773 LPSA35   1        ECLIPA   CA4      CC3161   0.140000       12.0110           0
     37774 LPSA35   1        ECLIPA   HA4      HCA1     0.900000E-01   1.00800           0
     37775 LPSA35   1        ECLIPA   OA4      OC311   -0.650000       15.9994           0
     37776 LPSA35   1        ECLIPA   HOA4     HCP1     0.420000       1.00800           0
     37777 LPSA35   1        ECLIPA   CA5      CC3163   0.110000       12.0110           0
     37778 LPSA35   1        ECLIPA   HA5      HCA1     0.900000E-01   1.00800           0
     37779 LPSA35   1        ECLIPA   OA5      OC3C61  -0.400000       15.9994           0
     37780 LPSA35   1        ECLIPA   CA1      CC3162   0.110000       12.0110           0
     37781 LPSA35   1        ECLIPA   HA1      HCA1     0.900000E-01   1.00800           0
     37782 LPSA35   1        ECLIPA   OA1      OC30P   -0.400000       15.9994           0
     37783 LPSA35   1        ECLIPA   OPA2     OC2DP   -0.900000       15.9994           0
     37784 LPSA35   1        ECLIPA   OPA3     OC2DP   -0.900000       15.9994           0
     37785 LPSA35   1        ECLIPA   OPA4     OC2DP   -0.900000       15.9994           0
     37786 LPSA35   1        ECLIPA   PA       PC        1.10000       30.9740           0
     37787 LPSA35   1        ECLIPA   CA3      CC3161   0.170000       12.0110           0
     37788 LPSA35   1        ECLIPA   HA3      HCA1     0.900000E-01   1.00800           0
     37789 LPSA35   1        ECLIPA   OA3      OC301   -0.490000       15.9994           0
     37790 LPSA35   1        ECLIPA   C31      CL       0.900000       12.0110           0
     37791 LPSA35   1        ECLIPA   O31      OBL     -0.630000       15.9994           0
     37792 LPSA35   1        ECLIPA   C32      CTL2    -0.220000       12.0110           0
     37793 LPSA35   1        ECLIPA   H32R     HAL2     0.900000E-01   1.00800           0
     37794 LPSA35   1        ECLIPA   H32S     HAL2     0.900000E-01   1.00800           0
     37795 LPSA35   1        ECLIPA   CA2      CC3161   0.700000E-01   12.0110           0
     37796 LPSA35   1        ECLIPA   HA2      HCA1     0.900000E-01   1.00800           0
     37797 LPSA35   1        ECLIPA   NA2      NC2D1   -0.470000       14.0070           0
     37798 LPSA35   1        ECLIPA   HNA2     HCP1     0.310000       1.00800           0
     37799 LPSA35   1        ECLIPA   C73      CTL1     0.170000       12.0110           0
     37800 LPSA35   1        ECLIPA   H73R     HAL1     0.900000E-01   1.00800           0
     37801 LPSA35   1        ECLIPA   O73      OSL     -0.490000       15.9994           0
     37802 LPSA35   1        ECLIPA   C81      CL       0.900000       12.0110           0
     37803 LPSA35   1        ECLIPA   O81      OBL     -0.630000       15.9994           0
     37804 LPSA35   1        ECLIPA   C82      CTL2    -0.220000       12.0110           0
     37805 LPSA35   1        ECLIPA   H82R     HAL2     0.900000E-01   1.00800           0
     37806 LPSA35   1        ECLIPA   H82S     HAL2     0.900000E-01   1.00800           0
     37807 LPSA35   1        ECLIPA   C83      CTL2    -0.180000       12.0110           0
     37808 LPSA35   1        ECLIPA   H83R     HAL2     0.900000E-01   1.00800           0
     37809 LPSA35   1        ECLIPA   H83S     HAL2     0.900000E-01   1.00800           0
     37810 LPSA35   1        ECLIPA   C84      CTL2    -0.180000       12.0110           0
     37811 LPSA35   1        ECLIPA   H84R     HAL2     0.900000E-01   1.00800           0
     37812 LPSA35   1        ECLIPA   H84S     HAL2     0.900000E-01   1.00800           0
     37813 LPSA35   1        ECLIPA   C85      CTL2    -0.180000       12.0110           0
     37814 LPSA35   1        ECLIPA   H85R     HAL2     0.900000E-01   1.00800           0
     37815 LPSA35   1        ECLIPA   H85S     HAL2     0.900000E-01   1.00800           0
     37816 LPSA35   1        ECLIPA   C86      CTL2    -0.180000       12.0110           0
     37817 LPSA35   1        ECLIPA   H86R     HAL2     0.900000E-01   1.00800           0
     37818 LPSA35   1        ECLIPA   H86S     HAL2     0.900000E-01   1.00800           0
     37819 LPSA35   1        ECLIPA   C87      CTL2    -0.180000       12.0110           0
     37820 LPSA35   1        ECLIPA   H87R     HAL2     0.900000E-01   1.00800           0
     37821 LPSA35   1        ECLIPA   H87S     HAL2     0.900000E-01   1.00800           0
     37822 LPSA35   1        ECLIPA   C88      CTL2    -0.180000       12.0110           0
     37823 LPSA35   1        ECLIPA   H88R     HAL2     0.900000E-01   1.00800           0
     37824 LPSA35   1        ECLIPA   H88S     HAL2     0.900000E-01   1.00800           0
     37825 LPSA35   1        ECLIPA   C89      CTL2    -0.180000       12.0110           0
     37826 LPSA35   1        ECLIPA   H89R     HAL2     0.900000E-01   1.00800           0
     37827 LPSA35   1        ECLIPA   H89S     HAL2     0.900000E-01   1.00800           0
     37828 LPSA35   1        ECLIPA   C810     CTL2    -0.180000       12.0110           0
     37829 LPSA35   1        ECLIPA   H810R    HAL2     0.900000E-01   1.00800           0
     37830 LPSA35   1        ECLIPA   H810S    HAL2     0.900000E-01   1.00800           0
     37831 LPSA35   1        ECLIPA   C811     CTL2    -0.180000       12.0110           0
     37832 LPSA35   1        ECLIPA   H811R    HAL2     0.900000E-01   1.00800           0
     37833 LPSA35   1        ECLIPA   H811S    HAL2     0.900000E-01   1.00800           0
     37834 LPSA35   1        ECLIPA   C812     CTL2    -0.180000       12.0110           0
     37835 LPSA35   1        ECLIPA   H812R    HAL2     0.900000E-01   1.00800           0
     37836 LPSA35   1        ECLIPA   H812S    HAL2     0.900000E-01   1.00800           0
     37837 LPSA35   1        ECLIPA   C813     CTL2    -0.180000       12.0110           0
     37838 LPSA35   1        ECLIPA   H813R    HAL2     0.900000E-01   1.00800           0
     37839 LPSA35   1        ECLIPA   H813S    HAL2     0.900000E-01   1.00800           0
     37840 LPSA35   1        ECLIPA   C814     CTL3    -0.270000       12.0110           0
     37841 LPSA35   1        ECLIPA   H814R    HAL3     0.900000E-01   1.00800           0
     37842 LPSA35   1        ECLIPA   H814S    HAL3     0.900000E-01   1.00800           0
     37843 LPSA35   1        ECLIPA   H814T    HAL3     0.900000E-01   1.00800           0
     37844 LPSA35   1        ECLIPA   C74      CTL2    -0.180000       12.0110           0
     37845 LPSA35   1        ECLIPA   H74R     HAL2     0.900000E-01   1.00800           0
     37846 LPSA35   1        ECLIPA   H74S     HAL2     0.900000E-01   1.00800           0
     37847 LPSA35   1        ECLIPA   C75      CTL2    -0.180000       12.0110           0
     37848 LPSA35   1        ECLIPA   H75R     HAL2     0.900000E-01   1.00800           0
     37849 LPSA35   1        ECLIPA   H75S     HAL2     0.900000E-01   1.00800           0
     37850 LPSA35   1        ECLIPA   C76      CTL2    -0.180000       12.0110           0
     37851 LPSA35   1        ECLIPA   H76R     HAL2     0.900000E-01   1.00800           0
     37852 LPSA35   1        ECLIPA   H76S     HAL2     0.900000E-01   1.00800           0
     37853 LPSA35   1        ECLIPA   C77      CTL2    -0.180000       12.0110           0
     37854 LPSA35   1        ECLIPA   H77R     HAL2     0.900000E-01   1.00800           0
     37855 LPSA35   1        ECLIPA   H77S     HAL2     0.900000E-01   1.00800           0
     37856 LPSA35   1        ECLIPA   C78      CTL2    -0.180000       12.0110           0
     37857 LPSA35   1        ECLIPA   H78R     HAL2     0.900000E-01   1.00800           0
     37858 LPSA35   1        ECLIPA   H78S     HAL2     0.900000E-01   1.00800           0
     37859 LPSA35   1        ECLIPA   C79      CTL2    -0.180000       12.0110           0
     37860 LPSA35   1        ECLIPA   H79R     HAL2     0.900000E-01   1.00800           0
     37861 LPSA35   1        ECLIPA   H79S     HAL2     0.900000E-01   1.00800           0
     37862 LPSA35   1        ECLIPA   C710     CTL2    -0.180000       12.0110           0
     37863 LPSA35   1        ECLIPA   H710R    HAL2     0.900000E-01   1.00800           0
     37864 LPSA35   1        ECLIPA   H710S    HAL2     0.900000E-01   1.00800           0
     37865 LPSA35   1        ECLIPA   C711     CTL2    -0.180000       12.0110           0
     37866 LPSA35   1        ECLIPA   H711R    HAL2     0.900000E-01   1.00800           0
     37867 LPSA35   1        ECLIPA   H711S    HAL2     0.900000E-01   1.00800           0
     37868 LPSA35   1        ECLIPA   C712     CTL2    -0.180000       12.0110           0
     37869 LPSA35   1        ECLIPA   H712R    HAL2     0.900000E-01   1.00800           0
     37870 LPSA35   1        ECLIPA   H712S    HAL2     0.900000E-01   1.00800           0
     37871 LPSA35   1        ECLIPA   C713     CTL2    -0.180000       12.0110           0
     37872 LPSA35   1        ECLIPA   H713R    HAL2     0.900000E-01   1.00800           0
     37873 LPSA35   1        ECLIPA   H713S    HAL2     0.900000E-01   1.00800           0
     37874 LPSA35   1        ECLIPA   C714     CTL3    -0.270000       12.0110           0
     37875 LPSA35   1        ECLIPA   H714R    HAL3     0.900000E-01   1.00800           0
     37876 LPSA35   1        ECLIPA   H714S    HAL3     0.900000E-01   1.00800           0
     37877 LPSA35   1        ECLIPA   H714T    HAL3     0.900000E-01   1.00800           0
     37878 LPSA35   1        ECLIPA   C51      CC2O1    0.550000       12.0110           0
     37879 LPSA35   1        ECLIPA   O51      OC2D1   -0.550000       15.9994           0
     37880 LPSA35   1        ECLIPA   C52      CTL2    -0.180000       12.0110           0
     37881 LPSA35   1        ECLIPA   H52R     HAL2     0.900000E-01   1.00800           0
     37882 LPSA35   1        ECLIPA   H52S     HAL2     0.900000E-01   1.00800           0
     37883 LPSA35   1        ECLIPA   C53      CTL1     0.170000       12.0110           0
     37884 LPSA35   1        ECLIPA   H53R     HAL1     0.900000E-01   1.00800           0
     37885 LPSA35   1        ECLIPA   O53      OSL     -0.490000       15.9994           0
     37886 LPSA35   1        ECLIPA   C61      CL       0.900000       12.0110           0
     37887 LPSA35   1        ECLIPA   O61      OBL     -0.630000       15.9994           0
     37888 LPSA35   1        ECLIPA   C62      CTL2    -0.220000       12.0110           0
     37889 LPSA35   1        ECLIPA   H62R     HAL2     0.900000E-01   1.00800           0
     37890 LPSA35   1        ECLIPA   H62S     HAL2     0.900000E-01   1.00800           0
     37891 LPSA35   1        ECLIPA   C63      CTL2    -0.180000       12.0110           0
     37892 LPSA35   1        ECLIPA   H63R     HAL2     0.900000E-01   1.00800           0
     37893 LPSA35   1        ECLIPA   H63S     HAL2     0.900000E-01   1.00800           0
     37894 LPSA35   1        ECLIPA   C64      CTL2    -0.180000       12.0110           0
     37895 LPSA35   1        ECLIPA   H64R     HAL2     0.900000E-01   1.00800           0
     37896 LPSA35   1        ECLIPA   H64S     HAL2     0.900000E-01   1.00800           0
     37897 LPSA35   1        ECLIPA   C65      CTL2    -0.180000       12.0110           0
     37898 LPSA35   1        ECLIPA   H65R     HAL2     0.900000E-01   1.00800           0
     37899 LPSA35   1        ECLIPA   H65S     HAL2     0.900000E-01   1.00800           0
     37900 LPSA35   1        ECLIPA   C66      CTL2    -0.180000       12.0110           0
     37901 LPSA35   1        ECLIPA   H66R     HAL2     0.900000E-01   1.00800           0
     37902 LPSA35   1        ECLIPA   H66S     HAL2     0.900000E-01   1.00800           0
     37903 LPSA35   1        ECLIPA   C67      CTL2    -0.180000       12.0110           0
     37904 LPSA35   1        ECLIPA   H67R     HAL2     0.900000E-01   1.00800           0
     37905 LPSA35   1        ECLIPA   H67S     HAL2     0.900000E-01   1.00800           0
     37906 LPSA35   1        ECLIPA   C68      CTL2    -0.180000       12.0110           0
     37907 LPSA35   1        ECLIPA   H68R     HAL2     0.900000E-01   1.00800           0
     37908 LPSA35   1        ECLIPA   H68S     HAL2     0.900000E-01   1.00800           0
     37909 LPSA35   1        ECLIPA   C69      CTL2    -0.180000       12.0110           0
     37910 LPSA35   1        ECLIPA   H69R     HAL2     0.900000E-01   1.00800           0
     37911 LPSA35   1        ECLIPA   H69S     HAL2     0.900000E-01   1.00800           0
     37912 LPSA35   1        ECLIPA   C610     CTL2    -0.180000       12.0110           0
     37913 LPSA35   1        ECLIPA   H610R    HAL2     0.900000E-01   1.00800           0
     37914 LPSA35   1        ECLIPA   H610S    HAL2     0.900000E-01   1.00800           0
     37915 LPSA35   1        ECLIPA   C611     CTL2    -0.180000       12.0110           0
     37916 LPSA35   1        ECLIPA   H611R    HAL2     0.900000E-01   1.00800           0
     37917 LPSA35   1        ECLIPA   H611S    HAL2     0.900000E-01   1.00800           0
     37918 LPSA35   1        ECLIPA   C612     CTL3    -0.270000       12.0110           0
     37919 LPSA35   1        ECLIPA   H612R    HAL3     0.900000E-01   1.00800           0
     37920 LPSA35   1        ECLIPA   H612S    HAL3     0.900000E-01   1.00800           0
     37921 LPSA35   1        ECLIPA   H612T    HAL3     0.900000E-01   1.00800           0
     37922 LPSA35   1        ECLIPA   C54      CTL2    -0.180000       12.0110           0
     37923 LPSA35   1        ECLIPA   H54R     HAL2     0.900000E-01   1.00800           0
     37924 LPSA35   1        ECLIPA   H54S     HAL2     0.900000E-01   1.00800           0
     37925 LPSA35   1        ECLIPA   C55      CTL2    -0.180000       12.0110           0
     37926 LPSA35   1        ECLIPA   H55R     HAL2     0.900000E-01   1.00800           0
     37927 LPSA35   1        ECLIPA   H55S     HAL2     0.900000E-01   1.00800           0
     37928 LPSA35   1        ECLIPA   C56      CTL2    -0.180000       12.0110           0
     37929 LPSA35   1        ECLIPA   H56R     HAL2     0.900000E-01   1.00800           0
     37930 LPSA35   1        ECLIPA   H56S     HAL2     0.900000E-01   1.00800           0
     37931 LPSA35   1        ECLIPA   C57      CTL2    -0.180000       12.0110           0
     37932 LPSA35   1        ECLIPA   H57R     HAL2     0.900000E-01   1.00800           0
     37933 LPSA35   1        ECLIPA   H57S     HAL2     0.900000E-01   1.00800           0
     37934 LPSA35   1        ECLIPA   C58      CTL2    -0.180000       12.0110           0
     37935 LPSA35   1        ECLIPA   H58R     HAL2     0.900000E-01   1.00800           0
     37936 LPSA35   1        ECLIPA   H58S     HAL2     0.900000E-01   1.00800           0
     37937 LPSA35   1        ECLIPA   C59      CTL2    -0.180000       12.0110           0
     37938 LPSA35   1        ECLIPA   H59R     HAL2     0.900000E-01   1.00800           0
     37939 LPSA35   1        ECLIPA   H59S     HAL2     0.900000E-01   1.00800           0
     37940 LPSA35   1        ECLIPA   C510     CTL2    -0.180000       12.0110           0
     37941 LPSA35   1        ECLIPA   H510R    HAL2     0.900000E-01   1.00800           0
     37942 LPSA35   1        ECLIPA   H510S    HAL2     0.900000E-01   1.00800           0
     37943 LPSA35   1        ECLIPA   C511     CTL2    -0.180000       12.0110           0
     37944 LPSA35   1        ECLIPA   H511R    HAL2     0.900000E-01   1.00800           0
     37945 LPSA35   1        ECLIPA   H511S    HAL2     0.900000E-01   1.00800           0
     37946 LPSA35   1        ECLIPA   C512     CTL2    -0.180000       12.0110           0
     37947 LPSA35   1        ECLIPA   H512R    HAL2     0.900000E-01   1.00800           0
     37948 LPSA35   1        ECLIPA   H512S    HAL2     0.900000E-01   1.00800           0
     37949 LPSA35   1        ECLIPA   C513     CTL2    -0.180000       12.0110           0
     37950 LPSA35   1        ECLIPA   H513R    HAL2     0.900000E-01   1.00800           0
     37951 LPSA35   1        ECLIPA   H513S    HAL2     0.900000E-01   1.00800           0
     37952 LPSA35   1        ECLIPA   C514     CTL3    -0.270000       12.0110           0
     37953 LPSA35   1        ECLIPA   H514R    HAL3     0.900000E-01   1.00800           0
     37954 LPSA35   1        ECLIPA   H514S    HAL3     0.900000E-01   1.00800           0
     37955 LPSA35   1        ECLIPA   H514T    HAL3     0.900000E-01   1.00800           0
     37956 LPSA35   1        ECLIPA   C33      CTL1     0.140000       12.0110           0
     37957 LPSA35   1        ECLIPA   H33R     HAL1     0.900000E-01   1.00800           0
     37958 LPSA35   1        ECLIPA   O33      OH1     -0.660000       15.9994           0
     37959 LPSA35   1        ECLIPA   HO33     H        0.430000       1.00800           0
     37960 LPSA35   1        ECLIPA   C34      CTL2    -0.180000       12.0110           0
     37961 LPSA35   1        ECLIPA   H34R     HAL2     0.900000E-01   1.00800           0
     37962 LPSA35   1        ECLIPA   H34S     HAL2     0.900000E-01   1.00800           0
     37963 LPSA35   1        ECLIPA   C35      CTL2    -0.180000       12.0110           0
     37964 LPSA35   1        ECLIPA   H35R     HAL2     0.900000E-01   1.00800           0
     37965 LPSA35   1        ECLIPA   H35S     HAL2     0.900000E-01   1.00800           0
     37966 LPSA35   1        ECLIPA   C36      CTL2    -0.180000       12.0110           0
     37967 LPSA35   1        ECLIPA   H36R     HAL2     0.900000E-01   1.00800           0
     37968 LPSA35   1        ECLIPA   H36S     HAL2     0.900000E-01   1.00800           0
     37969 LPSA35   1        ECLIPA   C37      CTL2    -0.180000       12.0110           0
     37970 LPSA35   1        ECLIPA   H37R     HAL2     0.900000E-01   1.00800           0
     37971 LPSA35   1        ECLIPA   H37S     HAL2     0.900000E-01   1.00800           0
     37972 LPSA35   1        ECLIPA   C38      CTL2    -0.180000       12.0110           0
     37973 LPSA35   1        ECLIPA   H38R     HAL2     0.900000E-01   1.00800           0
     37974 LPSA35   1        ECLIPA   H38S     HAL2     0.900000E-01   1.00800           0
     37975 LPSA35   1        ECLIPA   C39      CTL2    -0.180000       12.0110           0
     37976 LPSA35   1        ECLIPA   H39R     HAL2     0.900000E-01   1.00800           0
     37977 LPSA35   1        ECLIPA   H39S     HAL2     0.900000E-01   1.00800           0
     37978 LPSA35   1        ECLIPA   C310     CTL2    -0.180000       12.0110           0
     37979 LPSA35   1        ECLIPA   H310R    HAL2     0.900000E-01   1.00800           0
     37980 LPSA35   1        ECLIPA   H310S    HAL2     0.900000E-01   1.00800           0
     37981 LPSA35   1        ECLIPA   C311     CTL2    -0.180000       12.0110           0
     37982 LPSA35   1        ECLIPA   H311R    HAL2     0.900000E-01   1.00800           0
     37983 LPSA35   1        ECLIPA   H311S    HAL2     0.900000E-01   1.00800           0
     37984 LPSA35   1        ECLIPA   C312     CTL2    -0.180000       12.0110           0
     37985 LPSA35   1        ECLIPA   H312R    HAL2     0.900000E-01   1.00800           0
     37986 LPSA35   1        ECLIPA   H312S    HAL2     0.900000E-01   1.00800           0
     37987 LPSA35   1        ECLIPA   C313     CTL2    -0.180000       12.0110           0
     37988 LPSA35   1        ECLIPA   H313R    HAL2     0.900000E-01   1.00800           0
     37989 LPSA35   1        ECLIPA   H313S    HAL2     0.900000E-01   1.00800           0
     37990 LPSA35   1        ECLIPA   C314     CTL3    -0.270000       12.0110           0
     37991 LPSA35   1        ECLIPA   H314R    HAL3     0.900000E-01   1.00800           0
     37992 LPSA35   1        ECLIPA   H314S    HAL3     0.900000E-01   1.00800           0
     37993 LPSA35   1        ECLIPA   H314T    HAL3     0.900000E-01   1.00800           0
     37994 LPSA35   1        ECLIPA   C11      CC2O1    0.550000       12.0110           0
     37995 LPSA35   1        ECLIPA   O11      OC2D1   -0.550000       15.9994           0
     37996 LPSA35   1        ECLIPA   C12      CTL2    -0.180000       12.0110           0
     37997 LPSA35   1        ECLIPA   H12R     HAL2     0.900000E-01   1.00800           0
     37998 LPSA35   1        ECLIPA   H12S     HAL2     0.900000E-01   1.00800           0
     37999 LPSA35   1        ECLIPA   C13      CTL1     0.140000       12.0110           0
     38000 LPSA35   1        ECLIPA   H13R     HAL1     0.900000E-01   1.00800           0
     38001 LPSA35   1        ECLIPA   O13      OH1     -0.660000       15.9994           0
     38002 LPSA35   1        ECLIPA   HO13     H        0.430000       1.00800           0
     38003 LPSA35   1        ECLIPA   C14      CTL2    -0.180000       12.0110           0
     38004 LPSA35   1        ECLIPA   H14R     HAL2     0.900000E-01   1.00800           0
     38005 LPSA35   1        ECLIPA   H14S     HAL2     0.900000E-01   1.00800           0
     38006 LPSA35   1        ECLIPA   C15      CTL2    -0.180000       12.0110           0
     38007 LPSA35   1        ECLIPA   H15R     HAL2     0.900000E-01   1.00800           0
     38008 LPSA35   1        ECLIPA   H15S     HAL2     0.900000E-01   1.00800           0
     38009 LPSA35   1        ECLIPA   C16      CTL2    -0.180000       12.0110           0
     38010 LPSA35   1        ECLIPA   H16R     HAL2     0.900000E-01   1.00800           0
     38011 LPSA35   1        ECLIPA   H16S     HAL2     0.900000E-01   1.00800           0
     38012 LPSA35   1        ECLIPA   C17      CTL2    -0.180000       12.0110           0
     38013 LPSA35   1        ECLIPA   H17R     HAL2     0.900000E-01   1.00800           0
     38014 LPSA35   1        ECLIPA   H17S     HAL2     0.900000E-01   1.00800           0
     38015 LPSA35   1        ECLIPA   C18      CTL2    -0.180000       12.0110           0
     38016 LPSA35   1        ECLIPA   H18R     HAL2     0.900000E-01   1.00800           0
     38017 LPSA35   1        ECLIPA   H18S     HAL2     0.900000E-01   1.00800           0
     38018 LPSA35   1        ECLIPA   C19      CTL2    -0.180000       12.0110           0
     38019 LPSA35   1        ECLIPA   H19R     HAL2     0.900000E-01   1.00800           0
     38020 LPSA35   1        ECLIPA   H19S     HAL2     0.900000E-01   1.00800           0
     38021 LPSA35   1        ECLIPA   C110     CTL2    -0.180000       12.0110           0
     38022 LPSA35   1        ECLIPA   H110R    HAL2     0.900000E-01   1.00800           0
     38023 LPSA35   1        ECLIPA   H110S    HAL2     0.900000E-01   1.00800           0
     38024 LPSA35   1        ECLIPA   C111     CTL2    -0.180000       12.0110           0
     38025 LPSA35   1        ECLIPA   H111R    HAL2     0.900000E-01   1.00800           0
     38026 LPSA35   1        ECLIPA   H111S    HAL2     0.900000E-01   1.00800           0
     38027 LPSA35   1        ECLIPA   C112     CTL2    -0.180000       12.0110           0
     38028 LPSA35   1        ECLIPA   H112R    HAL2     0.900000E-01   1.00800           0
     38029 LPSA35   1        ECLIPA   H112S    HAL2     0.900000E-01   1.00800           0
     38030 LPSA35   1        ECLIPA   C113     CTL2    -0.180000       12.0110           0
     38031 LPSA35   1        ECLIPA   H113R    HAL2     0.900000E-01   1.00800           0
     38032 LPSA35   1        ECLIPA   H113S    HAL2     0.900000E-01   1.00800           0
     38033 LPSA35   1        ECLIPA   C114     CTL3    -0.270000       12.0110           0
     38034 LPSA35   1        ECLIPA   H114R    HAL3     0.900000E-01   1.00800           0
     38035 LPSA35   1        ECLIPA   H114S    HAL3     0.900000E-01   1.00800           0
     38036 LPSA35   1        ECLIPA   H114T    HAL3     0.900000E-01   1.00800           0
     38037 LPSA35   2        AKDO     C1       CC2O2    0.300000       12.0110           0
     38038 LPSA35   2        AKDO     O11      OC2D2   -0.600000       15.9994           0
     38039 LPSA35   2        AKDO     O12      OC2D2   -0.600000       15.9994           0
     38040 LPSA35   2        AKDO     C2       CC3062   0.280000       12.0110           0
     38041 LPSA35   2        AKDO     C6       CC3163   0.110000       12.0110           0
     38042 LPSA35   2        AKDO     H6       HCA1     0.900000E-01   1.00800           0
     38043 LPSA35   2        AKDO     O6       OC3C61  -0.400000       15.9994           0
     38044 LPSA35   2        AKDO     C3       CC3261  -0.180000       12.0110           0
     38045 LPSA35   2        AKDO     H31      HCA2     0.900000E-01   1.00800           0
     38046 LPSA35   2        AKDO     H32      HCA2     0.900000E-01   1.00800           0
     38047 LPSA35   2        AKDO     C4       CC3161   0.900000E-01   12.0110           0
     38048 LPSA35   2        AKDO     H4       HCA1     0.900000E-01   1.00800           0
     38049 LPSA35   2        AKDO     O4       OC301   -0.360000       15.9994           0
     38050 LPSA35   2        AKDO     C5       CC3161   0.900000E-01   12.0110           0
     38051 LPSA35   2        AKDO     H5       HCA1     0.900000E-01   1.00800           0
     38052 LPSA35   2        AKDO     O5       OC301   -0.360000       15.9994           0
     38053 LPSA35   2        AKDO     C7       CC312    0.140000       12.0110           0
     38054 LPSA35   2        AKDO     H7       HCA1     0.900000E-01   1.00800           0
     38055 LPSA35   2        AKDO     O7       OC311   -0.650000       15.9994           0
     38056 LPSA35   2        AKDO     HO7      HCP1     0.420000       1.00800           0
     38057 LPSA35   2        AKDO     C8       CC322    0.500000E-01   12.0110           0
     38058 LPSA35   2        AKDO     H81      HCA2     0.900000E-01   1.00800           0
     38059 LPSA35   2        AKDO     H82      HCA2     0.900000E-01   1.00800           0
     38060 LPSA35   2        AKDO     O8       OC311   -0.650000       15.9994           0
     38061 LPSA35   2        AKDO     HO8      HCP1     0.420000       1.00800           0
     38062 LPSA35   3        AKDO     C1       CC2O2    0.300000       12.0110           0
     38063 LPSA35   3        AKDO     O11      OC2D2   -0.600000       15.9994           0
     38064 LPSA35   3        AKDO     O12      OC2D2   -0.600000       15.9994           0
     38065 LPSA35   3        AKDO     C2       CC3062   0.280000       12.0110           0
     38066 LPSA35   3        AKDO     C6       CC3163   0.110000       12.0110           0
     38067 LPSA35   3        AKDO     H6       HCA1     0.900000E-01   1.00800           0
     38068 LPSA35   3        AKDO     O6       OC3C61  -0.400000       15.9994           0
     38069 LPSA35   3        AKDO     C3       CC3261  -0.180000       12.0110           0
     38070 LPSA35   3        AKDO     H31      HCA2     0.900000E-01   1.00800           0
     38071 LPSA35   3        AKDO     H32      HCA2     0.900000E-01   1.00800           0
     38072 LPSA35   3        AKDO     C4       CC3161   0.140000       12.0110           0
     38073 LPSA35   3        AKDO     H4       HCA1     0.900000E-01   1.00800           0
     38074 LPSA35   3        AKDO     O4       OC311   -0.650000       15.9994           0
     38075 LPSA35   3        AKDO     HO4      HCP1     0.420000       1.00800           0
     38076 LPSA35   3        AKDO     C5       CC3161   0.140000       12.0110           0
     38077 LPSA35   3        AKDO     H5       HCA1     0.900000E-01   1.00800           0
     38078 LPSA35   3        AKDO     O5       OC311   -0.650000       15.9994           0
     38079 LPSA35   3        AKDO     HO5      HCP1     0.420000       1.00800           0
     38080 LPSA35   3        AKDO     C7       CC312    0.140000       12.0110           0
     38081 LPSA35   3        AKDO     H7       HCA1     0.900000E-01   1.00800           0
     38082 LPSA35   3        AKDO     O7       OC311   -0.650000       15.9994           0
     38083 LPSA35   3        AKDO     HO7      HCP1     0.420000       1.00800           0
     38084 LPSA35   3        AKDO     C8       CC322    0.500000E-01   12.0110           0
     38085 LPSA35   3        AKDO     H81      HCA2     0.900000E-01   1.00800           0
     38086 LPSA35   3        AKDO     H82      HCA2     0.900000E-01   1.00800           0
     38087 LPSA35   3        AKDO     O8       OC311   -0.650000       15.9994           0
     38088 LPSA35   3        AKDO     HO8      HCP1     0.420000       1.00800           0
     38089 LPSA35   4        AHEP     C1       CC3162   0.290000       12.0110           0
     38090 LPSA35   4        AHEP     H1       HCA1     0.900000E-01   1.00800           0
     38091 LPSA35   4        AHEP     C5       CC3163   0.110000       12.0110           0
     38092 LPSA35   4        AHEP     H5       HCA1     0.900000E-01   1.00800           0
     38093 LPSA35   4        AHEP     O5       OC3C61  -0.400000       15.9994           0
     38094 LPSA35   4        AHEP     C2       CC3161   0.140000       12.0110           0
     38095 LPSA35   4        AHEP     H2       HCA1     0.900000E-01   1.00800           0
     38096 LPSA35   4        AHEP     O2       OC311   -0.650000       15.9994           0
     38097 LPSA35   4        AHEP     HO2      HCP1     0.420000       1.00800           0
     38098 LPSA35   4        AHEP     C3       CC3161   0.900000E-01   12.0110           0
     38099 LPSA35   4        AHEP     H3       HCA1     0.900000E-01   1.00800           0
     38100 LPSA35   4        AHEP     O3       OC301   -0.360000       15.9994           0
     38101 LPSA35   4        AHEP     C4       CC3161  -0.900000E-01   12.0110           0
     38102 LPSA35   4        AHEP     H4       HCA1     0.900000E-01   1.00800           0
     38103 LPSA35   4        AHEP     O4       OC30P   -0.400000       15.9994           0
     38104 LPSA35   4        AHEP     P4       PC        1.10000       30.9740           0
     38105 LPSA35   4        AHEP     OP42     OC2DP   -0.900000       15.9994           0
     38106 LPSA35   4        AHEP     OP43     OC2DP   -0.900000       15.9994           0
     38107 LPSA35   4        AHEP     OP44     OC2DP   -0.900000       15.9994           0
     38108 LPSA35   4        AHEP     C6       CC312    0.140000       12.0110           0
     38109 LPSA35   4        AHEP     H6       HCA1     0.900000E-01   1.00800           0
     38110 LPSA35   4        AHEP     O6       OC311   -0.650000       15.9994           0
     38111 LPSA35   4        AHEP     HO6      HCP1     0.420000       1.00800           0
     38112 LPSA35   4        AHEP     C7       CC322    0.500000E-01   12.0110           0
     38113 LPSA35   4        AHEP     H71      HCA2     0.900000E-01   1.00800           0
     38114 LPSA35   4        AHEP     H72      HCA2     0.900000E-01   1.00800           0
     38115 LPSA35   4        AHEP     O7       OC311   -0.650000       15.9994           0
     38116 LPSA35   4        AHEP     HO7      HCP1     0.420000       1.00800           0
     38117 LPSA35   5        AHEP     C1       CC3162   0.290000       12.0110           0
     38118 LPSA35   5        AHEP     H1       HCA1     0.900000E-01   1.00800           0
     38119 LPSA35   5        AHEP     C5       CC3163   0.110000       12.0110           0
     38120 LPSA35   5        AHEP     H5       HCA1     0.900000E-01   1.00800           0
     38121 LPSA35   5        AHEP     O5       OC3C61  -0.400000       15.9994           0
     38122 LPSA35   5        AHEP     C2       CC3161   0.140000       12.0110           0
     38123 LPSA35   5        AHEP     H2       HCA1     0.900000E-01   1.00800           0
     38124 LPSA35   5        AHEP     O2       OC311   -0.650000       15.9994           0
     38125 LPSA35   5        AHEP     HO2      HCP1     0.420000       1.00800           0
     38126 LPSA35   5        AHEP     C3       CC3161   0.900000E-01   12.0110           0
     38127 LPSA35   5        AHEP     H3       HCA1     0.900000E-01   1.00800           0
     38128 LPSA35   5        AHEP     O3       OC301   -0.360000       15.9994           0
     38129 LPSA35   5        AHEP     C4       CC3161  -0.900000E-01   12.0110           0
     38130 LPSA35   5        AHEP     H4       HCA1     0.900000E-01   1.00800           0
     38131 LPSA35   5        AHEP     O4       OC30P   -0.400000       15.9994           0
     38132 LPSA35   5        AHEP     P4       PC        1.10000       30.9740           0
     38133 LPSA35   5        AHEP     OP42     OC2DP   -0.900000       15.9994           0
     38134 LPSA35   5        AHEP     OP43     OC2DP   -0.900000       15.9994           0
     38135 LPSA35   5        AHEP     OP44     OC2DP   -0.900000       15.9994           0
     38136 LPSA35   5        AHEP     C6       CC312    0.140000       12.0110           0
     38137 LPSA35   5        AHEP     H6       HCA1     0.900000E-01   1.00800           0
     38138 LPSA35   5        AHEP     O6       OC311   -0.650000       15.9994           0
     38139 LPSA35   5        AHEP     HO6      HCP1     0.420000       1.00800           0
     38140 LPSA35   5        AHEP     C7       CC322     0.00000       12.0110           0
     38141 LPSA35   5        AHEP     H71      HCA2     0.900000E-01   1.00800           0
     38142 LPSA35   5        AHEP     H72      HCA2     0.900000E-01   1.00800           0
     38143 LPSA35   5        AHEP     O7       OC301   -0.360000       15.9994           0
     38144 LPSA35   6        AHEP     C1       CC3162   0.290000       12.0110           0
     38145 LPSA35   6        AHEP     H1       HCA1     0.900000E-01   1.00800           0
     38146 LPSA35   6        AHEP     C5       CC3163   0.110000       12.0110           0
     38147 LPSA35   6        AHEP     H5       HCA1     0.900000E-01   1.00800           0
     38148 LPSA35   6        AHEP     O5       OC3C61  -0.400000       15.9994           0
     38149 LPSA35   6        AHEP     C2       CC3161   0.140000       12.0110           0
     38150 LPSA35   6        AHEP     H2       HCA1     0.900000E-01   1.00800           0
     38151 LPSA35   6        AHEP     O2       OC311   -0.650000       15.9994           0
     38152 LPSA35   6        AHEP     HO2      HCP1     0.420000       1.00800           0
     38153 LPSA35   6        AHEP     C3       CC3161   0.140000       12.0110           0
     38154 LPSA35   6        AHEP     H3       HCA1     0.900000E-01   1.00800           0
     38155 LPSA35   6        AHEP     O3       OC311   -0.650000       15.9994           0
     38156 LPSA35   6        AHEP     HO3      HCP1     0.420000       1.00800           0
     38157 LPSA35   6        AHEP     C4       CC3161   0.140000       12.0110           0
     38158 LPSA35   6        AHEP     H4       HCA1     0.900000E-01   1.00800           0
     38159 LPSA35   6        AHEP     O4       OC311   -0.650000       15.9994           0
     38160 LPSA35   6        AHEP     HO4      HCP1     0.420000       1.00800           0
     38161 LPSA35   6        AHEP     C6       CC312    0.140000       12.0110           0
     38162 LPSA35   6        AHEP     H6       HCA1     0.900000E-01   1.00800           0
     38163 LPSA35   6        AHEP     O6       OC311   -0.650000       15.9994           0
     38164 LPSA35   6        AHEP     HO6      HCP1     0.420000       1.00800           0
     38165 LPSA35   6        AHEP     C7       CC322    0.500000E-01   12.0110           0
     38166 LPSA35   6        AHEP     H71      HCA2     0.900000E-01   1.00800           0
     38167 LPSA35   6        AHEP     H72      HCA2     0.900000E-01   1.00800           0
     38168 LPSA35   6        AHEP     O7       OC311   -0.650000       15.9994           0
     38169 LPSA35   6        AHEP     HO7      HCP1     0.420000       1.00800           0
     38170 LPSA35   7        AGLC     C1       CC3162   0.290000       12.0110           0
     38171 LPSA35   7        AGLC     H1       HCA1     0.900000E-01   1.00800           0
     38172 LPSA35   7        AGLC     C5       CC3163   0.110000       12.0110           0
     38173 LPSA35   7        AGLC     H5       HCA1     0.900000E-01   1.00800           0
     38174 LPSA35   7        AGLC     O5       OC3C61  -0.400000       15.9994           0
     38175 LPSA35   7        AGLC     C2       CC3161   0.140000       12.0110           0
     38176 LPSA35   7        AGLC     H2       HCA1     0.900000E-01   1.00800           0
     38177 LPSA35   7        AGLC     O2       OC311   -0.650000       15.9994           0
     38178 LPSA35   7        AGLC     HO2      HCP1     0.420000       1.00800           0
     38179 LPSA35   7        AGLC     C3       CC3161   0.900000E-01   12.0110           0
     38180 LPSA35   7        AGLC     H3       HCA1     0.900000E-01   1.00800           0
     38181 LPSA35   7        AGLC     O3       OC301   -0.360000       15.9994           0
     38182 LPSA35   7        AGLC     C4       CC3161   0.140000       12.0110           0
     38183 LPSA35   7        AGLC     H4       HCA1     0.900000E-01   1.00800           0
     38184 LPSA35   7        AGLC     O4       OC311   -0.650000       15.9994           0
     38185 LPSA35   7        AGLC     HO4      HCP1     0.420000       1.00800           0
     38186 LPSA35   7        AGLC     C6       CC321    0.500000E-01   12.0110           0
     38187 LPSA35   7        AGLC     H61      HCA2     0.900000E-01   1.00800           0
     38188 LPSA35   7        AGLC     H62      HCA2     0.900000E-01   1.00800           0
     38189 LPSA35   7        AGLC     O6       OC311   -0.650000       15.9994           0
     38190 LPSA35   7        AGLC     HO6      HCP1     0.420000       1.00800           0
     38191 LPSA35   8        AGLC     C1       CC3162   0.290000       12.0110           0
     38192 LPSA35   8        AGLC     H1       HCA1     0.900000E-01   1.00800           0
     38193 LPSA35   8        AGLC     C5       CC3163   0.110000       12.0110           0
     38194 LPSA35   8        AGLC     H5       HCA1     0.900000E-01   1.00800           0
     38195 LPSA35   8        AGLC     O5       OC3C61  -0.400000       15.9994           0
     38196 LPSA35   8        AGLC     C2       CC3161   0.900000E-01   12.0110           0
     38197 LPSA35   8        AGLC     H2       HCA1     0.900000E-01   1.00800           0
     38198 LPSA35   8        AGLC     O2       OC301   -0.360000       15.9994           0
     38199 LPSA35   8        AGLC     C3       CC3161   0.900000E-01   12.0110           0
     38200 LPSA35   8        AGLC     H3       HCA1     0.900000E-01   1.00800           0
     38201 LPSA35   8        AGLC     O3       OC301   -0.360000       15.9994           0
     38202 LPSA35   8        AGLC     C4       CC3161   0.140000       12.0110           0
     38203 LPSA35   8        AGLC     H4       HCA1     0.900000E-01   1.00800           0
     38204 LPSA35   8        AGLC     O4       OC311   -0.650000       15.9994           0
     38205 LPSA35   8        AGLC     HO4      HCP1     0.420000       1.00800           0
     38206 LPSA35   8        AGLC     C6       CC321    0.500000E-01   12.0110           0
     38207 LPSA35   8        AGLC     H61      HCA2     0.900000E-01   1.00800           0
     38208 LPSA35   8        AGLC     H62      HCA2     0.900000E-01   1.00800           0
     38209 LPSA35   8        AGLC     O6       OC311   -0.650000       15.9994           0
     38210 LPSA35   8        AGLC     HO6      HCP1     0.420000       1.00800           0
     38211 LPSA35   9        AGAL     C1       CC3162   0.290000       12.0110           0
     38212 LPSA35   9        AGAL     H1       HCA1     0.900000E-01   1.00800           0
     38213 LPSA35   9        AGAL     C5       CC3163   0.110000       12.0110           0
     38214 LPSA35   9        AGAL     H5       HCA1     0.900000E-01   1.00800           0
     38215 LPSA35   9        AGAL     O5       OC3C61  -0.400000       15.9994           0
     38216 LPSA35   9        AGAL     C2       CC3161   0.900000E-01   12.0110           0
     38217 LPSA35   9        AGAL     H2       HCA1     0.900000E-01   1.00800           0
     38218 LPSA35   9        AGAL     O2       OC301   -0.360000       15.9994           0
     38219 LPSA35   9        AGAL     C3       CC3161   0.140000       12.0110           0
     38220 LPSA35   9        AGAL     H3       HCA1     0.900000E-01   1.00800           0
     38221 LPSA35   9        AGAL     O3       OC311   -0.650000       15.9994           0
     38222 LPSA35   9        AGAL     HO3      HCP1     0.420000       1.00800           0
     38223 LPSA35   9        AGAL     C4       CC3161   0.140000       12.0110           0
     38224 LPSA35   9        AGAL     H4       HCA1     0.900000E-01   1.00800           0
     38225 LPSA35   9        AGAL     O4       OC311   -0.650000       15.9994           0
     38226 LPSA35   9        AGAL     HO4      HCP1     0.420000       1.00800           0
     38227 LPSA35   9        AGAL     C6       CC321    0.500000E-01   12.0110           0
     38228 LPSA35   9        AGAL     H61      HCA2     0.900000E-01   1.00800           0
     38229 LPSA35   9        AGAL     H62      HCA2     0.900000E-01   1.00800           0
     38230 LPSA35   9        AGAL     O6       OC311   -0.650000       15.9994           0
     38231 LPSA35   9        AGAL     HO6      HCP1     0.420000       1.00800           0
     38232 LPSA35   10       AGAL     C1       CC3162   0.290000       12.0110           0
     38233 LPSA35   10       AGAL     H1       HCA1     0.900000E-01   1.00800           0
     38234 LPSA35   10       AGAL     C5       CC3163   0.110000       12.0110           0
     38235 LPSA35   10       AGAL     H5       HCA1     0.900000E-01   1.00800           0
     38236 LPSA35   10       AGAL     O5       OC3C61  -0.400000       15.9994           0
     38237 LPSA35   10       AGAL     C2       CC3161   0.140000       12.0110           0
     38238 LPSA35   10       AGAL     H2       HCA1     0.900000E-01   1.00800           0
     38239 LPSA35   10       AGAL     O2       OC311   -0.650000       15.9994           0
     38240 LPSA35   10       AGAL     HO2      HCP1     0.420000       1.00800           0
     38241 LPSA35   10       AGAL     C3       CC3161   0.140000       12.0110           0
     38242 LPSA35   10       AGAL     H3       HCA1     0.900000E-01   1.00800           0
     38243 LPSA35   10       AGAL     O3       OC311   -0.650000       15.9994           0
     38244 LPSA35   10       AGAL     HO3      HCP1     0.420000       1.00800           0
     38245 LPSA35   10       AGAL     C4       CC3161   0.140000       12.0110           0
     38246 LPSA35   10       AGAL     H4       HCA1     0.900000E-01   1.00800           0
     38247 LPSA35   10       AGAL     O4       OC311   -0.650000       15.9994           0
     38248 LPSA35   10       AGAL     HO4      HCP1     0.420000       1.00800           0
     38249 LPSA35   10       AGAL     C6       CC321    0.500000E-01   12.0110           0
     38250 LPSA35   10       AGAL     H61      HCA2     0.900000E-01   1.00800           0
     38251 LPSA35   10       AGAL     H62      HCA2     0.900000E-01   1.00800           0
     38252 LPSA35   10       AGAL     O6       OC311   -0.650000       15.9994           0
     38253 LPSA35   10       AGAL     HO6      HCP1     0.420000       1.00800           0
     38254 LPSA35   11       BGLC     C1       CC3162   0.290000       12.0110           0
     38255 LPSA35   11       BGLC     H1       HCA1     0.900000E-01   1.00800           0
     38256 LPSA35   11       BGLC     C5       CC3163   0.110000       12.0110           0
     38257 LPSA35   11       BGLC     H5       HCA1     0.900000E-01   1.00800           0
     38258 LPSA35   11       BGLC     O5       OC3C61  -0.400000       15.9994           0
     38259 LPSA35   11       BGLC     C2       CC3161   0.140000       12.0110           0
     38260 LPSA35   11       BGLC     H2       HCA1     0.900000E-01   1.00800           0
     38261 LPSA35   11       BGLC     O2       OC311   -0.650000       15.9994           0
     38262 LPSA35   11       BGLC     HO2      HCP1     0.420000       1.00800           0
     38263 LPSA35   11       BGLC     C3       CC3161   0.900000E-01   12.0110           0
     38264 LPSA35   11       BGLC     H3       HCA1     0.900000E-01   1.00800           0
     38265 LPSA35   11       BGLC     O3       OC301   -0.360000       15.9994           0
     38266 LPSA35   11       BGLC     C4       CC3161   0.140000       12.0110           0
     38267 LPSA35   11       BGLC     H4       HCA1     0.900000E-01   1.00800           0
     38268 LPSA35   11       BGLC     O4       OC311   -0.650000       15.9994           0
     38269 LPSA35   11       BGLC     HO4      HCP1     0.420000       1.00800           0
     38270 LPSA35   11       BGLC     C6       CC321    0.500000E-01   12.0110           0
     38271 LPSA35   11       BGLC     H61      HCA2     0.900000E-01   1.00800           0
     38272 LPSA35   11       BGLC     H62      HCA2     0.900000E-01   1.00800           0
     38273 LPSA35   11       BGLC     O6       OC311   -0.650000       15.9994           0
     38274 LPSA35   11       BGLC     HO6      HCP1     0.420000       1.00800           0
     38275 LPSA35   12       BGLCNA   C1       CC3162   0.290000       12.0110           0
     38276 LPSA35   12       BGLCNA   H1       HCA1     0.900000E-01   1.00800           0
     38277 LPSA35   12       BGLCNA   C5       CC3163   0.110000       12.0110           0
     38278 LPSA35   12       BGLCNA   H5       HCA1     0.900000E-01   1.00800           0
     38279 LPSA35   12       BGLCNA   O5       OC3C61  -0.400000       15.9994           0
     38280 LPSA35   12       BGLCNA   C2       CC3161   0.700000E-01   12.0110           0
     38281 LPSA35   12       BGLCNA   H2       HCA1     0.900000E-01   1.00800           0
     38282 LPSA35   12       BGLCNA   N        NC2D1   -0.470000       14.0070           0
     38283 LPSA35   12       BGLCNA   HN       HCP1     0.310000       1.00800           0
     38284 LPSA35   12       BGLCNA   C        CC2O1    0.510000       12.0110           0
     38285 LPSA35   12       BGLCNA   O        OC2D1   -0.510000       15.9994           0
     38286 LPSA35   12       BGLCNA   CT       CC331   -0.270000       12.0110           0
     38287 LPSA35   12       BGLCNA   HT1      HCA3     0.900000E-01   1.00800           0
     38288 LPSA35   12       BGLCNA   HT2      HCA3     0.900000E-01   1.00800           0
     38289 LPSA35   12       BGLCNA   HT3      HCA3     0.900000E-01   1.00800           0
     38290 LPSA35   12       BGLCNA   C3       CC3161   0.900000E-01   12.0110           0
     38291 LPSA35   12       BGLCNA   H3       HCA1     0.900000E-01   1.00800           0
     38292 LPSA35   12       BGLCNA   O3       OC301   -0.360000       15.9994           0
     38293 LPSA35   12       BGLCNA   C4       CC3161   0.140000       12.0110           0
     38294 LPSA35   12       BGLCNA   H4       HCA1     0.900000E-01   1.00800           0
     38295 LPSA35   12       BGLCNA   O4       OC311   -0.650000       15.9994           0
     38296 LPSA35   12       BGLCNA   HO4      HCP1     0.420000       1.00800           0
     38297 LPSA35   12       BGLCNA   C6       CC321    0.500000E-01   12.0110           0
     38298 LPSA35   12       BGLCNA   H61      HCA2     0.900000E-01   1.00800           0
     38299 LPSA35   12       BGLCNA   H62      HCA2     0.900000E-01   1.00800           0
     38300 LPSA35   12       BGLCNA   O6       OC311   -0.650000       15.9994           0
     38301 LPSA35   12       BGLCNA   HO6      HCP1     0.420000       1.00800           0
     38302 LPSA35   13       AGAL     C1       CC3162   0.290000       12.0110           0
     38303 LPSA35   13       AGAL     H1       HCA1     0.900000E-01   1.00800           0
     38304 LPSA35   13       AGAL     C5       CC3163   0.110000       12.0110           0
     38305 LPSA35   13       AGAL     H5       HCA1     0.900000E-01   1.00800           0
     38306 LPSA35   13       AGAL     O5       OC3C61  -0.400000       15.9994           0
     38307 LPSA35   13       AGAL     C2       CC3161   0.900000E-01   12.0110           0
     38308 LPSA35   13       AGAL     H2       HCA1     0.900000E-01   1.00800           0
     38309 LPSA35   13       AGAL     O2       OC301   -0.360000       15.9994           0
     38310 LPSA35   13       AGAL     C3       CC3161   0.140000       12.0110           0
     38311 LPSA35   13       AGAL     H3       HCA1     0.900000E-01   1.00800           0
     38312 LPSA35   13       AGAL     O3       OC311   -0.650000       15.9994           0
     38313 LPSA35   13       AGAL     HO3      HCP1     0.420000       1.00800           0
     38314 LPSA35   13       AGAL     C4       CC3161   0.140000       12.0110           0
     38315 LPSA35   13       AGAL     H4       HCA1     0.900000E-01   1.00800           0
     38316 LPSA35   13       AGAL     O4       OC311   -0.650000       15.9994           0
     38317 LPSA35   13       AGAL     HO4      HCP1     0.420000       1.00800           0
     38318 LPSA35   13       AGAL     C6       CC321    0.500000E-01   12.0110           0
     38319 LPSA35   13       AGAL     H61      HCA2     0.900000E-01   1.00800           0
     38320 LPSA35   13       AGAL     H62      HCA2     0.900000E-01   1.00800           0
     38321 LPSA35   13       AGAL     O6       OC311   -0.650000       15.9994           0
     38322 LPSA35   13       AGAL     HO6      HCP1     0.420000       1.00800           0
     38323 LPSA35   14       ARHM     C1       CC3162   0.290000       12.0110           0
     38324 LPSA35   14       ARHM     H1       HCA1     0.900000E-01   1.00800           0
     38325 LPSA35   14       ARHM     C5       CC3163   0.110000       12.0110           0
     38326 LPSA35   14       ARHM     H5       HCA1     0.900000E-01   1.00800           0
     38327 LPSA35   14       ARHM     O5       OC3C61  -0.400000       15.9994           0
     38328 LPSA35   14       ARHM     C2       CC3161   0.900000E-01   12.0110           0
     38329 LPSA35   14       ARHM     H2       HCA1     0.900000E-01   1.00800           0
     38330 LPSA35   14       ARHM     O2       OC301   -0.360000       15.9994           0
     38331 LPSA35   14       ARHM     C3       CC3161   0.140000       12.0110           0
     38332 LPSA35   14       ARHM     H3       HCA1     0.900000E-01   1.00800           0
     38333 LPSA35   14       ARHM     O3       OC311   -0.650000       15.9994           0
     38334 LPSA35   14       ARHM     HO3      HCP1     0.420000       1.00800           0
     38335 LPSA35   14       ARHM     C4       CC3161   0.140000       12.0110           0
     38336 LPSA35   14       ARHM     H4       HCA1     0.900000E-01   1.00800           0
     38337 LPSA35   14       ARHM     O4       OC311   -0.650000       15.9994           0
     38338 LPSA35   14       ARHM     HO4      HCP1     0.420000       1.00800           0
     38339 LPSA35   14       ARHM     C6       CC331   -0.270000       12.0110           0
     38340 LPSA35   14       ARHM     H61      HCA3     0.900000E-01   1.00800           0
     38341 LPSA35   14       ARHM     H62      HCA3     0.900000E-01   1.00800           0
     38342 LPSA35   14       ARHM     H63      HCA3     0.900000E-01   1.00800           0
     38343 LPSA35   15       ARHM     C1       CC3162   0.290000       12.0110           0
     38344 LPSA35   15       ARHM     H1       HCA1     0.900000E-01   1.00800           0
     38345 LPSA35   15       ARHM     C5       CC3163   0.110000       12.0110           0
     38346 LPSA35   15       ARHM     H5       HCA1     0.900000E-01   1.00800           0
     38347 LPSA35   15       ARHM     O5       OC3C61  -0.400000       15.9994           0
     38348 LPSA35   15       ARHM     C2       CC3161   0.900000E-01   12.0110           0
     38349 LPSA35   15       ARHM     H2       HCA1     0.900000E-01   1.00800           0
     38350 LPSA35   15       ARHM     O2       OC301   -0.360000       15.9994           0
     38351 LPSA35   15       ARHM     C3       CC3161   0.900000E-01   12.0110           0
     38352 LPSA35   15       ARHM     H3       HCA1     0.900000E-01   1.00800           0
     38353 LPSA35   15       ARHM     O3       OC301   -0.360000       15.9994           0
     38354 LPSA35   15       ARHM     C4       CC3161   0.140000       12.0110           0
     38355 LPSA35   15       ARHM     H4       HCA1     0.900000E-01   1.00800           0
     38356 LPSA35   15       ARHM     O4       OC311   -0.650000       15.9994           0
     38357 LPSA35   15       ARHM     HO4      HCP1     0.420000       1.00800           0
     38358 LPSA35   15       ARHM     C6       CC331   -0.270000       12.0110           0
     38359 LPSA35   15       ARHM     H61      HCA3     0.900000E-01   1.00800           0
     38360 LPSA35   15       ARHM     H62      HCA3     0.900000E-01   1.00800           0
     38361 LPSA35   15       ARHM     H63      HCA3     0.900000E-01   1.00800           0
     38362 LPSA35   16       BMANNA   C1       CC3162   0.290000       12.0110           0
     38363 LPSA35   16       BMANNA   H1       HCA1     0.900000E-01   1.00800           0
     38364 LPSA35   16       BMANNA   C5       CC3163   0.110000       12.0110           0
     38365 LPSA35   16       BMANNA   H5       HCA1     0.900000E-01   1.00800           0
     38366 LPSA35   16       BMANNA   O5       OC3C61  -0.400000       15.9994           0
     38367 LPSA35   16       BMANNA   C2       CC3161   0.700000E-01   12.0110           0
     38368 LPSA35   16       BMANNA   H2       HCA1     0.900000E-01   1.00800           0
     38369 LPSA35   16       BMANNA   N        NC2D1   -0.470000       14.0070           0
     38370 LPSA35   16       BMANNA   HN       HCP1     0.310000       1.00800           0
     38371 LPSA35   16       BMANNA   C        CC2O1    0.510000       12.0110           0
     38372 LPSA35   16       BMANNA   O        OC2D1   -0.510000       15.9994           0
     38373 LPSA35   16       BMANNA   CT       CC331   -0.270000       12.0110           0
     38374 LPSA35   16       BMANNA   HT1      HCA3     0.900000E-01   1.00800           0
     38375 LPSA35   16       BMANNA   HT2      HCA3     0.900000E-01   1.00800           0
     38376 LPSA35   16       BMANNA   HT3      HCA3     0.900000E-01   1.00800           0
     38377 LPSA35   16       BMANNA   C3       CC3161   0.140000       12.0110           0
     38378 LPSA35   16       BMANNA   H3       HCA1     0.900000E-01   1.00800           0
     38379 LPSA35   16       BMANNA   O3       OC311   -0.650000       15.9994           0
     38380 LPSA35   16       BMANNA   HO3      HCP1     0.420000       1.00800           0
     38381 LPSA35   16       BMANNA   C4       CC3161   0.140000       12.0110           0
     38382 LPSA35   16       BMANNA   H4       HCA1     0.900000E-01   1.00800           0
     38383 LPSA35   16       BMANNA   O4       OC311   -0.650000       15.9994           0
     38384 LPSA35   16       BMANNA   HO4      HCP1     0.420000       1.00800           0
     38385 LPSA35   16       BMANNA   C6       CC321    0.500000E-01   12.0110           0
     38386 LPSA35   16       BMANNA   H61      HCA2     0.900000E-01   1.00800           0
     38387 LPSA35   16       BMANNA   H62      HCA2     0.900000E-01   1.00800           0
     38388 LPSA35   16       BMANNA   O6       OC311   -0.650000       15.9994           0
     38389 LPSA35   16       BMANNA   HO6      HCP1     0.420000       1.00800           0
     38390 LPSA35   17       BGLCNA   C1       CC3162   0.290000       12.0110           0
     38391 LPSA35   17       BGLCNA   H1       HCA1     0.900000E-01   1.00800           0
     38392 LPSA35   17       BGLCNA   C5       CC3163   0.110000       12.0110           0
     38393 LPSA35   17       BGLCNA   H5       HCA1     0.900000E-01   1.00800           0
     38394 LPSA35   17       BGLCNA   O5       OC3C61  -0.400000       15.9994           0
     38395 LPSA35   17       BGLCNA   C2       CC3161   0.700000E-01   12.0110           0
     38396 LPSA35   17       BGLCNA   H2       HCA1     0.900000E-01   1.00800           0
     38397 LPSA35   17       BGLCNA   N        NC2D1   -0.470000       14.0070           0
     38398 LPSA35   17       BGLCNA   HN       HCP1     0.310000       1.00800           0
     38399 LPSA35   17       BGLCNA   C        CC2O1    0.510000       12.0110           0
     38400 LPSA35   17       BGLCNA   O        OC2D1   -0.510000       15.9994           0
     38401 LPSA35   17       BGLCNA   CT       CC331   -0.270000       12.0110           0
     38402 LPSA35   17       BGLCNA   HT1      HCA3     0.900000E-01   1.00800           0
     38403 LPSA35   17       BGLCNA   HT2      HCA3     0.900000E-01   1.00800           0
     38404 LPSA35   17       BGLCNA   HT3      HCA3     0.900000E-01   1.00800           0
     38405 LPSA35   17       BGLCNA   C3       CC3161   0.900000E-01   12.0110           0
     38406 LPSA35   17       BGLCNA   H3       HCA1     0.900000E-01   1.00800           0
     38407 LPSA35   17       BGLCNA   O3       OC301   -0.360000       15.9994           0
     38408 LPSA35   17       BGLCNA   C4       CC3161   0.140000       12.0110           0
     38409 LPSA35   17       BGLCNA   H4       HCA1     0.900000E-01   1.00800           0
     38410 LPSA35   17       BGLCNA   O4       OC311   -0.650000       15.9994           0
     38411 LPSA35   17       BGLCNA   HO4      HCP1     0.420000       1.00800           0
     38412 LPSA35   17       BGLCNA   C6       CC321    0.500000E-01   12.0110           0
     38413 LPSA35   17       BGLCNA   H61      HCA2     0.900000E-01   1.00800           0
     38414 LPSA35   17       BGLCNA   H62      HCA2     0.900000E-01   1.00800           0
     38415 LPSA35   17       BGLCNA   O6       OC311   -0.650000       15.9994           0
     38416 LPSA35   17       BGLCNA   HO6      HCP1     0.420000       1.00800           0
     38417 LPSA35   18       AGAL     C1       CC3162   0.290000       12.0110           0
     38418 LPSA35   18       AGAL     H1       HCA1     0.900000E-01   1.00800           0
     38419 LPSA35   18       AGAL     C5       CC3163   0.110000       12.0110           0
     38420 LPSA35   18       AGAL     H5       HCA1     0.900000E-01   1.00800           0
     38421 LPSA35   18       AGAL     O5       OC3C61  -0.400000       15.9994           0
     38422 LPSA35   18       AGAL     C2       CC3161   0.900000E-01   12.0110           0
     38423 LPSA35   18       AGAL     H2       HCA1     0.900000E-01   1.00800           0
     38424 LPSA35   18       AGAL     O2       OC301   -0.360000       15.9994           0
     38425 LPSA35   18       AGAL     C3       CC3161   0.140000       12.0110           0
     38426 LPSA35   18       AGAL     H3       HCA1     0.900000E-01   1.00800           0
     38427 LPSA35   18       AGAL     O3       OC311   -0.650000       15.9994           0
     38428 LPSA35   18       AGAL     HO3      HCP1     0.420000       1.00800           0
     38429 LPSA35   18       AGAL     C4       CC3161   0.140000       12.0110           0
     38430 LPSA35   18       AGAL     H4       HCA1     0.900000E-01   1.00800           0
     38431 LPSA35   18       AGAL     O4       OC311   -0.650000       15.9994           0
     38432 LPSA35   18       AGAL     HO4      HCP1     0.420000       1.00800           0
     38433 LPSA35   18       AGAL     C6       CC321    0.500000E-01   12.0110           0
     38434 LPSA35   18       AGAL     H61      HCA2     0.900000E-01   1.00800           0
     38435 LPSA35   18       AGAL     H62      HCA2     0.900000E-01   1.00800           0
     38436 LPSA35   18       AGAL     O6       OC311   -0.650000       15.9994           0
     38437 LPSA35   18       AGAL     HO6      HCP1     0.420000       1.00800           0
     38438 LPSA35   19       ARHM     C1       CC3162   0.290000       12.0110           0
     38439 LPSA35   19       ARHM     H1       HCA1     0.900000E-01   1.00800           0
     38440 LPSA35   19       ARHM     C5       CC3163   0.110000       12.0110           0
     38441 LPSA35   19       ARHM     H5       HCA1     0.900000E-01   1.00800           0
     38442 LPSA35   19       ARHM     O5       OC3C61  -0.400000       15.9994           0
     38443 LPSA35   19       ARHM     C2       CC3161   0.900000E-01   12.0110           0
     38444 LPSA35   19       ARHM     H2       HCA1     0.900000E-01   1.00800           0
     38445 LPSA35   19       ARHM     O2       OC301   -0.360000       15.9994           0
     38446 LPSA35   19       ARHM     C3       CC3161   0.140000       12.0110           0
     38447 LPSA35   19       ARHM     H3       HCA1     0.900000E-01   1.00800           0
     38448 LPSA35   19       ARHM     O3       OC311   -0.650000       15.9994           0
     38449 LPSA35   19       ARHM     HO3      HCP1     0.420000       1.00800           0
     38450 LPSA35   19       ARHM     C4       CC3161   0.140000       12.0110           0
     38451 LPSA35   19       ARHM     H4       HCA1     0.900000E-01   1.00800           0
     38452 LPSA35   19       ARHM     O4       OC311   -0.650000       15.9994           0
     38453 LPSA35   19       ARHM     HO4      HCP1     0.420000       1.00800           0
     38454 LPSA35   19       ARHM     C6       CC331   -0.270000       12.0110           0
     38455 LPSA35   19       ARHM     H61      HCA3     0.900000E-01   1.00800           0
     38456 LPSA35   19       ARHM     H62      HCA3     0.900000E-01   1.00800           0
     38457 LPSA35   19       ARHM     H63      HCA3     0.900000E-01   1.00800           0
     38458 LPSA35   20       ARHM     C1       CC3162   0.290000       12.0110           0
     38459 LPSA35   20       ARHM     H1       HCA1     0.900000E-01   1.00800           0
     38460 LPSA35   20       ARHM     C5       CC3163   0.110000       12.0110           0
     38461 LPSA35   20       ARHM     H5       HCA1     0.900000E-01   1.00800           0
     38462 LPSA35   20       ARHM     O5       OC3C61  -0.400000       15.9994           0
     38463 LPSA35   20       ARHM     C2       CC3161   0.900000E-01   12.0110           0
     38464 LPSA35   20       ARHM     H2       HCA1     0.900000E-01   1.00800           0
     38465 LPSA35   20       ARHM     O2       OC301   -0.360000       15.9994           0
     38466 LPSA35   20       ARHM     C3       CC3161   0.900000E-01   12.0110           0
     38467 LPSA35   20       ARHM     H3       HCA1     0.900000E-01   1.00800           0
     38468 LPSA35   20       ARHM     O3       OC301   -0.360000       15.9994           0
     38469 LPSA35   20       ARHM     C4       CC3161   0.140000       12.0110           0
     38470 LPSA35   20       ARHM     H4       HCA1     0.900000E-01   1.00800           0
     38471 LPSA35   20       ARHM     O4       OC311   -0.650000       15.9994           0
     38472 LPSA35   20       ARHM     HO4      HCP1     0.420000       1.00800           0
     38473 LPSA35   20       ARHM     C6       CC331   -0.270000       12.0110           0
     38474 LPSA35   20       ARHM     H61      HCA3     0.900000E-01   1.00800           0
     38475 LPSA35   20       ARHM     H62      HCA3     0.900000E-01   1.00800           0
     38476 LPSA35   20       ARHM     H63      HCA3     0.900000E-01   1.00800           0
     38477 LPSA35   21       BMANNA   C1       CC3162   0.290000       12.0110           0
     38478 LPSA35   21       BMANNA   H1       HCA1     0.900000E-01   1.00800           0
     38479 LPSA35   21       BMANNA   C5       CC3163   0.110000       12.0110           0
     38480 LPSA35   21       BMANNA   H5       HCA1     0.900000E-01   1.00800           0
     38481 LPSA35   21       BMANNA   O5       OC3C61  -0.400000       15.9994           0
     38482 LPSA35   21       BMANNA   C2       CC3161   0.700000E-01   12.0110           0
     38483 LPSA35   21       BMANNA   H2       HCA1     0.900000E-01   1.00800           0
     38484 LPSA35   21       BMANNA   N        NC2D1   -0.470000       14.0070           0
     38485 LPSA35   21       BMANNA   HN       HCP1     0.310000       1.00800           0
     38486 LPSA35   21       BMANNA   C        CC2O1    0.510000       12.0110           0
     38487 LPSA35   21       BMANNA   O        OC2D1   -0.510000       15.9994           0
     38488 LPSA35   21       BMANNA   CT       CC331   -0.270000       12.0110           0
     38489 LPSA35   21       BMANNA   HT1      HCA3     0.900000E-01   1.00800           0
     38490 LPSA35   21       BMANNA   HT2      HCA3     0.900000E-01   1.00800           0
     38491 LPSA35   21       BMANNA   HT3      HCA3     0.900000E-01   1.00800           0
     38492 LPSA35   21       BMANNA   C3       CC3161   0.140000       12.0110           0
     38493 LPSA35   21       BMANNA   H3       HCA1     0.900000E-01   1.00800           0
     38494 LPSA35   21       BMANNA   O3       OC311   -0.650000       15.9994           0
     38495 LPSA35   21       BMANNA   HO3      HCP1     0.420000       1.00800           0
     38496 LPSA35   21       BMANNA   C4       CC3161   0.140000       12.0110           0
     38497 LPSA35   21       BMANNA   H4       HCA1     0.900000E-01   1.00800           0
     38498 LPSA35   21       BMANNA   O4       OC311   -0.650000       15.9994           0
     38499 LPSA35   21       BMANNA   HO4      HCP1     0.420000       1.00800           0
     38500 LPSA35   21       BMANNA   C6       CC321    0.500000E-01   12.0110           0
     38501 LPSA35   21       BMANNA   H61      HCA2     0.900000E-01   1.00800           0
     38502 LPSA35   21       BMANNA   H62      HCA2     0.900000E-01   1.00800           0
     38503 LPSA35   21       BMANNA   O6       OC311   -0.650000       15.9994           0
     38504 LPSA35   21       BMANNA   HO6      HCP1     0.420000       1.00800           0
     38505 LPSA35   22       BGLCNA   C1       CC3162   0.290000       12.0110           0
     38506 LPSA35   22       BGLCNA   H1       HCA1     0.900000E-01   1.00800           0
     38507 LPSA35   22       BGLCNA   C5       CC3163   0.110000       12.0110           0
     38508 LPSA35   22       BGLCNA   H5       HCA1     0.900000E-01   1.00800           0
     38509 LPSA35   22       BGLCNA   O5       OC3C61  -0.400000       15.9994           0
     38510 LPSA35   22       BGLCNA   C2       CC3161   0.700000E-01   12.0110           0
     38511 LPSA35   22       BGLCNA   H2       HCA1     0.900000E-01   1.00800           0
     38512 LPSA35   22       BGLCNA   N        NC2D1   -0.470000       14.0070           0
     38513 LPSA35   22       BGLCNA   HN       HCP1     0.310000       1.00800           0
     38514 LPSA35   22       BGLCNA   C        CC2O1    0.510000       12.0110           0
     38515 LPSA35   22       BGLCNA   O        OC2D1   -0.510000       15.9994           0
     38516 LPSA35   22       BGLCNA   CT       CC331   -0.270000       12.0110           0
     38517 LPSA35   22       BGLCNA   HT1      HCA3     0.900000E-01   1.00800           0
     38518 LPSA35   22       BGLCNA   HT2      HCA3     0.900000E-01   1.00800           0
     38519 LPSA35   22       BGLCNA   HT3      HCA3     0.900000E-01   1.00800           0
     38520 LPSA35   22       BGLCNA   C3       CC3161   0.900000E-01   12.0110           0
     38521 LPSA35   22       BGLCNA   H3       HCA1     0.900000E-01   1.00800           0
     38522 LPSA35   22       BGLCNA   O3       OC301   -0.360000       15.9994           0
     38523 LPSA35   22       BGLCNA   C4       CC3161   0.140000       12.0110           0
     38524 LPSA35   22       BGLCNA   H4       HCA1     0.900000E-01   1.00800           0
     38525 LPSA35   22       BGLCNA   O4       OC311   -0.650000       15.9994           0
     38526 LPSA35   22       BGLCNA   HO4      HCP1     0.420000       1.00800           0
     38527 LPSA35   22       BGLCNA   C6       CC321    0.500000E-01   12.0110           0
     38528 LPSA35   22       BGLCNA   H61      HCA2     0.900000E-01   1.00800           0
     38529 LPSA35   22       BGLCNA   H62      HCA2     0.900000E-01   1.00800           0
     38530 LPSA35   22       BGLCNA   O6       OC311   -0.650000       15.9994           0
     38531 LPSA35   22       BGLCNA   HO6      HCP1     0.420000       1.00800           0
     38532 LPSA35   23       AGAL     C1       CC3162   0.290000       12.0110           0
     38533 LPSA35   23       AGAL     H1       HCA1     0.900000E-01   1.00800           0
     38534 LPSA35   23       AGAL     C5       CC3163   0.110000       12.0110           0
     38535 LPSA35   23       AGAL     H5       HCA1     0.900000E-01   1.00800           0
     38536 LPSA35   23       AGAL     O5       OC3C61  -0.400000       15.9994           0
     38537 LPSA35   23       AGAL     C2       CC3161   0.900000E-01   12.0110           0
     38538 LPSA35   23       AGAL     H2       HCA1     0.900000E-01   1.00800           0
     38539 LPSA35   23       AGAL     O2       OC301   -0.360000       15.9994           0
     38540 LPSA35   23       AGAL     C3       CC3161   0.140000       12.0110           0
     38541 LPSA35   23       AGAL     H3       HCA1     0.900000E-01   1.00800           0
     38542 LPSA35   23       AGAL     O3       OC311   -0.650000       15.9994           0
     38543 LPSA35   23       AGAL     HO3      HCP1     0.420000       1.00800           0
     38544 LPSA35   23       AGAL     C4       CC3161   0.140000       12.0110           0
     38545 LPSA35   23       AGAL     H4       HCA1     0.900000E-01   1.00800           0
     38546 LPSA35   23       AGAL     O4       OC311   -0.650000       15.9994           0
     38547 LPSA35   23       AGAL     HO4      HCP1     0.420000       1.00800           0
     38548 LPSA35   23       AGAL     C6       CC321    0.500000E-01   12.0110           0
     38549 LPSA35   23       AGAL     H61      HCA2     0.900000E-01   1.00800           0
     38550 LPSA35   23       AGAL     H62      HCA2     0.900000E-01   1.00800           0
     38551 LPSA35   23       AGAL     O6       OC311   -0.650000       15.9994           0
     38552 LPSA35   23       AGAL     HO6      HCP1     0.420000       1.00800           0
     38553 LPSA35   24       ARHM     C1       CC3162   0.290000       12.0110           0
     38554 LPSA35   24       ARHM     H1       HCA1     0.900000E-01   1.00800           0
     38555 LPSA35   24       ARHM     C5       CC3163   0.110000       12.0110           0
     38556 LPSA35   24       ARHM     H5       HCA1     0.900000E-01   1.00800           0
     38557 LPSA35   24       ARHM     O5       OC3C61  -0.400000       15.9994           0
     38558 LPSA35   24       ARHM     C2       CC3161   0.900000E-01   12.0110           0
     38559 LPSA35   24       ARHM     H2       HCA1     0.900000E-01   1.00800           0
     38560 LPSA35   24       ARHM     O2       OC301   -0.360000       15.9994           0
     38561 LPSA35   24       ARHM     C3       CC3161   0.140000       12.0110           0
     38562 LPSA35   24       ARHM     H3       HCA1     0.900000E-01   1.00800           0
     38563 LPSA35   24       ARHM     O3       OC311   -0.650000       15.9994           0
     38564 LPSA35   24       ARHM     HO3      HCP1     0.420000       1.00800           0
     38565 LPSA35   24       ARHM     C4       CC3161   0.140000       12.0110           0
     38566 LPSA35   24       ARHM     H4       HCA1     0.900000E-01   1.00800           0
     38567 LPSA35   24       ARHM     O4       OC311   -0.650000       15.9994           0
     38568 LPSA35   24       ARHM     HO4      HCP1     0.420000       1.00800           0
     38569 LPSA35   24       ARHM     C6       CC331   -0.270000       12.0110           0
     38570 LPSA35   24       ARHM     H61      HCA3     0.900000E-01   1.00800           0
     38571 LPSA35   24       ARHM     H62      HCA3     0.900000E-01   1.00800           0
     38572 LPSA35   24       ARHM     H63      HCA3     0.900000E-01   1.00800           0
     38573 LPSA35   25       ARHM     C1       CC3162   0.290000       12.0110           0
     38574 LPSA35   25       ARHM     H1       HCA1     0.900000E-01   1.00800           0
     38575 LPSA35   25       ARHM     C5       CC3163   0.110000       12.0110           0
     38576 LPSA35   25       ARHM     H5       HCA1     0.900000E-01   1.00800           0
     38577 LPSA35   25       ARHM     O5       OC3C61  -0.400000       15.9994           0
     38578 LPSA35   25       ARHM     C2       CC3161   0.900000E-01   12.0110           0
     38579 LPSA35   25       ARHM     H2       HCA1     0.900000E-01   1.00800           0
     38580 LPSA35   25       ARHM     O2       OC301   -0.360000       15.9994           0
     38581 LPSA35   25       ARHM     C3       CC3161   0.900000E-01   12.0110           0
     38582 LPSA35   25       ARHM     H3       HCA1     0.900000E-01   1.00800           0
     38583 LPSA35   25       ARHM     O3       OC301   -0.360000       15.9994           0
     38584 LPSA35   25       ARHM     C4       CC3161   0.140000       12.0110           0
     38585 LPSA35   25       ARHM     H4       HCA1     0.900000E-01   1.00800           0
     38586 LPSA35   25       ARHM     O4       OC311   -0.650000       15.9994           0
     38587 LPSA35   25       ARHM     HO4      HCP1     0.420000       1.00800           0
     38588 LPSA35   25       ARHM     C6       CC331   -0.270000       12.0110           0
     38589 LPSA35   25       ARHM     H61      HCA3     0.900000E-01   1.00800           0
     38590 LPSA35   25       ARHM     H62      HCA3     0.900000E-01   1.00800           0
     38591 LPSA35   25       ARHM     H63      HCA3     0.900000E-01   1.00800           0
     38592 LPSA35   26       BMANNA   C1       CC3162   0.290000       12.0110           0
     38593 LPSA35   26       BMANNA   H1       HCA1     0.900000E-01   1.00800           0
     38594 LPSA35   26       BMANNA   C5       CC3163   0.110000       12.0110           0
     38595 LPSA35   26       BMANNA   H5       HCA1     0.900000E-01   1.00800           0
     38596 LPSA35   26       BMANNA   O5       OC3C61  -0.400000       15.9994           0
     38597 LPSA35   26       BMANNA   C2       CC3161   0.700000E-01   12.0110           0
     38598 LPSA35   26       BMANNA   H2       HCA1     0.900000E-01   1.00800           0
     38599 LPSA35   26       BMANNA   N        NC2D1   -0.470000       14.0070           0
     38600 LPSA35   26       BMANNA   HN       HCP1     0.310000       1.00800           0
     38601 LPSA35   26       BMANNA   C        CC2O1    0.510000       12.0110           0
     38602 LPSA35   26       BMANNA   O        OC2D1   -0.510000       15.9994           0
     38603 LPSA35   26       BMANNA   CT       CC331   -0.270000       12.0110           0
     38604 LPSA35   26       BMANNA   HT1      HCA3     0.900000E-01   1.00800           0
     38605 LPSA35   26       BMANNA   HT2      HCA3     0.900000E-01   1.00800           0
     38606 LPSA35   26       BMANNA   HT3      HCA3     0.900000E-01   1.00800           0
     38607 LPSA35   26       BMANNA   C3       CC3161   0.140000       12.0110           0
     38608 LPSA35   26       BMANNA   H3       HCA1     0.900000E-01   1.00800           0
     38609 LPSA35   26       BMANNA   O3       OC311   -0.650000       15.9994           0
     38610 LPSA35   26       BMANNA   HO3      HCP1     0.420000       1.00800           0
     38611 LPSA35   26       BMANNA   C4       CC3161   0.140000       12.0110           0
     38612 LPSA35   26       BMANNA   H4       HCA1     0.900000E-01   1.00800           0
     38613 LPSA35   26       BMANNA   O4       OC311   -0.650000       15.9994           0
     38614 LPSA35   26       BMANNA   HO4      HCP1     0.420000       1.00800           0
     38615 LPSA35   26       BMANNA   C6       CC321    0.500000E-01   12.0110           0
     38616 LPSA35   26       BMANNA   H61      HCA2     0.900000E-01   1.00800           0
     38617 LPSA35   26       BMANNA   H62      HCA2     0.900000E-01   1.00800           0
     38618 LPSA35   26       BMANNA   O6       OC311   -0.650000       15.9994           0
     38619 LPSA35   26       BMANNA   HO6      HCP1     0.420000       1.00800           0
     38620 LPSA35   27       BGLCNA   C1       CC3162   0.290000       12.0110           0
     38621 LPSA35   27       BGLCNA   H1       HCA1     0.900000E-01   1.00800           0
     38622 LPSA35   27       BGLCNA   C5       CC3163   0.110000       12.0110           0
     38623 LPSA35   27       BGLCNA   H5       HCA1     0.900000E-01   1.00800           0
     38624 LPSA35   27       BGLCNA   O5       OC3C61  -0.400000       15.9994           0
     38625 LPSA35   27       BGLCNA   C2       CC3161   0.700000E-01   12.0110           0
     38626 LPSA35   27       BGLCNA   H2       HCA1     0.900000E-01   1.00800           0
     38627 LPSA35   27       BGLCNA   N        NC2D1   -0.470000       14.0070           0
     38628 LPSA35   27       BGLCNA   HN       HCP1     0.310000       1.00800           0
     38629 LPSA35   27       BGLCNA   C        CC2O1    0.510000       12.0110           0
     38630 LPSA35   27       BGLCNA   O        OC2D1   -0.510000       15.9994           0
     38631 LPSA35   27       BGLCNA   CT       CC331   -0.270000       12.0110           0
     38632 LPSA35   27       BGLCNA   HT1      HCA3     0.900000E-01   1.00800           0
     38633 LPSA35   27       BGLCNA   HT2      HCA3     0.900000E-01   1.00800           0
     38634 LPSA35   27       BGLCNA   HT3      HCA3     0.900000E-01   1.00800           0
     38635 LPSA35   27       BGLCNA   C3       CC3161   0.900000E-01   12.0110           0
     38636 LPSA35   27       BGLCNA   H3       HCA1     0.900000E-01   1.00800           0
     38637 LPSA35   27       BGLCNA   O3       OC301   -0.360000       15.9994           0
     38638 LPSA35   27       BGLCNA   C4       CC3161   0.140000       12.0110           0
     38639 LPSA35   27       BGLCNA   H4       HCA1     0.900000E-01   1.00800           0
     38640 LPSA35   27       BGLCNA   O4       OC311   -0.650000       15.9994           0
     38641 LPSA35   27       BGLCNA   HO4      HCP1     0.420000       1.00800           0
     38642 LPSA35   27       BGLCNA   C6       CC321    0.500000E-01   12.0110           0
     38643 LPSA35   27       BGLCNA   H61      HCA2     0.900000E-01   1.00800           0
     38644 LPSA35   27       BGLCNA   H62      HCA2     0.900000E-01   1.00800           0
     38645 LPSA35   27       BGLCNA   O6       OC311   -0.650000       15.9994           0
     38646 LPSA35   27       BGLCNA   HO6      HCP1     0.420000       1.00800           0
     38647 LPSA35   28       AGAL     C1       CC3162   0.290000       12.0110           0
     38648 LPSA35   28       AGAL     H1       HCA1     0.900000E-01   1.00800           0
     38649 LPSA35   28       AGAL     C5       CC3163   0.110000       12.0110           0
     38650 LPSA35   28       AGAL     H5       HCA1     0.900000E-01   1.00800           0
     38651 LPSA35   28       AGAL     O5       OC3C61  -0.400000       15.9994           0
     38652 LPSA35   28       AGAL     C2       CC3161   0.900000E-01   12.0110           0
     38653 LPSA35   28       AGAL     H2       HCA1     0.900000E-01   1.00800           0
     38654 LPSA35   28       AGAL     O2       OC301   -0.360000       15.9994           0
     38655 LPSA35   28       AGAL     C3       CC3161   0.140000       12.0110           0
     38656 LPSA35   28       AGAL     H3       HCA1     0.900000E-01   1.00800           0
     38657 LPSA35   28       AGAL     O3       OC311   -0.650000       15.9994           0
     38658 LPSA35   28       AGAL     HO3      HCP1     0.420000       1.00800           0
     38659 LPSA35   28       AGAL     C4       CC3161   0.140000       12.0110           0
     38660 LPSA35   28       AGAL     H4       HCA1     0.900000E-01   1.00800           0
     38661 LPSA35   28       AGAL     O4       OC311   -0.650000       15.9994           0
     38662 LPSA35   28       AGAL     HO4      HCP1     0.420000       1.00800           0
     38663 LPSA35   28       AGAL     C6       CC321    0.500000E-01   12.0110           0
     38664 LPSA35   28       AGAL     H61      HCA2     0.900000E-01   1.00800           0
     38665 LPSA35   28       AGAL     H62      HCA2     0.900000E-01   1.00800           0
     38666 LPSA35   28       AGAL     O6       OC311   -0.650000       15.9994           0
     38667 LPSA35   28       AGAL     HO6      HCP1     0.420000       1.00800           0
     38668 LPSA35   29       ARHM     C1       CC3162   0.290000       12.0110           0
     38669 LPSA35   29       ARHM     H1       HCA1     0.900000E-01   1.00800           0
     38670 LPSA35   29       ARHM     C5       CC3163   0.110000       12.0110           0
     38671 LPSA35   29       ARHM     H5       HCA1     0.900000E-01   1.00800           0
     38672 LPSA35   29       ARHM     O5       OC3C61  -0.400000       15.9994           0
     38673 LPSA35   29       ARHM     C2       CC3161   0.900000E-01   12.0110           0
     38674 LPSA35   29       ARHM     H2       HCA1     0.900000E-01   1.00800           0
     38675 LPSA35   29       ARHM     O2       OC301   -0.360000       15.9994           0
     38676 LPSA35   29       ARHM     C3       CC3161   0.140000       12.0110           0
     38677 LPSA35   29       ARHM     H3       HCA1     0.900000E-01   1.00800           0
     38678 LPSA35   29       ARHM     O3       OC311   -0.650000       15.9994           0
     38679 LPSA35   29       ARHM     HO3      HCP1     0.420000       1.00800           0
     38680 LPSA35   29       ARHM     C4       CC3161   0.140000       12.0110           0
     38681 LPSA35   29       ARHM     H4       HCA1     0.900000E-01   1.00800           0
     38682 LPSA35   29       ARHM     O4       OC311   -0.650000       15.9994           0
     38683 LPSA35   29       ARHM     HO4      HCP1     0.420000       1.00800           0
     38684 LPSA35   29       ARHM     C6       CC331   -0.270000       12.0110           0
     38685 LPSA35   29       ARHM     H61      HCA3     0.900000E-01   1.00800           0
     38686 LPSA35   29       ARHM     H62      HCA3     0.900000E-01   1.00800           0
     38687 LPSA35   29       ARHM     H63      HCA3     0.900000E-01   1.00800           0
     38688 LPSA35   30       ARHM     C1       CC3162   0.290000       12.0110           0
     38689 LPSA35   30       ARHM     H1       HCA1     0.900000E-01   1.00800           0
     38690 LPSA35   30       ARHM     C5       CC3163   0.110000       12.0110           0
     38691 LPSA35   30       ARHM     H5       HCA1     0.900000E-01   1.00800           0
     38692 LPSA35   30       ARHM     O5       OC3C61  -0.400000       15.9994           0
     38693 LPSA35   30       ARHM     C2       CC3161   0.900000E-01   12.0110           0
     38694 LPSA35   30       ARHM     H2       HCA1     0.900000E-01   1.00800           0
     38695 LPSA35   30       ARHM     O2       OC301   -0.360000       15.9994           0
     38696 LPSA35   30       ARHM     C3       CC3161   0.900000E-01   12.0110           0
     38697 LPSA35   30       ARHM     H3       HCA1     0.900000E-01   1.00800           0
     38698 LPSA35   30       ARHM     O3       OC301   -0.360000       15.9994           0
     38699 LPSA35   30       ARHM     C4       CC3161   0.140000       12.0110           0
     38700 LPSA35   30       ARHM     H4       HCA1     0.900000E-01   1.00800           0
     38701 LPSA35   30       ARHM     O4       OC311   -0.650000       15.9994           0
     38702 LPSA35   30       ARHM     HO4      HCP1     0.420000       1.00800           0
     38703 LPSA35   30       ARHM     C6       CC331   -0.270000       12.0110           0
     38704 LPSA35   30       ARHM     H61      HCA3     0.900000E-01   1.00800           0
     38705 LPSA35   30       ARHM     H62      HCA3     0.900000E-01   1.00800           0
     38706 LPSA35   30       ARHM     H63      HCA3     0.900000E-01   1.00800           0
     38707 LPSA35   31       BMANNA   C1       CC3162   0.290000       12.0110           0
     38708 LPSA35   31       BMANNA   H1       HCA1     0.900000E-01   1.00800           0
     38709 LPSA35   31       BMANNA   C5       CC3163   0.110000       12.0110           0
     38710 LPSA35   31       BMANNA   H5       HCA1     0.900000E-01   1.00800           0
     38711 LPSA35   31       BMANNA   O5       OC3C61  -0.400000       15.9994           0
     38712 LPSA35   31       BMANNA   C2       CC3161   0.700000E-01   12.0110           0
     38713 LPSA35   31       BMANNA   H2       HCA1     0.900000E-01   1.00800           0
     38714 LPSA35   31       BMANNA   N        NC2D1   -0.470000       14.0070           0
     38715 LPSA35   31       BMANNA   HN       HCP1     0.310000       1.00800           0
     38716 LPSA35   31       BMANNA   C        CC2O1    0.510000       12.0110           0
     38717 LPSA35   31       BMANNA   O        OC2D1   -0.510000       15.9994           0
     38718 LPSA35   31       BMANNA   CT       CC331   -0.270000       12.0110           0
     38719 LPSA35   31       BMANNA   HT1      HCA3     0.900000E-01   1.00800           0
     38720 LPSA35   31       BMANNA   HT2      HCA3     0.900000E-01   1.00800           0
     38721 LPSA35   31       BMANNA   HT3      HCA3     0.900000E-01   1.00800           0
     38722 LPSA35   31       BMANNA   C3       CC3161   0.140000       12.0110           0
     38723 LPSA35   31       BMANNA   H3       HCA1     0.900000E-01   1.00800           0
     38724 LPSA35   31       BMANNA   O3       OC311   -0.650000       15.9994           0
     38725 LPSA35   31       BMANNA   HO3      HCP1     0.420000       1.00800           0
     38726 LPSA35   31       BMANNA   C4       CC3161   0.140000       12.0110           0
     38727 LPSA35   31       BMANNA   H4       HCA1     0.900000E-01   1.00800           0
     38728 LPSA35   31       BMANNA   O4       OC311   -0.650000       15.9994           0
     38729 LPSA35   31       BMANNA   HO4      HCP1     0.420000       1.00800           0
     38730 LPSA35   31       BMANNA   C6       CC321    0.500000E-01   12.0110           0
     38731 LPSA35   31       BMANNA   H61      HCA2     0.900000E-01   1.00800           0
     38732 LPSA35   31       BMANNA   H62      HCA2     0.900000E-01   1.00800           0
     38733 LPSA35   31       BMANNA   O6       OC311   -0.650000       15.9994           0
     38734 LPSA35   31       BMANNA   HO6      HCP1     0.420000       1.00800           0
     38735 LPSA35   32       BGLCNA   C1       CC3162   0.290000       12.0110           0
     38736 LPSA35   32       BGLCNA   H1       HCA1     0.900000E-01   1.00800           0
     38737 LPSA35   32       BGLCNA   C5       CC3163   0.110000       12.0110           0
     38738 LPSA35   32       BGLCNA   H5       HCA1     0.900000E-01   1.00800           0
     38739 LPSA35   32       BGLCNA   O5       OC3C61  -0.400000       15.9994           0
     38740 LPSA35   32       BGLCNA   C2       CC3161   0.700000E-01   12.0110           0
     38741 LPSA35   32       BGLCNA   H2       HCA1     0.900000E-01   1.00800           0
     38742 LPSA35   32       BGLCNA   N        NC2D1   -0.470000       14.0070           0
     38743 LPSA35   32       BGLCNA   HN       HCP1     0.310000       1.00800           0
     38744 LPSA35   32       BGLCNA   C        CC2O1    0.510000       12.0110           0
     38745 LPSA35   32       BGLCNA   O        OC2D1   -0.510000       15.9994           0
     38746 LPSA35   32       BGLCNA   CT       CC331   -0.270000       12.0110           0
     38747 LPSA35   32       BGLCNA   HT1      HCA3     0.900000E-01   1.00800           0
     38748 LPSA35   32       BGLCNA   HT2      HCA3     0.900000E-01   1.00800           0
     38749 LPSA35   32       BGLCNA   HT3      HCA3     0.900000E-01   1.00800           0
     38750 LPSA35   32       BGLCNA   C3       CC3161   0.900000E-01   12.0110           0
     38751 LPSA35   32       BGLCNA   H3       HCA1     0.900000E-01   1.00800           0
     38752 LPSA35   32       BGLCNA   O3       OC301   -0.360000       15.9994           0
     38753 LPSA35   32       BGLCNA   C4       CC3161   0.140000       12.0110           0
     38754 LPSA35   32       BGLCNA   H4       HCA1     0.900000E-01   1.00800           0
     38755 LPSA35   32       BGLCNA   O4       OC311   -0.650000       15.9994           0
     38756 LPSA35   32       BGLCNA   HO4      HCP1     0.420000       1.00800           0
     38757 LPSA35   32       BGLCNA   C6       CC321    0.500000E-01   12.0110           0
     38758 LPSA35   32       BGLCNA   H61      HCA2     0.900000E-01   1.00800           0
     38759 LPSA35   32       BGLCNA   H62      HCA2     0.900000E-01   1.00800           0
     38760 LPSA35   32       BGLCNA   O6       OC311   -0.650000       15.9994           0
     38761 LPSA35   32       BGLCNA   HO6      HCP1     0.420000       1.00800           0
     38762 LPSA35   33       AGAL     C1       CC3162   0.290000       12.0110           0
     38763 LPSA35   33       AGAL     H1       HCA1     0.900000E-01   1.00800           0
     38764 LPSA35   33       AGAL     C5       CC3163   0.110000       12.0110           0
     38765 LPSA35   33       AGAL     H5       HCA1     0.900000E-01   1.00800           0
     38766 LPSA35   33       AGAL     O5       OC3C61  -0.400000       15.9994           0
     38767 LPSA35   33       AGAL     C2       CC3161   0.900000E-01   12.0110           0
     38768 LPSA35   33       AGAL     H2       HCA1     0.900000E-01   1.00800           0
     38769 LPSA35   33       AGAL     O2       OC301   -0.360000       15.9994           0
     38770 LPSA35   33       AGAL     C3       CC3161   0.140000       12.0110           0
     38771 LPSA35   33       AGAL     H3       HCA1     0.900000E-01   1.00800           0
     38772 LPSA35   33       AGAL     O3       OC311   -0.650000       15.9994           0
     38773 LPSA35   33       AGAL     HO3      HCP1     0.420000       1.00800           0
     38774 LPSA35   33       AGAL     C4       CC3161   0.140000       12.0110           0
     38775 LPSA35   33       AGAL     H4       HCA1     0.900000E-01   1.00800           0
     38776 LPSA35   33       AGAL     O4       OC311   -0.650000       15.9994           0
     38777 LPSA35   33       AGAL     HO4      HCP1     0.420000       1.00800           0
     38778 LPSA35   33       AGAL     C6       CC321    0.500000E-01   12.0110           0
     38779 LPSA35   33       AGAL     H61      HCA2     0.900000E-01   1.00800           0
     38780 LPSA35   33       AGAL     H62      HCA2     0.900000E-01   1.00800           0
     38781 LPSA35   33       AGAL     O6       OC311   -0.650000       15.9994           0
     38782 LPSA35   33       AGAL     HO6      HCP1     0.420000       1.00800           0
     38783 LPSA35   34       ARHM     C1       CC3162   0.290000       12.0110           0
     38784 LPSA35   34       ARHM     H1       HCA1     0.900000E-01   1.00800           0
     38785 LPSA35   34       ARHM     C5       CC3163   0.110000       12.0110           0
     38786 LPSA35   34       ARHM     H5       HCA1     0.900000E-01   1.00800           0
     38787 LPSA35   34       ARHM     O5       OC3C61  -0.400000       15.9994           0
     38788 LPSA35   34       ARHM     C2       CC3161   0.900000E-01   12.0110           0
     38789 LPSA35   34       ARHM     H2       HCA1     0.900000E-01   1.00800           0
     38790 LPSA35   34       ARHM     O2       OC301   -0.360000       15.9994           0
     38791 LPSA35   34       ARHM     C3       CC3161   0.140000       12.0110           0
     38792 LPSA35   34       ARHM     H3       HCA1     0.900000E-01   1.00800           0
     38793 LPSA35   34       ARHM     O3       OC311   -0.650000       15.9994           0
     38794 LPSA35   34       ARHM     HO3      HCP1     0.420000       1.00800           0
     38795 LPSA35   34       ARHM     C4       CC3161   0.140000       12.0110           0
     38796 LPSA35   34       ARHM     H4       HCA1     0.900000E-01   1.00800           0
     38797 LPSA35   34       ARHM     O4       OC311   -0.650000       15.9994           0
     38798 LPSA35   34       ARHM     HO4      HCP1     0.420000       1.00800           0
     38799 LPSA35   34       ARHM     C6       CC331   -0.270000       12.0110           0
     38800 LPSA35   34       ARHM     H61      HCA3     0.900000E-01   1.00800           0
     38801 LPSA35   34       ARHM     H62      HCA3     0.900000E-01   1.00800           0
     38802 LPSA35   34       ARHM     H63      HCA3     0.900000E-01   1.00800           0
     38803 LPSA35   35       ARHM     C1       CC3162   0.290000       12.0110           0
     38804 LPSA35   35       ARHM     H1       HCA1     0.900000E-01   1.00800           0
     38805 LPSA35   35       ARHM     C5       CC3163   0.110000       12.0110           0
     38806 LPSA35   35       ARHM     H5       HCA1     0.900000E-01   1.00800           0
     38807 LPSA35   35       ARHM     O5       OC3C61  -0.400000       15.9994           0
     38808 LPSA35   35       ARHM     C2       CC3161   0.900000E-01   12.0110           0
     38809 LPSA35   35       ARHM     H2       HCA1     0.900000E-01   1.00800           0
     38810 LPSA35   35       ARHM     O2       OC301   -0.360000       15.9994           0
     38811 LPSA35   35       ARHM     C3       CC3161   0.140000       12.0110           0
     38812 LPSA35   35       ARHM     H3       HCA1     0.900000E-01   1.00800           0
     38813 LPSA35   35       ARHM     O3       OC311   -0.650000       15.9994           0
     38814 LPSA35   35       ARHM     HO3      HCP1     0.420000       1.00800           0
     38815 LPSA35   35       ARHM     C4       CC3161   0.140000       12.0110           0
     38816 LPSA35   35       ARHM     H4       HCA1     0.900000E-01   1.00800           0
     38817 LPSA35   35       ARHM     O4       OC311   -0.650000       15.9994           0
     38818 LPSA35   35       ARHM     HO4      HCP1     0.420000       1.00800           0
     38819 LPSA35   35       ARHM     C6       CC331   -0.270000       12.0110           0
     38820 LPSA35   35       ARHM     H61      HCA3     0.900000E-01   1.00800           0
     38821 LPSA35   35       ARHM     H62      HCA3     0.900000E-01   1.00800           0
     38822 LPSA35   35       ARHM     H63      HCA3     0.900000E-01   1.00800           0
     38823 LPSA35   36       BMANNA   C1       CC3162   0.290000       12.0110           0
     38824 LPSA35   36       BMANNA   H1       HCA1     0.900000E-01   1.00800           0
     38825 LPSA35   36       BMANNA   C5       CC3163   0.110000       12.0110           0
     38826 LPSA35   36       BMANNA   H5       HCA1     0.900000E-01   1.00800           0
     38827 LPSA35   36       BMANNA   O5       OC3C61  -0.400000       15.9994           0
     38828 LPSA35   36       BMANNA   C2       CC3161   0.700000E-01   12.0110           0
     38829 LPSA35   36       BMANNA   H2       HCA1     0.900000E-01   1.00800           0
     38830 LPSA35   36       BMANNA   N        NC2D1   -0.470000       14.0070           0
     38831 LPSA35   36       BMANNA   HN       HCP1     0.310000       1.00800           0
     38832 LPSA35   36       BMANNA   C        CC2O1    0.510000       12.0110           0
     38833 LPSA35   36       BMANNA   O        OC2D1   -0.510000       15.9994           0
     38834 LPSA35   36       BMANNA   CT       CC331   -0.270000       12.0110           0
     38835 LPSA35   36       BMANNA   HT1      HCA3     0.900000E-01   1.00800           0
     38836 LPSA35   36       BMANNA   HT2      HCA3     0.900000E-01   1.00800           0
     38837 LPSA35   36       BMANNA   HT3      HCA3     0.900000E-01   1.00800           0
     38838 LPSA35   36       BMANNA   C3       CC3161   0.140000       12.0110           0
     38839 LPSA35   36       BMANNA   H3       HCA1     0.900000E-01   1.00800           0
     38840 LPSA35   36       BMANNA   O3       OC311   -0.650000       15.9994           0
     38841 LPSA35   36       BMANNA   HO3      HCP1     0.420000       1.00800           0
     38842 LPSA35   36       BMANNA   C4       CC3161   0.140000       12.0110           0
     38843 LPSA35   36       BMANNA   H4       HCA1     0.900000E-01   1.00800           0
     38844 LPSA35   36       BMANNA   O4       OC311   -0.650000       15.9994           0
     38845 LPSA35   36       BMANNA   HO4      HCP1     0.420000       1.00800           0
     38846 LPSA35   36       BMANNA   C6       CC321    0.500000E-01   12.0110           0
     38847 LPSA35   36       BMANNA   H61      HCA2     0.900000E-01   1.00800           0
     38848 LPSA35   36       BMANNA   H62      HCA2     0.900000E-01   1.00800           0
     38849 LPSA35   36       BMANNA   O6       OC311   -0.650000       15.9994           0
     38850 LPSA35   36       BMANNA   HO6      HCP1     0.420000       1.00800           0
     38851 MEMB     1        PVPG     C13      CTL2     0.500000E-01   12.0110           0
     38852 MEMB     1        PVPG     H13A     HAL2     0.900000E-01   1.00800           0
     38853 MEMB     1        PVPG     H13B     HAL2     0.900000E-01   1.00800           0
     38854 MEMB     1        PVPG     OC3      OHL     -0.650000       15.9994           0
     38855 MEMB     1        PVPG     HO3      HOL      0.420000       1.00800           0
     38856 MEMB     1        PVPG     C12      CTL1     0.140000       12.0110           0
     38857 MEMB     1        PVPG     H12A     HAL1     0.900000E-01   1.00800           0
     38858 MEMB     1        PVPG     OC2      OHL     -0.650000       15.9994           0
     38859 MEMB     1        PVPG     HO2      HOL      0.420000       1.00800           0
     38860 MEMB     1        PVPG     C11      CTL2    -0.800000E-01   12.0110           0
     38861 MEMB     1        PVPG     H11A     HAL2     0.900000E-01   1.00800           0
     38862 MEMB     1        PVPG     H11B     HAL2     0.900000E-01   1.00800           0
     38863 MEMB     1        PVPG     P        PL        1.50000       30.9740           0
     38864 MEMB     1        PVPG     O13      O2L     -0.780000       15.9994           0
     38865 MEMB     1        PVPG     O14      O2L     -0.780000       15.9994           0
     38866 MEMB     1        PVPG     O12      OSLP    -0.570000       15.9994           0
     38867 MEMB     1        PVPG     O11      OSLP    -0.570000       15.9994           0
     38868 MEMB     1        PVPG     C1       CTL2    -0.800000E-01   12.0110           0
     38869 MEMB     1        PVPG     HA       HAL2     0.900000E-01   1.00800           0
     38870 MEMB     1        PVPG     HB       HAL2     0.900000E-01   1.00800           0
     38871 MEMB     1        PVPG     C2       CTL1     0.170000       12.0110           0
     38872 MEMB     1        PVPG     HS       HAL1     0.900000E-01   1.00800           0
     38873 MEMB     1        PVPG     O21      OSL     -0.490000       15.9994           0
     38874 MEMB     1        PVPG     C21      CL       0.900000       12.0110           0
     38875 MEMB     1        PVPG     O22      OBL     -0.630000       15.9994           0
     38876 MEMB     1        PVPG     C22      CTL2    -0.220000       12.0110           0
     38877 MEMB     1        PVPG     H2R      HAL2     0.900000E-01   1.00800           0
     38878 MEMB     1        PVPG     H2S      HAL2     0.900000E-01   1.00800           0
     38879 MEMB     1        PVPG     C3       CTL2     0.800000E-01   12.0110           0
     38880 MEMB     1        PVPG     HX       HAL2     0.900000E-01   1.00800           0
     38881 MEMB     1        PVPG     HY       HAL2     0.900000E-01   1.00800           0
     38882 MEMB     1        PVPG     O31      OSL     -0.490000       15.9994           0
     38883 MEMB     1        PVPG     C31      CL       0.900000       12.0110           0
     38884 MEMB     1        PVPG     O32      OBL     -0.630000       15.9994           0
     38885 MEMB     1        PVPG     C32      CTL2    -0.220000       12.0110           0
     38886 MEMB     1        PVPG     H2X      HAL2     0.900000E-01   1.00800           0
     38887 MEMB     1        PVPG     H2Y      HAL2     0.900000E-01   1.00800           0
     38888 MEMB     1        PVPG     C23      CTL2    -0.180000       12.0110           0
     38889 MEMB     1        PVPG     H3R      HAL2     0.900000E-01   1.00800           0
     38890 MEMB     1        PVPG     H3S      HAL2     0.900000E-01   1.00800           0
     38891 MEMB     1        PVPG     C24      CTL2    -0.180000       12.0110           0
     38892 MEMB     1        PVPG     H4R      HAL2     0.900000E-01   1.00800           0
     38893 MEMB     1        PVPG     H4S      HAL2     0.900000E-01   1.00800           0
     38894 MEMB     1        PVPG     C25      CTL2    -0.180000       12.0110           0
     38895 MEMB     1        PVPG     H5R      HAL2     0.900000E-01   1.00800           0
     38896 MEMB     1        PVPG     H5S      HAL2     0.900000E-01   1.00800           0
     38897 MEMB     1        PVPG     C26      CTL2    -0.180000       12.0110           0
     38898 MEMB     1        PVPG     H6R      HAL2     0.900000E-01   1.00800           0
     38899 MEMB     1        PVPG     H6S      HAL2     0.900000E-01   1.00800           0
     38900 MEMB     1        PVPG     C27      CTL2    -0.180000       12.0110           0
     38901 MEMB     1        PVPG     H7R      HAL2     0.900000E-01   1.00800           0
     38902 MEMB     1        PVPG     H7S      HAL2     0.900000E-01   1.00800           0
     38903 MEMB     1        PVPG     C28      CTL2    -0.180000       12.0110           0
     38904 MEMB     1        PVPG     H8R      HAL2     0.900000E-01   1.00800           0
     38905 MEMB     1        PVPG     H8S      HAL2     0.900000E-01   1.00800           0
     38906 MEMB     1        PVPG     C29      CTL2    -0.180000       12.0110           0
     38907 MEMB     1        PVPG     H9R      HAL2     0.900000E-01   1.00800           0
     38908 MEMB     1        PVPG     H9S      HAL2     0.900000E-01   1.00800           0
     38909 MEMB     1        PVPG     C210     CTL2    -0.180000       12.0110           0
     38910 MEMB     1        PVPG     H10R     HAL2     0.900000E-01   1.00800           0
     38911 MEMB     1        PVPG     H10S     HAL2     0.900000E-01   1.00800           0
     38912 MEMB     1        PVPG     C211     CEL1    -0.150000       12.0110           0
     38913 MEMB     1        PVPG     H111     HEL1     0.150000       1.00800           0
     38914 MEMB     1        PVPG     C212     CEL1    -0.150000       12.0110           0
     38915 MEMB     1        PVPG     H121     HEL1     0.150000       1.00800           0
     38916 MEMB     1        PVPG     C213     CTL2    -0.180000       12.0110           0
     38917 MEMB     1        PVPG     H13R     HAL2     0.900000E-01   1.00800           0
     38918 MEMB     1        PVPG     H13S     HAL2     0.900000E-01   1.00800           0
     38919 MEMB     1        PVPG     C214     CTL2    -0.180000       12.0110           0
     38920 MEMB     1        PVPG     H14R     HAL2     0.900000E-01   1.00800           0
     38921 MEMB     1        PVPG     H14S     HAL2     0.900000E-01   1.00800           0
     38922 MEMB     1        PVPG     C215     CTL2    -0.180000       12.0110           0
     38923 MEMB     1        PVPG     H15R     HAL2     0.900000E-01   1.00800           0
     38924 MEMB     1        PVPG     H15S     HAL2     0.900000E-01   1.00800           0
     38925 MEMB     1        PVPG     C216     CTL2    -0.180000       12.0110           0
     38926 MEMB     1        PVPG     H16R     HAL2     0.900000E-01   1.00800           0
     38927 MEMB     1        PVPG     H16S     HAL2     0.900000E-01   1.00800           0
     38928 MEMB     1        PVPG     C217     CTL2    -0.180000       12.0110           0
     38929 MEMB     1        PVPG     H17R     HAL2     0.900000E-01   1.00800           0
     38930 MEMB     1        PVPG     H17S     HAL2     0.900000E-01   1.00800           0
     38931 MEMB     1        PVPG     C218     CTL3    -0.270000       12.0110           0
     38932 MEMB     1        PVPG     H18R     HAL3     0.900000E-01   1.00800           0
     38933 MEMB     1        PVPG     H18S     HAL3     0.900000E-01   1.00800           0
     38934 MEMB     1        PVPG     H18T     HAL3     0.900000E-01   1.00800           0
     38935 MEMB     1        PVPG     C33      CTL2    -0.180000       12.0110           0
     38936 MEMB     1        PVPG     H3X      HAL2     0.900000E-01   1.00800           0
     38937 MEMB     1        PVPG     H3Y      HAL2     0.900000E-01   1.00800           0
     38938 MEMB     1        PVPG     C34      CTL2    -0.180000       12.0110           0
     38939 MEMB     1        PVPG     H4X      HAL2     0.900000E-01   1.00800           0
     38940 MEMB     1        PVPG     H4Y      HAL2     0.900000E-01   1.00800           0
     38941 MEMB     1        PVPG     C35      CTL2    -0.180000       12.0110           0
     38942 MEMB     1        PVPG     H5X      HAL2     0.900000E-01   1.00800           0
     38943 MEMB     1        PVPG     H5Y      HAL2     0.900000E-01   1.00800           0
     38944 MEMB     1        PVPG     C36      CTL2    -0.180000       12.0110           0
     38945 MEMB     1        PVPG     H6X      HAL2     0.900000E-01   1.00800           0
     38946 MEMB     1        PVPG     H6Y      HAL2     0.900000E-01   1.00800           0
     38947 MEMB     1        PVPG     C37      CTL2    -0.180000       12.0110           0
     38948 MEMB     1        PVPG     H7X      HAL2     0.900000E-01   1.00800           0
     38949 MEMB     1        PVPG     H7Y      HAL2     0.900000E-01   1.00800           0
     38950 MEMB     1        PVPG     C38      CTL2    -0.180000       12.0110           0
     38951 MEMB     1        PVPG     H8X      HAL2     0.900000E-01   1.00800           0
     38952 MEMB     1        PVPG     H8Y      HAL2     0.900000E-01   1.00800           0
     38953 MEMB     1        PVPG     C39      CTL2    -0.180000       12.0110           0
     38954 MEMB     1        PVPG     H9X      HAL2     0.900000E-01   1.00800           0
     38955 MEMB     1        PVPG     H9Y      HAL2     0.900000E-01   1.00800           0
     38956 MEMB     1        PVPG     C310     CTL2    -0.180000       12.0110           0
     38957 MEMB     1        PVPG     H10X     HAL2     0.900000E-01   1.00800           0
     38958 MEMB     1        PVPG     H10Y     HAL2     0.900000E-01   1.00800           0
     38959 MEMB     1        PVPG     C311     CTL2    -0.180000       12.0110           0
     38960 MEMB     1        PVPG     H11X     HAL2     0.900000E-01   1.00800           0
     38961 MEMB     1        PVPG     H11Y     HAL2     0.900000E-01   1.00800           0
     38962 MEMB     1        PVPG     C312     CTL2    -0.180000       12.0110           0
     38963 MEMB     1        PVPG     H12X     HAL2     0.900000E-01   1.00800           0
     38964 MEMB     1        PVPG     H12Y     HAL2     0.900000E-01   1.00800           0
     38965 MEMB     1        PVPG     C313     CTL2    -0.180000       12.0110           0
     38966 MEMB     1        PVPG     H13X     HAL2     0.900000E-01   1.00800           0
     38967 MEMB     1        PVPG     H13Y     HAL2     0.900000E-01   1.00800           0
     38968 MEMB     1        PVPG     C314     CTL2    -0.180000       12.0110           0
     38969 MEMB     1        PVPG     H14X     HAL2     0.900000E-01   1.00800           0
     38970 MEMB     1        PVPG     H14Y     HAL2     0.900000E-01   1.00800           0
     38971 MEMB     1        PVPG     C315     CTL2    -0.180000       12.0110           0
     38972 MEMB     1        PVPG     H15X     HAL2     0.900000E-01   1.00800           0
     38973 MEMB     1        PVPG     H15Y     HAL2     0.900000E-01   1.00800           0
     38974 MEMB     1        PVPG     C316     CTL3    -0.270000       12.0110           0
     38975 MEMB     1        PVPG     H16X     HAL3     0.900000E-01   1.00800           0
     38976 MEMB     1        PVPG     H16Y     HAL3     0.900000E-01   1.00800           0
     38977 MEMB     1        PVPG     H16Z     HAL3     0.900000E-01   1.00800           0
     38978 MEMB     2        PPPE     N        NH3L    -0.300000       14.0070           0
     38979 MEMB     2        PPPE     HN1      HCL      0.330000       1.00800           0
     38980 MEMB     2        PPPE     HN2      HCL      0.330000       1.00800           0
     38981 MEMB     2        PPPE     HN3      HCL      0.330000       1.00800           0
     38982 MEMB     2        PPPE     C12      CTL2     0.130000       12.0110           0
     38983 MEMB     2        PPPE     H12A     HAL2     0.900000E-01   1.00800           0
     38984 MEMB     2        PPPE     H12B     HAL2     0.900000E-01   1.00800           0
     38985 MEMB     2        PPPE     C11      CTL2    -0.800000E-01   12.0110           0
     38986 MEMB     2        PPPE     H11A     HAL2     0.900000E-01   1.00800           0
     38987 MEMB     2        PPPE     H11B     HAL2     0.900000E-01   1.00800           0
     38988 MEMB     2        PPPE     P        PL        1.50000       30.9740           0
     38989 MEMB     2        PPPE     O13      O2L     -0.780000       15.9994           0
     38990 MEMB     2        PPPE     O14      O2L     -0.780000       15.9994           0
     38991 MEMB     2        PPPE     O11      OSLP    -0.570000       15.9994           0
     38992 MEMB     2        PPPE     O12      OSLP    -0.570000       15.9994           0
     38993 MEMB     2        PPPE     C1       CTL2    -0.800000E-01   12.0110           0
     38994 MEMB     2        PPPE     HA       HAL2     0.900000E-01   1.00800           0
     38995 MEMB     2        PPPE     HB       HAL2     0.900000E-01   1.00800           0
     38996 MEMB     2        PPPE     C2       CTL1     0.170000       12.0110           0
     38997 MEMB     2        PPPE     HS       HAL1     0.900000E-01   1.00800           0
     38998 MEMB     2        PPPE     O21      OSL     -0.490000       15.9994           0
     38999 MEMB     2        PPPE     C21      CL       0.900000       12.0110           0
     39000 MEMB     2        PPPE     O22      OBL     -0.630000       15.9994           0
     39001 MEMB     2        PPPE     C22      CTL2    -0.220000       12.0110           0
     39002 MEMB     2        PPPE     H2R      HAL2     0.900000E-01   1.00800           0
     39003 MEMB     2        PPPE     H2S      HAL2     0.900000E-01   1.00800           0
     39004 MEMB     2        PPPE     C3       CTL2     0.800000E-01   12.0110           0
     39005 MEMB     2        PPPE     HX       HAL2     0.900000E-01   1.00800           0
     39006 MEMB     2        PPPE     HY       HAL2     0.900000E-01   1.00800           0
     39007 MEMB     2        PPPE     O31      OSL     -0.490000       15.9994           0
     39008 MEMB     2        PPPE     C31      CL       0.900000       12.0110           0
     39009 MEMB     2        PPPE     O32      OBL     -0.630000       15.9994           0
     39010 MEMB     2        PPPE     C32      CTL2    -0.220000       12.0110           0
     39011 MEMB     2        PPPE     H2X      HAL2     0.900000E-01   1.00800           0
     39012 MEMB     2        PPPE     H2Y      HAL2     0.900000E-01   1.00800           0
     39013 MEMB     2        PPPE     C23      CTL2    -0.180000       12.0110           0
     39014 MEMB     2        PPPE     H3R      HAL2     0.900000E-01   1.00800           0
     39015 MEMB     2        PPPE     H3S      HAL2     0.900000E-01   1.00800           0
     39016 MEMB     2        PPPE     C24      CTL2    -0.180000       12.0110           0
     39017 MEMB     2        PPPE     H4R      HAL2     0.900000E-01   1.00800           0
     39018 MEMB     2        PPPE     H4S      HAL2     0.900000E-01   1.00800           0
     39019 MEMB     2        PPPE     C25      CTL2    -0.180000       12.0110           0
     39020 MEMB     2        PPPE     H5R      HAL2     0.900000E-01   1.00800           0
     39021 MEMB     2        PPPE     H5S      HAL2     0.900000E-01   1.00800           0
     39022 MEMB     2        PPPE     C26      CTL2    -0.180000       12.0110           0
     39023 MEMB     2        PPPE     H6R      HAL2     0.900000E-01   1.00800           0
     39024 MEMB     2        PPPE     H6S      HAL2     0.900000E-01   1.00800           0
     39025 MEMB     2        PPPE     C27      CTL2    -0.180000       12.0110           0
     39026 MEMB     2        PPPE     H7R      HAL2     0.900000E-01   1.00800           0
     39027 MEMB     2        PPPE     H7S      HAL2     0.900000E-01   1.00800           0
     39028 MEMB     2        PPPE     C28      CTL2    -0.180000       12.0110           0
     39029 MEMB     2        PPPE     H8R      HAL2     0.900000E-01   1.00800           0
     39030 MEMB     2        PPPE     H8S      HAL2     0.900000E-01   1.00800           0
     39031 MEMB     2        PPPE     C29      CEL1    -0.150000       12.0110           0
     39032 MEMB     2        PPPE     H91      HEL1     0.150000       1.00800           0
     39033 MEMB     2        PPPE     C210     CEL1    -0.150000       12.0110           0
     39034 MEMB     2        PPPE     H101     HEL1     0.150000       1.00800           0
     39035 MEMB     2        PPPE     C211     CTL2    -0.180000       12.0110           0
     39036 MEMB     2        PPPE     H11R     HAL2     0.900000E-01   1.00800           0
     39037 MEMB     2        PPPE     H11S     HAL2     0.900000E-01   1.00800           0
     39038 MEMB     2        PPPE     C212     CTL2    -0.180000       12.0110           0
     39039 MEMB     2        PPPE     H12R     HAL2     0.900000E-01   1.00800           0
     39040 MEMB     2        PPPE     H12S     HAL2     0.900000E-01   1.00800           0
     39041 MEMB     2        PPPE     C213     CTL2    -0.180000       12.0110           0
     39042 MEMB     2        PPPE     H13R     HAL2     0.900000E-01   1.00800           0
     39043 MEMB     2        PPPE     H13S     HAL2     0.900000E-01   1.00800           0
     39044 MEMB     2        PPPE     C214     CTL2    -0.180000       12.0110           0
     39045 MEMB     2        PPPE     H14R     HAL2     0.900000E-01   1.00800           0
     39046 MEMB     2        PPPE     H14S     HAL2     0.900000E-01   1.00800           0
     39047 MEMB     2        PPPE     C215     CTL2    -0.180000       12.0110           0
     39048 MEMB     2        PPPE     H15R     HAL2     0.900000E-01   1.00800           0
     39049 MEMB     2        PPPE     H15S     HAL2     0.900000E-01   1.00800           0
     39050 MEMB     2        PPPE     C216     CTL3    -0.270000       12.0110           0
     39051 MEMB     2        PPPE     H16R     HAL3     0.900000E-01   1.00800           0
     39052 MEMB     2        PPPE     H16S     HAL3     0.900000E-01   1.00800           0
     39053 MEMB     2        PPPE     H16T     HAL3     0.900000E-01   1.00800           0
     39054 MEMB     2        PPPE     C33      CTL2    -0.180000       12.0110           0
     39055 MEMB     2        PPPE     H3X      HAL2     0.900000E-01   1.00800           0
     39056 MEMB     2        PPPE     H3Y      HAL2     0.900000E-01   1.00800           0
     39057 MEMB     2        PPPE     C34      CTL2    -0.180000       12.0110           0
     39058 MEMB     2        PPPE     H4X      HAL2     0.900000E-01   1.00800           0
     39059 MEMB     2        PPPE     H4Y      HAL2     0.900000E-01   1.00800           0
     39060 MEMB     2        PPPE     C35      CTL2    -0.180000       12.0110           0
     39061 MEMB     2        PPPE     H5X      HAL2     0.900000E-01   1.00800           0
     39062 MEMB     2        PPPE     H5Y      HAL2     0.900000E-01   1.00800           0
     39063 MEMB     2        PPPE     C36      CTL2    -0.180000       12.0110           0
     39064 MEMB     2        PPPE     H6X      HAL2     0.900000E-01   1.00800           0
     39065 MEMB     2        PPPE     H6Y      HAL2     0.900000E-01   1.00800           0
     39066 MEMB     2        PPPE     C37      CTL2    -0.180000       12.0110           0
     39067 MEMB     2        PPPE     H7X      HAL2     0.900000E-01   1.00800           0
     39068 MEMB     2        PPPE     H7Y      HAL2     0.900000E-01   1.00800           0
     39069 MEMB     2        PPPE     C38      CTL2    -0.180000       12.0110           0
     39070 MEMB     2        PPPE     H8X      HAL2     0.900000E-01   1.00800           0
     39071 MEMB     2        PPPE     H8Y      HAL2     0.900000E-01   1.00800           0
     39072 MEMB     2        PPPE     C39      CTL2    -0.180000       12.0110           0
     39073 MEMB     2        PPPE     H9X      HAL2     0.900000E-01   1.00800           0
     39074 MEMB     2        PPPE     H9Y      HAL2     0.900000E-01   1.00800           0
     39075 MEMB     2        PPPE     C310     CTL2    -0.180000       12.0110           0
     39076 MEMB     2        PPPE     H10X     HAL2     0.900000E-01   1.00800           0
     39077 MEMB     2        PPPE     H10Y     HAL2     0.900000E-01   1.00800           0
     39078 MEMB     2        PPPE     C311     CTL2    -0.180000       12.0110           0
     39079 MEMB     2        PPPE     H11X     HAL2     0.900000E-01   1.00800           0
     39080 MEMB     2        PPPE     H11Y     HAL2     0.900000E-01   1.00800           0
     39081 MEMB     2        PPPE     C312     CTL2    -0.180000       12.0110           0
     39082 MEMB     2        PPPE     H12X     HAL2     0.900000E-01   1.00800           0
     39083 MEMB     2        PPPE     H12Y     HAL2     0.900000E-01   1.00800           0
     39084 MEMB     2        PPPE     C313     CTL2    -0.180000       12.0110           0
     39085 MEMB     2        PPPE     H13X     HAL2     0.900000E-01   1.00800           0
     39086 MEMB     2        PPPE     H13Y     HAL2     0.900000E-01   1.00800           0
     39087 MEMB     2        PPPE     C314     CTL2    -0.180000       12.0110           0
     39088 MEMB     2        PPPE     H14X     HAL2     0.900000E-01   1.00800           0
     39089 MEMB     2        PPPE     H14Y     HAL2     0.900000E-01   1.00800           0
     39090 MEMB     2        PPPE     C315     CTL2    -0.180000       12.0110           0
     39091 MEMB     2        PPPE     H15X     HAL2     0.900000E-01   1.00800           0
     39092 MEMB     2        PPPE     H15Y     HAL2     0.900000E-01   1.00800           0
     39093 MEMB     2        PPPE     C316     CTL3    -0.270000       12.0110           0
     39094 MEMB     2        PPPE     H16X     HAL3     0.900000E-01   1.00800           0
     39095 MEMB     2        PPPE     H16Y     HAL3     0.900000E-01   1.00800           0
     39096 MEMB     2        PPPE     H16Z     HAL3     0.900000E-01   1.00800           0
     39097 MEMB     3        PPPE     N        NH3L    -0.300000       14.0070           0
     39098 MEMB     3        PPPE     HN1      HCL      0.330000       1.00800           0
     39099 MEMB     3        PPPE     HN2      HCL      0.330000       1.00800           0
     39100 MEMB     3        PPPE     HN3      HCL      0.330000       1.00800           0
     39101 MEMB     3        PPPE     C12      CTL2     0.130000       12.0110           0
     39102 MEMB     3        PPPE     H12A     HAL2     0.900000E-01   1.00800           0
     39103 MEMB     3        PPPE     H12B     HAL2     0.900000E-01   1.00800           0
     39104 MEMB     3        PPPE     C11      CTL2    -0.800000E-01   12.0110           0
     39105 MEMB     3        PPPE     H11A     HAL2     0.900000E-01   1.00800           0
     39106 MEMB     3        PPPE     H11B     HAL2     0.900000E-01   1.00800           0
     39107 MEMB     3        PPPE     P        PL        1.50000       30.9740           0
     39108 MEMB     3        PPPE     O13      O2L     -0.780000       15.9994           0
     39109 MEMB     3        PPPE     O14      O2L     -0.780000       15.9994           0
     39110 MEMB     3        PPPE     O11      OSLP    -0.570000       15.9994           0
     39111 MEMB     3        PPPE     O12      OSLP    -0.570000       15.9994           0
     39112 MEMB     3        PPPE     C1       CTL2    -0.800000E-01   12.0110           0
     39113 MEMB     3        PPPE     HA       HAL2     0.900000E-01   1.00800           0
     39114 MEMB     3        PPPE     HB       HAL2     0.900000E-01   1.00800           0
     39115 MEMB     3        PPPE     C2       CTL1     0.170000       12.0110           0
     39116 MEMB     3        PPPE     HS       HAL1     0.900000E-01   1.00800           0
     39117 MEMB     3        PPPE     O21      OSL     -0.490000       15.9994           0
     39118 MEMB     3        PPPE     C21      CL       0.900000       12.0110           0
     39119 MEMB     3        PPPE     O22      OBL     -0.630000       15.9994           0
     39120 MEMB     3        PPPE     C22      CTL2    -0.220000       12.0110           0
     39121 MEMB     3        PPPE     H2R      HAL2     0.900000E-01   1.00800           0
     39122 MEMB     3        PPPE     H2S      HAL2     0.900000E-01   1.00800           0
     39123 MEMB     3        PPPE     C3       CTL2     0.800000E-01   12.0110           0
     39124 MEMB     3        PPPE     HX       HAL2     0.900000E-01   1.00800           0
     39125 MEMB     3        PPPE     HY       HAL2     0.900000E-01   1.00800           0
     39126 MEMB     3        PPPE     O31      OSL     -0.490000       15.9994           0
     39127 MEMB     3        PPPE     C31      CL       0.900000       12.0110           0
     39128 MEMB     3        PPPE     O32      OBL     -0.630000       15.9994           0
     39129 MEMB     3        PPPE     C32      CTL2    -0.220000       12.0110           0
     39130 MEMB     3        PPPE     H2X      HAL2     0.900000E-01   1.00800           0
     39131 MEMB     3        PPPE     H2Y      HAL2     0.900000E-01   1.00800           0
     39132 MEMB     3        PPPE     C23      CTL2    -0.180000       12.0110           0
     39133 MEMB     3        PPPE     H3R      HAL2     0.900000E-01   1.00800           0
     39134 MEMB     3        PPPE     H3S      HAL2     0.900000E-01   1.00800           0
     39135 MEMB     3        PPPE     C24      CTL2    -0.180000       12.0110           0
     39136 MEMB     3        PPPE     H4R      HAL2     0.900000E-01   1.00800           0
     39137 MEMB     3        PPPE     H4S      HAL2     0.900000E-01   1.00800           0
     39138 MEMB     3        PPPE     C25      CTL2    -0.180000       12.0110           0
     39139 MEMB     3        PPPE     H5R      HAL2     0.900000E-01   1.00800           0
     39140 MEMB     3        PPPE     H5S      HAL2     0.900000E-01   1.00800           0
     39141 MEMB     3        PPPE     C26      CTL2    -0.180000       12.0110           0
     39142 MEMB     3        PPPE     H6R      HAL2     0.900000E-01   1.00800           0
     39143 MEMB     3        PPPE     H6S      HAL2     0.900000E-01   1.00800           0
     39144 MEMB     3        PPPE     C27      CTL2    -0.180000       12.0110           0
     39145 MEMB     3        PPPE     H7R      HAL2     0.900000E-01   1.00800           0
     39146 MEMB     3        PPPE     H7S      HAL2     0.900000E-01   1.00800           0
     39147 MEMB     3        PPPE     C28      CTL2    -0.180000       12.0110           0
     39148 MEMB     3        PPPE     H8R      HAL2     0.900000E-01   1.00800           0
     39149 MEMB     3        PPPE     H8S      HAL2     0.900000E-01   1.00800           0
     39150 MEMB     3        PPPE     C29      CEL1    -0.150000       12.0110           0
     39151 MEMB     3        PPPE     H91      HEL1     0.150000       1.00800           0
     39152 MEMB     3        PPPE     C210     CEL1    -0.150000       12.0110           0
     39153 MEMB     3        PPPE     H101     HEL1     0.150000       1.00800           0
     39154 MEMB     3        PPPE     C211     CTL2    -0.180000       12.0110           0
     39155 MEMB     3        PPPE     H11R     HAL2     0.900000E-01   1.00800           0
     39156 MEMB     3        PPPE     H11S     HAL2     0.900000E-01   1.00800           0
     39157 MEMB     3        PPPE     C212     CTL2    -0.180000       12.0110           0
     39158 MEMB     3        PPPE     H12R     HAL2     0.900000E-01   1.00800           0
     39159 MEMB     3        PPPE     H12S     HAL2     0.900000E-01   1.00800           0
     39160 MEMB     3        PPPE     C213     CTL2    -0.180000       12.0110           0
     39161 MEMB     3        PPPE     H13R     HAL2     0.900000E-01   1.00800           0
     39162 MEMB     3        PPPE     H13S     HAL2     0.900000E-01   1.00800           0
     39163 MEMB     3        PPPE     C214     CTL2    -0.180000       12.0110           0
     39164 MEMB     3        PPPE     H14R     HAL2     0.900000E-01   1.00800           0
     39165 MEMB     3        PPPE     H14S     HAL2     0.900000E-01   1.00800           0
     39166 MEMB     3        PPPE     C215     CTL2    -0.180000       12.0110           0
     39167 MEMB     3        PPPE     H15R     HAL2     0.900000E-01   1.00800           0
     39168 MEMB     3        PPPE     H15S     HAL2     0.900000E-01   1.00800           0
     39169 MEMB     3        PPPE     C216     CTL3    -0.270000       12.0110           0
     39170 MEMB     3        PPPE     H16R     HAL3     0.900000E-01   1.00800           0
     39171 MEMB     3        PPPE     H16S     HAL3     0.900000E-01   1.00800           0
     39172 MEMB     3        PPPE     H16T     HAL3     0.900000E-01   1.00800           0
     39173 MEMB     3        PPPE     C33      CTL2    -0.180000       12.0110           0
     39174 MEMB     3        PPPE     H3X      HAL2     0.900000E-01   1.00800           0
     39175 MEMB     3        PPPE     H3Y      HAL2     0.900000E-01   1.00800           0
     39176 MEMB     3        PPPE     C34      CTL2    -0.180000       12.0110           0
     39177 MEMB     3        PPPE     H4X      HAL2     0.900000E-01   1.00800           0
     39178 MEMB     3        PPPE     H4Y      HAL2     0.900000E-01   1.00800           0
     39179 MEMB     3        PPPE     C35      CTL2    -0.180000       12.0110           0
     39180 MEMB     3        PPPE     H5X      HAL2     0.900000E-01   1.00800           0
     39181 MEMB     3        PPPE     H5Y      HAL2     0.900000E-01   1.00800           0
     39182 MEMB     3        PPPE     C36      CTL2    -0.180000       12.0110           0
     39183 MEMB     3        PPPE     H6X      HAL2     0.900000E-01   1.00800           0
     39184 MEMB     3        PPPE     H6Y      HAL2     0.900000E-01   1.00800           0
     39185 MEMB     3        PPPE     C37      CTL2    -0.180000       12.0110           0
     39186 MEMB     3        PPPE     H7X      HAL2     0.900000E-01   1.00800           0
     39187 MEMB     3        PPPE     H7Y      HAL2     0.900000E-01   1.00800           0
     39188 MEMB     3        PPPE     C38      CTL2    -0.180000       12.0110           0
     39189 MEMB     3        PPPE     H8X      HAL2     0.900000E-01   1.00800           0
     39190 MEMB     3        PPPE     H8Y      HAL2     0.900000E-01   1.00800           0
     39191 MEMB     3        PPPE     C39      CTL2    -0.180000       12.0110           0
     39192 MEMB     3        PPPE     H9X      HAL2     0.900000E-01   1.00800           0
     39193 MEMB     3        PPPE     H9Y      HAL2     0.900000E-01   1.00800           0
     39194 MEMB     3        PPPE     C310     CTL2    -0.180000       12.0110           0
     39195 MEMB     3        PPPE     H10X     HAL2     0.900000E-01   1.00800           0
     39196 MEMB     3        PPPE     H10Y     HAL2     0.900000E-01   1.00800           0
     39197 MEMB     3        PPPE     C311     CTL2    -0.180000       12.0110           0
     39198 MEMB     3        PPPE     H11X     HAL2     0.900000E-01   1.00800           0
     39199 MEMB     3        PPPE     H11Y     HAL2     0.900000E-01   1.00800           0
     39200 MEMB     3        PPPE     C312     CTL2    -0.180000       12.0110           0
     39201 MEMB     3        PPPE     H12X     HAL2     0.900000E-01   1.00800           0
     39202 MEMB     3        PPPE     H12Y     HAL2     0.900000E-01   1.00800           0
     39203 MEMB     3        PPPE     C313     CTL2    -0.180000       12.0110           0
     39204 MEMB     3        PPPE     H13X     HAL2     0.900000E-01   1.00800           0
     39205 MEMB     3        PPPE     H13Y     HAL2     0.900000E-01   1.00800           0
     39206 MEMB     3        PPPE     C314     CTL2    -0.180000       12.0110           0
     39207 MEMB     3        PPPE     H14X     HAL2     0.900000E-01   1.00800           0
     39208 MEMB     3        PPPE     H14Y     HAL2     0.900000E-01   1.00800           0
     39209 MEMB     3        PPPE     C315     CTL2    -0.180000       12.0110           0
     39210 MEMB     3        PPPE     H15X     HAL2     0.900000E-01   1.00800           0
     39211 MEMB     3        PPPE     H15Y     HAL2     0.900000E-01   1.00800           0
     39212 MEMB     3        PPPE     C316     CTL3    -0.270000       12.0110           0
     39213 MEMB     3        PPPE     H16X     HAL3     0.900000E-01   1.00800           0
     39214 MEMB     3        PPPE     H16Y     HAL3     0.900000E-01   1.00800           0
     39215 MEMB     3        PPPE     H16Z     HAL3     0.900000E-01   1.00800           0
     39216 MEMB     4        PVPG     C13      CTL2     0.500000E-01   12.0110           0
     39217 MEMB     4        PVPG     H13A     HAL2     0.900000E-01   1.00800           0
     39218 MEMB     4        PVPG     H13B     HAL2     0.900000E-01   1.00800           0
     39219 MEMB     4        PVPG     OC3      OHL     -0.650000       15.9994           0
     39220 MEMB     4        PVPG     HO3      HOL      0.420000       1.00800           0
     39221 MEMB     4        PVPG     C12      CTL1     0.140000       12.0110           0
     39222 MEMB     4        PVPG     H12A     HAL1     0.900000E-01   1.00800           0
     39223 MEMB     4        PVPG     OC2      OHL     -0.650000       15.9994           0
     39224 MEMB     4        PVPG     HO2      HOL      0.420000       1.00800           0
     39225 MEMB     4        PVPG     C11      CTL2    -0.800000E-01   12.0110           0
     39226 MEMB     4        PVPG     H11A     HAL2     0.900000E-01   1.00800           0
     39227 MEMB     4        PVPG     H11B     HAL2     0.900000E-01   1.00800           0
     39228 MEMB     4        PVPG     P        PL        1.50000       30.9740           0
     39229 MEMB     4        PVPG     O13      O2L     -0.780000       15.9994           0
     39230 MEMB     4        PVPG     O14      O2L     -0.780000       15.9994           0
     39231 MEMB     4        PVPG     O12      OSLP    -0.570000       15.9994           0
     39232 MEMB     4        PVPG     O11      OSLP    -0.570000       15.9994           0
     39233 MEMB     4        PVPG     C1       CTL2    -0.800000E-01   12.0110           0
     39234 MEMB     4        PVPG     HA       HAL2     0.900000E-01   1.00800           0
     39235 MEMB     4        PVPG     HB       HAL2     0.900000E-01   1.00800           0
     39236 MEMB     4        PVPG     C2       CTL1     0.170000       12.0110           0
     39237 MEMB     4        PVPG     HS       HAL1     0.900000E-01   1.00800           0
     39238 MEMB     4        PVPG     O21      OSL     -0.490000       15.9994           0
     39239 MEMB     4        PVPG     C21      CL       0.900000       12.0110           0
     39240 MEMB     4        PVPG     O22      OBL     -0.630000       15.9994           0
     39241 MEMB     4        PVPG     C22      CTL2    -0.220000       12.0110           0
     39242 MEMB     4        PVPG     H2R      HAL2     0.900000E-01   1.00800           0
     39243 MEMB     4        PVPG     H2S      HAL2     0.900000E-01   1.00800           0
     39244 MEMB     4        PVPG     C3       CTL2     0.800000E-01   12.0110           0
     39245 MEMB     4        PVPG     HX       HAL2     0.900000E-01   1.00800           0
     39246 MEMB     4        PVPG     HY       HAL2     0.900000E-01   1.00800           0
     39247 MEMB     4        PVPG     O31      OSL     -0.490000       15.9994           0
     39248 MEMB     4        PVPG     C31      CL       0.900000       12.0110           0
     39249 MEMB     4        PVPG     O32      OBL     -0.630000       15.9994           0
     39250 MEMB     4        PVPG     C32      CTL2    -0.220000       12.0110           0
     39251 MEMB     4        PVPG     H2X      HAL2     0.900000E-01   1.00800           0
     39252 MEMB     4        PVPG     H2Y      HAL2     0.900000E-01   1.00800           0
     39253 MEMB     4        PVPG     C23      CTL2    -0.180000       12.0110           0
     39254 MEMB     4        PVPG     H3R      HAL2     0.900000E-01   1.00800           0
     39255 MEMB     4        PVPG     H3S      HAL2     0.900000E-01   1.00800           0
     39256 MEMB     4        PVPG     C24      CTL2    -0.180000       12.0110           0
     39257 MEMB     4        PVPG     H4R      HAL2     0.900000E-01   1.00800           0
     39258 MEMB     4        PVPG     H4S      HAL2     0.900000E-01   1.00800           0
     39259 MEMB     4        PVPG     C25      CTL2    -0.180000       12.0110           0
     39260 MEMB     4        PVPG     H5R      HAL2     0.900000E-01   1.00800           0
     39261 MEMB     4        PVPG     H5S      HAL2     0.900000E-01   1.00800           0
     39262 MEMB     4        PVPG     C26      CTL2    -0.180000       12.0110           0
     39263 MEMB     4        PVPG     H6R      HAL2     0.900000E-01   1.00800           0
     39264 MEMB     4        PVPG     H6S      HAL2     0.900000E-01   1.00800           0
     39265 MEMB     4        PVPG     C27      CTL2    -0.180000       12.0110           0
     39266 MEMB     4        PVPG     H7R      HAL2     0.900000E-01   1.00800           0
     39267 MEMB     4        PVPG     H7S      HAL2     0.900000E-01   1.00800           0
     39268 MEMB     4        PVPG     C28      CTL2    -0.180000       12.0110           0
     39269 MEMB     4        PVPG     H8R      HAL2     0.900000E-01   1.00800           0
     39270 MEMB     4        PVPG     H8S      HAL2     0.900000E-01   1.00800           0
     39271 MEMB     4        PVPG     C29      CTL2    -0.180000       12.0110           0
     39272 MEMB     4        PVPG     H9R      HAL2     0.900000E-01   1.00800           0
     39273 MEMB     4        PVPG     H9S      HAL2     0.900000E-01   1.00800           0
     39274 MEMB     4        PVPG     C210     CTL2    -0.180000       12.0110           0
     39275 MEMB     4        PVPG     H10R     HAL2     0.900000E-01   1.00800           0
     39276 MEMB     4        PVPG     H10S     HAL2     0.900000E-01   1.00800           0
     39277 MEMB     4        PVPG     C211     CEL1    -0.150000       12.0110           0
     39278 MEMB     4        PVPG     H111     HEL1     0.150000       1.00800           0
     39279 MEMB     4        PVPG     C212     CEL1    -0.150000       12.0110           0
     39280 MEMB     4        PVPG     H121     HEL1     0.150000       1.00800           0
     39281 MEMB     4        PVPG     C213     CTL2    -0.180000       12.0110           0
     39282 MEMB     4        PVPG     H13R     HAL2     0.900000E-01   1.00800           0
     39283 MEMB     4        PVPG     H13S     HAL2     0.900000E-01   1.00800           0
     39284 MEMB     4        PVPG     C214     CTL2    -0.180000       12.0110           0
     39285 MEMB     4        PVPG     H14R     HAL2     0.900000E-01   1.00800           0
     39286 MEMB     4        PVPG     H14S     HAL2     0.900000E-01   1.00800           0
     39287 MEMB     4        PVPG     C215     CTL2    -0.180000       12.0110           0
     39288 MEMB     4        PVPG     H15R     HAL2     0.900000E-01   1.00800           0
     39289 MEMB     4        PVPG     H15S     HAL2     0.900000E-01   1.00800           0
     39290 MEMB     4        PVPG     C216     CTL2    -0.180000       12.0110           0
     39291 MEMB     4        PVPG     H16R     HAL2     0.900000E-01   1.00800           0
     39292 MEMB     4        PVPG     H16S     HAL2     0.900000E-01   1.00800           0
     39293 MEMB     4        PVPG     C217     CTL2    -0.180000       12.0110           0
     39294 MEMB     4        PVPG     H17R     HAL2     0.900000E-01   1.00800           0
     39295 MEMB     4        PVPG     H17S     HAL2     0.900000E-01   1.00800           0
     39296 MEMB     4        PVPG     C218     CTL3    -0.270000       12.0110           0
     39297 MEMB     4        PVPG     H18R     HAL3     0.900000E-01   1.00800           0
     39298 MEMB     4        PVPG     H18S     HAL3     0.900000E-01   1.00800           0
     39299 MEMB     4        PVPG     H18T     HAL3     0.900000E-01   1.00800           0
     39300 MEMB     4        PVPG     C33      CTL2    -0.180000       12.0110           0
     39301 MEMB     4        PVPG     H3X      HAL2     0.900000E-01   1.00800           0
     39302 MEMB     4        PVPG     H3Y      HAL2     0.900000E-01   1.00800           0
     39303 MEMB     4        PVPG     C34      CTL2    -0.180000       12.0110           0
     39304 MEMB     4        PVPG     H4X      HAL2     0.900000E-01   1.00800           0
     39305 MEMB     4        PVPG     H4Y      HAL2     0.900000E-01   1.00800           0
     39306 MEMB     4        PVPG     C35      CTL2    -0.180000       12.0110           0
     39307 MEMB     4        PVPG     H5X      HAL2     0.900000E-01   1.00800           0
     39308 MEMB     4        PVPG     H5Y      HAL2     0.900000E-01   1.00800           0
     39309 MEMB     4        PVPG     C36      CTL2    -0.180000       12.0110           0
     39310 MEMB     4        PVPG     H6X      HAL2     0.900000E-01   1.00800           0
     39311 MEMB     4        PVPG     H6Y      HAL2     0.900000E-01   1.00800           0
     39312 MEMB     4        PVPG     C37      CTL2    -0.180000       12.0110           0
     39313 MEMB     4        PVPG     H7X      HAL2     0.900000E-01   1.00800           0
     39314 MEMB     4        PVPG     H7Y      HAL2     0.900000E-01   1.00800           0
     39315 MEMB     4        PVPG     C38      CTL2    -0.180000       12.0110           0
     39316 MEMB     4        PVPG     H8X      HAL2     0.900000E-01   1.00800           0
     39317 MEMB     4        PVPG     H8Y      HAL2     0.900000E-01   1.00800           0
     39318 MEMB     4        PVPG     C39      CTL2    -0.180000       12.0110           0
     39319 MEMB     4        PVPG     H9X      HAL2     0.900000E-01   1.00800           0
     39320 MEMB     4        PVPG     H9Y      HAL2     0.900000E-01   1.00800           0
     39321 MEMB     4        PVPG     C310     CTL2    -0.180000       12.0110           0
     39322 MEMB     4        PVPG     H10X     HAL2     0.900000E-01   1.00800           0
     39323 MEMB     4        PVPG     H10Y     HAL2     0.900000E-01   1.00800           0
     39324 MEMB     4        PVPG     C311     CTL2    -0.180000       12.0110           0
     39325 MEMB     4        PVPG     H11X     HAL2     0.900000E-01   1.00800           0
     39326 MEMB     4        PVPG     H11Y     HAL2     0.900000E-01   1.00800           0
     39327 MEMB     4        PVPG     C312     CTL2    -0.180000       12.0110           0
     39328 MEMB     4        PVPG     H12X     HAL2     0.900000E-01   1.00800           0
     39329 MEMB     4        PVPG     H12Y     HAL2     0.900000E-01   1.00800           0
     39330 MEMB     4        PVPG     C313     CTL2    -0.180000       12.0110           0
     39331 MEMB     4        PVPG     H13X     HAL2     0.900000E-01   1.00800           0
     39332 MEMB     4        PVPG     H13Y     HAL2     0.900000E-01   1.00800           0
     39333 MEMB     4        PVPG     C314     CTL2    -0.180000       12.0110           0
     39334 MEMB     4        PVPG     H14X     HAL2     0.900000E-01   1.00800           0
     39335 MEMB     4        PVPG     H14Y     HAL2     0.900000E-01   1.00800           0
     39336 MEMB     4        PVPG     C315     CTL2    -0.180000       12.0110           0
     39337 MEMB     4        PVPG     H15X     HAL2     0.900000E-01   1.00800           0
     39338 MEMB     4        PVPG     H15Y     HAL2     0.900000E-01   1.00800           0
     39339 MEMB     4        PVPG     C316     CTL3    -0.270000       12.0110           0
     39340 MEMB     4        PVPG     H16X     HAL3     0.900000E-01   1.00800           0
     39341 MEMB     4        PVPG     H16Y     HAL3     0.900000E-01   1.00800           0
     39342 MEMB     4        PVPG     H16Z     HAL3     0.900000E-01   1.00800           0
     39343 MEMB     5        PPPE     N        NH3L    -0.300000       14.0070           0
     39344 MEMB     5        PPPE     HN1      HCL      0.330000       1.00800           0
     39345 MEMB     5        PPPE     HN2      HCL      0.330000       1.00800           0
     39346 MEMB     5        PPPE     HN3      HCL      0.330000       1.00800           0
     39347 MEMB     5        PPPE     C12      CTL2     0.130000       12.0110           0
     39348 MEMB     5        PPPE     H12A     HAL2     0.900000E-01   1.00800           0
     39349 MEMB     5        PPPE     H12B     HAL2     0.900000E-01   1.00800           0
     39350 MEMB     5        PPPE     C11      CTL2    -0.800000E-01   12.0110           0
     39351 MEMB     5        PPPE     H11A     HAL2     0.900000E-01   1.00800           0
     39352 MEMB     5        PPPE     H11B     HAL2     0.900000E-01   1.00800           0
     39353 MEMB     5        PPPE     P        PL        1.50000       30.9740           0
     39354 MEMB     5        PPPE     O13      O2L     -0.780000       15.9994           0
     39355 MEMB     5        PPPE     O14      O2L     -0.780000       15.9994           0
     39356 MEMB     5        PPPE     O11      OSLP    -0.570000       15.9994           0
     39357 MEMB     5        PPPE     O12      OSLP    -0.570000       15.9994           0
     39358 MEMB     5        PPPE     C1       CTL2    -0.800000E-01   12.0110           0
     39359 MEMB     5        PPPE     HA       HAL2     0.900000E-01   1.00800           0
     39360 MEMB     5        PPPE     HB       HAL2     0.900000E-01   1.00800           0
     39361 MEMB     5        PPPE     C2       CTL1     0.170000       12.0110           0
     39362 MEMB     5        PPPE     HS       HAL1     0.900000E-01   1.00800           0
     39363 MEMB     5        PPPE     O21      OSL     -0.490000       15.9994           0
     39364 MEMB     5        PPPE     C21      CL       0.900000       12.0110           0
     39365 MEMB     5        PPPE     O22      OBL     -0.630000       15.9994           0
     39366 MEMB     5        PPPE     C22      CTL2    -0.220000       12.0110           0
     39367 MEMB     5        PPPE     H2R      HAL2     0.900000E-01   1.00800           0
     39368 MEMB     5        PPPE     H2S      HAL2     0.900000E-01   1.00800           0
     39369 MEMB     5        PPPE     C3       CTL2     0.800000E-01   12.0110           0
     39370 MEMB     5        PPPE     HX       HAL2     0.900000E-01   1.00800           0
     39371 MEMB     5        PPPE     HY       HAL2     0.900000E-01   1.00800           0
     39372 MEMB     5        PPPE     O31      OSL     -0.490000       15.9994           0
     39373 MEMB     5        PPPE     C31      CL       0.900000       12.0110           0
     39374 MEMB     5        PPPE     O32      OBL     -0.630000       15.9994           0
     39375 MEMB     5        PPPE     C32      CTL2    -0.220000       12.0110           0
     39376 MEMB     5        PPPE     H2X      HAL2     0.900000E-01   1.00800           0
     39377 MEMB     5        PPPE     H2Y      HAL2     0.900000E-01   1.00800           0
     39378 MEMB     5        PPPE     C23      CTL2    -0.180000       12.0110           0
     39379 MEMB     5        PPPE     H3R      HAL2     0.900000E-01   1.00800           0
     39380 MEMB     5        PPPE     H3S      HAL2     0.900000E-01   1.00800           0
     39381 MEMB     5        PPPE     C24      CTL2    -0.180000       12.0110           0
     39382 MEMB     5        PPPE     H4R      HAL2     0.900000E-01   1.00800           0
     39383 MEMB     5        PPPE     H4S      HAL2     0.900000E-01   1.00800           0
     39384 MEMB     5        PPPE     C25      CTL2    -0.180000       12.0110           0
     39385 MEMB     5        PPPE     H5R      HAL2     0.900000E-01   1.00800           0
     39386 MEMB     5        PPPE     H5S      HAL2     0.900000E-01   1.00800           0
     39387 MEMB     5        PPPE     C26      CTL2    -0.180000       12.0110           0
     39388 MEMB     5        PPPE     H6R      HAL2     0.900000E-01   1.00800           0
     39389 MEMB     5        PPPE     H6S      HAL2     0.900000E-01   1.00800           0
     39390 MEMB     5        PPPE     C27      CTL2    -0.180000       12.0110           0
     39391 MEMB     5        PPPE     H7R      HAL2     0.900000E-01   1.00800           0
     39392 MEMB     5        PPPE     H7S      HAL2     0.900000E-01   1.00800           0
     39393 MEMB     5        PPPE     C28      CTL2    -0.180000       12.0110           0
     39394 MEMB     5        PPPE     H8R      HAL2     0.900000E-01   1.00800           0
     39395 MEMB     5        PPPE     H8S      HAL2     0.900000E-01   1.00800           0
     39396 MEMB     5        PPPE     C29      CEL1    -0.150000       12.0110           0
     39397 MEMB     5        PPPE     H91      HEL1     0.150000       1.00800           0
     39398 MEMB     5        PPPE     C210     CEL1    -0.150000       12.0110           0
     39399 MEMB     5        PPPE     H101     HEL1     0.150000       1.00800           0
     39400 MEMB     5        PPPE     C211     CTL2    -0.180000       12.0110           0
     39401 MEMB     5        PPPE     H11R     HAL2     0.900000E-01   1.00800           0
     39402 MEMB     5        PPPE     H11S     HAL2     0.900000E-01   1.00800           0
     39403 MEMB     5        PPPE     C212     CTL2    -0.180000       12.0110           0
     39404 MEMB     5        PPPE     H12R     HAL2     0.900000E-01   1.00800           0
     39405 MEMB     5        PPPE     H12S     HAL2     0.900000E-01   1.00800           0
     39406 MEMB     5        PPPE     C213     CTL2    -0.180000       12.0110           0
     39407 MEMB     5        PPPE     H13R     HAL2     0.900000E-01   1.00800           0
     39408 MEMB     5        PPPE     H13S     HAL2     0.900000E-01   1.00800           0
     39409 MEMB     5        PPPE     C214     CTL2    -0.180000       12.0110           0
     39410 MEMB     5        PPPE     H14R     HAL2     0.900000E-01   1.00800           0
     39411 MEMB     5        PPPE     H14S     HAL2     0.900000E-01   1.00800           0
     39412 MEMB     5        PPPE     C215     CTL2    -0.180000       12.0110           0
     39413 MEMB     5        PPPE     H15R     HAL2     0.900000E-01   1.00800           0
     39414 MEMB     5        PPPE     H15S     HAL2     0.900000E-01   1.00800           0
     39415 MEMB     5        PPPE     C216     CTL3    -0.270000       12.0110           0
     39416 MEMB     5        PPPE     H16R     HAL3     0.900000E-01   1.00800           0
     39417 MEMB     5        PPPE     H16S     HAL3     0.900000E-01   1.00800           0
     39418 MEMB     5        PPPE     H16T     HAL3     0.900000E-01   1.00800           0
     39419 MEMB     5        PPPE     C33      CTL2    -0.180000       12.0110           0
     39420 MEMB     5        PPPE     H3X      HAL2     0.900000E-01   1.00800           0
     39421 MEMB     5        PPPE     H3Y      HAL2     0.900000E-01   1.00800           0
     39422 MEMB     5        PPPE     C34      CTL2    -0.180000       12.0110           0
     39423 MEMB     5        PPPE     H4X      HAL2     0.900000E-01   1.00800           0
     39424 MEMB     5        PPPE     H4Y      HAL2     0.900000E-01   1.00800           0
     39425 MEMB     5        PPPE     C35      CTL2    -0.180000       12.0110           0
     39426 MEMB     5        PPPE     H5X      HAL2     0.900000E-01   1.00800           0
     39427 MEMB     5        PPPE     H5Y      HAL2     0.900000E-01   1.00800           0
     39428 MEMB     5        PPPE     C36      CTL2    -0.180000       12.0110           0
     39429 MEMB     5        PPPE     H6X      HAL2     0.900000E-01   1.00800           0
     39430 MEMB     5        PPPE     H6Y      HAL2     0.900000E-01   1.00800           0
     39431 MEMB     5        PPPE     C37      CTL2    -0.180000       12.0110           0
     39432 MEMB     5        PPPE     H7X      HAL2     0.900000E-01   1.00800           0
     39433 MEMB     5        PPPE     H7Y      HAL2     0.900000E-01   1.00800           0
     39434 MEMB     5        PPPE     C38      CTL2    -0.180000       12.0110           0
     39435 MEMB     5        PPPE     H8X      HAL2     0.900000E-01   1.00800           0
     39436 MEMB     5        PPPE     H8Y      HAL2     0.900000E-01   1.00800           0
     39437 MEMB     5        PPPE     C39      CTL2    -0.180000       12.0110           0
     39438 MEMB     5        PPPE     H9X      HAL2     0.900000E-01   1.00800           0
     39439 MEMB     5        PPPE     H9Y      HAL2     0.900000E-01   1.00800           0
     39440 MEMB     5        PPPE     C310     CTL2    -0.180000       12.0110           0
     39441 MEMB     5        PPPE     H10X     HAL2     0.900000E-01   1.00800           0
     39442 MEMB     5        PPPE     H10Y     HAL2     0.900000E-01   1.00800           0
     39443 MEMB     5        PPPE     C311     CTL2    -0.180000       12.0110           0
     39444 MEMB     5        PPPE     H11X     HAL2     0.900000E-01   1.00800           0
     39445 MEMB     5        PPPE     H11Y     HAL2     0.900000E-01   1.00800           0
     39446 MEMB     5        PPPE     C312     CTL2    -0.180000       12.0110           0
     39447 MEMB     5        PPPE     H12X     HAL2     0.900000E-01   1.00800           0
     39448 MEMB     5        PPPE     H12Y     HAL2     0.900000E-01   1.00800           0
     39449 MEMB     5        PPPE     C313     CTL2    -0.180000       12.0110           0
     39450 MEMB     5        PPPE     H13X     HAL2     0.900000E-01   1.00800           0
     39451 MEMB     5        PPPE     H13Y     HAL2     0.900000E-01   1.00800           0
     39452 MEMB     5        PPPE     C314     CTL2    -0.180000       12.0110           0
     39453 MEMB     5        PPPE     H14X     HAL2     0.900000E-01   1.00800           0
     39454 MEMB     5        PPPE     H14Y     HAL2     0.900000E-01   1.00800           0
     39455 MEMB     5        PPPE     C315     CTL2    -0.180000       12.0110           0
     39456 MEMB     5        PPPE     H15X     HAL2     0.900000E-01   1.00800           0
     39457 MEMB     5        PPPE     H15Y     HAL2     0.900000E-01   1.00800           0
     39458 MEMB     5        PPPE     C316     CTL3    -0.270000       12.0110           0
     39459 MEMB     5        PPPE     H16X     HAL3     0.900000E-01   1.00800           0
     39460 MEMB     5        PPPE     H16Y     HAL3     0.900000E-01   1.00800           0
     39461 MEMB     5        PPPE     H16Z     HAL3     0.900000E-01   1.00800           0
     39462 MEMB     6        PPPE     N        NH3L    -0.300000       14.0070           0
     39463 MEMB     6        PPPE     HN1      HCL      0.330000       1.00800           0
     39464 MEMB     6        PPPE     HN2      HCL      0.330000       1.00800           0
     39465 MEMB     6        PPPE     HN3      HCL      0.330000       1.00800           0
     39466 MEMB     6        PPPE     C12      CTL2     0.130000       12.0110           0
     39467 MEMB     6        PPPE     H12A     HAL2     0.900000E-01   1.00800           0
     39468 MEMB     6        PPPE     H12B     HAL2     0.900000E-01   1.00800           0
     39469 MEMB     6        PPPE     C11      CTL2    -0.800000E-01   12.0110           0
     39470 MEMB     6        PPPE     H11A     HAL2     0.900000E-01   1.00800           0
     39471 MEMB     6        PPPE     H11B     HAL2     0.900000E-01   1.00800           0
     39472 MEMB     6        PPPE     P        PL        1.50000       30.9740           0
     39473 MEMB     6        PPPE     O13      O2L     -0.780000       15.9994           0
     39474 MEMB     6        PPPE     O14      O2L     -0.780000       15.9994           0
     39475 MEMB     6        PPPE     O11      OSLP    -0.570000       15.9994           0
     39476 MEMB     6        PPPE     O12      OSLP    -0.570000       15.9994           0
     39477 MEMB     6        PPPE     C1       CTL2    -0.800000E-01   12.0110           0
     39478 MEMB     6        PPPE     HA       HAL2     0.900000E-01   1.00800           0
     39479 MEMB     6        PPPE     HB       HAL2     0.900000E-01   1.00800           0
     39480 MEMB     6        PPPE     C2       CTL1     0.170000       12.0110           0
     39481 MEMB     6        PPPE     HS       HAL1     0.900000E-01   1.00800           0
     39482 MEMB     6        PPPE     O21      OSL     -0.490000       15.9994           0
     39483 MEMB     6        PPPE     C21      CL       0.900000       12.0110           0
     39484 MEMB     6        PPPE     O22      OBL     -0.630000       15.9994           0
     39485 MEMB     6        PPPE     C22      CTL2    -0.220000       12.0110           0
     39486 MEMB     6        PPPE     H2R      HAL2     0.900000E-01   1.00800           0
     39487 MEMB     6        PPPE     H2S      HAL2     0.900000E-01   1.00800           0
     39488 MEMB     6        PPPE     C3       CTL2     0.800000E-01   12.0110           0
     39489 MEMB     6        PPPE     HX       HAL2     0.900000E-01   1.00800           0
     39490 MEMB     6        PPPE     HY       HAL2     0.900000E-01   1.00800           0
     39491 MEMB     6        PPPE     O31      OSL     -0.490000       15.9994           0
     39492 MEMB     6        PPPE     C31      CL       0.900000       12.0110           0
     39493 MEMB     6        PPPE     O32      OBL     -0.630000       15.9994           0
     39494 MEMB     6        PPPE     C32      CTL2    -0.220000       12.0110           0
     39495 MEMB     6        PPPE     H2X      HAL2     0.900000E-01   1.00800           0
     39496 MEMB     6        PPPE     H2Y      HAL2     0.900000E-01   1.00800           0
     39497 MEMB     6        PPPE     C23      CTL2    -0.180000       12.0110           0
     39498 MEMB     6        PPPE     H3R      HAL2     0.900000E-01   1.00800           0
     39499 MEMB     6        PPPE     H3S      HAL2     0.900000E-01   1.00800           0
     39500 MEMB     6        PPPE     C24      CTL2    -0.180000       12.0110           0
     39501 MEMB     6        PPPE     H4R      HAL2     0.900000E-01   1.00800           0
     39502 MEMB     6        PPPE     H4S      HAL2     0.900000E-01   1.00800           0
     39503 MEMB     6        PPPE     C25      CTL2    -0.180000       12.0110           0
     39504 MEMB     6        PPPE     H5R      HAL2     0.900000E-01   1.00800           0
     39505 MEMB     6        PPPE     H5S      HAL2     0.900000E-01   1.00800           0
     39506 MEMB     6        PPPE     C26      CTL2    -0.180000       12.0110           0
     39507 MEMB     6        PPPE     H6R      HAL2     0.900000E-01   1.00800           0
     39508 MEMB     6        PPPE     H6S      HAL2     0.900000E-01   1.00800           0
     39509 MEMB     6        PPPE     C27      CTL2    -0.180000       12.0110           0
     39510 MEMB     6        PPPE     H7R      HAL2     0.900000E-01   1.00800           0
     39511 MEMB     6        PPPE     H7S      HAL2     0.900000E-01   1.00800           0
     39512 MEMB     6        PPPE     C28      CTL2    -0.180000       12.0110           0
     39513 MEMB     6        PPPE     H8R      HAL2     0.900000E-01   1.00800           0
     39514 MEMB     6        PPPE     H8S      HAL2     0.900000E-01   1.00800           0
     39515 MEMB     6        PPPE     C29      CEL1    -0.150000       12.0110           0
     39516 MEMB     6        PPPE     H91      HEL1     0.150000       1.00800           0
     39517 MEMB     6        PPPE     C210     CEL1    -0.150000       12.0110           0
     39518 MEMB     6        PPPE     H101     HEL1     0.150000       1.00800           0
     39519 MEMB     6        PPPE     C211     CTL2    -0.180000       12.0110           0
     39520 MEMB     6        PPPE     H11R     HAL2     0.900000E-01   1.00800           0
     39521 MEMB     6        PPPE     H11S     HAL2     0.900000E-01   1.00800           0
     39522 MEMB     6        PPPE     C212     CTL2    -0.180000       12.0110           0
     39523 MEMB     6        PPPE     H12R     HAL2     0.900000E-01   1.00800           0
     39524 MEMB     6        PPPE     H12S     HAL2     0.900000E-01   1.00800           0
     39525 MEMB     6        PPPE     C213     CTL2    -0.180000       12.0110           0
     39526 MEMB     6        PPPE     H13R     HAL2     0.900000E-01   1.00800           0
     39527 MEMB     6        PPPE     H13S     HAL2     0.900000E-01   1.00800           0
     39528 MEMB     6        PPPE     C214     CTL2    -0.180000       12.0110           0
     39529 MEMB     6        PPPE     H14R     HAL2     0.900000E-01   1.00800           0
     39530 MEMB     6        PPPE     H14S     HAL2     0.900000E-01   1.00800           0
     39531 MEMB     6        PPPE     C215     CTL2    -0.180000       12.0110           0
     39532 MEMB     6        PPPE     H15R     HAL2     0.900000E-01   1.00800           0
     39533 MEMB     6        PPPE     H15S     HAL2     0.900000E-01   1.00800           0
     39534 MEMB     6        PPPE     C216     CTL3    -0.270000       12.0110           0
     39535 MEMB     6        PPPE     H16R     HAL3     0.900000E-01   1.00800           0
     39536 MEMB     6        PPPE     H16S     HAL3     0.900000E-01   1.00800           0
     39537 MEMB     6        PPPE     H16T     HAL3     0.900000E-01   1.00800           0
     39538 MEMB     6        PPPE     C33      CTL2    -0.180000       12.0110           0
     39539 MEMB     6        PPPE     H3X      HAL2     0.900000E-01   1.00800           0
     39540 MEMB     6        PPPE     H3Y      HAL2     0.900000E-01   1.00800           0
     39541 MEMB     6        PPPE     C34      CTL2    -0.180000       12.0110           0
     39542 MEMB     6        PPPE     H4X      HAL2     0.900000E-01   1.00800           0
     39543 MEMB     6        PPPE     H4Y      HAL2     0.900000E-01   1.00800           0
     39544 MEMB     6        PPPE     C35      CTL2    -0.180000       12.0110           0
     39545 MEMB     6        PPPE     H5X      HAL2     0.900000E-01   1.00800           0
     39546 MEMB     6        PPPE     H5Y      HAL2     0.900000E-01   1.00800           0
     39547 MEMB     6        PPPE     C36      CTL2    -0.180000       12.0110           0
     39548 MEMB     6        PPPE     H6X      HAL2     0.900000E-01   1.00800           0
     39549 MEMB     6        PPPE     H6Y      HAL2     0.900000E-01   1.00800           0
     39550 MEMB     6        PPPE     C37      CTL2    -0.180000       12.0110           0
     39551 MEMB     6        PPPE     H7X      HAL2     0.900000E-01   1.00800           0
     39552 MEMB     6        PPPE     H7Y      HAL2     0.900000E-01   1.00800           0
     39553 MEMB     6        PPPE     C38      CTL2    -0.180000       12.0110           0
     39554 MEMB     6        PPPE     H8X      HAL2     0.900000E-01   1.00800           0
     39555 MEMB     6        PPPE     H8Y      HAL2     0.900000E-01   1.00800           0
     39556 MEMB     6        PPPE     C39      CTL2    -0.180000       12.0110           0
     39557 MEMB     6        PPPE     H9X      HAL2     0.900000E-01   1.00800           0
     39558 MEMB     6        PPPE     H9Y      HAL2     0.900000E-01   1.00800           0
     39559 MEMB     6        PPPE     C310     CTL2    -0.180000       12.0110           0
     39560 MEMB     6        PPPE     H10X     HAL2     0.900000E-01   1.00800           0
     39561 MEMB     6        PPPE     H10Y     HAL2     0.900000E-01   1.00800           0
     39562 MEMB     6        PPPE     C311     CTL2    -0.180000       12.0110           0
     39563 MEMB     6        PPPE     H11X     HAL2     0.900000E-01   1.00800           0
     39564 MEMB     6        PPPE     H11Y     HAL2     0.900000E-01   1.00800           0
     39565 MEMB     6        PPPE     C312     CTL2    -0.180000       12.0110           0
     39566 MEMB     6        PPPE     H12X     HAL2     0.900000E-01   1.00800           0
     39567 MEMB     6        PPPE     H12Y     HAL2     0.900000E-01   1.00800           0
     39568 MEMB     6        PPPE     C313     CTL2    -0.180000       12.0110           0
     39569 MEMB     6        PPPE     H13X     HAL2     0.900000E-01   1.00800           0
     39570 MEMB     6        PPPE     H13Y     HAL2     0.900000E-01   1.00800           0
     39571 MEMB     6        PPPE     C314     CTL2    -0.180000       12.0110           0
     39572 MEMB     6        PPPE     H14X     HAL2     0.900000E-01   1.00800           0
     39573 MEMB     6        PPPE     H14Y     HAL2     0.900000E-01   1.00800           0
     39574 MEMB     6        PPPE     C315     CTL2    -0.180000       12.0110           0
     39575 MEMB     6        PPPE     H15X     HAL2     0.900000E-01   1.00800           0
     39576 MEMB     6        PPPE     H15Y     HAL2     0.900000E-01   1.00800           0
     39577 MEMB     6        PPPE     C316     CTL3    -0.270000       12.0110           0
     39578 MEMB     6        PPPE     H16X     HAL3     0.900000E-01   1.00800           0
     39579 MEMB     6        PPPE     H16Y     HAL3     0.900000E-01   1.00800           0
     39580 MEMB     6        PPPE     H16Z     HAL3     0.900000E-01   1.00800           0
     39581 MEMB     7        PPPE     N        NH3L    -0.300000       14.0070           0
     39582 MEMB     7        PPPE     HN1      HCL      0.330000       1.00800           0
     39583 MEMB     7        PPPE     HN2      HCL      0.330000       1.00800           0
     39584 MEMB     7        PPPE     HN3      HCL      0.330000       1.00800           0
     39585 MEMB     7        PPPE     C12      CTL2     0.130000       12.0110           0
     39586 MEMB     7        PPPE     H12A     HAL2     0.900000E-01   1.00800           0
     39587 MEMB     7        PPPE     H12B     HAL2     0.900000E-01   1.00800           0
     39588 MEMB     7        PPPE     C11      CTL2    -0.800000E-01   12.0110           0
     39589 MEMB     7        PPPE     H11A     HAL2     0.900000E-01   1.00800           0
     39590 MEMB     7        PPPE     H11B     HAL2     0.900000E-01   1.00800           0
     39591 MEMB     7        PPPE     P        PL        1.50000       30.9740           0
     39592 MEMB     7        PPPE     O13      O2L     -0.780000       15.9994           0
     39593 MEMB     7        PPPE     O14      O2L     -0.780000       15.9994           0
     39594 MEMB     7        PPPE     O11      OSLP    -0.570000       15.9994           0
     39595 MEMB     7        PPPE     O12      OSLP    -0.570000       15.9994           0
     39596 MEMB     7        PPPE     C1       CTL2    -0.800000E-01   12.0110           0
     39597 MEMB     7        PPPE     HA       HAL2     0.900000E-01   1.00800           0
     39598 MEMB     7        PPPE     HB       HAL2     0.900000E-01   1.00800           0
     39599 MEMB     7        PPPE     C2       CTL1     0.170000       12.0110           0
     39600 MEMB     7        PPPE     HS       HAL1     0.900000E-01   1.00800           0
     39601 MEMB     7        PPPE     O21      OSL     -0.490000       15.9994           0
     39602 MEMB     7        PPPE     C21      CL       0.900000       12.0110           0
     39603 MEMB     7        PPPE     O22      OBL     -0.630000       15.9994           0
     39604 MEMB     7        PPPE     C22      CTL2    -0.220000       12.0110           0
     39605 MEMB     7        PPPE     H2R      HAL2     0.900000E-01   1.00800           0
     39606 MEMB     7        PPPE     H2S      HAL2     0.900000E-01   1.00800           0
     39607 MEMB     7        PPPE     C3       CTL2     0.800000E-01   12.0110           0
     39608 MEMB     7        PPPE     HX       HAL2     0.900000E-01   1.00800           0
     39609 MEMB     7        PPPE     HY       HAL2     0.900000E-01   1.00800           0
     39610 MEMB     7        PPPE     O31      OSL     -0.490000       15.9994           0
     39611 MEMB     7        PPPE     C31      CL       0.900000       12.0110           0
     39612 MEMB     7        PPPE     O32      OBL     -0.630000       15.9994           0
     39613 MEMB     7        PPPE     C32      CTL2    -0.220000       12.0110           0
     39614 MEMB     7        PPPE     H2X      HAL2     0.900000E-01   1.00800           0
     39615 MEMB     7        PPPE     H2Y      HAL2     0.900000E-01   1.00800           0
     39616 MEMB     7        PPPE     C23      CTL2    -0.180000       12.0110           0
     39617 MEMB     7        PPPE     H3R      HAL2     0.900000E-01   1.00800           0
     39618 MEMB     7        PPPE     H3S      HAL2     0.900000E-01   1.00800           0
     39619 MEMB     7        PPPE     C24      CTL2    -0.180000       12.0110           0
     39620 MEMB     7        PPPE     H4R      HAL2     0.900000E-01   1.00800           0
     39621 MEMB     7        PPPE     H4S      HAL2     0.900000E-01   1.00800           0
     39622 MEMB     7        PPPE     C25      CTL2    -0.180000       12.0110           0
     39623 MEMB     7        PPPE     H5R      HAL2     0.900000E-01   1.00800           0
     39624 MEMB     7        PPPE     H5S      HAL2     0.900000E-01   1.00800           0
     39625 MEMB     7        PPPE     C26      CTL2    -0.180000       12.0110           0
     39626 MEMB     7        PPPE     H6R      HAL2     0.900000E-01   1.00800           0
     39627 MEMB     7        PPPE     H6S      HAL2     0.900000E-01   1.00800           0
     39628 MEMB     7        PPPE     C27      CTL2    -0.180000       12.0110           0
     39629 MEMB     7        PPPE     H7R      HAL2     0.900000E-01   1.00800           0
     39630 MEMB     7        PPPE     H7S      HAL2     0.900000E-01   1.00800           0
     39631 MEMB     7        PPPE     C28      CTL2    -0.180000       12.0110           0
     39632 MEMB     7        PPPE     H8R      HAL2     0.900000E-01   1.00800           0
     39633 MEMB     7        PPPE     H8S      HAL2     0.900000E-01   1.00800           0
     39634 MEMB     7        PPPE     C29      CEL1    -0.150000       12.0110           0
     39635 MEMB     7        PPPE     H91      HEL1     0.150000       1.00800           0
     39636 MEMB     7        PPPE     C210     CEL1    -0.150000       12.0110           0
     39637 MEMB     7        PPPE     H101     HEL1     0.150000       1.00800           0
     39638 MEMB     7        PPPE     C211     CTL2    -0.180000       12.0110           0
     39639 MEMB     7        PPPE     H11R     HAL2     0.900000E-01   1.00800           0
     39640 MEMB     7        PPPE     H11S     HAL2     0.900000E-01   1.00800           0
     39641 MEMB     7        PPPE     C212     CTL2    -0.180000       12.0110           0
     39642 MEMB     7        PPPE     H12R     HAL2     0.900000E-01   1.00800           0
     39643 MEMB     7        PPPE     H12S     HAL2     0.900000E-01   1.00800           0
     39644 MEMB     7        PPPE     C213     CTL2    -0.180000       12.0110           0
     39645 MEMB     7        PPPE     H13R     HAL2     0.900000E-01   1.00800           0
     39646 MEMB     7        PPPE     H13S     HAL2     0.900000E-01   1.00800           0
     39647 MEMB     7        PPPE     C214     CTL2    -0.180000       12.0110           0
     39648 MEMB     7        PPPE     H14R     HAL2     0.900000E-01   1.00800           0
     39649 MEMB     7        PPPE     H14S     HAL2     0.900000E-01   1.00800           0
     39650 MEMB     7        PPPE     C215     CTL2    -0.180000       12.0110           0
     39651 MEMB     7        PPPE     H15R     HAL2     0.900000E-01   1.00800           0
     39652 MEMB     7        PPPE     H15S     HAL2     0.900000E-01   1.00800           0
     39653 MEMB     7        PPPE     C216     CTL3    -0.270000       12.0110           0
     39654 MEMB     7        PPPE     H16R     HAL3     0.900000E-01   1.00800           0
     39655 MEMB     7        PPPE     H16S     HAL3     0.900000E-01   1.00800           0
     39656 MEMB     7        PPPE     H16T     HAL3     0.900000E-01   1.00800           0
     39657 MEMB     7        PPPE     C33      CTL2    -0.180000       12.0110           0
     39658 MEMB     7        PPPE     H3X      HAL2     0.900000E-01   1.00800           0
     39659 MEMB     7        PPPE     H3Y      HAL2     0.900000E-01   1.00800           0
     39660 MEMB     7        PPPE     C34      CTL2    -0.180000       12.0110           0
     39661 MEMB     7        PPPE     H4X      HAL2     0.900000E-01   1.00800           0
     39662 MEMB     7        PPPE     H4Y      HAL2     0.900000E-01   1.00800           0
     39663 MEMB     7        PPPE     C35      CTL2    -0.180000       12.0110           0
     39664 MEMB     7        PPPE     H5X      HAL2     0.900000E-01   1.00800           0
     39665 MEMB     7        PPPE     H5Y      HAL2     0.900000E-01   1.00800           0
     39666 MEMB     7        PPPE     C36      CTL2    -0.180000       12.0110           0
     39667 MEMB     7        PPPE     H6X      HAL2     0.900000E-01   1.00800           0
     39668 MEMB     7        PPPE     H6Y      HAL2     0.900000E-01   1.00800           0
     39669 MEMB     7        PPPE     C37      CTL2    -0.180000       12.0110           0
     39670 MEMB     7        PPPE     H7X      HAL2     0.900000E-01   1.00800           0
     39671 MEMB     7        PPPE     H7Y      HAL2     0.900000E-01   1.00800           0
     39672 MEMB     7        PPPE     C38      CTL2    -0.180000       12.0110           0
     39673 MEMB     7        PPPE     H8X      HAL2     0.900000E-01   1.00800           0
     39674 MEMB     7        PPPE     H8Y      HAL2     0.900000E-01   1.00800           0
     39675 MEMB     7        PPPE     C39      CTL2    -0.180000       12.0110           0
     39676 MEMB     7        PPPE     H9X      HAL2     0.900000E-01   1.00800           0
     39677 MEMB     7        PPPE     H9Y      HAL2     0.900000E-01   1.00800           0
     39678 MEMB     7        PPPE     C310     CTL2    -0.180000       12.0110           0
     39679 MEMB     7        PPPE     H10X     HAL2     0.900000E-01   1.00800           0
     39680 MEMB     7        PPPE     H10Y     HAL2     0.900000E-01   1.00800           0
     39681 MEMB     7        PPPE     C311     CTL2    -0.180000       12.0110           0
     39682 MEMB     7        PPPE     H11X     HAL2     0.900000E-01   1.00800           0
     39683 MEMB     7        PPPE     H11Y     HAL2     0.900000E-01   1.00800           0
     39684 MEMB     7        PPPE     C312     CTL2    -0.180000       12.0110           0
     39685 MEMB     7        PPPE     H12X     HAL2     0.900000E-01   1.00800           0
     39686 MEMB     7        PPPE     H12Y     HAL2     0.900000E-01   1.00800           0
     39687 MEMB     7        PPPE     C313     CTL2    -0.180000       12.0110           0
     39688 MEMB     7        PPPE     H13X     HAL2     0.900000E-01   1.00800           0
     39689 MEMB     7        PPPE     H13Y     HAL2     0.900000E-01   1.00800           0
     39690 MEMB     7        PPPE     C314     CTL2    -0.180000       12.0110           0
     39691 MEMB     7        PPPE     H14X     HAL2     0.900000E-01   1.00800           0
     39692 MEMB     7        PPPE     H14Y     HAL2     0.900000E-01   1.00800           0
     39693 MEMB     7        PPPE     C315     CTL2    -0.180000       12.0110           0
     39694 MEMB     7        PPPE     H15X     HAL2     0.900000E-01   1.00800           0
     39695 MEMB     7        PPPE     H15Y     HAL2     0.900000E-01   1.00800           0
     39696 MEMB     7        PPPE     C316     CTL3    -0.270000       12.0110           0
     39697 MEMB     7        PPPE     H16X     HAL3     0.900000E-01   1.00800           0
     39698 MEMB     7        PPPE     H16Y     HAL3     0.900000E-01   1.00800           0
     39699 MEMB     7        PPPE     H16Z     HAL3     0.900000E-01   1.00800           0
     39700 MEMB     8        PPPE     N        NH3L    -0.300000       14.0070           0
     39701 MEMB     8        PPPE     HN1      HCL      0.330000       1.00800           0
     39702 MEMB     8        PPPE     HN2      HCL      0.330000       1.00800           0
     39703 MEMB     8        PPPE     HN3      HCL      0.330000       1.00800           0
     39704 MEMB     8        PPPE     C12      CTL2     0.130000       12.0110           0
     39705 MEMB     8        PPPE     H12A     HAL2     0.900000E-01   1.00800           0
     39706 MEMB     8        PPPE     H12B     HAL2     0.900000E-01   1.00800           0
     39707 MEMB     8        PPPE     C11      CTL2    -0.800000E-01   12.0110           0
     39708 MEMB     8        PPPE     H11A     HAL2     0.900000E-01   1.00800           0
     39709 MEMB     8        PPPE     H11B     HAL2     0.900000E-01   1.00800           0
     39710 MEMB     8        PPPE     P        PL        1.50000       30.9740           0
     39711 MEMB     8        PPPE     O13      O2L     -0.780000       15.9994           0
     39712 MEMB     8        PPPE     O14      O2L     -0.780000       15.9994           0
     39713 MEMB     8        PPPE     O11      OSLP    -0.570000       15.9994           0
     39714 MEMB     8        PPPE     O12      OSLP    -0.570000       15.9994           0
     39715 MEMB     8        PPPE     C1       CTL2    -0.800000E-01   12.0110           0
     39716 MEMB     8        PPPE     HA       HAL2     0.900000E-01   1.00800           0
     39717 MEMB     8        PPPE     HB       HAL2     0.900000E-01   1.00800           0
     39718 MEMB     8        PPPE     C2       CTL1     0.170000       12.0110           0
     39719 MEMB     8        PPPE     HS       HAL1     0.900000E-01   1.00800           0
     39720 MEMB     8        PPPE     O21      OSL     -0.490000       15.9994           0
     39721 MEMB     8        PPPE     C21      CL       0.900000       12.0110           0
     39722 MEMB     8        PPPE     O22      OBL     -0.630000       15.9994           0
     39723 MEMB     8        PPPE     C22      CTL2    -0.220000       12.0110           0
     39724 MEMB     8        PPPE     H2R      HAL2     0.900000E-01   1.00800           0
     39725 MEMB     8        PPPE     H2S      HAL2     0.900000E-01   1.00800           0
     39726 MEMB     8        PPPE     C3       CTL2     0.800000E-01   12.0110           0
     39727 MEMB     8        PPPE     HX       HAL2     0.900000E-01   1.00800           0
     39728 MEMB     8        PPPE     HY       HAL2     0.900000E-01   1.00800           0
     39729 MEMB     8        PPPE     O31      OSL     -0.490000       15.9994           0
     39730 MEMB     8        PPPE     C31      CL       0.900000       12.0110           0
     39731 MEMB     8        PPPE     O32      OBL     -0.630000       15.9994           0
     39732 MEMB     8        PPPE     C32      CTL2    -0.220000       12.0110           0
     39733 MEMB     8        PPPE     H2X      HAL2     0.900000E-01   1.00800           0
     39734 MEMB     8        PPPE     H2Y      HAL2     0.900000E-01   1.00800           0
     39735 MEMB     8        PPPE     C23      CTL2    -0.180000       12.0110           0
     39736 MEMB     8        PPPE     H3R      HAL2     0.900000E-01   1.00800           0
     39737 MEMB     8        PPPE     H3S      HAL2     0.900000E-01   1.00800           0
     39738 MEMB     8        PPPE     C24      CTL2    -0.180000       12.0110           0
     39739 MEMB     8        PPPE     H4R      HAL2     0.900000E-01   1.00800           0
     39740 MEMB     8        PPPE     H4S      HAL2     0.900000E-01   1.00800           0
     39741 MEMB     8        PPPE     C25      CTL2    -0.180000       12.0110           0
     39742 MEMB     8        PPPE     H5R      HAL2     0.900000E-01   1.00800           0
     39743 MEMB     8        PPPE     H5S      HAL2     0.900000E-01   1.00800           0
     39744 MEMB     8        PPPE     C26      CTL2    -0.180000       12.0110           0
     39745 MEMB     8        PPPE     H6R      HAL2     0.900000E-01   1.00800           0
     39746 MEMB     8        PPPE     H6S      HAL2     0.900000E-01   1.00800           0
     39747 MEMB     8        PPPE     C27      CTL2    -0.180000       12.0110           0
     39748 MEMB     8        PPPE     H7R      HAL2     0.900000E-01   1.00800           0
     39749 MEMB     8        PPPE     H7S      HAL2     0.900000E-01   1.00800           0
     39750 MEMB     8        PPPE     C28      CTL2    -0.180000       12.0110           0
     39751 MEMB     8        PPPE     H8R      HAL2     0.900000E-01   1.00800           0
     39752 MEMB     8        PPPE     H8S      HAL2     0.900000E-01   1.00800           0
     39753 MEMB     8        PPPE     C29      CEL1    -0.150000       12.0110           0
     39754 MEMB     8        PPPE     H91      HEL1     0.150000       1.00800           0
     39755 MEMB     8        PPPE     C210     CEL1    -0.150000       12.0110           0
     39756 MEMB     8        PPPE     H101     HEL1     0.150000       1.00800           0
     39757 MEMB     8        PPPE     C211     CTL2    -0.180000       12.0110           0
     39758 MEMB     8        PPPE     H11R     HAL2     0.900000E-01   1.00800           0
     39759 MEMB     8        PPPE     H11S     HAL2     0.900000E-01   1.00800           0
     39760 MEMB     8        PPPE     C212     CTL2    -0.180000       12.0110           0
     39761 MEMB     8        PPPE     H12R     HAL2     0.900000E-01   1.00800           0
     39762 MEMB     8        PPPE     H12S     HAL2     0.900000E-01   1.00800           0
     39763 MEMB     8        PPPE     C213     CTL2    -0.180000       12.0110           0
     39764 MEMB     8        PPPE     H13R     HAL2     0.900000E-01   1.00800           0
     39765 MEMB     8        PPPE     H13S     HAL2     0.900000E-01   1.00800           0
     39766 MEMB     8        PPPE     C214     CTL2    -0.180000       12.0110           0
     39767 MEMB     8        PPPE     H14R     HAL2     0.900000E-01   1.00800           0
     39768 MEMB     8        PPPE     H14S     HAL2     0.900000E-01   1.00800           0
     39769 MEMB     8        PPPE     C215     CTL2    -0.180000       12.0110           0
     39770 MEMB     8        PPPE     H15R     HAL2     0.900000E-01   1.00800           0
     39771 MEMB     8        PPPE     H15S     HAL2     0.900000E-01   1.00800           0
     39772 MEMB     8        PPPE     C216     CTL3    -0.270000       12.0110           0
     39773 MEMB     8        PPPE     H16R     HAL3     0.900000E-01   1.00800           0
     39774 MEMB     8        PPPE     H16S     HAL3     0.900000E-01   1.00800           0
     39775 MEMB     8        PPPE     H16T     HAL3     0.900000E-01   1.00800           0
     39776 MEMB     8        PPPE     C33      CTL2    -0.180000       12.0110           0
     39777 MEMB     8        PPPE     H3X      HAL2     0.900000E-01   1.00800           0
     39778 MEMB     8        PPPE     H3Y      HAL2     0.900000E-01   1.00800           0
     39779 MEMB     8        PPPE     C34      CTL2    -0.180000       12.0110           0
     39780 MEMB     8        PPPE     H4X      HAL2     0.900000E-01   1.00800           0
     39781 MEMB     8        PPPE     H4Y      HAL2     0.900000E-01   1.00800           0
     39782 MEMB     8        PPPE     C35      CTL2    -0.180000       12.0110           0
     39783 MEMB     8        PPPE     H5X      HAL2     0.900000E-01   1.00800           0
     39784 MEMB     8        PPPE     H5Y      HAL2     0.900000E-01   1.00800           0
     39785 MEMB     8        PPPE     C36      CTL2    -0.180000       12.0110           0
     39786 MEMB     8        PPPE     H6X      HAL2     0.900000E-01   1.00800           0
     39787 MEMB     8        PPPE     H6Y      HAL2     0.900000E-01   1.00800           0
     39788 MEMB     8        PPPE     C37      CTL2    -0.180000       12.0110           0
     39789 MEMB     8        PPPE     H7X      HAL2     0.900000E-01   1.00800           0
     39790 MEMB     8        PPPE     H7Y      HAL2     0.900000E-01   1.00800           0
     39791 MEMB     8        PPPE     C38      CTL2    -0.180000       12.0110           0
     39792 MEMB     8        PPPE     H8X      HAL2     0.900000E-01   1.00800           0
     39793 MEMB     8        PPPE     H8Y      HAL2     0.900000E-01   1.00800           0
     39794 MEMB     8        PPPE     C39      CTL2    -0.180000       12.0110           0
     39795 MEMB     8        PPPE     H9X      HAL2     0.900000E-01   1.00800           0
     39796 MEMB     8        PPPE     H9Y      HAL2     0.900000E-01   1.00800           0
     39797 MEMB     8        PPPE     C310     CTL2    -0.180000       12.0110           0
     39798 MEMB     8        PPPE     H10X     HAL2     0.900000E-01   1.00800           0
     39799 MEMB     8        PPPE     H10Y     HAL2     0.900000E-01   1.00800           0
     39800 MEMB     8        PPPE     C311     CTL2    -0.180000       12.0110           0
     39801 MEMB     8        PPPE     H11X     HAL2     0.900000E-01   1.00800           0
     39802 MEMB     8        PPPE     H11Y     HAL2     0.900000E-01   1.00800           0
     39803 MEMB     8        PPPE     C312     CTL2    -0.180000       12.0110           0
     39804 MEMB     8        PPPE     H12X     HAL2     0.900000E-01   1.00800           0
     39805 MEMB     8        PPPE     H12Y     HAL2     0.900000E-01   1.00800           0
     39806 MEMB     8        PPPE     C313     CTL2    -0.180000       12.0110           0
     39807 MEMB     8        PPPE     H13X     HAL2     0.900000E-01   1.00800           0
     39808 MEMB     8        PPPE     H13Y     HAL2     0.900000E-01   1.00800           0
     39809 MEMB     8        PPPE     C314     CTL2    -0.180000       12.0110           0
     39810 MEMB     8        PPPE     H14X     HAL2     0.900000E-01   1.00800           0
     39811 MEMB     8        PPPE     H14Y     HAL2     0.900000E-01   1.00800           0
     39812 MEMB     8        PPPE     C315     CTL2    -0.180000       12.0110           0
     39813 MEMB     8        PPPE     H15X     HAL2     0.900000E-01   1.00800           0
     39814 MEMB     8        PPPE     H15Y     HAL2     0.900000E-01   1.00800           0
     39815 MEMB     8        PPPE     C316     CTL3    -0.270000       12.0110           0
     39816 MEMB     8        PPPE     H16X     HAL3     0.900000E-01   1.00800           0
     39817 MEMB     8        PPPE     H16Y     HAL3     0.900000E-01   1.00800           0
     39818 MEMB     8        PPPE     H16Z     HAL3     0.900000E-01   1.00800           0
     39819 MEMB     9        PPPE     N        NH3L    -0.300000       14.0070           0
     39820 MEMB     9        PPPE     HN1      HCL      0.330000       1.00800           0
     39821 MEMB     9        PPPE     HN2      HCL      0.330000       1.00800           0
     39822 MEMB     9        PPPE     HN3      HCL      0.330000       1.00800           0
     39823 MEMB     9        PPPE     C12      CTL2     0.130000       12.0110           0
     39824 MEMB     9        PPPE     H12A     HAL2     0.900000E-01   1.00800           0
     39825 MEMB     9        PPPE     H12B     HAL2     0.900000E-01   1.00800           0
     39826 MEMB     9        PPPE     C11      CTL2    -0.800000E-01   12.0110           0
     39827 MEMB     9        PPPE     H11A     HAL2     0.900000E-01   1.00800           0
     39828 MEMB     9        PPPE     H11B     HAL2     0.900000E-01   1.00800           0
     39829 MEMB     9        PPPE     P        PL        1.50000       30.9740           0
     39830 MEMB     9        PPPE     O13      O2L     -0.780000       15.9994           0
     39831 MEMB     9        PPPE     O14      O2L     -0.780000       15.9994           0
     39832 MEMB     9        PPPE     O11      OSLP    -0.570000       15.9994           0
     39833 MEMB     9        PPPE     O12      OSLP    -0.570000       15.9994           0
     39834 MEMB     9        PPPE     C1       CTL2    -0.800000E-01   12.0110           0
     39835 MEMB     9        PPPE     HA       HAL2     0.900000E-01   1.00800           0
     39836 MEMB     9        PPPE     HB       HAL2     0.900000E-01   1.00800           0
     39837 MEMB     9        PPPE     C2       CTL1     0.170000       12.0110           0
     39838 MEMB     9        PPPE     HS       HAL1     0.900000E-01   1.00800           0
     39839 MEMB     9        PPPE     O21      OSL     -0.490000       15.9994           0
     39840 MEMB     9        PPPE     C21      CL       0.900000       12.0110           0
     39841 MEMB     9        PPPE     O22      OBL     -0.630000       15.9994           0
     39842 MEMB     9        PPPE     C22      CTL2    -0.220000       12.0110           0
     39843 MEMB     9        PPPE     H2R      HAL2     0.900000E-01   1.00800           0
     39844 MEMB     9        PPPE     H2S      HAL2     0.900000E-01   1.00800           0
     39845 MEMB     9        PPPE     C3       CTL2     0.800000E-01   12.0110           0
     39846 MEMB     9        PPPE     HX       HAL2     0.900000E-01   1.00800           0
     39847 MEMB     9        PPPE     HY       HAL2     0.900000E-01   1.00800           0
     39848 MEMB     9        PPPE     O31      OSL     -0.490000       15.9994           0
     39849 MEMB     9        PPPE     C31      CL       0.900000       12.0110           0
     39850 MEMB     9        PPPE     O32      OBL     -0.630000       15.9994           0
     39851 MEMB     9        PPPE     C32      CTL2    -0.220000       12.0110           0
     39852 MEMB     9        PPPE     H2X      HAL2     0.900000E-01   1.00800           0
     39853 MEMB     9        PPPE     H2Y      HAL2     0.900000E-01   1.00800           0
     39854 MEMB     9        PPPE     C23      CTL2    -0.180000       12.0110           0
     39855 MEMB     9        PPPE     H3R      HAL2     0.900000E-01   1.00800           0
     39856 MEMB     9        PPPE     H3S      HAL2     0.900000E-01   1.00800           0
     39857 MEMB     9        PPPE     C24      CTL2    -0.180000       12.0110           0
     39858 MEMB     9        PPPE     H4R      HAL2     0.900000E-01   1.00800           0
     39859 MEMB     9        PPPE     H4S      HAL2     0.900000E-01   1.00800           0
     39860 MEMB     9        PPPE     C25      CTL2    -0.180000       12.0110           0
     39861 MEMB     9        PPPE     H5R      HAL2     0.900000E-01   1.00800           0
     39862 MEMB     9        PPPE     H5S      HAL2     0.900000E-01   1.00800           0
     39863 MEMB     9        PPPE     C26      CTL2    -0.180000       12.0110           0
     39864 MEMB     9        PPPE     H6R      HAL2     0.900000E-01   1.00800           0
     39865 MEMB     9        PPPE     H6S      HAL2     0.900000E-01   1.00800           0
     39866 MEMB     9        PPPE     C27      CTL2    -0.180000       12.0110           0
     39867 MEMB     9        PPPE     H7R      HAL2     0.900000E-01   1.00800           0
     39868 MEMB     9        PPPE     H7S      HAL2     0.900000E-01   1.00800           0
     39869 MEMB     9        PPPE     C28      CTL2    -0.180000       12.0110           0
     39870 MEMB     9        PPPE     H8R      HAL2     0.900000E-01   1.00800           0
     39871 MEMB     9        PPPE     H8S      HAL2     0.900000E-01   1.00800           0
     39872 MEMB     9        PPPE     C29      CEL1    -0.150000       12.0110           0
     39873 MEMB     9        PPPE     H91      HEL1     0.150000       1.00800           0
     39874 MEMB     9        PPPE     C210     CEL1    -0.150000       12.0110           0
     39875 MEMB     9        PPPE     H101     HEL1     0.150000       1.00800           0
     39876 MEMB     9        PPPE     C211     CTL2    -0.180000       12.0110           0
     39877 MEMB     9        PPPE     H11R     HAL2     0.900000E-01   1.00800           0
     39878 MEMB     9        PPPE     H11S     HAL2     0.900000E-01   1.00800           0
     39879 MEMB     9        PPPE     C212     CTL2    -0.180000       12.0110           0
     39880 MEMB     9        PPPE     H12R     HAL2     0.900000E-01   1.00800           0
     39881 MEMB     9        PPPE     H12S     HAL2     0.900000E-01   1.00800           0
     39882 MEMB     9        PPPE     C213     CTL2    -0.180000       12.0110           0
     39883 MEMB     9        PPPE     H13R     HAL2     0.900000E-01   1.00800           0
     39884 MEMB     9        PPPE     H13S     HAL2     0.900000E-01   1.00800           0
     39885 MEMB     9        PPPE     C214     CTL2    -0.180000       12.0110           0
     39886 MEMB     9        PPPE     H14R     HAL2     0.900000E-01   1.00800           0
     39887 MEMB     9        PPPE     H14S     HAL2     0.900000E-01   1.00800           0
     39888 MEMB     9        PPPE     C215     CTL2    -0.180000       12.0110           0
     39889 MEMB     9        PPPE     H15R     HAL2     0.900000E-01   1.00800           0
     39890 MEMB     9        PPPE     H15S     HAL2     0.900000E-01   1.00800           0
     39891 MEMB     9        PPPE     C216     CTL3    -0.270000       12.0110           0
     39892 MEMB     9        PPPE     H16R     HAL3     0.900000E-01   1.00800           0
     39893 MEMB     9        PPPE     H16S     HAL3     0.900000E-01   1.00800           0
     39894 MEMB     9        PPPE     H16T     HAL3     0.900000E-01   1.00800           0
     39895 MEMB     9        PPPE     C33      CTL2    -0.180000       12.0110           0
     39896 MEMB     9        PPPE     H3X      HAL2     0.900000E-01   1.00800           0
     39897 MEMB     9        PPPE     H3Y      HAL2     0.900000E-01   1.00800           0
     39898 MEMB     9        PPPE     C34      CTL2    -0.180000       12.0110           0
     39899 MEMB     9        PPPE     H4X      HAL2     0.900000E-01   1.00800           0
     39900 MEMB     9        PPPE     H4Y      HAL2     0.900000E-01   1.00800           0
     39901 MEMB     9        PPPE     C35      CTL2    -0.180000       12.0110           0
     39902 MEMB     9        PPPE     H5X      HAL2     0.900000E-01   1.00800           0
     39903 MEMB     9        PPPE     H5Y      HAL2     0.900000E-01   1.00800           0
     39904 MEMB     9        PPPE     C36      CTL2    -0.180000       12.0110           0
     39905 MEMB     9        PPPE     H6X      HAL2     0.900000E-01   1.00800           0
     39906 MEMB     9        PPPE     H6Y      HAL2     0.900000E-01   1.00800           0
     39907 MEMB     9        PPPE     C37      CTL2    -0.180000       12.0110           0
     39908 MEMB     9        PPPE     H7X      HAL2     0.900000E-01   1.00800           0
     39909 MEMB     9        PPPE     H7Y      HAL2     0.900000E-01   1.00800           0
     39910 MEMB     9        PPPE     C38      CTL2    -0.180000       12.0110           0
     39911 MEMB     9        PPPE     H8X      HAL2     0.900000E-01   1.00800           0
     39912 MEMB     9        PPPE     H8Y      HAL2     0.900000E-01   1.00800           0
     39913 MEMB     9        PPPE     C39      CTL2    -0.180000       12.0110           0
     39914 MEMB     9        PPPE     H9X      HAL2     0.900000E-01   1.00800           0
     39915 MEMB     9        PPPE     H9Y      HAL2     0.900000E-01   1.00800           0
     39916 MEMB     9        PPPE     C310     CTL2    -0.180000       12.0110           0
     39917 MEMB     9        PPPE     H10X     HAL2     0.900000E-01   1.00800           0
     39918 MEMB     9        PPPE     H10Y     HAL2     0.900000E-01   1.00800           0
     39919 MEMB     9        PPPE     C311     CTL2    -0.180000       12.0110           0
     39920 MEMB     9        PPPE     H11X     HAL2     0.900000E-01   1.00800           0
     39921 MEMB     9        PPPE     H11Y     HAL2     0.900000E-01   1.00800           0
     39922 MEMB     9        PPPE     C312     CTL2    -0.180000       12.0110           0
     39923 MEMB     9        PPPE     H12X     HAL2     0.900000E-01   1.00800           0
     39924 MEMB     9        PPPE     H12Y     HAL2     0.900000E-01   1.00800           0
     39925 MEMB     9        PPPE     C313     CTL2    -0.180000       12.0110           0
     39926 MEMB     9        PPPE     H13X     HAL2     0.900000E-01   1.00800           0
     39927 MEMB     9        PPPE     H13Y     HAL2     0.900000E-01   1.00800           0
     39928 MEMB     9        PPPE     C314     CTL2    -0.180000       12.0110           0
     39929 MEMB     9        PPPE     H14X     HAL2     0.900000E-01   1.00800           0
     39930 MEMB     9        PPPE     H14Y     HAL2     0.900000E-01   1.00800           0
     39931 MEMB     9        PPPE     C315     CTL2    -0.180000       12.0110           0
     39932 MEMB     9        PPPE     H15X     HAL2     0.900000E-01   1.00800           0
     39933 MEMB     9        PPPE     H15Y     HAL2     0.900000E-01   1.00800           0
     39934 MEMB     9        PPPE     C316     CTL3    -0.270000       12.0110           0
     39935 MEMB     9        PPPE     H16X     HAL3     0.900000E-01   1.00800           0
     39936 MEMB     9        PPPE     H16Y     HAL3     0.900000E-01   1.00800           0
     39937 MEMB     9        PPPE     H16Z     HAL3     0.900000E-01   1.00800           0
     39938 MEMB     10       PVPG     C13      CTL2     0.500000E-01   12.0110           0
     39939 MEMB     10       PVPG     H13A     HAL2     0.900000E-01   1.00800           0
     39940 MEMB     10       PVPG     H13B     HAL2     0.900000E-01   1.00800           0
     39941 MEMB     10       PVPG     OC3      OHL     -0.650000       15.9994           0
     39942 MEMB     10       PVPG     HO3      HOL      0.420000       1.00800           0
     39943 MEMB     10       PVPG     C12      CTL1     0.140000       12.0110           0
     39944 MEMB     10       PVPG     H12A     HAL1     0.900000E-01   1.00800           0
     39945 MEMB     10       PVPG     OC2      OHL     -0.650000       15.9994           0
     39946 MEMB     10       PVPG     HO2      HOL      0.420000       1.00800           0
     39947 MEMB     10       PVPG     C11      CTL2    -0.800000E-01   12.0110           0
     39948 MEMB     10       PVPG     H11A     HAL2     0.900000E-01   1.00800           0
     39949 MEMB     10       PVPG     H11B     HAL2     0.900000E-01   1.00800           0
     39950 MEMB     10       PVPG     P        PL        1.50000       30.9740           0
     39951 MEMB     10       PVPG     O13      O2L     -0.780000       15.9994           0
     39952 MEMB     10       PVPG     O14      O2L     -0.780000       15.9994           0
     39953 MEMB     10       PVPG     O12      OSLP    -0.570000       15.9994           0
     39954 MEMB     10       PVPG     O11      OSLP    -0.570000       15.9994           0
     39955 MEMB     10       PVPG     C1       CTL2    -0.800000E-01   12.0110           0
     39956 MEMB     10       PVPG     HA       HAL2     0.900000E-01   1.00800           0
     39957 MEMB     10       PVPG     HB       HAL2     0.900000E-01   1.00800           0
     39958 MEMB     10       PVPG     C2       CTL1     0.170000       12.0110           0
     39959 MEMB     10       PVPG     HS       HAL1     0.900000E-01   1.00800           0
     39960 MEMB     10       PVPG     O21      OSL     -0.490000       15.9994           0
     39961 MEMB     10       PVPG     C21      CL       0.900000       12.0110           0
     39962 MEMB     10       PVPG     O22      OBL     -0.630000       15.9994           0
     39963 MEMB     10       PVPG     C22      CTL2    -0.220000       12.0110           0
     39964 MEMB     10       PVPG     H2R      HAL2     0.900000E-01   1.00800           0
     39965 MEMB     10       PVPG     H2S      HAL2     0.900000E-01   1.00800           0
     39966 MEMB     10       PVPG     C3       CTL2     0.800000E-01   12.0110           0
     39967 MEMB     10       PVPG     HX       HAL2     0.900000E-01   1.00800           0
     39968 MEMB     10       PVPG     HY       HAL2     0.900000E-01   1.00800           0
     39969 MEMB     10       PVPG     O31      OSL     -0.490000       15.9994           0
     39970 MEMB     10       PVPG     C31      CL       0.900000       12.0110           0
     39971 MEMB     10       PVPG     O32      OBL     -0.630000       15.9994           0
     39972 MEMB     10       PVPG     C32      CTL2    -0.220000       12.0110           0
     39973 MEMB     10       PVPG     H2X      HAL2     0.900000E-01   1.00800           0
     39974 MEMB     10       PVPG     H2Y      HAL2     0.900000E-01   1.00800           0
     39975 MEMB     10       PVPG     C23      CTL2    -0.180000       12.0110           0
     39976 MEMB     10       PVPG     H3R      HAL2     0.900000E-01   1.00800           0
     39977 MEMB     10       PVPG     H3S      HAL2     0.900000E-01   1.00800           0
     39978 MEMB     10       PVPG     C24      CTL2    -0.180000       12.0110           0
     39979 MEMB     10       PVPG     H4R      HAL2     0.900000E-01   1.00800           0
     39980 MEMB     10       PVPG     H4S      HAL2     0.900000E-01   1.00800           0
     39981 MEMB     10       PVPG     C25      CTL2    -0.180000       12.0110           0
     39982 MEMB     10       PVPG     H5R      HAL2     0.900000E-01   1.00800           0
     39983 MEMB     10       PVPG     H5S      HAL2     0.900000E-01   1.00800           0
     39984 MEMB     10       PVPG     C26      CTL2    -0.180000       12.0110           0
     39985 MEMB     10       PVPG     H6R      HAL2     0.900000E-01   1.00800           0
     39986 MEMB     10       PVPG     H6S      HAL2     0.900000E-01   1.00800           0
     39987 MEMB     10       PVPG     C27      CTL2    -0.180000       12.0110           0
     39988 MEMB     10       PVPG     H7R      HAL2     0.900000E-01   1.00800           0
     39989 MEMB     10       PVPG     H7S      HAL2     0.900000E-01   1.00800           0
     39990 MEMB     10       PVPG     C28      CTL2    -0.180000       12.0110           0
     39991 MEMB     10       PVPG     H8R      HAL2     0.900000E-01   1.00800           0
     39992 MEMB     10       PVPG     H8S      HAL2     0.900000E-01   1.00800           0
     39993 MEMB     10       PVPG     C29      CTL2    -0.180000       12.0110           0
     39994 MEMB     10       PVPG     H9R      HAL2     0.900000E-01   1.00800           0
     39995 MEMB     10       PVPG     H9S      HAL2     0.900000E-01   1.00800           0
     39996 MEMB     10       PVPG     C210     CTL2    -0.180000       12.0110           0
     39997 MEMB     10       PVPG     H10R     HAL2     0.900000E-01   1.00800           0
     39998 MEMB     10       PVPG     H10S     HAL2     0.900000E-01   1.00800           0
     39999 MEMB     10       PVPG     C211     CEL1    -0.150000       12.0110           0
     40000 MEMB     10       PVPG     H111     HEL1     0.150000       1.00800           0
     40001 MEMB     10       PVPG     C212     CEL1    -0.150000       12.0110           0
     40002 MEMB     10       PVPG     H121     HEL1     0.150000       1.00800           0
     40003 MEMB     10       PVPG     C213     CTL2    -0.180000       12.0110           0
     40004 MEMB     10       PVPG     H13R     HAL2     0.900000E-01   1.00800           0
     40005 MEMB     10       PVPG     H13S     HAL2     0.900000E-01   1.00800           0
     40006 MEMB     10       PVPG     C214     CTL2    -0.180000       12.0110           0
     40007 MEMB     10       PVPG     H14R     HAL2     0.900000E-01   1.00800           0
     40008 MEMB     10       PVPG     H14S     HAL2     0.900000E-01   1.00800           0
     40009 MEMB     10       PVPG     C215     CTL2    -0.180000       12.0110           0
     40010 MEMB     10       PVPG     H15R     HAL2     0.900000E-01   1.00800           0
     40011 MEMB     10       PVPG     H15S     HAL2     0.900000E-01   1.00800           0
     40012 MEMB     10       PVPG     C216     CTL2    -0.180000       12.0110           0
     40013 MEMB     10       PVPG     H16R     HAL2     0.900000E-01   1.00800           0
     40014 MEMB     10       PVPG     H16S     HAL2     0.900000E-01   1.00800           0
     40015 MEMB     10       PVPG     C217     CTL2    -0.180000       12.0110           0
     40016 MEMB     10       PVPG     H17R     HAL2     0.900000E-01   1.00800           0
     40017 MEMB     10       PVPG     H17S     HAL2     0.900000E-01   1.00800           0
     40018 MEMB     10       PVPG     C218     CTL3    -0.270000       12.0110           0
     40019 MEMB     10       PVPG     H18R     HAL3     0.900000E-01   1.00800           0
     40020 MEMB     10       PVPG     H18S     HAL3     0.900000E-01   1.00800           0
     40021 MEMB     10       PVPG     H18T     HAL3     0.900000E-01   1.00800           0
     40022 MEMB     10       PVPG     C33      CTL2    -0.180000       12.0110           0
     40023 MEMB     10       PVPG     H3X      HAL2     0.900000E-01   1.00800           0
     40024 MEMB     10       PVPG     H3Y      HAL2     0.900000E-01   1.00800           0
     40025 MEMB     10       PVPG     C34      CTL2    -0.180000       12.0110           0
     40026 MEMB     10       PVPG     H4X      HAL2     0.900000E-01   1.00800           0
     40027 MEMB     10       PVPG     H4Y      HAL2     0.900000E-01   1.00800           0
     40028 MEMB     10       PVPG     C35      CTL2    -0.180000       12.0110           0
     40029 MEMB     10       PVPG     H5X      HAL2     0.900000E-01   1.00800           0
     40030 MEMB     10       PVPG     H5Y      HAL2     0.900000E-01   1.00800           0
     40031 MEMB     10       PVPG     C36      CTL2    -0.180000       12.0110           0
     40032 MEMB     10       PVPG     H6X      HAL2     0.900000E-01   1.00800           0
     40033 MEMB     10       PVPG     H6Y      HAL2     0.900000E-01   1.00800           0
     40034 MEMB     10       PVPG     C37      CTL2    -0.180000       12.0110           0
     40035 MEMB     10       PVPG     H7X      HAL2     0.900000E-01   1.00800           0
     40036 MEMB     10       PVPG     H7Y      HAL2     0.900000E-01   1.00800           0
     40037 MEMB     10       PVPG     C38      CTL2    -0.180000       12.0110           0
     40038 MEMB     10       PVPG     H8X      HAL2     0.900000E-01   1.00800           0
     40039 MEMB     10       PVPG     H8Y      HAL2     0.900000E-01   1.00800           0
     40040 MEMB     10       PVPG     C39      CTL2    -0.180000       12.0110           0
     40041 MEMB     10       PVPG     H9X      HAL2     0.900000E-01   1.00800           0
     40042 MEMB     10       PVPG     H9Y      HAL2     0.900000E-01   1.00800           0
     40043 MEMB     10       PVPG     C310     CTL2    -0.180000       12.0110           0
     40044 MEMB     10       PVPG     H10X     HAL2     0.900000E-01   1.00800           0
     40045 MEMB     10       PVPG     H10Y     HAL2     0.900000E-01   1.00800           0
     40046 MEMB     10       PVPG     C311     CTL2    -0.180000       12.0110           0
     40047 MEMB     10       PVPG     H11X     HAL2     0.900000E-01   1.00800           0
     40048 MEMB     10       PVPG     H11Y     HAL2     0.900000E-01   1.00800           0
     40049 MEMB     10       PVPG     C312     CTL2    -0.180000       12.0110           0
     40050 MEMB     10       PVPG     H12X     HAL2     0.900000E-01   1.00800           0
     40051 MEMB     10       PVPG     H12Y     HAL2     0.900000E-01   1.00800           0
     40052 MEMB     10       PVPG     C313     CTL2    -0.180000       12.0110           0
     40053 MEMB     10       PVPG     H13X     HAL2     0.900000E-01   1.00800           0
     40054 MEMB     10       PVPG     H13Y     HAL2     0.900000E-01   1.00800           0
     40055 MEMB     10       PVPG     C314     CTL2    -0.180000       12.0110           0
     40056 MEMB     10       PVPG     H14X     HAL2     0.900000E-01   1.00800           0
     40057 MEMB     10       PVPG     H14Y     HAL2     0.900000E-01   1.00800           0
     40058 MEMB     10       PVPG     C315     CTL2    -0.180000       12.0110           0
     40059 MEMB     10       PVPG     H15X     HAL2     0.900000E-01   1.00800           0
     40060 MEMB     10       PVPG     H15Y     HAL2     0.900000E-01   1.00800           0
     40061 MEMB     10       PVPG     C316     CTL3    -0.270000       12.0110           0
     40062 MEMB     10       PVPG     H16X     HAL3     0.900000E-01   1.00800           0
     40063 MEMB     10       PVPG     H16Y     HAL3     0.900000E-01   1.00800           0
     40064 MEMB     10       PVPG     H16Z     HAL3     0.900000E-01   1.00800           0
     40065 MEMB     11       PPPE     N        NH3L    -0.300000       14.0070           0
     40066 MEMB     11       PPPE     HN1      HCL      0.330000       1.00800           0
     40067 MEMB     11       PPPE     HN2      HCL      0.330000       1.00800           0
     40068 MEMB     11       PPPE     HN3      HCL      0.330000       1.00800           0
     40069 MEMB     11       PPPE     C12      CTL2     0.130000       12.0110           0
     40070 MEMB     11       PPPE     H12A     HAL2     0.900000E-01   1.00800           0
     40071 MEMB     11       PPPE     H12B     HAL2     0.900000E-01   1.00800           0
     40072 MEMB     11       PPPE     C11      CTL2    -0.800000E-01   12.0110           0
     40073 MEMB     11       PPPE     H11A     HAL2     0.900000E-01   1.00800           0
     40074 MEMB     11       PPPE     H11B     HAL2     0.900000E-01   1.00800           0
     40075 MEMB     11       PPPE     P        PL        1.50000       30.9740           0
     40076 MEMB     11       PPPE     O13      O2L     -0.780000       15.9994           0
     40077 MEMB     11       PPPE     O14      O2L     -0.780000       15.9994           0
     40078 MEMB     11       PPPE     O11      OSLP    -0.570000       15.9994           0
     40079 MEMB     11       PPPE     O12      OSLP    -0.570000       15.9994           0
     40080 MEMB     11       PPPE     C1       CTL2    -0.800000E-01   12.0110           0
     40081 MEMB     11       PPPE     HA       HAL2     0.900000E-01   1.00800           0
     40082 MEMB     11       PPPE     HB       HAL2     0.900000E-01   1.00800           0
     40083 MEMB     11       PPPE     C2       CTL1     0.170000       12.0110           0
     40084 MEMB     11       PPPE     HS       HAL1     0.900000E-01   1.00800           0
     40085 MEMB     11       PPPE     O21      OSL     -0.490000       15.9994           0
     40086 MEMB     11       PPPE     C21      CL       0.900000       12.0110           0
     40087 MEMB     11       PPPE     O22      OBL     -0.630000       15.9994           0
     40088 MEMB     11       PPPE     C22      CTL2    -0.220000       12.0110           0
     40089 MEMB     11       PPPE     H2R      HAL2     0.900000E-01   1.00800           0
     40090 MEMB     11       PPPE     H2S      HAL2     0.900000E-01   1.00800           0
     40091 MEMB     11       PPPE     C3       CTL2     0.800000E-01   12.0110           0
     40092 MEMB     11       PPPE     HX       HAL2     0.900000E-01   1.00800           0
     40093 MEMB     11       PPPE     HY       HAL2     0.900000E-01   1.00800           0
     40094 MEMB     11       PPPE     O31      OSL     -0.490000       15.9994           0
     40095 MEMB     11       PPPE     C31      CL       0.900000       12.0110           0
     40096 MEMB     11       PPPE     O32      OBL     -0.630000       15.9994           0
     40097 MEMB     11       PPPE     C32      CTL2    -0.220000       12.0110           0
     40098 MEMB     11       PPPE     H2X      HAL2     0.900000E-01   1.00800           0
     40099 MEMB     11       PPPE     H2Y      HAL2     0.900000E-01   1.00800           0
     40100 MEMB     11       PPPE     C23      CTL2    -0.180000       12.0110           0
     40101 MEMB     11       PPPE     H3R      HAL2     0.900000E-01   1.00800           0
     40102 MEMB     11       PPPE     H3S      HAL2     0.900000E-01   1.00800           0
     40103 MEMB     11       PPPE     C24      CTL2    -0.180000       12.0110           0
     40104 MEMB     11       PPPE     H4R      HAL2     0.900000E-01   1.00800           0
     40105 MEMB     11       PPPE     H4S      HAL2     0.900000E-01   1.00800           0
     40106 MEMB     11       PPPE     C25      CTL2    -0.180000       12.0110           0
     40107 MEMB     11       PPPE     H5R      HAL2     0.900000E-01   1.00800           0
     40108 MEMB     11       PPPE     H5S      HAL2     0.900000E-01   1.00800           0
     40109 MEMB     11       PPPE     C26      CTL2    -0.180000       12.0110           0
     40110 MEMB     11       PPPE     H6R      HAL2     0.900000E-01   1.00800           0
     40111 MEMB     11       PPPE     H6S      HAL2     0.900000E-01   1.00800           0
     40112 MEMB     11       PPPE     C27      CTL2    -0.180000       12.0110           0
     40113 MEMB     11       PPPE     H7R      HAL2     0.900000E-01   1.00800           0
     40114 MEMB     11       PPPE     H7S      HAL2     0.900000E-01   1.00800           0
     40115 MEMB     11       PPPE     C28      CTL2    -0.180000       12.0110           0
     40116 MEMB     11       PPPE     H8R      HAL2     0.900000E-01   1.00800           0
     40117 MEMB     11       PPPE     H8S      HAL2     0.900000E-01   1.00800           0
     40118 MEMB     11       PPPE     C29      CEL1    -0.150000       12.0110           0
     40119 MEMB     11       PPPE     H91      HEL1     0.150000       1.00800           0
     40120 MEMB     11       PPPE     C210     CEL1    -0.150000       12.0110           0
     40121 MEMB     11       PPPE     H101     HEL1     0.150000       1.00800           0
     40122 MEMB     11       PPPE     C211     CTL2    -0.180000       12.0110           0
     40123 MEMB     11       PPPE     H11R     HAL2     0.900000E-01   1.00800           0
     40124 MEMB     11       PPPE     H11S     HAL2     0.900000E-01   1.00800           0
     40125 MEMB     11       PPPE     C212     CTL2    -0.180000       12.0110           0
     40126 MEMB     11       PPPE     H12R     HAL2     0.900000E-01   1.00800           0
     40127 MEMB     11       PPPE     H12S     HAL2     0.900000E-01   1.00800           0
     40128 MEMB     11       PPPE     C213     CTL2    -0.180000       12.0110           0
     40129 MEMB     11       PPPE     H13R     HAL2     0.900000E-01   1.00800           0
     40130 MEMB     11       PPPE     H13S     HAL2     0.900000E-01   1.00800           0
     40131 MEMB     11       PPPE     C214     CTL2    -0.180000       12.0110           0
     40132 MEMB     11       PPPE     H14R     HAL2     0.900000E-01   1.00800           0
     40133 MEMB     11       PPPE     H14S     HAL2     0.900000E-01   1.00800           0
     40134 MEMB     11       PPPE     C215     CTL2    -0.180000       12.0110           0
     40135 MEMB     11       PPPE     H15R     HAL2     0.900000E-01   1.00800           0
     40136 MEMB     11       PPPE     H15S     HAL2     0.900000E-01   1.00800           0
     40137 MEMB     11       PPPE     C216     CTL3    -0.270000       12.0110           0
     40138 MEMB     11       PPPE     H16R     HAL3     0.900000E-01   1.00800           0
     40139 MEMB     11       PPPE     H16S     HAL3     0.900000E-01   1.00800           0
     40140 MEMB     11       PPPE     H16T     HAL3     0.900000E-01   1.00800           0
     40141 MEMB     11       PPPE     C33      CTL2    -0.180000       12.0110           0
     40142 MEMB     11       PPPE     H3X      HAL2     0.900000E-01   1.00800           0
     40143 MEMB     11       PPPE     H3Y      HAL2     0.900000E-01   1.00800           0
     40144 MEMB     11       PPPE     C34      CTL2    -0.180000       12.0110           0
     40145 MEMB     11       PPPE     H4X      HAL2     0.900000E-01   1.00800           0
     40146 MEMB     11       PPPE     H4Y      HAL2     0.900000E-01   1.00800           0
     40147 MEMB     11       PPPE     C35      CTL2    -0.180000       12.0110           0
     40148 MEMB     11       PPPE     H5X      HAL2     0.900000E-01   1.00800           0
     40149 MEMB     11       PPPE     H5Y      HAL2     0.900000E-01   1.00800           0
     40150 MEMB     11       PPPE     C36      CTL2    -0.180000       12.0110           0
     40151 MEMB     11       PPPE     H6X      HAL2     0.900000E-01   1.00800           0
     40152 MEMB     11       PPPE     H6Y      HAL2     0.900000E-01   1.00800           0
     40153 MEMB     11       PPPE     C37      CTL2    -0.180000       12.0110           0
     40154 MEMB     11       PPPE     H7X      HAL2     0.900000E-01   1.00800           0
     40155 MEMB     11       PPPE     H7Y      HAL2     0.900000E-01   1.00800           0
     40156 MEMB     11       PPPE     C38      CTL2    -0.180000       12.0110           0
     40157 MEMB     11       PPPE     H8X      HAL2     0.900000E-01   1.00800           0
     40158 MEMB     11       PPPE     H8Y      HAL2     0.900000E-01   1.00800           0
     40159 MEMB     11       PPPE     C39      CTL2    -0.180000       12.0110           0
     40160 MEMB     11       PPPE     H9X      HAL2     0.900000E-01   1.00800           0
     40161 MEMB     11       PPPE     H9Y      HAL2     0.900000E-01   1.00800           0
     40162 MEMB     11       PPPE     C310     CTL2    -0.180000       12.0110           0
     40163 MEMB     11       PPPE     H10X     HAL2     0.900000E-01   1.00800           0
     40164 MEMB     11       PPPE     H10Y     HAL2     0.900000E-01   1.00800           0
     40165 MEMB     11       PPPE     C311     CTL2    -0.180000       12.0110           0
     40166 MEMB     11       PPPE     H11X     HAL2     0.900000E-01   1.00800           0
     40167 MEMB     11       PPPE     H11Y     HAL2     0.900000E-01   1.00800           0
     40168 MEMB     11       PPPE     C312     CTL2    -0.180000       12.0110           0
     40169 MEMB     11       PPPE     H12X     HAL2     0.900000E-01   1.00800           0
     40170 MEMB     11       PPPE     H12Y     HAL2     0.900000E-01   1.00800           0
     40171 MEMB     11       PPPE     C313     CTL2    -0.180000       12.0110           0
     40172 MEMB     11       PPPE     H13X     HAL2     0.900000E-01   1.00800           0
     40173 MEMB     11       PPPE     H13Y     HAL2     0.900000E-01   1.00800           0
     40174 MEMB     11       PPPE     C314     CTL2    -0.180000       12.0110           0
     40175 MEMB     11       PPPE     H14X     HAL2     0.900000E-01   1.00800           0
     40176 MEMB     11       PPPE     H14Y     HAL2     0.900000E-01   1.00800           0
     40177 MEMB     11       PPPE     C315     CTL2    -0.180000       12.0110           0
     40178 MEMB     11       PPPE     H15X     HAL2     0.900000E-01   1.00800           0
     40179 MEMB     11       PPPE     H15Y     HAL2     0.900000E-01   1.00800           0
     40180 MEMB     11       PPPE     C316     CTL3    -0.270000       12.0110           0
     40181 MEMB     11       PPPE     H16X     HAL3     0.900000E-01   1.00800           0
     40182 MEMB     11       PPPE     H16Y     HAL3     0.900000E-01   1.00800           0
     40183 MEMB     11       PPPE     H16Z     HAL3     0.900000E-01   1.00800           0
     40184 MEMB     12       PPPE     N        NH3L    -0.300000       14.0070           0
     40185 MEMB     12       PPPE     HN1      HCL      0.330000       1.00800           0
     40186 MEMB     12       PPPE     HN2      HCL      0.330000       1.00800           0
     40187 MEMB     12       PPPE     HN3      HCL      0.330000       1.00800           0
     40188 MEMB     12       PPPE     C12      CTL2     0.130000       12.0110           0
     40189 MEMB     12       PPPE     H12A     HAL2     0.900000E-01   1.00800           0
     40190 MEMB     12       PPPE     H12B     HAL2     0.900000E-01   1.00800           0
     40191 MEMB     12       PPPE     C11      CTL2    -0.800000E-01   12.0110           0
     40192 MEMB     12       PPPE     H11A     HAL2     0.900000E-01   1.00800           0
     40193 MEMB     12       PPPE     H11B     HAL2     0.900000E-01   1.00800           0
     40194 MEMB     12       PPPE     P        PL        1.50000       30.9740           0
     40195 MEMB     12       PPPE     O13      O2L     -0.780000       15.9994           0
     40196 MEMB     12       PPPE     O14      O2L     -0.780000       15.9994           0
     40197 MEMB     12       PPPE     O11      OSLP    -0.570000       15.9994           0
     40198 MEMB     12       PPPE     O12      OSLP    -0.570000       15.9994           0
     40199 MEMB     12       PPPE     C1       CTL2    -0.800000E-01   12.0110           0
     40200 MEMB     12       PPPE     HA       HAL2     0.900000E-01   1.00800           0
     40201 MEMB     12       PPPE     HB       HAL2     0.900000E-01   1.00800           0
     40202 MEMB     12       PPPE     C2       CTL1     0.170000       12.0110           0
     40203 MEMB     12       PPPE     HS       HAL1     0.900000E-01   1.00800           0
     40204 MEMB     12       PPPE     O21      OSL     -0.490000       15.9994           0
     40205 MEMB     12       PPPE     C21      CL       0.900000       12.0110           0
     40206 MEMB     12       PPPE     O22      OBL     -0.630000       15.9994           0
     40207 MEMB     12       PPPE     C22      CTL2    -0.220000       12.0110           0
     40208 MEMB     12       PPPE     H2R      HAL2     0.900000E-01   1.00800           0
     40209 MEMB     12       PPPE     H2S      HAL2     0.900000E-01   1.00800           0
     40210 MEMB     12       PPPE     C3       CTL2     0.800000E-01   12.0110           0
     40211 MEMB     12       PPPE     HX       HAL2     0.900000E-01   1.00800           0
     40212 MEMB     12       PPPE     HY       HAL2     0.900000E-01   1.00800           0
     40213 MEMB     12       PPPE     O31      OSL     -0.490000       15.9994           0
     40214 MEMB     12       PPPE     C31      CL       0.900000       12.0110           0
     40215 MEMB     12       PPPE     O32      OBL     -0.630000       15.9994           0
     40216 MEMB     12       PPPE     C32      CTL2    -0.220000       12.0110           0
     40217 MEMB     12       PPPE     H2X      HAL2     0.900000E-01   1.00800           0
     40218 MEMB     12       PPPE     H2Y      HAL2     0.900000E-01   1.00800           0
     40219 MEMB     12       PPPE     C23      CTL2    -0.180000       12.0110           0
     40220 MEMB     12       PPPE     H3R      HAL2     0.900000E-01   1.00800           0
     40221 MEMB     12       PPPE     H3S      HAL2     0.900000E-01   1.00800           0
     40222 MEMB     12       PPPE     C24      CTL2    -0.180000       12.0110           0
     40223 MEMB     12       PPPE     H4R      HAL2     0.900000E-01   1.00800           0
     40224 MEMB     12       PPPE     H4S      HAL2     0.900000E-01   1.00800           0
     40225 MEMB     12       PPPE     C25      CTL2    -0.180000       12.0110           0
     40226 MEMB     12       PPPE     H5R      HAL2     0.900000E-01   1.00800           0
     40227 MEMB     12       PPPE     H5S      HAL2     0.900000E-01   1.00800           0
     40228 MEMB     12       PPPE     C26      CTL2    -0.180000       12.0110           0
     40229 MEMB     12       PPPE     H6R      HAL2     0.900000E-01   1.00800           0
     40230 MEMB     12       PPPE     H6S      HAL2     0.900000E-01   1.00800           0
     40231 MEMB     12       PPPE     C27      CTL2    -0.180000       12.0110           0
     40232 MEMB     12       PPPE     H7R      HAL2     0.900000E-01   1.00800           0
     40233 MEMB     12       PPPE     H7S      HAL2     0.900000E-01   1.00800           0
     40234 MEMB     12       PPPE     C28      CTL2    -0.180000       12.0110           0
     40235 MEMB     12       PPPE     H8R      HAL2     0.900000E-01   1.00800           0
     40236 MEMB     12       PPPE     H8S      HAL2     0.900000E-01   1.00800           0
     40237 MEMB     12       PPPE     C29      CEL1    -0.150000       12.0110           0
     40238 MEMB     12       PPPE     H91      HEL1     0.150000       1.00800           0
     40239 MEMB     12       PPPE     C210     CEL1    -0.150000       12.0110           0
     40240 MEMB     12       PPPE     H101     HEL1     0.150000       1.00800           0
     40241 MEMB     12       PPPE     C211     CTL2    -0.180000       12.0110           0
     40242 MEMB     12       PPPE     H11R     HAL2     0.900000E-01   1.00800           0
     40243 MEMB     12       PPPE     H11S     HAL2     0.900000E-01   1.00800           0
     40244 MEMB     12       PPPE     C212     CTL2    -0.180000       12.0110           0
     40245 MEMB     12       PPPE     H12R     HAL2     0.900000E-01   1.00800           0
     40246 MEMB     12       PPPE     H12S     HAL2     0.900000E-01   1.00800           0
     40247 MEMB     12       PPPE     C213     CTL2    -0.180000       12.0110           0
     40248 MEMB     12       PPPE     H13R     HAL2     0.900000E-01   1.00800           0
     40249 MEMB     12       PPPE     H13S     HAL2     0.900000E-01   1.00800           0
     40250 MEMB     12       PPPE     C214     CTL2    -0.180000       12.0110           0
     40251 MEMB     12       PPPE     H14R     HAL2     0.900000E-01   1.00800           0
     40252 MEMB     12       PPPE     H14S     HAL2     0.900000E-01   1.00800           0
     40253 MEMB     12       PPPE     C215     CTL2    -0.180000       12.0110           0
     40254 MEMB     12       PPPE     H15R     HAL2     0.900000E-01   1.00800           0
     40255 MEMB     12       PPPE     H15S     HAL2     0.900000E-01   1.00800           0
     40256 MEMB     12       PPPE     C216     CTL3    -0.270000       12.0110           0
     40257 MEMB     12       PPPE     H16R     HAL3     0.900000E-01   1.00800           0
     40258 MEMB     12       PPPE     H16S     HAL3     0.900000E-01   1.00800           0
     40259 MEMB     12       PPPE     H16T     HAL3     0.900000E-01   1.00800           0
     40260 MEMB     12       PPPE     C33      CTL2    -0.180000       12.0110           0
     40261 MEMB     12       PPPE     H3X      HAL2     0.900000E-01   1.00800           0
     40262 MEMB     12       PPPE     H3Y      HAL2     0.900000E-01   1.00800           0
     40263 MEMB     12       PPPE     C34      CTL2    -0.180000       12.0110           0
     40264 MEMB     12       PPPE     H4X      HAL2     0.900000E-01   1.00800           0
     40265 MEMB     12       PPPE     H4Y      HAL2     0.900000E-01   1.00800           0
     40266 MEMB     12       PPPE     C35      CTL2    -0.180000       12.0110           0
     40267 MEMB     12       PPPE     H5X      HAL2     0.900000E-01   1.00800           0
     40268 MEMB     12       PPPE     H5Y      HAL2     0.900000E-01   1.00800           0
     40269 MEMB     12       PPPE     C36      CTL2    -0.180000       12.0110           0
     40270 MEMB     12       PPPE     H6X      HAL2     0.900000E-01   1.00800           0
     40271 MEMB     12       PPPE     H6Y      HAL2     0.900000E-01   1.00800           0
     40272 MEMB     12       PPPE     C37      CTL2    -0.180000       12.0110           0
     40273 MEMB     12       PPPE     H7X      HAL2     0.900000E-01   1.00800           0
     40274 MEMB     12       PPPE     H7Y      HAL2     0.900000E-01   1.00800           0
     40275 MEMB     12       PPPE     C38      CTL2    -0.180000       12.0110           0
     40276 MEMB     12       PPPE     H8X      HAL2     0.900000E-01   1.00800           0
     40277 MEMB     12       PPPE     H8Y      HAL2     0.900000E-01   1.00800           0
     40278 MEMB     12       PPPE     C39      CTL2    -0.180000       12.0110           0
     40279 MEMB     12       PPPE     H9X      HAL2     0.900000E-01   1.00800           0
     40280 MEMB     12       PPPE     H9Y      HAL2     0.900000E-01   1.00800           0
     40281 MEMB     12       PPPE     C310     CTL2    -0.180000       12.0110           0
     40282 MEMB     12       PPPE     H10X     HAL2     0.900000E-01   1.00800           0
     40283 MEMB     12       PPPE     H10Y     HAL2     0.900000E-01   1.00800           0
     40284 MEMB     12       PPPE     C311     CTL2    -0.180000       12.0110           0
     40285 MEMB     12       PPPE     H11X     HAL2     0.900000E-01   1.00800           0
     40286 MEMB     12       PPPE     H11Y     HAL2     0.900000E-01   1.00800           0
     40287 MEMB     12       PPPE     C312     CTL2    -0.180000       12.0110           0
     40288 MEMB     12       PPPE     H12X     HAL2     0.900000E-01   1.00800           0
     40289 MEMB     12       PPPE     H12Y     HAL2     0.900000E-01   1.00800           0
     40290 MEMB     12       PPPE     C313     CTL2    -0.180000       12.0110           0
     40291 MEMB     12       PPPE     H13X     HAL2     0.900000E-01   1.00800           0
     40292 MEMB     12       PPPE     H13Y     HAL2     0.900000E-01   1.00800           0
     40293 MEMB     12       PPPE     C314     CTL2    -0.180000       12.0110           0
     40294 MEMB     12       PPPE     H14X     HAL2     0.900000E-01   1.00800           0
     40295 MEMB     12       PPPE     H14Y     HAL2     0.900000E-01   1.00800           0
     40296 MEMB     12       PPPE     C315     CTL2    -0.180000       12.0110           0
     40297 MEMB     12       PPPE     H15X     HAL2     0.900000E-01   1.00800           0
     40298 MEMB     12       PPPE     H15Y     HAL2     0.900000E-01   1.00800           0
     40299 MEMB     12       PPPE     C316     CTL3    -0.270000       12.0110           0
     40300 MEMB     12       PPPE     H16X     HAL3     0.900000E-01   1.00800           0
     40301 MEMB     12       PPPE     H16Y     HAL3     0.900000E-01   1.00800           0
     40302 MEMB     12       PPPE     H16Z     HAL3     0.900000E-01   1.00800           0
     40303 MEMB     13       PPPE     N        NH3L    -0.300000       14.0070           0
     40304 MEMB     13       PPPE     HN1      HCL      0.330000       1.00800           0
     40305 MEMB     13       PPPE     HN2      HCL      0.330000       1.00800           0
     40306 MEMB     13       PPPE     HN3      HCL      0.330000       1.00800           0
     40307 MEMB     13       PPPE     C12      CTL2     0.130000       12.0110           0
     40308 MEMB     13       PPPE     H12A     HAL2     0.900000E-01   1.00800           0
     40309 MEMB     13       PPPE     H12B     HAL2     0.900000E-01   1.00800           0
     40310 MEMB     13       PPPE     C11      CTL2    -0.800000E-01   12.0110           0
     40311 MEMB     13       PPPE     H11A     HAL2     0.900000E-01   1.00800           0
     40312 MEMB     13       PPPE     H11B     HAL2     0.900000E-01   1.00800           0
     40313 MEMB     13       PPPE     P        PL        1.50000       30.9740           0
     40314 MEMB     13       PPPE     O13      O2L     -0.780000       15.9994           0
     40315 MEMB     13       PPPE     O14      O2L     -0.780000       15.9994           0
     40316 MEMB     13       PPPE     O11      OSLP    -0.570000       15.9994           0
     40317 MEMB     13       PPPE     O12      OSLP    -0.570000       15.9994           0
     40318 MEMB     13       PPPE     C1       CTL2    -0.800000E-01   12.0110           0
     40319 MEMB     13       PPPE     HA       HAL2     0.900000E-01   1.00800           0
     40320 MEMB     13       PPPE     HB       HAL2     0.900000E-01   1.00800           0
     40321 MEMB     13       PPPE     C2       CTL1     0.170000       12.0110           0
     40322 MEMB     13       PPPE     HS       HAL1     0.900000E-01   1.00800           0
     40323 MEMB     13       PPPE     O21      OSL     -0.490000       15.9994           0
     40324 MEMB     13       PPPE     C21      CL       0.900000       12.0110           0
     40325 MEMB     13       PPPE     O22      OBL     -0.630000       15.9994           0
     40326 MEMB     13       PPPE     C22      CTL2    -0.220000       12.0110           0
     40327 MEMB     13       PPPE     H2R      HAL2     0.900000E-01   1.00800           0
     40328 MEMB     13       PPPE     H2S      HAL2     0.900000E-01   1.00800           0
     40329 MEMB     13       PPPE     C3       CTL2     0.800000E-01   12.0110           0
     40330 MEMB     13       PPPE     HX       HAL2     0.900000E-01   1.00800           0
     40331 MEMB     13       PPPE     HY       HAL2     0.900000E-01   1.00800           0
     40332 MEMB     13       PPPE     O31      OSL     -0.490000       15.9994           0
     40333 MEMB     13       PPPE     C31      CL       0.900000       12.0110           0
     40334 MEMB     13       PPPE     O32      OBL     -0.630000       15.9994           0
     40335 MEMB     13       PPPE     C32      CTL2    -0.220000       12.0110           0
     40336 MEMB     13       PPPE     H2X      HAL2     0.900000E-01   1.00800           0
     40337 MEMB     13       PPPE     H2Y      HAL2     0.900000E-01   1.00800           0
     40338 MEMB     13       PPPE     C23      CTL2    -0.180000       12.0110           0
     40339 MEMB     13       PPPE     H3R      HAL2     0.900000E-01   1.00800           0
     40340 MEMB     13       PPPE     H3S      HAL2     0.900000E-01   1.00800           0
     40341 MEMB     13       PPPE     C24      CTL2    -0.180000       12.0110           0
     40342 MEMB     13       PPPE     H4R      HAL2     0.900000E-01   1.00800           0
     40343 MEMB     13       PPPE     H4S      HAL2     0.900000E-01   1.00800           0
     40344 MEMB     13       PPPE     C25      CTL2    -0.180000       12.0110           0
     40345 MEMB     13       PPPE     H5R      HAL2     0.900000E-01   1.00800           0
     40346 MEMB     13       PPPE     H5S      HAL2     0.900000E-01   1.00800           0
     40347 MEMB     13       PPPE     C26      CTL2    -0.180000       12.0110           0
     40348 MEMB     13       PPPE     H6R      HAL2     0.900000E-01   1.00800           0
     40349 MEMB     13       PPPE     H6S      HAL2     0.900000E-01   1.00800           0
     40350 MEMB     13       PPPE     C27      CTL2    -0.180000       12.0110           0
     40351 MEMB     13       PPPE     H7R      HAL2     0.900000E-01   1.00800           0
     40352 MEMB     13       PPPE     H7S      HAL2     0.900000E-01   1.00800           0
     40353 MEMB     13       PPPE     C28      CTL2    -0.180000       12.0110           0
     40354 MEMB     13       PPPE     H8R      HAL2     0.900000E-01   1.00800           0
     40355 MEMB     13       PPPE     H8S      HAL2     0.900000E-01   1.00800           0
     40356 MEMB     13       PPPE     C29      CEL1    -0.150000       12.0110           0
     40357 MEMB     13       PPPE     H91      HEL1     0.150000       1.00800           0
     40358 MEMB     13       PPPE     C210     CEL1    -0.150000       12.0110           0
     40359 MEMB     13       PPPE     H101     HEL1     0.150000       1.00800           0
     40360 MEMB     13       PPPE     C211     CTL2    -0.180000       12.0110           0
     40361 MEMB     13       PPPE     H11R     HAL2     0.900000E-01   1.00800           0
     40362 MEMB     13       PPPE     H11S     HAL2     0.900000E-01   1.00800           0
     40363 MEMB     13       PPPE     C212     CTL2    -0.180000       12.0110           0
     40364 MEMB     13       PPPE     H12R     HAL2     0.900000E-01   1.00800           0
     40365 MEMB     13       PPPE     H12S     HAL2     0.900000E-01   1.00800           0
     40366 MEMB     13       PPPE     C213     CTL2    -0.180000       12.0110           0
     40367 MEMB     13       PPPE     H13R     HAL2     0.900000E-01   1.00800           0
     40368 MEMB     13       PPPE     H13S     HAL2     0.900000E-01   1.00800           0
     40369 MEMB     13       PPPE     C214     CTL2    -0.180000       12.0110           0
     40370 MEMB     13       PPPE     H14R     HAL2     0.900000E-01   1.00800           0
     40371 MEMB     13       PPPE     H14S     HAL2     0.900000E-01   1.00800           0
     40372 MEMB     13       PPPE     C215     CTL2    -0.180000       12.0110           0
     40373 MEMB     13       PPPE     H15R     HAL2     0.900000E-01   1.00800           0
     40374 MEMB     13       PPPE     H15S     HAL2     0.900000E-01   1.00800           0
     40375 MEMB     13       PPPE     C216     CTL3    -0.270000       12.0110           0
     40376 MEMB     13       PPPE     H16R     HAL3     0.900000E-01   1.00800           0
     40377 MEMB     13       PPPE     H16S     HAL3     0.900000E-01   1.00800           0
     40378 MEMB     13       PPPE     H16T     HAL3     0.900000E-01   1.00800           0
     40379 MEMB     13       PPPE     C33      CTL2    -0.180000       12.0110           0
     40380 MEMB     13       PPPE     H3X      HAL2     0.900000E-01   1.00800           0
     40381 MEMB     13       PPPE     H3Y      HAL2     0.900000E-01   1.00800           0
     40382 MEMB     13       PPPE     C34      CTL2    -0.180000       12.0110           0
     40383 MEMB     13       PPPE     H4X      HAL2     0.900000E-01   1.00800           0
     40384 MEMB     13       PPPE     H4Y      HAL2     0.900000E-01   1.00800           0
     40385 MEMB     13       PPPE     C35      CTL2    -0.180000       12.0110           0
     40386 MEMB     13       PPPE     H5X      HAL2     0.900000E-01   1.00800           0
     40387 MEMB     13       PPPE     H5Y      HAL2     0.900000E-01   1.00800           0
     40388 MEMB     13       PPPE     C36      CTL2    -0.180000       12.0110           0
     40389 MEMB     13       PPPE     H6X      HAL2     0.900000E-01   1.00800           0
     40390 MEMB     13       PPPE     H6Y      HAL2     0.900000E-01   1.00800           0
     40391 MEMB     13       PPPE     C37      CTL2    -0.180000       12.0110           0
     40392 MEMB     13       PPPE     H7X      HAL2     0.900000E-01   1.00800           0
     40393 MEMB     13       PPPE     H7Y      HAL2     0.900000E-01   1.00800           0
     40394 MEMB     13       PPPE     C38      CTL2    -0.180000       12.0110           0
     40395 MEMB     13       PPPE     H8X      HAL2     0.900000E-01   1.00800           0
     40396 MEMB     13       PPPE     H8Y      HAL2     0.900000E-01   1.00800           0
     40397 MEMB     13       PPPE     C39      CTL2    -0.180000       12.0110           0
     40398 MEMB     13       PPPE     H9X      HAL2     0.900000E-01   1.00800           0
     40399 MEMB     13       PPPE     H9Y      HAL2     0.900000E-01   1.00800           0
     40400 MEMB     13       PPPE     C310     CTL2    -0.180000       12.0110           0
     40401 MEMB     13       PPPE     H10X     HAL2     0.900000E-01   1.00800           0
     40402 MEMB     13       PPPE     H10Y     HAL2     0.900000E-01   1.00800           0
     40403 MEMB     13       PPPE     C311     CTL2    -0.180000       12.0110           0
     40404 MEMB     13       PPPE     H11X     HAL2     0.900000E-01   1.00800           0
     40405 MEMB     13       PPPE     H11Y     HAL2     0.900000E-01   1.00800           0
     40406 MEMB     13       PPPE     C312     CTL2    -0.180000       12.0110           0
     40407 MEMB     13       PPPE     H12X     HAL2     0.900000E-01   1.00800           0
     40408 MEMB     13       PPPE     H12Y     HAL2     0.900000E-01   1.00800           0
     40409 MEMB     13       PPPE     C313     CTL2    -0.180000       12.0110           0
     40410 MEMB     13       PPPE     H13X     HAL2     0.900000E-01   1.00800           0
     40411 MEMB     13       PPPE     H13Y     HAL2     0.900000E-01   1.00800           0
     40412 MEMB     13       PPPE     C314     CTL2    -0.180000       12.0110           0
     40413 MEMB     13       PPPE     H14X     HAL2     0.900000E-01   1.00800           0
     40414 MEMB     13       PPPE     H14Y     HAL2     0.900000E-01   1.00800           0
     40415 MEMB     13       PPPE     C315     CTL2    -0.180000       12.0110           0
     40416 MEMB     13       PPPE     H15X     HAL2     0.900000E-01   1.00800           0
     40417 MEMB     13       PPPE     H15Y     HAL2     0.900000E-01   1.00800           0
     40418 MEMB     13       PPPE     C316     CTL3    -0.270000       12.0110           0
     40419 MEMB     13       PPPE     H16X     HAL3     0.900000E-01   1.00800           0
     40420 MEMB     13       PPPE     H16Y     HAL3     0.900000E-01   1.00800           0
     40421 MEMB     13       PPPE     H16Z     HAL3     0.900000E-01   1.00800           0
     40422 MEMB     14       PPPE     N        NH3L    -0.300000       14.0070           0
     40423 MEMB     14       PPPE     HN1      HCL      0.330000       1.00800           0
     40424 MEMB     14       PPPE     HN2      HCL      0.330000       1.00800           0
     40425 MEMB     14       PPPE     HN3      HCL      0.330000       1.00800           0
     40426 MEMB     14       PPPE     C12      CTL2     0.130000       12.0110           0
     40427 MEMB     14       PPPE     H12A     HAL2     0.900000E-01   1.00800           0
     40428 MEMB     14       PPPE     H12B     HAL2     0.900000E-01   1.00800           0
     40429 MEMB     14       PPPE     C11      CTL2    -0.800000E-01   12.0110           0
     40430 MEMB     14       PPPE     H11A     HAL2     0.900000E-01   1.00800           0
     40431 MEMB     14       PPPE     H11B     HAL2     0.900000E-01   1.00800           0
     40432 MEMB     14       PPPE     P        PL        1.50000       30.9740           0
     40433 MEMB     14       PPPE     O13      O2L     -0.780000       15.9994           0
     40434 MEMB     14       PPPE     O14      O2L     -0.780000       15.9994           0
     40435 MEMB     14       PPPE     O11      OSLP    -0.570000       15.9994           0
     40436 MEMB     14       PPPE     O12      OSLP    -0.570000       15.9994           0
     40437 MEMB     14       PPPE     C1       CTL2    -0.800000E-01   12.0110           0
     40438 MEMB     14       PPPE     HA       HAL2     0.900000E-01   1.00800           0
     40439 MEMB     14       PPPE     HB       HAL2     0.900000E-01   1.00800           0
     40440 MEMB     14       PPPE     C2       CTL1     0.170000       12.0110           0
     40441 MEMB     14       PPPE     HS       HAL1     0.900000E-01   1.00800           0
     40442 MEMB     14       PPPE     O21      OSL     -0.490000       15.9994           0
     40443 MEMB     14       PPPE     C21      CL       0.900000       12.0110           0
     40444 MEMB     14       PPPE     O22      OBL     -0.630000       15.9994           0
     40445 MEMB     14       PPPE     C22      CTL2    -0.220000       12.0110           0
     40446 MEMB     14       PPPE     H2R      HAL2     0.900000E-01   1.00800           0
     40447 MEMB     14       PPPE     H2S      HAL2     0.900000E-01   1.00800           0
     40448 MEMB     14       PPPE     C3       CTL2     0.800000E-01   12.0110           0
     40449 MEMB     14       PPPE     HX       HAL2     0.900000E-01   1.00800           0
     40450 MEMB     14       PPPE     HY       HAL2     0.900000E-01   1.00800           0
     40451 MEMB     14       PPPE     O31      OSL     -0.490000       15.9994           0
     40452 MEMB     14       PPPE     C31      CL       0.900000       12.0110           0
     40453 MEMB     14       PPPE     O32      OBL     -0.630000       15.9994           0
     40454 MEMB     14       PPPE     C32      CTL2    -0.220000       12.0110           0
     40455 MEMB     14       PPPE     H2X      HAL2     0.900000E-01   1.00800           0
     40456 MEMB     14       PPPE     H2Y      HAL2     0.900000E-01   1.00800           0
     40457 MEMB     14       PPPE     C23      CTL2    -0.180000       12.0110           0
     40458 MEMB     14       PPPE     H3R      HAL2     0.900000E-01   1.00800           0
     40459 MEMB     14       PPPE     H3S      HAL2     0.900000E-01   1.00800           0
     40460 MEMB     14       PPPE     C24      CTL2    -0.180000       12.0110           0
     40461 MEMB     14       PPPE     H4R      HAL2     0.900000E-01   1.00800           0
     40462 MEMB     14       PPPE     H4S      HAL2     0.900000E-01   1.00800           0
     40463 MEMB     14       PPPE     C25      CTL2    -0.180000       12.0110           0
     40464 MEMB     14       PPPE     H5R      HAL2     0.900000E-01   1.00800           0
     40465 MEMB     14       PPPE     H5S      HAL2     0.900000E-01   1.00800           0
     40466 MEMB     14       PPPE     C26      CTL2    -0.180000       12.0110           0
     40467 MEMB     14       PPPE     H6R      HAL2     0.900000E-01   1.00800           0
     40468 MEMB     14       PPPE     H6S      HAL2     0.900000E-01   1.00800           0
     40469 MEMB     14       PPPE     C27      CTL2    -0.180000       12.0110           0
     40470 MEMB     14       PPPE     H7R      HAL2     0.900000E-01   1.00800           0
     40471 MEMB     14       PPPE     H7S      HAL2     0.900000E-01   1.00800           0
     40472 MEMB     14       PPPE     C28      CTL2    -0.180000       12.0110           0
     40473 MEMB     14       PPPE     H8R      HAL2     0.900000E-01   1.00800           0
     40474 MEMB     14       PPPE     H8S      HAL2     0.900000E-01   1.00800           0
     40475 MEMB     14       PPPE     C29      CEL1    -0.150000       12.0110           0
     40476 MEMB     14       PPPE     H91      HEL1     0.150000       1.00800           0
     40477 MEMB     14       PPPE     C210     CEL1    -0.150000       12.0110           0
     40478 MEMB     14       PPPE     H101     HEL1     0.150000       1.00800           0
     40479 MEMB     14       PPPE     C211     CTL2    -0.180000       12.0110           0
     40480 MEMB     14       PPPE     H11R     HAL2     0.900000E-01   1.00800           0
     40481 MEMB     14       PPPE     H11S     HAL2     0.900000E-01   1.00800           0
     40482 MEMB     14       PPPE     C212     CTL2    -0.180000       12.0110           0
     40483 MEMB     14       PPPE     H12R     HAL2     0.900000E-01   1.00800           0
     40484 MEMB     14       PPPE     H12S     HAL2     0.900000E-01   1.00800           0
     40485 MEMB     14       PPPE     C213     CTL2    -0.180000       12.0110           0
     40486 MEMB     14       PPPE     H13R     HAL2     0.900000E-01   1.00800           0
     40487 MEMB     14       PPPE     H13S     HAL2     0.900000E-01   1.00800           0
     40488 MEMB     14       PPPE     C214     CTL2    -0.180000       12.0110           0
     40489 MEMB     14       PPPE     H14R     HAL2     0.900000E-01   1.00800           0
     40490 MEMB     14       PPPE     H14S     HAL2     0.900000E-01   1.00800           0
     40491 MEMB     14       PPPE     C215     CTL2    -0.180000       12.0110           0
     40492 MEMB     14       PPPE     H15R     HAL2     0.900000E-01   1.00800           0
     40493 MEMB     14       PPPE     H15S     HAL2     0.900000E-01   1.00800           0
     40494 MEMB     14       PPPE     C216     CTL3    -0.270000       12.0110           0
     40495 MEMB     14       PPPE     H16R     HAL3     0.900000E-01   1.00800           0
     40496 MEMB     14       PPPE     H16S     HAL3     0.900000E-01   1.00800           0
     40497 MEMB     14       PPPE     H16T     HAL3     0.900000E-01   1.00800           0
     40498 MEMB     14       PPPE     C33      CTL2    -0.180000       12.0110           0
     40499 MEMB     14       PPPE     H3X      HAL2     0.900000E-01   1.00800           0
     40500 MEMB     14       PPPE     H3Y      HAL2     0.900000E-01   1.00800           0
     40501 MEMB     14       PPPE     C34      CTL2    -0.180000       12.0110           0
     40502 MEMB     14       PPPE     H4X      HAL2     0.900000E-01   1.00800           0
     40503 MEMB     14       PPPE     H4Y      HAL2     0.900000E-01   1.00800           0
     40504 MEMB     14       PPPE     C35      CTL2    -0.180000       12.0110           0
     40505 MEMB     14       PPPE     H5X      HAL2     0.900000E-01   1.00800           0
     40506 MEMB     14       PPPE     H5Y      HAL2     0.900000E-01   1.00800           0
     40507 MEMB     14       PPPE     C36      CTL2    -0.180000       12.0110           0
     40508 MEMB     14       PPPE     H6X      HAL2     0.900000E-01   1.00800           0
     40509 MEMB     14       PPPE     H6Y      HAL2     0.900000E-01   1.00800           0
     40510 MEMB     14       PPPE     C37      CTL2    -0.180000       12.0110           0
     40511 MEMB     14       PPPE     H7X      HAL2     0.900000E-01   1.00800           0
     40512 MEMB     14       PPPE     H7Y      HAL2     0.900000E-01   1.00800           0
     40513 MEMB     14       PPPE     C38      CTL2    -0.180000       12.0110           0
     40514 MEMB     14       PPPE     H8X      HAL2     0.900000E-01   1.00800           0
     40515 MEMB     14       PPPE     H8Y      HAL2     0.900000E-01   1.00800           0
     40516 MEMB     14       PPPE     C39      CTL2    -0.180000       12.0110           0
     40517 MEMB     14       PPPE     H9X      HAL2     0.900000E-01   1.00800           0
     40518 MEMB     14       PPPE     H9Y      HAL2     0.900000E-01   1.00800           0
     40519 MEMB     14       PPPE     C310     CTL2    -0.180000       12.0110           0
     40520 MEMB     14       PPPE     H10X     HAL2     0.900000E-01   1.00800           0
     40521 MEMB     14       PPPE     H10Y     HAL2     0.900000E-01   1.00800           0
     40522 MEMB     14       PPPE     C311     CTL2    -0.180000       12.0110           0
     40523 MEMB     14       PPPE     H11X     HAL2     0.900000E-01   1.00800           0
     40524 MEMB     14       PPPE     H11Y     HAL2     0.900000E-01   1.00800           0
     40525 MEMB     14       PPPE     C312     CTL2    -0.180000       12.0110           0
     40526 MEMB     14       PPPE     H12X     HAL2     0.900000E-01   1.00800           0
     40527 MEMB     14       PPPE     H12Y     HAL2     0.900000E-01   1.00800           0
     40528 MEMB     14       PPPE     C313     CTL2    -0.180000       12.0110           0
     40529 MEMB     14       PPPE     H13X     HAL2     0.900000E-01   1.00800           0
     40530 MEMB     14       PPPE     H13Y     HAL2     0.900000E-01   1.00800           0
     40531 MEMB     14       PPPE     C314     CTL2    -0.180000       12.0110           0
     40532 MEMB     14       PPPE     H14X     HAL2     0.900000E-01   1.00800           0
     40533 MEMB     14       PPPE     H14Y     HAL2     0.900000E-01   1.00800           0
     40534 MEMB     14       PPPE     C315     CTL2    -0.180000       12.0110           0
     40535 MEMB     14       PPPE     H15X     HAL2     0.900000E-01   1.00800           0
     40536 MEMB     14       PPPE     H15Y     HAL2     0.900000E-01   1.00800           0
     40537 MEMB     14       PPPE     C316     CTL3    -0.270000       12.0110           0
     40538 MEMB     14       PPPE     H16X     HAL3     0.900000E-01   1.00800           0
     40539 MEMB     14       PPPE     H16Y     HAL3     0.900000E-01   1.00800           0
     40540 MEMB     14       PPPE     H16Z     HAL3     0.900000E-01   1.00800           0
     40541 MEMB     15       PPPE     N        NH3L    -0.300000       14.0070           0
     40542 MEMB     15       PPPE     HN1      HCL      0.330000       1.00800           0
     40543 MEMB     15       PPPE     HN2      HCL      0.330000       1.00800           0
     40544 MEMB     15       PPPE     HN3      HCL      0.330000       1.00800           0
     40545 MEMB     15       PPPE     C12      CTL2     0.130000       12.0110           0
     40546 MEMB     15       PPPE     H12A     HAL2     0.900000E-01   1.00800           0
     40547 MEMB     15       PPPE     H12B     HAL2     0.900000E-01   1.00800           0
     40548 MEMB     15       PPPE     C11      CTL2    -0.800000E-01   12.0110           0
     40549 MEMB     15       PPPE     H11A     HAL2     0.900000E-01   1.00800           0
     40550 MEMB     15       PPPE     H11B     HAL2     0.900000E-01   1.00800           0
     40551 MEMB     15       PPPE     P        PL        1.50000       30.9740           0
     40552 MEMB     15       PPPE     O13      O2L     -0.780000       15.9994           0
     40553 MEMB     15       PPPE     O14      O2L     -0.780000       15.9994           0
     40554 MEMB     15       PPPE     O11      OSLP    -0.570000       15.9994           0
     40555 MEMB     15       PPPE     O12      OSLP    -0.570000       15.9994           0
     40556 MEMB     15       PPPE     C1       CTL2    -0.800000E-01   12.0110           0
     40557 MEMB     15       PPPE     HA       HAL2     0.900000E-01   1.00800           0
     40558 MEMB     15       PPPE     HB       HAL2     0.900000E-01   1.00800           0
     40559 MEMB     15       PPPE     C2       CTL1     0.170000       12.0110           0
     40560 MEMB     15       PPPE     HS       HAL1     0.900000E-01   1.00800           0
     40561 MEMB     15       PPPE     O21      OSL     -0.490000       15.9994           0
     40562 MEMB     15       PPPE     C21      CL       0.900000       12.0110           0
     40563 MEMB     15       PPPE     O22      OBL     -0.630000       15.9994           0
     40564 MEMB     15       PPPE     C22      CTL2    -0.220000       12.0110           0
     40565 MEMB     15       PPPE     H2R      HAL2     0.900000E-01   1.00800           0
     40566 MEMB     15       PPPE     H2S      HAL2     0.900000E-01   1.00800           0
     40567 MEMB     15       PPPE     C3       CTL2     0.800000E-01   12.0110           0
     40568 MEMB     15       PPPE     HX       HAL2     0.900000E-01   1.00800           0
     40569 MEMB     15       PPPE     HY       HAL2     0.900000E-01   1.00800           0
     40570 MEMB     15       PPPE     O31      OSL     -0.490000       15.9994           0
     40571 MEMB     15       PPPE     C31      CL       0.900000       12.0110           0
     40572 MEMB     15       PPPE     O32      OBL     -0.630000       15.9994           0
     40573 MEMB     15       PPPE     C32      CTL2    -0.220000       12.0110           0
     40574 MEMB     15       PPPE     H2X      HAL2     0.900000E-01   1.00800           0
     40575 MEMB     15       PPPE     H2Y      HAL2     0.900000E-01   1.00800           0
     40576 MEMB     15       PPPE     C23      CTL2    -0.180000       12.0110           0
     40577 MEMB     15       PPPE     H3R      HAL2     0.900000E-01   1.00800           0
     40578 MEMB     15       PPPE     H3S      HAL2     0.900000E-01   1.00800           0
     40579 MEMB     15       PPPE     C24      CTL2    -0.180000       12.0110           0
     40580 MEMB     15       PPPE     H4R      HAL2     0.900000E-01   1.00800           0
     40581 MEMB     15       PPPE     H4S      HAL2     0.900000E-01   1.00800           0
     40582 MEMB     15       PPPE     C25      CTL2    -0.180000       12.0110           0
     40583 MEMB     15       PPPE     H5R      HAL2     0.900000E-01   1.00800           0
     40584 MEMB     15       PPPE     H5S      HAL2     0.900000E-01   1.00800           0
     40585 MEMB     15       PPPE     C26      CTL2    -0.180000       12.0110           0
     40586 MEMB     15       PPPE     H6R      HAL2     0.900000E-01   1.00800           0
     40587 MEMB     15       PPPE     H6S      HAL2     0.900000E-01   1.00800           0
     40588 MEMB     15       PPPE     C27      CTL2    -0.180000       12.0110           0
     40589 MEMB     15       PPPE     H7R      HAL2     0.900000E-01   1.00800           0
     40590 MEMB     15       PPPE     H7S      HAL2     0.900000E-01   1.00800           0
     40591 MEMB     15       PPPE     C28      CTL2    -0.180000       12.0110           0
     40592 MEMB     15       PPPE     H8R      HAL2     0.900000E-01   1.00800           0
     40593 MEMB     15       PPPE     H8S      HAL2     0.900000E-01   1.00800           0
     40594 MEMB     15       PPPE     C29      CEL1    -0.150000       12.0110           0
     40595 MEMB     15       PPPE     H91      HEL1     0.150000       1.00800           0
     40596 MEMB     15       PPPE     C210     CEL1    -0.150000       12.0110           0
     40597 MEMB     15       PPPE     H101     HEL1     0.150000       1.00800           0
     40598 MEMB     15       PPPE     C211     CTL2    -0.180000       12.0110           0
     40599 MEMB     15       PPPE     H11R     HAL2     0.900000E-01   1.00800           0
     40600 MEMB     15       PPPE     H11S     HAL2     0.900000E-01   1.00800           0
     40601 MEMB     15       PPPE     C212     CTL2    -0.180000       12.0110           0
     40602 MEMB     15       PPPE     H12R     HAL2     0.900000E-01   1.00800           0
     40603 MEMB     15       PPPE     H12S     HAL2     0.900000E-01   1.00800           0
     40604 MEMB     15       PPPE     C213     CTL2    -0.180000       12.0110           0
     40605 MEMB     15       PPPE     H13R     HAL2     0.900000E-01   1.00800           0
     40606 MEMB     15       PPPE     H13S     HAL2     0.900000E-01   1.00800           0
     40607 MEMB     15       PPPE     C214     CTL2    -0.180000       12.0110           0
     40608 MEMB     15       PPPE     H14R     HAL2     0.900000E-01   1.00800           0
     40609 MEMB     15       PPPE     H14S     HAL2     0.900000E-01   1.00800           0
     40610 MEMB     15       PPPE     C215     CTL2    -0.180000       12.0110           0
     40611 MEMB     15       PPPE     H15R     HAL2     0.900000E-01   1.00800           0
     40612 MEMB     15       PPPE     H15S     HAL2     0.900000E-01   1.00800           0
     40613 MEMB     15       PPPE     C216     CTL3    -0.270000       12.0110           0
     40614 MEMB     15       PPPE     H16R     HAL3     0.900000E-01   1.00800           0
     40615 MEMB     15       PPPE     H16S     HAL3     0.900000E-01   1.00800           0
     40616 MEMB     15       PPPE     H16T     HAL3     0.900000E-01   1.00800           0
     40617 MEMB     15       PPPE     C33      CTL2    -0.180000       12.0110           0
     40618 MEMB     15       PPPE     H3X      HAL2     0.900000E-01   1.00800           0
     40619 MEMB     15       PPPE     H3Y      HAL2     0.900000E-01   1.00800           0
     40620 MEMB     15       PPPE     C34      CTL2    -0.180000       12.0110           0
     40621 MEMB     15       PPPE     H4X      HAL2     0.900000E-01   1.00800           0
     40622 MEMB     15       PPPE     H4Y      HAL2     0.900000E-01   1.00800           0
     40623 MEMB     15       PPPE     C35      CTL2    -0.180000       12.0110           0
     40624 MEMB     15       PPPE     H5X      HAL2     0.900000E-01   1.00800           0
     40625 MEMB     15       PPPE     H5Y      HAL2     0.900000E-01   1.00800           0
     40626 MEMB     15       PPPE     C36      CTL2    -0.180000       12.0110           0
     40627 MEMB     15       PPPE     H6X      HAL2     0.900000E-01   1.00800           0
     40628 MEMB     15       PPPE     H6Y      HAL2     0.900000E-01   1.00800           0
     40629 MEMB     15       PPPE     C37      CTL2    -0.180000       12.0110           0
     40630 MEMB     15       PPPE     H7X      HAL2     0.900000E-01   1.00800           0
     40631 MEMB     15       PPPE     H7Y      HAL2     0.900000E-01   1.00800           0
     40632 MEMB     15       PPPE     C38      CTL2    -0.180000       12.0110           0
     40633 MEMB     15       PPPE     H8X      HAL2     0.900000E-01   1.00800           0
     40634 MEMB     15       PPPE     H8Y      HAL2     0.900000E-01   1.00800           0
     40635 MEMB     15       PPPE     C39      CTL2    -0.180000       12.0110           0
     40636 MEMB     15       PPPE     H9X      HAL2     0.900000E-01   1.00800           0
     40637 MEMB     15       PPPE     H9Y      HAL2     0.900000E-01   1.00800           0
     40638 MEMB     15       PPPE     C310     CTL2    -0.180000       12.0110           0
     40639 MEMB     15       PPPE     H10X     HAL2     0.900000E-01   1.00800           0
     40640 MEMB     15       PPPE     H10Y     HAL2     0.900000E-01   1.00800           0
     40641 MEMB     15       PPPE     C311     CTL2    -0.180000       12.0110           0
     40642 MEMB     15       PPPE     H11X     HAL2     0.900000E-01   1.00800           0
     40643 MEMB     15       PPPE     H11Y     HAL2     0.900000E-01   1.00800           0
     40644 MEMB     15       PPPE     C312     CTL2    -0.180000       12.0110           0
     40645 MEMB     15       PPPE     H12X     HAL2     0.900000E-01   1.00800           0
     40646 MEMB     15       PPPE     H12Y     HAL2     0.900000E-01   1.00800           0
     40647 MEMB     15       PPPE     C313     CTL2    -0.180000       12.0110           0
     40648 MEMB     15       PPPE     H13X     HAL2     0.900000E-01   1.00800           0
     40649 MEMB     15       PPPE     H13Y     HAL2     0.900000E-01   1.00800           0
     40650 MEMB     15       PPPE     C314     CTL2    -0.180000       12.0110           0
     40651 MEMB     15       PPPE     H14X     HAL2     0.900000E-01   1.00800           0
     40652 MEMB     15       PPPE     H14Y     HAL2     0.900000E-01   1.00800           0
     40653 MEMB     15       PPPE     C315     CTL2    -0.180000       12.0110           0
     40654 MEMB     15       PPPE     H15X     HAL2     0.900000E-01   1.00800           0
     40655 MEMB     15       PPPE     H15Y     HAL2     0.900000E-01   1.00800           0
     40656 MEMB     15       PPPE     C316     CTL3    -0.270000       12.0110           0
     40657 MEMB     15       PPPE     H16X     HAL3     0.900000E-01   1.00800           0
     40658 MEMB     15       PPPE     H16Y     HAL3     0.900000E-01   1.00800           0
     40659 MEMB     15       PPPE     H16Z     HAL3     0.900000E-01   1.00800           0
     40660 MEMB     16       PPPE     N        NH3L    -0.300000       14.0070           0
     40661 MEMB     16       PPPE     HN1      HCL      0.330000       1.00800           0
     40662 MEMB     16       PPPE     HN2      HCL      0.330000       1.00800           0
     40663 MEMB     16       PPPE     HN3      HCL      0.330000       1.00800           0
     40664 MEMB     16       PPPE     C12      CTL2     0.130000       12.0110           0
     40665 MEMB     16       PPPE     H12A     HAL2     0.900000E-01   1.00800           0
     40666 MEMB     16       PPPE     H12B     HAL2     0.900000E-01   1.00800           0
     40667 MEMB     16       PPPE     C11      CTL2    -0.800000E-01   12.0110           0
     40668 MEMB     16       PPPE     H11A     HAL2     0.900000E-01   1.00800           0
     40669 MEMB     16       PPPE     H11B     HAL2     0.900000E-01   1.00800           0
     40670 MEMB     16       PPPE     P        PL        1.50000       30.9740           0
     40671 MEMB     16       PPPE     O13      O2L     -0.780000       15.9994           0
     40672 MEMB     16       PPPE     O14      O2L     -0.780000       15.9994           0
     40673 MEMB     16       PPPE     O11      OSLP    -0.570000       15.9994           0
     40674 MEMB     16       PPPE     O12      OSLP    -0.570000       15.9994           0
     40675 MEMB     16       PPPE     C1       CTL2    -0.800000E-01   12.0110           0
     40676 MEMB     16       PPPE     HA       HAL2     0.900000E-01   1.00800           0
     40677 MEMB     16       PPPE     HB       HAL2     0.900000E-01   1.00800           0
     40678 MEMB     16       PPPE     C2       CTL1     0.170000       12.0110           0
     40679 MEMB     16       PPPE     HS       HAL1     0.900000E-01   1.00800           0
     40680 MEMB     16       PPPE     O21      OSL     -0.490000       15.9994           0
     40681 MEMB     16       PPPE     C21      CL       0.900000       12.0110           0
     40682 MEMB     16       PPPE     O22      OBL     -0.630000       15.9994           0
     40683 MEMB     16       PPPE     C22      CTL2    -0.220000       12.0110           0
     40684 MEMB     16       PPPE     H2R      HAL2     0.900000E-01   1.00800           0
     40685 MEMB     16       PPPE     H2S      HAL2     0.900000E-01   1.00800           0
     40686 MEMB     16       PPPE     C3       CTL2     0.800000E-01   12.0110           0
     40687 MEMB     16       PPPE     HX       HAL2     0.900000E-01   1.00800           0
     40688 MEMB     16       PPPE     HY       HAL2     0.900000E-01   1.00800           0
     40689 MEMB     16       PPPE     O31      OSL     -0.490000       15.9994           0
     40690 MEMB     16       PPPE     C31      CL       0.900000       12.0110           0
     40691 MEMB     16       PPPE     O32      OBL     -0.630000       15.9994           0
     40692 MEMB     16       PPPE     C32      CTL2    -0.220000       12.0110           0
     40693 MEMB     16       PPPE     H2X      HAL2     0.900000E-01   1.00800           0
     40694 MEMB     16       PPPE     H2Y      HAL2     0.900000E-01   1.00800           0
     40695 MEMB     16       PPPE     C23      CTL2    -0.180000       12.0110           0
     40696 MEMB     16       PPPE     H3R      HAL2     0.900000E-01   1.00800           0
     40697 MEMB     16       PPPE     H3S      HAL2     0.900000E-01   1.00800           0
     40698 MEMB     16       PPPE     C24      CTL2    -0.180000       12.0110           0
     40699 MEMB     16       PPPE     H4R      HAL2     0.900000E-01   1.00800           0
     40700 MEMB     16       PPPE     H4S      HAL2     0.900000E-01   1.00800           0
     40701 MEMB     16       PPPE     C25      CTL2    -0.180000       12.0110           0
     40702 MEMB     16       PPPE     H5R      HAL2     0.900000E-01   1.00800           0
     40703 MEMB     16       PPPE     H5S      HAL2     0.900000E-01   1.00800           0
     40704 MEMB     16       PPPE     C26      CTL2    -0.180000       12.0110           0
     40705 MEMB     16       PPPE     H6R      HAL2     0.900000E-01   1.00800           0
     40706 MEMB     16       PPPE     H6S      HAL2     0.900000E-01   1.00800           0
     40707 MEMB     16       PPPE     C27      CTL2    -0.180000       12.0110           0
     40708 MEMB     16       PPPE     H7R      HAL2     0.900000E-01   1.00800           0
     40709 MEMB     16       PPPE     H7S      HAL2     0.900000E-01   1.00800           0
     40710 MEMB     16       PPPE     C28      CTL2    -0.180000       12.0110           0
     40711 MEMB     16       PPPE     H8R      HAL2     0.900000E-01   1.00800           0
     40712 MEMB     16       PPPE     H8S      HAL2     0.900000E-01   1.00800           0
     40713 MEMB     16       PPPE     C29      CEL1    -0.150000       12.0110           0
     40714 MEMB     16       PPPE     H91      HEL1     0.150000       1.00800           0
     40715 MEMB     16       PPPE     C210     CEL1    -0.150000       12.0110           0
     40716 MEMB     16       PPPE     H101     HEL1     0.150000       1.00800           0
     40717 MEMB     16       PPPE     C211     CTL2    -0.180000       12.0110           0
     40718 MEMB     16       PPPE     H11R     HAL2     0.900000E-01   1.00800           0
     40719 MEMB     16       PPPE     H11S     HAL2     0.900000E-01   1.00800           0
     40720 MEMB     16       PPPE     C212     CTL2    -0.180000       12.0110           0
     40721 MEMB     16       PPPE     H12R     HAL2     0.900000E-01   1.00800           0
     40722 MEMB     16       PPPE     H12S     HAL2     0.900000E-01   1.00800           0
     40723 MEMB     16       PPPE     C213     CTL2    -0.180000       12.0110           0
     40724 MEMB     16       PPPE     H13R     HAL2     0.900000E-01   1.00800           0
     40725 MEMB     16       PPPE     H13S     HAL2     0.900000E-01   1.00800           0
     40726 MEMB     16       PPPE     C214     CTL2    -0.180000       12.0110           0
     40727 MEMB     16       PPPE     H14R     HAL2     0.900000E-01   1.00800           0
     40728 MEMB     16       PPPE     H14S     HAL2     0.900000E-01   1.00800           0
     40729 MEMB     16       PPPE     C215     CTL2    -0.180000       12.0110           0
     40730 MEMB     16       PPPE     H15R     HAL2     0.900000E-01   1.00800           0
     40731 MEMB     16       PPPE     H15S     HAL2     0.900000E-01   1.00800           0
     40732 MEMB     16       PPPE     C216     CTL3    -0.270000       12.0110           0
     40733 MEMB     16       PPPE     H16R     HAL3     0.900000E-01   1.00800           0
     40734 MEMB     16       PPPE     H16S     HAL3     0.900000E-01   1.00800           0
     40735 MEMB     16       PPPE     H16T     HAL3     0.900000E-01   1.00800           0
     40736 MEMB     16       PPPE     C33      CTL2    -0.180000       12.0110           0
     40737 MEMB     16       PPPE     H3X      HAL2     0.900000E-01   1.00800           0
     40738 MEMB     16       PPPE     H3Y      HAL2     0.900000E-01   1.00800           0
     40739 MEMB     16       PPPE     C34      CTL2    -0.180000       12.0110           0
     40740 MEMB     16       PPPE     H4X      HAL2     0.900000E-01   1.00800           0
     40741 MEMB     16       PPPE     H4Y      HAL2     0.900000E-01   1.00800           0
     40742 MEMB     16       PPPE     C35      CTL2    -0.180000       12.0110           0
     40743 MEMB     16       PPPE     H5X      HAL2     0.900000E-01   1.00800           0
     40744 MEMB     16       PPPE     H5Y      HAL2     0.900000E-01   1.00800           0
     40745 MEMB     16       PPPE     C36      CTL2    -0.180000       12.0110           0
     40746 MEMB     16       PPPE     H6X      HAL2     0.900000E-01   1.00800           0
     40747 MEMB     16       PPPE     H6Y      HAL2     0.900000E-01   1.00800           0
     40748 MEMB     16       PPPE     C37      CTL2    -0.180000       12.0110           0
     40749 MEMB     16       PPPE     H7X      HAL2     0.900000E-01   1.00800           0
     40750 MEMB     16       PPPE     H7Y      HAL2     0.900000E-01   1.00800           0
     40751 MEMB     16       PPPE     C38      CTL2    -0.180000       12.0110           0
     40752 MEMB     16       PPPE     H8X      HAL2     0.900000E-01   1.00800           0
     40753 MEMB     16       PPPE     H8Y      HAL2     0.900000E-01   1.00800           0
     40754 MEMB     16       PPPE     C39      CTL2    -0.180000       12.0110           0
     40755 MEMB     16       PPPE     H9X      HAL2     0.900000E-01   1.00800           0
     40756 MEMB     16       PPPE     H9Y      HAL2     0.900000E-01   1.00800           0
     40757 MEMB     16       PPPE     C310     CTL2    -0.180000       12.0110           0
     40758 MEMB     16       PPPE     H10X     HAL2     0.900000E-01   1.00800           0
     40759 MEMB     16       PPPE     H10Y     HAL2     0.900000E-01   1.00800           0
     40760 MEMB     16       PPPE     C311     CTL2    -0.180000       12.0110           0
     40761 MEMB     16       PPPE     H11X     HAL2     0.900000E-01   1.00800           0
     40762 MEMB     16       PPPE     H11Y     HAL2     0.900000E-01   1.00800           0
     40763 MEMB     16       PPPE     C312     CTL2    -0.180000       12.0110           0
     40764 MEMB     16       PPPE     H12X     HAL2     0.900000E-01   1.00800           0
     40765 MEMB     16       PPPE     H12Y     HAL2     0.900000E-01   1.00800           0
     40766 MEMB     16       PPPE     C313     CTL2    -0.180000       12.0110           0
     40767 MEMB     16       PPPE     H13X     HAL2     0.900000E-01   1.00800           0
     40768 MEMB     16       PPPE     H13Y     HAL2     0.900000E-01   1.00800           0
     40769 MEMB     16       PPPE     C314     CTL2    -0.180000       12.0110           0
     40770 MEMB     16       PPPE     H14X     HAL2     0.900000E-01   1.00800           0
     40771 MEMB     16       PPPE     H14Y     HAL2     0.900000E-01   1.00800           0
     40772 MEMB     16       PPPE     C315     CTL2    -0.180000       12.0110           0
     40773 MEMB     16       PPPE     H15X     HAL2     0.900000E-01   1.00800           0
     40774 MEMB     16       PPPE     H15Y     HAL2     0.900000E-01   1.00800           0
     40775 MEMB     16       PPPE     C316     CTL3    -0.270000       12.0110           0
     40776 MEMB     16       PPPE     H16X     HAL3     0.900000E-01   1.00800           0
     40777 MEMB     16       PPPE     H16Y     HAL3     0.900000E-01   1.00800           0
     40778 MEMB     16       PPPE     H16Z     HAL3     0.900000E-01   1.00800           0
     40779 MEMB     17       PVPG     C13      CTL2     0.500000E-01   12.0110           0
     40780 MEMB     17       PVPG     H13A     HAL2     0.900000E-01   1.00800           0
     40781 MEMB     17       PVPG     H13B     HAL2     0.900000E-01   1.00800           0
     40782 MEMB     17       PVPG     OC3      OHL     -0.650000       15.9994           0
     40783 MEMB     17       PVPG     HO3      HOL      0.420000       1.00800           0
     40784 MEMB     17       PVPG     C12      CTL1     0.140000       12.0110           0
     40785 MEMB     17       PVPG     H12A     HAL1     0.900000E-01   1.00800           0
     40786 MEMB     17       PVPG     OC2      OHL     -0.650000       15.9994           0
     40787 MEMB     17       PVPG     HO2      HOL      0.420000       1.00800           0
     40788 MEMB     17       PVPG     C11      CTL2    -0.800000E-01   12.0110           0
     40789 MEMB     17       PVPG     H11A     HAL2     0.900000E-01   1.00800           0
     40790 MEMB     17       PVPG     H11B     HAL2     0.900000E-01   1.00800           0
     40791 MEMB     17       PVPG     P        PL        1.50000       30.9740           0
     40792 MEMB     17       PVPG     O13      O2L     -0.780000       15.9994           0
     40793 MEMB     17       PVPG     O14      O2L     -0.780000       15.9994           0
     40794 MEMB     17       PVPG     O12      OSLP    -0.570000       15.9994           0
     40795 MEMB     17       PVPG     O11      OSLP    -0.570000       15.9994           0
     40796 MEMB     17       PVPG     C1       CTL2    -0.800000E-01   12.0110           0
     40797 MEMB     17       PVPG     HA       HAL2     0.900000E-01   1.00800           0
     40798 MEMB     17       PVPG     HB       HAL2     0.900000E-01   1.00800           0
     40799 MEMB     17       PVPG     C2       CTL1     0.170000       12.0110           0
     40800 MEMB     17       PVPG     HS       HAL1     0.900000E-01   1.00800           0
     40801 MEMB     17       PVPG     O21      OSL     -0.490000       15.9994           0
     40802 MEMB     17       PVPG     C21      CL       0.900000       12.0110           0
     40803 MEMB     17       PVPG     O22      OBL     -0.630000       15.9994           0
     40804 MEMB     17       PVPG     C22      CTL2    -0.220000       12.0110           0
     40805 MEMB     17       PVPG     H2R      HAL2     0.900000E-01   1.00800           0
     40806 MEMB     17       PVPG     H2S      HAL2     0.900000E-01   1.00800           0
     40807 MEMB     17       PVPG     C3       CTL2     0.800000E-01   12.0110           0
     40808 MEMB     17       PVPG     HX       HAL2     0.900000E-01   1.00800           0
     40809 MEMB     17       PVPG     HY       HAL2     0.900000E-01   1.00800           0
     40810 MEMB     17       PVPG     O31      OSL     -0.490000       15.9994           0
     40811 MEMB     17       PVPG     C31      CL       0.900000       12.0110           0
     40812 MEMB     17       PVPG     O32      OBL     -0.630000       15.9994           0
     40813 MEMB     17       PVPG     C32      CTL2    -0.220000       12.0110           0
     40814 MEMB     17       PVPG     H2X      HAL2     0.900000E-01   1.00800           0
     40815 MEMB     17       PVPG     H2Y      HAL2     0.900000E-01   1.00800           0
     40816 MEMB     17       PVPG     C23      CTL2    -0.180000       12.0110           0
     40817 MEMB     17       PVPG     H3R      HAL2     0.900000E-01   1.00800           0
     40818 MEMB     17       PVPG     H3S      HAL2     0.900000E-01   1.00800           0
     40819 MEMB     17       PVPG     C24      CTL2    -0.180000       12.0110           0
     40820 MEMB     17       PVPG     H4R      HAL2     0.900000E-01   1.00800           0
     40821 MEMB     17       PVPG     H4S      HAL2     0.900000E-01   1.00800           0
     40822 MEMB     17       PVPG     C25      CTL2    -0.180000       12.0110           0
     40823 MEMB     17       PVPG     H5R      HAL2     0.900000E-01   1.00800           0
     40824 MEMB     17       PVPG     H5S      HAL2     0.900000E-01   1.00800           0
     40825 MEMB     17       PVPG     C26      CTL2    -0.180000       12.0110           0
     40826 MEMB     17       PVPG     H6R      HAL2     0.900000E-01   1.00800           0
     40827 MEMB     17       PVPG     H6S      HAL2     0.900000E-01   1.00800           0
     40828 MEMB     17       PVPG     C27      CTL2    -0.180000       12.0110           0
     40829 MEMB     17       PVPG     H7R      HAL2     0.900000E-01   1.00800           0
     40830 MEMB     17       PVPG     H7S      HAL2     0.900000E-01   1.00800           0
     40831 MEMB     17       PVPG     C28      CTL2    -0.180000       12.0110           0
     40832 MEMB     17       PVPG     H8R      HAL2     0.900000E-01   1.00800           0
     40833 MEMB     17       PVPG     H8S      HAL2     0.900000E-01   1.00800           0
     40834 MEMB     17       PVPG     C29      CTL2    -0.180000       12.0110           0
     40835 MEMB     17       PVPG     H9R      HAL2     0.900000E-01   1.00800           0
     40836 MEMB     17       PVPG     H9S      HAL2     0.900000E-01   1.00800           0
     40837 MEMB     17       PVPG     C210     CTL2    -0.180000       12.0110           0
     40838 MEMB     17       PVPG     H10R     HAL2     0.900000E-01   1.00800           0
     40839 MEMB     17       PVPG     H10S     HAL2     0.900000E-01   1.00800           0
     40840 MEMB     17       PVPG     C211     CEL1    -0.150000       12.0110           0
     40841 MEMB     17       PVPG     H111     HEL1     0.150000       1.00800           0
     40842 MEMB     17       PVPG     C212     CEL1    -0.150000       12.0110           0
     40843 MEMB     17       PVPG     H121     HEL1     0.150000       1.00800           0
     40844 MEMB     17       PVPG     C213     CTL2    -0.180000       12.0110           0
     40845 MEMB     17       PVPG     H13R     HAL2     0.900000E-01   1.00800           0
     40846 MEMB     17       PVPG     H13S     HAL2     0.900000E-01   1.00800           0
     40847 MEMB     17       PVPG     C214     CTL2    -0.180000       12.0110           0
     40848 MEMB     17       PVPG     H14R     HAL2     0.900000E-01   1.00800           0
     40849 MEMB     17       PVPG     H14S     HAL2     0.900000E-01   1.00800           0
     40850 MEMB     17       PVPG     C215     CTL2    -0.180000       12.0110           0
     40851 MEMB     17       PVPG     H15R     HAL2     0.900000E-01   1.00800           0
     40852 MEMB     17       PVPG     H15S     HAL2     0.900000E-01   1.00800           0
     40853 MEMB     17       PVPG     C216     CTL2    -0.180000       12.0110           0
     40854 MEMB     17       PVPG     H16R     HAL2     0.900000E-01   1.00800           0
     40855 MEMB     17       PVPG     H16S     HAL2     0.900000E-01   1.00800           0
     40856 MEMB     17       PVPG     C217     CTL2    -0.180000       12.0110           0
     40857 MEMB     17       PVPG     H17R     HAL2     0.900000E-01   1.00800           0
     40858 MEMB     17       PVPG     H17S     HAL2     0.900000E-01   1.00800           0
     40859 MEMB     17       PVPG     C218     CTL3    -0.270000       12.0110           0
     40860 MEMB     17       PVPG     H18R     HAL3     0.900000E-01   1.00800           0
     40861 MEMB     17       PVPG     H18S     HAL3     0.900000E-01   1.00800           0
     40862 MEMB     17       PVPG     H18T     HAL3     0.900000E-01   1.00800           0
     40863 MEMB     17       PVPG     C33      CTL2    -0.180000       12.0110           0
     40864 MEMB     17       PVPG     H3X      HAL2     0.900000E-01   1.00800           0
     40865 MEMB     17       PVPG     H3Y      HAL2     0.900000E-01   1.00800           0
     40866 MEMB     17       PVPG     C34      CTL2    -0.180000       12.0110           0
     40867 MEMB     17       PVPG     H4X      HAL2     0.900000E-01   1.00800           0
     40868 MEMB     17       PVPG     H4Y      HAL2     0.900000E-01   1.00800           0
     40869 MEMB     17       PVPG     C35      CTL2    -0.180000       12.0110           0
     40870 MEMB     17       PVPG     H5X      HAL2     0.900000E-01   1.00800           0
     40871 MEMB     17       PVPG     H5Y      HAL2     0.900000E-01   1.00800           0
     40872 MEMB     17       PVPG     C36      CTL2    -0.180000       12.0110           0
     40873 MEMB     17       PVPG     H6X      HAL2     0.900000E-01   1.00800           0
     40874 MEMB     17       PVPG     H6Y      HAL2     0.900000E-01   1.00800           0
     40875 MEMB     17       PVPG     C37      CTL2    -0.180000       12.0110           0
     40876 MEMB     17       PVPG     H7X      HAL2     0.900000E-01   1.00800           0
     40877 MEMB     17       PVPG     H7Y      HAL2     0.900000E-01   1.00800           0
     40878 MEMB     17       PVPG     C38      CTL2    -0.180000       12.0110           0
     40879 MEMB     17       PVPG     H8X      HAL2     0.900000E-01   1.00800           0
     40880 MEMB     17       PVPG     H8Y      HAL2     0.900000E-01   1.00800           0
     40881 MEMB     17       PVPG     C39      CTL2    -0.180000       12.0110           0
     40882 MEMB     17       PVPG     H9X      HAL2     0.900000E-01   1.00800           0
     40883 MEMB     17       PVPG     H9Y      HAL2     0.900000E-01   1.00800           0
     40884 MEMB     17       PVPG     C310     CTL2    -0.180000       12.0110           0
     40885 MEMB     17       PVPG     H10X     HAL2     0.900000E-01   1.00800           0
     40886 MEMB     17       PVPG     H10Y     HAL2     0.900000E-01   1.00800           0
     40887 MEMB     17       PVPG     C311     CTL2    -0.180000       12.0110           0
     40888 MEMB     17       PVPG     H11X     HAL2     0.900000E-01   1.00800           0
     40889 MEMB     17       PVPG     H11Y     HAL2     0.900000E-01   1.00800           0
     40890 MEMB     17       PVPG     C312     CTL2    -0.180000       12.0110           0
     40891 MEMB     17       PVPG     H12X     HAL2     0.900000E-01   1.00800           0
     40892 MEMB     17       PVPG     H12Y     HAL2     0.900000E-01   1.00800           0
     40893 MEMB     17       PVPG     C313     CTL2    -0.180000       12.0110           0
     40894 MEMB     17       PVPG     H13X     HAL2     0.900000E-01   1.00800           0
     40895 MEMB     17       PVPG     H13Y     HAL2     0.900000E-01   1.00800           0
     40896 MEMB     17       PVPG     C314     CTL2    -0.180000       12.0110           0
     40897 MEMB     17       PVPG     H14X     HAL2     0.900000E-01   1.00800           0
     40898 MEMB     17       PVPG     H14Y     HAL2     0.900000E-01   1.00800           0
     40899 MEMB     17       PVPG     C315     CTL2    -0.180000       12.0110           0
     40900 MEMB     17       PVPG     H15X     HAL2     0.900000E-01   1.00800           0
     40901 MEMB     17       PVPG     H15Y     HAL2     0.900000E-01   1.00800           0
     40902 MEMB     17       PVPG     C316     CTL3    -0.270000       12.0110           0
     40903 MEMB     17       PVPG     H16X     HAL3     0.900000E-01   1.00800           0
     40904 MEMB     17       PVPG     H16Y     HAL3     0.900000E-01   1.00800           0
     40905 MEMB     17       PVPG     H16Z     HAL3     0.900000E-01   1.00800           0
     40906 MEMB     18       PVPG     C13      CTL2     0.500000E-01   12.0110           0
     40907 MEMB     18       PVPG     H13A     HAL2     0.900000E-01   1.00800           0
     40908 MEMB     18       PVPG     H13B     HAL2     0.900000E-01   1.00800           0
     40909 MEMB     18       PVPG     OC3      OHL     -0.650000       15.9994           0
     40910 MEMB     18       PVPG     HO3      HOL      0.420000       1.00800           0
     40911 MEMB     18       PVPG     C12      CTL1     0.140000       12.0110           0
     40912 MEMB     18       PVPG     H12A     HAL1     0.900000E-01   1.00800           0
     40913 MEMB     18       PVPG     OC2      OHL     -0.650000       15.9994           0
     40914 MEMB     18       PVPG     HO2      HOL      0.420000       1.00800           0
     40915 MEMB     18       PVPG     C11      CTL2    -0.800000E-01   12.0110           0
     40916 MEMB     18       PVPG     H11A     HAL2     0.900000E-01   1.00800           0
     40917 MEMB     18       PVPG     H11B     HAL2     0.900000E-01   1.00800           0
     40918 MEMB     18       PVPG     P        PL        1.50000       30.9740           0
     40919 MEMB     18       PVPG     O13      O2L     -0.780000       15.9994           0
     40920 MEMB     18       PVPG     O14      O2L     -0.780000       15.9994           0
     40921 MEMB     18       PVPG     O12      OSLP    -0.570000       15.9994           0
     40922 MEMB     18       PVPG     O11      OSLP    -0.570000       15.9994           0
     40923 MEMB     18       PVPG     C1       CTL2    -0.800000E-01   12.0110           0
     40924 MEMB     18       PVPG     HA       HAL2     0.900000E-01   1.00800           0
     40925 MEMB     18       PVPG     HB       HAL2     0.900000E-01   1.00800           0
     40926 MEMB     18       PVPG     C2       CTL1     0.170000       12.0110           0
     40927 MEMB     18       PVPG     HS       HAL1     0.900000E-01   1.00800           0
     40928 MEMB     18       PVPG     O21      OSL     -0.490000       15.9994           0
     40929 MEMB     18       PVPG     C21      CL       0.900000       12.0110           0
     40930 MEMB     18       PVPG     O22      OBL     -0.630000       15.9994           0
     40931 MEMB     18       PVPG     C22      CTL2    -0.220000       12.0110           0
     40932 MEMB     18       PVPG     H2R      HAL2     0.900000E-01   1.00800           0
     40933 MEMB     18       PVPG     H2S      HAL2     0.900000E-01   1.00800           0
     40934 MEMB     18       PVPG     C3       CTL2     0.800000E-01   12.0110           0
     40935 MEMB     18       PVPG     HX       HAL2     0.900000E-01   1.00800           0
     40936 MEMB     18       PVPG     HY       HAL2     0.900000E-01   1.00800           0
     40937 MEMB     18       PVPG     O31      OSL     -0.490000       15.9994           0
     40938 MEMB     18       PVPG     C31      CL       0.900000       12.0110           0
     40939 MEMB     18       PVPG     O32      OBL     -0.630000       15.9994           0
     40940 MEMB     18       PVPG     C32      CTL2    -0.220000       12.0110           0
     40941 MEMB     18       PVPG     H2X      HAL2     0.900000E-01   1.00800           0
     40942 MEMB     18       PVPG     H2Y      HAL2     0.900000E-01   1.00800           0
     40943 MEMB     18       PVPG     C23      CTL2    -0.180000       12.0110           0
     40944 MEMB     18       PVPG     H3R      HAL2     0.900000E-01   1.00800           0
     40945 MEMB     18       PVPG     H3S      HAL2     0.900000E-01   1.00800           0
     40946 MEMB     18       PVPG     C24      CTL2    -0.180000       12.0110           0
     40947 MEMB     18       PVPG     H4R      HAL2     0.900000E-01   1.00800           0
     40948 MEMB     18       PVPG     H4S      HAL2     0.900000E-01   1.00800           0
     40949 MEMB     18       PVPG     C25      CTL2    -0.180000       12.0110           0
     40950 MEMB     18       PVPG     H5R      HAL2     0.900000E-01   1.00800           0
     40951 MEMB     18       PVPG     H5S      HAL2     0.900000E-01   1.00800           0
     40952 MEMB     18       PVPG     C26      CTL2    -0.180000       12.0110           0
     40953 MEMB     18       PVPG     H6R      HAL2     0.900000E-01   1.00800           0
     40954 MEMB     18       PVPG     H6S      HAL2     0.900000E-01   1.00800           0
     40955 MEMB     18       PVPG     C27      CTL2    -0.180000       12.0110           0
     40956 MEMB     18       PVPG     H7R      HAL2     0.900000E-01   1.00800           0
     40957 MEMB     18       PVPG     H7S      HAL2     0.900000E-01   1.00800           0
     40958 MEMB     18       PVPG     C28      CTL2    -0.180000       12.0110           0
     40959 MEMB     18       PVPG     H8R      HAL2     0.900000E-01   1.00800           0
     40960 MEMB     18       PVPG     H8S      HAL2     0.900000E-01   1.00800           0
     40961 MEMB     18       PVPG     C29      CTL2    -0.180000       12.0110           0
     40962 MEMB     18       PVPG     H9R      HAL2     0.900000E-01   1.00800           0
     40963 MEMB     18       PVPG     H9S      HAL2     0.900000E-01   1.00800           0
     40964 MEMB     18       PVPG     C210     CTL2    -0.180000       12.0110           0
     40965 MEMB     18       PVPG     H10R     HAL2     0.900000E-01   1.00800           0
     40966 MEMB     18       PVPG     H10S     HAL2     0.900000E-01   1.00800           0
     40967 MEMB     18       PVPG     C211     CEL1    -0.150000       12.0110           0
     40968 MEMB     18       PVPG     H111     HEL1     0.150000       1.00800           0
     40969 MEMB     18       PVPG     C212     CEL1    -0.150000       12.0110           0
     40970 MEMB     18       PVPG     H121     HEL1     0.150000       1.00800           0
     40971 MEMB     18       PVPG     C213     CTL2    -0.180000       12.0110           0
     40972 MEMB     18       PVPG     H13R     HAL2     0.900000E-01   1.00800           0
     40973 MEMB     18       PVPG     H13S     HAL2     0.900000E-01   1.00800           0
     40974 MEMB     18       PVPG     C214     CTL2    -0.180000       12.0110           0
     40975 MEMB     18       PVPG     H14R     HAL2     0.900000E-01   1.00800           0
     40976 MEMB     18       PVPG     H14S     HAL2     0.900000E-01   1.00800           0
     40977 MEMB     18       PVPG     C215     CTL2    -0.180000       12.0110           0
     40978 MEMB     18       PVPG     H15R     HAL2     0.900000E-01   1.00800           0
     40979 MEMB     18       PVPG     H15S     HAL2     0.900000E-01   1.00800           0
     40980 MEMB     18       PVPG     C216     CTL2    -0.180000       12.0110           0
     40981 MEMB     18       PVPG     H16R     HAL2     0.900000E-01   1.00800           0
     40982 MEMB     18       PVPG     H16S     HAL2     0.900000E-01   1.00800           0
     40983 MEMB     18       PVPG     C217     CTL2    -0.180000       12.0110           0
     40984 MEMB     18       PVPG     H17R     HAL2     0.900000E-01   1.00800           0
     40985 MEMB     18       PVPG     H17S     HAL2     0.900000E-01   1.00800           0
     40986 MEMB     18       PVPG     C218     CTL3    -0.270000       12.0110           0
     40987 MEMB     18       PVPG     H18R     HAL3     0.900000E-01   1.00800           0
     40988 MEMB     18       PVPG     H18S     HAL3     0.900000E-01   1.00800           0
     40989 MEMB     18       PVPG     H18T     HAL3     0.900000E-01   1.00800           0
     40990 MEMB     18       PVPG     C33      CTL2    -0.180000       12.0110           0
     40991 MEMB     18       PVPG     H3X      HAL2     0.900000E-01   1.00800           0
     40992 MEMB     18       PVPG     H3Y      HAL2     0.900000E-01   1.00800           0
     40993 MEMB     18       PVPG     C34      CTL2    -0.180000       12.0110           0
     40994 MEMB     18       PVPG     H4X      HAL2     0.900000E-01   1.00800           0
     40995 MEMB     18       PVPG     H4Y      HAL2     0.900000E-01   1.00800           0
     40996 MEMB     18       PVPG     C35      CTL2    -0.180000       12.0110           0
     40997 MEMB     18       PVPG     H5X      HAL2     0.900000E-01   1.00800           0
     40998 MEMB     18       PVPG     H5Y      HAL2     0.900000E-01   1.00800           0
     40999 MEMB     18       PVPG     C36      CTL2    -0.180000       12.0110           0
     41000 MEMB     18       PVPG     H6X      HAL2     0.900000E-01   1.00800           0
     41001 MEMB     18       PVPG     H6Y      HAL2     0.900000E-01   1.00800           0
     41002 MEMB     18       PVPG     C37      CTL2    -0.180000       12.0110           0
     41003 MEMB     18       PVPG     H7X      HAL2     0.900000E-01   1.00800           0
     41004 MEMB     18       PVPG     H7Y      HAL2     0.900000E-01   1.00800           0
     41005 MEMB     18       PVPG     C38      CTL2    -0.180000       12.0110           0
     41006 MEMB     18       PVPG     H8X      HAL2     0.900000E-01   1.00800           0
     41007 MEMB     18       PVPG     H8Y      HAL2     0.900000E-01   1.00800           0
     41008 MEMB     18       PVPG     C39      CTL2    -0.180000       12.0110           0
     41009 MEMB     18       PVPG     H9X      HAL2     0.900000E-01   1.00800           0
     41010 MEMB     18       PVPG     H9Y      HAL2     0.900000E-01   1.00800           0
     41011 MEMB     18       PVPG     C310     CTL2    -0.180000       12.0110           0
     41012 MEMB     18       PVPG     H10X     HAL2     0.900000E-01   1.00800           0
     41013 MEMB     18       PVPG     H10Y     HAL2     0.900000E-01   1.00800           0
     41014 MEMB     18       PVPG     C311     CTL2    -0.180000       12.0110           0
     41015 MEMB     18       PVPG     H11X     HAL2     0.900000E-01   1.00800           0
     41016 MEMB     18       PVPG     H11Y     HAL2     0.900000E-01   1.00800           0
     41017 MEMB     18       PVPG     C312     CTL2    -0.180000       12.0110           0
     41018 MEMB     18       PVPG     H12X     HAL2     0.900000E-01   1.00800           0
     41019 MEMB     18       PVPG     H12Y     HAL2     0.900000E-01   1.00800           0
     41020 MEMB     18       PVPG     C313     CTL2    -0.180000       12.0110           0
     41021 MEMB     18       PVPG     H13X     HAL2     0.900000E-01   1.00800           0
     41022 MEMB     18       PVPG     H13Y     HAL2     0.900000E-01   1.00800           0
     41023 MEMB     18       PVPG     C314     CTL2    -0.180000       12.0110           0
     41024 MEMB     18       PVPG     H14X     HAL2     0.900000E-01   1.00800           0
     41025 MEMB     18       PVPG     H14Y     HAL2     0.900000E-01   1.00800           0
     41026 MEMB     18       PVPG     C315     CTL2    -0.180000       12.0110           0
     41027 MEMB     18       PVPG     H15X     HAL2     0.900000E-01   1.00800           0
     41028 MEMB     18       PVPG     H15Y     HAL2     0.900000E-01   1.00800           0
     41029 MEMB     18       PVPG     C316     CTL3    -0.270000       12.0110           0
     41030 MEMB     18       PVPG     H16X     HAL3     0.900000E-01   1.00800           0
     41031 MEMB     18       PVPG     H16Y     HAL3     0.900000E-01   1.00800           0
     41032 MEMB     18       PVPG     H16Z     HAL3     0.900000E-01   1.00800           0
     41033 MEMB     19       PPPE     N        NH3L    -0.300000       14.0070           0
     41034 MEMB     19       PPPE     HN1      HCL      0.330000       1.00800           0
     41035 MEMB     19       PPPE     HN2      HCL      0.330000       1.00800           0
     41036 MEMB     19       PPPE     HN3      HCL      0.330000       1.00800           0
     41037 MEMB     19       PPPE     C12      CTL2     0.130000       12.0110           0
     41038 MEMB     19       PPPE     H12A     HAL2     0.900000E-01   1.00800           0
     41039 MEMB     19       PPPE     H12B     HAL2     0.900000E-01   1.00800           0
     41040 MEMB     19       PPPE     C11      CTL2    -0.800000E-01   12.0110           0
     41041 MEMB     19       PPPE     H11A     HAL2     0.900000E-01   1.00800           0
     41042 MEMB     19       PPPE     H11B     HAL2     0.900000E-01   1.00800           0
     41043 MEMB     19       PPPE     P        PL        1.50000       30.9740           0
     41044 MEMB     19       PPPE     O13      O2L     -0.780000       15.9994           0
     41045 MEMB     19       PPPE     O14      O2L     -0.780000       15.9994           0
     41046 MEMB     19       PPPE     O11      OSLP    -0.570000       15.9994           0
     41047 MEMB     19       PPPE     O12      OSLP    -0.570000       15.9994           0
     41048 MEMB     19       PPPE     C1       CTL2    -0.800000E-01   12.0110           0
     41049 MEMB     19       PPPE     HA       HAL2     0.900000E-01   1.00800           0
     41050 MEMB     19       PPPE     HB       HAL2     0.900000E-01   1.00800           0
     41051 MEMB     19       PPPE     C2       CTL1     0.170000       12.0110           0
     41052 MEMB     19       PPPE     HS       HAL1     0.900000E-01   1.00800           0
     41053 MEMB     19       PPPE     O21      OSL     -0.490000       15.9994           0
     41054 MEMB     19       PPPE     C21      CL       0.900000       12.0110           0
     41055 MEMB     19       PPPE     O22      OBL     -0.630000       15.9994           0
     41056 MEMB     19       PPPE     C22      CTL2    -0.220000       12.0110           0
     41057 MEMB     19       PPPE     H2R      HAL2     0.900000E-01   1.00800           0
     41058 MEMB     19       PPPE     H2S      HAL2     0.900000E-01   1.00800           0
     41059 MEMB     19       PPPE     C3       CTL2     0.800000E-01   12.0110           0
     41060 MEMB     19       PPPE     HX       HAL2     0.900000E-01   1.00800           0
     41061 MEMB     19       PPPE     HY       HAL2     0.900000E-01   1.00800           0
     41062 MEMB     19       PPPE     O31      OSL     -0.490000       15.9994           0
     41063 MEMB     19       PPPE     C31      CL       0.900000       12.0110           0
     41064 MEMB     19       PPPE     O32      OBL     -0.630000       15.9994           0
     41065 MEMB     19       PPPE     C32      CTL2    -0.220000       12.0110           0
     41066 MEMB     19       PPPE     H2X      HAL2     0.900000E-01   1.00800           0
     41067 MEMB     19       PPPE     H2Y      HAL2     0.900000E-01   1.00800           0
     41068 MEMB     19       PPPE     C23      CTL2    -0.180000       12.0110           0
     41069 MEMB     19       PPPE     H3R      HAL2     0.900000E-01   1.00800           0
     41070 MEMB     19       PPPE     H3S      HAL2     0.900000E-01   1.00800           0
     41071 MEMB     19       PPPE     C24      CTL2    -0.180000       12.0110           0
     41072 MEMB     19       PPPE     H4R      HAL2     0.900000E-01   1.00800           0
     41073 MEMB     19       PPPE     H4S      HAL2     0.900000E-01   1.00800           0
     41074 MEMB     19       PPPE     C25      CTL2    -0.180000       12.0110           0
     41075 MEMB     19       PPPE     H5R      HAL2     0.900000E-01   1.00800           0
     41076 MEMB     19       PPPE     H5S      HAL2     0.900000E-01   1.00800           0
     41077 MEMB     19       PPPE     C26      CTL2    -0.180000       12.0110           0
     41078 MEMB     19       PPPE     H6R      HAL2     0.900000E-01   1.00800           0
     41079 MEMB     19       PPPE     H6S      HAL2     0.900000E-01   1.00800           0
     41080 MEMB     19       PPPE     C27      CTL2    -0.180000       12.0110           0
     41081 MEMB     19       PPPE     H7R      HAL2     0.900000E-01   1.00800           0
     41082 MEMB     19       PPPE     H7S      HAL2     0.900000E-01   1.00800           0
     41083 MEMB     19       PPPE     C28      CTL2    -0.180000       12.0110           0
     41084 MEMB     19       PPPE     H8R      HAL2     0.900000E-01   1.00800           0
     41085 MEMB     19       PPPE     H8S      HAL2     0.900000E-01   1.00800           0
     41086 MEMB     19       PPPE     C29      CEL1    -0.150000       12.0110           0
     41087 MEMB     19       PPPE     H91      HEL1     0.150000       1.00800           0
     41088 MEMB     19       PPPE     C210     CEL1    -0.150000       12.0110           0
     41089 MEMB     19       PPPE     H101     HEL1     0.150000       1.00800           0
     41090 MEMB     19       PPPE     C211     CTL2    -0.180000       12.0110           0
     41091 MEMB     19       PPPE     H11R     HAL2     0.900000E-01   1.00800           0
     41092 MEMB     19       PPPE     H11S     HAL2     0.900000E-01   1.00800           0
     41093 MEMB     19       PPPE     C212     CTL2    -0.180000       12.0110           0
     41094 MEMB     19       PPPE     H12R     HAL2     0.900000E-01   1.00800           0
     41095 MEMB     19       PPPE     H12S     HAL2     0.900000E-01   1.00800           0
     41096 MEMB     19       PPPE     C213     CTL2    -0.180000       12.0110           0
     41097 MEMB     19       PPPE     H13R     HAL2     0.900000E-01   1.00800           0
     41098 MEMB     19       PPPE     H13S     HAL2     0.900000E-01   1.00800           0
     41099 MEMB     19       PPPE     C214     CTL2    -0.180000       12.0110           0
     41100 MEMB     19       PPPE     H14R     HAL2     0.900000E-01   1.00800           0
     41101 MEMB     19       PPPE     H14S     HAL2     0.900000E-01   1.00800           0
     41102 MEMB     19       PPPE     C215     CTL2    -0.180000       12.0110           0
     41103 MEMB     19       PPPE     H15R     HAL2     0.900000E-01   1.00800           0
     41104 MEMB     19       PPPE     H15S     HAL2     0.900000E-01   1.00800           0
     41105 MEMB     19       PPPE     C216     CTL3    -0.270000       12.0110           0
     41106 MEMB     19       PPPE     H16R     HAL3     0.900000E-01   1.00800           0
     41107 MEMB     19       PPPE     H16S     HAL3     0.900000E-01   1.00800           0
     41108 MEMB     19       PPPE     H16T     HAL3     0.900000E-01   1.00800           0
     41109 MEMB     19       PPPE     C33      CTL2    -0.180000       12.0110           0
     41110 MEMB     19       PPPE     H3X      HAL2     0.900000E-01   1.00800           0
     41111 MEMB     19       PPPE     H3Y      HAL2     0.900000E-01   1.00800           0
     41112 MEMB     19       PPPE     C34      CTL2    -0.180000       12.0110           0
     41113 MEMB     19       PPPE     H4X      HAL2     0.900000E-01   1.00800           0
     41114 MEMB     19       PPPE     H4Y      HAL2     0.900000E-01   1.00800           0
     41115 MEMB     19       PPPE     C35      CTL2    -0.180000       12.0110           0
     41116 MEMB     19       PPPE     H5X      HAL2     0.900000E-01   1.00800           0
     41117 MEMB     19       PPPE     H5Y      HAL2     0.900000E-01   1.00800           0
     41118 MEMB     19       PPPE     C36      CTL2    -0.180000       12.0110           0
     41119 MEMB     19       PPPE     H6X      HAL2     0.900000E-01   1.00800           0
     41120 MEMB     19       PPPE     H6Y      HAL2     0.900000E-01   1.00800           0
     41121 MEMB     19       PPPE     C37      CTL2    -0.180000       12.0110           0
     41122 MEMB     19       PPPE     H7X      HAL2     0.900000E-01   1.00800           0
     41123 MEMB     19       PPPE     H7Y      HAL2     0.900000E-01   1.00800           0
     41124 MEMB     19       PPPE     C38      CTL2    -0.180000       12.0110           0
     41125 MEMB     19       PPPE     H8X      HAL2     0.900000E-01   1.00800           0
     41126 MEMB     19       PPPE     H8Y      HAL2     0.900000E-01   1.00800           0
     41127 MEMB     19       PPPE     C39      CTL2    -0.180000       12.0110           0
     41128 MEMB     19       PPPE     H9X      HAL2     0.900000E-01   1.00800           0
     41129 MEMB     19       PPPE     H9Y      HAL2     0.900000E-01   1.00800           0
     41130 MEMB     19       PPPE     C310     CTL2    -0.180000       12.0110           0
     41131 MEMB     19       PPPE     H10X     HAL2     0.900000E-01   1.00800           0
     41132 MEMB     19       PPPE     H10Y     HAL2     0.900000E-01   1.00800           0
     41133 MEMB     19       PPPE     C311     CTL2    -0.180000       12.0110           0
     41134 MEMB     19       PPPE     H11X     HAL2     0.900000E-01   1.00800           0
     41135 MEMB     19       PPPE     H11Y     HAL2     0.900000E-01   1.00800           0
     41136 MEMB     19       PPPE     C312     CTL2    -0.180000       12.0110           0
     41137 MEMB     19       PPPE     H12X     HAL2     0.900000E-01   1.00800           0
     41138 MEMB     19       PPPE     H12Y     HAL2     0.900000E-01   1.00800           0
     41139 MEMB     19       PPPE     C313     CTL2    -0.180000       12.0110           0
     41140 MEMB     19       PPPE     H13X     HAL2     0.900000E-01   1.00800           0
     41141 MEMB     19       PPPE     H13Y     HAL2     0.900000E-01   1.00800           0
     41142 MEMB     19       PPPE     C314     CTL2    -0.180000       12.0110           0
     41143 MEMB     19       PPPE     H14X     HAL2     0.900000E-01   1.00800           0
     41144 MEMB     19       PPPE     H14Y     HAL2     0.900000E-01   1.00800           0
     41145 MEMB     19       PPPE     C315     CTL2    -0.180000       12.0110           0
     41146 MEMB     19       PPPE     H15X     HAL2     0.900000E-01   1.00800           0
     41147 MEMB     19       PPPE     H15Y     HAL2     0.900000E-01   1.00800           0
     41148 MEMB     19       PPPE     C316     CTL3    -0.270000       12.0110           0
     41149 MEMB     19       PPPE     H16X     HAL3     0.900000E-01   1.00800           0
     41150 MEMB     19       PPPE     H16Y     HAL3     0.900000E-01   1.00800           0
     41151 MEMB     19       PPPE     H16Z     HAL3     0.900000E-01   1.00800           0
     41152 MEMB     20       PPPE     N        NH3L    -0.300000       14.0070           0
     41153 MEMB     20       PPPE     HN1      HCL      0.330000       1.00800           0
     41154 MEMB     20       PPPE     HN2      HCL      0.330000       1.00800           0
     41155 MEMB     20       PPPE     HN3      HCL      0.330000       1.00800           0
     41156 MEMB     20       PPPE     C12      CTL2     0.130000       12.0110           0
     41157 MEMB     20       PPPE     H12A     HAL2     0.900000E-01   1.00800           0
     41158 MEMB     20       PPPE     H12B     HAL2     0.900000E-01   1.00800           0
     41159 MEMB     20       PPPE     C11      CTL2    -0.800000E-01   12.0110           0
     41160 MEMB     20       PPPE     H11A     HAL2     0.900000E-01   1.00800           0
     41161 MEMB     20       PPPE     H11B     HAL2     0.900000E-01   1.00800           0
     41162 MEMB     20       PPPE     P        PL        1.50000       30.9740           0
     41163 MEMB     20       PPPE     O13      O2L     -0.780000       15.9994           0
     41164 MEMB     20       PPPE     O14      O2L     -0.780000       15.9994           0
     41165 MEMB     20       PPPE     O11      OSLP    -0.570000       15.9994           0
     41166 MEMB     20       PPPE     O12      OSLP    -0.570000       15.9994           0
     41167 MEMB     20       PPPE     C1       CTL2    -0.800000E-01   12.0110           0
     41168 MEMB     20       PPPE     HA       HAL2     0.900000E-01   1.00800           0
     41169 MEMB     20       PPPE     HB       HAL2     0.900000E-01   1.00800           0
     41170 MEMB     20       PPPE     C2       CTL1     0.170000       12.0110           0
     41171 MEMB     20       PPPE     HS       HAL1     0.900000E-01   1.00800           0
     41172 MEMB     20       PPPE     O21      OSL     -0.490000       15.9994           0
     41173 MEMB     20       PPPE     C21      CL       0.900000       12.0110           0
     41174 MEMB     20       PPPE     O22      OBL     -0.630000       15.9994           0
     41175 MEMB     20       PPPE     C22      CTL2    -0.220000       12.0110           0
     41176 MEMB     20       PPPE     H2R      HAL2     0.900000E-01   1.00800           0
     41177 MEMB     20       PPPE     H2S      HAL2     0.900000E-01   1.00800           0
     41178 MEMB     20       PPPE     C3       CTL2     0.800000E-01   12.0110           0
     41179 MEMB     20       PPPE     HX       HAL2     0.900000E-01   1.00800           0
     41180 MEMB     20       PPPE     HY       HAL2     0.900000E-01   1.00800           0
     41181 MEMB     20       PPPE     O31      OSL     -0.490000       15.9994           0
     41182 MEMB     20       PPPE     C31      CL       0.900000       12.0110           0
     41183 MEMB     20       PPPE     O32      OBL     -0.630000       15.9994           0
     41184 MEMB     20       PPPE     C32      CTL2    -0.220000       12.0110           0
     41185 MEMB     20       PPPE     H2X      HAL2     0.900000E-01   1.00800           0
     41186 MEMB     20       PPPE     H2Y      HAL2     0.900000E-01   1.00800           0
     41187 MEMB     20       PPPE     C23      CTL2    -0.180000       12.0110           0
     41188 MEMB     20       PPPE     H3R      HAL2     0.900000E-01   1.00800           0
     41189 MEMB     20       PPPE     H3S      HAL2     0.900000E-01   1.00800           0
     41190 MEMB     20       PPPE     C24      CTL2    -0.180000       12.0110           0
     41191 MEMB     20       PPPE     H4R      HAL2     0.900000E-01   1.00800           0
     41192 MEMB     20       PPPE     H4S      HAL2     0.900000E-01   1.00800           0
     41193 MEMB     20       PPPE     C25      CTL2    -0.180000       12.0110           0
     41194 MEMB     20       PPPE     H5R      HAL2     0.900000E-01   1.00800           0
     41195 MEMB     20       PPPE     H5S      HAL2     0.900000E-01   1.00800           0
     41196 MEMB     20       PPPE     C26      CTL2    -0.180000       12.0110           0
     41197 MEMB     20       PPPE     H6R      HAL2     0.900000E-01   1.00800           0
     41198 MEMB     20       PPPE     H6S      HAL2     0.900000E-01   1.00800           0
     41199 MEMB     20       PPPE     C27      CTL2    -0.180000       12.0110           0
     41200 MEMB     20       PPPE     H7R      HAL2     0.900000E-01   1.00800           0
     41201 MEMB     20       PPPE     H7S      HAL2     0.900000E-01   1.00800           0
     41202 MEMB     20       PPPE     C28      CTL2    -0.180000       12.0110           0
     41203 MEMB     20       PPPE     H8R      HAL2     0.900000E-01   1.00800           0
     41204 MEMB     20       PPPE     H8S      HAL2     0.900000E-01   1.00800           0
     41205 MEMB     20       PPPE     C29      CEL1    -0.150000       12.0110           0
     41206 MEMB     20       PPPE     H91      HEL1     0.150000       1.00800           0
     41207 MEMB     20       PPPE     C210     CEL1    -0.150000       12.0110           0
     41208 MEMB     20       PPPE     H101     HEL1     0.150000       1.00800           0
     41209 MEMB     20       PPPE     C211     CTL2    -0.180000       12.0110           0
     41210 MEMB     20       PPPE     H11R     HAL2     0.900000E-01   1.00800           0
     41211 MEMB     20       PPPE     H11S     HAL2     0.900000E-01   1.00800           0
     41212 MEMB     20       PPPE     C212     CTL2    -0.180000       12.0110           0
     41213 MEMB     20       PPPE     H12R     HAL2     0.900000E-01   1.00800           0
     41214 MEMB     20       PPPE     H12S     HAL2     0.900000E-01   1.00800           0
     41215 MEMB     20       PPPE     C213     CTL2    -0.180000       12.0110           0
     41216 MEMB     20       PPPE     H13R     HAL2     0.900000E-01   1.00800           0
     41217 MEMB     20       PPPE     H13S     HAL2     0.900000E-01   1.00800           0
     41218 MEMB     20       PPPE     C214     CTL2    -0.180000       12.0110           0
     41219 MEMB     20       PPPE     H14R     HAL2     0.900000E-01   1.00800           0
     41220 MEMB     20       PPPE     H14S     HAL2     0.900000E-01   1.00800           0
     41221 MEMB     20       PPPE     C215     CTL2    -0.180000       12.0110           0
     41222 MEMB     20       PPPE     H15R     HAL2     0.900000E-01   1.00800           0
     41223 MEMB     20       PPPE     H15S     HAL2     0.900000E-01   1.00800           0
     41224 MEMB     20       PPPE     C216     CTL3    -0.270000       12.0110           0
     41225 MEMB     20       PPPE     H16R     HAL3     0.900000E-01   1.00800           0
     41226 MEMB     20       PPPE     H16S     HAL3     0.900000E-01   1.00800           0
     41227 MEMB     20       PPPE     H16T     HAL3     0.900000E-01   1.00800           0
     41228 MEMB     20       PPPE     C33      CTL2    -0.180000       12.0110           0
     41229 MEMB     20       PPPE     H3X      HAL2     0.900000E-01   1.00800           0
     41230 MEMB     20       PPPE     H3Y      HAL2     0.900000E-01   1.00800           0
     41231 MEMB     20       PPPE     C34      CTL2    -0.180000       12.0110           0
     41232 MEMB     20       PPPE     H4X      HAL2     0.900000E-01   1.00800           0
     41233 MEMB     20       PPPE     H4Y      HAL2     0.900000E-01   1.00800           0
     41234 MEMB     20       PPPE     C35      CTL2    -0.180000       12.0110           0
     41235 MEMB     20       PPPE     H5X      HAL2     0.900000E-01   1.00800           0
     41236 MEMB     20       PPPE     H5Y      HAL2     0.900000E-01   1.00800           0
     41237 MEMB     20       PPPE     C36      CTL2    -0.180000       12.0110           0
     41238 MEMB     20       PPPE     H6X      HAL2     0.900000E-01   1.00800           0
     41239 MEMB     20       PPPE     H6Y      HAL2     0.900000E-01   1.00800           0
     41240 MEMB     20       PPPE     C37      CTL2    -0.180000       12.0110           0
     41241 MEMB     20       PPPE     H7X      HAL2     0.900000E-01   1.00800           0
     41242 MEMB     20       PPPE     H7Y      HAL2     0.900000E-01   1.00800           0
     41243 MEMB     20       PPPE     C38      CTL2    -0.180000       12.0110           0
     41244 MEMB     20       PPPE     H8X      HAL2     0.900000E-01   1.00800           0
     41245 MEMB     20       PPPE     H8Y      HAL2     0.900000E-01   1.00800           0
     41246 MEMB     20       PPPE     C39      CTL2    -0.180000       12.0110           0
     41247 MEMB     20       PPPE     H9X      HAL2     0.900000E-01   1.00800           0
     41248 MEMB     20       PPPE     H9Y      HAL2     0.900000E-01   1.00800           0
     41249 MEMB     20       PPPE     C310     CTL2    -0.180000       12.0110           0
     41250 MEMB     20       PPPE     H10X     HAL2     0.900000E-01   1.00800           0
     41251 MEMB     20       PPPE     H10Y     HAL2     0.900000E-01   1.00800           0
     41252 MEMB     20       PPPE     C311     CTL2    -0.180000       12.0110           0
     41253 MEMB     20       PPPE     H11X     HAL2     0.900000E-01   1.00800           0
     41254 MEMB     20       PPPE     H11Y     HAL2     0.900000E-01   1.00800           0
     41255 MEMB     20       PPPE     C312     CTL2    -0.180000       12.0110           0
     41256 MEMB     20       PPPE     H12X     HAL2     0.900000E-01   1.00800           0
     41257 MEMB     20       PPPE     H12Y     HAL2     0.900000E-01   1.00800           0
     41258 MEMB     20       PPPE     C313     CTL2    -0.180000       12.0110           0
     41259 MEMB     20       PPPE     H13X     HAL2     0.900000E-01   1.00800           0
     41260 MEMB     20       PPPE     H13Y     HAL2     0.900000E-01   1.00800           0
     41261 MEMB     20       PPPE     C314     CTL2    -0.180000       12.0110           0
     41262 MEMB     20       PPPE     H14X     HAL2     0.900000E-01   1.00800           0
     41263 MEMB     20       PPPE     H14Y     HAL2     0.900000E-01   1.00800           0
     41264 MEMB     20       PPPE     C315     CTL2    -0.180000       12.0110           0
     41265 MEMB     20       PPPE     H15X     HAL2     0.900000E-01   1.00800           0
     41266 MEMB     20       PPPE     H15Y     HAL2     0.900000E-01   1.00800           0
     41267 MEMB     20       PPPE     C316     CTL3    -0.270000       12.0110           0
     41268 MEMB     20       PPPE     H16X     HAL3     0.900000E-01   1.00800           0
     41269 MEMB     20       PPPE     H16Y     HAL3     0.900000E-01   1.00800           0
     41270 MEMB     20       PPPE     H16Z     HAL3     0.900000E-01   1.00800           0
     41271 MEMB     21       PVCL2    C3       CTL2    -0.800000E-01   12.0110           0
     41272 MEMB     21       PVCL2    HG31     HAL2     0.900000E-01   1.00800           0
     41273 MEMB     21       PVCL2    HG32     HAL2     0.900000E-01   1.00800           0
     41274 MEMB     21       PVCL2    P3       PL        1.50000       30.9740           0
     41275 MEMB     21       PVCL2    OP33     O2L     -0.780000       15.9994           0
     41276 MEMB     21       PVCL2    OP34     O2L     -0.780000       15.9994           0
     41277 MEMB     21       PVCL2    OP31     OSLP    -0.570000       15.9994           0
     41278 MEMB     21       PVCL2    OP32     OSLP    -0.570000       15.9994           0
     41279 MEMB     21       PVCL2    C31      CTL2    -0.800000E-01   12.0110           0
     41280 MEMB     21       PVCL2    H31J     HAL2     0.900000E-01   1.00800           0
     41281 MEMB     21       PVCL2    H31K     HAL2     0.900000E-01   1.00800           0
     41282 MEMB     21       PVCL2    C2       CTL1     0.140000       12.0110           0
     41283 MEMB     21       PVCL2    HG22     HAL1     0.900000E-01   1.00800           0
     41284 MEMB     21       PVCL2    OG12     OHL     -0.650000       15.9994           0
     41285 MEMB     21       PVCL2    HO12     HOL      0.420000       1.00800           0
     41286 MEMB     21       PVCL2    C1       CTL2    -0.800000E-01   12.0110           0
     41287 MEMB     21       PVCL2    HG11     HAL2     0.900000E-01   1.00800           0
     41288 MEMB     21       PVCL2    HG12     HAL2     0.900000E-01   1.00800           0
     41289 MEMB     21       PVCL2    P1       PL        1.50000       30.9740           0
     41290 MEMB     21       PVCL2    OP13     O2L     -0.780000       15.9994           0
     41291 MEMB     21       PVCL2    OP14     O2L     -0.780000       15.9994           0
     41292 MEMB     21       PVCL2    OP11     OSLP    -0.570000       15.9994           0
     41293 MEMB     21       PVCL2    OP12     OSLP    -0.570000       15.9994           0
     41294 MEMB     21       PVCL2    C11      CTL2    -0.800000E-01   12.0110           0
     41295 MEMB     21       PVCL2    H11J     HAL2     0.900000E-01   1.00800           0
     41296 MEMB     21       PVCL2    H11K     HAL2     0.900000E-01   1.00800           0
     41297 MEMB     21       PVCL2    C12      CTL1     0.170000       12.0110           0
     41298 MEMB     21       PVCL2    H12J     HAL1     0.900000E-01   1.00800           0
     41299 MEMB     21       PVCL2    O12      OSL     -0.490000       15.9994           0
     41300 MEMB     21       PVCL2    CA1      CL       0.900000       12.0110           0
     41301 MEMB     21       PVCL2    OA1      OBL     -0.630000       15.9994           0
     41302 MEMB     21       PVCL2    CA2      CTL2    -0.220000       12.0110           0
     41303 MEMB     21       PVCL2    H2A      HAL2     0.900000E-01   1.00800           0
     41304 MEMB     21       PVCL2    H2B      HAL2     0.900000E-01   1.00800           0
     41305 MEMB     21       PVCL2    C13      CTL2     0.800000E-01   12.0110           0
     41306 MEMB     21       PVCL2    H13J     HAL2     0.900000E-01   1.00800           0
     41307 MEMB     21       PVCL2    H13K     HAL2     0.900000E-01   1.00800           0
     41308 MEMB     21       PVCL2    O13      OSL     -0.490000       15.9994           0
     41309 MEMB     21       PVCL2    CB1      CL       0.900000       12.0110           0
     41310 MEMB     21       PVCL2    OB1      OBL     -0.630000       15.9994           0
     41311 MEMB     21       PVCL2    CB2      CTL2    -0.220000       12.0110           0
     41312 MEMB     21       PVCL2    H2D      HAL2     0.900000E-01   1.00800           0
     41313 MEMB     21       PVCL2    H2E      HAL2     0.900000E-01   1.00800           0
     41314 MEMB     21       PVCL2    C32      CTL1     0.170000       12.0110           0
     41315 MEMB     21       PVCL2    H32J     HAL1     0.900000E-01   1.00800           0
     41316 MEMB     21       PVCL2    O32      OSL     -0.490000       15.9994           0
     41317 MEMB     21       PVCL2    CC1      CL       0.900000       12.0110           0
     41318 MEMB     21       PVCL2    OC1      OBL     -0.630000       15.9994           0
     41319 MEMB     21       PVCL2    CC2      CTL2    -0.220000       12.0110           0
     41320 MEMB     21       PVCL2    H2R      HAL2     0.900000E-01   1.00800           0
     41321 MEMB     21       PVCL2    H2S      HAL2     0.900000E-01   1.00800           0
     41322 MEMB     21       PVCL2    C33      CTL2     0.800000E-01   12.0110           0
     41323 MEMB     21       PVCL2    H33J     HAL2     0.900000E-01   1.00800           0
     41324 MEMB     21       PVCL2    H33K     HAL2     0.900000E-01   1.00800           0
     41325 MEMB     21       PVCL2    O33      OSL     -0.490000       15.9994           0
     41326 MEMB     21       PVCL2    CD1      CL       0.900000       12.0110           0
     41327 MEMB     21       PVCL2    OD1      OBL     -0.630000       15.9994           0
     41328 MEMB     21       PVCL2    CD2      CTL2    -0.220000       12.0110           0
     41329 MEMB     21       PVCL2    H2X      HAL2     0.900000E-01   1.00800           0
     41330 MEMB     21       PVCL2    H2Y      HAL2     0.900000E-01   1.00800           0
     41331 MEMB     21       PVCL2    CA3      CTL2    -0.180000       12.0110           0
     41332 MEMB     21       PVCL2    H3A      HAL2     0.900000E-01   1.00800           0
     41333 MEMB     21       PVCL2    H3B      HAL2     0.900000E-01   1.00800           0
     41334 MEMB     21       PVCL2    CA4      CTL2    -0.180000       12.0110           0
     41335 MEMB     21       PVCL2    H4A      HAL2     0.900000E-01   1.00800           0
     41336 MEMB     21       PVCL2    H4B      HAL2     0.900000E-01   1.00800           0
     41337 MEMB     21       PVCL2    CA5      CTL2    -0.180000       12.0110           0
     41338 MEMB     21       PVCL2    H5A      HAL2     0.900000E-01   1.00800           0
     41339 MEMB     21       PVCL2    H5B      HAL2     0.900000E-01   1.00800           0
     41340 MEMB     21       PVCL2    CA6      CTL2    -0.180000       12.0110           0
     41341 MEMB     21       PVCL2    H6A      HAL2     0.900000E-01   1.00800           0
     41342 MEMB     21       PVCL2    H6B      HAL2     0.900000E-01   1.00800           0
     41343 MEMB     21       PVCL2    CA7      CTL2    -0.180000       12.0110           0
     41344 MEMB     21       PVCL2    H7A      HAL2     0.900000E-01   1.00800           0
     41345 MEMB     21       PVCL2    H7B      HAL2     0.900000E-01   1.00800           0
     41346 MEMB     21       PVCL2    CA8      CTL2    -0.180000       12.0110           0
     41347 MEMB     21       PVCL2    H8A      HAL2     0.900000E-01   1.00800           0
     41348 MEMB     21       PVCL2    H8B      HAL2     0.900000E-01   1.00800           0
     41349 MEMB     21       PVCL2    CA9      CTL2    -0.180000       12.0110           0
     41350 MEMB     21       PVCL2    H9A      HAL2     0.900000E-01   1.00800           0
     41351 MEMB     21       PVCL2    H9B      HAL2     0.900000E-01   1.00800           0
     41352 MEMB     21       PVCL2    CA10     CTL2    -0.180000       12.0110           0
     41353 MEMB     21       PVCL2    H10A     HAL2     0.900000E-01   1.00800           0
     41354 MEMB     21       PVCL2    H10B     HAL2     0.900000E-01   1.00800           0
     41355 MEMB     21       PVCL2    CA11     CEL1    -0.150000       12.0110           0
     41356 MEMB     21       PVCL2    H11A     HEL1     0.150000       1.00800           0
     41357 MEMB     21       PVCL2    CA12     CEL1    -0.150000       12.0110           0
     41358 MEMB     21       PVCL2    H12A     HEL1     0.150000       1.00800           0
     41359 MEMB     21       PVCL2    CA13     CTL2    -0.180000       12.0110           0
     41360 MEMB     21       PVCL2    H13A     HAL2     0.900000E-01   1.00800           0
     41361 MEMB     21       PVCL2    H13B     HAL2     0.900000E-01   1.00800           0
     41362 MEMB     21       PVCL2    CA14     CTL2    -0.180000       12.0110           0
     41363 MEMB     21       PVCL2    H14A     HAL2     0.900000E-01   1.00800           0
     41364 MEMB     21       PVCL2    H14B     HAL2     0.900000E-01   1.00800           0
     41365 MEMB     21       PVCL2    CA15     CTL2    -0.180000       12.0110           0
     41366 MEMB     21       PVCL2    H15A     HAL2     0.900000E-01   1.00800           0
     41367 MEMB     21       PVCL2    H15B     HAL2     0.900000E-01   1.00800           0
     41368 MEMB     21       PVCL2    CA16     CTL2    -0.180000       12.0110           0
     41369 MEMB     21       PVCL2    H16A     HAL2     0.900000E-01   1.00800           0
     41370 MEMB     21       PVCL2    H16B     HAL2     0.900000E-01   1.00800           0
     41371 MEMB     21       PVCL2    CA17     CTL2    -0.180000       12.0110           0
     41372 MEMB     21       PVCL2    H17A     HAL2     0.900000E-01   1.00800           0
     41373 MEMB     21       PVCL2    H17B     HAL2     0.900000E-01   1.00800           0
     41374 MEMB     21       PVCL2    CA18     CTL3    -0.270000       12.0110           0
     41375 MEMB     21       PVCL2    H18A     HAL3     0.900000E-01   1.00800           0
     41376 MEMB     21       PVCL2    H18B     HAL3     0.900000E-01   1.00800           0
     41377 MEMB     21       PVCL2    H18C     HAL3     0.900000E-01   1.00800           0
     41378 MEMB     21       PVCL2    CB3      CTL2    -0.180000       12.0110           0
     41379 MEMB     21       PVCL2    H3D      HAL2     0.900000E-01   1.00800           0
     41380 MEMB     21       PVCL2    H3E      HAL2     0.900000E-01   1.00800           0
     41381 MEMB     21       PVCL2    CB4      CTL2    -0.180000       12.0110           0
     41382 MEMB     21       PVCL2    H4D      HAL2     0.900000E-01   1.00800           0
     41383 MEMB     21       PVCL2    H4E      HAL2     0.900000E-01   1.00800           0
     41384 MEMB     21       PVCL2    CB5      CTL2    -0.180000       12.0110           0
     41385 MEMB     21       PVCL2    H5D      HAL2     0.900000E-01   1.00800           0
     41386 MEMB     21       PVCL2    H5E      HAL2     0.900000E-01   1.00800           0
     41387 MEMB     21       PVCL2    CB6      CTL2    -0.180000       12.0110           0
     41388 MEMB     21       PVCL2    H6D      HAL2     0.900000E-01   1.00800           0
     41389 MEMB     21       PVCL2    H6E      HAL2     0.900000E-01   1.00800           0
     41390 MEMB     21       PVCL2    CB7      CTL2    -0.180000       12.0110           0
     41391 MEMB     21       PVCL2    H7D      HAL2     0.900000E-01   1.00800           0
     41392 MEMB     21       PVCL2    H7E      HAL2     0.900000E-01   1.00800           0
     41393 MEMB     21       PVCL2    CB8      CTL2    -0.180000       12.0110           0
     41394 MEMB     21       PVCL2    H8D      HAL2     0.900000E-01   1.00800           0
     41395 MEMB     21       PVCL2    H8E      HAL2     0.900000E-01   1.00800           0
     41396 MEMB     21       PVCL2    CB9      CTL2    -0.180000       12.0110           0
     41397 MEMB     21       PVCL2    H9D      HAL2     0.900000E-01   1.00800           0
     41398 MEMB     21       PVCL2    H9E      HAL2     0.900000E-01   1.00800           0
     41399 MEMB     21       PVCL2    CB10     CTL2    -0.180000       12.0110           0
     41400 MEMB     21       PVCL2    H10D     HAL2     0.900000E-01   1.00800           0
     41401 MEMB     21       PVCL2    H10E     HAL2     0.900000E-01   1.00800           0
     41402 MEMB     21       PVCL2    CB11     CTL2    -0.180000       12.0110           0
     41403 MEMB     21       PVCL2    H11D     HAL2     0.900000E-01   1.00800           0
     41404 MEMB     21       PVCL2    H11E     HAL2     0.900000E-01   1.00800           0
     41405 MEMB     21       PVCL2    CB12     CTL2    -0.180000       12.0110           0
     41406 MEMB     21       PVCL2    H12D     HAL2     0.900000E-01   1.00800           0
     41407 MEMB     21       PVCL2    H12E     HAL2     0.900000E-01   1.00800           0
     41408 MEMB     21       PVCL2    CB13     CTL2    -0.180000       12.0110           0
     41409 MEMB     21       PVCL2    H13D     HAL2     0.900000E-01   1.00800           0
     41410 MEMB     21       PVCL2    H13E     HAL2     0.900000E-01   1.00800           0
     41411 MEMB     21       PVCL2    CB14     CTL2    -0.180000       12.0110           0
     41412 MEMB     21       PVCL2    H14D     HAL2     0.900000E-01   1.00800           0
     41413 MEMB     21       PVCL2    H14E     HAL2     0.900000E-01   1.00800           0
     41414 MEMB     21       PVCL2    CB15     CTL2    -0.180000       12.0110           0
     41415 MEMB     21       PVCL2    H15D     HAL2     0.900000E-01   1.00800           0
     41416 MEMB     21       PVCL2    H15E     HAL2     0.900000E-01   1.00800           0
     41417 MEMB     21       PVCL2    CB16     CTL3    -0.270000       12.0110           0
     41418 MEMB     21       PVCL2    H16D     HAL3     0.900000E-01   1.00800           0
     41419 MEMB     21       PVCL2    H16E     HAL3     0.900000E-01   1.00800           0
     41420 MEMB     21       PVCL2    H16F     HAL3     0.900000E-01   1.00800           0
     41421 MEMB     21       PVCL2    CC3      CTL2    -0.180000       12.0110           0
     41422 MEMB     21       PVCL2    H3R      HAL2     0.900000E-01   1.00800           0
     41423 MEMB     21       PVCL2    H3S      HAL2     0.900000E-01   1.00800           0
     41424 MEMB     21       PVCL2    CC4      CTL2    -0.180000       12.0110           0
     41425 MEMB     21       PVCL2    H4R      HAL2     0.900000E-01   1.00800           0
     41426 MEMB     21       PVCL2    H4S      HAL2     0.900000E-01   1.00800           0
     41427 MEMB     21       PVCL2    CC5      CTL2    -0.180000       12.0110           0
     41428 MEMB     21       PVCL2    H5R      HAL2     0.900000E-01   1.00800           0
     41429 MEMB     21       PVCL2    H5S      HAL2     0.900000E-01   1.00800           0
     41430 MEMB     21       PVCL2    CC6      CTL2    -0.180000       12.0110           0
     41431 MEMB     21       PVCL2    H6R      HAL2     0.900000E-01   1.00800           0
     41432 MEMB     21       PVCL2    H6S      HAL2     0.900000E-01   1.00800           0
     41433 MEMB     21       PVCL2    CC7      CTL2    -0.180000       12.0110           0
     41434 MEMB     21       PVCL2    H7R      HAL2     0.900000E-01   1.00800           0
     41435 MEMB     21       PVCL2    H7S      HAL2     0.900000E-01   1.00800           0
     41436 MEMB     21       PVCL2    CC8      CTL2    -0.180000       12.0110           0
     41437 MEMB     21       PVCL2    H8R      HAL2     0.900000E-01   1.00800           0
     41438 MEMB     21       PVCL2    H8S      HAL2     0.900000E-01   1.00800           0
     41439 MEMB     21       PVCL2    CC9      CTL2    -0.180000       12.0110           0
     41440 MEMB     21       PVCL2    H9R      HAL2     0.900000E-01   1.00800           0
     41441 MEMB     21       PVCL2    H9S      HAL2     0.900000E-01   1.00800           0
     41442 MEMB     21       PVCL2    CC10     CTL2    -0.180000       12.0110           0
     41443 MEMB     21       PVCL2    H10R     HAL2     0.900000E-01   1.00800           0
     41444 MEMB     21       PVCL2    H10S     HAL2     0.900000E-01   1.00800           0
     41445 MEMB     21       PVCL2    CC11     CEL1    -0.150000       12.0110           0
     41446 MEMB     21       PVCL2    H11R     HEL1     0.150000       1.00800           0
     41447 MEMB     21       PVCL2    CC12     CEL1    -0.150000       12.0110           0
     41448 MEMB     21       PVCL2    H12R     HEL1     0.150000       1.00800           0
     41449 MEMB     21       PVCL2    CC13     CTL2    -0.180000       12.0110           0
     41450 MEMB     21       PVCL2    H13R     HAL2     0.900000E-01   1.00800           0
     41451 MEMB     21       PVCL2    H13S     HAL2     0.900000E-01   1.00800           0
     41452 MEMB     21       PVCL2    CC14     CTL2    -0.180000       12.0110           0
     41453 MEMB     21       PVCL2    H14R     HAL2     0.900000E-01   1.00800           0
     41454 MEMB     21       PVCL2    H14S     HAL2     0.900000E-01   1.00800           0
     41455 MEMB     21       PVCL2    CC15     CTL2    -0.180000       12.0110           0
     41456 MEMB     21       PVCL2    H15R     HAL2     0.900000E-01   1.00800           0
     41457 MEMB     21       PVCL2    H15S     HAL2     0.900000E-01   1.00800           0
     41458 MEMB     21       PVCL2    CC16     CTL2    -0.180000       12.0110           0
     41459 MEMB     21       PVCL2    H16R     HAL2     0.900000E-01   1.00800           0
     41460 MEMB     21       PVCL2    H16S     HAL2     0.900000E-01   1.00800           0
     41461 MEMB     21       PVCL2    CC17     CTL2    -0.180000       12.0110           0
     41462 MEMB     21       PVCL2    H17R     HAL2     0.900000E-01   1.00800           0
     41463 MEMB     21       PVCL2    H17S     HAL2     0.900000E-01   1.00800           0
     41464 MEMB     21       PVCL2    CC18     CTL3    -0.270000       12.0110           0
     41465 MEMB     21       PVCL2    H18R     HAL3     0.900000E-01   1.00800           0
     41466 MEMB     21       PVCL2    H18S     HAL3     0.900000E-01   1.00800           0
     41467 MEMB     21       PVCL2    H18T     HAL3     0.900000E-01   1.00800           0
     41468 MEMB     21       PVCL2    CD3      CTL2    -0.180000       12.0110           0
     41469 MEMB     21       PVCL2    H3X      HAL2     0.900000E-01   1.00800           0
     41470 MEMB     21       PVCL2    H3Y      HAL2     0.900000E-01   1.00800           0
     41471 MEMB     21       PVCL2    CD4      CTL2    -0.180000       12.0110           0
     41472 MEMB     21       PVCL2    H4X      HAL2     0.900000E-01   1.00800           0
     41473 MEMB     21       PVCL2    H4Y      HAL2     0.900000E-01   1.00800           0
     41474 MEMB     21       PVCL2    CD5      CTL2    -0.180000       12.0110           0
     41475 MEMB     21       PVCL2    H5X      HAL2     0.900000E-01   1.00800           0
     41476 MEMB     21       PVCL2    H5Y      HAL2     0.900000E-01   1.00800           0
     41477 MEMB     21       PVCL2    CD6      CTL2    -0.180000       12.0110           0
     41478 MEMB     21       PVCL2    H6X      HAL2     0.900000E-01   1.00800           0
     41479 MEMB     21       PVCL2    H6Y      HAL2     0.900000E-01   1.00800           0
     41480 MEMB     21       PVCL2    CD7      CTL2    -0.180000       12.0110           0
     41481 MEMB     21       PVCL2    H7X      HAL2     0.900000E-01   1.00800           0
     41482 MEMB     21       PVCL2    H7Y      HAL2     0.900000E-01   1.00800           0
     41483 MEMB     21       PVCL2    CD8      CTL2    -0.180000       12.0110           0
     41484 MEMB     21       PVCL2    H8X      HAL2     0.900000E-01   1.00800           0
     41485 MEMB     21       PVCL2    H8Y      HAL2     0.900000E-01   1.00800           0
     41486 MEMB     21       PVCL2    CD9      CTL2    -0.180000       12.0110           0
     41487 MEMB     21       PVCL2    H9X      HAL2     0.900000E-01   1.00800           0
     41488 MEMB     21       PVCL2    H9Y      HAL2     0.900000E-01   1.00800           0
     41489 MEMB     21       PVCL2    CD10     CTL2    -0.180000       12.0110           0
     41490 MEMB     21       PVCL2    H10X     HAL2     0.900000E-01   1.00800           0
     41491 MEMB     21       PVCL2    H10Y     HAL2     0.900000E-01   1.00800           0
     41492 MEMB     21       PVCL2    CD11     CTL2    -0.180000       12.0110           0
     41493 MEMB     21       PVCL2    H11X     HAL2     0.900000E-01   1.00800           0
     41494 MEMB     21       PVCL2    H11Y     HAL2     0.900000E-01   1.00800           0
     41495 MEMB     21       PVCL2    CD12     CTL2    -0.180000       12.0110           0
     41496 MEMB     21       PVCL2    H12X     HAL2     0.900000E-01   1.00800           0
     41497 MEMB     21       PVCL2    H12Y     HAL2     0.900000E-01   1.00800           0
     41498 MEMB     21       PVCL2    CD13     CTL2    -0.180000       12.0110           0
     41499 MEMB     21       PVCL2    H13X     HAL2     0.900000E-01   1.00800           0
     41500 MEMB     21       PVCL2    H13Y     HAL2     0.900000E-01   1.00800           0
     41501 MEMB     21       PVCL2    CD14     CTL2    -0.180000       12.0110           0
     41502 MEMB     21       PVCL2    H14X     HAL2     0.900000E-01   1.00800           0
     41503 MEMB     21       PVCL2    H14Y     HAL2     0.900000E-01   1.00800           0
     41504 MEMB     21       PVCL2    CD15     CTL2    -0.180000       12.0110           0
     41505 MEMB     21       PVCL2    H15X     HAL2     0.900000E-01   1.00800           0
     41506 MEMB     21       PVCL2    H15Y     HAL2     0.900000E-01   1.00800           0
     41507 MEMB     21       PVCL2    CD16     CTL3    -0.270000       12.0110           0
     41508 MEMB     21       PVCL2    H16X     HAL3     0.900000E-01   1.00800           0
     41509 MEMB     21       PVCL2    H16Y     HAL3     0.900000E-01   1.00800           0
     41510 MEMB     21       PVCL2    H16Z     HAL3     0.900000E-01   1.00800           0
     41511 MEMB     22       PPPE     N        NH3L    -0.300000       14.0070           0
     41512 MEMB     22       PPPE     HN1      HCL      0.330000       1.00800           0
     41513 MEMB     22       PPPE     HN2      HCL      0.330000       1.00800           0
     41514 MEMB     22       PPPE     HN3      HCL      0.330000       1.00800           0
     41515 MEMB     22       PPPE     C12      CTL2     0.130000       12.0110           0
     41516 MEMB     22       PPPE     H12A     HAL2     0.900000E-01   1.00800           0
     41517 MEMB     22       PPPE     H12B     HAL2     0.900000E-01   1.00800           0
     41518 MEMB     22       PPPE     C11      CTL2    -0.800000E-01   12.0110           0
     41519 MEMB     22       PPPE     H11A     HAL2     0.900000E-01   1.00800           0
     41520 MEMB     22       PPPE     H11B     HAL2     0.900000E-01   1.00800           0
     41521 MEMB     22       PPPE     P        PL        1.50000       30.9740           0
     41522 MEMB     22       PPPE     O13      O2L     -0.780000       15.9994           0
     41523 MEMB     22       PPPE     O14      O2L     -0.780000       15.9994           0
     41524 MEMB     22       PPPE     O11      OSLP    -0.570000       15.9994           0
     41525 MEMB     22       PPPE     O12      OSLP    -0.570000       15.9994           0
     41526 MEMB     22       PPPE     C1       CTL2    -0.800000E-01   12.0110           0
     41527 MEMB     22       PPPE     HA       HAL2     0.900000E-01   1.00800           0
     41528 MEMB     22       PPPE     HB       HAL2     0.900000E-01   1.00800           0
     41529 MEMB     22       PPPE     C2       CTL1     0.170000       12.0110           0
     41530 MEMB     22       PPPE     HS       HAL1     0.900000E-01   1.00800           0
     41531 MEMB     22       PPPE     O21      OSL     -0.490000       15.9994           0
     41532 MEMB     22       PPPE     C21      CL       0.900000       12.0110           0
     41533 MEMB     22       PPPE     O22      OBL     -0.630000       15.9994           0
     41534 MEMB     22       PPPE     C22      CTL2    -0.220000       12.0110           0
     41535 MEMB     22       PPPE     H2R      HAL2     0.900000E-01   1.00800           0
     41536 MEMB     22       PPPE     H2S      HAL2     0.900000E-01   1.00800           0
     41537 MEMB     22       PPPE     C3       CTL2     0.800000E-01   12.0110           0
     41538 MEMB     22       PPPE     HX       HAL2     0.900000E-01   1.00800           0
     41539 MEMB     22       PPPE     HY       HAL2     0.900000E-01   1.00800           0
     41540 MEMB     22       PPPE     O31      OSL     -0.490000       15.9994           0
     41541 MEMB     22       PPPE     C31      CL       0.900000       12.0110           0
     41542 MEMB     22       PPPE     O32      OBL     -0.630000       15.9994           0
     41543 MEMB     22       PPPE     C32      CTL2    -0.220000       12.0110           0
     41544 MEMB     22       PPPE     H2X      HAL2     0.900000E-01   1.00800           0
     41545 MEMB     22       PPPE     H2Y      HAL2     0.900000E-01   1.00800           0
     41546 MEMB     22       PPPE     C23      CTL2    -0.180000       12.0110           0
     41547 MEMB     22       PPPE     H3R      HAL2     0.900000E-01   1.00800           0
     41548 MEMB     22       PPPE     H3S      HAL2     0.900000E-01   1.00800           0
     41549 MEMB     22       PPPE     C24      CTL2    -0.180000       12.0110           0
     41550 MEMB     22       PPPE     H4R      HAL2     0.900000E-01   1.00800           0
     41551 MEMB     22       PPPE     H4S      HAL2     0.900000E-01   1.00800           0
     41552 MEMB     22       PPPE     C25      CTL2    -0.180000       12.0110           0
     41553 MEMB     22       PPPE     H5R      HAL2     0.900000E-01   1.00800           0
     41554 MEMB     22       PPPE     H5S      HAL2     0.900000E-01   1.00800           0
     41555 MEMB     22       PPPE     C26      CTL2    -0.180000       12.0110           0
     41556 MEMB     22       PPPE     H6R      HAL2     0.900000E-01   1.00800           0
     41557 MEMB     22       PPPE     H6S      HAL2     0.900000E-01   1.00800           0
     41558 MEMB     22       PPPE     C27      CTL2    -0.180000       12.0110           0
     41559 MEMB     22       PPPE     H7R      HAL2     0.900000E-01   1.00800           0
     41560 MEMB     22       PPPE     H7S      HAL2     0.900000E-01   1.00800           0
     41561 MEMB     22       PPPE     C28      CTL2    -0.180000       12.0110           0
     41562 MEMB     22       PPPE     H8R      HAL2     0.900000E-01   1.00800           0
     41563 MEMB     22       PPPE     H8S      HAL2     0.900000E-01   1.00800           0
     41564 MEMB     22       PPPE     C29      CEL1    -0.150000       12.0110           0
     41565 MEMB     22       PPPE     H91      HEL1     0.150000       1.00800           0
     41566 MEMB     22       PPPE     C210     CEL1    -0.150000       12.0110           0
     41567 MEMB     22       PPPE     H101     HEL1     0.150000       1.00800           0
     41568 MEMB     22       PPPE     C211     CTL2    -0.180000       12.0110           0
     41569 MEMB     22       PPPE     H11R     HAL2     0.900000E-01   1.00800           0
     41570 MEMB     22       PPPE     H11S     HAL2     0.900000E-01   1.00800           0
     41571 MEMB     22       PPPE     C212     CTL2    -0.180000       12.0110           0
     41572 MEMB     22       PPPE     H12R     HAL2     0.900000E-01   1.00800           0
     41573 MEMB     22       PPPE     H12S     HAL2     0.900000E-01   1.00800           0
     41574 MEMB     22       PPPE     C213     CTL2    -0.180000       12.0110           0
     41575 MEMB     22       PPPE     H13R     HAL2     0.900000E-01   1.00800           0
     41576 MEMB     22       PPPE     H13S     HAL2     0.900000E-01   1.00800           0
     41577 MEMB     22       PPPE     C214     CTL2    -0.180000       12.0110           0
     41578 MEMB     22       PPPE     H14R     HAL2     0.900000E-01   1.00800           0
     41579 MEMB     22       PPPE     H14S     HAL2     0.900000E-01   1.00800           0
     41580 MEMB     22       PPPE     C215     CTL2    -0.180000       12.0110           0
     41581 MEMB     22       PPPE     H15R     HAL2     0.900000E-01   1.00800           0
     41582 MEMB     22       PPPE     H15S     HAL2     0.900000E-01   1.00800           0
     41583 MEMB     22       PPPE     C216     CTL3    -0.270000       12.0110           0
     41584 MEMB     22       PPPE     H16R     HAL3     0.900000E-01   1.00800           0
     41585 MEMB     22       PPPE     H16S     HAL3     0.900000E-01   1.00800           0
     41586 MEMB     22       PPPE     H16T     HAL3     0.900000E-01   1.00800           0
     41587 MEMB     22       PPPE     C33      CTL2    -0.180000       12.0110           0
     41588 MEMB     22       PPPE     H3X      HAL2     0.900000E-01   1.00800           0
     41589 MEMB     22       PPPE     H3Y      HAL2     0.900000E-01   1.00800           0
     41590 MEMB     22       PPPE     C34      CTL2    -0.180000       12.0110           0
     41591 MEMB     22       PPPE     H4X      HAL2     0.900000E-01   1.00800           0
     41592 MEMB     22       PPPE     H4Y      HAL2     0.900000E-01   1.00800           0
     41593 MEMB     22       PPPE     C35      CTL2    -0.180000       12.0110           0
     41594 MEMB     22       PPPE     H5X      HAL2     0.900000E-01   1.00800           0
     41595 MEMB     22       PPPE     H5Y      HAL2     0.900000E-01   1.00800           0
     41596 MEMB     22       PPPE     C36      CTL2    -0.180000       12.0110           0
     41597 MEMB     22       PPPE     H6X      HAL2     0.900000E-01   1.00800           0
     41598 MEMB     22       PPPE     H6Y      HAL2     0.900000E-01   1.00800           0
     41599 MEMB     22       PPPE     C37      CTL2    -0.180000       12.0110           0
     41600 MEMB     22       PPPE     H7X      HAL2     0.900000E-01   1.00800           0
     41601 MEMB     22       PPPE     H7Y      HAL2     0.900000E-01   1.00800           0
     41602 MEMB     22       PPPE     C38      CTL2    -0.180000       12.0110           0
     41603 MEMB     22       PPPE     H8X      HAL2     0.900000E-01   1.00800           0
     41604 MEMB     22       PPPE     H8Y      HAL2     0.900000E-01   1.00800           0
     41605 MEMB     22       PPPE     C39      CTL2    -0.180000       12.0110           0
     41606 MEMB     22       PPPE     H9X      HAL2     0.900000E-01   1.00800           0
     41607 MEMB     22       PPPE     H9Y      HAL2     0.900000E-01   1.00800           0
     41608 MEMB     22       PPPE     C310     CTL2    -0.180000       12.0110           0
     41609 MEMB     22       PPPE     H10X     HAL2     0.900000E-01   1.00800           0
     41610 MEMB     22       PPPE     H10Y     HAL2     0.900000E-01   1.00800           0
     41611 MEMB     22       PPPE     C311     CTL2    -0.180000       12.0110           0
     41612 MEMB     22       PPPE     H11X     HAL2     0.900000E-01   1.00800           0
     41613 MEMB     22       PPPE     H11Y     HAL2     0.900000E-01   1.00800           0
     41614 MEMB     22       PPPE     C312     CTL2    -0.180000       12.0110           0
     41615 MEMB     22       PPPE     H12X     HAL2     0.900000E-01   1.00800           0
     41616 MEMB     22       PPPE     H12Y     HAL2     0.900000E-01   1.00800           0
     41617 MEMB     22       PPPE     C313     CTL2    -0.180000       12.0110           0
     41618 MEMB     22       PPPE     H13X     HAL2     0.900000E-01   1.00800           0
     41619 MEMB     22       PPPE     H13Y     HAL2     0.900000E-01   1.00800           0
     41620 MEMB     22       PPPE     C314     CTL2    -0.180000       12.0110           0
     41621 MEMB     22       PPPE     H14X     HAL2     0.900000E-01   1.00800           0
     41622 MEMB     22       PPPE     H14Y     HAL2     0.900000E-01   1.00800           0
     41623 MEMB     22       PPPE     C315     CTL2    -0.180000       12.0110           0
     41624 MEMB     22       PPPE     H15X     HAL2     0.900000E-01   1.00800           0
     41625 MEMB     22       PPPE     H15Y     HAL2     0.900000E-01   1.00800           0
     41626 MEMB     22       PPPE     C316     CTL3    -0.270000       12.0110           0
     41627 MEMB     22       PPPE     H16X     HAL3     0.900000E-01   1.00800           0
     41628 MEMB     22       PPPE     H16Y     HAL3     0.900000E-01   1.00800           0
     41629 MEMB     22       PPPE     H16Z     HAL3     0.900000E-01   1.00800           0
     41630 MEMB     23       PVPG     C13      CTL2     0.500000E-01   12.0110           0
     41631 MEMB     23       PVPG     H13A     HAL2     0.900000E-01   1.00800           0
     41632 MEMB     23       PVPG     H13B     HAL2     0.900000E-01   1.00800           0
     41633 MEMB     23       PVPG     OC3      OHL     -0.650000       15.9994           0
     41634 MEMB     23       PVPG     HO3      HOL      0.420000       1.00800           0
     41635 MEMB     23       PVPG     C12      CTL1     0.140000       12.0110           0
     41636 MEMB     23       PVPG     H12A     HAL1     0.900000E-01   1.00800           0
     41637 MEMB     23       PVPG     OC2      OHL     -0.650000       15.9994           0
     41638 MEMB     23       PVPG     HO2      HOL      0.420000       1.00800           0
     41639 MEMB     23       PVPG     C11      CTL2    -0.800000E-01   12.0110           0
     41640 MEMB     23       PVPG     H11A     HAL2     0.900000E-01   1.00800           0
     41641 MEMB     23       PVPG     H11B     HAL2     0.900000E-01   1.00800           0
     41642 MEMB     23       PVPG     P        PL        1.50000       30.9740           0
     41643 MEMB     23       PVPG     O13      O2L     -0.780000       15.9994           0
     41644 MEMB     23       PVPG     O14      O2L     -0.780000       15.9994           0
     41645 MEMB     23       PVPG     O12      OSLP    -0.570000       15.9994           0
     41646 MEMB     23       PVPG     O11      OSLP    -0.570000       15.9994           0
     41647 MEMB     23       PVPG     C1       CTL2    -0.800000E-01   12.0110           0
     41648 MEMB     23       PVPG     HA       HAL2     0.900000E-01   1.00800           0
     41649 MEMB     23       PVPG     HB       HAL2     0.900000E-01   1.00800           0
     41650 MEMB     23       PVPG     C2       CTL1     0.170000       12.0110           0
     41651 MEMB     23       PVPG     HS       HAL1     0.900000E-01   1.00800           0
     41652 MEMB     23       PVPG     O21      OSL     -0.490000       15.9994           0
     41653 MEMB     23       PVPG     C21      CL       0.900000       12.0110           0
     41654 MEMB     23       PVPG     O22      OBL     -0.630000       15.9994           0
     41655 MEMB     23       PVPG     C22      CTL2    -0.220000       12.0110           0
     41656 MEMB     23       PVPG     H2R      HAL2     0.900000E-01   1.00800           0
     41657 MEMB     23       PVPG     H2S      HAL2     0.900000E-01   1.00800           0
     41658 MEMB     23       PVPG     C3       CTL2     0.800000E-01   12.0110           0
     41659 MEMB     23       PVPG     HX       HAL2     0.900000E-01   1.00800           0
     41660 MEMB     23       PVPG     HY       HAL2     0.900000E-01   1.00800           0
     41661 MEMB     23       PVPG     O31      OSL     -0.490000       15.9994           0
     41662 MEMB     23       PVPG     C31      CL       0.900000       12.0110           0
     41663 MEMB     23       PVPG     O32      OBL     -0.630000       15.9994           0
     41664 MEMB     23       PVPG     C32      CTL2    -0.220000       12.0110           0
     41665 MEMB     23       PVPG     H2X      HAL2     0.900000E-01   1.00800           0
     41666 MEMB     23       PVPG     H2Y      HAL2     0.900000E-01   1.00800           0
     41667 MEMB     23       PVPG     C23      CTL2    -0.180000       12.0110           0
     41668 MEMB     23       PVPG     H3R      HAL2     0.900000E-01   1.00800           0
     41669 MEMB     23       PVPG     H3S      HAL2     0.900000E-01   1.00800           0
     41670 MEMB     23       PVPG     C24      CTL2    -0.180000       12.0110           0
     41671 MEMB     23       PVPG     H4R      HAL2     0.900000E-01   1.00800           0
     41672 MEMB     23       PVPG     H4S      HAL2     0.900000E-01   1.00800           0
     41673 MEMB     23       PVPG     C25      CTL2    -0.180000       12.0110           0
     41674 MEMB     23       PVPG     H5R      HAL2     0.900000E-01   1.00800           0
     41675 MEMB     23       PVPG     H5S      HAL2     0.900000E-01   1.00800           0
     41676 MEMB     23       PVPG     C26      CTL2    -0.180000       12.0110           0
     41677 MEMB     23       PVPG     H6R      HAL2     0.900000E-01   1.00800           0
     41678 MEMB     23       PVPG     H6S      HAL2     0.900000E-01   1.00800           0
     41679 MEMB     23       PVPG     C27      CTL2    -0.180000       12.0110           0
     41680 MEMB     23       PVPG     H7R      HAL2     0.900000E-01   1.00800           0
     41681 MEMB     23       PVPG     H7S      HAL2     0.900000E-01   1.00800           0
     41682 MEMB     23       PVPG     C28      CTL2    -0.180000       12.0110           0
     41683 MEMB     23       PVPG     H8R      HAL2     0.900000E-01   1.00800           0
     41684 MEMB     23       PVPG     H8S      HAL2     0.900000E-01   1.00800           0
     41685 MEMB     23       PVPG     C29      CTL2    -0.180000       12.0110           0
     41686 MEMB     23       PVPG     H9R      HAL2     0.900000E-01   1.00800           0
     41687 MEMB     23       PVPG     H9S      HAL2     0.900000E-01   1.00800           0
     41688 MEMB     23       PVPG     C210     CTL2    -0.180000       12.0110           0
     41689 MEMB     23       PVPG     H10R     HAL2     0.900000E-01   1.00800           0
     41690 MEMB     23       PVPG     H10S     HAL2     0.900000E-01   1.00800           0
     41691 MEMB     23       PVPG     C211     CEL1    -0.150000       12.0110           0
     41692 MEMB     23       PVPG     H111     HEL1     0.150000       1.00800           0
     41693 MEMB     23       PVPG     C212     CEL1    -0.150000       12.0110           0
     41694 MEMB     23       PVPG     H121     HEL1     0.150000       1.00800           0
     41695 MEMB     23       PVPG     C213     CTL2    -0.180000       12.0110           0
     41696 MEMB     23       PVPG     H13R     HAL2     0.900000E-01   1.00800           0
     41697 MEMB     23       PVPG     H13S     HAL2     0.900000E-01   1.00800           0
     41698 MEMB     23       PVPG     C214     CTL2    -0.180000       12.0110           0
     41699 MEMB     23       PVPG     H14R     HAL2     0.900000E-01   1.00800           0
     41700 MEMB     23       PVPG     H14S     HAL2     0.900000E-01   1.00800           0
     41701 MEMB     23       PVPG     C215     CTL2    -0.180000       12.0110           0
     41702 MEMB     23       PVPG     H15R     HAL2     0.900000E-01   1.00800           0
     41703 MEMB     23       PVPG     H15S     HAL2     0.900000E-01   1.00800           0
     41704 MEMB     23       PVPG     C216     CTL2    -0.180000       12.0110           0
     41705 MEMB     23       PVPG     H16R     HAL2     0.900000E-01   1.00800           0
     41706 MEMB     23       PVPG     H16S     HAL2     0.900000E-01   1.00800           0
     41707 MEMB     23       PVPG     C217     CTL2    -0.180000       12.0110           0
     41708 MEMB     23       PVPG     H17R     HAL2     0.900000E-01   1.00800           0
     41709 MEMB     23       PVPG     H17S     HAL2     0.900000E-01   1.00800           0
     41710 MEMB     23       PVPG     C218     CTL3    -0.270000       12.0110           0
     41711 MEMB     23       PVPG     H18R     HAL3     0.900000E-01   1.00800           0
     41712 MEMB     23       PVPG     H18S     HAL3     0.900000E-01   1.00800           0
     41713 MEMB     23       PVPG     H18T     HAL3     0.900000E-01   1.00800           0
     41714 MEMB     23       PVPG     C33      CTL2    -0.180000       12.0110           0
     41715 MEMB     23       PVPG     H3X      HAL2     0.900000E-01   1.00800           0
     41716 MEMB     23       PVPG     H3Y      HAL2     0.900000E-01   1.00800           0
     41717 MEMB     23       PVPG     C34      CTL2    -0.180000       12.0110           0
     41718 MEMB     23       PVPG     H4X      HAL2     0.900000E-01   1.00800           0
     41719 MEMB     23       PVPG     H4Y      HAL2     0.900000E-01   1.00800           0
     41720 MEMB     23       PVPG     C35      CTL2    -0.180000       12.0110           0
     41721 MEMB     23       PVPG     H5X      HAL2     0.900000E-01   1.00800           0
     41722 MEMB     23       PVPG     H5Y      HAL2     0.900000E-01   1.00800           0
     41723 MEMB     23       PVPG     C36      CTL2    -0.180000       12.0110           0
     41724 MEMB     23       PVPG     H6X      HAL2     0.900000E-01   1.00800           0
     41725 MEMB     23       PVPG     H6Y      HAL2     0.900000E-01   1.00800           0
     41726 MEMB     23       PVPG     C37      CTL2    -0.180000       12.0110           0
     41727 MEMB     23       PVPG     H7X      HAL2     0.900000E-01   1.00800           0
     41728 MEMB     23       PVPG     H7Y      HAL2     0.900000E-01   1.00800           0
     41729 MEMB     23       PVPG     C38      CTL2    -0.180000       12.0110           0
     41730 MEMB     23       PVPG     H8X      HAL2     0.900000E-01   1.00800           0
     41731 MEMB     23       PVPG     H8Y      HAL2     0.900000E-01   1.00800           0
     41732 MEMB     23       PVPG     C39      CTL2    -0.180000       12.0110           0
     41733 MEMB     23       PVPG     H9X      HAL2     0.900000E-01   1.00800           0
     41734 MEMB     23       PVPG     H9Y      HAL2     0.900000E-01   1.00800           0
     41735 MEMB     23       PVPG     C310     CTL2    -0.180000       12.0110           0
     41736 MEMB     23       PVPG     H10X     HAL2     0.900000E-01   1.00800           0
     41737 MEMB     23       PVPG     H10Y     HAL2     0.900000E-01   1.00800           0
     41738 MEMB     23       PVPG     C311     CTL2    -0.180000       12.0110           0
     41739 MEMB     23       PVPG     H11X     HAL2     0.900000E-01   1.00800           0
     41740 MEMB     23       PVPG     H11Y     HAL2     0.900000E-01   1.00800           0
     41741 MEMB     23       PVPG     C312     CTL2    -0.180000       12.0110           0
     41742 MEMB     23       PVPG     H12X     HAL2     0.900000E-01   1.00800           0
     41743 MEMB     23       PVPG     H12Y     HAL2     0.900000E-01   1.00800           0
     41744 MEMB     23       PVPG     C313     CTL2    -0.180000       12.0110           0
     41745 MEMB     23       PVPG     H13X     HAL2     0.900000E-01   1.00800           0
     41746 MEMB     23       PVPG     H13Y     HAL2     0.900000E-01   1.00800           0
     41747 MEMB     23       PVPG     C314     CTL2    -0.180000       12.0110           0
     41748 MEMB     23       PVPG     H14X     HAL2     0.900000E-01   1.00800           0
     41749 MEMB     23       PVPG     H14Y     HAL2     0.900000E-01   1.00800           0
     41750 MEMB     23       PVPG     C315     CTL2    -0.180000       12.0110           0
     41751 MEMB     23       PVPG     H15X     HAL2     0.900000E-01   1.00800           0
     41752 MEMB     23       PVPG     H15Y     HAL2     0.900000E-01   1.00800           0
     41753 MEMB     23       PVPG     C316     CTL3    -0.270000       12.0110           0
     41754 MEMB     23       PVPG     H16X     HAL3     0.900000E-01   1.00800           0
     41755 MEMB     23       PVPG     H16Y     HAL3     0.900000E-01   1.00800           0
     41756 MEMB     23       PVPG     H16Z     HAL3     0.900000E-01   1.00800           0
     41757 MEMB     24       PPPE     N        NH3L    -0.300000       14.0070           0
     41758 MEMB     24       PPPE     HN1      HCL      0.330000       1.00800           0
     41759 MEMB     24       PPPE     HN2      HCL      0.330000       1.00800           0
     41760 MEMB     24       PPPE     HN3      HCL      0.330000       1.00800           0
     41761 MEMB     24       PPPE     C12      CTL2     0.130000       12.0110           0
     41762 MEMB     24       PPPE     H12A     HAL2     0.900000E-01   1.00800           0
     41763 MEMB     24       PPPE     H12B     HAL2     0.900000E-01   1.00800           0
     41764 MEMB     24       PPPE     C11      CTL2    -0.800000E-01   12.0110           0
     41765 MEMB     24       PPPE     H11A     HAL2     0.900000E-01   1.00800           0
     41766 MEMB     24       PPPE     H11B     HAL2     0.900000E-01   1.00800           0
     41767 MEMB     24       PPPE     P        PL        1.50000       30.9740           0
     41768 MEMB     24       PPPE     O13      O2L     -0.780000       15.9994           0
     41769 MEMB     24       PPPE     O14      O2L     -0.780000       15.9994           0
     41770 MEMB     24       PPPE     O11      OSLP    -0.570000       15.9994           0
     41771 MEMB     24       PPPE     O12      OSLP    -0.570000       15.9994           0
     41772 MEMB     24       PPPE     C1       CTL2    -0.800000E-01   12.0110           0
     41773 MEMB     24       PPPE     HA       HAL2     0.900000E-01   1.00800           0
     41774 MEMB     24       PPPE     HB       HAL2     0.900000E-01   1.00800           0
     41775 MEMB     24       PPPE     C2       CTL1     0.170000       12.0110           0
     41776 MEMB     24       PPPE     HS       HAL1     0.900000E-01   1.00800           0
     41777 MEMB     24       PPPE     O21      OSL     -0.490000       15.9994           0
     41778 MEMB     24       PPPE     C21      CL       0.900000       12.0110           0
     41779 MEMB     24       PPPE     O22      OBL     -0.630000       15.9994           0
     41780 MEMB     24       PPPE     C22      CTL2    -0.220000       12.0110           0
     41781 MEMB     24       PPPE     H2R      HAL2     0.900000E-01   1.00800           0
     41782 MEMB     24       PPPE     H2S      HAL2     0.900000E-01   1.00800           0
     41783 MEMB     24       PPPE     C3       CTL2     0.800000E-01   12.0110           0
     41784 MEMB     24       PPPE     HX       HAL2     0.900000E-01   1.00800           0
     41785 MEMB     24       PPPE     HY       HAL2     0.900000E-01   1.00800           0
     41786 MEMB     24       PPPE     O31      OSL     -0.490000       15.9994           0
     41787 MEMB     24       PPPE     C31      CL       0.900000       12.0110           0
     41788 MEMB     24       PPPE     O32      OBL     -0.630000       15.9994           0
     41789 MEMB     24       PPPE     C32      CTL2    -0.220000       12.0110           0
     41790 MEMB     24       PPPE     H2X      HAL2     0.900000E-01   1.00800           0
     41791 MEMB     24       PPPE     H2Y      HAL2     0.900000E-01   1.00800           0
     41792 MEMB     24       PPPE     C23      CTL2    -0.180000       12.0110           0
     41793 MEMB     24       PPPE     H3R      HAL2     0.900000E-01   1.00800           0
     41794 MEMB     24       PPPE     H3S      HAL2     0.900000E-01   1.00800           0
     41795 MEMB     24       PPPE     C24      CTL2    -0.180000       12.0110           0
     41796 MEMB     24       PPPE     H4R      HAL2     0.900000E-01   1.00800           0
     41797 MEMB     24       PPPE     H4S      HAL2     0.900000E-01   1.00800           0
     41798 MEMB     24       PPPE     C25      CTL2    -0.180000       12.0110           0
     41799 MEMB     24       PPPE     H5R      HAL2     0.900000E-01   1.00800           0
     41800 MEMB     24       PPPE     H5S      HAL2     0.900000E-01   1.00800           0
     41801 MEMB     24       PPPE     C26      CTL2    -0.180000       12.0110           0
     41802 MEMB     24       PPPE     H6R      HAL2     0.900000E-01   1.00800           0
     41803 MEMB     24       PPPE     H6S      HAL2     0.900000E-01   1.00800           0
     41804 MEMB     24       PPPE     C27      CTL2    -0.180000       12.0110           0
     41805 MEMB     24       PPPE     H7R      HAL2     0.900000E-01   1.00800           0
     41806 MEMB     24       PPPE     H7S      HAL2     0.900000E-01   1.00800           0
     41807 MEMB     24       PPPE     C28      CTL2    -0.180000       12.0110           0
     41808 MEMB     24       PPPE     H8R      HAL2     0.900000E-01   1.00800           0
     41809 MEMB     24       PPPE     H8S      HAL2     0.900000E-01   1.00800           0
     41810 MEMB     24       PPPE     C29      CEL1    -0.150000       12.0110           0
     41811 MEMB     24       PPPE     H91      HEL1     0.150000       1.00800           0
     41812 MEMB     24       PPPE     C210     CEL1    -0.150000       12.0110           0
     41813 MEMB     24       PPPE     H101     HEL1     0.150000       1.00800           0
     41814 MEMB     24       PPPE     C211     CTL2    -0.180000       12.0110           0
     41815 MEMB     24       PPPE     H11R     HAL2     0.900000E-01   1.00800           0
     41816 MEMB     24       PPPE     H11S     HAL2     0.900000E-01   1.00800           0
     41817 MEMB     24       PPPE     C212     CTL2    -0.180000       12.0110           0
     41818 MEMB     24       PPPE     H12R     HAL2     0.900000E-01   1.00800           0
     41819 MEMB     24       PPPE     H12S     HAL2     0.900000E-01   1.00800           0
     41820 MEMB     24       PPPE     C213     CTL2    -0.180000       12.0110           0
     41821 MEMB     24       PPPE     H13R     HAL2     0.900000E-01   1.00800           0
     41822 MEMB     24       PPPE     H13S     HAL2     0.900000E-01   1.00800           0
     41823 MEMB     24       PPPE     C214     CTL2    -0.180000       12.0110           0
     41824 MEMB     24       PPPE     H14R     HAL2     0.900000E-01   1.00800           0
     41825 MEMB     24       PPPE     H14S     HAL2     0.900000E-01   1.00800           0
     41826 MEMB     24       PPPE     C215     CTL2    -0.180000       12.0110           0
     41827 MEMB     24       PPPE     H15R     HAL2     0.900000E-01   1.00800           0
     41828 MEMB     24       PPPE     H15S     HAL2     0.900000E-01   1.00800           0
     41829 MEMB     24       PPPE     C216     CTL3    -0.270000       12.0110           0
     41830 MEMB     24       PPPE     H16R     HAL3     0.900000E-01   1.00800           0
     41831 MEMB     24       PPPE     H16S     HAL3     0.900000E-01   1.00800           0
     41832 MEMB     24       PPPE     H16T     HAL3     0.900000E-01   1.00800           0
     41833 MEMB     24       PPPE     C33      CTL2    -0.180000       12.0110           0
     41834 MEMB     24       PPPE     H3X      HAL2     0.900000E-01   1.00800           0
     41835 MEMB     24       PPPE     H3Y      HAL2     0.900000E-01   1.00800           0
     41836 MEMB     24       PPPE     C34      CTL2    -0.180000       12.0110           0
     41837 MEMB     24       PPPE     H4X      HAL2     0.900000E-01   1.00800           0
     41838 MEMB     24       PPPE     H4Y      HAL2     0.900000E-01   1.00800           0
     41839 MEMB     24       PPPE     C35      CTL2    -0.180000       12.0110           0
     41840 MEMB     24       PPPE     H5X      HAL2     0.900000E-01   1.00800           0
     41841 MEMB     24       PPPE     H5Y      HAL2     0.900000E-01   1.00800           0
     41842 MEMB     24       PPPE     C36      CTL2    -0.180000       12.0110           0
     41843 MEMB     24       PPPE     H6X      HAL2     0.900000E-01   1.00800           0
     41844 MEMB     24       PPPE     H6Y      HAL2     0.900000E-01   1.00800           0
     41845 MEMB     24       PPPE     C37      CTL2    -0.180000       12.0110           0
     41846 MEMB     24       PPPE     H7X      HAL2     0.900000E-01   1.00800           0
     41847 MEMB     24       PPPE     H7Y      HAL2     0.900000E-01   1.00800           0
     41848 MEMB     24       PPPE     C38      CTL2    -0.180000       12.0110           0
     41849 MEMB     24       PPPE     H8X      HAL2     0.900000E-01   1.00800           0
     41850 MEMB     24       PPPE     H8Y      HAL2     0.900000E-01   1.00800           0
     41851 MEMB     24       PPPE     C39      CTL2    -0.180000       12.0110           0
     41852 MEMB     24       PPPE     H9X      HAL2     0.900000E-01   1.00800           0
     41853 MEMB     24       PPPE     H9Y      HAL2     0.900000E-01   1.00800           0
     41854 MEMB     24       PPPE     C310     CTL2    -0.180000       12.0110           0
     41855 MEMB     24       PPPE     H10X     HAL2     0.900000E-01   1.00800           0
     41856 MEMB     24       PPPE     H10Y     HAL2     0.900000E-01   1.00800           0
     41857 MEMB     24       PPPE     C311     CTL2    -0.180000       12.0110           0
     41858 MEMB     24       PPPE     H11X     HAL2     0.900000E-01   1.00800           0
     41859 MEMB     24       PPPE     H11Y     HAL2     0.900000E-01   1.00800           0
     41860 MEMB     24       PPPE     C312     CTL2    -0.180000       12.0110           0
     41861 MEMB     24       PPPE     H12X     HAL2     0.900000E-01   1.00800           0
     41862 MEMB     24       PPPE     H12Y     HAL2     0.900000E-01   1.00800           0
     41863 MEMB     24       PPPE     C313     CTL2    -0.180000       12.0110           0
     41864 MEMB     24       PPPE     H13X     HAL2     0.900000E-01   1.00800           0
     41865 MEMB     24       PPPE     H13Y     HAL2     0.900000E-01   1.00800           0
     41866 MEMB     24       PPPE     C314     CTL2    -0.180000       12.0110           0
     41867 MEMB     24       PPPE     H14X     HAL2     0.900000E-01   1.00800           0
     41868 MEMB     24       PPPE     H14Y     HAL2     0.900000E-01   1.00800           0
     41869 MEMB     24       PPPE     C315     CTL2    -0.180000       12.0110           0
     41870 MEMB     24       PPPE     H15X     HAL2     0.900000E-01   1.00800           0
     41871 MEMB     24       PPPE     H15Y     HAL2     0.900000E-01   1.00800           0
     41872 MEMB     24       PPPE     C316     CTL3    -0.270000       12.0110           0
     41873 MEMB     24       PPPE     H16X     HAL3     0.900000E-01   1.00800           0
     41874 MEMB     24       PPPE     H16Y     HAL3     0.900000E-01   1.00800           0
     41875 MEMB     24       PPPE     H16Z     HAL3     0.900000E-01   1.00800           0
     41876 MEMB     25       PPPE     N        NH3L    -0.300000       14.0070           0
     41877 MEMB     25       PPPE     HN1      HCL      0.330000       1.00800           0
     41878 MEMB     25       PPPE     HN2      HCL      0.330000       1.00800           0
     41879 MEMB     25       PPPE     HN3      HCL      0.330000       1.00800           0
     41880 MEMB     25       PPPE     C12      CTL2     0.130000       12.0110           0
     41881 MEMB     25       PPPE     H12A     HAL2     0.900000E-01   1.00800           0
     41882 MEMB     25       PPPE     H12B     HAL2     0.900000E-01   1.00800           0
     41883 MEMB     25       PPPE     C11      CTL2    -0.800000E-01   12.0110           0
     41884 MEMB     25       PPPE     H11A     HAL2     0.900000E-01   1.00800           0
     41885 MEMB     25       PPPE     H11B     HAL2     0.900000E-01   1.00800           0
     41886 MEMB     25       PPPE     P        PL        1.50000       30.9740           0
     41887 MEMB     25       PPPE     O13      O2L     -0.780000       15.9994           0
     41888 MEMB     25       PPPE     O14      O2L     -0.780000       15.9994           0
     41889 MEMB     25       PPPE     O11      OSLP    -0.570000       15.9994           0
     41890 MEMB     25       PPPE     O12      OSLP    -0.570000       15.9994           0
     41891 MEMB     25       PPPE     C1       CTL2    -0.800000E-01   12.0110           0
     41892 MEMB     25       PPPE     HA       HAL2     0.900000E-01   1.00800           0
     41893 MEMB     25       PPPE     HB       HAL2     0.900000E-01   1.00800           0
     41894 MEMB     25       PPPE     C2       CTL1     0.170000       12.0110           0
     41895 MEMB     25       PPPE     HS       HAL1     0.900000E-01   1.00800           0
     41896 MEMB     25       PPPE     O21      OSL     -0.490000       15.9994           0
     41897 MEMB     25       PPPE     C21      CL       0.900000       12.0110           0
     41898 MEMB     25       PPPE     O22      OBL     -0.630000       15.9994           0
     41899 MEMB     25       PPPE     C22      CTL2    -0.220000       12.0110           0
     41900 MEMB     25       PPPE     H2R      HAL2     0.900000E-01   1.00800           0
     41901 MEMB     25       PPPE     H2S      HAL2     0.900000E-01   1.00800           0
     41902 MEMB     25       PPPE     C3       CTL2     0.800000E-01   12.0110           0
     41903 MEMB     25       PPPE     HX       HAL2     0.900000E-01   1.00800           0
     41904 MEMB     25       PPPE     HY       HAL2     0.900000E-01   1.00800           0
     41905 MEMB     25       PPPE     O31      OSL     -0.490000       15.9994           0
     41906 MEMB     25       PPPE     C31      CL       0.900000       12.0110           0
     41907 MEMB     25       PPPE     O32      OBL     -0.630000       15.9994           0
     41908 MEMB     25       PPPE     C32      CTL2    -0.220000       12.0110           0
     41909 MEMB     25       PPPE     H2X      HAL2     0.900000E-01   1.00800           0
     41910 MEMB     25       PPPE     H2Y      HAL2     0.900000E-01   1.00800           0
     41911 MEMB     25       PPPE     C23      CTL2    -0.180000       12.0110           0
     41912 MEMB     25       PPPE     H3R      HAL2     0.900000E-01   1.00800           0
     41913 MEMB     25       PPPE     H3S      HAL2     0.900000E-01   1.00800           0
     41914 MEMB     25       PPPE     C24      CTL2    -0.180000       12.0110           0
     41915 MEMB     25       PPPE     H4R      HAL2     0.900000E-01   1.00800           0
     41916 MEMB     25       PPPE     H4S      HAL2     0.900000E-01   1.00800           0
     41917 MEMB     25       PPPE     C25      CTL2    -0.180000       12.0110           0
     41918 MEMB     25       PPPE     H5R      HAL2     0.900000E-01   1.00800           0
     41919 MEMB     25       PPPE     H5S      HAL2     0.900000E-01   1.00800           0
     41920 MEMB     25       PPPE     C26      CTL2    -0.180000       12.0110           0
     41921 MEMB     25       PPPE     H6R      HAL2     0.900000E-01   1.00800           0
     41922 MEMB     25       PPPE     H6S      HAL2     0.900000E-01   1.00800           0
     41923 MEMB     25       PPPE     C27      CTL2    -0.180000       12.0110           0
     41924 MEMB     25       PPPE     H7R      HAL2     0.900000E-01   1.00800           0
     41925 MEMB     25       PPPE     H7S      HAL2     0.900000E-01   1.00800           0
     41926 MEMB     25       PPPE     C28      CTL2    -0.180000       12.0110           0
     41927 MEMB     25       PPPE     H8R      HAL2     0.900000E-01   1.00800           0
     41928 MEMB     25       PPPE     H8S      HAL2     0.900000E-01   1.00800           0
     41929 MEMB     25       PPPE     C29      CEL1    -0.150000       12.0110           0
     41930 MEMB     25       PPPE     H91      HEL1     0.150000       1.00800           0
     41931 MEMB     25       PPPE     C210     CEL1    -0.150000       12.0110           0
     41932 MEMB     25       PPPE     H101     HEL1     0.150000       1.00800           0
     41933 MEMB     25       PPPE     C211     CTL2    -0.180000       12.0110           0
     41934 MEMB     25       PPPE     H11R     HAL2     0.900000E-01   1.00800           0
     41935 MEMB     25       PPPE     H11S     HAL2     0.900000E-01   1.00800           0
     41936 MEMB     25       PPPE     C212     CTL2    -0.180000       12.0110           0
     41937 MEMB     25       PPPE     H12R     HAL2     0.900000E-01   1.00800           0
     41938 MEMB     25       PPPE     H12S     HAL2     0.900000E-01   1.00800           0
     41939 MEMB     25       PPPE     C213     CTL2    -0.180000       12.0110           0
     41940 MEMB     25       PPPE     H13R     HAL2     0.900000E-01   1.00800           0
     41941 MEMB     25       PPPE     H13S     HAL2     0.900000E-01   1.00800           0
     41942 MEMB     25       PPPE     C214     CTL2    -0.180000       12.0110           0
     41943 MEMB     25       PPPE     H14R     HAL2     0.900000E-01   1.00800           0
     41944 MEMB     25       PPPE     H14S     HAL2     0.900000E-01   1.00800           0
     41945 MEMB     25       PPPE     C215     CTL2    -0.180000       12.0110           0
     41946 MEMB     25       PPPE     H15R     HAL2     0.900000E-01   1.00800           0
     41947 MEMB     25       PPPE     H15S     HAL2     0.900000E-01   1.00800           0
     41948 MEMB     25       PPPE     C216     CTL3    -0.270000       12.0110           0
     41949 MEMB     25       PPPE     H16R     HAL3     0.900000E-01   1.00800           0
     41950 MEMB     25       PPPE     H16S     HAL3     0.900000E-01   1.00800           0
     41951 MEMB     25       PPPE     H16T     HAL3     0.900000E-01   1.00800           0
     41952 MEMB     25       PPPE     C33      CTL2    -0.180000       12.0110           0
     41953 MEMB     25       PPPE     H3X      HAL2     0.900000E-01   1.00800           0
     41954 MEMB     25       PPPE     H3Y      HAL2     0.900000E-01   1.00800           0
     41955 MEMB     25       PPPE     C34      CTL2    -0.180000       12.0110           0
     41956 MEMB     25       PPPE     H4X      HAL2     0.900000E-01   1.00800           0
     41957 MEMB     25       PPPE     H4Y      HAL2     0.900000E-01   1.00800           0
     41958 MEMB     25       PPPE     C35      CTL2    -0.180000       12.0110           0
     41959 MEMB     25       PPPE     H5X      HAL2     0.900000E-01   1.00800           0
     41960 MEMB     25       PPPE     H5Y      HAL2     0.900000E-01   1.00800           0
     41961 MEMB     25       PPPE     C36      CTL2    -0.180000       12.0110           0
     41962 MEMB     25       PPPE     H6X      HAL2     0.900000E-01   1.00800           0
     41963 MEMB     25       PPPE     H6Y      HAL2     0.900000E-01   1.00800           0
     41964 MEMB     25       PPPE     C37      CTL2    -0.180000       12.0110           0
     41965 MEMB     25       PPPE     H7X      HAL2     0.900000E-01   1.00800           0
     41966 MEMB     25       PPPE     H7Y      HAL2     0.900000E-01   1.00800           0
     41967 MEMB     25       PPPE     C38      CTL2    -0.180000       12.0110           0
     41968 MEMB     25       PPPE     H8X      HAL2     0.900000E-01   1.00800           0
     41969 MEMB     25       PPPE     H8Y      HAL2     0.900000E-01   1.00800           0
     41970 MEMB     25       PPPE     C39      CTL2    -0.180000       12.0110           0
     41971 MEMB     25       PPPE     H9X      HAL2     0.900000E-01   1.00800           0
     41972 MEMB     25       PPPE     H9Y      HAL2     0.900000E-01   1.00800           0
     41973 MEMB     25       PPPE     C310     CTL2    -0.180000       12.0110           0
     41974 MEMB     25       PPPE     H10X     HAL2     0.900000E-01   1.00800           0
     41975 MEMB     25       PPPE     H10Y     HAL2     0.900000E-01   1.00800           0
     41976 MEMB     25       PPPE     C311     CTL2    -0.180000       12.0110           0
     41977 MEMB     25       PPPE     H11X     HAL2     0.900000E-01   1.00800           0
     41978 MEMB     25       PPPE     H11Y     HAL2     0.900000E-01   1.00800           0
     41979 MEMB     25       PPPE     C312     CTL2    -0.180000       12.0110           0
     41980 MEMB     25       PPPE     H12X     HAL2     0.900000E-01   1.00800           0
     41981 MEMB     25       PPPE     H12Y     HAL2     0.900000E-01   1.00800           0
     41982 MEMB     25       PPPE     C313     CTL2    -0.180000       12.0110           0
     41983 MEMB     25       PPPE     H13X     HAL2     0.900000E-01   1.00800           0
     41984 MEMB     25       PPPE     H13Y     HAL2     0.900000E-01   1.00800           0
     41985 MEMB     25       PPPE     C314     CTL2    -0.180000       12.0110           0
     41986 MEMB     25       PPPE     H14X     HAL2     0.900000E-01   1.00800           0
     41987 MEMB     25       PPPE     H14Y     HAL2     0.900000E-01   1.00800           0
     41988 MEMB     25       PPPE     C315     CTL2    -0.180000       12.0110           0
     41989 MEMB     25       PPPE     H15X     HAL2     0.900000E-01   1.00800           0
     41990 MEMB     25       PPPE     H15Y     HAL2     0.900000E-01   1.00800           0
     41991 MEMB     25       PPPE     C316     CTL3    -0.270000       12.0110           0
     41992 MEMB     25       PPPE     H16X     HAL3     0.900000E-01   1.00800           0
     41993 MEMB     25       PPPE     H16Y     HAL3     0.900000E-01   1.00800           0
     41994 MEMB     25       PPPE     H16Z     HAL3     0.900000E-01   1.00800           0
     41995 MEMB     26       PPPE     N        NH3L    -0.300000       14.0070           0
     41996 MEMB     26       PPPE     HN1      HCL      0.330000       1.00800           0
     41997 MEMB     26       PPPE     HN2      HCL      0.330000       1.00800           0
     41998 MEMB     26       PPPE     HN3      HCL      0.330000       1.00800           0
     41999 MEMB     26       PPPE     C12      CTL2     0.130000       12.0110           0
     42000 MEMB     26       PPPE     H12A     HAL2     0.900000E-01   1.00800           0
     42001 MEMB     26       PPPE     H12B     HAL2     0.900000E-01   1.00800           0
     42002 MEMB     26       PPPE     C11      CTL2    -0.800000E-01   12.0110           0
     42003 MEMB     26       PPPE     H11A     HAL2     0.900000E-01   1.00800           0
     42004 MEMB     26       PPPE     H11B     HAL2     0.900000E-01   1.00800           0
     42005 MEMB     26       PPPE     P        PL        1.50000       30.9740           0
     42006 MEMB     26       PPPE     O13      O2L     -0.780000       15.9994           0
     42007 MEMB     26       PPPE     O14      O2L     -0.780000       15.9994           0
     42008 MEMB     26       PPPE     O11      OSLP    -0.570000       15.9994           0
     42009 MEMB     26       PPPE     O12      OSLP    -0.570000       15.9994           0
     42010 MEMB     26       PPPE     C1       CTL2    -0.800000E-01   12.0110           0
     42011 MEMB     26       PPPE     HA       HAL2     0.900000E-01   1.00800           0
     42012 MEMB     26       PPPE     HB       HAL2     0.900000E-01   1.00800           0
     42013 MEMB     26       PPPE     C2       CTL1     0.170000       12.0110           0
     42014 MEMB     26       PPPE     HS       HAL1     0.900000E-01   1.00800           0
     42015 MEMB     26       PPPE     O21      OSL     -0.490000       15.9994           0
     42016 MEMB     26       PPPE     C21      CL       0.900000       12.0110           0
     42017 MEMB     26       PPPE     O22      OBL     -0.630000       15.9994           0
     42018 MEMB     26       PPPE     C22      CTL2    -0.220000       12.0110           0
     42019 MEMB     26       PPPE     H2R      HAL2     0.900000E-01   1.00800           0
     42020 MEMB     26       PPPE     H2S      HAL2     0.900000E-01   1.00800           0
     42021 MEMB     26       PPPE     C3       CTL2     0.800000E-01   12.0110           0
     42022 MEMB     26       PPPE     HX       HAL2     0.900000E-01   1.00800           0
     42023 MEMB     26       PPPE     HY       HAL2     0.900000E-01   1.00800           0
     42024 MEMB     26       PPPE     O31      OSL     -0.490000       15.9994           0
     42025 MEMB     26       PPPE     C31      CL       0.900000       12.0110           0
     42026 MEMB     26       PPPE     O32      OBL     -0.630000       15.9994           0
     42027 MEMB     26       PPPE     C32      CTL2    -0.220000       12.0110           0
     42028 MEMB     26       PPPE     H2X      HAL2     0.900000E-01   1.00800           0
     42029 MEMB     26       PPPE     H2Y      HAL2     0.900000E-01   1.00800           0
     42030 MEMB     26       PPPE     C23      CTL2    -0.180000       12.0110           0
     42031 MEMB     26       PPPE     H3R      HAL2     0.900000E-01   1.00800           0
     42032 MEMB     26       PPPE     H3S      HAL2     0.900000E-01   1.00800           0
     42033 MEMB     26       PPPE     C24      CTL2    -0.180000       12.0110           0
     42034 MEMB     26       PPPE     H4R      HAL2     0.900000E-01   1.00800           0
     42035 MEMB     26       PPPE     H4S      HAL2     0.900000E-01   1.00800           0
     42036 MEMB     26       PPPE     C25      CTL2    -0.180000       12.0110           0
     42037 MEMB     26       PPPE     H5R      HAL2     0.900000E-01   1.00800           0
     42038 MEMB     26       PPPE     H5S      HAL2     0.900000E-01   1.00800           0
     42039 MEMB     26       PPPE     C26      CTL2    -0.180000       12.0110           0
     42040 MEMB     26       PPPE     H6R      HAL2     0.900000E-01   1.00800           0
     42041 MEMB     26       PPPE     H6S      HAL2     0.900000E-01   1.00800           0
     42042 MEMB     26       PPPE     C27      CTL2    -0.180000       12.0110           0
     42043 MEMB     26       PPPE     H7R      HAL2     0.900000E-01   1.00800           0
     42044 MEMB     26       PPPE     H7S      HAL2     0.900000E-01   1.00800           0
     42045 MEMB     26       PPPE     C28      CTL2    -0.180000       12.0110           0
     42046 MEMB     26       PPPE     H8R      HAL2     0.900000E-01   1.00800           0
     42047 MEMB     26       PPPE     H8S      HAL2     0.900000E-01   1.00800           0
     42048 MEMB     26       PPPE     C29      CEL1    -0.150000       12.0110           0
     42049 MEMB     26       PPPE     H91      HEL1     0.150000       1.00800           0
     42050 MEMB     26       PPPE     C210     CEL1    -0.150000       12.0110           0
     42051 MEMB     26       PPPE     H101     HEL1     0.150000       1.00800           0
     42052 MEMB     26       PPPE     C211     CTL2    -0.180000       12.0110           0
     42053 MEMB     26       PPPE     H11R     HAL2     0.900000E-01   1.00800           0
     42054 MEMB     26       PPPE     H11S     HAL2     0.900000E-01   1.00800           0
     42055 MEMB     26       PPPE     C212     CTL2    -0.180000       12.0110           0
     42056 MEMB     26       PPPE     H12R     HAL2     0.900000E-01   1.00800           0
     42057 MEMB     26       PPPE     H12S     HAL2     0.900000E-01   1.00800           0
     42058 MEMB     26       PPPE     C213     CTL2    -0.180000       12.0110           0
     42059 MEMB     26       PPPE     H13R     HAL2     0.900000E-01   1.00800           0
     42060 MEMB     26       PPPE     H13S     HAL2     0.900000E-01   1.00800           0
     42061 MEMB     26       PPPE     C214     CTL2    -0.180000       12.0110           0
     42062 MEMB     26       PPPE     H14R     HAL2     0.900000E-01   1.00800           0
     42063 MEMB     26       PPPE     H14S     HAL2     0.900000E-01   1.00800           0
     42064 MEMB     26       PPPE     C215     CTL2    -0.180000       12.0110           0
     42065 MEMB     26       PPPE     H15R     HAL2     0.900000E-01   1.00800           0
     42066 MEMB     26       PPPE     H15S     HAL2     0.900000E-01   1.00800           0
     42067 MEMB     26       PPPE     C216     CTL3    -0.270000       12.0110           0
     42068 MEMB     26       PPPE     H16R     HAL3     0.900000E-01   1.00800           0
     42069 MEMB     26       PPPE     H16S     HAL3     0.900000E-01   1.00800           0
     42070 MEMB     26       PPPE     H16T     HAL3     0.900000E-01   1.00800           0
     42071 MEMB     26       PPPE     C33      CTL2    -0.180000       12.0110           0
     42072 MEMB     26       PPPE     H3X      HAL2     0.900000E-01   1.00800           0
     42073 MEMB     26       PPPE     H3Y      HAL2     0.900000E-01   1.00800           0
     42074 MEMB     26       PPPE     C34      CTL2    -0.180000       12.0110           0
     42075 MEMB     26       PPPE     H4X      HAL2     0.900000E-01   1.00800           0
     42076 MEMB     26       PPPE     H4Y      HAL2     0.900000E-01   1.00800           0
     42077 MEMB     26       PPPE     C35      CTL2    -0.180000       12.0110           0
     42078 MEMB     26       PPPE     H5X      HAL2     0.900000E-01   1.00800           0
     42079 MEMB     26       PPPE     H5Y      HAL2     0.900000E-01   1.00800           0
     42080 MEMB     26       PPPE     C36      CTL2    -0.180000       12.0110           0
     42081 MEMB     26       PPPE     H6X      HAL2     0.900000E-01   1.00800           0
     42082 MEMB     26       PPPE     H6Y      HAL2     0.900000E-01   1.00800           0
     42083 MEMB     26       PPPE     C37      CTL2    -0.180000       12.0110           0
     42084 MEMB     26       PPPE     H7X      HAL2     0.900000E-01   1.00800           0
     42085 MEMB     26       PPPE     H7Y      HAL2     0.900000E-01   1.00800           0
     42086 MEMB     26       PPPE     C38      CTL2    -0.180000       12.0110           0
     42087 MEMB     26       PPPE     H8X      HAL2     0.900000E-01   1.00800           0
     42088 MEMB     26       PPPE     H8Y      HAL2     0.900000E-01   1.00800           0
     42089 MEMB     26       PPPE     C39      CTL2    -0.180000       12.0110           0
     42090 MEMB     26       PPPE     H9X      HAL2     0.900000E-01   1.00800           0
     42091 MEMB     26       PPPE     H9Y      HAL2     0.900000E-01   1.00800           0
     42092 MEMB     26       PPPE     C310     CTL2    -0.180000       12.0110           0
     42093 MEMB     26       PPPE     H10X     HAL2     0.900000E-01   1.00800           0
     42094 MEMB     26       PPPE     H10Y     HAL2     0.900000E-01   1.00800           0
     42095 MEMB     26       PPPE     C311     CTL2    -0.180000       12.0110           0
     42096 MEMB     26       PPPE     H11X     HAL2     0.900000E-01   1.00800           0
     42097 MEMB     26       PPPE     H11Y     HAL2     0.900000E-01   1.00800           0
     42098 MEMB     26       PPPE     C312     CTL2    -0.180000       12.0110           0
     42099 MEMB     26       PPPE     H12X     HAL2     0.900000E-01   1.00800           0
     42100 MEMB     26       PPPE     H12Y     HAL2     0.900000E-01   1.00800           0
     42101 MEMB     26       PPPE     C313     CTL2    -0.180000       12.0110           0
     42102 MEMB     26       PPPE     H13X     HAL2     0.900000E-01   1.00800           0
     42103 MEMB     26       PPPE     H13Y     HAL2     0.900000E-01   1.00800           0
     42104 MEMB     26       PPPE     C314     CTL2    -0.180000       12.0110           0
     42105 MEMB     26       PPPE     H14X     HAL2     0.900000E-01   1.00800           0
     42106 MEMB     26       PPPE     H14Y     HAL2     0.900000E-01   1.00800           0
     42107 MEMB     26       PPPE     C315     CTL2    -0.180000       12.0110           0
     42108 MEMB     26       PPPE     H15X     HAL2     0.900000E-01   1.00800           0
     42109 MEMB     26       PPPE     H15Y     HAL2     0.900000E-01   1.00800           0
     42110 MEMB     26       PPPE     C316     CTL3    -0.270000       12.0110           0
     42111 MEMB     26       PPPE     H16X     HAL3     0.900000E-01   1.00800           0
     42112 MEMB     26       PPPE     H16Y     HAL3     0.900000E-01   1.00800           0
     42113 MEMB     26       PPPE     H16Z     HAL3     0.900000E-01   1.00800           0
     42114 MEMB     27       PPPE     N        NH3L    -0.300000       14.0070           0
     42115 MEMB     27       PPPE     HN1      HCL      0.330000       1.00800           0
     42116 MEMB     27       PPPE     HN2      HCL      0.330000       1.00800           0
     42117 MEMB     27       PPPE     HN3      HCL      0.330000       1.00800           0
     42118 MEMB     27       PPPE     C12      CTL2     0.130000       12.0110           0
     42119 MEMB     27       PPPE     H12A     HAL2     0.900000E-01   1.00800           0
     42120 MEMB     27       PPPE     H12B     HAL2     0.900000E-01   1.00800           0
     42121 MEMB     27       PPPE     C11      CTL2    -0.800000E-01   12.0110           0
     42122 MEMB     27       PPPE     H11A     HAL2     0.900000E-01   1.00800           0
     42123 MEMB     27       PPPE     H11B     HAL2     0.900000E-01   1.00800           0
     42124 MEMB     27       PPPE     P        PL        1.50000       30.9740           0
     42125 MEMB     27       PPPE     O13      O2L     -0.780000       15.9994           0
     42126 MEMB     27       PPPE     O14      O2L     -0.780000       15.9994           0
     42127 MEMB     27       PPPE     O11      OSLP    -0.570000       15.9994           0
     42128 MEMB     27       PPPE     O12      OSLP    -0.570000       15.9994           0
     42129 MEMB     27       PPPE     C1       CTL2    -0.800000E-01   12.0110           0
     42130 MEMB     27       PPPE     HA       HAL2     0.900000E-01   1.00800           0
     42131 MEMB     27       PPPE     HB       HAL2     0.900000E-01   1.00800           0
     42132 MEMB     27       PPPE     C2       CTL1     0.170000       12.0110           0
     42133 MEMB     27       PPPE     HS       HAL1     0.900000E-01   1.00800           0
     42134 MEMB     27       PPPE     O21      OSL     -0.490000       15.9994           0
     42135 MEMB     27       PPPE     C21      CL       0.900000       12.0110           0
     42136 MEMB     27       PPPE     O22      OBL     -0.630000       15.9994           0
     42137 MEMB     27       PPPE     C22      CTL2    -0.220000       12.0110           0
     42138 MEMB     27       PPPE     H2R      HAL2     0.900000E-01   1.00800           0
     42139 MEMB     27       PPPE     H2S      HAL2     0.900000E-01   1.00800           0
     42140 MEMB     27       PPPE     C3       CTL2     0.800000E-01   12.0110           0
     42141 MEMB     27       PPPE     HX       HAL2     0.900000E-01   1.00800           0
     42142 MEMB     27       PPPE     HY       HAL2     0.900000E-01   1.00800           0
     42143 MEMB     27       PPPE     O31      OSL     -0.490000       15.9994           0
     42144 MEMB     27       PPPE     C31      CL       0.900000       12.0110           0
     42145 MEMB     27       PPPE     O32      OBL     -0.630000       15.9994           0
     42146 MEMB     27       PPPE     C32      CTL2    -0.220000       12.0110           0
     42147 MEMB     27       PPPE     H2X      HAL2     0.900000E-01   1.00800           0
     42148 MEMB     27       PPPE     H2Y      HAL2     0.900000E-01   1.00800           0
     42149 MEMB     27       PPPE     C23      CTL2    -0.180000       12.0110           0
     42150 MEMB     27       PPPE     H3R      HAL2     0.900000E-01   1.00800           0
     42151 MEMB     27       PPPE     H3S      HAL2     0.900000E-01   1.00800           0
     42152 MEMB     27       PPPE     C24      CTL2    -0.180000       12.0110           0
     42153 MEMB     27       PPPE     H4R      HAL2     0.900000E-01   1.00800           0
     42154 MEMB     27       PPPE     H4S      HAL2     0.900000E-01   1.00800           0
     42155 MEMB     27       PPPE     C25      CTL2    -0.180000       12.0110           0
     42156 MEMB     27       PPPE     H5R      HAL2     0.900000E-01   1.00800           0
     42157 MEMB     27       PPPE     H5S      HAL2     0.900000E-01   1.00800           0
     42158 MEMB     27       PPPE     C26      CTL2    -0.180000       12.0110           0
     42159 MEMB     27       PPPE     H6R      HAL2     0.900000E-01   1.00800           0
     42160 MEMB     27       PPPE     H6S      HAL2     0.900000E-01   1.00800           0
     42161 MEMB     27       PPPE     C27      CTL2    -0.180000       12.0110           0
     42162 MEMB     27       PPPE     H7R      HAL2     0.900000E-01   1.00800           0
     42163 MEMB     27       PPPE     H7S      HAL2     0.900000E-01   1.00800           0
     42164 MEMB     27       PPPE     C28      CTL2    -0.180000       12.0110           0
     42165 MEMB     27       PPPE     H8R      HAL2     0.900000E-01   1.00800           0
     42166 MEMB     27       PPPE     H8S      HAL2     0.900000E-01   1.00800           0
     42167 MEMB     27       PPPE     C29      CEL1    -0.150000       12.0110           0
     42168 MEMB     27       PPPE     H91      HEL1     0.150000       1.00800           0
     42169 MEMB     27       PPPE     C210     CEL1    -0.150000       12.0110           0
     42170 MEMB     27       PPPE     H101     HEL1     0.150000       1.00800           0
     42171 MEMB     27       PPPE     C211     CTL2    -0.180000       12.0110           0
     42172 MEMB     27       PPPE     H11R     HAL2     0.900000E-01   1.00800           0
     42173 MEMB     27       PPPE     H11S     HAL2     0.900000E-01   1.00800           0
     42174 MEMB     27       PPPE     C212     CTL2    -0.180000       12.0110           0
     42175 MEMB     27       PPPE     H12R     HAL2     0.900000E-01   1.00800           0
     42176 MEMB     27       PPPE     H12S     HAL2     0.900000E-01   1.00800           0
     42177 MEMB     27       PPPE     C213     CTL2    -0.180000       12.0110           0
     42178 MEMB     27       PPPE     H13R     HAL2     0.900000E-01   1.00800           0
     42179 MEMB     27       PPPE     H13S     HAL2     0.900000E-01   1.00800           0
     42180 MEMB     27       PPPE     C214     CTL2    -0.180000       12.0110           0
     42181 MEMB     27       PPPE     H14R     HAL2     0.900000E-01   1.00800           0
     42182 MEMB     27       PPPE     H14S     HAL2     0.900000E-01   1.00800           0
     42183 MEMB     27       PPPE     C215     CTL2    -0.180000       12.0110           0
     42184 MEMB     27       PPPE     H15R     HAL2     0.900000E-01   1.00800           0
     42185 MEMB     27       PPPE     H15S     HAL2     0.900000E-01   1.00800           0
     42186 MEMB     27       PPPE     C216     CTL3    -0.270000       12.0110           0
     42187 MEMB     27       PPPE     H16R     HAL3     0.900000E-01   1.00800           0
     42188 MEMB     27       PPPE     H16S     HAL3     0.900000E-01   1.00800           0
     42189 MEMB     27       PPPE     H16T     HAL3     0.900000E-01   1.00800           0
     42190 MEMB     27       PPPE     C33      CTL2    -0.180000       12.0110           0
     42191 MEMB     27       PPPE     H3X      HAL2     0.900000E-01   1.00800           0
     42192 MEMB     27       PPPE     H3Y      HAL2     0.900000E-01   1.00800           0
     42193 MEMB     27       PPPE     C34      CTL2    -0.180000       12.0110           0
     42194 MEMB     27       PPPE     H4X      HAL2     0.900000E-01   1.00800           0
     42195 MEMB     27       PPPE     H4Y      HAL2     0.900000E-01   1.00800           0
     42196 MEMB     27       PPPE     C35      CTL2    -0.180000       12.0110           0
     42197 MEMB     27       PPPE     H5X      HAL2     0.900000E-01   1.00800           0
     42198 MEMB     27       PPPE     H5Y      HAL2     0.900000E-01   1.00800           0
     42199 MEMB     27       PPPE     C36      CTL2    -0.180000       12.0110           0
     42200 MEMB     27       PPPE     H6X      HAL2     0.900000E-01   1.00800           0
     42201 MEMB     27       PPPE     H6Y      HAL2     0.900000E-01   1.00800           0
     42202 MEMB     27       PPPE     C37      CTL2    -0.180000       12.0110           0
     42203 MEMB     27       PPPE     H7X      HAL2     0.900000E-01   1.00800           0
     42204 MEMB     27       PPPE     H7Y      HAL2     0.900000E-01   1.00800           0
     42205 MEMB     27       PPPE     C38      CTL2    -0.180000       12.0110           0
     42206 MEMB     27       PPPE     H8X      HAL2     0.900000E-01   1.00800           0
     42207 MEMB     27       PPPE     H8Y      HAL2     0.900000E-01   1.00800           0
     42208 MEMB     27       PPPE     C39      CTL2    -0.180000       12.0110           0
     42209 MEMB     27       PPPE     H9X      HAL2     0.900000E-01   1.00800           0
     42210 MEMB     27       PPPE     H9Y      HAL2     0.900000E-01   1.00800           0
     42211 MEMB     27       PPPE     C310     CTL2    -0.180000       12.0110           0
     42212 MEMB     27       PPPE     H10X     HAL2     0.900000E-01   1.00800           0
     42213 MEMB     27       PPPE     H10Y     HAL2     0.900000E-01   1.00800           0
     42214 MEMB     27       PPPE     C311     CTL2    -0.180000       12.0110           0
     42215 MEMB     27       PPPE     H11X     HAL2     0.900000E-01   1.00800           0
     42216 MEMB     27       PPPE     H11Y     HAL2     0.900000E-01   1.00800           0
     42217 MEMB     27       PPPE     C312     CTL2    -0.180000       12.0110           0
     42218 MEMB     27       PPPE     H12X     HAL2     0.900000E-01   1.00800           0
     42219 MEMB     27       PPPE     H12Y     HAL2     0.900000E-01   1.00800           0
     42220 MEMB     27       PPPE     C313     CTL2    -0.180000       12.0110           0
     42221 MEMB     27       PPPE     H13X     HAL2     0.900000E-01   1.00800           0
     42222 MEMB     27       PPPE     H13Y     HAL2     0.900000E-01   1.00800           0
     42223 MEMB     27       PPPE     C314     CTL2    -0.180000       12.0110           0
     42224 MEMB     27       PPPE     H14X     HAL2     0.900000E-01   1.00800           0
     42225 MEMB     27       PPPE     H14Y     HAL2     0.900000E-01   1.00800           0
     42226 MEMB     27       PPPE     C315     CTL2    -0.180000       12.0110           0
     42227 MEMB     27       PPPE     H15X     HAL2     0.900000E-01   1.00800           0
     42228 MEMB     27       PPPE     H15Y     HAL2     0.900000E-01   1.00800           0
     42229 MEMB     27       PPPE     C316     CTL3    -0.270000       12.0110           0
     42230 MEMB     27       PPPE     H16X     HAL3     0.900000E-01   1.00800           0
     42231 MEMB     27       PPPE     H16Y     HAL3     0.900000E-01   1.00800           0
     42232 MEMB     27       PPPE     H16Z     HAL3     0.900000E-01   1.00800           0
     42233 MEMB     28       PPPE     N        NH3L    -0.300000       14.0070           0
     42234 MEMB     28       PPPE     HN1      HCL      0.330000       1.00800           0
     42235 MEMB     28       PPPE     HN2      HCL      0.330000       1.00800           0
     42236 MEMB     28       PPPE     HN3      HCL      0.330000       1.00800           0
     42237 MEMB     28       PPPE     C12      CTL2     0.130000       12.0110           0
     42238 MEMB     28       PPPE     H12A     HAL2     0.900000E-01   1.00800           0
     42239 MEMB     28       PPPE     H12B     HAL2     0.900000E-01   1.00800           0
     42240 MEMB     28       PPPE     C11      CTL2    -0.800000E-01   12.0110           0
     42241 MEMB     28       PPPE     H11A     HAL2     0.900000E-01   1.00800           0
     42242 MEMB     28       PPPE     H11B     HAL2     0.900000E-01   1.00800           0
     42243 MEMB     28       PPPE     P        PL        1.50000       30.9740           0
     42244 MEMB     28       PPPE     O13      O2L     -0.780000       15.9994           0
     42245 MEMB     28       PPPE     O14      O2L     -0.780000       15.9994           0
     42246 MEMB     28       PPPE     O11      OSLP    -0.570000       15.9994           0
     42247 MEMB     28       PPPE     O12      OSLP    -0.570000       15.9994           0
     42248 MEMB     28       PPPE     C1       CTL2    -0.800000E-01   12.0110           0
     42249 MEMB     28       PPPE     HA       HAL2     0.900000E-01   1.00800           0
     42250 MEMB     28       PPPE     HB       HAL2     0.900000E-01   1.00800           0
     42251 MEMB     28       PPPE     C2       CTL1     0.170000       12.0110           0
     42252 MEMB     28       PPPE     HS       HAL1     0.900000E-01   1.00800           0
     42253 MEMB     28       PPPE     O21      OSL     -0.490000       15.9994           0
     42254 MEMB     28       PPPE     C21      CL       0.900000       12.0110           0
     42255 MEMB     28       PPPE     O22      OBL     -0.630000       15.9994           0
     42256 MEMB     28       PPPE     C22      CTL2    -0.220000       12.0110           0
     42257 MEMB     28       PPPE     H2R      HAL2     0.900000E-01   1.00800           0
     42258 MEMB     28       PPPE     H2S      HAL2     0.900000E-01   1.00800           0
     42259 MEMB     28       PPPE     C3       CTL2     0.800000E-01   12.0110           0
     42260 MEMB     28       PPPE     HX       HAL2     0.900000E-01   1.00800           0
     42261 MEMB     28       PPPE     HY       HAL2     0.900000E-01   1.00800           0
     42262 MEMB     28       PPPE     O31      OSL     -0.490000       15.9994           0
     42263 MEMB     28       PPPE     C31      CL       0.900000       12.0110           0
     42264 MEMB     28       PPPE     O32      OBL     -0.630000       15.9994           0
     42265 MEMB     28       PPPE     C32      CTL2    -0.220000       12.0110           0
     42266 MEMB     28       PPPE     H2X      HAL2     0.900000E-01   1.00800           0
     42267 MEMB     28       PPPE     H2Y      HAL2     0.900000E-01   1.00800           0
     42268 MEMB     28       PPPE     C23      CTL2    -0.180000       12.0110           0
     42269 MEMB     28       PPPE     H3R      HAL2     0.900000E-01   1.00800           0
     42270 MEMB     28       PPPE     H3S      HAL2     0.900000E-01   1.00800           0
     42271 MEMB     28       PPPE     C24      CTL2    -0.180000       12.0110           0
     42272 MEMB     28       PPPE     H4R      HAL2     0.900000E-01   1.00800           0
     42273 MEMB     28       PPPE     H4S      HAL2     0.900000E-01   1.00800           0
     42274 MEMB     28       PPPE     C25      CTL2    -0.180000       12.0110           0
     42275 MEMB     28       PPPE     H5R      HAL2     0.900000E-01   1.00800           0
     42276 MEMB     28       PPPE     H5S      HAL2     0.900000E-01   1.00800           0
     42277 MEMB     28       PPPE     C26      CTL2    -0.180000       12.0110           0
     42278 MEMB     28       PPPE     H6R      HAL2     0.900000E-01   1.00800           0
     42279 MEMB     28       PPPE     H6S      HAL2     0.900000E-01   1.00800           0
     42280 MEMB     28       PPPE     C27      CTL2    -0.180000       12.0110           0
     42281 MEMB     28       PPPE     H7R      HAL2     0.900000E-01   1.00800           0
     42282 MEMB     28       PPPE     H7S      HAL2     0.900000E-01   1.00800           0
     42283 MEMB     28       PPPE     C28      CTL2    -0.180000       12.0110           0
     42284 MEMB     28       PPPE     H8R      HAL2     0.900000E-01   1.00800           0
     42285 MEMB     28       PPPE     H8S      HAL2     0.900000E-01   1.00800           0
     42286 MEMB     28       PPPE     C29      CEL1    -0.150000       12.0110           0
     42287 MEMB     28       PPPE     H91      HEL1     0.150000       1.00800           0
     42288 MEMB     28       PPPE     C210     CEL1    -0.150000       12.0110           0
     42289 MEMB     28       PPPE     H101     HEL1     0.150000       1.00800           0
     42290 MEMB     28       PPPE     C211     CTL2    -0.180000       12.0110           0
     42291 MEMB     28       PPPE     H11R     HAL2     0.900000E-01   1.00800           0
     42292 MEMB     28       PPPE     H11S     HAL2     0.900000E-01   1.00800           0
     42293 MEMB     28       PPPE     C212     CTL2    -0.180000       12.0110           0
     42294 MEMB     28       PPPE     H12R     HAL2     0.900000E-01   1.00800           0
     42295 MEMB     28       PPPE     H12S     HAL2     0.900000E-01   1.00800           0
     42296 MEMB     28       PPPE     C213     CTL2    -0.180000       12.0110           0
     42297 MEMB     28       PPPE     H13R     HAL2     0.900000E-01   1.00800           0
     42298 MEMB     28       PPPE     H13S     HAL2     0.900000E-01   1.00800           0
     42299 MEMB     28       PPPE     C214     CTL2    -0.180000       12.0110           0
     42300 MEMB     28       PPPE     H14R     HAL2     0.900000E-01   1.00800           0
     42301 MEMB     28       PPPE     H14S     HAL2     0.900000E-01   1.00800           0
     42302 MEMB     28       PPPE     C215     CTL2    -0.180000       12.0110           0
     42303 MEMB     28       PPPE     H15R     HAL2     0.900000E-01   1.00800           0
     42304 MEMB     28       PPPE     H15S     HAL2     0.900000E-01   1.00800           0
     42305 MEMB     28       PPPE     C216     CTL3    -0.270000       12.0110           0
     42306 MEMB     28       PPPE     H16R     HAL3     0.900000E-01   1.00800           0
     42307 MEMB     28       PPPE     H16S     HAL3     0.900000E-01   1.00800           0
     42308 MEMB     28       PPPE     H16T     HAL3     0.900000E-01   1.00800           0
     42309 MEMB     28       PPPE     C33      CTL2    -0.180000       12.0110           0
     42310 MEMB     28       PPPE     H3X      HAL2     0.900000E-01   1.00800           0
     42311 MEMB     28       PPPE     H3Y      HAL2     0.900000E-01   1.00800           0
     42312 MEMB     28       PPPE     C34      CTL2    -0.180000       12.0110           0
     42313 MEMB     28       PPPE     H4X      HAL2     0.900000E-01   1.00800           0
     42314 MEMB     28       PPPE     H4Y      HAL2     0.900000E-01   1.00800           0
     42315 MEMB     28       PPPE     C35      CTL2    -0.180000       12.0110           0
     42316 MEMB     28       PPPE     H5X      HAL2     0.900000E-01   1.00800           0
     42317 MEMB     28       PPPE     H5Y      HAL2     0.900000E-01   1.00800           0
     42318 MEMB     28       PPPE     C36      CTL2    -0.180000       12.0110           0
     42319 MEMB     28       PPPE     H6X      HAL2     0.900000E-01   1.00800           0
     42320 MEMB     28       PPPE     H6Y      HAL2     0.900000E-01   1.00800           0
     42321 MEMB     28       PPPE     C37      CTL2    -0.180000       12.0110           0
     42322 MEMB     28       PPPE     H7X      HAL2     0.900000E-01   1.00800           0
     42323 MEMB     28       PPPE     H7Y      HAL2     0.900000E-01   1.00800           0
     42324 MEMB     28       PPPE     C38      CTL2    -0.180000       12.0110           0
     42325 MEMB     28       PPPE     H8X      HAL2     0.900000E-01   1.00800           0
     42326 MEMB     28       PPPE     H8Y      HAL2     0.900000E-01   1.00800           0
     42327 MEMB     28       PPPE     C39      CTL2    -0.180000       12.0110           0
     42328 MEMB     28       PPPE     H9X      HAL2     0.900000E-01   1.00800           0
     42329 MEMB     28       PPPE     H9Y      HAL2     0.900000E-01   1.00800           0
     42330 MEMB     28       PPPE     C310     CTL2    -0.180000       12.0110           0
     42331 MEMB     28       PPPE     H10X     HAL2     0.900000E-01   1.00800           0
     42332 MEMB     28       PPPE     H10Y     HAL2     0.900000E-01   1.00800           0
     42333 MEMB     28       PPPE     C311     CTL2    -0.180000       12.0110           0
     42334 MEMB     28       PPPE     H11X     HAL2     0.900000E-01   1.00800           0
     42335 MEMB     28       PPPE     H11Y     HAL2     0.900000E-01   1.00800           0
     42336 MEMB     28       PPPE     C312     CTL2    -0.180000       12.0110           0
     42337 MEMB     28       PPPE     H12X     HAL2     0.900000E-01   1.00800           0
     42338 MEMB     28       PPPE     H12Y     HAL2     0.900000E-01   1.00800           0
     42339 MEMB     28       PPPE     C313     CTL2    -0.180000       12.0110           0
     42340 MEMB     28       PPPE     H13X     HAL2     0.900000E-01   1.00800           0
     42341 MEMB     28       PPPE     H13Y     HAL2     0.900000E-01   1.00800           0
     42342 MEMB     28       PPPE     C314     CTL2    -0.180000       12.0110           0
     42343 MEMB     28       PPPE     H14X     HAL2     0.900000E-01   1.00800           0
     42344 MEMB     28       PPPE     H14Y     HAL2     0.900000E-01   1.00800           0
     42345 MEMB     28       PPPE     C315     CTL2    -0.180000       12.0110           0
     42346 MEMB     28       PPPE     H15X     HAL2     0.900000E-01   1.00800           0
     42347 MEMB     28       PPPE     H15Y     HAL2     0.900000E-01   1.00800           0
     42348 MEMB     28       PPPE     C316     CTL3    -0.270000       12.0110           0
     42349 MEMB     28       PPPE     H16X     HAL3     0.900000E-01   1.00800           0
     42350 MEMB     28       PPPE     H16Y     HAL3     0.900000E-01   1.00800           0
     42351 MEMB     28       PPPE     H16Z     HAL3     0.900000E-01   1.00800           0
     42352 MEMB     29       PPPE     N        NH3L    -0.300000       14.0070           0
     42353 MEMB     29       PPPE     HN1      HCL      0.330000       1.00800           0
     42354 MEMB     29       PPPE     HN2      HCL      0.330000       1.00800           0
     42355 MEMB     29       PPPE     HN3      HCL      0.330000       1.00800           0
     42356 MEMB     29       PPPE     C12      CTL2     0.130000       12.0110           0
     42357 MEMB     29       PPPE     H12A     HAL2     0.900000E-01   1.00800           0
     42358 MEMB     29       PPPE     H12B     HAL2     0.900000E-01   1.00800           0
     42359 MEMB     29       PPPE     C11      CTL2    -0.800000E-01   12.0110           0
     42360 MEMB     29       PPPE     H11A     HAL2     0.900000E-01   1.00800           0
     42361 MEMB     29       PPPE     H11B     HAL2     0.900000E-01   1.00800           0
     42362 MEMB     29       PPPE     P        PL        1.50000       30.9740           0
     42363 MEMB     29       PPPE     O13      O2L     -0.780000       15.9994           0
     42364 MEMB     29       PPPE     O14      O2L     -0.780000       15.9994           0
     42365 MEMB     29       PPPE     O11      OSLP    -0.570000       15.9994           0
     42366 MEMB     29       PPPE     O12      OSLP    -0.570000       15.9994           0
     42367 MEMB     29       PPPE     C1       CTL2    -0.800000E-01   12.0110           0
     42368 MEMB     29       PPPE     HA       HAL2     0.900000E-01   1.00800           0
     42369 MEMB     29       PPPE     HB       HAL2     0.900000E-01   1.00800           0
     42370 MEMB     29       PPPE     C2       CTL1     0.170000       12.0110           0
     42371 MEMB     29       PPPE     HS       HAL1     0.900000E-01   1.00800           0
     42372 MEMB     29       PPPE     O21      OSL     -0.490000       15.9994           0
     42373 MEMB     29       PPPE     C21      CL       0.900000       12.0110           0
     42374 MEMB     29       PPPE     O22      OBL     -0.630000       15.9994           0
     42375 MEMB     29       PPPE     C22      CTL2    -0.220000       12.0110           0
     42376 MEMB     29       PPPE     H2R      HAL2     0.900000E-01   1.00800           0
     42377 MEMB     29       PPPE     H2S      HAL2     0.900000E-01   1.00800           0
     42378 MEMB     29       PPPE     C3       CTL2     0.800000E-01   12.0110           0
     42379 MEMB     29       PPPE     HX       HAL2     0.900000E-01   1.00800           0
     42380 MEMB     29       PPPE     HY       HAL2     0.900000E-01   1.00800           0
     42381 MEMB     29       PPPE     O31      OSL     -0.490000       15.9994           0
     42382 MEMB     29       PPPE     C31      CL       0.900000       12.0110           0
     42383 MEMB     29       PPPE     O32      OBL     -0.630000       15.9994           0
     42384 MEMB     29       PPPE     C32      CTL2    -0.220000       12.0110           0
     42385 MEMB     29       PPPE     H2X      HAL2     0.900000E-01   1.00800           0
     42386 MEMB     29       PPPE     H2Y      HAL2     0.900000E-01   1.00800           0
     42387 MEMB     29       PPPE     C23      CTL2    -0.180000       12.0110           0
     42388 MEMB     29       PPPE     H3R      HAL2     0.900000E-01   1.00800           0
     42389 MEMB     29       PPPE     H3S      HAL2     0.900000E-01   1.00800           0
     42390 MEMB     29       PPPE     C24      CTL2    -0.180000       12.0110           0
     42391 MEMB     29       PPPE     H4R      HAL2     0.900000E-01   1.00800           0
     42392 MEMB     29       PPPE     H4S      HAL2     0.900000E-01   1.00800           0
     42393 MEMB     29       PPPE     C25      CTL2    -0.180000       12.0110           0
     42394 MEMB     29       PPPE     H5R      HAL2     0.900000E-01   1.00800           0
     42395 MEMB     29       PPPE     H5S      HAL2     0.900000E-01   1.00800           0
     42396 MEMB     29       PPPE     C26      CTL2    -0.180000       12.0110           0
     42397 MEMB     29       PPPE     H6R      HAL2     0.900000E-01   1.00800           0
     42398 MEMB     29       PPPE     H6S      HAL2     0.900000E-01   1.00800           0
     42399 MEMB     29       PPPE     C27      CTL2    -0.180000       12.0110           0
     42400 MEMB     29       PPPE     H7R      HAL2     0.900000E-01   1.00800           0
     42401 MEMB     29       PPPE     H7S      HAL2     0.900000E-01   1.00800           0
     42402 MEMB     29       PPPE     C28      CTL2    -0.180000       12.0110           0
     42403 MEMB     29       PPPE     H8R      HAL2     0.900000E-01   1.00800           0
     42404 MEMB     29       PPPE     H8S      HAL2     0.900000E-01   1.00800           0
     42405 MEMB     29       PPPE     C29      CEL1    -0.150000       12.0110           0
     42406 MEMB     29       PPPE     H91      HEL1     0.150000       1.00800           0
     42407 MEMB     29       PPPE     C210     CEL1    -0.150000       12.0110           0
     42408 MEMB     29       PPPE     H101     HEL1     0.150000       1.00800           0
     42409 MEMB     29       PPPE     C211     CTL2    -0.180000       12.0110           0
     42410 MEMB     29       PPPE     H11R     HAL2     0.900000E-01   1.00800           0
     42411 MEMB     29       PPPE     H11S     HAL2     0.900000E-01   1.00800           0
     42412 MEMB     29       PPPE     C212     CTL2    -0.180000       12.0110           0
     42413 MEMB     29       PPPE     H12R     HAL2     0.900000E-01   1.00800           0
     42414 MEMB     29       PPPE     H12S     HAL2     0.900000E-01   1.00800           0
     42415 MEMB     29       PPPE     C213     CTL2    -0.180000       12.0110           0
     42416 MEMB     29       PPPE     H13R     HAL2     0.900000E-01   1.00800           0
     42417 MEMB     29       PPPE     H13S     HAL2     0.900000E-01   1.00800           0
     42418 MEMB     29       PPPE     C214     CTL2    -0.180000       12.0110           0
     42419 MEMB     29       PPPE     H14R     HAL2     0.900000E-01   1.00800           0
     42420 MEMB     29       PPPE     H14S     HAL2     0.900000E-01   1.00800           0
     42421 MEMB     29       PPPE     C215     CTL2    -0.180000       12.0110           0
     42422 MEMB     29       PPPE     H15R     HAL2     0.900000E-01   1.00800           0
     42423 MEMB     29       PPPE     H15S     HAL2     0.900000E-01   1.00800           0
     42424 MEMB     29       PPPE     C216     CTL3    -0.270000       12.0110           0
     42425 MEMB     29       PPPE     H16R     HAL3     0.900000E-01   1.00800           0
     42426 MEMB     29       PPPE     H16S     HAL3     0.900000E-01   1.00800           0
     42427 MEMB     29       PPPE     H16T     HAL3     0.900000E-01   1.00800           0
     42428 MEMB     29       PPPE     C33      CTL2    -0.180000       12.0110           0
     42429 MEMB     29       PPPE     H3X      HAL2     0.900000E-01   1.00800           0
     42430 MEMB     29       PPPE     H3Y      HAL2     0.900000E-01   1.00800           0
     42431 MEMB     29       PPPE     C34      CTL2    -0.180000       12.0110           0
     42432 MEMB     29       PPPE     H4X      HAL2     0.900000E-01   1.00800           0
     42433 MEMB     29       PPPE     H4Y      HAL2     0.900000E-01   1.00800           0
     42434 MEMB     29       PPPE     C35      CTL2    -0.180000       12.0110           0
     42435 MEMB     29       PPPE     H5X      HAL2     0.900000E-01   1.00800           0
     42436 MEMB     29       PPPE     H5Y      HAL2     0.900000E-01   1.00800           0
     42437 MEMB     29       PPPE     C36      CTL2    -0.180000       12.0110           0
     42438 MEMB     29       PPPE     H6X      HAL2     0.900000E-01   1.00800           0
     42439 MEMB     29       PPPE     H6Y      HAL2     0.900000E-01   1.00800           0
     42440 MEMB     29       PPPE     C37      CTL2    -0.180000       12.0110           0
     42441 MEMB     29       PPPE     H7X      HAL2     0.900000E-01   1.00800           0
     42442 MEMB     29       PPPE     H7Y      HAL2     0.900000E-01   1.00800           0
     42443 MEMB     29       PPPE     C38      CTL2    -0.180000       12.0110           0
     42444 MEMB     29       PPPE     H8X      HAL2     0.900000E-01   1.00800           0
     42445 MEMB     29       PPPE     H8Y      HAL2     0.900000E-01   1.00800           0
     42446 MEMB     29       PPPE     C39      CTL2    -0.180000       12.0110           0
     42447 MEMB     29       PPPE     H9X      HAL2     0.900000E-01   1.00800           0
     42448 MEMB     29       PPPE     H9Y      HAL2     0.900000E-01   1.00800           0
     42449 MEMB     29       PPPE     C310     CTL2    -0.180000       12.0110           0
     42450 MEMB     29       PPPE     H10X     HAL2     0.900000E-01   1.00800           0
     42451 MEMB     29       PPPE     H10Y     HAL2     0.900000E-01   1.00800           0
     42452 MEMB     29       PPPE     C311     CTL2    -0.180000       12.0110           0
     42453 MEMB     29       PPPE     H11X     HAL2     0.900000E-01   1.00800           0
     42454 MEMB     29       PPPE     H11Y     HAL2     0.900000E-01   1.00800           0
     42455 MEMB     29       PPPE     C312     CTL2    -0.180000       12.0110           0
     42456 MEMB     29       PPPE     H12X     HAL2     0.900000E-01   1.00800           0
     42457 MEMB     29       PPPE     H12Y     HAL2     0.900000E-01   1.00800           0
     42458 MEMB     29       PPPE     C313     CTL2    -0.180000       12.0110           0
     42459 MEMB     29       PPPE     H13X     HAL2     0.900000E-01   1.00800           0
     42460 MEMB     29       PPPE     H13Y     HAL2     0.900000E-01   1.00800           0
     42461 MEMB     29       PPPE     C314     CTL2    -0.180000       12.0110           0
     42462 MEMB     29       PPPE     H14X     HAL2     0.900000E-01   1.00800           0
     42463 MEMB     29       PPPE     H14Y     HAL2     0.900000E-01   1.00800           0
     42464 MEMB     29       PPPE     C315     CTL2    -0.180000       12.0110           0
     42465 MEMB     29       PPPE     H15X     HAL2     0.900000E-01   1.00800           0
     42466 MEMB     29       PPPE     H15Y     HAL2     0.900000E-01   1.00800           0
     42467 MEMB     29       PPPE     C316     CTL3    -0.270000       12.0110           0
     42468 MEMB     29       PPPE     H16X     HAL3     0.900000E-01   1.00800           0
     42469 MEMB     29       PPPE     H16Y     HAL3     0.900000E-01   1.00800           0
     42470 MEMB     29       PPPE     H16Z     HAL3     0.900000E-01   1.00800           0
     42471 MEMB     30       PVPG     C13      CTL2     0.500000E-01   12.0110           0
     42472 MEMB     30       PVPG     H13A     HAL2     0.900000E-01   1.00800           0
     42473 MEMB     30       PVPG     H13B     HAL2     0.900000E-01   1.00800           0
     42474 MEMB     30       PVPG     OC3      OHL     -0.650000       15.9994           0
     42475 MEMB     30       PVPG     HO3      HOL      0.420000       1.00800           0
     42476 MEMB     30       PVPG     C12      CTL1     0.140000       12.0110           0
     42477 MEMB     30       PVPG     H12A     HAL1     0.900000E-01   1.00800           0
     42478 MEMB     30       PVPG     OC2      OHL     -0.650000       15.9994           0
     42479 MEMB     30       PVPG     HO2      HOL      0.420000       1.00800           0
     42480 MEMB     30       PVPG     C11      CTL2    -0.800000E-01   12.0110           0
     42481 MEMB     30       PVPG     H11A     HAL2     0.900000E-01   1.00800           0
     42482 MEMB     30       PVPG     H11B     HAL2     0.900000E-01   1.00800           0
     42483 MEMB     30       PVPG     P        PL        1.50000       30.9740           0
     42484 MEMB     30       PVPG     O13      O2L     -0.780000       15.9994           0
     42485 MEMB     30       PVPG     O14      O2L     -0.780000       15.9994           0
     42486 MEMB     30       PVPG     O12      OSLP    -0.570000       15.9994           0
     42487 MEMB     30       PVPG     O11      OSLP    -0.570000       15.9994           0
     42488 MEMB     30       PVPG     C1       CTL2    -0.800000E-01   12.0110           0
     42489 MEMB     30       PVPG     HA       HAL2     0.900000E-01   1.00800           0
     42490 MEMB     30       PVPG     HB       HAL2     0.900000E-01   1.00800           0
     42491 MEMB     30       PVPG     C2       CTL1     0.170000       12.0110           0
     42492 MEMB     30       PVPG     HS       HAL1     0.900000E-01   1.00800           0
     42493 MEMB     30       PVPG     O21      OSL     -0.490000       15.9994           0
     42494 MEMB     30       PVPG     C21      CL       0.900000       12.0110           0
     42495 MEMB     30       PVPG     O22      OBL     -0.630000       15.9994           0
     42496 MEMB     30       PVPG     C22      CTL2    -0.220000       12.0110           0
     42497 MEMB     30       PVPG     H2R      HAL2     0.900000E-01   1.00800           0
     42498 MEMB     30       PVPG     H2S      HAL2     0.900000E-01   1.00800           0
     42499 MEMB     30       PVPG     C3       CTL2     0.800000E-01   12.0110           0
     42500 MEMB     30       PVPG     HX       HAL2     0.900000E-01   1.00800           0
     42501 MEMB     30       PVPG     HY       HAL2     0.900000E-01   1.00800           0
     42502 MEMB     30       PVPG     O31      OSL     -0.490000       15.9994           0
     42503 MEMB     30       PVPG     C31      CL       0.900000       12.0110           0
     42504 MEMB     30       PVPG     O32      OBL     -0.630000       15.9994           0
     42505 MEMB     30       PVPG     C32      CTL2    -0.220000       12.0110           0
     42506 MEMB     30       PVPG     H2X      HAL2     0.900000E-01   1.00800           0
     42507 MEMB     30       PVPG     H2Y      HAL2     0.900000E-01   1.00800           0
     42508 MEMB     30       PVPG     C23      CTL2    -0.180000       12.0110           0
     42509 MEMB     30       PVPG     H3R      HAL2     0.900000E-01   1.00800           0
     42510 MEMB     30       PVPG     H3S      HAL2     0.900000E-01   1.00800           0
     42511 MEMB     30       PVPG     C24      CTL2    -0.180000       12.0110           0
     42512 MEMB     30       PVPG     H4R      HAL2     0.900000E-01   1.00800           0
     42513 MEMB     30       PVPG     H4S      HAL2     0.900000E-01   1.00800           0
     42514 MEMB     30       PVPG     C25      CTL2    -0.180000       12.0110           0
     42515 MEMB     30       PVPG     H5R      HAL2     0.900000E-01   1.00800           0
     42516 MEMB     30       PVPG     H5S      HAL2     0.900000E-01   1.00800           0
     42517 MEMB     30       PVPG     C26      CTL2    -0.180000       12.0110           0
     42518 MEMB     30       PVPG     H6R      HAL2     0.900000E-01   1.00800           0
     42519 MEMB     30       PVPG     H6S      HAL2     0.900000E-01   1.00800           0
     42520 MEMB     30       PVPG     C27      CTL2    -0.180000       12.0110           0
     42521 MEMB     30       PVPG     H7R      HAL2     0.900000E-01   1.00800           0
     42522 MEMB     30       PVPG     H7S      HAL2     0.900000E-01   1.00800           0
     42523 MEMB     30       PVPG     C28      CTL2    -0.180000       12.0110           0
     42524 MEMB     30       PVPG     H8R      HAL2     0.900000E-01   1.00800           0
     42525 MEMB     30       PVPG     H8S      HAL2     0.900000E-01   1.00800           0
     42526 MEMB     30       PVPG     C29      CTL2    -0.180000       12.0110           0
     42527 MEMB     30       PVPG     H9R      HAL2     0.900000E-01   1.00800           0
     42528 MEMB     30       PVPG     H9S      HAL2     0.900000E-01   1.00800           0
     42529 MEMB     30       PVPG     C210     CTL2    -0.180000       12.0110           0
     42530 MEMB     30       PVPG     H10R     HAL2     0.900000E-01   1.00800           0
     42531 MEMB     30       PVPG     H10S     HAL2     0.900000E-01   1.00800           0
     42532 MEMB     30       PVPG     C211     CEL1    -0.150000       12.0110           0
     42533 MEMB     30       PVPG     H111     HEL1     0.150000       1.00800           0
     42534 MEMB     30       PVPG     C212     CEL1    -0.150000       12.0110           0
     42535 MEMB     30       PVPG     H121     HEL1     0.150000       1.00800           0
     42536 MEMB     30       PVPG     C213     CTL2    -0.180000       12.0110           0
     42537 MEMB     30       PVPG     H13R     HAL2     0.900000E-01   1.00800           0
     42538 MEMB     30       PVPG     H13S     HAL2     0.900000E-01   1.00800           0
     42539 MEMB     30       PVPG     C214     CTL2    -0.180000       12.0110           0
     42540 MEMB     30       PVPG     H14R     HAL2     0.900000E-01   1.00800           0
     42541 MEMB     30       PVPG     H14S     HAL2     0.900000E-01   1.00800           0
     42542 MEMB     30       PVPG     C215     CTL2    -0.180000       12.0110           0
     42543 MEMB     30       PVPG     H15R     HAL2     0.900000E-01   1.00800           0
     42544 MEMB     30       PVPG     H15S     HAL2     0.900000E-01   1.00800           0
     42545 MEMB     30       PVPG     C216     CTL2    -0.180000       12.0110           0
     42546 MEMB     30       PVPG     H16R     HAL2     0.900000E-01   1.00800           0
     42547 MEMB     30       PVPG     H16S     HAL2     0.900000E-01   1.00800           0
     42548 MEMB     30       PVPG     C217     CTL2    -0.180000       12.0110           0
     42549 MEMB     30       PVPG     H17R     HAL2     0.900000E-01   1.00800           0
     42550 MEMB     30       PVPG     H17S     HAL2     0.900000E-01   1.00800           0
     42551 MEMB     30       PVPG     C218     CTL3    -0.270000       12.0110           0
     42552 MEMB     30       PVPG     H18R     HAL3     0.900000E-01   1.00800           0
     42553 MEMB     30       PVPG     H18S     HAL3     0.900000E-01   1.00800           0
     42554 MEMB     30       PVPG     H18T     HAL3     0.900000E-01   1.00800           0
     42555 MEMB     30       PVPG     C33      CTL2    -0.180000       12.0110           0
     42556 MEMB     30       PVPG     H3X      HAL2     0.900000E-01   1.00800           0
     42557 MEMB     30       PVPG     H3Y      HAL2     0.900000E-01   1.00800           0
     42558 MEMB     30       PVPG     C34      CTL2    -0.180000       12.0110           0
     42559 MEMB     30       PVPG     H4X      HAL2     0.900000E-01   1.00800           0
     42560 MEMB     30       PVPG     H4Y      HAL2     0.900000E-01   1.00800           0
     42561 MEMB     30       PVPG     C35      CTL2    -0.180000       12.0110           0
     42562 MEMB     30       PVPG     H5X      HAL2     0.900000E-01   1.00800           0
     42563 MEMB     30       PVPG     H5Y      HAL2     0.900000E-01   1.00800           0
     42564 MEMB     30       PVPG     C36      CTL2    -0.180000       12.0110           0
     42565 MEMB     30       PVPG     H6X      HAL2     0.900000E-01   1.00800           0
     42566 MEMB     30       PVPG     H6Y      HAL2     0.900000E-01   1.00800           0
     42567 MEMB     30       PVPG     C37      CTL2    -0.180000       12.0110           0
     42568 MEMB     30       PVPG     H7X      HAL2     0.900000E-01   1.00800           0
     42569 MEMB     30       PVPG     H7Y      HAL2     0.900000E-01   1.00800           0
     42570 MEMB     30       PVPG     C38      CTL2    -0.180000       12.0110           0
     42571 MEMB     30       PVPG     H8X      HAL2     0.900000E-01   1.00800           0
     42572 MEMB     30       PVPG     H8Y      HAL2     0.900000E-01   1.00800           0
     42573 MEMB     30       PVPG     C39      CTL2    -0.180000       12.0110           0
     42574 MEMB     30       PVPG     H9X      HAL2     0.900000E-01   1.00800           0
     42575 MEMB     30       PVPG     H9Y      HAL2     0.900000E-01   1.00800           0
     42576 MEMB     30       PVPG     C310     CTL2    -0.180000       12.0110           0
     42577 MEMB     30       PVPG     H10X     HAL2     0.900000E-01   1.00800           0
     42578 MEMB     30       PVPG     H10Y     HAL2     0.900000E-01   1.00800           0
     42579 MEMB     30       PVPG     C311     CTL2    -0.180000       12.0110           0
     42580 MEMB     30       PVPG     H11X     HAL2     0.900000E-01   1.00800           0
     42581 MEMB     30       PVPG     H11Y     HAL2     0.900000E-01   1.00800           0
     42582 MEMB     30       PVPG     C312     CTL2    -0.180000       12.0110           0
     42583 MEMB     30       PVPG     H12X     HAL2     0.900000E-01   1.00800           0
     42584 MEMB     30       PVPG     H12Y     HAL2     0.900000E-01   1.00800           0
     42585 MEMB     30       PVPG     C313     CTL2    -0.180000       12.0110           0
     42586 MEMB     30       PVPG     H13X     HAL2     0.900000E-01   1.00800           0
     42587 MEMB     30       PVPG     H13Y     HAL2     0.900000E-01   1.00800           0
     42588 MEMB     30       PVPG     C314     CTL2    -0.180000       12.0110           0
     42589 MEMB     30       PVPG     H14X     HAL2     0.900000E-01   1.00800           0
     42590 MEMB     30       PVPG     H14Y     HAL2     0.900000E-01   1.00800           0
     42591 MEMB     30       PVPG     C315     CTL2    -0.180000       12.0110           0
     42592 MEMB     30       PVPG     H15X     HAL2     0.900000E-01   1.00800           0
     42593 MEMB     30       PVPG     H15Y     HAL2     0.900000E-01   1.00800           0
     42594 MEMB     30       PVPG     C316     CTL3    -0.270000       12.0110           0
     42595 MEMB     30       PVPG     H16X     HAL3     0.900000E-01   1.00800           0
     42596 MEMB     30       PVPG     H16Y     HAL3     0.900000E-01   1.00800           0
     42597 MEMB     30       PVPG     H16Z     HAL3     0.900000E-01   1.00800           0
     42598 MEMB     31       PPPE     N        NH3L    -0.300000       14.0070           0
     42599 MEMB     31       PPPE     HN1      HCL      0.330000       1.00800           0
     42600 MEMB     31       PPPE     HN2      HCL      0.330000       1.00800           0
     42601 MEMB     31       PPPE     HN3      HCL      0.330000       1.00800           0
     42602 MEMB     31       PPPE     C12      CTL2     0.130000       12.0110           0
     42603 MEMB     31       PPPE     H12A     HAL2     0.900000E-01   1.00800           0
     42604 MEMB     31       PPPE     H12B     HAL2     0.900000E-01   1.00800           0
     42605 MEMB     31       PPPE     C11      CTL2    -0.800000E-01   12.0110           0
     42606 MEMB     31       PPPE     H11A     HAL2     0.900000E-01   1.00800           0
     42607 MEMB     31       PPPE     H11B     HAL2     0.900000E-01   1.00800           0
     42608 MEMB     31       PPPE     P        PL        1.50000       30.9740           0
     42609 MEMB     31       PPPE     O13      O2L     -0.780000       15.9994           0
     42610 MEMB     31       PPPE     O14      O2L     -0.780000       15.9994           0
     42611 MEMB     31       PPPE     O11      OSLP    -0.570000       15.9994           0
     42612 MEMB     31       PPPE     O12      OSLP    -0.570000       15.9994           0
     42613 MEMB     31       PPPE     C1       CTL2    -0.800000E-01   12.0110           0
     42614 MEMB     31       PPPE     HA       HAL2     0.900000E-01   1.00800           0
     42615 MEMB     31       PPPE     HB       HAL2     0.900000E-01   1.00800           0
     42616 MEMB     31       PPPE     C2       CTL1     0.170000       12.0110           0
     42617 MEMB     31       PPPE     HS       HAL1     0.900000E-01   1.00800           0
     42618 MEMB     31       PPPE     O21      OSL     -0.490000       15.9994           0
     42619 MEMB     31       PPPE     C21      CL       0.900000       12.0110           0
     42620 MEMB     31       PPPE     O22      OBL     -0.630000       15.9994           0
     42621 MEMB     31       PPPE     C22      CTL2    -0.220000       12.0110           0
     42622 MEMB     31       PPPE     H2R      HAL2     0.900000E-01   1.00800           0
     42623 MEMB     31       PPPE     H2S      HAL2     0.900000E-01   1.00800           0
     42624 MEMB     31       PPPE     C3       CTL2     0.800000E-01   12.0110           0
     42625 MEMB     31       PPPE     HX       HAL2     0.900000E-01   1.00800           0
     42626 MEMB     31       PPPE     HY       HAL2     0.900000E-01   1.00800           0
     42627 MEMB     31       PPPE     O31      OSL     -0.490000       15.9994           0
     42628 MEMB     31       PPPE     C31      CL       0.900000       12.0110           0
     42629 MEMB     31       PPPE     O32      OBL     -0.630000       15.9994           0
     42630 MEMB     31       PPPE     C32      CTL2    -0.220000       12.0110           0
     42631 MEMB     31       PPPE     H2X      HAL2     0.900000E-01   1.00800           0
     42632 MEMB     31       PPPE     H2Y      HAL2     0.900000E-01   1.00800           0
     42633 MEMB     31       PPPE     C23      CTL2    -0.180000       12.0110           0
     42634 MEMB     31       PPPE     H3R      HAL2     0.900000E-01   1.00800           0
     42635 MEMB     31       PPPE     H3S      HAL2     0.900000E-01   1.00800           0
     42636 MEMB     31       PPPE     C24      CTL2    -0.180000       12.0110           0
     42637 MEMB     31       PPPE     H4R      HAL2     0.900000E-01   1.00800           0
     42638 MEMB     31       PPPE     H4S      HAL2     0.900000E-01   1.00800           0
     42639 MEMB     31       PPPE     C25      CTL2    -0.180000       12.0110           0
     42640 MEMB     31       PPPE     H5R      HAL2     0.900000E-01   1.00800           0
     42641 MEMB     31       PPPE     H5S      HAL2     0.900000E-01   1.00800           0
     42642 MEMB     31       PPPE     C26      CTL2    -0.180000       12.0110           0
     42643 MEMB     31       PPPE     H6R      HAL2     0.900000E-01   1.00800           0
     42644 MEMB     31       PPPE     H6S      HAL2     0.900000E-01   1.00800           0
     42645 MEMB     31       PPPE     C27      CTL2    -0.180000       12.0110           0
     42646 MEMB     31       PPPE     H7R      HAL2     0.900000E-01   1.00800           0
     42647 MEMB     31       PPPE     H7S      HAL2     0.900000E-01   1.00800           0
     42648 MEMB     31       PPPE     C28      CTL2    -0.180000       12.0110           0
     42649 MEMB     31       PPPE     H8R      HAL2     0.900000E-01   1.00800           0
     42650 MEMB     31       PPPE     H8S      HAL2     0.900000E-01   1.00800           0
     42651 MEMB     31       PPPE     C29      CEL1    -0.150000       12.0110           0
     42652 MEMB     31       PPPE     H91      HEL1     0.150000       1.00800           0
     42653 MEMB     31       PPPE     C210     CEL1    -0.150000       12.0110           0
     42654 MEMB     31       PPPE     H101     HEL1     0.150000       1.00800           0
     42655 MEMB     31       PPPE     C211     CTL2    -0.180000       12.0110           0
     42656 MEMB     31       PPPE     H11R     HAL2     0.900000E-01   1.00800           0
     42657 MEMB     31       PPPE     H11S     HAL2     0.900000E-01   1.00800           0
     42658 MEMB     31       PPPE     C212     CTL2    -0.180000       12.0110           0
     42659 MEMB     31       PPPE     H12R     HAL2     0.900000E-01   1.00800           0
     42660 MEMB     31       PPPE     H12S     HAL2     0.900000E-01   1.00800           0
     42661 MEMB     31       PPPE     C213     CTL2    -0.180000       12.0110           0
     42662 MEMB     31       PPPE     H13R     HAL2     0.900000E-01   1.00800           0
     42663 MEMB     31       PPPE     H13S     HAL2     0.900000E-01   1.00800           0
     42664 MEMB     31       PPPE     C214     CTL2    -0.180000       12.0110           0
     42665 MEMB     31       PPPE     H14R     HAL2     0.900000E-01   1.00800           0
     42666 MEMB     31       PPPE     H14S     HAL2     0.900000E-01   1.00800           0
     42667 MEMB     31       PPPE     C215     CTL2    -0.180000       12.0110           0
     42668 MEMB     31       PPPE     H15R     HAL2     0.900000E-01   1.00800           0
     42669 MEMB     31       PPPE     H15S     HAL2     0.900000E-01   1.00800           0
     42670 MEMB     31       PPPE     C216     CTL3    -0.270000       12.0110           0
     42671 MEMB     31       PPPE     H16R     HAL3     0.900000E-01   1.00800           0
     42672 MEMB     31       PPPE     H16S     HAL3     0.900000E-01   1.00800           0
     42673 MEMB     31       PPPE     H16T     HAL3     0.900000E-01   1.00800           0
     42674 MEMB     31       PPPE     C33      CTL2    -0.180000       12.0110           0
     42675 MEMB     31       PPPE     H3X      HAL2     0.900000E-01   1.00800           0
     42676 MEMB     31       PPPE     H3Y      HAL2     0.900000E-01   1.00800           0
     42677 MEMB     31       PPPE     C34      CTL2    -0.180000       12.0110           0
     42678 MEMB     31       PPPE     H4X      HAL2     0.900000E-01   1.00800           0
     42679 MEMB     31       PPPE     H4Y      HAL2     0.900000E-01   1.00800           0
     42680 MEMB     31       PPPE     C35      CTL2    -0.180000       12.0110           0
     42681 MEMB     31       PPPE     H5X      HAL2     0.900000E-01   1.00800           0
     42682 MEMB     31       PPPE     H5Y      HAL2     0.900000E-01   1.00800           0
     42683 MEMB     31       PPPE     C36      CTL2    -0.180000       12.0110           0
     42684 MEMB     31       PPPE     H6X      HAL2     0.900000E-01   1.00800           0
     42685 MEMB     31       PPPE     H6Y      HAL2     0.900000E-01   1.00800           0
     42686 MEMB     31       PPPE     C37      CTL2    -0.180000       12.0110           0
     42687 MEMB     31       PPPE     H7X      HAL2     0.900000E-01   1.00800           0
     42688 MEMB     31       PPPE     H7Y      HAL2     0.900000E-01   1.00800           0
     42689 MEMB     31       PPPE     C38      CTL2    -0.180000       12.0110           0
     42690 MEMB     31       PPPE     H8X      HAL2     0.900000E-01   1.00800           0
     42691 MEMB     31       PPPE     H8Y      HAL2     0.900000E-01   1.00800           0
     42692 MEMB     31       PPPE     C39      CTL2    -0.180000       12.0110           0
     42693 MEMB     31       PPPE     H9X      HAL2     0.900000E-01   1.00800           0
     42694 MEMB     31       PPPE     H9Y      HAL2     0.900000E-01   1.00800           0
     42695 MEMB     31       PPPE     C310     CTL2    -0.180000       12.0110           0
     42696 MEMB     31       PPPE     H10X     HAL2     0.900000E-01   1.00800           0
     42697 MEMB     31       PPPE     H10Y     HAL2     0.900000E-01   1.00800           0
     42698 MEMB     31       PPPE     C311     CTL2    -0.180000       12.0110           0
     42699 MEMB     31       PPPE     H11X     HAL2     0.900000E-01   1.00800           0
     42700 MEMB     31       PPPE     H11Y     HAL2     0.900000E-01   1.00800           0
     42701 MEMB     31       PPPE     C312     CTL2    -0.180000       12.0110           0
     42702 MEMB     31       PPPE     H12X     HAL2     0.900000E-01   1.00800           0
     42703 MEMB     31       PPPE     H12Y     HAL2     0.900000E-01   1.00800           0
     42704 MEMB     31       PPPE     C313     CTL2    -0.180000       12.0110           0
     42705 MEMB     31       PPPE     H13X     HAL2     0.900000E-01   1.00800           0
     42706 MEMB     31       PPPE     H13Y     HAL2     0.900000E-01   1.00800           0
     42707 MEMB     31       PPPE     C314     CTL2    -0.180000       12.0110           0
     42708 MEMB     31       PPPE     H14X     HAL2     0.900000E-01   1.00800           0
     42709 MEMB     31       PPPE     H14Y     HAL2     0.900000E-01   1.00800           0
     42710 MEMB     31       PPPE     C315     CTL2    -0.180000       12.0110           0
     42711 MEMB     31       PPPE     H15X     HAL2     0.900000E-01   1.00800           0
     42712 MEMB     31       PPPE     H15Y     HAL2     0.900000E-01   1.00800           0
     42713 MEMB     31       PPPE     C316     CTL3    -0.270000       12.0110           0
     42714 MEMB     31       PPPE     H16X     HAL3     0.900000E-01   1.00800           0
     42715 MEMB     31       PPPE     H16Y     HAL3     0.900000E-01   1.00800           0
     42716 MEMB     31       PPPE     H16Z     HAL3     0.900000E-01   1.00800           0
     42717 MEMB     32       PPPE     N        NH3L    -0.300000       14.0070           0
     42718 MEMB     32       PPPE     HN1      HCL      0.330000       1.00800           0
     42719 MEMB     32       PPPE     HN2      HCL      0.330000       1.00800           0
     42720 MEMB     32       PPPE     HN3      HCL      0.330000       1.00800           0
     42721 MEMB     32       PPPE     C12      CTL2     0.130000       12.0110           0
     42722 MEMB     32       PPPE     H12A     HAL2     0.900000E-01   1.00800           0
     42723 MEMB     32       PPPE     H12B     HAL2     0.900000E-01   1.00800           0
     42724 MEMB     32       PPPE     C11      CTL2    -0.800000E-01   12.0110           0
     42725 MEMB     32       PPPE     H11A     HAL2     0.900000E-01   1.00800           0
     42726 MEMB     32       PPPE     H11B     HAL2     0.900000E-01   1.00800           0
     42727 MEMB     32       PPPE     P        PL        1.50000       30.9740           0
     42728 MEMB     32       PPPE     O13      O2L     -0.780000       15.9994           0
     42729 MEMB     32       PPPE     O14      O2L     -0.780000       15.9994           0
     42730 MEMB     32       PPPE     O11      OSLP    -0.570000       15.9994           0
     42731 MEMB     32       PPPE     O12      OSLP    -0.570000       15.9994           0
     42732 MEMB     32       PPPE     C1       CTL2    -0.800000E-01   12.0110           0
     42733 MEMB     32       PPPE     HA       HAL2     0.900000E-01   1.00800           0
     42734 MEMB     32       PPPE     HB       HAL2     0.900000E-01   1.00800           0
     42735 MEMB     32       PPPE     C2       CTL1     0.170000       12.0110           0
     42736 MEMB     32       PPPE     HS       HAL1     0.900000E-01   1.00800           0
     42737 MEMB     32       PPPE     O21      OSL     -0.490000       15.9994           0
     42738 MEMB     32       PPPE     C21      CL       0.900000       12.0110           0
     42739 MEMB     32       PPPE     O22      OBL     -0.630000       15.9994           0
     42740 MEMB     32       PPPE     C22      CTL2    -0.220000       12.0110           0
     42741 MEMB     32       PPPE     H2R      HAL2     0.900000E-01   1.00800           0
     42742 MEMB     32       PPPE     H2S      HAL2     0.900000E-01   1.00800           0
     42743 MEMB     32       PPPE     C3       CTL2     0.800000E-01   12.0110           0
     42744 MEMB     32       PPPE     HX       HAL2     0.900000E-01   1.00800           0
     42745 MEMB     32       PPPE     HY       HAL2     0.900000E-01   1.00800           0
     42746 MEMB     32       PPPE     O31      OSL     -0.490000       15.9994           0
     42747 MEMB     32       PPPE     C31      CL       0.900000       12.0110           0
     42748 MEMB     32       PPPE     O32      OBL     -0.630000       15.9994           0
     42749 MEMB     32       PPPE     C32      CTL2    -0.220000       12.0110           0
     42750 MEMB     32       PPPE     H2X      HAL2     0.900000E-01   1.00800           0
     42751 MEMB     32       PPPE     H2Y      HAL2     0.900000E-01   1.00800           0
     42752 MEMB     32       PPPE     C23      CTL2    -0.180000       12.0110           0
     42753 MEMB     32       PPPE     H3R      HAL2     0.900000E-01   1.00800           0
     42754 MEMB     32       PPPE     H3S      HAL2     0.900000E-01   1.00800           0
     42755 MEMB     32       PPPE     C24      CTL2    -0.180000       12.0110           0
     42756 MEMB     32       PPPE     H4R      HAL2     0.900000E-01   1.00800           0
     42757 MEMB     32       PPPE     H4S      HAL2     0.900000E-01   1.00800           0
     42758 MEMB     32       PPPE     C25      CTL2    -0.180000       12.0110           0
     42759 MEMB     32       PPPE     H5R      HAL2     0.900000E-01   1.00800           0
     42760 MEMB     32       PPPE     H5S      HAL2     0.900000E-01   1.00800           0
     42761 MEMB     32       PPPE     C26      CTL2    -0.180000       12.0110           0
     42762 MEMB     32       PPPE     H6R      HAL2     0.900000E-01   1.00800           0
     42763 MEMB     32       PPPE     H6S      HAL2     0.900000E-01   1.00800           0
     42764 MEMB     32       PPPE     C27      CTL2    -0.180000       12.0110           0
     42765 MEMB     32       PPPE     H7R      HAL2     0.900000E-01   1.00800           0
     42766 MEMB     32       PPPE     H7S      HAL2     0.900000E-01   1.00800           0
     42767 MEMB     32       PPPE     C28      CTL2    -0.180000       12.0110           0
     42768 MEMB     32       PPPE     H8R      HAL2     0.900000E-01   1.00800           0
     42769 MEMB     32       PPPE     H8S      HAL2     0.900000E-01   1.00800           0
     42770 MEMB     32       PPPE     C29      CEL1    -0.150000       12.0110           0
     42771 MEMB     32       PPPE     H91      HEL1     0.150000       1.00800           0
     42772 MEMB     32       PPPE     C210     CEL1    -0.150000       12.0110           0
     42773 MEMB     32       PPPE     H101     HEL1     0.150000       1.00800           0
     42774 MEMB     32       PPPE     C211     CTL2    -0.180000       12.0110           0
     42775 MEMB     32       PPPE     H11R     HAL2     0.900000E-01   1.00800           0
     42776 MEMB     32       PPPE     H11S     HAL2     0.900000E-01   1.00800           0
     42777 MEMB     32       PPPE     C212     CTL2    -0.180000       12.0110           0
     42778 MEMB     32       PPPE     H12R     HAL2     0.900000E-01   1.00800           0
     42779 MEMB     32       PPPE     H12S     HAL2     0.900000E-01   1.00800           0
     42780 MEMB     32       PPPE     C213     CTL2    -0.180000       12.0110           0
     42781 MEMB     32       PPPE     H13R     HAL2     0.900000E-01   1.00800           0
     42782 MEMB     32       PPPE     H13S     HAL2     0.900000E-01   1.00800           0
     42783 MEMB     32       PPPE     C214     CTL2    -0.180000       12.0110           0
     42784 MEMB     32       PPPE     H14R     HAL2     0.900000E-01   1.00800           0
     42785 MEMB     32       PPPE     H14S     HAL2     0.900000E-01   1.00800           0
     42786 MEMB     32       PPPE     C215     CTL2    -0.180000       12.0110           0
     42787 MEMB     32       PPPE     H15R     HAL2     0.900000E-01   1.00800           0
     42788 MEMB     32       PPPE     H15S     HAL2     0.900000E-01   1.00800           0
     42789 MEMB     32       PPPE     C216     CTL3    -0.270000       12.0110           0
     42790 MEMB     32       PPPE     H16R     HAL3     0.900000E-01   1.00800           0
     42791 MEMB     32       PPPE     H16S     HAL3     0.900000E-01   1.00800           0
     42792 MEMB     32       PPPE     H16T     HAL3     0.900000E-01   1.00800           0
     42793 MEMB     32       PPPE     C33      CTL2    -0.180000       12.0110           0
     42794 MEMB     32       PPPE     H3X      HAL2     0.900000E-01   1.00800           0
     42795 MEMB     32       PPPE     H3Y      HAL2     0.900000E-01   1.00800           0
     42796 MEMB     32       PPPE     C34      CTL2    -0.180000       12.0110           0
     42797 MEMB     32       PPPE     H4X      HAL2     0.900000E-01   1.00800           0
     42798 MEMB     32       PPPE     H4Y      HAL2     0.900000E-01   1.00800           0
     42799 MEMB     32       PPPE     C35      CTL2    -0.180000       12.0110           0
     42800 MEMB     32       PPPE     H5X      HAL2     0.900000E-01   1.00800           0
     42801 MEMB     32       PPPE     H5Y      HAL2     0.900000E-01   1.00800           0
     42802 MEMB     32       PPPE     C36      CTL2    -0.180000       12.0110           0
     42803 MEMB     32       PPPE     H6X      HAL2     0.900000E-01   1.00800           0
     42804 MEMB     32       PPPE     H6Y      HAL2     0.900000E-01   1.00800           0
     42805 MEMB     32       PPPE     C37      CTL2    -0.180000       12.0110           0
     42806 MEMB     32       PPPE     H7X      HAL2     0.900000E-01   1.00800           0
     42807 MEMB     32       PPPE     H7Y      HAL2     0.900000E-01   1.00800           0
     42808 MEMB     32       PPPE     C38      CTL2    -0.180000       12.0110           0
     42809 MEMB     32       PPPE     H8X      HAL2     0.900000E-01   1.00800           0
     42810 MEMB     32       PPPE     H8Y      HAL2     0.900000E-01   1.00800           0
     42811 MEMB     32       PPPE     C39      CTL2    -0.180000       12.0110           0
     42812 MEMB     32       PPPE     H9X      HAL2     0.900000E-01   1.00800           0
     42813 MEMB     32       PPPE     H9Y      HAL2     0.900000E-01   1.00800           0
     42814 MEMB     32       PPPE     C310     CTL2    -0.180000       12.0110           0
     42815 MEMB     32       PPPE     H10X     HAL2     0.900000E-01   1.00800           0
     42816 MEMB     32       PPPE     H10Y     HAL2     0.900000E-01   1.00800           0
     42817 MEMB     32       PPPE     C311     CTL2    -0.180000       12.0110           0
     42818 MEMB     32       PPPE     H11X     HAL2     0.900000E-01   1.00800           0
     42819 MEMB     32       PPPE     H11Y     HAL2     0.900000E-01   1.00800           0
     42820 MEMB     32       PPPE     C312     CTL2    -0.180000       12.0110           0
     42821 MEMB     32       PPPE     H12X     HAL2     0.900000E-01   1.00800           0
     42822 MEMB     32       PPPE     H12Y     HAL2     0.900000E-01   1.00800           0
     42823 MEMB     32       PPPE     C313     CTL2    -0.180000       12.0110           0
     42824 MEMB     32       PPPE     H13X     HAL2     0.900000E-01   1.00800           0
     42825 MEMB     32       PPPE     H13Y     HAL2     0.900000E-01   1.00800           0
     42826 MEMB     32       PPPE     C314     CTL2    -0.180000       12.0110           0
     42827 MEMB     32       PPPE     H14X     HAL2     0.900000E-01   1.00800           0
     42828 MEMB     32       PPPE     H14Y     HAL2     0.900000E-01   1.00800           0
     42829 MEMB     32       PPPE     C315     CTL2    -0.180000       12.0110           0
     42830 MEMB     32       PPPE     H15X     HAL2     0.900000E-01   1.00800           0
     42831 MEMB     32       PPPE     H15Y     HAL2     0.900000E-01   1.00800           0
     42832 MEMB     32       PPPE     C316     CTL3    -0.270000       12.0110           0
     42833 MEMB     32       PPPE     H16X     HAL3     0.900000E-01   1.00800           0
     42834 MEMB     32       PPPE     H16Y     HAL3     0.900000E-01   1.00800           0
     42835 MEMB     32       PPPE     H16Z     HAL3     0.900000E-01   1.00800           0
     42836 MEMB     33       PPPE     N        NH3L    -0.300000       14.0070           0
     42837 MEMB     33       PPPE     HN1      HCL      0.330000       1.00800           0
     42838 MEMB     33       PPPE     HN2      HCL      0.330000       1.00800           0
     42839 MEMB     33       PPPE     HN3      HCL      0.330000       1.00800           0
     42840 MEMB     33       PPPE     C12      CTL2     0.130000       12.0110           0
     42841 MEMB     33       PPPE     H12A     HAL2     0.900000E-01   1.00800           0
     42842 MEMB     33       PPPE     H12B     HAL2     0.900000E-01   1.00800           0
     42843 MEMB     33       PPPE     C11      CTL2    -0.800000E-01   12.0110           0
     42844 MEMB     33       PPPE     H11A     HAL2     0.900000E-01   1.00800           0
     42845 MEMB     33       PPPE     H11B     HAL2     0.900000E-01   1.00800           0
     42846 MEMB     33       PPPE     P        PL        1.50000       30.9740           0
     42847 MEMB     33       PPPE     O13      O2L     -0.780000       15.9994           0
     42848 MEMB     33       PPPE     O14      O2L     -0.780000       15.9994           0
     42849 MEMB     33       PPPE     O11      OSLP    -0.570000       15.9994           0
     42850 MEMB     33       PPPE     O12      OSLP    -0.570000       15.9994           0
     42851 MEMB     33       PPPE     C1       CTL2    -0.800000E-01   12.0110           0
     42852 MEMB     33       PPPE     HA       HAL2     0.900000E-01   1.00800           0
     42853 MEMB     33       PPPE     HB       HAL2     0.900000E-01   1.00800           0
     42854 MEMB     33       PPPE     C2       CTL1     0.170000       12.0110           0
     42855 MEMB     33       PPPE     HS       HAL1     0.900000E-01   1.00800           0
     42856 MEMB     33       PPPE     O21      OSL     -0.490000       15.9994           0
     42857 MEMB     33       PPPE     C21      CL       0.900000       12.0110           0
     42858 MEMB     33       PPPE     O22      OBL     -0.630000       15.9994           0
     42859 MEMB     33       PPPE     C22      CTL2    -0.220000       12.0110           0
     42860 MEMB     33       PPPE     H2R      HAL2     0.900000E-01   1.00800           0
     42861 MEMB     33       PPPE     H2S      HAL2     0.900000E-01   1.00800           0
     42862 MEMB     33       PPPE     C3       CTL2     0.800000E-01   12.0110           0
     42863 MEMB     33       PPPE     HX       HAL2     0.900000E-01   1.00800           0
     42864 MEMB     33       PPPE     HY       HAL2     0.900000E-01   1.00800           0
     42865 MEMB     33       PPPE     O31      OSL     -0.490000       15.9994           0
     42866 MEMB     33       PPPE     C31      CL       0.900000       12.0110           0
     42867 MEMB     33       PPPE     O32      OBL     -0.630000       15.9994           0
     42868 MEMB     33       PPPE     C32      CTL2    -0.220000       12.0110           0
     42869 MEMB     33       PPPE     H2X      HAL2     0.900000E-01   1.00800           0
     42870 MEMB     33       PPPE     H2Y      HAL2     0.900000E-01   1.00800           0
     42871 MEMB     33       PPPE     C23      CTL2    -0.180000       12.0110           0
     42872 MEMB     33       PPPE     H3R      HAL2     0.900000E-01   1.00800           0
     42873 MEMB     33       PPPE     H3S      HAL2     0.900000E-01   1.00800           0
     42874 MEMB     33       PPPE     C24      CTL2    -0.180000       12.0110           0
     42875 MEMB     33       PPPE     H4R      HAL2     0.900000E-01   1.00800           0
     42876 MEMB     33       PPPE     H4S      HAL2     0.900000E-01   1.00800           0
     42877 MEMB     33       PPPE     C25      CTL2    -0.180000       12.0110           0
     42878 MEMB     33       PPPE     H5R      HAL2     0.900000E-01   1.00800           0
     42879 MEMB     33       PPPE     H5S      HAL2     0.900000E-01   1.00800           0
     42880 MEMB     33       PPPE     C26      CTL2    -0.180000       12.0110           0
     42881 MEMB     33       PPPE     H6R      HAL2     0.900000E-01   1.00800           0
     42882 MEMB     33       PPPE     H6S      HAL2     0.900000E-01   1.00800           0
     42883 MEMB     33       PPPE     C27      CTL2    -0.180000       12.0110           0
     42884 MEMB     33       PPPE     H7R      HAL2     0.900000E-01   1.00800           0
     42885 MEMB     33       PPPE     H7S      HAL2     0.900000E-01   1.00800           0
     42886 MEMB     33       PPPE     C28      CTL2    -0.180000       12.0110           0
     42887 MEMB     33       PPPE     H8R      HAL2     0.900000E-01   1.00800           0
     42888 MEMB     33       PPPE     H8S      HAL2     0.900000E-01   1.00800           0
     42889 MEMB     33       PPPE     C29      CEL1    -0.150000       12.0110           0
     42890 MEMB     33       PPPE     H91      HEL1     0.150000       1.00800           0
     42891 MEMB     33       PPPE     C210     CEL1    -0.150000       12.0110           0
     42892 MEMB     33       PPPE     H101     HEL1     0.150000       1.00800           0
     42893 MEMB     33       PPPE     C211     CTL2    -0.180000       12.0110           0
     42894 MEMB     33       PPPE     H11R     HAL2     0.900000E-01   1.00800           0
     42895 MEMB     33       PPPE     H11S     HAL2     0.900000E-01   1.00800           0
     42896 MEMB     33       PPPE     C212     CTL2    -0.180000       12.0110           0
     42897 MEMB     33       PPPE     H12R     HAL2     0.900000E-01   1.00800           0
     42898 MEMB     33       PPPE     H12S     HAL2     0.900000E-01   1.00800           0
     42899 MEMB     33       PPPE     C213     CTL2    -0.180000       12.0110           0
     42900 MEMB     33       PPPE     H13R     HAL2     0.900000E-01   1.00800           0
     42901 MEMB     33       PPPE     H13S     HAL2     0.900000E-01   1.00800           0
     42902 MEMB     33       PPPE     C214     CTL2    -0.180000       12.0110           0
     42903 MEMB     33       PPPE     H14R     HAL2     0.900000E-01   1.00800           0
     42904 MEMB     33       PPPE     H14S     HAL2     0.900000E-01   1.00800           0
     42905 MEMB     33       PPPE     C215     CTL2    -0.180000       12.0110           0
     42906 MEMB     33       PPPE     H15R     HAL2     0.900000E-01   1.00800           0
     42907 MEMB     33       PPPE     H15S     HAL2     0.900000E-01   1.00800           0
     42908 MEMB     33       PPPE     C216     CTL3    -0.270000       12.0110           0
     42909 MEMB     33       PPPE     H16R     HAL3     0.900000E-01   1.00800           0
     42910 MEMB     33       PPPE     H16S     HAL3     0.900000E-01   1.00800           0
     42911 MEMB     33       PPPE     H16T     HAL3     0.900000E-01   1.00800           0
     42912 MEMB     33       PPPE     C33      CTL2    -0.180000       12.0110           0
     42913 MEMB     33       PPPE     H3X      HAL2     0.900000E-01   1.00800           0
     42914 MEMB     33       PPPE     H3Y      HAL2     0.900000E-01   1.00800           0
     42915 MEMB     33       PPPE     C34      CTL2    -0.180000       12.0110           0
     42916 MEMB     33       PPPE     H4X      HAL2     0.900000E-01   1.00800           0
     42917 MEMB     33       PPPE     H4Y      HAL2     0.900000E-01   1.00800           0
     42918 MEMB     33       PPPE     C35      CTL2    -0.180000       12.0110           0
     42919 MEMB     33       PPPE     H5X      HAL2     0.900000E-01   1.00800           0
     42920 MEMB     33       PPPE     H5Y      HAL2     0.900000E-01   1.00800           0
     42921 MEMB     33       PPPE     C36      CTL2    -0.180000       12.0110           0
     42922 MEMB     33       PPPE     H6X      HAL2     0.900000E-01   1.00800           0
     42923 MEMB     33       PPPE     H6Y      HAL2     0.900000E-01   1.00800           0
     42924 MEMB     33       PPPE     C37      CTL2    -0.180000       12.0110           0
     42925 MEMB     33       PPPE     H7X      HAL2     0.900000E-01   1.00800           0
     42926 MEMB     33       PPPE     H7Y      HAL2     0.900000E-01   1.00800           0
     42927 MEMB     33       PPPE     C38      CTL2    -0.180000       12.0110           0
     42928 MEMB     33       PPPE     H8X      HAL2     0.900000E-01   1.00800           0
     42929 MEMB     33       PPPE     H8Y      HAL2     0.900000E-01   1.00800           0
     42930 MEMB     33       PPPE     C39      CTL2    -0.180000       12.0110           0
     42931 MEMB     33       PPPE     H9X      HAL2     0.900000E-01   1.00800           0
     42932 MEMB     33       PPPE     H9Y      HAL2     0.900000E-01   1.00800           0
     42933 MEMB     33       PPPE     C310     CTL2    -0.180000       12.0110           0
     42934 MEMB     33       PPPE     H10X     HAL2     0.900000E-01   1.00800           0
     42935 MEMB     33       PPPE     H10Y     HAL2     0.900000E-01   1.00800           0
     42936 MEMB     33       PPPE     C311     CTL2    -0.180000       12.0110           0
     42937 MEMB     33       PPPE     H11X     HAL2     0.900000E-01   1.00800           0
     42938 MEMB     33       PPPE     H11Y     HAL2     0.900000E-01   1.00800           0
     42939 MEMB     33       PPPE     C312     CTL2    -0.180000       12.0110           0
     42940 MEMB     33       PPPE     H12X     HAL2     0.900000E-01   1.00800           0
     42941 MEMB     33       PPPE     H12Y     HAL2     0.900000E-01   1.00800           0
     42942 MEMB     33       PPPE     C313     CTL2    -0.180000       12.0110           0
     42943 MEMB     33       PPPE     H13X     HAL2     0.900000E-01   1.00800           0
     42944 MEMB     33       PPPE     H13Y     HAL2     0.900000E-01   1.00800           0
     42945 MEMB     33       PPPE     C314     CTL2    -0.180000       12.0110           0
     42946 MEMB     33       PPPE     H14X     HAL2     0.900000E-01   1.00800           0
     42947 MEMB     33       PPPE     H14Y     HAL2     0.900000E-01   1.00800           0
     42948 MEMB     33       PPPE     C315     CTL2    -0.180000       12.0110           0
     42949 MEMB     33       PPPE     H15X     HAL2     0.900000E-01   1.00800           0
     42950 MEMB     33       PPPE     H15Y     HAL2     0.900000E-01   1.00800           0
     42951 MEMB     33       PPPE     C316     CTL3    -0.270000       12.0110           0
     42952 MEMB     33       PPPE     H16X     HAL3     0.900000E-01   1.00800           0
     42953 MEMB     33       PPPE     H16Y     HAL3     0.900000E-01   1.00800           0
     42954 MEMB     33       PPPE     H16Z     HAL3     0.900000E-01   1.00800           0
     42955 MEMB     34       PPPE     N        NH3L    -0.300000       14.0070           0
     42956 MEMB     34       PPPE     HN1      HCL      0.330000       1.00800           0
     42957 MEMB     34       PPPE     HN2      HCL      0.330000       1.00800           0
     42958 MEMB     34       PPPE     HN3      HCL      0.330000       1.00800           0
     42959 MEMB     34       PPPE     C12      CTL2     0.130000       12.0110           0
     42960 MEMB     34       PPPE     H12A     HAL2     0.900000E-01   1.00800           0
     42961 MEMB     34       PPPE     H12B     HAL2     0.900000E-01   1.00800           0
     42962 MEMB     34       PPPE     C11      CTL2    -0.800000E-01   12.0110           0
     42963 MEMB     34       PPPE     H11A     HAL2     0.900000E-01   1.00800           0
     42964 MEMB     34       PPPE     H11B     HAL2     0.900000E-01   1.00800           0
     42965 MEMB     34       PPPE     P        PL        1.50000       30.9740           0
     42966 MEMB     34       PPPE     O13      O2L     -0.780000       15.9994           0
     42967 MEMB     34       PPPE     O14      O2L     -0.780000       15.9994           0
     42968 MEMB     34       PPPE     O11      OSLP    -0.570000       15.9994           0
     42969 MEMB     34       PPPE     O12      OSLP    -0.570000       15.9994           0
     42970 MEMB     34       PPPE     C1       CTL2    -0.800000E-01   12.0110           0
     42971 MEMB     34       PPPE     HA       HAL2     0.900000E-01   1.00800           0
     42972 MEMB     34       PPPE     HB       HAL2     0.900000E-01   1.00800           0
     42973 MEMB     34       PPPE     C2       CTL1     0.170000       12.0110           0
     42974 MEMB     34       PPPE     HS       HAL1     0.900000E-01   1.00800           0
     42975 MEMB     34       PPPE     O21      OSL     -0.490000       15.9994           0
     42976 MEMB     34       PPPE     C21      CL       0.900000       12.0110           0
     42977 MEMB     34       PPPE     O22      OBL     -0.630000       15.9994           0
     42978 MEMB     34       PPPE     C22      CTL2    -0.220000       12.0110           0
     42979 MEMB     34       PPPE     H2R      HAL2     0.900000E-01   1.00800           0
     42980 MEMB     34       PPPE     H2S      HAL2     0.900000E-01   1.00800           0
     42981 MEMB     34       PPPE     C3       CTL2     0.800000E-01   12.0110           0
     42982 MEMB     34       PPPE     HX       HAL2     0.900000E-01   1.00800           0
     42983 MEMB     34       PPPE     HY       HAL2     0.900000E-01   1.00800           0
     42984 MEMB     34       PPPE     O31      OSL     -0.490000       15.9994           0
     42985 MEMB     34       PPPE     C31      CL       0.900000       12.0110           0
     42986 MEMB     34       PPPE     O32      OBL     -0.630000       15.9994           0
     42987 MEMB     34       PPPE     C32      CTL2    -0.220000       12.0110           0
     42988 MEMB     34       PPPE     H2X      HAL2     0.900000E-01   1.00800           0
     42989 MEMB     34       PPPE     H2Y      HAL2     0.900000E-01   1.00800           0
     42990 MEMB     34       PPPE     C23      CTL2    -0.180000       12.0110           0
     42991 MEMB     34       PPPE     H3R      HAL2     0.900000E-01   1.00800           0
     42992 MEMB     34       PPPE     H3S      HAL2     0.900000E-01   1.00800           0
     42993 MEMB     34       PPPE     C24      CTL2    -0.180000       12.0110           0
     42994 MEMB     34       PPPE     H4R      HAL2     0.900000E-01   1.00800           0
     42995 MEMB     34       PPPE     H4S      HAL2     0.900000E-01   1.00800           0
     42996 MEMB     34       PPPE     C25      CTL2    -0.180000       12.0110           0
     42997 MEMB     34       PPPE     H5R      HAL2     0.900000E-01   1.00800           0
     42998 MEMB     34       PPPE     H5S      HAL2     0.900000E-01   1.00800           0
     42999 MEMB     34       PPPE     C26      CTL2    -0.180000       12.0110           0
     43000 MEMB     34       PPPE     H6R      HAL2     0.900000E-01   1.00800           0
     43001 MEMB     34       PPPE     H6S      HAL2     0.900000E-01   1.00800           0
     43002 MEMB     34       PPPE     C27      CTL2    -0.180000       12.0110           0
     43003 MEMB     34       PPPE     H7R      HAL2     0.900000E-01   1.00800           0
     43004 MEMB     34       PPPE     H7S      HAL2     0.900000E-01   1.00800           0
     43005 MEMB     34       PPPE     C28      CTL2    -0.180000       12.0110           0
     43006 MEMB     34       PPPE     H8R      HAL2     0.900000E-01   1.00800           0
     43007 MEMB     34       PPPE     H8S      HAL2     0.900000E-01   1.00800           0
     43008 MEMB     34       PPPE     C29      CEL1    -0.150000       12.0110           0
     43009 MEMB     34       PPPE     H91      HEL1     0.150000       1.00800           0
     43010 MEMB     34       PPPE     C210     CEL1    -0.150000       12.0110           0
     43011 MEMB     34       PPPE     H101     HEL1     0.150000       1.00800           0
     43012 MEMB     34       PPPE     C211     CTL2    -0.180000       12.0110           0
     43013 MEMB     34       PPPE     H11R     HAL2     0.900000E-01   1.00800           0
     43014 MEMB     34       PPPE     H11S     HAL2     0.900000E-01   1.00800           0
     43015 MEMB     34       PPPE     C212     CTL2    -0.180000       12.0110           0
     43016 MEMB     34       PPPE     H12R     HAL2     0.900000E-01   1.00800           0
     43017 MEMB     34       PPPE     H12S     HAL2     0.900000E-01   1.00800           0
     43018 MEMB     34       PPPE     C213     CTL2    -0.180000       12.0110           0
     43019 MEMB     34       PPPE     H13R     HAL2     0.900000E-01   1.00800           0
     43020 MEMB     34       PPPE     H13S     HAL2     0.900000E-01   1.00800           0
     43021 MEMB     34       PPPE     C214     CTL2    -0.180000       12.0110           0
     43022 MEMB     34       PPPE     H14R     HAL2     0.900000E-01   1.00800           0
     43023 MEMB     34       PPPE     H14S     HAL2     0.900000E-01   1.00800           0
     43024 MEMB     34       PPPE     C215     CTL2    -0.180000       12.0110           0
     43025 MEMB     34       PPPE     H15R     HAL2     0.900000E-01   1.00800           0
     43026 MEMB     34       PPPE     H15S     HAL2     0.900000E-01   1.00800           0
     43027 MEMB     34       PPPE     C216     CTL3    -0.270000       12.0110           0
     43028 MEMB     34       PPPE     H16R     HAL3     0.900000E-01   1.00800           0
     43029 MEMB     34       PPPE     H16S     HAL3     0.900000E-01   1.00800           0
     43030 MEMB     34       PPPE     H16T     HAL3     0.900000E-01   1.00800           0
     43031 MEMB     34       PPPE     C33      CTL2    -0.180000       12.0110           0
     43032 MEMB     34       PPPE     H3X      HAL2     0.900000E-01   1.00800           0
     43033 MEMB     34       PPPE     H3Y      HAL2     0.900000E-01   1.00800           0
     43034 MEMB     34       PPPE     C34      CTL2    -0.180000       12.0110           0
     43035 MEMB     34       PPPE     H4X      HAL2     0.900000E-01   1.00800           0
     43036 MEMB     34       PPPE     H4Y      HAL2     0.900000E-01   1.00800           0
     43037 MEMB     34       PPPE     C35      CTL2    -0.180000       12.0110           0
     43038 MEMB     34       PPPE     H5X      HAL2     0.900000E-01   1.00800           0
     43039 MEMB     34       PPPE     H5Y      HAL2     0.900000E-01   1.00800           0
     43040 MEMB     34       PPPE     C36      CTL2    -0.180000       12.0110           0
     43041 MEMB     34       PPPE     H6X      HAL2     0.900000E-01   1.00800           0
     43042 MEMB     34       PPPE     H6Y      HAL2     0.900000E-01   1.00800           0
     43043 MEMB     34       PPPE     C37      CTL2    -0.180000       12.0110           0
     43044 MEMB     34       PPPE     H7X      HAL2     0.900000E-01   1.00800           0
     43045 MEMB     34       PPPE     H7Y      HAL2     0.900000E-01   1.00800           0
     43046 MEMB     34       PPPE     C38      CTL2    -0.180000       12.0110           0
     43047 MEMB     34       PPPE     H8X      HAL2     0.900000E-01   1.00800           0
     43048 MEMB     34       PPPE     H8Y      HAL2     0.900000E-01   1.00800           0
     43049 MEMB     34       PPPE     C39      CTL2    -0.180000       12.0110           0
     43050 MEMB     34       PPPE     H9X      HAL2     0.900000E-01   1.00800           0
     43051 MEMB     34       PPPE     H9Y      HAL2     0.900000E-01   1.00800           0
     43052 MEMB     34       PPPE     C310     CTL2    -0.180000       12.0110           0
     43053 MEMB     34       PPPE     H10X     HAL2     0.900000E-01   1.00800           0
     43054 MEMB     34       PPPE     H10Y     HAL2     0.900000E-01   1.00800           0
     43055 MEMB     34       PPPE     C311     CTL2    -0.180000       12.0110           0
     43056 MEMB     34       PPPE     H11X     HAL2     0.900000E-01   1.00800           0
     43057 MEMB     34       PPPE     H11Y     HAL2     0.900000E-01   1.00800           0
     43058 MEMB     34       PPPE     C312     CTL2    -0.180000       12.0110           0
     43059 MEMB     34       PPPE     H12X     HAL2     0.900000E-01   1.00800           0
     43060 MEMB     34       PPPE     H12Y     HAL2     0.900000E-01   1.00800           0
     43061 MEMB     34       PPPE     C313     CTL2    -0.180000       12.0110           0
     43062 MEMB     34       PPPE     H13X     HAL2     0.900000E-01   1.00800           0
     43063 MEMB     34       PPPE     H13Y     HAL2     0.900000E-01   1.00800           0
     43064 MEMB     34       PPPE     C314     CTL2    -0.180000       12.0110           0
     43065 MEMB     34       PPPE     H14X     HAL2     0.900000E-01   1.00800           0
     43066 MEMB     34       PPPE     H14Y     HAL2     0.900000E-01   1.00800           0
     43067 MEMB     34       PPPE     C315     CTL2    -0.180000       12.0110           0
     43068 MEMB     34       PPPE     H15X     HAL2     0.900000E-01   1.00800           0
     43069 MEMB     34       PPPE     H15Y     HAL2     0.900000E-01   1.00800           0
     43070 MEMB     34       PPPE     C316     CTL3    -0.270000       12.0110           0
     43071 MEMB     34       PPPE     H16X     HAL3     0.900000E-01   1.00800           0
     43072 MEMB     34       PPPE     H16Y     HAL3     0.900000E-01   1.00800           0
     43073 MEMB     34       PPPE     H16Z     HAL3     0.900000E-01   1.00800           0
     43074 MEMB     35       PPPE     N        NH3L    -0.300000       14.0070           0
     43075 MEMB     35       PPPE     HN1      HCL      0.330000       1.00800           0
     43076 MEMB     35       PPPE     HN2      HCL      0.330000       1.00800           0
     43077 MEMB     35       PPPE     HN3      HCL      0.330000       1.00800           0
     43078 MEMB     35       PPPE     C12      CTL2     0.130000       12.0110           0
     43079 MEMB     35       PPPE     H12A     HAL2     0.900000E-01   1.00800           0
     43080 MEMB     35       PPPE     H12B     HAL2     0.900000E-01   1.00800           0
     43081 MEMB     35       PPPE     C11      CTL2    -0.800000E-01   12.0110           0
     43082 MEMB     35       PPPE     H11A     HAL2     0.900000E-01   1.00800           0
     43083 MEMB     35       PPPE     H11B     HAL2     0.900000E-01   1.00800           0
     43084 MEMB     35       PPPE     P        PL        1.50000       30.9740           0
     43085 MEMB     35       PPPE     O13      O2L     -0.780000       15.9994           0
     43086 MEMB     35       PPPE     O14      O2L     -0.780000       15.9994           0
     43087 MEMB     35       PPPE     O11      OSLP    -0.570000       15.9994           0
     43088 MEMB     35       PPPE     O12      OSLP    -0.570000       15.9994           0
     43089 MEMB     35       PPPE     C1       CTL2    -0.800000E-01   12.0110           0
     43090 MEMB     35       PPPE     HA       HAL2     0.900000E-01   1.00800           0
     43091 MEMB     35       PPPE     HB       HAL2     0.900000E-01   1.00800           0
     43092 MEMB     35       PPPE     C2       CTL1     0.170000       12.0110           0
     43093 MEMB     35       PPPE     HS       HAL1     0.900000E-01   1.00800           0
     43094 MEMB     35       PPPE     O21      OSL     -0.490000       15.9994           0
     43095 MEMB     35       PPPE     C21      CL       0.900000       12.0110           0
     43096 MEMB     35       PPPE     O22      OBL     -0.630000       15.9994           0
     43097 MEMB     35       PPPE     C22      CTL2    -0.220000       12.0110           0
     43098 MEMB     35       PPPE     H2R      HAL2     0.900000E-01   1.00800           0
     43099 MEMB     35       PPPE     H2S      HAL2     0.900000E-01   1.00800           0
     43100 MEMB     35       PPPE     C3       CTL2     0.800000E-01   12.0110           0
     43101 MEMB     35       PPPE     HX       HAL2     0.900000E-01   1.00800           0
     43102 MEMB     35       PPPE     HY       HAL2     0.900000E-01   1.00800           0
     43103 MEMB     35       PPPE     O31      OSL     -0.490000       15.9994           0
     43104 MEMB     35       PPPE     C31      CL       0.900000       12.0110           0
     43105 MEMB     35       PPPE     O32      OBL     -0.630000       15.9994           0
     43106 MEMB     35       PPPE     C32      CTL2    -0.220000       12.0110           0
     43107 MEMB     35       PPPE     H2X      HAL2     0.900000E-01   1.00800           0
     43108 MEMB     35       PPPE     H2Y      HAL2     0.900000E-01   1.00800           0
     43109 MEMB     35       PPPE     C23      CTL2    -0.180000       12.0110           0
     43110 MEMB     35       PPPE     H3R      HAL2     0.900000E-01   1.00800           0
     43111 MEMB     35       PPPE     H3S      HAL2     0.900000E-01   1.00800           0
     43112 MEMB     35       PPPE     C24      CTL2    -0.180000       12.0110           0
     43113 MEMB     35       PPPE     H4R      HAL2     0.900000E-01   1.00800           0
     43114 MEMB     35       PPPE     H4S      HAL2     0.900000E-01   1.00800           0
     43115 MEMB     35       PPPE     C25      CTL2    -0.180000       12.0110           0
     43116 MEMB     35       PPPE     H5R      HAL2     0.900000E-01   1.00800           0
     43117 MEMB     35       PPPE     H5S      HAL2     0.900000E-01   1.00800           0
     43118 MEMB     35       PPPE     C26      CTL2    -0.180000       12.0110           0
     43119 MEMB     35       PPPE     H6R      HAL2     0.900000E-01   1.00800           0
     43120 MEMB     35       PPPE     H6S      HAL2     0.900000E-01   1.00800           0
     43121 MEMB     35       PPPE     C27      CTL2    -0.180000       12.0110           0
     43122 MEMB     35       PPPE     H7R      HAL2     0.900000E-01   1.00800           0
     43123 MEMB     35       PPPE     H7S      HAL2     0.900000E-01   1.00800           0
     43124 MEMB     35       PPPE     C28      CTL2    -0.180000       12.0110           0
     43125 MEMB     35       PPPE     H8R      HAL2     0.900000E-01   1.00800           0
     43126 MEMB     35       PPPE     H8S      HAL2     0.900000E-01   1.00800           0
     43127 MEMB     35       PPPE     C29      CEL1    -0.150000       12.0110           0
     43128 MEMB     35       PPPE     H91      HEL1     0.150000       1.00800           0
     43129 MEMB     35       PPPE     C210     CEL1    -0.150000       12.0110           0
     43130 MEMB     35       PPPE     H101     HEL1     0.150000       1.00800           0
     43131 MEMB     35       PPPE     C211     CTL2    -0.180000       12.0110           0
     43132 MEMB     35       PPPE     H11R     HAL2     0.900000E-01   1.00800           0
     43133 MEMB     35       PPPE     H11S     HAL2     0.900000E-01   1.00800           0
     43134 MEMB     35       PPPE     C212     CTL2    -0.180000       12.0110           0
     43135 MEMB     35       PPPE     H12R     HAL2     0.900000E-01   1.00800           0
     43136 MEMB     35       PPPE     H12S     HAL2     0.900000E-01   1.00800           0
     43137 MEMB     35       PPPE     C213     CTL2    -0.180000       12.0110           0
     43138 MEMB     35       PPPE     H13R     HAL2     0.900000E-01   1.00800           0
     43139 MEMB     35       PPPE     H13S     HAL2     0.900000E-01   1.00800           0
     43140 MEMB     35       PPPE     C214     CTL2    -0.180000       12.0110           0
     43141 MEMB     35       PPPE     H14R     HAL2     0.900000E-01   1.00800           0
     43142 MEMB     35       PPPE     H14S     HAL2     0.900000E-01   1.00800           0
     43143 MEMB     35       PPPE     C215     CTL2    -0.180000       12.0110           0
     43144 MEMB     35       PPPE     H15R     HAL2     0.900000E-01   1.00800           0
     43145 MEMB     35       PPPE     H15S     HAL2     0.900000E-01   1.00800           0
     43146 MEMB     35       PPPE     C216     CTL3    -0.270000       12.0110           0
     43147 MEMB     35       PPPE     H16R     HAL3     0.900000E-01   1.00800           0
     43148 MEMB     35       PPPE     H16S     HAL3     0.900000E-01   1.00800           0
     43149 MEMB     35       PPPE     H16T     HAL3     0.900000E-01   1.00800           0
     43150 MEMB     35       PPPE     C33      CTL2    -0.180000       12.0110           0
     43151 MEMB     35       PPPE     H3X      HAL2     0.900000E-01   1.00800           0
     43152 MEMB     35       PPPE     H3Y      HAL2     0.900000E-01   1.00800           0
     43153 MEMB     35       PPPE     C34      CTL2    -0.180000       12.0110           0
     43154 MEMB     35       PPPE     H4X      HAL2     0.900000E-01   1.00800           0
     43155 MEMB     35       PPPE     H4Y      HAL2     0.900000E-01   1.00800           0
     43156 MEMB     35       PPPE     C35      CTL2    -0.180000       12.0110           0
     43157 MEMB     35       PPPE     H5X      HAL2     0.900000E-01   1.00800           0
     43158 MEMB     35       PPPE     H5Y      HAL2     0.900000E-01   1.00800           0
     43159 MEMB     35       PPPE     C36      CTL2    -0.180000       12.0110           0
     43160 MEMB     35       PPPE     H6X      HAL2     0.900000E-01   1.00800           0
     43161 MEMB     35       PPPE     H6Y      HAL2     0.900000E-01   1.00800           0
     43162 MEMB     35       PPPE     C37      CTL2    -0.180000       12.0110           0
     43163 MEMB     35       PPPE     H7X      HAL2     0.900000E-01   1.00800           0
     43164 MEMB     35       PPPE     H7Y      HAL2     0.900000E-01   1.00800           0
     43165 MEMB     35       PPPE     C38      CTL2    -0.180000       12.0110           0
     43166 MEMB     35       PPPE     H8X      HAL2     0.900000E-01   1.00800           0
     43167 MEMB     35       PPPE     H8Y      HAL2     0.900000E-01   1.00800           0
     43168 MEMB     35       PPPE     C39      CTL2    -0.180000       12.0110           0
     43169 MEMB     35       PPPE     H9X      HAL2     0.900000E-01   1.00800           0
     43170 MEMB     35       PPPE     H9Y      HAL2     0.900000E-01   1.00800           0
     43171 MEMB     35       PPPE     C310     CTL2    -0.180000       12.0110           0
     43172 MEMB     35       PPPE     H10X     HAL2     0.900000E-01   1.00800           0
     43173 MEMB     35       PPPE     H10Y     HAL2     0.900000E-01   1.00800           0
     43174 MEMB     35       PPPE     C311     CTL2    -0.180000       12.0110           0
     43175 MEMB     35       PPPE     H11X     HAL2     0.900000E-01   1.00800           0
     43176 MEMB     35       PPPE     H11Y     HAL2     0.900000E-01   1.00800           0
     43177 MEMB     35       PPPE     C312     CTL2    -0.180000       12.0110           0
     43178 MEMB     35       PPPE     H12X     HAL2     0.900000E-01   1.00800           0
     43179 MEMB     35       PPPE     H12Y     HAL2     0.900000E-01   1.00800           0
     43180 MEMB     35       PPPE     C313     CTL2    -0.180000       12.0110           0
     43181 MEMB     35       PPPE     H13X     HAL2     0.900000E-01   1.00800           0
     43182 MEMB     35       PPPE     H13Y     HAL2     0.900000E-01   1.00800           0
     43183 MEMB     35       PPPE     C314     CTL2    -0.180000       12.0110           0
     43184 MEMB     35       PPPE     H14X     HAL2     0.900000E-01   1.00800           0
     43185 MEMB     35       PPPE     H14Y     HAL2     0.900000E-01   1.00800           0
     43186 MEMB     35       PPPE     C315     CTL2    -0.180000       12.0110           0
     43187 MEMB     35       PPPE     H15X     HAL2     0.900000E-01   1.00800           0
     43188 MEMB     35       PPPE     H15Y     HAL2     0.900000E-01   1.00800           0
     43189 MEMB     35       PPPE     C316     CTL3    -0.270000       12.0110           0
     43190 MEMB     35       PPPE     H16X     HAL3     0.900000E-01   1.00800           0
     43191 MEMB     35       PPPE     H16Y     HAL3     0.900000E-01   1.00800           0
     43192 MEMB     35       PPPE     H16Z     HAL3     0.900000E-01   1.00800           0
     43193 MEMB     36       PVPG     C13      CTL2     0.500000E-01   12.0110           0
     43194 MEMB     36       PVPG     H13A     HAL2     0.900000E-01   1.00800           0
     43195 MEMB     36       PVPG     H13B     HAL2     0.900000E-01   1.00800           0
     43196 MEMB     36       PVPG     OC3      OHL     -0.650000       15.9994           0
     43197 MEMB     36       PVPG     HO3      HOL      0.420000       1.00800           0
     43198 MEMB     36       PVPG     C12      CTL1     0.140000       12.0110           0
     43199 MEMB     36       PVPG     H12A     HAL1     0.900000E-01   1.00800           0
     43200 MEMB     36       PVPG     OC2      OHL     -0.650000       15.9994           0
     43201 MEMB     36       PVPG     HO2      HOL      0.420000       1.00800           0
     43202 MEMB     36       PVPG     C11      CTL2    -0.800000E-01   12.0110           0
     43203 MEMB     36       PVPG     H11A     HAL2     0.900000E-01   1.00800           0
     43204 MEMB     36       PVPG     H11B     HAL2     0.900000E-01   1.00800           0
     43205 MEMB     36       PVPG     P        PL        1.50000       30.9740           0
     43206 MEMB     36       PVPG     O13      O2L     -0.780000       15.9994           0
     43207 MEMB     36       PVPG     O14      O2L     -0.780000       15.9994           0
     43208 MEMB     36       PVPG     O12      OSLP    -0.570000       15.9994           0
     43209 MEMB     36       PVPG     O11      OSLP    -0.570000       15.9994           0
     43210 MEMB     36       PVPG     C1       CTL2    -0.800000E-01   12.0110           0
     43211 MEMB     36       PVPG     HA       HAL2     0.900000E-01   1.00800           0
     43212 MEMB     36       PVPG     HB       HAL2     0.900000E-01   1.00800           0
     43213 MEMB     36       PVPG     C2       CTL1     0.170000       12.0110           0
     43214 MEMB     36       PVPG     HS       HAL1     0.900000E-01   1.00800           0
     43215 MEMB     36       PVPG     O21      OSL     -0.490000       15.9994           0
     43216 MEMB     36       PVPG     C21      CL       0.900000       12.0110           0
     43217 MEMB     36       PVPG     O22      OBL     -0.630000       15.9994           0
     43218 MEMB     36       PVPG     C22      CTL2    -0.220000       12.0110           0
     43219 MEMB     36       PVPG     H2R      HAL2     0.900000E-01   1.00800           0
     43220 MEMB     36       PVPG     H2S      HAL2     0.900000E-01   1.00800           0
     43221 MEMB     36       PVPG     C3       CTL2     0.800000E-01   12.0110           0
     43222 MEMB     36       PVPG     HX       HAL2     0.900000E-01   1.00800           0
     43223 MEMB     36       PVPG     HY       HAL2     0.900000E-01   1.00800           0
     43224 MEMB     36       PVPG     O31      OSL     -0.490000       15.9994           0
     43225 MEMB     36       PVPG     C31      CL       0.900000       12.0110           0
     43226 MEMB     36       PVPG     O32      OBL     -0.630000       15.9994           0
     43227 MEMB     36       PVPG     C32      CTL2    -0.220000       12.0110           0
     43228 MEMB     36       PVPG     H2X      HAL2     0.900000E-01   1.00800           0
     43229 MEMB     36       PVPG     H2Y      HAL2     0.900000E-01   1.00800           0
     43230 MEMB     36       PVPG     C23      CTL2    -0.180000       12.0110           0
     43231 MEMB     36       PVPG     H3R      HAL2     0.900000E-01   1.00800           0
     43232 MEMB     36       PVPG     H3S      HAL2     0.900000E-01   1.00800           0
     43233 MEMB     36       PVPG     C24      CTL2    -0.180000       12.0110           0
     43234 MEMB     36       PVPG     H4R      HAL2     0.900000E-01   1.00800           0
     43235 MEMB     36       PVPG     H4S      HAL2     0.900000E-01   1.00800           0
     43236 MEMB     36       PVPG     C25      CTL2    -0.180000       12.0110           0
     43237 MEMB     36       PVPG     H5R      HAL2     0.900000E-01   1.00800           0
     43238 MEMB     36       PVPG     H5S      HAL2     0.900000E-01   1.00800           0
     43239 MEMB     36       PVPG     C26      CTL2    -0.180000       12.0110           0
     43240 MEMB     36       PVPG     H6R      HAL2     0.900000E-01   1.00800           0
     43241 MEMB     36       PVPG     H6S      HAL2     0.900000E-01   1.00800           0
     43242 MEMB     36       PVPG     C27      CTL2    -0.180000       12.0110           0
     43243 MEMB     36       PVPG     H7R      HAL2     0.900000E-01   1.00800           0
     43244 MEMB     36       PVPG     H7S      HAL2     0.900000E-01   1.00800           0
     43245 MEMB     36       PVPG     C28      CTL2    -0.180000       12.0110           0
     43246 MEMB     36       PVPG     H8R      HAL2     0.900000E-01   1.00800           0
     43247 MEMB     36       PVPG     H8S      HAL2     0.900000E-01   1.00800           0
     43248 MEMB     36       PVPG     C29      CTL2    -0.180000       12.0110           0
     43249 MEMB     36       PVPG     H9R      HAL2     0.900000E-01   1.00800           0
     43250 MEMB     36       PVPG     H9S      HAL2     0.900000E-01   1.00800           0
     43251 MEMB     36       PVPG     C210     CTL2    -0.180000       12.0110           0
     43252 MEMB     36       PVPG     H10R     HAL2     0.900000E-01   1.00800           0
     43253 MEMB     36       PVPG     H10S     HAL2     0.900000E-01   1.00800           0
     43254 MEMB     36       PVPG     C211     CEL1    -0.150000       12.0110           0
     43255 MEMB     36       PVPG     H111     HEL1     0.150000       1.00800           0
     43256 MEMB     36       PVPG     C212     CEL1    -0.150000       12.0110           0
     43257 MEMB     36       PVPG     H121     HEL1     0.150000       1.00800           0
     43258 MEMB     36       PVPG     C213     CTL2    -0.180000       12.0110           0
     43259 MEMB     36       PVPG     H13R     HAL2     0.900000E-01   1.00800           0
     43260 MEMB     36       PVPG     H13S     HAL2     0.900000E-01   1.00800           0
     43261 MEMB     36       PVPG     C214     CTL2    -0.180000       12.0110           0
     43262 MEMB     36       PVPG     H14R     HAL2     0.900000E-01   1.00800           0
     43263 MEMB     36       PVPG     H14S     HAL2     0.900000E-01   1.00800           0
     43264 MEMB     36       PVPG     C215     CTL2    -0.180000       12.0110           0
     43265 MEMB     36       PVPG     H15R     HAL2     0.900000E-01   1.00800           0
     43266 MEMB     36       PVPG     H15S     HAL2     0.900000E-01   1.00800           0
     43267 MEMB     36       PVPG     C216     CTL2    -0.180000       12.0110           0
     43268 MEMB     36       PVPG     H16R     HAL2     0.900000E-01   1.00800           0
     43269 MEMB     36       PVPG     H16S     HAL2     0.900000E-01   1.00800           0
     43270 MEMB     36       PVPG     C217     CTL2    -0.180000       12.0110           0
     43271 MEMB     36       PVPG     H17R     HAL2     0.900000E-01   1.00800           0
     43272 MEMB     36       PVPG     H17S     HAL2     0.900000E-01   1.00800           0
     43273 MEMB     36       PVPG     C218     CTL3    -0.270000       12.0110           0
     43274 MEMB     36       PVPG     H18R     HAL3     0.900000E-01   1.00800           0
     43275 MEMB     36       PVPG     H18S     HAL3     0.900000E-01   1.00800           0
     43276 MEMB     36       PVPG     H18T     HAL3     0.900000E-01   1.00800           0
     43277 MEMB     36       PVPG     C33      CTL2    -0.180000       12.0110           0
     43278 MEMB     36       PVPG     H3X      HAL2     0.900000E-01   1.00800           0
     43279 MEMB     36       PVPG     H3Y      HAL2     0.900000E-01   1.00800           0
     43280 MEMB     36       PVPG     C34      CTL2    -0.180000       12.0110           0
     43281 MEMB     36       PVPG     H4X      HAL2     0.900000E-01   1.00800           0
     43282 MEMB     36       PVPG     H4Y      HAL2     0.900000E-01   1.00800           0
     43283 MEMB     36       PVPG     C35      CTL2    -0.180000       12.0110           0
     43284 MEMB     36       PVPG     H5X      HAL2     0.900000E-01   1.00800           0
     43285 MEMB     36       PVPG     H5Y      HAL2     0.900000E-01   1.00800           0
     43286 MEMB     36       PVPG     C36      CTL2    -0.180000       12.0110           0
     43287 MEMB     36       PVPG     H6X      HAL2     0.900000E-01   1.00800           0
     43288 MEMB     36       PVPG     H6Y      HAL2     0.900000E-01   1.00800           0
     43289 MEMB     36       PVPG     C37      CTL2    -0.180000       12.0110           0
     43290 MEMB     36       PVPG     H7X      HAL2     0.900000E-01   1.00800           0
     43291 MEMB     36       PVPG     H7Y      HAL2     0.900000E-01   1.00800           0
     43292 MEMB     36       PVPG     C38      CTL2    -0.180000       12.0110           0
     43293 MEMB     36       PVPG     H8X      HAL2     0.900000E-01   1.00800           0
     43294 MEMB     36       PVPG     H8Y      HAL2     0.900000E-01   1.00800           0
     43295 MEMB     36       PVPG     C39      CTL2    -0.180000       12.0110           0
     43296 MEMB     36       PVPG     H9X      HAL2     0.900000E-01   1.00800           0
     43297 MEMB     36       PVPG     H9Y      HAL2     0.900000E-01   1.00800           0
     43298 MEMB     36       PVPG     C310     CTL2    -0.180000       12.0110           0
     43299 MEMB     36       PVPG     H10X     HAL2     0.900000E-01   1.00800           0
     43300 MEMB     36       PVPG     H10Y     HAL2     0.900000E-01   1.00800           0
     43301 MEMB     36       PVPG     C311     CTL2    -0.180000       12.0110           0
     43302 MEMB     36       PVPG     H11X     HAL2     0.900000E-01   1.00800           0
     43303 MEMB     36       PVPG     H11Y     HAL2     0.900000E-01   1.00800           0
     43304 MEMB     36       PVPG     C312     CTL2    -0.180000       12.0110           0
     43305 MEMB     36       PVPG     H12X     HAL2     0.900000E-01   1.00800           0
     43306 MEMB     36       PVPG     H12Y     HAL2     0.900000E-01   1.00800           0
     43307 MEMB     36       PVPG     C313     CTL2    -0.180000       12.0110           0
     43308 MEMB     36       PVPG     H13X     HAL2     0.900000E-01   1.00800           0
     43309 MEMB     36       PVPG     H13Y     HAL2     0.900000E-01   1.00800           0
     43310 MEMB     36       PVPG     C314     CTL2    -0.180000       12.0110           0
     43311 MEMB     36       PVPG     H14X     HAL2     0.900000E-01   1.00800           0
     43312 MEMB     36       PVPG     H14Y     HAL2     0.900000E-01   1.00800           0
     43313 MEMB     36       PVPG     C315     CTL2    -0.180000       12.0110           0
     43314 MEMB     36       PVPG     H15X     HAL2     0.900000E-01   1.00800           0
     43315 MEMB     36       PVPG     H15Y     HAL2     0.900000E-01   1.00800           0
     43316 MEMB     36       PVPG     C316     CTL3    -0.270000       12.0110           0
     43317 MEMB     36       PVPG     H16X     HAL3     0.900000E-01   1.00800           0
     43318 MEMB     36       PVPG     H16Y     HAL3     0.900000E-01   1.00800           0
     43319 MEMB     36       PVPG     H16Z     HAL3     0.900000E-01   1.00800           0
     43320 MEMB     37       PVPG     C13      CTL2     0.500000E-01   12.0110           0
     43321 MEMB     37       PVPG     H13A     HAL2     0.900000E-01   1.00800           0
     43322 MEMB     37       PVPG     H13B     HAL2     0.900000E-01   1.00800           0
     43323 MEMB     37       PVPG     OC3      OHL     -0.650000       15.9994           0
     43324 MEMB     37       PVPG     HO3      HOL      0.420000       1.00800           0
     43325 MEMB     37       PVPG     C12      CTL1     0.140000       12.0110           0
     43326 MEMB     37       PVPG     H12A     HAL1     0.900000E-01   1.00800           0
     43327 MEMB     37       PVPG     OC2      OHL     -0.650000       15.9994           0
     43328 MEMB     37       PVPG     HO2      HOL      0.420000       1.00800           0
     43329 MEMB     37       PVPG     C11      CTL2    -0.800000E-01   12.0110           0
     43330 MEMB     37       PVPG     H11A     HAL2     0.900000E-01   1.00800           0
     43331 MEMB     37       PVPG     H11B     HAL2     0.900000E-01   1.00800           0
     43332 MEMB     37       PVPG     P        PL        1.50000       30.9740           0
     43333 MEMB     37       PVPG     O13      O2L     -0.780000       15.9994           0
     43334 MEMB     37       PVPG     O14      O2L     -0.780000       15.9994           0
     43335 MEMB     37       PVPG     O12      OSLP    -0.570000       15.9994           0
     43336 MEMB     37       PVPG     O11      OSLP    -0.570000       15.9994           0
     43337 MEMB     37       PVPG     C1       CTL2    -0.800000E-01   12.0110           0
     43338 MEMB     37       PVPG     HA       HAL2     0.900000E-01   1.00800           0
     43339 MEMB     37       PVPG     HB       HAL2     0.900000E-01   1.00800           0
     43340 MEMB     37       PVPG     C2       CTL1     0.170000       12.0110           0
     43341 MEMB     37       PVPG     HS       HAL1     0.900000E-01   1.00800           0
     43342 MEMB     37       PVPG     O21      OSL     -0.490000       15.9994           0
     43343 MEMB     37       PVPG     C21      CL       0.900000       12.0110           0
     43344 MEMB     37       PVPG     O22      OBL     -0.630000       15.9994           0
     43345 MEMB     37       PVPG     C22      CTL2    -0.220000       12.0110           0
     43346 MEMB     37       PVPG     H2R      HAL2     0.900000E-01   1.00800           0
     43347 MEMB     37       PVPG     H2S      HAL2     0.900000E-01   1.00800           0
     43348 MEMB     37       PVPG     C3       CTL2     0.800000E-01   12.0110           0
     43349 MEMB     37       PVPG     HX       HAL2     0.900000E-01   1.00800           0
     43350 MEMB     37       PVPG     HY       HAL2     0.900000E-01   1.00800           0
     43351 MEMB     37       PVPG     O31      OSL     -0.490000       15.9994           0
     43352 MEMB     37       PVPG     C31      CL       0.900000       12.0110           0
     43353 MEMB     37       PVPG     O32      OBL     -0.630000       15.9994           0
     43354 MEMB     37       PVPG     C32      CTL2    -0.220000       12.0110           0
     43355 MEMB     37       PVPG     H2X      HAL2     0.900000E-01   1.00800           0
     43356 MEMB     37       PVPG     H2Y      HAL2     0.900000E-01   1.00800           0
     43357 MEMB     37       PVPG     C23      CTL2    -0.180000       12.0110           0
     43358 MEMB     37       PVPG     H3R      HAL2     0.900000E-01   1.00800           0
     43359 MEMB     37       PVPG     H3S      HAL2     0.900000E-01   1.00800           0
     43360 MEMB     37       PVPG     C24      CTL2    -0.180000       12.0110           0
     43361 MEMB     37       PVPG     H4R      HAL2     0.900000E-01   1.00800           0
     43362 MEMB     37       PVPG     H4S      HAL2     0.900000E-01   1.00800           0
     43363 MEMB     37       PVPG     C25      CTL2    -0.180000       12.0110           0
     43364 MEMB     37       PVPG     H5R      HAL2     0.900000E-01   1.00800           0
     43365 MEMB     37       PVPG     H5S      HAL2     0.900000E-01   1.00800           0
     43366 MEMB     37       PVPG     C26      CTL2    -0.180000       12.0110           0
     43367 MEMB     37       PVPG     H6R      HAL2     0.900000E-01   1.00800           0
     43368 MEMB     37       PVPG     H6S      HAL2     0.900000E-01   1.00800           0
     43369 MEMB     37       PVPG     C27      CTL2    -0.180000       12.0110           0
     43370 MEMB     37       PVPG     H7R      HAL2     0.900000E-01   1.00800           0
     43371 MEMB     37       PVPG     H7S      HAL2     0.900000E-01   1.00800           0
     43372 MEMB     37       PVPG     C28      CTL2    -0.180000       12.0110           0
     43373 MEMB     37       PVPG     H8R      HAL2     0.900000E-01   1.00800           0
     43374 MEMB     37       PVPG     H8S      HAL2     0.900000E-01   1.00800           0
     43375 MEMB     37       PVPG     C29      CTL2    -0.180000       12.0110           0
     43376 MEMB     37       PVPG     H9R      HAL2     0.900000E-01   1.00800           0
     43377 MEMB     37       PVPG     H9S      HAL2     0.900000E-01   1.00800           0
     43378 MEMB     37       PVPG     C210     CTL2    -0.180000       12.0110           0
     43379 MEMB     37       PVPG     H10R     HAL2     0.900000E-01   1.00800           0
     43380 MEMB     37       PVPG     H10S     HAL2     0.900000E-01   1.00800           0
     43381 MEMB     37       PVPG     C211     CEL1    -0.150000       12.0110           0
     43382 MEMB     37       PVPG     H111     HEL1     0.150000       1.00800           0
     43383 MEMB     37       PVPG     C212     CEL1    -0.150000       12.0110           0
     43384 MEMB     37       PVPG     H121     HEL1     0.150000       1.00800           0
     43385 MEMB     37       PVPG     C213     CTL2    -0.180000       12.0110           0
     43386 MEMB     37       PVPG     H13R     HAL2     0.900000E-01   1.00800           0
     43387 MEMB     37       PVPG     H13S     HAL2     0.900000E-01   1.00800           0
     43388 MEMB     37       PVPG     C214     CTL2    -0.180000       12.0110           0
     43389 MEMB     37       PVPG     H14R     HAL2     0.900000E-01   1.00800           0
     43390 MEMB     37       PVPG     H14S     HAL2     0.900000E-01   1.00800           0
     43391 MEMB     37       PVPG     C215     CTL2    -0.180000       12.0110           0
     43392 MEMB     37       PVPG     H15R     HAL2     0.900000E-01   1.00800           0
     43393 MEMB     37       PVPG     H15S     HAL2     0.900000E-01   1.00800           0
     43394 MEMB     37       PVPG     C216     CTL2    -0.180000       12.0110           0
     43395 MEMB     37       PVPG     H16R     HAL2     0.900000E-01   1.00800           0
     43396 MEMB     37       PVPG     H16S     HAL2     0.900000E-01   1.00800           0
     43397 MEMB     37       PVPG     C217     CTL2    -0.180000       12.0110           0
     43398 MEMB     37       PVPG     H17R     HAL2     0.900000E-01   1.00800           0
     43399 MEMB     37       PVPG     H17S     HAL2     0.900000E-01   1.00800           0
     43400 MEMB     37       PVPG     C218     CTL3    -0.270000       12.0110           0
     43401 MEMB     37       PVPG     H18R     HAL3     0.900000E-01   1.00800           0
     43402 MEMB     37       PVPG     H18S     HAL3     0.900000E-01   1.00800           0
     43403 MEMB     37       PVPG     H18T     HAL3     0.900000E-01   1.00800           0
     43404 MEMB     37       PVPG     C33      CTL2    -0.180000       12.0110           0
     43405 MEMB     37       PVPG     H3X      HAL2     0.900000E-01   1.00800           0
     43406 MEMB     37       PVPG     H3Y      HAL2     0.900000E-01   1.00800           0
     43407 MEMB     37       PVPG     C34      CTL2    -0.180000       12.0110           0
     43408 MEMB     37       PVPG     H4X      HAL2     0.900000E-01   1.00800           0
     43409 MEMB     37       PVPG     H4Y      HAL2     0.900000E-01   1.00800           0
     43410 MEMB     37       PVPG     C35      CTL2    -0.180000       12.0110           0
     43411 MEMB     37       PVPG     H5X      HAL2     0.900000E-01   1.00800           0
     43412 MEMB     37       PVPG     H5Y      HAL2     0.900000E-01   1.00800           0
     43413 MEMB     37       PVPG     C36      CTL2    -0.180000       12.0110           0
     43414 MEMB     37       PVPG     H6X      HAL2     0.900000E-01   1.00800           0
     43415 MEMB     37       PVPG     H6Y      HAL2     0.900000E-01   1.00800           0
     43416 MEMB     37       PVPG     C37      CTL2    -0.180000       12.0110           0
     43417 MEMB     37       PVPG     H7X      HAL2     0.900000E-01   1.00800           0
     43418 MEMB     37       PVPG     H7Y      HAL2     0.900000E-01   1.00800           0
     43419 MEMB     37       PVPG     C38      CTL2    -0.180000       12.0110           0
     43420 MEMB     37       PVPG     H8X      HAL2     0.900000E-01   1.00800           0
     43421 MEMB     37       PVPG     H8Y      HAL2     0.900000E-01   1.00800           0
     43422 MEMB     37       PVPG     C39      CTL2    -0.180000       12.0110           0
     43423 MEMB     37       PVPG     H9X      HAL2     0.900000E-01   1.00800           0
     43424 MEMB     37       PVPG     H9Y      HAL2     0.900000E-01   1.00800           0
     43425 MEMB     37       PVPG     C310     CTL2    -0.180000       12.0110           0
     43426 MEMB     37       PVPG     H10X     HAL2     0.900000E-01   1.00800           0
     43427 MEMB     37       PVPG     H10Y     HAL2     0.900000E-01   1.00800           0
     43428 MEMB     37       PVPG     C311     CTL2    -0.180000       12.0110           0
     43429 MEMB     37       PVPG     H11X     HAL2     0.900000E-01   1.00800           0
     43430 MEMB     37       PVPG     H11Y     HAL2     0.900000E-01   1.00800           0
     43431 MEMB     37       PVPG     C312     CTL2    -0.180000       12.0110           0
     43432 MEMB     37       PVPG     H12X     HAL2     0.900000E-01   1.00800           0
     43433 MEMB     37       PVPG     H12Y     HAL2     0.900000E-01   1.00800           0
     43434 MEMB     37       PVPG     C313     CTL2    -0.180000       12.0110           0
     43435 MEMB     37       PVPG     H13X     HAL2     0.900000E-01   1.00800           0
     43436 MEMB     37       PVPG     H13Y     HAL2     0.900000E-01   1.00800           0
     43437 MEMB     37       PVPG     C314     CTL2    -0.180000       12.0110           0
     43438 MEMB     37       PVPG     H14X     HAL2     0.900000E-01   1.00800           0
     43439 MEMB     37       PVPG     H14Y     HAL2     0.900000E-01   1.00800           0
     43440 MEMB     37       PVPG     C315     CTL2    -0.180000       12.0110           0
     43441 MEMB     37       PVPG     H15X     HAL2     0.900000E-01   1.00800           0
     43442 MEMB     37       PVPG     H15Y     HAL2     0.900000E-01   1.00800           0
     43443 MEMB     37       PVPG     C316     CTL3    -0.270000       12.0110           0
     43444 MEMB     37       PVPG     H16X     HAL3     0.900000E-01   1.00800           0
     43445 MEMB     37       PVPG     H16Y     HAL3     0.900000E-01   1.00800           0
     43446 MEMB     37       PVPG     H16Z     HAL3     0.900000E-01   1.00800           0
     43447 MEMB     38       PPPE     N        NH3L    -0.300000       14.0070           0
     43448 MEMB     38       PPPE     HN1      HCL      0.330000       1.00800           0
     43449 MEMB     38       PPPE     HN2      HCL      0.330000       1.00800           0
     43450 MEMB     38       PPPE     HN3      HCL      0.330000       1.00800           0
     43451 MEMB     38       PPPE     C12      CTL2     0.130000       12.0110           0
     43452 MEMB     38       PPPE     H12A     HAL2     0.900000E-01   1.00800           0
     43453 MEMB     38       PPPE     H12B     HAL2     0.900000E-01   1.00800           0
     43454 MEMB     38       PPPE     C11      CTL2    -0.800000E-01   12.0110           0
     43455 MEMB     38       PPPE     H11A     HAL2     0.900000E-01   1.00800           0
     43456 MEMB     38       PPPE     H11B     HAL2     0.900000E-01   1.00800           0
     43457 MEMB     38       PPPE     P        PL        1.50000       30.9740           0
     43458 MEMB     38       PPPE     O13      O2L     -0.780000       15.9994           0
     43459 MEMB     38       PPPE     O14      O2L     -0.780000       15.9994           0
     43460 MEMB     38       PPPE     O11      OSLP    -0.570000       15.9994           0
     43461 MEMB     38       PPPE     O12      OSLP    -0.570000       15.9994           0
     43462 MEMB     38       PPPE     C1       CTL2    -0.800000E-01   12.0110           0
     43463 MEMB     38       PPPE     HA       HAL2     0.900000E-01   1.00800           0
     43464 MEMB     38       PPPE     HB       HAL2     0.900000E-01   1.00800           0
     43465 MEMB     38       PPPE     C2       CTL1     0.170000       12.0110           0
     43466 MEMB     38       PPPE     HS       HAL1     0.900000E-01   1.00800           0
     43467 MEMB     38       PPPE     O21      OSL     -0.490000       15.9994           0
     43468 MEMB     38       PPPE     C21      CL       0.900000       12.0110           0
     43469 MEMB     38       PPPE     O22      OBL     -0.630000       15.9994           0
     43470 MEMB     38       PPPE     C22      CTL2    -0.220000       12.0110           0
     43471 MEMB     38       PPPE     H2R      HAL2     0.900000E-01   1.00800           0
     43472 MEMB     38       PPPE     H2S      HAL2     0.900000E-01   1.00800           0
     43473 MEMB     38       PPPE     C3       CTL2     0.800000E-01   12.0110           0
     43474 MEMB     38       PPPE     HX       HAL2     0.900000E-01   1.00800           0
     43475 MEMB     38       PPPE     HY       HAL2     0.900000E-01   1.00800           0
     43476 MEMB     38       PPPE     O31      OSL     -0.490000       15.9994           0
     43477 MEMB     38       PPPE     C31      CL       0.900000       12.0110           0
     43478 MEMB     38       PPPE     O32      OBL     -0.630000       15.9994           0
     43479 MEMB     38       PPPE     C32      CTL2    -0.220000       12.0110           0
     43480 MEMB     38       PPPE     H2X      HAL2     0.900000E-01   1.00800           0
     43481 MEMB     38       PPPE     H2Y      HAL2     0.900000E-01   1.00800           0
     43482 MEMB     38       PPPE     C23      CTL2    -0.180000       12.0110           0
     43483 MEMB     38       PPPE     H3R      HAL2     0.900000E-01   1.00800           0
     43484 MEMB     38       PPPE     H3S      HAL2     0.900000E-01   1.00800           0
     43485 MEMB     38       PPPE     C24      CTL2    -0.180000       12.0110           0
     43486 MEMB     38       PPPE     H4R      HAL2     0.900000E-01   1.00800           0
     43487 MEMB     38       PPPE     H4S      HAL2     0.900000E-01   1.00800           0
     43488 MEMB     38       PPPE     C25      CTL2    -0.180000       12.0110           0
     43489 MEMB     38       PPPE     H5R      HAL2     0.900000E-01   1.00800           0
     43490 MEMB     38       PPPE     H5S      HAL2     0.900000E-01   1.00800           0
     43491 MEMB     38       PPPE     C26      CTL2    -0.180000       12.0110           0
     43492 MEMB     38       PPPE     H6R      HAL2     0.900000E-01   1.00800           0
     43493 MEMB     38       PPPE     H6S      HAL2     0.900000E-01   1.00800           0
     43494 MEMB     38       PPPE     C27      CTL2    -0.180000       12.0110           0
     43495 MEMB     38       PPPE     H7R      HAL2     0.900000E-01   1.00800           0
     43496 MEMB     38       PPPE     H7S      HAL2     0.900000E-01   1.00800           0
     43497 MEMB     38       PPPE     C28      CTL2    -0.180000       12.0110           0
     43498 MEMB     38       PPPE     H8R      HAL2     0.900000E-01   1.00800           0
     43499 MEMB     38       PPPE     H8S      HAL2     0.900000E-01   1.00800           0
     43500 MEMB     38       PPPE     C29      CEL1    -0.150000       12.0110           0
     43501 MEMB     38       PPPE     H91      HEL1     0.150000       1.00800           0
     43502 MEMB     38       PPPE     C210     CEL1    -0.150000       12.0110           0
     43503 MEMB     38       PPPE     H101     HEL1     0.150000       1.00800           0
     43504 MEMB     38       PPPE     C211     CTL2    -0.180000       12.0110           0
     43505 MEMB     38       PPPE     H11R     HAL2     0.900000E-01   1.00800           0
     43506 MEMB     38       PPPE     H11S     HAL2     0.900000E-01   1.00800           0
     43507 MEMB     38       PPPE     C212     CTL2    -0.180000       12.0110           0
     43508 MEMB     38       PPPE     H12R     HAL2     0.900000E-01   1.00800           0
     43509 MEMB     38       PPPE     H12S     HAL2     0.900000E-01   1.00800           0
     43510 MEMB     38       PPPE     C213     CTL2    -0.180000       12.0110           0
     43511 MEMB     38       PPPE     H13R     HAL2     0.900000E-01   1.00800           0
     43512 MEMB     38       PPPE     H13S     HAL2     0.900000E-01   1.00800           0
     43513 MEMB     38       PPPE     C214     CTL2    -0.180000       12.0110           0
     43514 MEMB     38       PPPE     H14R     HAL2     0.900000E-01   1.00800           0
     43515 MEMB     38       PPPE     H14S     HAL2     0.900000E-01   1.00800           0
     43516 MEMB     38       PPPE     C215     CTL2    -0.180000       12.0110           0
     43517 MEMB     38       PPPE     H15R     HAL2     0.900000E-01   1.00800           0
     43518 MEMB     38       PPPE     H15S     HAL2     0.900000E-01   1.00800           0
     43519 MEMB     38       PPPE     C216     CTL3    -0.270000       12.0110           0
     43520 MEMB     38       PPPE     H16R     HAL3     0.900000E-01   1.00800           0
     43521 MEMB     38       PPPE     H16S     HAL3     0.900000E-01   1.00800           0
     43522 MEMB     38       PPPE     H16T     HAL3     0.900000E-01   1.00800           0
     43523 MEMB     38       PPPE     C33      CTL2    -0.180000       12.0110           0
     43524 MEMB     38       PPPE     H3X      HAL2     0.900000E-01   1.00800           0
     43525 MEMB     38       PPPE     H3Y      HAL2     0.900000E-01   1.00800           0
     43526 MEMB     38       PPPE     C34      CTL2    -0.180000       12.0110           0
     43527 MEMB     38       PPPE     H4X      HAL2     0.900000E-01   1.00800           0
     43528 MEMB     38       PPPE     H4Y      HAL2     0.900000E-01   1.00800           0
     43529 MEMB     38       PPPE     C35      CTL2    -0.180000       12.0110           0
     43530 MEMB     38       PPPE     H5X      HAL2     0.900000E-01   1.00800           0
     43531 MEMB     38       PPPE     H5Y      HAL2     0.900000E-01   1.00800           0
     43532 MEMB     38       PPPE     C36      CTL2    -0.180000       12.0110           0
     43533 MEMB     38       PPPE     H6X      HAL2     0.900000E-01   1.00800           0
     43534 MEMB     38       PPPE     H6Y      HAL2     0.900000E-01   1.00800           0
     43535 MEMB     38       PPPE     C37      CTL2    -0.180000       12.0110           0
     43536 MEMB     38       PPPE     H7X      HAL2     0.900000E-01   1.00800           0
     43537 MEMB     38       PPPE     H7Y      HAL2     0.900000E-01   1.00800           0
     43538 MEMB     38       PPPE     C38      CTL2    -0.180000       12.0110           0
     43539 MEMB     38       PPPE     H8X      HAL2     0.900000E-01   1.00800           0
     43540 MEMB     38       PPPE     H8Y      HAL2     0.900000E-01   1.00800           0
     43541 MEMB     38       PPPE     C39      CTL2    -0.180000       12.0110           0
     43542 MEMB     38       PPPE     H9X      HAL2     0.900000E-01   1.00800           0
     43543 MEMB     38       PPPE     H9Y      HAL2     0.900000E-01   1.00800           0
     43544 MEMB     38       PPPE     C310     CTL2    -0.180000       12.0110           0
     43545 MEMB     38       PPPE     H10X     HAL2     0.900000E-01   1.00800           0
     43546 MEMB     38       PPPE     H10Y     HAL2     0.900000E-01   1.00800           0
     43547 MEMB     38       PPPE     C311     CTL2    -0.180000       12.0110           0
     43548 MEMB     38       PPPE     H11X     HAL2     0.900000E-01   1.00800           0
     43549 MEMB     38       PPPE     H11Y     HAL2     0.900000E-01   1.00800           0
     43550 MEMB     38       PPPE     C312     CTL2    -0.180000       12.0110           0
     43551 MEMB     38       PPPE     H12X     HAL2     0.900000E-01   1.00800           0
     43552 MEMB     38       PPPE     H12Y     HAL2     0.900000E-01   1.00800           0
     43553 MEMB     38       PPPE     C313     CTL2    -0.180000       12.0110           0
     43554 MEMB     38       PPPE     H13X     HAL2     0.900000E-01   1.00800           0
     43555 MEMB     38       PPPE     H13Y     HAL2     0.900000E-01   1.00800           0
     43556 MEMB     38       PPPE     C314     CTL2    -0.180000       12.0110           0
     43557 MEMB     38       PPPE     H14X     HAL2     0.900000E-01   1.00800           0
     43558 MEMB     38       PPPE     H14Y     HAL2     0.900000E-01   1.00800           0
     43559 MEMB     38       PPPE     C315     CTL2    -0.180000       12.0110           0
     43560 MEMB     38       PPPE     H15X     HAL2     0.900000E-01   1.00800           0
     43561 MEMB     38       PPPE     H15Y     HAL2     0.900000E-01   1.00800           0
     43562 MEMB     38       PPPE     C316     CTL3    -0.270000       12.0110           0
     43563 MEMB     38       PPPE     H16X     HAL3     0.900000E-01   1.00800           0
     43564 MEMB     38       PPPE     H16Y     HAL3     0.900000E-01   1.00800           0
     43565 MEMB     38       PPPE     H16Z     HAL3     0.900000E-01   1.00800           0
     43566 MEMB     39       PVPG     C13      CTL2     0.500000E-01   12.0110           0
     43567 MEMB     39       PVPG     H13A     HAL2     0.900000E-01   1.00800           0
     43568 MEMB     39       PVPG     H13B     HAL2     0.900000E-01   1.00800           0
     43569 MEMB     39       PVPG     OC3      OHL     -0.650000       15.9994           0
     43570 MEMB     39       PVPG     HO3      HOL      0.420000       1.00800           0
     43571 MEMB     39       PVPG     C12      CTL1     0.140000       12.0110           0
     43572 MEMB     39       PVPG     H12A     HAL1     0.900000E-01   1.00800           0
     43573 MEMB     39       PVPG     OC2      OHL     -0.650000       15.9994           0
     43574 MEMB     39       PVPG     HO2      HOL      0.420000       1.00800           0
     43575 MEMB     39       PVPG     C11      CTL2    -0.800000E-01   12.0110           0
     43576 MEMB     39       PVPG     H11A     HAL2     0.900000E-01   1.00800           0
     43577 MEMB     39       PVPG     H11B     HAL2     0.900000E-01   1.00800           0
     43578 MEMB     39       PVPG     P        PL        1.50000       30.9740           0
     43579 MEMB     39       PVPG     O13      O2L     -0.780000       15.9994           0
     43580 MEMB     39       PVPG     O14      O2L     -0.780000       15.9994           0
     43581 MEMB     39       PVPG     O12      OSLP    -0.570000       15.9994           0
     43582 MEMB     39       PVPG     O11      OSLP    -0.570000       15.9994           0
     43583 MEMB     39       PVPG     C1       CTL2    -0.800000E-01   12.0110           0
     43584 MEMB     39       PVPG     HA       HAL2     0.900000E-01   1.00800           0
     43585 MEMB     39       PVPG     HB       HAL2     0.900000E-01   1.00800           0
     43586 MEMB     39       PVPG     C2       CTL1     0.170000       12.0110           0
     43587 MEMB     39       PVPG     HS       HAL1     0.900000E-01   1.00800           0
     43588 MEMB     39       PVPG     O21      OSL     -0.490000       15.9994           0
     43589 MEMB     39       PVPG     C21      CL       0.900000       12.0110           0
     43590 MEMB     39       PVPG     O22      OBL     -0.630000       15.9994           0
     43591 MEMB     39       PVPG     C22      CTL2    -0.220000       12.0110           0
     43592 MEMB     39       PVPG     H2R      HAL2     0.900000E-01   1.00800           0
     43593 MEMB     39       PVPG     H2S      HAL2     0.900000E-01   1.00800           0
     43594 MEMB     39       PVPG     C3       CTL2     0.800000E-01   12.0110           0
     43595 MEMB     39       PVPG     HX       HAL2     0.900000E-01   1.00800           0
     43596 MEMB     39       PVPG     HY       HAL2     0.900000E-01   1.00800           0
     43597 MEMB     39       PVPG     O31      OSL     -0.490000       15.9994           0
     43598 MEMB     39       PVPG     C31      CL       0.900000       12.0110           0
     43599 MEMB     39       PVPG     O32      OBL     -0.630000       15.9994           0
     43600 MEMB     39       PVPG     C32      CTL2    -0.220000       12.0110           0
     43601 MEMB     39       PVPG     H2X      HAL2     0.900000E-01   1.00800           0
     43602 MEMB     39       PVPG     H2Y      HAL2     0.900000E-01   1.00800           0
     43603 MEMB     39       PVPG     C23      CTL2    -0.180000       12.0110           0
     43604 MEMB     39       PVPG     H3R      HAL2     0.900000E-01   1.00800           0
     43605 MEMB     39       PVPG     H3S      HAL2     0.900000E-01   1.00800           0
     43606 MEMB     39       PVPG     C24      CTL2    -0.180000       12.0110           0
     43607 MEMB     39       PVPG     H4R      HAL2     0.900000E-01   1.00800           0
     43608 MEMB     39       PVPG     H4S      HAL2     0.900000E-01   1.00800           0
     43609 MEMB     39       PVPG     C25      CTL2    -0.180000       12.0110           0
     43610 MEMB     39       PVPG     H5R      HAL2     0.900000E-01   1.00800           0
     43611 MEMB     39       PVPG     H5S      HAL2     0.900000E-01   1.00800           0
     43612 MEMB     39       PVPG     C26      CTL2    -0.180000       12.0110           0
     43613 MEMB     39       PVPG     H6R      HAL2     0.900000E-01   1.00800           0
     43614 MEMB     39       PVPG     H6S      HAL2     0.900000E-01   1.00800           0
     43615 MEMB     39       PVPG     C27      CTL2    -0.180000       12.0110           0
     43616 MEMB     39       PVPG     H7R      HAL2     0.900000E-01   1.00800           0
     43617 MEMB     39       PVPG     H7S      HAL2     0.900000E-01   1.00800           0
     43618 MEMB     39       PVPG     C28      CTL2    -0.180000       12.0110           0
     43619 MEMB     39       PVPG     H8R      HAL2     0.900000E-01   1.00800           0
     43620 MEMB     39       PVPG     H8S      HAL2     0.900000E-01   1.00800           0
     43621 MEMB     39       PVPG     C29      CTL2    -0.180000       12.0110           0
     43622 MEMB     39       PVPG     H9R      HAL2     0.900000E-01   1.00800           0
     43623 MEMB     39       PVPG     H9S      HAL2     0.900000E-01   1.00800           0
     43624 MEMB     39       PVPG     C210     CTL2    -0.180000       12.0110           0
     43625 MEMB     39       PVPG     H10R     HAL2     0.900000E-01   1.00800           0
     43626 MEMB     39       PVPG     H10S     HAL2     0.900000E-01   1.00800           0
     43627 MEMB     39       PVPG     C211     CEL1    -0.150000       12.0110           0
     43628 MEMB     39       PVPG     H111     HEL1     0.150000       1.00800           0
     43629 MEMB     39       PVPG     C212     CEL1    -0.150000       12.0110           0
     43630 MEMB     39       PVPG     H121     HEL1     0.150000       1.00800           0
     43631 MEMB     39       PVPG     C213     CTL2    -0.180000       12.0110           0
     43632 MEMB     39       PVPG     H13R     HAL2     0.900000E-01   1.00800           0
     43633 MEMB     39       PVPG     H13S     HAL2     0.900000E-01   1.00800           0
     43634 MEMB     39       PVPG     C214     CTL2    -0.180000       12.0110           0
     43635 MEMB     39       PVPG     H14R     HAL2     0.900000E-01   1.00800           0
     43636 MEMB     39       PVPG     H14S     HAL2     0.900000E-01   1.00800           0
     43637 MEMB     39       PVPG     C215     CTL2    -0.180000       12.0110           0
     43638 MEMB     39       PVPG     H15R     HAL2     0.900000E-01   1.00800           0
     43639 MEMB     39       PVPG     H15S     HAL2     0.900000E-01   1.00800           0
     43640 MEMB     39       PVPG     C216     CTL2    -0.180000       12.0110           0
     43641 MEMB     39       PVPG     H16R     HAL2     0.900000E-01   1.00800           0
     43642 MEMB     39       PVPG     H16S     HAL2     0.900000E-01   1.00800           0
     43643 MEMB     39       PVPG     C217     CTL2    -0.180000       12.0110           0
     43644 MEMB     39       PVPG     H17R     HAL2     0.900000E-01   1.00800           0
     43645 MEMB     39       PVPG     H17S     HAL2     0.900000E-01   1.00800           0
     43646 MEMB     39       PVPG     C218     CTL3    -0.270000       12.0110           0
     43647 MEMB     39       PVPG     H18R     HAL3     0.900000E-01   1.00800           0
     43648 MEMB     39       PVPG     H18S     HAL3     0.900000E-01   1.00800           0
     43649 MEMB     39       PVPG     H18T     HAL3     0.900000E-01   1.00800           0
     43650 MEMB     39       PVPG     C33      CTL2    -0.180000       12.0110           0
     43651 MEMB     39       PVPG     H3X      HAL2     0.900000E-01   1.00800           0
     43652 MEMB     39       PVPG     H3Y      HAL2     0.900000E-01   1.00800           0
     43653 MEMB     39       PVPG     C34      CTL2    -0.180000       12.0110           0
     43654 MEMB     39       PVPG     H4X      HAL2     0.900000E-01   1.00800           0
     43655 MEMB     39       PVPG     H4Y      HAL2     0.900000E-01   1.00800           0
     43656 MEMB     39       PVPG     C35      CTL2    -0.180000       12.0110           0
     43657 MEMB     39       PVPG     H5X      HAL2     0.900000E-01   1.00800           0
     43658 MEMB     39       PVPG     H5Y      HAL2     0.900000E-01   1.00800           0
     43659 MEMB     39       PVPG     C36      CTL2    -0.180000       12.0110           0
     43660 MEMB     39       PVPG     H6X      HAL2     0.900000E-01   1.00800           0
     43661 MEMB     39       PVPG     H6Y      HAL2     0.900000E-01   1.00800           0
     43662 MEMB     39       PVPG     C37      CTL2    -0.180000       12.0110           0
     43663 MEMB     39       PVPG     H7X      HAL2     0.900000E-01   1.00800           0
     43664 MEMB     39       PVPG     H7Y      HAL2     0.900000E-01   1.00800           0
     43665 MEMB     39       PVPG     C38      CTL2    -0.180000       12.0110           0
     43666 MEMB     39       PVPG     H8X      HAL2     0.900000E-01   1.00800           0
     43667 MEMB     39       PVPG     H8Y      HAL2     0.900000E-01   1.00800           0
     43668 MEMB     39       PVPG     C39      CTL2    -0.180000       12.0110           0
     43669 MEMB     39       PVPG     H9X      HAL2     0.900000E-01   1.00800           0
     43670 MEMB     39       PVPG     H9Y      HAL2     0.900000E-01   1.00800           0
     43671 MEMB     39       PVPG     C310     CTL2    -0.180000       12.0110           0
     43672 MEMB     39       PVPG     H10X     HAL2     0.900000E-01   1.00800           0
     43673 MEMB     39       PVPG     H10Y     HAL2     0.900000E-01   1.00800           0
     43674 MEMB     39       PVPG     C311     CTL2    -0.180000       12.0110           0
     43675 MEMB     39       PVPG     H11X     HAL2     0.900000E-01   1.00800           0
     43676 MEMB     39       PVPG     H11Y     HAL2     0.900000E-01   1.00800           0
     43677 MEMB     39       PVPG     C312     CTL2    -0.180000       12.0110           0
     43678 MEMB     39       PVPG     H12X     HAL2     0.900000E-01   1.00800           0
     43679 MEMB     39       PVPG     H12Y     HAL2     0.900000E-01   1.00800           0
     43680 MEMB     39       PVPG     C313     CTL2    -0.180000       12.0110           0
     43681 MEMB     39       PVPG     H13X     HAL2     0.900000E-01   1.00800           0
     43682 MEMB     39       PVPG     H13Y     HAL2     0.900000E-01   1.00800           0
     43683 MEMB     39       PVPG     C314     CTL2    -0.180000       12.0110           0
     43684 MEMB     39       PVPG     H14X     HAL2     0.900000E-01   1.00800           0
     43685 MEMB     39       PVPG     H14Y     HAL2     0.900000E-01   1.00800           0
     43686 MEMB     39       PVPG     C315     CTL2    -0.180000       12.0110           0
     43687 MEMB     39       PVPG     H15X     HAL2     0.900000E-01   1.00800           0
     43688 MEMB     39       PVPG     H15Y     HAL2     0.900000E-01   1.00800           0
     43689 MEMB     39       PVPG     C316     CTL3    -0.270000       12.0110           0
     43690 MEMB     39       PVPG     H16X     HAL3     0.900000E-01   1.00800           0
     43691 MEMB     39       PVPG     H16Y     HAL3     0.900000E-01   1.00800           0
     43692 MEMB     39       PVPG     H16Z     HAL3     0.900000E-01   1.00800           0
     43693 MEMB     40       PPPE     N        NH3L    -0.300000       14.0070           0
     43694 MEMB     40       PPPE     HN1      HCL      0.330000       1.00800           0
     43695 MEMB     40       PPPE     HN2      HCL      0.330000       1.00800           0
     43696 MEMB     40       PPPE     HN3      HCL      0.330000       1.00800           0
     43697 MEMB     40       PPPE     C12      CTL2     0.130000       12.0110           0
     43698 MEMB     40       PPPE     H12A     HAL2     0.900000E-01   1.00800           0
     43699 MEMB     40       PPPE     H12B     HAL2     0.900000E-01   1.00800           0
     43700 MEMB     40       PPPE     C11      CTL2    -0.800000E-01   12.0110           0
     43701 MEMB     40       PPPE     H11A     HAL2     0.900000E-01   1.00800           0
     43702 MEMB     40       PPPE     H11B     HAL2     0.900000E-01   1.00800           0
     43703 MEMB     40       PPPE     P        PL        1.50000       30.9740           0
     43704 MEMB     40       PPPE     O13      O2L     -0.780000       15.9994           0
     43705 MEMB     40       PPPE     O14      O2L     -0.780000       15.9994           0
     43706 MEMB     40       PPPE     O11      OSLP    -0.570000       15.9994           0
     43707 MEMB     40       PPPE     O12      OSLP    -0.570000       15.9994           0
     43708 MEMB     40       PPPE     C1       CTL2    -0.800000E-01   12.0110           0
     43709 MEMB     40       PPPE     HA       HAL2     0.900000E-01   1.00800           0
     43710 MEMB     40       PPPE     HB       HAL2     0.900000E-01   1.00800           0
     43711 MEMB     40       PPPE     C2       CTL1     0.170000       12.0110           0
     43712 MEMB     40       PPPE     HS       HAL1     0.900000E-01   1.00800           0
     43713 MEMB     40       PPPE     O21      OSL     -0.490000       15.9994           0
     43714 MEMB     40       PPPE     C21      CL       0.900000       12.0110           0
     43715 MEMB     40       PPPE     O22      OBL     -0.630000       15.9994           0
     43716 MEMB     40       PPPE     C22      CTL2    -0.220000       12.0110           0
     43717 MEMB     40       PPPE     H2R      HAL2     0.900000E-01   1.00800           0
     43718 MEMB     40       PPPE     H2S      HAL2     0.900000E-01   1.00800           0
     43719 MEMB     40       PPPE     C3       CTL2     0.800000E-01   12.0110           0
     43720 MEMB     40       PPPE     HX       HAL2     0.900000E-01   1.00800           0
     43721 MEMB     40       PPPE     HY       HAL2     0.900000E-01   1.00800           0
     43722 MEMB     40       PPPE     O31      OSL     -0.490000       15.9994           0
     43723 MEMB     40       PPPE     C31      CL       0.900000       12.0110           0
     43724 MEMB     40       PPPE     O32      OBL     -0.630000       15.9994           0
     43725 MEMB     40       PPPE     C32      CTL2    -0.220000       12.0110           0
     43726 MEMB     40       PPPE     H2X      HAL2     0.900000E-01   1.00800           0
     43727 MEMB     40       PPPE     H2Y      HAL2     0.900000E-01   1.00800           0
     43728 MEMB     40       PPPE     C23      CTL2    -0.180000       12.0110           0
     43729 MEMB     40       PPPE     H3R      HAL2     0.900000E-01   1.00800           0
     43730 MEMB     40       PPPE     H3S      HAL2     0.900000E-01   1.00800           0
     43731 MEMB     40       PPPE     C24      CTL2    -0.180000       12.0110           0
     43732 MEMB     40       PPPE     H4R      HAL2     0.900000E-01   1.00800           0
     43733 MEMB     40       PPPE     H4S      HAL2     0.900000E-01   1.00800           0
     43734 MEMB     40       PPPE     C25      CTL2    -0.180000       12.0110           0
     43735 MEMB     40       PPPE     H5R      HAL2     0.900000E-01   1.00800           0
     43736 MEMB     40       PPPE     H5S      HAL2     0.900000E-01   1.00800           0
     43737 MEMB     40       PPPE     C26      CTL2    -0.180000       12.0110           0
     43738 MEMB     40       PPPE     H6R      HAL2     0.900000E-01   1.00800           0
     43739 MEMB     40       PPPE     H6S      HAL2     0.900000E-01   1.00800           0
     43740 MEMB     40       PPPE     C27      CTL2    -0.180000       12.0110           0
     43741 MEMB     40       PPPE     H7R      HAL2     0.900000E-01   1.00800           0
     43742 MEMB     40       PPPE     H7S      HAL2     0.900000E-01   1.00800           0
     43743 MEMB     40       PPPE     C28      CTL2    -0.180000       12.0110           0
     43744 MEMB     40       PPPE     H8R      HAL2     0.900000E-01   1.00800           0
     43745 MEMB     40       PPPE     H8S      HAL2     0.900000E-01   1.00800           0
     43746 MEMB     40       PPPE     C29      CEL1    -0.150000       12.0110           0
     43747 MEMB     40       PPPE     H91      HEL1     0.150000       1.00800           0
     43748 MEMB     40       PPPE     C210     CEL1    -0.150000       12.0110           0
     43749 MEMB     40       PPPE     H101     HEL1     0.150000       1.00800           0
     43750 MEMB     40       PPPE     C211     CTL2    -0.180000       12.0110           0
     43751 MEMB     40       PPPE     H11R     HAL2     0.900000E-01   1.00800           0
     43752 MEMB     40       PPPE     H11S     HAL2     0.900000E-01   1.00800           0
     43753 MEMB     40       PPPE     C212     CTL2    -0.180000       12.0110           0
     43754 MEMB     40       PPPE     H12R     HAL2     0.900000E-01   1.00800           0
     43755 MEMB     40       PPPE     H12S     HAL2     0.900000E-01   1.00800           0
     43756 MEMB     40       PPPE     C213     CTL2    -0.180000       12.0110           0
     43757 MEMB     40       PPPE     H13R     HAL2     0.900000E-01   1.00800           0
     43758 MEMB     40       PPPE     H13S     HAL2     0.900000E-01   1.00800           0
     43759 MEMB     40       PPPE     C214     CTL2    -0.180000       12.0110           0
     43760 MEMB     40       PPPE     H14R     HAL2     0.900000E-01   1.00800           0
     43761 MEMB     40       PPPE     H14S     HAL2     0.900000E-01   1.00800           0
     43762 MEMB     40       PPPE     C215     CTL2    -0.180000       12.0110           0
     43763 MEMB     40       PPPE     H15R     HAL2     0.900000E-01   1.00800           0
     43764 MEMB     40       PPPE     H15S     HAL2     0.900000E-01   1.00800           0
     43765 MEMB     40       PPPE     C216     CTL3    -0.270000       12.0110           0
     43766 MEMB     40       PPPE     H16R     HAL3     0.900000E-01   1.00800           0
     43767 MEMB     40       PPPE     H16S     HAL3     0.900000E-01   1.00800           0
     43768 MEMB     40       PPPE     H16T     HAL3     0.900000E-01   1.00800           0
     43769 MEMB     40       PPPE     C33      CTL2    -0.180000       12.0110           0
     43770 MEMB     40       PPPE     H3X      HAL2     0.900000E-01   1.00800           0
     43771 MEMB     40       PPPE     H3Y      HAL2     0.900000E-01   1.00800           0
     43772 MEMB     40       PPPE     C34      CTL2    -0.180000       12.0110           0
     43773 MEMB     40       PPPE     H4X      HAL2     0.900000E-01   1.00800           0
     43774 MEMB     40       PPPE     H4Y      HAL2     0.900000E-01   1.00800           0
     43775 MEMB     40       PPPE     C35      CTL2    -0.180000       12.0110           0
     43776 MEMB     40       PPPE     H5X      HAL2     0.900000E-01   1.00800           0
     43777 MEMB     40       PPPE     H5Y      HAL2     0.900000E-01   1.00800           0
     43778 MEMB     40       PPPE     C36      CTL2    -0.180000       12.0110           0
     43779 MEMB     40       PPPE     H6X      HAL2     0.900000E-01   1.00800           0
     43780 MEMB     40       PPPE     H6Y      HAL2     0.900000E-01   1.00800           0
     43781 MEMB     40       PPPE     C37      CTL2    -0.180000       12.0110           0
     43782 MEMB     40       PPPE     H7X      HAL2     0.900000E-01   1.00800           0
     43783 MEMB     40       PPPE     H7Y      HAL2     0.900000E-01   1.00800           0
     43784 MEMB     40       PPPE     C38      CTL2    -0.180000       12.0110           0
     43785 MEMB     40       PPPE     H8X      HAL2     0.900000E-01   1.00800           0
     43786 MEMB     40       PPPE     H8Y      HAL2     0.900000E-01   1.00800           0
     43787 MEMB     40       PPPE     C39      CTL2    -0.180000       12.0110           0
     43788 MEMB     40       PPPE     H9X      HAL2     0.900000E-01   1.00800           0
     43789 MEMB     40       PPPE     H9Y      HAL2     0.900000E-01   1.00800           0
     43790 MEMB     40       PPPE     C310     CTL2    -0.180000       12.0110           0
     43791 MEMB     40       PPPE     H10X     HAL2     0.900000E-01   1.00800           0
     43792 MEMB     40       PPPE     H10Y     HAL2     0.900000E-01   1.00800           0
     43793 MEMB     40       PPPE     C311     CTL2    -0.180000       12.0110           0
     43794 MEMB     40       PPPE     H11X     HAL2     0.900000E-01   1.00800           0
     43795 MEMB     40       PPPE     H11Y     HAL2     0.900000E-01   1.00800           0
     43796 MEMB     40       PPPE     C312     CTL2    -0.180000       12.0110           0
     43797 MEMB     40       PPPE     H12X     HAL2     0.900000E-01   1.00800           0
     43798 MEMB     40       PPPE     H12Y     HAL2     0.900000E-01   1.00800           0
     43799 MEMB     40       PPPE     C313     CTL2    -0.180000       12.0110           0
     43800 MEMB     40       PPPE     H13X     HAL2     0.900000E-01   1.00800           0
     43801 MEMB     40       PPPE     H13Y     HAL2     0.900000E-01   1.00800           0
     43802 MEMB     40       PPPE     C314     CTL2    -0.180000       12.0110           0
     43803 MEMB     40       PPPE     H14X     HAL2     0.900000E-01   1.00800           0
     43804 MEMB     40       PPPE     H14Y     HAL2     0.900000E-01   1.00800           0
     43805 MEMB     40       PPPE     C315     CTL2    -0.180000       12.0110           0
     43806 MEMB     40       PPPE     H15X     HAL2     0.900000E-01   1.00800           0
     43807 MEMB     40       PPPE     H15Y     HAL2     0.900000E-01   1.00800           0
     43808 MEMB     40       PPPE     C316     CTL3    -0.270000       12.0110           0
     43809 MEMB     40       PPPE     H16X     HAL3     0.900000E-01   1.00800           0
     43810 MEMB     40       PPPE     H16Y     HAL3     0.900000E-01   1.00800           0
     43811 MEMB     40       PPPE     H16Z     HAL3     0.900000E-01   1.00800           0
     43812 MEMB     41       PPPE     N        NH3L    -0.300000       14.0070           0
     43813 MEMB     41       PPPE     HN1      HCL      0.330000       1.00800           0
     43814 MEMB     41       PPPE     HN2      HCL      0.330000       1.00800           0
     43815 MEMB     41       PPPE     HN3      HCL      0.330000       1.00800           0
     43816 MEMB     41       PPPE     C12      CTL2     0.130000       12.0110           0
     43817 MEMB     41       PPPE     H12A     HAL2     0.900000E-01   1.00800           0
     43818 MEMB     41       PPPE     H12B     HAL2     0.900000E-01   1.00800           0
     43819 MEMB     41       PPPE     C11      CTL2    -0.800000E-01   12.0110           0
     43820 MEMB     41       PPPE     H11A     HAL2     0.900000E-01   1.00800           0
     43821 MEMB     41       PPPE     H11B     HAL2     0.900000E-01   1.00800           0
     43822 MEMB     41       PPPE     P        PL        1.50000       30.9740           0
     43823 MEMB     41       PPPE     O13      O2L     -0.780000       15.9994           0
     43824 MEMB     41       PPPE     O14      O2L     -0.780000       15.9994           0
     43825 MEMB     41       PPPE     O11      OSLP    -0.570000       15.9994           0
     43826 MEMB     41       PPPE     O12      OSLP    -0.570000       15.9994           0
     43827 MEMB     41       PPPE     C1       CTL2    -0.800000E-01   12.0110           0
     43828 MEMB     41       PPPE     HA       HAL2     0.900000E-01   1.00800           0
     43829 MEMB     41       PPPE     HB       HAL2     0.900000E-01   1.00800           0
     43830 MEMB     41       PPPE     C2       CTL1     0.170000       12.0110           0
     43831 MEMB     41       PPPE     HS       HAL1     0.900000E-01   1.00800           0
     43832 MEMB     41       PPPE     O21      OSL     -0.490000       15.9994           0
     43833 MEMB     41       PPPE     C21      CL       0.900000       12.0110           0
     43834 MEMB     41       PPPE     O22      OBL     -0.630000       15.9994           0
     43835 MEMB     41       PPPE     C22      CTL2    -0.220000       12.0110           0
     43836 MEMB     41       PPPE     H2R      HAL2     0.900000E-01   1.00800           0
     43837 MEMB     41       PPPE     H2S      HAL2     0.900000E-01   1.00800           0
     43838 MEMB     41       PPPE     C3       CTL2     0.800000E-01   12.0110           0
     43839 MEMB     41       PPPE     HX       HAL2     0.900000E-01   1.00800           0
     43840 MEMB     41       PPPE     HY       HAL2     0.900000E-01   1.00800           0
     43841 MEMB     41       PPPE     O31      OSL     -0.490000       15.9994           0
     43842 MEMB     41       PPPE     C31      CL       0.900000       12.0110           0
     43843 MEMB     41       PPPE     O32      OBL     -0.630000       15.9994           0
     43844 MEMB     41       PPPE     C32      CTL2    -0.220000       12.0110           0
     43845 MEMB     41       PPPE     H2X      HAL2     0.900000E-01   1.00800           0
     43846 MEMB     41       PPPE     H2Y      HAL2     0.900000E-01   1.00800           0
     43847 MEMB     41       PPPE     C23      CTL2    -0.180000       12.0110           0
     43848 MEMB     41       PPPE     H3R      HAL2     0.900000E-01   1.00800           0
     43849 MEMB     41       PPPE     H3S      HAL2     0.900000E-01   1.00800           0
     43850 MEMB     41       PPPE     C24      CTL2    -0.180000       12.0110           0
     43851 MEMB     41       PPPE     H4R      HAL2     0.900000E-01   1.00800           0
     43852 MEMB     41       PPPE     H4S      HAL2     0.900000E-01   1.00800           0
     43853 MEMB     41       PPPE     C25      CTL2    -0.180000       12.0110           0
     43854 MEMB     41       PPPE     H5R      HAL2     0.900000E-01   1.00800           0
     43855 MEMB     41       PPPE     H5S      HAL2     0.900000E-01   1.00800           0
     43856 MEMB     41       PPPE     C26      CTL2    -0.180000       12.0110           0
     43857 MEMB     41       PPPE     H6R      HAL2     0.900000E-01   1.00800           0
     43858 MEMB     41       PPPE     H6S      HAL2     0.900000E-01   1.00800           0
     43859 MEMB     41       PPPE     C27      CTL2    -0.180000       12.0110           0
     43860 MEMB     41       PPPE     H7R      HAL2     0.900000E-01   1.00800           0
     43861 MEMB     41       PPPE     H7S      HAL2     0.900000E-01   1.00800           0
     43862 MEMB     41       PPPE     C28      CTL2    -0.180000       12.0110           0
     43863 MEMB     41       PPPE     H8R      HAL2     0.900000E-01   1.00800           0
     43864 MEMB     41       PPPE     H8S      HAL2     0.900000E-01   1.00800           0
     43865 MEMB     41       PPPE     C29      CEL1    -0.150000       12.0110           0
     43866 MEMB     41       PPPE     H91      HEL1     0.150000       1.00800           0
     43867 MEMB     41       PPPE     C210     CEL1    -0.150000       12.0110           0
     43868 MEMB     41       PPPE     H101     HEL1     0.150000       1.00800           0
     43869 MEMB     41       PPPE     C211     CTL2    -0.180000       12.0110           0
     43870 MEMB     41       PPPE     H11R     HAL2     0.900000E-01   1.00800           0
     43871 MEMB     41       PPPE     H11S     HAL2     0.900000E-01   1.00800           0
     43872 MEMB     41       PPPE     C212     CTL2    -0.180000       12.0110           0
     43873 MEMB     41       PPPE     H12R     HAL2     0.900000E-01   1.00800           0
     43874 MEMB     41       PPPE     H12S     HAL2     0.900000E-01   1.00800           0
     43875 MEMB     41       PPPE     C213     CTL2    -0.180000       12.0110           0
     43876 MEMB     41       PPPE     H13R     HAL2     0.900000E-01   1.00800           0
     43877 MEMB     41       PPPE     H13S     HAL2     0.900000E-01   1.00800           0
     43878 MEMB     41       PPPE     C214     CTL2    -0.180000       12.0110           0
     43879 MEMB     41       PPPE     H14R     HAL2     0.900000E-01   1.00800           0
     43880 MEMB     41       PPPE     H14S     HAL2     0.900000E-01   1.00800           0
     43881 MEMB     41       PPPE     C215     CTL2    -0.180000       12.0110           0
     43882 MEMB     41       PPPE     H15R     HAL2     0.900000E-01   1.00800           0
     43883 MEMB     41       PPPE     H15S     HAL2     0.900000E-01   1.00800           0
     43884 MEMB     41       PPPE     C216     CTL3    -0.270000       12.0110           0
     43885 MEMB     41       PPPE     H16R     HAL3     0.900000E-01   1.00800           0
     43886 MEMB     41       PPPE     H16S     HAL3     0.900000E-01   1.00800           0
     43887 MEMB     41       PPPE     H16T     HAL3     0.900000E-01   1.00800           0
     43888 MEMB     41       PPPE     C33      CTL2    -0.180000       12.0110           0
     43889 MEMB     41       PPPE     H3X      HAL2     0.900000E-01   1.00800           0
     43890 MEMB     41       PPPE     H3Y      HAL2     0.900000E-01   1.00800           0
     43891 MEMB     41       PPPE     C34      CTL2    -0.180000       12.0110           0
     43892 MEMB     41       PPPE     H4X      HAL2     0.900000E-01   1.00800           0
     43893 MEMB     41       PPPE     H4Y      HAL2     0.900000E-01   1.00800           0
     43894 MEMB     41       PPPE     C35      CTL2    -0.180000       12.0110           0
     43895 MEMB     41       PPPE     H5X      HAL2     0.900000E-01   1.00800           0
     43896 MEMB     41       PPPE     H5Y      HAL2     0.900000E-01   1.00800           0
     43897 MEMB     41       PPPE     C36      CTL2    -0.180000       12.0110           0
     43898 MEMB     41       PPPE     H6X      HAL2     0.900000E-01   1.00800           0
     43899 MEMB     41       PPPE     H6Y      HAL2     0.900000E-01   1.00800           0
     43900 MEMB     41       PPPE     C37      CTL2    -0.180000       12.0110           0
     43901 MEMB     41       PPPE     H7X      HAL2     0.900000E-01   1.00800           0
     43902 MEMB     41       PPPE     H7Y      HAL2     0.900000E-01   1.00800           0
     43903 MEMB     41       PPPE     C38      CTL2    -0.180000       12.0110           0
     43904 MEMB     41       PPPE     H8X      HAL2     0.900000E-01   1.00800           0
     43905 MEMB     41       PPPE     H8Y      HAL2     0.900000E-01   1.00800           0
     43906 MEMB     41       PPPE     C39      CTL2    -0.180000       12.0110           0
     43907 MEMB     41       PPPE     H9X      HAL2     0.900000E-01   1.00800           0
     43908 MEMB     41       PPPE     H9Y      HAL2     0.900000E-01   1.00800           0
     43909 MEMB     41       PPPE     C310     CTL2    -0.180000       12.0110           0
     43910 MEMB     41       PPPE     H10X     HAL2     0.900000E-01   1.00800           0
     43911 MEMB     41       PPPE     H10Y     HAL2     0.900000E-01   1.00800           0
     43912 MEMB     41       PPPE     C311     CTL2    -0.180000       12.0110           0
     43913 MEMB     41       PPPE     H11X     HAL2     0.900000E-01   1.00800           0
     43914 MEMB     41       PPPE     H11Y     HAL2     0.900000E-01   1.00800           0
     43915 MEMB     41       PPPE     C312     CTL2    -0.180000       12.0110           0
     43916 MEMB     41       PPPE     H12X     HAL2     0.900000E-01   1.00800           0
     43917 MEMB     41       PPPE     H12Y     HAL2     0.900000E-01   1.00800           0
     43918 MEMB     41       PPPE     C313     CTL2    -0.180000       12.0110           0
     43919 MEMB     41       PPPE     H13X     HAL2     0.900000E-01   1.00800           0
     43920 MEMB     41       PPPE     H13Y     HAL2     0.900000E-01   1.00800           0
     43921 MEMB     41       PPPE     C314     CTL2    -0.180000       12.0110           0
     43922 MEMB     41       PPPE     H14X     HAL2     0.900000E-01   1.00800           0
     43923 MEMB     41       PPPE     H14Y     HAL2     0.900000E-01   1.00800           0
     43924 MEMB     41       PPPE     C315     CTL2    -0.180000       12.0110           0
     43925 MEMB     41       PPPE     H15X     HAL2     0.900000E-01   1.00800           0
     43926 MEMB     41       PPPE     H15Y     HAL2     0.900000E-01   1.00800           0
     43927 MEMB     41       PPPE     C316     CTL3    -0.270000       12.0110           0
     43928 MEMB     41       PPPE     H16X     HAL3     0.900000E-01   1.00800           0
     43929 MEMB     41       PPPE     H16Y     HAL3     0.900000E-01   1.00800           0
     43930 MEMB     41       PPPE     H16Z     HAL3     0.900000E-01   1.00800           0
     43931 MEMB     42       PVCL2    C3       CTL2    -0.800000E-01   12.0110           0
     43932 MEMB     42       PVCL2    HG31     HAL2     0.900000E-01   1.00800           0
     43933 MEMB     42       PVCL2    HG32     HAL2     0.900000E-01   1.00800           0
     43934 MEMB     42       PVCL2    P3       PL        1.50000       30.9740           0
     43935 MEMB     42       PVCL2    OP33     O2L     -0.780000       15.9994           0
     43936 MEMB     42       PVCL2    OP34     O2L     -0.780000       15.9994           0
     43937 MEMB     42       PVCL2    OP31     OSLP    -0.570000       15.9994           0
     43938 MEMB     42       PVCL2    OP32     OSLP    -0.570000       15.9994           0
     43939 MEMB     42       PVCL2    C31      CTL2    -0.800000E-01   12.0110           0
     43940 MEMB     42       PVCL2    H31J     HAL2     0.900000E-01   1.00800           0
     43941 MEMB     42       PVCL2    H31K     HAL2     0.900000E-01   1.00800           0
     43942 MEMB     42       PVCL2    C2       CTL1     0.140000       12.0110           0
     43943 MEMB     42       PVCL2    HG22     HAL1     0.900000E-01   1.00800           0
     43944 MEMB     42       PVCL2    OG12     OHL     -0.650000       15.9994           0
     43945 MEMB     42       PVCL2    HO12     HOL      0.420000       1.00800           0
     43946 MEMB     42       PVCL2    C1       CTL2    -0.800000E-01   12.0110           0
     43947 MEMB     42       PVCL2    HG11     HAL2     0.900000E-01   1.00800           0
     43948 MEMB     42       PVCL2    HG12     HAL2     0.900000E-01   1.00800           0
     43949 MEMB     42       PVCL2    P1       PL        1.50000       30.9740           0
     43950 MEMB     42       PVCL2    OP13     O2L     -0.780000       15.9994           0
     43951 MEMB     42       PVCL2    OP14     O2L     -0.780000       15.9994           0
     43952 MEMB     42       PVCL2    OP11     OSLP    -0.570000       15.9994           0
     43953 MEMB     42       PVCL2    OP12     OSLP    -0.570000       15.9994           0
     43954 MEMB     42       PVCL2    C11      CTL2    -0.800000E-01   12.0110           0
     43955 MEMB     42       PVCL2    H11J     HAL2     0.900000E-01   1.00800           0
     43956 MEMB     42       PVCL2    H11K     HAL2     0.900000E-01   1.00800           0
     43957 MEMB     42       PVCL2    C12      CTL1     0.170000       12.0110           0
     43958 MEMB     42       PVCL2    H12J     HAL1     0.900000E-01   1.00800           0
     43959 MEMB     42       PVCL2    O12      OSL     -0.490000       15.9994           0
     43960 MEMB     42       PVCL2    CA1      CL       0.900000       12.0110           0
     43961 MEMB     42       PVCL2    OA1      OBL     -0.630000       15.9994           0
     43962 MEMB     42       PVCL2    CA2      CTL2    -0.220000       12.0110           0
     43963 MEMB     42       PVCL2    H2A      HAL2     0.900000E-01   1.00800           0
     43964 MEMB     42       PVCL2    H2B      HAL2     0.900000E-01   1.00800           0
     43965 MEMB     42       PVCL2    C13      CTL2     0.800000E-01   12.0110           0
     43966 MEMB     42       PVCL2    H13J     HAL2     0.900000E-01   1.00800           0
     43967 MEMB     42       PVCL2    H13K     HAL2     0.900000E-01   1.00800           0
     43968 MEMB     42       PVCL2    O13      OSL     -0.490000       15.9994           0
     43969 MEMB     42       PVCL2    CB1      CL       0.900000       12.0110           0
     43970 MEMB     42       PVCL2    OB1      OBL     -0.630000       15.9994           0
     43971 MEMB     42       PVCL2    CB2      CTL2    -0.220000       12.0110           0
     43972 MEMB     42       PVCL2    H2D      HAL2     0.900000E-01   1.00800           0
     43973 MEMB     42       PVCL2    H2E      HAL2     0.900000E-01   1.00800           0
     43974 MEMB     42       PVCL2    C32      CTL1     0.170000       12.0110           0
     43975 MEMB     42       PVCL2    H32J     HAL1     0.900000E-01   1.00800           0
     43976 MEMB     42       PVCL2    O32      OSL     -0.490000       15.9994           0
     43977 MEMB     42       PVCL2    CC1      CL       0.900000       12.0110           0
     43978 MEMB     42       PVCL2    OC1      OBL     -0.630000       15.9994           0
     43979 MEMB     42       PVCL2    CC2      CTL2    -0.220000       12.0110           0
     43980 MEMB     42       PVCL2    H2R      HAL2     0.900000E-01   1.00800           0
     43981 MEMB     42       PVCL2    H2S      HAL2     0.900000E-01   1.00800           0
     43982 MEMB     42       PVCL2    C33      CTL2     0.800000E-01   12.0110           0
     43983 MEMB     42       PVCL2    H33J     HAL2     0.900000E-01   1.00800           0
     43984 MEMB     42       PVCL2    H33K     HAL2     0.900000E-01   1.00800           0
     43985 MEMB     42       PVCL2    O33      OSL     -0.490000       15.9994           0
     43986 MEMB     42       PVCL2    CD1      CL       0.900000       12.0110           0
     43987 MEMB     42       PVCL2    OD1      OBL     -0.630000       15.9994           0
     43988 MEMB     42       PVCL2    CD2      CTL2    -0.220000       12.0110           0
     43989 MEMB     42       PVCL2    H2X      HAL2     0.900000E-01   1.00800           0
     43990 MEMB     42       PVCL2    H2Y      HAL2     0.900000E-01   1.00800           0
     43991 MEMB     42       PVCL2    CA3      CTL2    -0.180000       12.0110           0
     43992 MEMB     42       PVCL2    H3A      HAL2     0.900000E-01   1.00800           0
     43993 MEMB     42       PVCL2    H3B      HAL2     0.900000E-01   1.00800           0
     43994 MEMB     42       PVCL2    CA4      CTL2    -0.180000       12.0110           0
     43995 MEMB     42       PVCL2    H4A      HAL2     0.900000E-01   1.00800           0
     43996 MEMB     42       PVCL2    H4B      HAL2     0.900000E-01   1.00800           0
     43997 MEMB     42       PVCL2    CA5      CTL2    -0.180000       12.0110           0
     43998 MEMB     42       PVCL2    H5A      HAL2     0.900000E-01   1.00800           0
     43999 MEMB     42       PVCL2    H5B      HAL2     0.900000E-01   1.00800           0
     44000 MEMB     42       PVCL2    CA6      CTL2    -0.180000       12.0110           0
     44001 MEMB     42       PVCL2    H6A      HAL2     0.900000E-01   1.00800           0
     44002 MEMB     42       PVCL2    H6B      HAL2     0.900000E-01   1.00800           0
     44003 MEMB     42       PVCL2    CA7      CTL2    -0.180000       12.0110           0
     44004 MEMB     42       PVCL2    H7A      HAL2     0.900000E-01   1.00800           0
     44005 MEMB     42       PVCL2    H7B      HAL2     0.900000E-01   1.00800           0
     44006 MEMB     42       PVCL2    CA8      CTL2    -0.180000       12.0110           0
     44007 MEMB     42       PVCL2    H8A      HAL2     0.900000E-01   1.00800           0
     44008 MEMB     42       PVCL2    H8B      HAL2     0.900000E-01   1.00800           0
     44009 MEMB     42       PVCL2    CA9      CTL2    -0.180000       12.0110           0
     44010 MEMB     42       PVCL2    H9A      HAL2     0.900000E-01   1.00800           0
     44011 MEMB     42       PVCL2    H9B      HAL2     0.900000E-01   1.00800           0
     44012 MEMB     42       PVCL2    CA10     CTL2    -0.180000       12.0110           0
     44013 MEMB     42       PVCL2    H10A     HAL2     0.900000E-01   1.00800           0
     44014 MEMB     42       PVCL2    H10B     HAL2     0.900000E-01   1.00800           0
     44015 MEMB     42       PVCL2    CA11     CEL1    -0.150000       12.0110           0
     44016 MEMB     42       PVCL2    H11A     HEL1     0.150000       1.00800           0
     44017 MEMB     42       PVCL2    CA12     CEL1    -0.150000       12.0110           0
     44018 MEMB     42       PVCL2    H12A     HEL1     0.150000       1.00800           0
     44019 MEMB     42       PVCL2    CA13     CTL2    -0.180000       12.0110           0
     44020 MEMB     42       PVCL2    H13A     HAL2     0.900000E-01   1.00800           0
     44021 MEMB     42       PVCL2    H13B     HAL2     0.900000E-01   1.00800           0
     44022 MEMB     42       PVCL2    CA14     CTL2    -0.180000       12.0110           0
     44023 MEMB     42       PVCL2    H14A     HAL2     0.900000E-01   1.00800           0
     44024 MEMB     42       PVCL2    H14B     HAL2     0.900000E-01   1.00800           0
     44025 MEMB     42       PVCL2    CA15     CTL2    -0.180000       12.0110           0
     44026 MEMB     42       PVCL2    H15A     HAL2     0.900000E-01   1.00800           0
     44027 MEMB     42       PVCL2    H15B     HAL2     0.900000E-01   1.00800           0
     44028 MEMB     42       PVCL2    CA16     CTL2    -0.180000       12.0110           0
     44029 MEMB     42       PVCL2    H16A     HAL2     0.900000E-01   1.00800           0
     44030 MEMB     42       PVCL2    H16B     HAL2     0.900000E-01   1.00800           0
     44031 MEMB     42       PVCL2    CA17     CTL2    -0.180000       12.0110           0
     44032 MEMB     42       PVCL2    H17A     HAL2     0.900000E-01   1.00800           0
     44033 MEMB     42       PVCL2    H17B     HAL2     0.900000E-01   1.00800           0
     44034 MEMB     42       PVCL2    CA18     CTL3    -0.270000       12.0110           0
     44035 MEMB     42       PVCL2    H18A     HAL3     0.900000E-01   1.00800           0
     44036 MEMB     42       PVCL2    H18B     HAL3     0.900000E-01   1.00800           0
     44037 MEMB     42       PVCL2    H18C     HAL3     0.900000E-01   1.00800           0
     44038 MEMB     42       PVCL2    CB3      CTL2    -0.180000       12.0110           0
     44039 MEMB     42       PVCL2    H3D      HAL2     0.900000E-01   1.00800           0
     44040 MEMB     42       PVCL2    H3E      HAL2     0.900000E-01   1.00800           0
     44041 MEMB     42       PVCL2    CB4      CTL2    -0.180000       12.0110           0
     44042 MEMB     42       PVCL2    H4D      HAL2     0.900000E-01   1.00800           0
     44043 MEMB     42       PVCL2    H4E      HAL2     0.900000E-01   1.00800           0
     44044 MEMB     42       PVCL2    CB5      CTL2    -0.180000       12.0110           0
     44045 MEMB     42       PVCL2    H5D      HAL2     0.900000E-01   1.00800           0
     44046 MEMB     42       PVCL2    H5E      HAL2     0.900000E-01   1.00800           0
     44047 MEMB     42       PVCL2    CB6      CTL2    -0.180000       12.0110           0
     44048 MEMB     42       PVCL2    H6D      HAL2     0.900000E-01   1.00800           0
     44049 MEMB     42       PVCL2    H6E      HAL2     0.900000E-01   1.00800           0
     44050 MEMB     42       PVCL2    CB7      CTL2    -0.180000       12.0110           0
     44051 MEMB     42       PVCL2    H7D      HAL2     0.900000E-01   1.00800           0
     44052 MEMB     42       PVCL2    H7E      HAL2     0.900000E-01   1.00800           0
     44053 MEMB     42       PVCL2    CB8      CTL2    -0.180000       12.0110           0
     44054 MEMB     42       PVCL2    H8D      HAL2     0.900000E-01   1.00800           0
     44055 MEMB     42       PVCL2    H8E      HAL2     0.900000E-01   1.00800           0
     44056 MEMB     42       PVCL2    CB9      CTL2    -0.180000       12.0110           0
     44057 MEMB     42       PVCL2    H9D      HAL2     0.900000E-01   1.00800           0
     44058 MEMB     42       PVCL2    H9E      HAL2     0.900000E-01   1.00800           0
     44059 MEMB     42       PVCL2    CB10     CTL2    -0.180000       12.0110           0
     44060 MEMB     42       PVCL2    H10D     HAL2     0.900000E-01   1.00800           0
     44061 MEMB     42       PVCL2    H10E     HAL2     0.900000E-01   1.00800           0
     44062 MEMB     42       PVCL2    CB11     CTL2    -0.180000       12.0110           0
     44063 MEMB     42       PVCL2    H11D     HAL2     0.900000E-01   1.00800           0
     44064 MEMB     42       PVCL2    H11E     HAL2     0.900000E-01   1.00800           0
     44065 MEMB     42       PVCL2    CB12     CTL2    -0.180000       12.0110           0
     44066 MEMB     42       PVCL2    H12D     HAL2     0.900000E-01   1.00800           0
     44067 MEMB     42       PVCL2    H12E     HAL2     0.900000E-01   1.00800           0
     44068 MEMB     42       PVCL2    CB13     CTL2    -0.180000       12.0110           0
     44069 MEMB     42       PVCL2    H13D     HAL2     0.900000E-01   1.00800           0
     44070 MEMB     42       PVCL2    H13E     HAL2     0.900000E-01   1.00800           0
     44071 MEMB     42       PVCL2    CB14     CTL2    -0.180000       12.0110           0
     44072 MEMB     42       PVCL2    H14D     HAL2     0.900000E-01   1.00800           0
     44073 MEMB     42       PVCL2    H14E     HAL2     0.900000E-01   1.00800           0
     44074 MEMB     42       PVCL2    CB15     CTL2    -0.180000       12.0110           0
     44075 MEMB     42       PVCL2    H15D     HAL2     0.900000E-01   1.00800           0
     44076 MEMB     42       PVCL2    H15E     HAL2     0.900000E-01   1.00800           0
     44077 MEMB     42       PVCL2    CB16     CTL3    -0.270000       12.0110           0
     44078 MEMB     42       PVCL2    H16D     HAL3     0.900000E-01   1.00800           0
     44079 MEMB     42       PVCL2    H16E     HAL3     0.900000E-01   1.00800           0
     44080 MEMB     42       PVCL2    H16F     HAL3     0.900000E-01   1.00800           0
     44081 MEMB     42       PVCL2    CC3      CTL2    -0.180000       12.0110           0
     44082 MEMB     42       PVCL2    H3R      HAL2     0.900000E-01   1.00800           0
     44083 MEMB     42       PVCL2    H3S      HAL2     0.900000E-01   1.00800           0
     44084 MEMB     42       PVCL2    CC4      CTL2    -0.180000       12.0110           0
     44085 MEMB     42       PVCL2    H4R      HAL2     0.900000E-01   1.00800           0
     44086 MEMB     42       PVCL2    H4S      HAL2     0.900000E-01   1.00800           0
     44087 MEMB     42       PVCL2    CC5      CTL2    -0.180000       12.0110           0
     44088 MEMB     42       PVCL2    H5R      HAL2     0.900000E-01   1.00800           0
     44089 MEMB     42       PVCL2    H5S      HAL2     0.900000E-01   1.00800           0
     44090 MEMB     42       PVCL2    CC6      CTL2    -0.180000       12.0110           0
     44091 MEMB     42       PVCL2    H6R      HAL2     0.900000E-01   1.00800           0
     44092 MEMB     42       PVCL2    H6S      HAL2     0.900000E-01   1.00800           0
     44093 MEMB     42       PVCL2    CC7      CTL2    -0.180000       12.0110           0
     44094 MEMB     42       PVCL2    H7R      HAL2     0.900000E-01   1.00800           0
     44095 MEMB     42       PVCL2    H7S      HAL2     0.900000E-01   1.00800           0
     44096 MEMB     42       PVCL2    CC8      CTL2    -0.180000       12.0110           0
     44097 MEMB     42       PVCL2    H8R      HAL2     0.900000E-01   1.00800           0
     44098 MEMB     42       PVCL2    H8S      HAL2     0.900000E-01   1.00800           0
     44099 MEMB     42       PVCL2    CC9      CTL2    -0.180000       12.0110           0
     44100 MEMB     42       PVCL2    H9R      HAL2     0.900000E-01   1.00800           0
     44101 MEMB     42       PVCL2    H9S      HAL2     0.900000E-01   1.00800           0
     44102 MEMB     42       PVCL2    CC10     CTL2    -0.180000       12.0110           0
     44103 MEMB     42       PVCL2    H10R     HAL2     0.900000E-01   1.00800           0
     44104 MEMB     42       PVCL2    H10S     HAL2     0.900000E-01   1.00800           0
     44105 MEMB     42       PVCL2    CC11     CEL1    -0.150000       12.0110           0
     44106 MEMB     42       PVCL2    H11R     HEL1     0.150000       1.00800           0
     44107 MEMB     42       PVCL2    CC12     CEL1    -0.150000       12.0110           0
     44108 MEMB     42       PVCL2    H12R     HEL1     0.150000       1.00800           0
     44109 MEMB     42       PVCL2    CC13     CTL2    -0.180000       12.0110           0
     44110 MEMB     42       PVCL2    H13R     HAL2     0.900000E-01   1.00800           0
     44111 MEMB     42       PVCL2    H13S     HAL2     0.900000E-01   1.00800           0
     44112 MEMB     42       PVCL2    CC14     CTL2    -0.180000       12.0110           0
     44113 MEMB     42       PVCL2    H14R     HAL2     0.900000E-01   1.00800           0
     44114 MEMB     42       PVCL2    H14S     HAL2     0.900000E-01   1.00800           0
     44115 MEMB     42       PVCL2    CC15     CTL2    -0.180000       12.0110           0
     44116 MEMB     42       PVCL2    H15R     HAL2     0.900000E-01   1.00800           0
     44117 MEMB     42       PVCL2    H15S     HAL2     0.900000E-01   1.00800           0
     44118 MEMB     42       PVCL2    CC16     CTL2    -0.180000       12.0110           0
     44119 MEMB     42       PVCL2    H16R     HAL2     0.900000E-01   1.00800           0
     44120 MEMB     42       PVCL2    H16S     HAL2     0.900000E-01   1.00800           0
     44121 MEMB     42       PVCL2    CC17     CTL2    -0.180000       12.0110           0
     44122 MEMB     42       PVCL2    H17R     HAL2     0.900000E-01   1.00800           0
     44123 MEMB     42       PVCL2    H17S     HAL2     0.900000E-01   1.00800           0
     44124 MEMB     42       PVCL2    CC18     CTL3    -0.270000       12.0110           0
     44125 MEMB     42       PVCL2    H18R     HAL3     0.900000E-01   1.00800           0
     44126 MEMB     42       PVCL2    H18S     HAL3     0.900000E-01   1.00800           0
     44127 MEMB     42       PVCL2    H18T     HAL3     0.900000E-01   1.00800           0
     44128 MEMB     42       PVCL2    CD3      CTL2    -0.180000       12.0110           0
     44129 MEMB     42       PVCL2    H3X      HAL2     0.900000E-01   1.00800           0
     44130 MEMB     42       PVCL2    H3Y      HAL2     0.900000E-01   1.00800           0
     44131 MEMB     42       PVCL2    CD4      CTL2    -0.180000       12.0110           0
     44132 MEMB     42       PVCL2    H4X      HAL2     0.900000E-01   1.00800           0
     44133 MEMB     42       PVCL2    H4Y      HAL2     0.900000E-01   1.00800           0
     44134 MEMB     42       PVCL2    CD5      CTL2    -0.180000       12.0110           0
     44135 MEMB     42       PVCL2    H5X      HAL2     0.900000E-01   1.00800           0
     44136 MEMB     42       PVCL2    H5Y      HAL2     0.900000E-01   1.00800           0
     44137 MEMB     42       PVCL2    CD6      CTL2    -0.180000       12.0110           0
     44138 MEMB     42       PVCL2    H6X      HAL2     0.900000E-01   1.00800           0
     44139 MEMB     42       PVCL2    H6Y      HAL2     0.900000E-01   1.00800           0
     44140 MEMB     42       PVCL2    CD7      CTL2    -0.180000       12.0110           0
     44141 MEMB     42       PVCL2    H7X      HAL2     0.900000E-01   1.00800           0
     44142 MEMB     42       PVCL2    H7Y      HAL2     0.900000E-01   1.00800           0
     44143 MEMB     42       PVCL2    CD8      CTL2    -0.180000       12.0110           0
     44144 MEMB     42       PVCL2    H8X      HAL2     0.900000E-01   1.00800           0
     44145 MEMB     42       PVCL2    H8Y      HAL2     0.900000E-01   1.00800           0
     44146 MEMB     42       PVCL2    CD9      CTL2    -0.180000       12.0110           0
     44147 MEMB     42       PVCL2    H9X      HAL2     0.900000E-01   1.00800           0
     44148 MEMB     42       PVCL2    H9Y      HAL2     0.900000E-01   1.00800           0
     44149 MEMB     42       PVCL2    CD10     CTL2    -0.180000       12.0110           0
     44150 MEMB     42       PVCL2    H10X     HAL2     0.900000E-01   1.00800           0
     44151 MEMB     42       PVCL2    H10Y     HAL2     0.900000E-01   1.00800           0
     44152 MEMB     42       PVCL2    CD11     CTL2    -0.180000       12.0110           0
     44153 MEMB     42       PVCL2    H11X     HAL2     0.900000E-01   1.00800           0
     44154 MEMB     42       PVCL2    H11Y     HAL2     0.900000E-01   1.00800           0
     44155 MEMB     42       PVCL2    CD12     CTL2    -0.180000       12.0110           0
     44156 MEMB     42       PVCL2    H12X     HAL2     0.900000E-01   1.00800           0
     44157 MEMB     42       PVCL2    H12Y     HAL2     0.900000E-01   1.00800           0
     44158 MEMB     42       PVCL2    CD13     CTL2    -0.180000       12.0110           0
     44159 MEMB     42       PVCL2    H13X     HAL2     0.900000E-01   1.00800           0
     44160 MEMB     42       PVCL2    H13Y     HAL2     0.900000E-01   1.00800           0
     44161 MEMB     42       PVCL2    CD14     CTL2    -0.180000       12.0110           0
     44162 MEMB     42       PVCL2    H14X     HAL2     0.900000E-01   1.00800           0
     44163 MEMB     42       PVCL2    H14Y     HAL2     0.900000E-01   1.00800           0
     44164 MEMB     42       PVCL2    CD15     CTL2    -0.180000       12.0110           0
     44165 MEMB     42       PVCL2    H15X     HAL2     0.900000E-01   1.00800           0
     44166 MEMB     42       PVCL2    H15Y     HAL2     0.900000E-01   1.00800           0
     44167 MEMB     42       PVCL2    CD16     CTL3    -0.270000       12.0110           0
     44168 MEMB     42       PVCL2    H16X     HAL3     0.900000E-01   1.00800           0
     44169 MEMB     42       PVCL2    H16Y     HAL3     0.900000E-01   1.00800           0
     44170 MEMB     42       PVCL2    H16Z     HAL3     0.900000E-01   1.00800           0
     44171 MEMB     43       PPPE     N        NH3L    -0.300000       14.0070           0
     44172 MEMB     43       PPPE     HN1      HCL      0.330000       1.00800           0
     44173 MEMB     43       PPPE     HN2      HCL      0.330000       1.00800           0
     44174 MEMB     43       PPPE     HN3      HCL      0.330000       1.00800           0
     44175 MEMB     43       PPPE     C12      CTL2     0.130000       12.0110           0
     44176 MEMB     43       PPPE     H12A     HAL2     0.900000E-01   1.00800           0
     44177 MEMB     43       PPPE     H12B     HAL2     0.900000E-01   1.00800           0
     44178 MEMB     43       PPPE     C11      CTL2    -0.800000E-01   12.0110           0
     44179 MEMB     43       PPPE     H11A     HAL2     0.900000E-01   1.00800           0
     44180 MEMB     43       PPPE     H11B     HAL2     0.900000E-01   1.00800           0
     44181 MEMB     43       PPPE     P        PL        1.50000       30.9740           0
     44182 MEMB     43       PPPE     O13      O2L     -0.780000       15.9994           0
     44183 MEMB     43       PPPE     O14      O2L     -0.780000       15.9994           0
     44184 MEMB     43       PPPE     O11      OSLP    -0.570000       15.9994           0
     44185 MEMB     43       PPPE     O12      OSLP    -0.570000       15.9994           0
     44186 MEMB     43       PPPE     C1       CTL2    -0.800000E-01   12.0110           0
     44187 MEMB     43       PPPE     HA       HAL2     0.900000E-01   1.00800           0
     44188 MEMB     43       PPPE     HB       HAL2     0.900000E-01   1.00800           0
     44189 MEMB     43       PPPE     C2       CTL1     0.170000       12.0110           0
     44190 MEMB     43       PPPE     HS       HAL1     0.900000E-01   1.00800           0
     44191 MEMB     43       PPPE     O21      OSL     -0.490000       15.9994           0
     44192 MEMB     43       PPPE     C21      CL       0.900000       12.0110           0
     44193 MEMB     43       PPPE     O22      OBL     -0.630000       15.9994           0
     44194 MEMB     43       PPPE     C22      CTL2    -0.220000       12.0110           0
     44195 MEMB     43       PPPE     H2R      HAL2     0.900000E-01   1.00800           0
     44196 MEMB     43       PPPE     H2S      HAL2     0.900000E-01   1.00800           0
     44197 MEMB     43       PPPE     C3       CTL2     0.800000E-01   12.0110           0
     44198 MEMB     43       PPPE     HX       HAL2     0.900000E-01   1.00800           0
     44199 MEMB     43       PPPE     HY       HAL2     0.900000E-01   1.00800           0
     44200 MEMB     43       PPPE     O31      OSL     -0.490000       15.9994           0
     44201 MEMB     43       PPPE     C31      CL       0.900000       12.0110           0
     44202 MEMB     43       PPPE     O32      OBL     -0.630000       15.9994           0
     44203 MEMB     43       PPPE     C32      CTL2    -0.220000       12.0110           0
     44204 MEMB     43       PPPE     H2X      HAL2     0.900000E-01   1.00800           0
     44205 MEMB     43       PPPE     H2Y      HAL2     0.900000E-01   1.00800           0
     44206 MEMB     43       PPPE     C23      CTL2    -0.180000       12.0110           0
     44207 MEMB     43       PPPE     H3R      HAL2     0.900000E-01   1.00800           0
     44208 MEMB     43       PPPE     H3S      HAL2     0.900000E-01   1.00800           0
     44209 MEMB     43       PPPE     C24      CTL2    -0.180000       12.0110           0
     44210 MEMB     43       PPPE     H4R      HAL2     0.900000E-01   1.00800           0
     44211 MEMB     43       PPPE     H4S      HAL2     0.900000E-01   1.00800           0
     44212 MEMB     43       PPPE     C25      CTL2    -0.180000       12.0110           0
     44213 MEMB     43       PPPE     H5R      HAL2     0.900000E-01   1.00800           0
     44214 MEMB     43       PPPE     H5S      HAL2     0.900000E-01   1.00800           0
     44215 MEMB     43       PPPE     C26      CTL2    -0.180000       12.0110           0
     44216 MEMB     43       PPPE     H6R      HAL2     0.900000E-01   1.00800           0
     44217 MEMB     43       PPPE     H6S      HAL2     0.900000E-01   1.00800           0
     44218 MEMB     43       PPPE     C27      CTL2    -0.180000       12.0110           0
     44219 MEMB     43       PPPE     H7R      HAL2     0.900000E-01   1.00800           0
     44220 MEMB     43       PPPE     H7S      HAL2     0.900000E-01   1.00800           0
     44221 MEMB     43       PPPE     C28      CTL2    -0.180000       12.0110           0
     44222 MEMB     43       PPPE     H8R      HAL2     0.900000E-01   1.00800           0
     44223 MEMB     43       PPPE     H8S      HAL2     0.900000E-01   1.00800           0
     44224 MEMB     43       PPPE     C29      CEL1    -0.150000       12.0110           0
     44225 MEMB     43       PPPE     H91      HEL1     0.150000       1.00800           0
     44226 MEMB     43       PPPE     C210     CEL1    -0.150000       12.0110           0
     44227 MEMB     43       PPPE     H101     HEL1     0.150000       1.00800           0
     44228 MEMB     43       PPPE     C211     CTL2    -0.180000       12.0110           0
     44229 MEMB     43       PPPE     H11R     HAL2     0.900000E-01   1.00800           0
     44230 MEMB     43       PPPE     H11S     HAL2     0.900000E-01   1.00800           0
     44231 MEMB     43       PPPE     C212     CTL2    -0.180000       12.0110           0
     44232 MEMB     43       PPPE     H12R     HAL2     0.900000E-01   1.00800           0
     44233 MEMB     43       PPPE     H12S     HAL2     0.900000E-01   1.00800           0
     44234 MEMB     43       PPPE     C213     CTL2    -0.180000       12.0110           0
     44235 MEMB     43       PPPE     H13R     HAL2     0.900000E-01   1.00800           0
     44236 MEMB     43       PPPE     H13S     HAL2     0.900000E-01   1.00800           0
     44237 MEMB     43       PPPE     C214     CTL2    -0.180000       12.0110           0
     44238 MEMB     43       PPPE     H14R     HAL2     0.900000E-01   1.00800           0
     44239 MEMB     43       PPPE     H14S     HAL2     0.900000E-01   1.00800           0
     44240 MEMB     43       PPPE     C215     CTL2    -0.180000       12.0110           0
     44241 MEMB     43       PPPE     H15R     HAL2     0.900000E-01   1.00800           0
     44242 MEMB     43       PPPE     H15S     HAL2     0.900000E-01   1.00800           0
     44243 MEMB     43       PPPE     C216     CTL3    -0.270000       12.0110           0
     44244 MEMB     43       PPPE     H16R     HAL3     0.900000E-01   1.00800           0
     44245 MEMB     43       PPPE     H16S     HAL3     0.900000E-01   1.00800           0
     44246 MEMB     43       PPPE     H16T     HAL3     0.900000E-01   1.00800           0
     44247 MEMB     43       PPPE     C33      CTL2    -0.180000       12.0110           0
     44248 MEMB     43       PPPE     H3X      HAL2     0.900000E-01   1.00800           0
     44249 MEMB     43       PPPE     H3Y      HAL2     0.900000E-01   1.00800           0
     44250 MEMB     43       PPPE     C34      CTL2    -0.180000       12.0110           0
     44251 MEMB     43       PPPE     H4X      HAL2     0.900000E-01   1.00800           0
     44252 MEMB     43       PPPE     H4Y      HAL2     0.900000E-01   1.00800           0
     44253 MEMB     43       PPPE     C35      CTL2    -0.180000       12.0110           0
     44254 MEMB     43       PPPE     H5X      HAL2     0.900000E-01   1.00800           0
     44255 MEMB     43       PPPE     H5Y      HAL2     0.900000E-01   1.00800           0
     44256 MEMB     43       PPPE     C36      CTL2    -0.180000       12.0110           0
     44257 MEMB     43       PPPE     H6X      HAL2     0.900000E-01   1.00800           0
     44258 MEMB     43       PPPE     H6Y      HAL2     0.900000E-01   1.00800           0
     44259 MEMB     43       PPPE     C37      CTL2    -0.180000       12.0110           0
     44260 MEMB     43       PPPE     H7X      HAL2     0.900000E-01   1.00800           0
     44261 MEMB     43       PPPE     H7Y      HAL2     0.900000E-01   1.00800           0
     44262 MEMB     43       PPPE     C38      CTL2    -0.180000       12.0110           0
     44263 MEMB     43       PPPE     H8X      HAL2     0.900000E-01   1.00800           0
     44264 MEMB     43       PPPE     H8Y      HAL2     0.900000E-01   1.00800           0
     44265 MEMB     43       PPPE     C39      CTL2    -0.180000       12.0110           0
     44266 MEMB     43       PPPE     H9X      HAL2     0.900000E-01   1.00800           0
     44267 MEMB     43       PPPE     H9Y      HAL2     0.900000E-01   1.00800           0
     44268 MEMB     43       PPPE     C310     CTL2    -0.180000       12.0110           0
     44269 MEMB     43       PPPE     H10X     HAL2     0.900000E-01   1.00800           0
     44270 MEMB     43       PPPE     H10Y     HAL2     0.900000E-01   1.00800           0
     44271 MEMB     43       PPPE     C311     CTL2    -0.180000       12.0110           0
     44272 MEMB     43       PPPE     H11X     HAL2     0.900000E-01   1.00800           0
     44273 MEMB     43       PPPE     H11Y     HAL2     0.900000E-01   1.00800           0
     44274 MEMB     43       PPPE     C312     CTL2    -0.180000       12.0110           0
     44275 MEMB     43       PPPE     H12X     HAL2     0.900000E-01   1.00800           0
     44276 MEMB     43       PPPE     H12Y     HAL2     0.900000E-01   1.00800           0
     44277 MEMB     43       PPPE     C313     CTL2    -0.180000       12.0110           0
     44278 MEMB     43       PPPE     H13X     HAL2     0.900000E-01   1.00800           0
     44279 MEMB     43       PPPE     H13Y     HAL2     0.900000E-01   1.00800           0
     44280 MEMB     43       PPPE     C314     CTL2    -0.180000       12.0110           0
     44281 MEMB     43       PPPE     H14X     HAL2     0.900000E-01   1.00800           0
     44282 MEMB     43       PPPE     H14Y     HAL2     0.900000E-01   1.00800           0
     44283 MEMB     43       PPPE     C315     CTL2    -0.180000       12.0110           0
     44284 MEMB     43       PPPE     H15X     HAL2     0.900000E-01   1.00800           0
     44285 MEMB     43       PPPE     H15Y     HAL2     0.900000E-01   1.00800           0
     44286 MEMB     43       PPPE     C316     CTL3    -0.270000       12.0110           0
     44287 MEMB     43       PPPE     H16X     HAL3     0.900000E-01   1.00800           0
     44288 MEMB     43       PPPE     H16Y     HAL3     0.900000E-01   1.00800           0
     44289 MEMB     43       PPPE     H16Z     HAL3     0.900000E-01   1.00800           0
     44290 MEMB     44       PPPE     N        NH3L    -0.300000       14.0070           0
     44291 MEMB     44       PPPE     HN1      HCL      0.330000       1.00800           0
     44292 MEMB     44       PPPE     HN2      HCL      0.330000       1.00800           0
     44293 MEMB     44       PPPE     HN3      HCL      0.330000       1.00800           0
     44294 MEMB     44       PPPE     C12      CTL2     0.130000       12.0110           0
     44295 MEMB     44       PPPE     H12A     HAL2     0.900000E-01   1.00800           0
     44296 MEMB     44       PPPE     H12B     HAL2     0.900000E-01   1.00800           0
     44297 MEMB     44       PPPE     C11      CTL2    -0.800000E-01   12.0110           0
     44298 MEMB     44       PPPE     H11A     HAL2     0.900000E-01   1.00800           0
     44299 MEMB     44       PPPE     H11B     HAL2     0.900000E-01   1.00800           0
     44300 MEMB     44       PPPE     P        PL        1.50000       30.9740           0
     44301 MEMB     44       PPPE     O13      O2L     -0.780000       15.9994           0
     44302 MEMB     44       PPPE     O14      O2L     -0.780000       15.9994           0
     44303 MEMB     44       PPPE     O11      OSLP    -0.570000       15.9994           0
     44304 MEMB     44       PPPE     O12      OSLP    -0.570000       15.9994           0
     44305 MEMB     44       PPPE     C1       CTL2    -0.800000E-01   12.0110           0
     44306 MEMB     44       PPPE     HA       HAL2     0.900000E-01   1.00800           0
     44307 MEMB     44       PPPE     HB       HAL2     0.900000E-01   1.00800           0
     44308 MEMB     44       PPPE     C2       CTL1     0.170000       12.0110           0
     44309 MEMB     44       PPPE     HS       HAL1     0.900000E-01   1.00800           0
     44310 MEMB     44       PPPE     O21      OSL     -0.490000       15.9994           0
     44311 MEMB     44       PPPE     C21      CL       0.900000       12.0110           0
     44312 MEMB     44       PPPE     O22      OBL     -0.630000       15.9994           0
     44313 MEMB     44       PPPE     C22      CTL2    -0.220000       12.0110           0
     44314 MEMB     44       PPPE     H2R      HAL2     0.900000E-01   1.00800           0
     44315 MEMB     44       PPPE     H2S      HAL2     0.900000E-01   1.00800           0
     44316 MEMB     44       PPPE     C3       CTL2     0.800000E-01   12.0110           0
     44317 MEMB     44       PPPE     HX       HAL2     0.900000E-01   1.00800           0
     44318 MEMB     44       PPPE     HY       HAL2     0.900000E-01   1.00800           0
     44319 MEMB     44       PPPE     O31      OSL     -0.490000       15.9994           0
     44320 MEMB     44       PPPE     C31      CL       0.900000       12.0110           0
     44321 MEMB     44       PPPE     O32      OBL     -0.630000       15.9994           0
     44322 MEMB     44       PPPE     C32      CTL2    -0.220000       12.0110           0
     44323 MEMB     44       PPPE     H2X      HAL2     0.900000E-01   1.00800           0
     44324 MEMB     44       PPPE     H2Y      HAL2     0.900000E-01   1.00800           0
     44325 MEMB     44       PPPE     C23      CTL2    -0.180000       12.0110           0
     44326 MEMB     44       PPPE     H3R      HAL2     0.900000E-01   1.00800           0
     44327 MEMB     44       PPPE     H3S      HAL2     0.900000E-01   1.00800           0
     44328 MEMB     44       PPPE     C24      CTL2    -0.180000       12.0110           0
     44329 MEMB     44       PPPE     H4R      HAL2     0.900000E-01   1.00800           0
     44330 MEMB     44       PPPE     H4S      HAL2     0.900000E-01   1.00800           0
     44331 MEMB     44       PPPE     C25      CTL2    -0.180000       12.0110           0
     44332 MEMB     44       PPPE     H5R      HAL2     0.900000E-01   1.00800           0
     44333 MEMB     44       PPPE     H5S      HAL2     0.900000E-01   1.00800           0
     44334 MEMB     44       PPPE     C26      CTL2    -0.180000       12.0110           0
     44335 MEMB     44       PPPE     H6R      HAL2     0.900000E-01   1.00800           0
     44336 MEMB     44       PPPE     H6S      HAL2     0.900000E-01   1.00800           0
     44337 MEMB     44       PPPE     C27      CTL2    -0.180000       12.0110           0
     44338 MEMB     44       PPPE     H7R      HAL2     0.900000E-01   1.00800           0
     44339 MEMB     44       PPPE     H7S      HAL2     0.900000E-01   1.00800           0
     44340 MEMB     44       PPPE     C28      CTL2    -0.180000       12.0110           0
     44341 MEMB     44       PPPE     H8R      HAL2     0.900000E-01   1.00800           0
     44342 MEMB     44       PPPE     H8S      HAL2     0.900000E-01   1.00800           0
     44343 MEMB     44       PPPE     C29      CEL1    -0.150000       12.0110           0
     44344 MEMB     44       PPPE     H91      HEL1     0.150000       1.00800           0
     44345 MEMB     44       PPPE     C210     CEL1    -0.150000       12.0110           0
     44346 MEMB     44       PPPE     H101     HEL1     0.150000       1.00800           0
     44347 MEMB     44       PPPE     C211     CTL2    -0.180000       12.0110           0
     44348 MEMB     44       PPPE     H11R     HAL2     0.900000E-01   1.00800           0
     44349 MEMB     44       PPPE     H11S     HAL2     0.900000E-01   1.00800           0
     44350 MEMB     44       PPPE     C212     CTL2    -0.180000       12.0110           0
     44351 MEMB     44       PPPE     H12R     HAL2     0.900000E-01   1.00800           0
     44352 MEMB     44       PPPE     H12S     HAL2     0.900000E-01   1.00800           0
     44353 MEMB     44       PPPE     C213     CTL2    -0.180000       12.0110           0
     44354 MEMB     44       PPPE     H13R     HAL2     0.900000E-01   1.00800           0
     44355 MEMB     44       PPPE     H13S     HAL2     0.900000E-01   1.00800           0
     44356 MEMB     44       PPPE     C214     CTL2    -0.180000       12.0110           0
     44357 MEMB     44       PPPE     H14R     HAL2     0.900000E-01   1.00800           0
     44358 MEMB     44       PPPE     H14S     HAL2     0.900000E-01   1.00800           0
     44359 MEMB     44       PPPE     C215     CTL2    -0.180000       12.0110           0
     44360 MEMB     44       PPPE     H15R     HAL2     0.900000E-01   1.00800           0
     44361 MEMB     44       PPPE     H15S     HAL2     0.900000E-01   1.00800           0
     44362 MEMB     44       PPPE     C216     CTL3    -0.270000       12.0110           0
     44363 MEMB     44       PPPE     H16R     HAL3     0.900000E-01   1.00800           0
     44364 MEMB     44       PPPE     H16S     HAL3     0.900000E-01   1.00800           0
     44365 MEMB     44       PPPE     H16T     HAL3     0.900000E-01   1.00800           0
     44366 MEMB     44       PPPE     C33      CTL2    -0.180000       12.0110           0
     44367 MEMB     44       PPPE     H3X      HAL2     0.900000E-01   1.00800           0
     44368 MEMB     44       PPPE     H3Y      HAL2     0.900000E-01   1.00800           0
     44369 MEMB     44       PPPE     C34      CTL2    -0.180000       12.0110           0
     44370 MEMB     44       PPPE     H4X      HAL2     0.900000E-01   1.00800           0
     44371 MEMB     44       PPPE     H4Y      HAL2     0.900000E-01   1.00800           0
     44372 MEMB     44       PPPE     C35      CTL2    -0.180000       12.0110           0
     44373 MEMB     44       PPPE     H5X      HAL2     0.900000E-01   1.00800           0
     44374 MEMB     44       PPPE     H5Y      HAL2     0.900000E-01   1.00800           0
     44375 MEMB     44       PPPE     C36      CTL2    -0.180000       12.0110           0
     44376 MEMB     44       PPPE     H6X      HAL2     0.900000E-01   1.00800           0
     44377 MEMB     44       PPPE     H6Y      HAL2     0.900000E-01   1.00800           0
     44378 MEMB     44       PPPE     C37      CTL2    -0.180000       12.0110           0
     44379 MEMB     44       PPPE     H7X      HAL2     0.900000E-01   1.00800           0
     44380 MEMB     44       PPPE     H7Y      HAL2     0.900000E-01   1.00800           0
     44381 MEMB     44       PPPE     C38      CTL2    -0.180000       12.0110           0
     44382 MEMB     44       PPPE     H8X      HAL2     0.900000E-01   1.00800           0
     44383 MEMB     44       PPPE     H8Y      HAL2     0.900000E-01   1.00800           0
     44384 MEMB     44       PPPE     C39      CTL2    -0.180000       12.0110           0
     44385 MEMB     44       PPPE     H9X      HAL2     0.900000E-01   1.00800           0
     44386 MEMB     44       PPPE     H9Y      HAL2     0.900000E-01   1.00800           0
     44387 MEMB     44       PPPE     C310     CTL2    -0.180000       12.0110           0
     44388 MEMB     44       PPPE     H10X     HAL2     0.900000E-01   1.00800           0
     44389 MEMB     44       PPPE     H10Y     HAL2     0.900000E-01   1.00800           0
     44390 MEMB     44       PPPE     C311     CTL2    -0.180000       12.0110           0
     44391 MEMB     44       PPPE     H11X     HAL2     0.900000E-01   1.00800           0
     44392 MEMB     44       PPPE     H11Y     HAL2     0.900000E-01   1.00800           0
     44393 MEMB     44       PPPE     C312     CTL2    -0.180000       12.0110           0
     44394 MEMB     44       PPPE     H12X     HAL2     0.900000E-01   1.00800           0
     44395 MEMB     44       PPPE     H12Y     HAL2     0.900000E-01   1.00800           0
     44396 MEMB     44       PPPE     C313     CTL2    -0.180000       12.0110           0
     44397 MEMB     44       PPPE     H13X     HAL2     0.900000E-01   1.00800           0
     44398 MEMB     44       PPPE     H13Y     HAL2     0.900000E-01   1.00800           0
     44399 MEMB     44       PPPE     C314     CTL2    -0.180000       12.0110           0
     44400 MEMB     44       PPPE     H14X     HAL2     0.900000E-01   1.00800           0
     44401 MEMB     44       PPPE     H14Y     HAL2     0.900000E-01   1.00800           0
     44402 MEMB     44       PPPE     C315     CTL2    -0.180000       12.0110           0
     44403 MEMB     44       PPPE     H15X     HAL2     0.900000E-01   1.00800           0
     44404 MEMB     44       PPPE     H15Y     HAL2     0.900000E-01   1.00800           0
     44405 MEMB     44       PPPE     C316     CTL3    -0.270000       12.0110           0
     44406 MEMB     44       PPPE     H16X     HAL3     0.900000E-01   1.00800           0
     44407 MEMB     44       PPPE     H16Y     HAL3     0.900000E-01   1.00800           0
     44408 MEMB     44       PPPE     H16Z     HAL3     0.900000E-01   1.00800           0
     44409 MEMB     45       PPPE     N        NH3L    -0.300000       14.0070           0
     44410 MEMB     45       PPPE     HN1      HCL      0.330000       1.00800           0
     44411 MEMB     45       PPPE     HN2      HCL      0.330000       1.00800           0
     44412 MEMB     45       PPPE     HN3      HCL      0.330000       1.00800           0
     44413 MEMB     45       PPPE     C12      CTL2     0.130000       12.0110           0
     44414 MEMB     45       PPPE     H12A     HAL2     0.900000E-01   1.00800           0
     44415 MEMB     45       PPPE     H12B     HAL2     0.900000E-01   1.00800           0
     44416 MEMB     45       PPPE     C11      CTL2    -0.800000E-01   12.0110           0
     44417 MEMB     45       PPPE     H11A     HAL2     0.900000E-01   1.00800           0
     44418 MEMB     45       PPPE     H11B     HAL2     0.900000E-01   1.00800           0
     44419 MEMB     45       PPPE     P        PL        1.50000       30.9740           0
     44420 MEMB     45       PPPE     O13      O2L     -0.780000       15.9994           0
     44421 MEMB     45       PPPE     O14      O2L     -0.780000       15.9994           0
     44422 MEMB     45       PPPE     O11      OSLP    -0.570000       15.9994           0
     44423 MEMB     45       PPPE     O12      OSLP    -0.570000       15.9994           0
     44424 MEMB     45       PPPE     C1       CTL2    -0.800000E-01   12.0110           0
     44425 MEMB     45       PPPE     HA       HAL2     0.900000E-01   1.00800           0
     44426 MEMB     45       PPPE     HB       HAL2     0.900000E-01   1.00800           0
     44427 MEMB     45       PPPE     C2       CTL1     0.170000       12.0110           0
     44428 MEMB     45       PPPE     HS       HAL1     0.900000E-01   1.00800           0
     44429 MEMB     45       PPPE     O21      OSL     -0.490000       15.9994           0
     44430 MEMB     45       PPPE     C21      CL       0.900000       12.0110           0
     44431 MEMB     45       PPPE     O22      OBL     -0.630000       15.9994           0
     44432 MEMB     45       PPPE     C22      CTL2    -0.220000       12.0110           0
     44433 MEMB     45       PPPE     H2R      HAL2     0.900000E-01   1.00800           0
     44434 MEMB     45       PPPE     H2S      HAL2     0.900000E-01   1.00800           0
     44435 MEMB     45       PPPE     C3       CTL2     0.800000E-01   12.0110           0
     44436 MEMB     45       PPPE     HX       HAL2     0.900000E-01   1.00800           0
     44437 MEMB     45       PPPE     HY       HAL2     0.900000E-01   1.00800           0
     44438 MEMB     45       PPPE     O31      OSL     -0.490000       15.9994           0
     44439 MEMB     45       PPPE     C31      CL       0.900000       12.0110           0
     44440 MEMB     45       PPPE     O32      OBL     -0.630000       15.9994           0
     44441 MEMB     45       PPPE     C32      CTL2    -0.220000       12.0110           0
     44442 MEMB     45       PPPE     H2X      HAL2     0.900000E-01   1.00800           0
     44443 MEMB     45       PPPE     H2Y      HAL2     0.900000E-01   1.00800           0
     44444 MEMB     45       PPPE     C23      CTL2    -0.180000       12.0110           0
     44445 MEMB     45       PPPE     H3R      HAL2     0.900000E-01   1.00800           0
     44446 MEMB     45       PPPE     H3S      HAL2     0.900000E-01   1.00800           0
     44447 MEMB     45       PPPE     C24      CTL2    -0.180000       12.0110           0
     44448 MEMB     45       PPPE     H4R      HAL2     0.900000E-01   1.00800           0
     44449 MEMB     45       PPPE     H4S      HAL2     0.900000E-01   1.00800           0
     44450 MEMB     45       PPPE     C25      CTL2    -0.180000       12.0110           0
     44451 MEMB     45       PPPE     H5R      HAL2     0.900000E-01   1.00800           0
     44452 MEMB     45       PPPE     H5S      HAL2     0.900000E-01   1.00800           0
     44453 MEMB     45       PPPE     C26      CTL2    -0.180000       12.0110           0
     44454 MEMB     45       PPPE     H6R      HAL2     0.900000E-01   1.00800           0
     44455 MEMB     45       PPPE     H6S      HAL2     0.900000E-01   1.00800           0
     44456 MEMB     45       PPPE     C27      CTL2    -0.180000       12.0110           0
     44457 MEMB     45       PPPE     H7R      HAL2     0.900000E-01   1.00800           0
     44458 MEMB     45       PPPE     H7S      HAL2     0.900000E-01   1.00800           0
     44459 MEMB     45       PPPE     C28      CTL2    -0.180000       12.0110           0
     44460 MEMB     45       PPPE     H8R      HAL2     0.900000E-01   1.00800           0
     44461 MEMB     45       PPPE     H8S      HAL2     0.900000E-01   1.00800           0
     44462 MEMB     45       PPPE     C29      CEL1    -0.150000       12.0110           0
     44463 MEMB     45       PPPE     H91      HEL1     0.150000       1.00800           0
     44464 MEMB     45       PPPE     C210     CEL1    -0.150000       12.0110           0
     44465 MEMB     45       PPPE     H101     HEL1     0.150000       1.00800           0
     44466 MEMB     45       PPPE     C211     CTL2    -0.180000       12.0110           0
     44467 MEMB     45       PPPE     H11R     HAL2     0.900000E-01   1.00800           0
     44468 MEMB     45       PPPE     H11S     HAL2     0.900000E-01   1.00800           0
     44469 MEMB     45       PPPE     C212     CTL2    -0.180000       12.0110           0
     44470 MEMB     45       PPPE     H12R     HAL2     0.900000E-01   1.00800           0
     44471 MEMB     45       PPPE     H12S     HAL2     0.900000E-01   1.00800           0
     44472 MEMB     45       PPPE     C213     CTL2    -0.180000       12.0110           0
     44473 MEMB     45       PPPE     H13R     HAL2     0.900000E-01   1.00800           0
     44474 MEMB     45       PPPE     H13S     HAL2     0.900000E-01   1.00800           0
     44475 MEMB     45       PPPE     C214     CTL2    -0.180000       12.0110           0
     44476 MEMB     45       PPPE     H14R     HAL2     0.900000E-01   1.00800           0
     44477 MEMB     45       PPPE     H14S     HAL2     0.900000E-01   1.00800           0
     44478 MEMB     45       PPPE     C215     CTL2    -0.180000       12.0110           0
     44479 MEMB     45       PPPE     H15R     HAL2     0.900000E-01   1.00800           0
     44480 MEMB     45       PPPE     H15S     HAL2     0.900000E-01   1.00800           0
     44481 MEMB     45       PPPE     C216     CTL3    -0.270000       12.0110           0
     44482 MEMB     45       PPPE     H16R     HAL3     0.900000E-01   1.00800           0
     44483 MEMB     45       PPPE     H16S     HAL3     0.900000E-01   1.00800           0
     44484 MEMB     45       PPPE     H16T     HAL3     0.900000E-01   1.00800           0
     44485 MEMB     45       PPPE     C33      CTL2    -0.180000       12.0110           0
     44486 MEMB     45       PPPE     H3X      HAL2     0.900000E-01   1.00800           0
     44487 MEMB     45       PPPE     H3Y      HAL2     0.900000E-01   1.00800           0
     44488 MEMB     45       PPPE     C34      CTL2    -0.180000       12.0110           0
     44489 MEMB     45       PPPE     H4X      HAL2     0.900000E-01   1.00800           0
     44490 MEMB     45       PPPE     H4Y      HAL2     0.900000E-01   1.00800           0
     44491 MEMB     45       PPPE     C35      CTL2    -0.180000       12.0110           0
     44492 MEMB     45       PPPE     H5X      HAL2     0.900000E-01   1.00800           0
     44493 MEMB     45       PPPE     H5Y      HAL2     0.900000E-01   1.00800           0
     44494 MEMB     45       PPPE     C36      CTL2    -0.180000       12.0110           0
     44495 MEMB     45       PPPE     H6X      HAL2     0.900000E-01   1.00800           0
     44496 MEMB     45       PPPE     H6Y      HAL2     0.900000E-01   1.00800           0
     44497 MEMB     45       PPPE     C37      CTL2    -0.180000       12.0110           0
     44498 MEMB     45       PPPE     H7X      HAL2     0.900000E-01   1.00800           0
     44499 MEMB     45       PPPE     H7Y      HAL2     0.900000E-01   1.00800           0
     44500 MEMB     45       PPPE     C38      CTL2    -0.180000       12.0110           0
     44501 MEMB     45       PPPE     H8X      HAL2     0.900000E-01   1.00800           0
     44502 MEMB     45       PPPE     H8Y      HAL2     0.900000E-01   1.00800           0
     44503 MEMB     45       PPPE     C39      CTL2    -0.180000       12.0110           0
     44504 MEMB     45       PPPE     H9X      HAL2     0.900000E-01   1.00800           0
     44505 MEMB     45       PPPE     H9Y      HAL2     0.900000E-01   1.00800           0
     44506 MEMB     45       PPPE     C310     CTL2    -0.180000       12.0110           0
     44507 MEMB     45       PPPE     H10X     HAL2     0.900000E-01   1.00800           0
     44508 MEMB     45       PPPE     H10Y     HAL2     0.900000E-01   1.00800           0
     44509 MEMB     45       PPPE     C311     CTL2    -0.180000       12.0110           0
     44510 MEMB     45       PPPE     H11X     HAL2     0.900000E-01   1.00800           0
     44511 MEMB     45       PPPE     H11Y     HAL2     0.900000E-01   1.00800           0
     44512 MEMB     45       PPPE     C312     CTL2    -0.180000       12.0110           0
     44513 MEMB     45       PPPE     H12X     HAL2     0.900000E-01   1.00800           0
     44514 MEMB     45       PPPE     H12Y     HAL2     0.900000E-01   1.00800           0
     44515 MEMB     45       PPPE     C313     CTL2    -0.180000       12.0110           0
     44516 MEMB     45       PPPE     H13X     HAL2     0.900000E-01   1.00800           0
     44517 MEMB     45       PPPE     H13Y     HAL2     0.900000E-01   1.00800           0
     44518 MEMB     45       PPPE     C314     CTL2    -0.180000       12.0110           0
     44519 MEMB     45       PPPE     H14X     HAL2     0.900000E-01   1.00800           0
     44520 MEMB     45       PPPE     H14Y     HAL2     0.900000E-01   1.00800           0
     44521 MEMB     45       PPPE     C315     CTL2    -0.180000       12.0110           0
     44522 MEMB     45       PPPE     H15X     HAL2     0.900000E-01   1.00800           0
     44523 MEMB     45       PPPE     H15Y     HAL2     0.900000E-01   1.00800           0
     44524 MEMB     45       PPPE     C316     CTL3    -0.270000       12.0110           0
     44525 MEMB     45       PPPE     H16X     HAL3     0.900000E-01   1.00800           0
     44526 MEMB     45       PPPE     H16Y     HAL3     0.900000E-01   1.00800           0
     44527 MEMB     45       PPPE     H16Z     HAL3     0.900000E-01   1.00800           0
     44528 MEMB     46       PPPE     N        NH3L    -0.300000       14.0070           0
     44529 MEMB     46       PPPE     HN1      HCL      0.330000       1.00800           0
     44530 MEMB     46       PPPE     HN2      HCL      0.330000       1.00800           0
     44531 MEMB     46       PPPE     HN3      HCL      0.330000       1.00800           0
     44532 MEMB     46       PPPE     C12      CTL2     0.130000       12.0110           0
     44533 MEMB     46       PPPE     H12A     HAL2     0.900000E-01   1.00800           0
     44534 MEMB     46       PPPE     H12B     HAL2     0.900000E-01   1.00800           0
     44535 MEMB     46       PPPE     C11      CTL2    -0.800000E-01   12.0110           0
     44536 MEMB     46       PPPE     H11A     HAL2     0.900000E-01   1.00800           0
     44537 MEMB     46       PPPE     H11B     HAL2     0.900000E-01   1.00800           0
     44538 MEMB     46       PPPE     P        PL        1.50000       30.9740           0
     44539 MEMB     46       PPPE     O13      O2L     -0.780000       15.9994           0
     44540 MEMB     46       PPPE     O14      O2L     -0.780000       15.9994           0
     44541 MEMB     46       PPPE     O11      OSLP    -0.570000       15.9994           0
     44542 MEMB     46       PPPE     O12      OSLP    -0.570000       15.9994           0
     44543 MEMB     46       PPPE     C1       CTL2    -0.800000E-01   12.0110           0
     44544 MEMB     46       PPPE     HA       HAL2     0.900000E-01   1.00800           0
     44545 MEMB     46       PPPE     HB       HAL2     0.900000E-01   1.00800           0
     44546 MEMB     46       PPPE     C2       CTL1     0.170000       12.0110           0
     44547 MEMB     46       PPPE     HS       HAL1     0.900000E-01   1.00800           0
     44548 MEMB     46       PPPE     O21      OSL     -0.490000       15.9994           0
     44549 MEMB     46       PPPE     C21      CL       0.900000       12.0110           0
     44550 MEMB     46       PPPE     O22      OBL     -0.630000       15.9994           0
     44551 MEMB     46       PPPE     C22      CTL2    -0.220000       12.0110           0
     44552 MEMB     46       PPPE     H2R      HAL2     0.900000E-01   1.00800           0
     44553 MEMB     46       PPPE     H2S      HAL2     0.900000E-01   1.00800           0
     44554 MEMB     46       PPPE     C3       CTL2     0.800000E-01   12.0110           0
     44555 MEMB     46       PPPE     HX       HAL2     0.900000E-01   1.00800           0
     44556 MEMB     46       PPPE     HY       HAL2     0.900000E-01   1.00800           0
     44557 MEMB     46       PPPE     O31      OSL     -0.490000       15.9994           0
     44558 MEMB     46       PPPE     C31      CL       0.900000       12.0110           0
     44559 MEMB     46       PPPE     O32      OBL     -0.630000       15.9994           0
     44560 MEMB     46       PPPE     C32      CTL2    -0.220000       12.0110           0
     44561 MEMB     46       PPPE     H2X      HAL2     0.900000E-01   1.00800           0
     44562 MEMB     46       PPPE     H2Y      HAL2     0.900000E-01   1.00800           0
     44563 MEMB     46       PPPE     C23      CTL2    -0.180000       12.0110           0
     44564 MEMB     46       PPPE     H3R      HAL2     0.900000E-01   1.00800           0
     44565 MEMB     46       PPPE     H3S      HAL2     0.900000E-01   1.00800           0
     44566 MEMB     46       PPPE     C24      CTL2    -0.180000       12.0110           0
     44567 MEMB     46       PPPE     H4R      HAL2     0.900000E-01   1.00800           0
     44568 MEMB     46       PPPE     H4S      HAL2     0.900000E-01   1.00800           0
     44569 MEMB     46       PPPE     C25      CTL2    -0.180000       12.0110           0
     44570 MEMB     46       PPPE     H5R      HAL2     0.900000E-01   1.00800           0
     44571 MEMB     46       PPPE     H5S      HAL2     0.900000E-01   1.00800           0
     44572 MEMB     46       PPPE     C26      CTL2    -0.180000       12.0110           0
     44573 MEMB     46       PPPE     H6R      HAL2     0.900000E-01   1.00800           0
     44574 MEMB     46       PPPE     H6S      HAL2     0.900000E-01   1.00800           0
     44575 MEMB     46       PPPE     C27      CTL2    -0.180000       12.0110           0
     44576 MEMB     46       PPPE     H7R      HAL2     0.900000E-01   1.00800           0
     44577 MEMB     46       PPPE     H7S      HAL2     0.900000E-01   1.00800           0
     44578 MEMB     46       PPPE     C28      CTL2    -0.180000       12.0110           0
     44579 MEMB     46       PPPE     H8R      HAL2     0.900000E-01   1.00800           0
     44580 MEMB     46       PPPE     H8S      HAL2     0.900000E-01   1.00800           0
     44581 MEMB     46       PPPE     C29      CEL1    -0.150000       12.0110           0
     44582 MEMB     46       PPPE     H91      HEL1     0.150000       1.00800           0
     44583 MEMB     46       PPPE     C210     CEL1    -0.150000       12.0110           0
     44584 MEMB     46       PPPE     H101     HEL1     0.150000       1.00800           0
     44585 MEMB     46       PPPE     C211     CTL2    -0.180000       12.0110           0
     44586 MEMB     46       PPPE     H11R     HAL2     0.900000E-01   1.00800           0
     44587 MEMB     46       PPPE     H11S     HAL2     0.900000E-01   1.00800           0
     44588 MEMB     46       PPPE     C212     CTL2    -0.180000       12.0110           0
     44589 MEMB     46       PPPE     H12R     HAL2     0.900000E-01   1.00800           0
     44590 MEMB     46       PPPE     H12S     HAL2     0.900000E-01   1.00800           0
     44591 MEMB     46       PPPE     C213     CTL2    -0.180000       12.0110           0
     44592 MEMB     46       PPPE     H13R     HAL2     0.900000E-01   1.00800           0
     44593 MEMB     46       PPPE     H13S     HAL2     0.900000E-01   1.00800           0
     44594 MEMB     46       PPPE     C214     CTL2    -0.180000       12.0110           0
     44595 MEMB     46       PPPE     H14R     HAL2     0.900000E-01   1.00800           0
     44596 MEMB     46       PPPE     H14S     HAL2     0.900000E-01   1.00800           0
     44597 MEMB     46       PPPE     C215     CTL2    -0.180000       12.0110           0
     44598 MEMB     46       PPPE     H15R     HAL2     0.900000E-01   1.00800           0
     44599 MEMB     46       PPPE     H15S     HAL2     0.900000E-01   1.00800           0
     44600 MEMB     46       PPPE     C216     CTL3    -0.270000       12.0110           0
     44601 MEMB     46       PPPE     H16R     HAL3     0.900000E-01   1.00800           0
     44602 MEMB     46       PPPE     H16S     HAL3     0.900000E-01   1.00800           0
     44603 MEMB     46       PPPE     H16T     HAL3     0.900000E-01   1.00800           0
     44604 MEMB     46       PPPE     C33      CTL2    -0.180000       12.0110           0
     44605 MEMB     46       PPPE     H3X      HAL2     0.900000E-01   1.00800           0
     44606 MEMB     46       PPPE     H3Y      HAL2     0.900000E-01   1.00800           0
     44607 MEMB     46       PPPE     C34      CTL2    -0.180000       12.0110           0
     44608 MEMB     46       PPPE     H4X      HAL2     0.900000E-01   1.00800           0
     44609 MEMB     46       PPPE     H4Y      HAL2     0.900000E-01   1.00800           0
     44610 MEMB     46       PPPE     C35      CTL2    -0.180000       12.0110           0
     44611 MEMB     46       PPPE     H5X      HAL2     0.900000E-01   1.00800           0
     44612 MEMB     46       PPPE     H5Y      HAL2     0.900000E-01   1.00800           0
     44613 MEMB     46       PPPE     C36      CTL2    -0.180000       12.0110           0
     44614 MEMB     46       PPPE     H6X      HAL2     0.900000E-01   1.00800           0
     44615 MEMB     46       PPPE     H6Y      HAL2     0.900000E-01   1.00800           0
     44616 MEMB     46       PPPE     C37      CTL2    -0.180000       12.0110           0
     44617 MEMB     46       PPPE     H7X      HAL2     0.900000E-01   1.00800           0
     44618 MEMB     46       PPPE     H7Y      HAL2     0.900000E-01   1.00800           0
     44619 MEMB     46       PPPE     C38      CTL2    -0.180000       12.0110           0
     44620 MEMB     46       PPPE     H8X      HAL2     0.900000E-01   1.00800           0
     44621 MEMB     46       PPPE     H8Y      HAL2     0.900000E-01   1.00800           0
     44622 MEMB     46       PPPE     C39      CTL2    -0.180000       12.0110           0
     44623 MEMB     46       PPPE     H9X      HAL2     0.900000E-01   1.00800           0
     44624 MEMB     46       PPPE     H9Y      HAL2     0.900000E-01   1.00800           0
     44625 MEMB     46       PPPE     C310     CTL2    -0.180000       12.0110           0
     44626 MEMB     46       PPPE     H10X     HAL2     0.900000E-01   1.00800           0
     44627 MEMB     46       PPPE     H10Y     HAL2     0.900000E-01   1.00800           0
     44628 MEMB     46       PPPE     C311     CTL2    -0.180000       12.0110           0
     44629 MEMB     46       PPPE     H11X     HAL2     0.900000E-01   1.00800           0
     44630 MEMB     46       PPPE     H11Y     HAL2     0.900000E-01   1.00800           0
     44631 MEMB     46       PPPE     C312     CTL2    -0.180000       12.0110           0
     44632 MEMB     46       PPPE     H12X     HAL2     0.900000E-01   1.00800           0
     44633 MEMB     46       PPPE     H12Y     HAL2     0.900000E-01   1.00800           0
     44634 MEMB     46       PPPE     C313     CTL2    -0.180000       12.0110           0
     44635 MEMB     46       PPPE     H13X     HAL2     0.900000E-01   1.00800           0
     44636 MEMB     46       PPPE     H13Y     HAL2     0.900000E-01   1.00800           0
     44637 MEMB     46       PPPE     C314     CTL2    -0.180000       12.0110           0
     44638 MEMB     46       PPPE     H14X     HAL2     0.900000E-01   1.00800           0
     44639 MEMB     46       PPPE     H14Y     HAL2     0.900000E-01   1.00800           0
     44640 MEMB     46       PPPE     C315     CTL2    -0.180000       12.0110           0
     44641 MEMB     46       PPPE     H15X     HAL2     0.900000E-01   1.00800           0
     44642 MEMB     46       PPPE     H15Y     HAL2     0.900000E-01   1.00800           0
     44643 MEMB     46       PPPE     C316     CTL3    -0.270000       12.0110           0
     44644 MEMB     46       PPPE     H16X     HAL3     0.900000E-01   1.00800           0
     44645 MEMB     46       PPPE     H16Y     HAL3     0.900000E-01   1.00800           0
     44646 MEMB     46       PPPE     H16Z     HAL3     0.900000E-01   1.00800           0
     44647 MEMB     47       PPPE     N        NH3L    -0.300000       14.0070           0
     44648 MEMB     47       PPPE     HN1      HCL      0.330000       1.00800           0
     44649 MEMB     47       PPPE     HN2      HCL      0.330000       1.00800           0
     44650 MEMB     47       PPPE     HN3      HCL      0.330000       1.00800           0
     44651 MEMB     47       PPPE     C12      CTL2     0.130000       12.0110           0
     44652 MEMB     47       PPPE     H12A     HAL2     0.900000E-01   1.00800           0
     44653 MEMB     47       PPPE     H12B     HAL2     0.900000E-01   1.00800           0
     44654 MEMB     47       PPPE     C11      CTL2    -0.800000E-01   12.0110           0
     44655 MEMB     47       PPPE     H11A     HAL2     0.900000E-01   1.00800           0
     44656 MEMB     47       PPPE     H11B     HAL2     0.900000E-01   1.00800           0
     44657 MEMB     47       PPPE     P        PL        1.50000       30.9740           0
     44658 MEMB     47       PPPE     O13      O2L     -0.780000       15.9994           0
     44659 MEMB     47       PPPE     O14      O2L     -0.780000       15.9994           0
     44660 MEMB     47       PPPE     O11      OSLP    -0.570000       15.9994           0
     44661 MEMB     47       PPPE     O12      OSLP    -0.570000       15.9994           0
     44662 MEMB     47       PPPE     C1       CTL2    -0.800000E-01   12.0110           0
     44663 MEMB     47       PPPE     HA       HAL2     0.900000E-01   1.00800           0
     44664 MEMB     47       PPPE     HB       HAL2     0.900000E-01   1.00800           0
     44665 MEMB     47       PPPE     C2       CTL1     0.170000       12.0110           0
     44666 MEMB     47       PPPE     HS       HAL1     0.900000E-01   1.00800           0
     44667 MEMB     47       PPPE     O21      OSL     -0.490000       15.9994           0
     44668 MEMB     47       PPPE     C21      CL       0.900000       12.0110           0
     44669 MEMB     47       PPPE     O22      OBL     -0.630000       15.9994           0
     44670 MEMB     47       PPPE     C22      CTL2    -0.220000       12.0110           0
     44671 MEMB     47       PPPE     H2R      HAL2     0.900000E-01   1.00800           0
     44672 MEMB     47       PPPE     H2S      HAL2     0.900000E-01   1.00800           0
     44673 MEMB     47       PPPE     C3       CTL2     0.800000E-01   12.0110           0
     44674 MEMB     47       PPPE     HX       HAL2     0.900000E-01   1.00800           0
     44675 MEMB     47       PPPE     HY       HAL2     0.900000E-01   1.00800           0
     44676 MEMB     47       PPPE     O31      OSL     -0.490000       15.9994           0
     44677 MEMB     47       PPPE     C31      CL       0.900000       12.0110           0
     44678 MEMB     47       PPPE     O32      OBL     -0.630000       15.9994           0
     44679 MEMB     47       PPPE     C32      CTL2    -0.220000       12.0110           0
     44680 MEMB     47       PPPE     H2X      HAL2     0.900000E-01   1.00800           0
     44681 MEMB     47       PPPE     H2Y      HAL2     0.900000E-01   1.00800           0
     44682 MEMB     47       PPPE     C23      CTL2    -0.180000       12.0110           0
     44683 MEMB     47       PPPE     H3R      HAL2     0.900000E-01   1.00800           0
     44684 MEMB     47       PPPE     H3S      HAL2     0.900000E-01   1.00800           0
     44685 MEMB     47       PPPE     C24      CTL2    -0.180000       12.0110           0
     44686 MEMB     47       PPPE     H4R      HAL2     0.900000E-01   1.00800           0
     44687 MEMB     47       PPPE     H4S      HAL2     0.900000E-01   1.00800           0
     44688 MEMB     47       PPPE     C25      CTL2    -0.180000       12.0110           0
     44689 MEMB     47       PPPE     H5R      HAL2     0.900000E-01   1.00800           0
     44690 MEMB     47       PPPE     H5S      HAL2     0.900000E-01   1.00800           0
     44691 MEMB     47       PPPE     C26      CTL2    -0.180000       12.0110           0
     44692 MEMB     47       PPPE     H6R      HAL2     0.900000E-01   1.00800           0
     44693 MEMB     47       PPPE     H6S      HAL2     0.900000E-01   1.00800           0
     44694 MEMB     47       PPPE     C27      CTL2    -0.180000       12.0110           0
     44695 MEMB     47       PPPE     H7R      HAL2     0.900000E-01   1.00800           0
     44696 MEMB     47       PPPE     H7S      HAL2     0.900000E-01   1.00800           0
     44697 MEMB     47       PPPE     C28      CTL2    -0.180000       12.0110           0
     44698 MEMB     47       PPPE     H8R      HAL2     0.900000E-01   1.00800           0
     44699 MEMB     47       PPPE     H8S      HAL2     0.900000E-01   1.00800           0
     44700 MEMB     47       PPPE     C29      CEL1    -0.150000       12.0110           0
     44701 MEMB     47       PPPE     H91      HEL1     0.150000       1.00800           0
     44702 MEMB     47       PPPE     C210     CEL1    -0.150000       12.0110           0
     44703 MEMB     47       PPPE     H101     HEL1     0.150000       1.00800           0
     44704 MEMB     47       PPPE     C211     CTL2    -0.180000       12.0110           0
     44705 MEMB     47       PPPE     H11R     HAL2     0.900000E-01   1.00800           0
     44706 MEMB     47       PPPE     H11S     HAL2     0.900000E-01   1.00800           0
     44707 MEMB     47       PPPE     C212     CTL2    -0.180000       12.0110           0
     44708 MEMB     47       PPPE     H12R     HAL2     0.900000E-01   1.00800           0
     44709 MEMB     47       PPPE     H12S     HAL2     0.900000E-01   1.00800           0
     44710 MEMB     47       PPPE     C213     CTL2    -0.180000       12.0110           0
     44711 MEMB     47       PPPE     H13R     HAL2     0.900000E-01   1.00800           0
     44712 MEMB     47       PPPE     H13S     HAL2     0.900000E-01   1.00800           0
     44713 MEMB     47       PPPE     C214     CTL2    -0.180000       12.0110           0
     44714 MEMB     47       PPPE     H14R     HAL2     0.900000E-01   1.00800           0
     44715 MEMB     47       PPPE     H14S     HAL2     0.900000E-01   1.00800           0
     44716 MEMB     47       PPPE     C215     CTL2    -0.180000       12.0110           0
     44717 MEMB     47       PPPE     H15R     HAL2     0.900000E-01   1.00800           0
     44718 MEMB     47       PPPE     H15S     HAL2     0.900000E-01   1.00800           0
     44719 MEMB     47       PPPE     C216     CTL3    -0.270000       12.0110           0
     44720 MEMB     47       PPPE     H16R     HAL3     0.900000E-01   1.00800           0
     44721 MEMB     47       PPPE     H16S     HAL3     0.900000E-01   1.00800           0
     44722 MEMB     47       PPPE     H16T     HAL3     0.900000E-01   1.00800           0
     44723 MEMB     47       PPPE     C33      CTL2    -0.180000       12.0110           0
     44724 MEMB     47       PPPE     H3X      HAL2     0.900000E-01   1.00800           0
     44725 MEMB     47       PPPE     H3Y      HAL2     0.900000E-01   1.00800           0
     44726 MEMB     47       PPPE     C34      CTL2    -0.180000       12.0110           0
     44727 MEMB     47       PPPE     H4X      HAL2     0.900000E-01   1.00800           0
     44728 MEMB     47       PPPE     H4Y      HAL2     0.900000E-01   1.00800           0
     44729 MEMB     47       PPPE     C35      CTL2    -0.180000       12.0110           0
     44730 MEMB     47       PPPE     H5X      HAL2     0.900000E-01   1.00800           0
     44731 MEMB     47       PPPE     H5Y      HAL2     0.900000E-01   1.00800           0
     44732 MEMB     47       PPPE     C36      CTL2    -0.180000       12.0110           0
     44733 MEMB     47       PPPE     H6X      HAL2     0.900000E-01   1.00800           0
     44734 MEMB     47       PPPE     H6Y      HAL2     0.900000E-01   1.00800           0
     44735 MEMB     47       PPPE     C37      CTL2    -0.180000       12.0110           0
     44736 MEMB     47       PPPE     H7X      HAL2     0.900000E-01   1.00800           0
     44737 MEMB     47       PPPE     H7Y      HAL2     0.900000E-01   1.00800           0
     44738 MEMB     47       PPPE     C38      CTL2    -0.180000       12.0110           0
     44739 MEMB     47       PPPE     H8X      HAL2     0.900000E-01   1.00800           0
     44740 MEMB     47       PPPE     H8Y      HAL2     0.900000E-01   1.00800           0
     44741 MEMB     47       PPPE     C39      CTL2    -0.180000       12.0110           0
     44742 MEMB     47       PPPE     H9X      HAL2     0.900000E-01   1.00800           0
     44743 MEMB     47       PPPE     H9Y      HAL2     0.900000E-01   1.00800           0
     44744 MEMB     47       PPPE     C310     CTL2    -0.180000       12.0110           0
     44745 MEMB     47       PPPE     H10X     HAL2     0.900000E-01   1.00800           0
     44746 MEMB     47       PPPE     H10Y     HAL2     0.900000E-01   1.00800           0
     44747 MEMB     47       PPPE     C311     CTL2    -0.180000       12.0110           0
     44748 MEMB     47       PPPE     H11X     HAL2     0.900000E-01   1.00800           0
     44749 MEMB     47       PPPE     H11Y     HAL2     0.900000E-01   1.00800           0
     44750 MEMB     47       PPPE     C312     CTL2    -0.180000       12.0110           0
     44751 MEMB     47       PPPE     H12X     HAL2     0.900000E-01   1.00800           0
     44752 MEMB     47       PPPE     H12Y     HAL2     0.900000E-01   1.00800           0
     44753 MEMB     47       PPPE     C313     CTL2    -0.180000       12.0110           0
     44754 MEMB     47       PPPE     H13X     HAL2     0.900000E-01   1.00800           0
     44755 MEMB     47       PPPE     H13Y     HAL2     0.900000E-01   1.00800           0
     44756 MEMB     47       PPPE     C314     CTL2    -0.180000       12.0110           0
     44757 MEMB     47       PPPE     H14X     HAL2     0.900000E-01   1.00800           0
     44758 MEMB     47       PPPE     H14Y     HAL2     0.900000E-01   1.00800           0
     44759 MEMB     47       PPPE     C315     CTL2    -0.180000       12.0110           0
     44760 MEMB     47       PPPE     H15X     HAL2     0.900000E-01   1.00800           0
     44761 MEMB     47       PPPE     H15Y     HAL2     0.900000E-01   1.00800           0
     44762 MEMB     47       PPPE     C316     CTL3    -0.270000       12.0110           0
     44763 MEMB     47       PPPE     H16X     HAL3     0.900000E-01   1.00800           0
     44764 MEMB     47       PPPE     H16Y     HAL3     0.900000E-01   1.00800           0
     44765 MEMB     47       PPPE     H16Z     HAL3     0.900000E-01   1.00800           0
     44766 MEMB     48       PVCL2    C3       CTL2    -0.800000E-01   12.0110           0
     44767 MEMB     48       PVCL2    HG31     HAL2     0.900000E-01   1.00800           0
     44768 MEMB     48       PVCL2    HG32     HAL2     0.900000E-01   1.00800           0
     44769 MEMB     48       PVCL2    P3       PL        1.50000       30.9740           0
     44770 MEMB     48       PVCL2    OP33     O2L     -0.780000       15.9994           0
     44771 MEMB     48       PVCL2    OP34     O2L     -0.780000       15.9994           0
     44772 MEMB     48       PVCL2    OP31     OSLP    -0.570000       15.9994           0
     44773 MEMB     48       PVCL2    OP32     OSLP    -0.570000       15.9994           0
     44774 MEMB     48       PVCL2    C31      CTL2    -0.800000E-01   12.0110           0
     44775 MEMB     48       PVCL2    H31J     HAL2     0.900000E-01   1.00800           0
     44776 MEMB     48       PVCL2    H31K     HAL2     0.900000E-01   1.00800           0
     44777 MEMB     48       PVCL2    C2       CTL1     0.140000       12.0110           0
     44778 MEMB     48       PVCL2    HG22     HAL1     0.900000E-01   1.00800           0
     44779 MEMB     48       PVCL2    OG12     OHL     -0.650000       15.9994           0
     44780 MEMB     48       PVCL2    HO12     HOL      0.420000       1.00800           0
     44781 MEMB     48       PVCL2    C1       CTL2    -0.800000E-01   12.0110           0
     44782 MEMB     48       PVCL2    HG11     HAL2     0.900000E-01   1.00800           0
     44783 MEMB     48       PVCL2    HG12     HAL2     0.900000E-01   1.00800           0
     44784 MEMB     48       PVCL2    P1       PL        1.50000       30.9740           0
     44785 MEMB     48       PVCL2    OP13     O2L     -0.780000       15.9994           0
     44786 MEMB     48       PVCL2    OP14     O2L     -0.780000       15.9994           0
     44787 MEMB     48       PVCL2    OP11     OSLP    -0.570000       15.9994           0
     44788 MEMB     48       PVCL2    OP12     OSLP    -0.570000       15.9994           0
     44789 MEMB     48       PVCL2    C11      CTL2    -0.800000E-01   12.0110           0
     44790 MEMB     48       PVCL2    H11J     HAL2     0.900000E-01   1.00800           0
     44791 MEMB     48       PVCL2    H11K     HAL2     0.900000E-01   1.00800           0
     44792 MEMB     48       PVCL2    C12      CTL1     0.170000       12.0110           0
     44793 MEMB     48       PVCL2    H12J     HAL1     0.900000E-01   1.00800           0
     44794 MEMB     48       PVCL2    O12      OSL     -0.490000       15.9994           0
     44795 MEMB     48       PVCL2    CA1      CL       0.900000       12.0110           0
     44796 MEMB     48       PVCL2    OA1      OBL     -0.630000       15.9994           0
     44797 MEMB     48       PVCL2    CA2      CTL2    -0.220000       12.0110           0
     44798 MEMB     48       PVCL2    H2A      HAL2     0.900000E-01   1.00800           0
     44799 MEMB     48       PVCL2    H2B      HAL2     0.900000E-01   1.00800           0
     44800 MEMB     48       PVCL2    C13      CTL2     0.800000E-01   12.0110           0
     44801 MEMB     48       PVCL2    H13J     HAL2     0.900000E-01   1.00800           0
     44802 MEMB     48       PVCL2    H13K     HAL2     0.900000E-01   1.00800           0
     44803 MEMB     48       PVCL2    O13      OSL     -0.490000       15.9994           0
     44804 MEMB     48       PVCL2    CB1      CL       0.900000       12.0110           0
     44805 MEMB     48       PVCL2    OB1      OBL     -0.630000       15.9994           0
     44806 MEMB     48       PVCL2    CB2      CTL2    -0.220000       12.0110           0
     44807 MEMB     48       PVCL2    H2D      HAL2     0.900000E-01   1.00800           0
     44808 MEMB     48       PVCL2    H2E      HAL2     0.900000E-01   1.00800           0
     44809 MEMB     48       PVCL2    C32      CTL1     0.170000       12.0110           0
     44810 MEMB     48       PVCL2    H32J     HAL1     0.900000E-01   1.00800           0
     44811 MEMB     48       PVCL2    O32      OSL     -0.490000       15.9994           0
     44812 MEMB     48       PVCL2    CC1      CL       0.900000       12.0110           0
     44813 MEMB     48       PVCL2    OC1      OBL     -0.630000       15.9994           0
     44814 MEMB     48       PVCL2    CC2      CTL2    -0.220000       12.0110           0
     44815 MEMB     48       PVCL2    H2R      HAL2     0.900000E-01   1.00800           0
     44816 MEMB     48       PVCL2    H2S      HAL2     0.900000E-01   1.00800           0
     44817 MEMB     48       PVCL2    C33      CTL2     0.800000E-01   12.0110           0
     44818 MEMB     48       PVCL2    H33J     HAL2     0.900000E-01   1.00800           0
     44819 MEMB     48       PVCL2    H33K     HAL2     0.900000E-01   1.00800           0
     44820 MEMB     48       PVCL2    O33      OSL     -0.490000       15.9994           0
     44821 MEMB     48       PVCL2    CD1      CL       0.900000       12.0110           0
     44822 MEMB     48       PVCL2    OD1      OBL     -0.630000       15.9994           0
     44823 MEMB     48       PVCL2    CD2      CTL2    -0.220000       12.0110           0
     44824 MEMB     48       PVCL2    H2X      HAL2     0.900000E-01   1.00800           0
     44825 MEMB     48       PVCL2    H2Y      HAL2     0.900000E-01   1.00800           0
     44826 MEMB     48       PVCL2    CA3      CTL2    -0.180000       12.0110           0
     44827 MEMB     48       PVCL2    H3A      HAL2     0.900000E-01   1.00800           0
     44828 MEMB     48       PVCL2    H3B      HAL2     0.900000E-01   1.00800           0
     44829 MEMB     48       PVCL2    CA4      CTL2    -0.180000       12.0110           0
     44830 MEMB     48       PVCL2    H4A      HAL2     0.900000E-01   1.00800           0
     44831 MEMB     48       PVCL2    H4B      HAL2     0.900000E-01   1.00800           0
     44832 MEMB     48       PVCL2    CA5      CTL2    -0.180000       12.0110           0
     44833 MEMB     48       PVCL2    H5A      HAL2     0.900000E-01   1.00800           0
     44834 MEMB     48       PVCL2    H5B      HAL2     0.900000E-01   1.00800           0
     44835 MEMB     48       PVCL2    CA6      CTL2    -0.180000       12.0110           0
     44836 MEMB     48       PVCL2    H6A      HAL2     0.900000E-01   1.00800           0
     44837 MEMB     48       PVCL2    H6B      HAL2     0.900000E-01   1.00800           0
     44838 MEMB     48       PVCL2    CA7      CTL2    -0.180000       12.0110           0
     44839 MEMB     48       PVCL2    H7A      HAL2     0.900000E-01   1.00800           0
     44840 MEMB     48       PVCL2    H7B      HAL2     0.900000E-01   1.00800           0
     44841 MEMB     48       PVCL2    CA8      CTL2    -0.180000       12.0110           0
     44842 MEMB     48       PVCL2    H8A      HAL2     0.900000E-01   1.00800           0
     44843 MEMB     48       PVCL2    H8B      HAL2     0.900000E-01   1.00800           0
     44844 MEMB     48       PVCL2    CA9      CTL2    -0.180000       12.0110           0
     44845 MEMB     48       PVCL2    H9A      HAL2     0.900000E-01   1.00800           0
     44846 MEMB     48       PVCL2    H9B      HAL2     0.900000E-01   1.00800           0
     44847 MEMB     48       PVCL2    CA10     CTL2    -0.180000       12.0110           0
     44848 MEMB     48       PVCL2    H10A     HAL2     0.900000E-01   1.00800           0
     44849 MEMB     48       PVCL2    H10B     HAL2     0.900000E-01   1.00800           0
     44850 MEMB     48       PVCL2    CA11     CEL1    -0.150000       12.0110           0
     44851 MEMB     48       PVCL2    H11A     HEL1     0.150000       1.00800           0
     44852 MEMB     48       PVCL2    CA12     CEL1    -0.150000       12.0110           0
     44853 MEMB     48       PVCL2    H12A     HEL1     0.150000       1.00800           0
     44854 MEMB     48       PVCL2    CA13     CTL2    -0.180000       12.0110           0
     44855 MEMB     48       PVCL2    H13A     HAL2     0.900000E-01   1.00800           0
     44856 MEMB     48       PVCL2    H13B     HAL2     0.900000E-01   1.00800           0
     44857 MEMB     48       PVCL2    CA14     CTL2    -0.180000       12.0110           0
     44858 MEMB     48       PVCL2    H14A     HAL2     0.900000E-01   1.00800           0
     44859 MEMB     48       PVCL2    H14B     HAL2     0.900000E-01   1.00800           0
     44860 MEMB     48       PVCL2    CA15     CTL2    -0.180000       12.0110           0
     44861 MEMB     48       PVCL2    H15A     HAL2     0.900000E-01   1.00800           0
     44862 MEMB     48       PVCL2    H15B     HAL2     0.900000E-01   1.00800           0
     44863 MEMB     48       PVCL2    CA16     CTL2    -0.180000       12.0110           0
     44864 MEMB     48       PVCL2    H16A     HAL2     0.900000E-01   1.00800           0
     44865 MEMB     48       PVCL2    H16B     HAL2     0.900000E-01   1.00800           0
     44866 MEMB     48       PVCL2    CA17     CTL2    -0.180000       12.0110           0
     44867 MEMB     48       PVCL2    H17A     HAL2     0.900000E-01   1.00800           0
     44868 MEMB     48       PVCL2    H17B     HAL2     0.900000E-01   1.00800           0
     44869 MEMB     48       PVCL2    CA18     CTL3    -0.270000       12.0110           0
     44870 MEMB     48       PVCL2    H18A     HAL3     0.900000E-01   1.00800           0
     44871 MEMB     48       PVCL2    H18B     HAL3     0.900000E-01   1.00800           0
     44872 MEMB     48       PVCL2    H18C     HAL3     0.900000E-01   1.00800           0
     44873 MEMB     48       PVCL2    CB3      CTL2    -0.180000       12.0110           0
     44874 MEMB     48       PVCL2    H3D      HAL2     0.900000E-01   1.00800           0
     44875 MEMB     48       PVCL2    H3E      HAL2     0.900000E-01   1.00800           0
     44876 MEMB     48       PVCL2    CB4      CTL2    -0.180000       12.0110           0
     44877 MEMB     48       PVCL2    H4D      HAL2     0.900000E-01   1.00800           0
     44878 MEMB     48       PVCL2    H4E      HAL2     0.900000E-01   1.00800           0
     44879 MEMB     48       PVCL2    CB5      CTL2    -0.180000       12.0110           0
     44880 MEMB     48       PVCL2    H5D      HAL2     0.900000E-01   1.00800           0
     44881 MEMB     48       PVCL2    H5E      HAL2     0.900000E-01   1.00800           0
     44882 MEMB     48       PVCL2    CB6      CTL2    -0.180000       12.0110           0
     44883 MEMB     48       PVCL2    H6D      HAL2     0.900000E-01   1.00800           0
     44884 MEMB     48       PVCL2    H6E      HAL2     0.900000E-01   1.00800           0
     44885 MEMB     48       PVCL2    CB7      CTL2    -0.180000       12.0110           0
     44886 MEMB     48       PVCL2    H7D      HAL2     0.900000E-01   1.00800           0
     44887 MEMB     48       PVCL2    H7E      HAL2     0.900000E-01   1.00800           0
     44888 MEMB     48       PVCL2    CB8      CTL2    -0.180000       12.0110           0
     44889 MEMB     48       PVCL2    H8D      HAL2     0.900000E-01   1.00800           0
     44890 MEMB     48       PVCL2    H8E      HAL2     0.900000E-01   1.00800           0
     44891 MEMB     48       PVCL2    CB9      CTL2    -0.180000       12.0110           0
     44892 MEMB     48       PVCL2    H9D      HAL2     0.900000E-01   1.00800           0
     44893 MEMB     48       PVCL2    H9E      HAL2     0.900000E-01   1.00800           0
     44894 MEMB     48       PVCL2    CB10     CTL2    -0.180000       12.0110           0
     44895 MEMB     48       PVCL2    H10D     HAL2     0.900000E-01   1.00800           0
     44896 MEMB     48       PVCL2    H10E     HAL2     0.900000E-01   1.00800           0
     44897 MEMB     48       PVCL2    CB11     CTL2    -0.180000       12.0110           0
     44898 MEMB     48       PVCL2    H11D     HAL2     0.900000E-01   1.00800           0
     44899 MEMB     48       PVCL2    H11E     HAL2     0.900000E-01   1.00800           0
     44900 MEMB     48       PVCL2    CB12     CTL2    -0.180000       12.0110           0
     44901 MEMB     48       PVCL2    H12D     HAL2     0.900000E-01   1.00800           0
     44902 MEMB     48       PVCL2    H12E     HAL2     0.900000E-01   1.00800           0
     44903 MEMB     48       PVCL2    CB13     CTL2    -0.180000       12.0110           0
     44904 MEMB     48       PVCL2    H13D     HAL2     0.900000E-01   1.00800           0
     44905 MEMB     48       PVCL2    H13E     HAL2     0.900000E-01   1.00800           0
     44906 MEMB     48       PVCL2    CB14     CTL2    -0.180000       12.0110           0
     44907 MEMB     48       PVCL2    H14D     HAL2     0.900000E-01   1.00800           0
     44908 MEMB     48       PVCL2    H14E     HAL2     0.900000E-01   1.00800           0
     44909 MEMB     48       PVCL2    CB15     CTL2    -0.180000       12.0110           0
     44910 MEMB     48       PVCL2    H15D     HAL2     0.900000E-01   1.00800           0
     44911 MEMB     48       PVCL2    H15E     HAL2     0.900000E-01   1.00800           0
     44912 MEMB     48       PVCL2    CB16     CTL3    -0.270000       12.0110           0
     44913 MEMB     48       PVCL2    H16D     HAL3     0.900000E-01   1.00800           0
     44914 MEMB     48       PVCL2    H16E     HAL3     0.900000E-01   1.00800           0
     44915 MEMB     48       PVCL2    H16F     HAL3     0.900000E-01   1.00800           0
     44916 MEMB     48       PVCL2    CC3      CTL2    -0.180000       12.0110           0
     44917 MEMB     48       PVCL2    H3R      HAL2     0.900000E-01   1.00800           0
     44918 MEMB     48       PVCL2    H3S      HAL2     0.900000E-01   1.00800           0
     44919 MEMB     48       PVCL2    CC4      CTL2    -0.180000       12.0110           0
     44920 MEMB     48       PVCL2    H4R      HAL2     0.900000E-01   1.00800           0
     44921 MEMB     48       PVCL2    H4S      HAL2     0.900000E-01   1.00800           0
     44922 MEMB     48       PVCL2    CC5      CTL2    -0.180000       12.0110           0
     44923 MEMB     48       PVCL2    H5R      HAL2     0.900000E-01   1.00800           0
     44924 MEMB     48       PVCL2    H5S      HAL2     0.900000E-01   1.00800           0
     44925 MEMB     48       PVCL2    CC6      CTL2    -0.180000       12.0110           0
     44926 MEMB     48       PVCL2    H6R      HAL2     0.900000E-01   1.00800           0
     44927 MEMB     48       PVCL2    H6S      HAL2     0.900000E-01   1.00800           0
     44928 MEMB     48       PVCL2    CC7      CTL2    -0.180000       12.0110           0
     44929 MEMB     48       PVCL2    H7R      HAL2     0.900000E-01   1.00800           0
     44930 MEMB     48       PVCL2    H7S      HAL2     0.900000E-01   1.00800           0
     44931 MEMB     48       PVCL2    CC8      CTL2    -0.180000       12.0110           0
     44932 MEMB     48       PVCL2    H8R      HAL2     0.900000E-01   1.00800           0
     44933 MEMB     48       PVCL2    H8S      HAL2     0.900000E-01   1.00800           0
     44934 MEMB     48       PVCL2    CC9      CTL2    -0.180000       12.0110           0
     44935 MEMB     48       PVCL2    H9R      HAL2     0.900000E-01   1.00800           0
     44936 MEMB     48       PVCL2    H9S      HAL2     0.900000E-01   1.00800           0
     44937 MEMB     48       PVCL2    CC10     CTL2    -0.180000       12.0110           0
     44938 MEMB     48       PVCL2    H10R     HAL2     0.900000E-01   1.00800           0
     44939 MEMB     48       PVCL2    H10S     HAL2     0.900000E-01   1.00800           0
     44940 MEMB     48       PVCL2    CC11     CEL1    -0.150000       12.0110           0
     44941 MEMB     48       PVCL2    H11R     HEL1     0.150000       1.00800           0
     44942 MEMB     48       PVCL2    CC12     CEL1    -0.150000       12.0110           0
     44943 MEMB     48       PVCL2    H12R     HEL1     0.150000       1.00800           0
     44944 MEMB     48       PVCL2    CC13     CTL2    -0.180000       12.0110           0
     44945 MEMB     48       PVCL2    H13R     HAL2     0.900000E-01   1.00800           0
     44946 MEMB     48       PVCL2    H13S     HAL2     0.900000E-01   1.00800           0
     44947 MEMB     48       PVCL2    CC14     CTL2    -0.180000       12.0110           0
     44948 MEMB     48       PVCL2    H14R     HAL2     0.900000E-01   1.00800           0
     44949 MEMB     48       PVCL2    H14S     HAL2     0.900000E-01   1.00800           0
     44950 MEMB     48       PVCL2    CC15     CTL2    -0.180000       12.0110           0
     44951 MEMB     48       PVCL2    H15R     HAL2     0.900000E-01   1.00800           0
     44952 MEMB     48       PVCL2    H15S     HAL2     0.900000E-01   1.00800           0
     44953 MEMB     48       PVCL2    CC16     CTL2    -0.180000       12.0110           0
     44954 MEMB     48       PVCL2    H16R     HAL2     0.900000E-01   1.00800           0
     44955 MEMB     48       PVCL2    H16S     HAL2     0.900000E-01   1.00800           0
     44956 MEMB     48       PVCL2    CC17     CTL2    -0.180000       12.0110           0
     44957 MEMB     48       PVCL2    H17R     HAL2     0.900000E-01   1.00800           0
     44958 MEMB     48       PVCL2    H17S     HAL2     0.900000E-01   1.00800           0
     44959 MEMB     48       PVCL2    CC18     CTL3    -0.270000       12.0110           0
     44960 MEMB     48       PVCL2    H18R     HAL3     0.900000E-01   1.00800           0
     44961 MEMB     48       PVCL2    H18S     HAL3     0.900000E-01   1.00800           0
     44962 MEMB     48       PVCL2    H18T     HAL3     0.900000E-01   1.00800           0
     44963 MEMB     48       PVCL2    CD3      CTL2    -0.180000       12.0110           0
     44964 MEMB     48       PVCL2    H3X      HAL2     0.900000E-01   1.00800           0
     44965 MEMB     48       PVCL2    H3Y      HAL2     0.900000E-01   1.00800           0
     44966 MEMB     48       PVCL2    CD4      CTL2    -0.180000       12.0110           0
     44967 MEMB     48       PVCL2    H4X      HAL2     0.900000E-01   1.00800           0
     44968 MEMB     48       PVCL2    H4Y      HAL2     0.900000E-01   1.00800           0
     44969 MEMB     48       PVCL2    CD5      CTL2    -0.180000       12.0110           0
     44970 MEMB     48       PVCL2    H5X      HAL2     0.900000E-01   1.00800           0
     44971 MEMB     48       PVCL2    H5Y      HAL2     0.900000E-01   1.00800           0
     44972 MEMB     48       PVCL2    CD6      CTL2    -0.180000       12.0110           0
     44973 MEMB     48       PVCL2    H6X      HAL2     0.900000E-01   1.00800           0
     44974 MEMB     48       PVCL2    H6Y      HAL2     0.900000E-01   1.00800           0
     44975 MEMB     48       PVCL2    CD7      CTL2    -0.180000       12.0110           0
     44976 MEMB     48       PVCL2    H7X      HAL2     0.900000E-01   1.00800           0
     44977 MEMB     48       PVCL2    H7Y      HAL2     0.900000E-01   1.00800           0
     44978 MEMB     48       PVCL2    CD8      CTL2    -0.180000       12.0110           0
     44979 MEMB     48       PVCL2    H8X      HAL2     0.900000E-01   1.00800           0
     44980 MEMB     48       PVCL2    H8Y      HAL2     0.900000E-01   1.00800           0
     44981 MEMB     48       PVCL2    CD9      CTL2    -0.180000       12.0110           0
     44982 MEMB     48       PVCL2    H9X      HAL2     0.900000E-01   1.00800           0
     44983 MEMB     48       PVCL2    H9Y      HAL2     0.900000E-01   1.00800           0
     44984 MEMB     48       PVCL2    CD10     CTL2    -0.180000       12.0110           0
     44985 MEMB     48       PVCL2    H10X     HAL2     0.900000E-01   1.00800           0
     44986 MEMB     48       PVCL2    H10Y     HAL2     0.900000E-01   1.00800           0
     44987 MEMB     48       PVCL2    CD11     CTL2    -0.180000       12.0110           0
     44988 MEMB     48       PVCL2    H11X     HAL2     0.900000E-01   1.00800           0
     44989 MEMB     48       PVCL2    H11Y     HAL2     0.900000E-01   1.00800           0
     44990 MEMB     48       PVCL2    CD12     CTL2    -0.180000       12.0110           0
     44991 MEMB     48       PVCL2    H12X     HAL2     0.900000E-01   1.00800           0
     44992 MEMB     48       PVCL2    H12Y     HAL2     0.900000E-01   1.00800           0
     44993 MEMB     48       PVCL2    CD13     CTL2    -0.180000       12.0110           0
     44994 MEMB     48       PVCL2    H13X     HAL2     0.900000E-01   1.00800           0
     44995 MEMB     48       PVCL2    H13Y     HAL2     0.900000E-01   1.00800           0
     44996 MEMB     48       PVCL2    CD14     CTL2    -0.180000       12.0110           0
     44997 MEMB     48       PVCL2    H14X     HAL2     0.900000E-01   1.00800           0
     44998 MEMB     48       PVCL2    H14Y     HAL2     0.900000E-01   1.00800           0
     44999 MEMB     48       PVCL2    CD15     CTL2    -0.180000       12.0110           0
     45000 MEMB     48       PVCL2    H15X     HAL2     0.900000E-01   1.00800           0
     45001 MEMB     48       PVCL2    H15Y     HAL2     0.900000E-01   1.00800           0
     45002 MEMB     48       PVCL2    CD16     CTL3    -0.270000       12.0110           0
     45003 MEMB     48       PVCL2    H16X     HAL3     0.900000E-01   1.00800           0
     45004 MEMB     48       PVCL2    H16Y     HAL3     0.900000E-01   1.00800           0
     45005 MEMB     48       PVCL2    H16Z     HAL3     0.900000E-01   1.00800           0
     45006 MEMB     49       PPPE     N        NH3L    -0.300000       14.0070           0
     45007 MEMB     49       PPPE     HN1      HCL      0.330000       1.00800           0
     45008 MEMB     49       PPPE     HN2      HCL      0.330000       1.00800           0
     45009 MEMB     49       PPPE     HN3      HCL      0.330000       1.00800           0
     45010 MEMB     49       PPPE     C12      CTL2     0.130000       12.0110           0
     45011 MEMB     49       PPPE     H12A     HAL2     0.900000E-01   1.00800           0
     45012 MEMB     49       PPPE     H12B     HAL2     0.900000E-01   1.00800           0
     45013 MEMB     49       PPPE     C11      CTL2    -0.800000E-01   12.0110           0
     45014 MEMB     49       PPPE     H11A     HAL2     0.900000E-01   1.00800           0
     45015 MEMB     49       PPPE     H11B     HAL2     0.900000E-01   1.00800           0
     45016 MEMB     49       PPPE     P        PL        1.50000       30.9740           0
     45017 MEMB     49       PPPE     O13      O2L     -0.780000       15.9994           0
     45018 MEMB     49       PPPE     O14      O2L     -0.780000       15.9994           0
     45019 MEMB     49       PPPE     O11      OSLP    -0.570000       15.9994           0
     45020 MEMB     49       PPPE     O12      OSLP    -0.570000       15.9994           0
     45021 MEMB     49       PPPE     C1       CTL2    -0.800000E-01   12.0110           0
     45022 MEMB     49       PPPE     HA       HAL2     0.900000E-01   1.00800           0
     45023 MEMB     49       PPPE     HB       HAL2     0.900000E-01   1.00800           0
     45024 MEMB     49       PPPE     C2       CTL1     0.170000       12.0110           0
     45025 MEMB     49       PPPE     HS       HAL1     0.900000E-01   1.00800           0
     45026 MEMB     49       PPPE     O21      OSL     -0.490000       15.9994           0
     45027 MEMB     49       PPPE     C21      CL       0.900000       12.0110           0
     45028 MEMB     49       PPPE     O22      OBL     -0.630000       15.9994           0
     45029 MEMB     49       PPPE     C22      CTL2    -0.220000       12.0110           0
     45030 MEMB     49       PPPE     H2R      HAL2     0.900000E-01   1.00800           0
     45031 MEMB     49       PPPE     H2S      HAL2     0.900000E-01   1.00800           0
     45032 MEMB     49       PPPE     C3       CTL2     0.800000E-01   12.0110           0
     45033 MEMB     49       PPPE     HX       HAL2     0.900000E-01   1.00800           0
     45034 MEMB     49       PPPE     HY       HAL2     0.900000E-01   1.00800           0
     45035 MEMB     49       PPPE     O31      OSL     -0.490000       15.9994           0
     45036 MEMB     49       PPPE     C31      CL       0.900000       12.0110           0
     45037 MEMB     49       PPPE     O32      OBL     -0.630000       15.9994           0
     45038 MEMB     49       PPPE     C32      CTL2    -0.220000       12.0110           0
     45039 MEMB     49       PPPE     H2X      HAL2     0.900000E-01   1.00800           0
     45040 MEMB     49       PPPE     H2Y      HAL2     0.900000E-01   1.00800           0
     45041 MEMB     49       PPPE     C23      CTL2    -0.180000       12.0110           0
     45042 MEMB     49       PPPE     H3R      HAL2     0.900000E-01   1.00800           0
     45043 MEMB     49       PPPE     H3S      HAL2     0.900000E-01   1.00800           0
     45044 MEMB     49       PPPE     C24      CTL2    -0.180000       12.0110           0
     45045 MEMB     49       PPPE     H4R      HAL2     0.900000E-01   1.00800           0
     45046 MEMB     49       PPPE     H4S      HAL2     0.900000E-01   1.00800           0
     45047 MEMB     49       PPPE     C25      CTL2    -0.180000       12.0110           0
     45048 MEMB     49       PPPE     H5R      HAL2     0.900000E-01   1.00800           0
     45049 MEMB     49       PPPE     H5S      HAL2     0.900000E-01   1.00800           0
     45050 MEMB     49       PPPE     C26      CTL2    -0.180000       12.0110           0
     45051 MEMB     49       PPPE     H6R      HAL2     0.900000E-01   1.00800           0
     45052 MEMB     49       PPPE     H6S      HAL2     0.900000E-01   1.00800           0
     45053 MEMB     49       PPPE     C27      CTL2    -0.180000       12.0110           0
     45054 MEMB     49       PPPE     H7R      HAL2     0.900000E-01   1.00800           0
     45055 MEMB     49       PPPE     H7S      HAL2     0.900000E-01   1.00800           0
     45056 MEMB     49       PPPE     C28      CTL2    -0.180000       12.0110           0
     45057 MEMB     49       PPPE     H8R      HAL2     0.900000E-01   1.00800           0
     45058 MEMB     49       PPPE     H8S      HAL2     0.900000E-01   1.00800           0
     45059 MEMB     49       PPPE     C29      CEL1    -0.150000       12.0110           0
     45060 MEMB     49       PPPE     H91      HEL1     0.150000       1.00800           0
     45061 MEMB     49       PPPE     C210     CEL1    -0.150000       12.0110           0
     45062 MEMB     49       PPPE     H101     HEL1     0.150000       1.00800           0
     45063 MEMB     49       PPPE     C211     CTL2    -0.180000       12.0110           0
     45064 MEMB     49       PPPE     H11R     HAL2     0.900000E-01   1.00800           0
     45065 MEMB     49       PPPE     H11S     HAL2     0.900000E-01   1.00800           0
     45066 MEMB     49       PPPE     C212     CTL2    -0.180000       12.0110           0
     45067 MEMB     49       PPPE     H12R     HAL2     0.900000E-01   1.00800           0
     45068 MEMB     49       PPPE     H12S     HAL2     0.900000E-01   1.00800           0
     45069 MEMB     49       PPPE     C213     CTL2    -0.180000       12.0110           0
     45070 MEMB     49       PPPE     H13R     HAL2     0.900000E-01   1.00800           0
     45071 MEMB     49       PPPE     H13S     HAL2     0.900000E-01   1.00800           0
     45072 MEMB     49       PPPE     C214     CTL2    -0.180000       12.0110           0
     45073 MEMB     49       PPPE     H14R     HAL2     0.900000E-01   1.00800           0
     45074 MEMB     49       PPPE     H14S     HAL2     0.900000E-01   1.00800           0
     45075 MEMB     49       PPPE     C215     CTL2    -0.180000       12.0110           0
     45076 MEMB     49       PPPE     H15R     HAL2     0.900000E-01   1.00800           0
     45077 MEMB     49       PPPE     H15S     HAL2     0.900000E-01   1.00800           0
     45078 MEMB     49       PPPE     C216     CTL3    -0.270000       12.0110           0
     45079 MEMB     49       PPPE     H16R     HAL3     0.900000E-01   1.00800           0
     45080 MEMB     49       PPPE     H16S     HAL3     0.900000E-01   1.00800           0
     45081 MEMB     49       PPPE     H16T     HAL3     0.900000E-01   1.00800           0
     45082 MEMB     49       PPPE     C33      CTL2    -0.180000       12.0110           0
     45083 MEMB     49       PPPE     H3X      HAL2     0.900000E-01   1.00800           0
     45084 MEMB     49       PPPE     H3Y      HAL2     0.900000E-01   1.00800           0
     45085 MEMB     49       PPPE     C34      CTL2    -0.180000       12.0110           0
     45086 MEMB     49       PPPE     H4X      HAL2     0.900000E-01   1.00800           0
     45087 MEMB     49       PPPE     H4Y      HAL2     0.900000E-01   1.00800           0
     45088 MEMB     49       PPPE     C35      CTL2    -0.180000       12.0110           0
     45089 MEMB     49       PPPE     H5X      HAL2     0.900000E-01   1.00800           0
     45090 MEMB     49       PPPE     H5Y      HAL2     0.900000E-01   1.00800           0
     45091 MEMB     49       PPPE     C36      CTL2    -0.180000       12.0110           0
     45092 MEMB     49       PPPE     H6X      HAL2     0.900000E-01   1.00800           0
     45093 MEMB     49       PPPE     H6Y      HAL2     0.900000E-01   1.00800           0
     45094 MEMB     49       PPPE     C37      CTL2    -0.180000       12.0110           0
     45095 MEMB     49       PPPE     H7X      HAL2     0.900000E-01   1.00800           0
     45096 MEMB     49       PPPE     H7Y      HAL2     0.900000E-01   1.00800           0
     45097 MEMB     49       PPPE     C38      CTL2    -0.180000       12.0110           0
     45098 MEMB     49       PPPE     H8X      HAL2     0.900000E-01   1.00800           0
     45099 MEMB     49       PPPE     H8Y      HAL2     0.900000E-01   1.00800           0
     45100 MEMB     49       PPPE     C39      CTL2    -0.180000       12.0110           0
     45101 MEMB     49       PPPE     H9X      HAL2     0.900000E-01   1.00800           0
     45102 MEMB     49       PPPE     H9Y      HAL2     0.900000E-01   1.00800           0
     45103 MEMB     49       PPPE     C310     CTL2    -0.180000       12.0110           0
     45104 MEMB     49       PPPE     H10X     HAL2     0.900000E-01   1.00800           0
     45105 MEMB     49       PPPE     H10Y     HAL2     0.900000E-01   1.00800           0
     45106 MEMB     49       PPPE     C311     CTL2    -0.180000       12.0110           0
     45107 MEMB     49       PPPE     H11X     HAL2     0.900000E-01   1.00800           0
     45108 MEMB     49       PPPE     H11Y     HAL2     0.900000E-01   1.00800           0
     45109 MEMB     49       PPPE     C312     CTL2    -0.180000       12.0110           0
     45110 MEMB     49       PPPE     H12X     HAL2     0.900000E-01   1.00800           0
     45111 MEMB     49       PPPE     H12Y     HAL2     0.900000E-01   1.00800           0
     45112 MEMB     49       PPPE     C313     CTL2    -0.180000       12.0110           0
     45113 MEMB     49       PPPE     H13X     HAL2     0.900000E-01   1.00800           0
     45114 MEMB     49       PPPE     H13Y     HAL2     0.900000E-01   1.00800           0
     45115 MEMB     49       PPPE     C314     CTL2    -0.180000       12.0110           0
     45116 MEMB     49       PPPE     H14X     HAL2     0.900000E-01   1.00800           0
     45117 MEMB     49       PPPE     H14Y     HAL2     0.900000E-01   1.00800           0
     45118 MEMB     49       PPPE     C315     CTL2    -0.180000       12.0110           0
     45119 MEMB     49       PPPE     H15X     HAL2     0.900000E-01   1.00800           0
     45120 MEMB     49       PPPE     H15Y     HAL2     0.900000E-01   1.00800           0
     45121 MEMB     49       PPPE     C316     CTL3    -0.270000       12.0110           0
     45122 MEMB     49       PPPE     H16X     HAL3     0.900000E-01   1.00800           0
     45123 MEMB     49       PPPE     H16Y     HAL3     0.900000E-01   1.00800           0
     45124 MEMB     49       PPPE     H16Z     HAL3     0.900000E-01   1.00800           0
     45125 MEMB     50       PPPE     N        NH3L    -0.300000       14.0070           0
     45126 MEMB     50       PPPE     HN1      HCL      0.330000       1.00800           0
     45127 MEMB     50       PPPE     HN2      HCL      0.330000       1.00800           0
     45128 MEMB     50       PPPE     HN3      HCL      0.330000       1.00800           0
     45129 MEMB     50       PPPE     C12      CTL2     0.130000       12.0110           0
     45130 MEMB     50       PPPE     H12A     HAL2     0.900000E-01   1.00800           0
     45131 MEMB     50       PPPE     H12B     HAL2     0.900000E-01   1.00800           0
     45132 MEMB     50       PPPE     C11      CTL2    -0.800000E-01   12.0110           0
     45133 MEMB     50       PPPE     H11A     HAL2     0.900000E-01   1.00800           0
     45134 MEMB     50       PPPE     H11B     HAL2     0.900000E-01   1.00800           0
     45135 MEMB     50       PPPE     P        PL        1.50000       30.9740           0
     45136 MEMB     50       PPPE     O13      O2L     -0.780000       15.9994           0
     45137 MEMB     50       PPPE     O14      O2L     -0.780000       15.9994           0
     45138 MEMB     50       PPPE     O11      OSLP    -0.570000       15.9994           0
     45139 MEMB     50       PPPE     O12      OSLP    -0.570000       15.9994           0
     45140 MEMB     50       PPPE     C1       CTL2    -0.800000E-01   12.0110           0
     45141 MEMB     50       PPPE     HA       HAL2     0.900000E-01   1.00800           0
     45142 MEMB     50       PPPE     HB       HAL2     0.900000E-01   1.00800           0
     45143 MEMB     50       PPPE     C2       CTL1     0.170000       12.0110           0
     45144 MEMB     50       PPPE     HS       HAL1     0.900000E-01   1.00800           0
     45145 MEMB     50       PPPE     O21      OSL     -0.490000       15.9994           0
     45146 MEMB     50       PPPE     C21      CL       0.900000       12.0110           0
     45147 MEMB     50       PPPE     O22      OBL     -0.630000       15.9994           0
     45148 MEMB     50       PPPE     C22      CTL2    -0.220000       12.0110           0
     45149 MEMB     50       PPPE     H2R      HAL2     0.900000E-01   1.00800           0
     45150 MEMB     50       PPPE     H2S      HAL2     0.900000E-01   1.00800           0
     45151 MEMB     50       PPPE     C3       CTL2     0.800000E-01   12.0110           0
     45152 MEMB     50       PPPE     HX       HAL2     0.900000E-01   1.00800           0
     45153 MEMB     50       PPPE     HY       HAL2     0.900000E-01   1.00800           0
     45154 MEMB     50       PPPE     O31      OSL     -0.490000       15.9994           0
     45155 MEMB     50       PPPE     C31      CL       0.900000       12.0110           0
     45156 MEMB     50       PPPE     O32      OBL     -0.630000       15.9994           0
     45157 MEMB     50       PPPE     C32      CTL2    -0.220000       12.0110           0
     45158 MEMB     50       PPPE     H2X      HAL2     0.900000E-01   1.00800           0
     45159 MEMB     50       PPPE     H2Y      HAL2     0.900000E-01   1.00800           0
     45160 MEMB     50       PPPE     C23      CTL2    -0.180000       12.0110           0
     45161 MEMB     50       PPPE     H3R      HAL2     0.900000E-01   1.00800           0
     45162 MEMB     50       PPPE     H3S      HAL2     0.900000E-01   1.00800           0
     45163 MEMB     50       PPPE     C24      CTL2    -0.180000       12.0110           0
     45164 MEMB     50       PPPE     H4R      HAL2     0.900000E-01   1.00800           0
     45165 MEMB     50       PPPE     H4S      HAL2     0.900000E-01   1.00800           0
     45166 MEMB     50       PPPE     C25      CTL2    -0.180000       12.0110           0
     45167 MEMB     50       PPPE     H5R      HAL2     0.900000E-01   1.00800           0
     45168 MEMB     50       PPPE     H5S      HAL2     0.900000E-01   1.00800           0
     45169 MEMB     50       PPPE     C26      CTL2    -0.180000       12.0110           0
     45170 MEMB     50       PPPE     H6R      HAL2     0.900000E-01   1.00800           0
     45171 MEMB     50       PPPE     H6S      HAL2     0.900000E-01   1.00800           0
     45172 MEMB     50       PPPE     C27      CTL2    -0.180000       12.0110           0
     45173 MEMB     50       PPPE     H7R      HAL2     0.900000E-01   1.00800           0
     45174 MEMB     50       PPPE     H7S      HAL2     0.900000E-01   1.00800           0
     45175 MEMB     50       PPPE     C28      CTL2    -0.180000       12.0110           0
     45176 MEMB     50       PPPE     H8R      HAL2     0.900000E-01   1.00800           0
     45177 MEMB     50       PPPE     H8S      HAL2     0.900000E-01   1.00800           0
     45178 MEMB     50       PPPE     C29      CEL1    -0.150000       12.0110           0
     45179 MEMB     50       PPPE     H91      HEL1     0.150000       1.00800           0
     45180 MEMB     50       PPPE     C210     CEL1    -0.150000       12.0110           0
     45181 MEMB     50       PPPE     H101     HEL1     0.150000       1.00800           0
     45182 MEMB     50       PPPE     C211     CTL2    -0.180000       12.0110           0
     45183 MEMB     50       PPPE     H11R     HAL2     0.900000E-01   1.00800           0
     45184 MEMB     50       PPPE     H11S     HAL2     0.900000E-01   1.00800           0
     45185 MEMB     50       PPPE     C212     CTL2    -0.180000       12.0110           0
     45186 MEMB     50       PPPE     H12R     HAL2     0.900000E-01   1.00800           0
     45187 MEMB     50       PPPE     H12S     HAL2     0.900000E-01   1.00800           0
     45188 MEMB     50       PPPE     C213     CTL2    -0.180000       12.0110           0
     45189 MEMB     50       PPPE     H13R     HAL2     0.900000E-01   1.00800           0
     45190 MEMB     50       PPPE     H13S     HAL2     0.900000E-01   1.00800           0
     45191 MEMB     50       PPPE     C214     CTL2    -0.180000       12.0110           0
     45192 MEMB     50       PPPE     H14R     HAL2     0.900000E-01   1.00800           0
     45193 MEMB     50       PPPE     H14S     HAL2     0.900000E-01   1.00800           0
     45194 MEMB     50       PPPE     C215     CTL2    -0.180000       12.0110           0
     45195 MEMB     50       PPPE     H15R     HAL2     0.900000E-01   1.00800           0
     45196 MEMB     50       PPPE     H15S     HAL2     0.900000E-01   1.00800           0
     45197 MEMB     50       PPPE     C216     CTL3    -0.270000       12.0110           0
     45198 MEMB     50       PPPE     H16R     HAL3     0.900000E-01   1.00800           0
     45199 MEMB     50       PPPE     H16S     HAL3     0.900000E-01   1.00800           0
     45200 MEMB     50       PPPE     H16T     HAL3     0.900000E-01   1.00800           0
     45201 MEMB     50       PPPE     C33      CTL2    -0.180000       12.0110           0
     45202 MEMB     50       PPPE     H3X      HAL2     0.900000E-01   1.00800           0
     45203 MEMB     50       PPPE     H3Y      HAL2     0.900000E-01   1.00800           0
     45204 MEMB     50       PPPE     C34      CTL2    -0.180000       12.0110           0
     45205 MEMB     50       PPPE     H4X      HAL2     0.900000E-01   1.00800           0
     45206 MEMB     50       PPPE     H4Y      HAL2     0.900000E-01   1.00800           0
     45207 MEMB     50       PPPE     C35      CTL2    -0.180000       12.0110           0
     45208 MEMB     50       PPPE     H5X      HAL2     0.900000E-01   1.00800           0
     45209 MEMB     50       PPPE     H5Y      HAL2     0.900000E-01   1.00800           0
     45210 MEMB     50       PPPE     C36      CTL2    -0.180000       12.0110           0
     45211 MEMB     50       PPPE     H6X      HAL2     0.900000E-01   1.00800           0
     45212 MEMB     50       PPPE     H6Y      HAL2     0.900000E-01   1.00800           0
     45213 MEMB     50       PPPE     C37      CTL2    -0.180000       12.0110           0
     45214 MEMB     50       PPPE     H7X      HAL2     0.900000E-01   1.00800           0
     45215 MEMB     50       PPPE     H7Y      HAL2     0.900000E-01   1.00800           0
     45216 MEMB     50       PPPE     C38      CTL2    -0.180000       12.0110           0
     45217 MEMB     50       PPPE     H8X      HAL2     0.900000E-01   1.00800           0
     45218 MEMB     50       PPPE     H8Y      HAL2     0.900000E-01   1.00800           0
     45219 MEMB     50       PPPE     C39      CTL2    -0.180000       12.0110           0
     45220 MEMB     50       PPPE     H9X      HAL2     0.900000E-01   1.00800           0
     45221 MEMB     50       PPPE     H9Y      HAL2     0.900000E-01   1.00800           0
     45222 MEMB     50       PPPE     C310     CTL2    -0.180000       12.0110           0
     45223 MEMB     50       PPPE     H10X     HAL2     0.900000E-01   1.00800           0
     45224 MEMB     50       PPPE     H10Y     HAL2     0.900000E-01   1.00800           0
     45225 MEMB     50       PPPE     C311     CTL2    -0.180000       12.0110           0
     45226 MEMB     50       PPPE     H11X     HAL2     0.900000E-01   1.00800           0
     45227 MEMB     50       PPPE     H11Y     HAL2     0.900000E-01   1.00800           0
     45228 MEMB     50       PPPE     C312     CTL2    -0.180000       12.0110           0
     45229 MEMB     50       PPPE     H12X     HAL2     0.900000E-01   1.00800           0
     45230 MEMB     50       PPPE     H12Y     HAL2     0.900000E-01   1.00800           0
     45231 MEMB     50       PPPE     C313     CTL2    -0.180000       12.0110           0
     45232 MEMB     50       PPPE     H13X     HAL2     0.900000E-01   1.00800           0
     45233 MEMB     50       PPPE     H13Y     HAL2     0.900000E-01   1.00800           0
     45234 MEMB     50       PPPE     C314     CTL2    -0.180000       12.0110           0
     45235 MEMB     50       PPPE     H14X     HAL2     0.900000E-01   1.00800           0
     45236 MEMB     50       PPPE     H14Y     HAL2     0.900000E-01   1.00800           0
     45237 MEMB     50       PPPE     C315     CTL2    -0.180000       12.0110           0
     45238 MEMB     50       PPPE     H15X     HAL2     0.900000E-01   1.00800           0
     45239 MEMB     50       PPPE     H15Y     HAL2     0.900000E-01   1.00800           0
     45240 MEMB     50       PPPE     C316     CTL3    -0.270000       12.0110           0
     45241 MEMB     50       PPPE     H16X     HAL3     0.900000E-01   1.00800           0
     45242 MEMB     50       PPPE     H16Y     HAL3     0.900000E-01   1.00800           0
     45243 MEMB     50       PPPE     H16Z     HAL3     0.900000E-01   1.00800           0
     45244 MEMB     51       PPPE     N        NH3L    -0.300000       14.0070           0
     45245 MEMB     51       PPPE     HN1      HCL      0.330000       1.00800           0
     45246 MEMB     51       PPPE     HN2      HCL      0.330000       1.00800           0
     45247 MEMB     51       PPPE     HN3      HCL      0.330000       1.00800           0
     45248 MEMB     51       PPPE     C12      CTL2     0.130000       12.0110           0
     45249 MEMB     51       PPPE     H12A     HAL2     0.900000E-01   1.00800           0
     45250 MEMB     51       PPPE     H12B     HAL2     0.900000E-01   1.00800           0
     45251 MEMB     51       PPPE     C11      CTL2    -0.800000E-01   12.0110           0
     45252 MEMB     51       PPPE     H11A     HAL2     0.900000E-01   1.00800           0
     45253 MEMB     51       PPPE     H11B     HAL2     0.900000E-01   1.00800           0
     45254 MEMB     51       PPPE     P        PL        1.50000       30.9740           0
     45255 MEMB     51       PPPE     O13      O2L     -0.780000       15.9994           0
     45256 MEMB     51       PPPE     O14      O2L     -0.780000       15.9994           0
     45257 MEMB     51       PPPE     O11      OSLP    -0.570000       15.9994           0
     45258 MEMB     51       PPPE     O12      OSLP    -0.570000       15.9994           0
     45259 MEMB     51       PPPE     C1       CTL2    -0.800000E-01   12.0110           0
     45260 MEMB     51       PPPE     HA       HAL2     0.900000E-01   1.00800           0
     45261 MEMB     51       PPPE     HB       HAL2     0.900000E-01   1.00800           0
     45262 MEMB     51       PPPE     C2       CTL1     0.170000       12.0110           0
     45263 MEMB     51       PPPE     HS       HAL1     0.900000E-01   1.00800           0
     45264 MEMB     51       PPPE     O21      OSL     -0.490000       15.9994           0
     45265 MEMB     51       PPPE     C21      CL       0.900000       12.0110           0
     45266 MEMB     51       PPPE     O22      OBL     -0.630000       15.9994           0
     45267 MEMB     51       PPPE     C22      CTL2    -0.220000       12.0110           0
     45268 MEMB     51       PPPE     H2R      HAL2     0.900000E-01   1.00800           0
     45269 MEMB     51       PPPE     H2S      HAL2     0.900000E-01   1.00800           0
     45270 MEMB     51       PPPE     C3       CTL2     0.800000E-01   12.0110           0
     45271 MEMB     51       PPPE     HX       HAL2     0.900000E-01   1.00800           0
     45272 MEMB     51       PPPE     HY       HAL2     0.900000E-01   1.00800           0
     45273 MEMB     51       PPPE     O31      OSL     -0.490000       15.9994           0
     45274 MEMB     51       PPPE     C31      CL       0.900000       12.0110           0
     45275 MEMB     51       PPPE     O32      OBL     -0.630000       15.9994           0
     45276 MEMB     51       PPPE     C32      CTL2    -0.220000       12.0110           0
     45277 MEMB     51       PPPE     H2X      HAL2     0.900000E-01   1.00800           0
     45278 MEMB     51       PPPE     H2Y      HAL2     0.900000E-01   1.00800           0
     45279 MEMB     51       PPPE     C23      CTL2    -0.180000       12.0110           0
     45280 MEMB     51       PPPE     H3R      HAL2     0.900000E-01   1.00800           0
     45281 MEMB     51       PPPE     H3S      HAL2     0.900000E-01   1.00800           0
     45282 MEMB     51       PPPE     C24      CTL2    -0.180000       12.0110           0
     45283 MEMB     51       PPPE     H4R      HAL2     0.900000E-01   1.00800           0
     45284 MEMB     51       PPPE     H4S      HAL2     0.900000E-01   1.00800           0
     45285 MEMB     51       PPPE     C25      CTL2    -0.180000       12.0110           0
     45286 MEMB     51       PPPE     H5R      HAL2     0.900000E-01   1.00800           0
     45287 MEMB     51       PPPE     H5S      HAL2     0.900000E-01   1.00800           0
     45288 MEMB     51       PPPE     C26      CTL2    -0.180000       12.0110           0
     45289 MEMB     51       PPPE     H6R      HAL2     0.900000E-01   1.00800           0
     45290 MEMB     51       PPPE     H6S      HAL2     0.900000E-01   1.00800           0
     45291 MEMB     51       PPPE     C27      CTL2    -0.180000       12.0110           0
     45292 MEMB     51       PPPE     H7R      HAL2     0.900000E-01   1.00800           0
     45293 MEMB     51       PPPE     H7S      HAL2     0.900000E-01   1.00800           0
     45294 MEMB     51       PPPE     C28      CTL2    -0.180000       12.0110           0
     45295 MEMB     51       PPPE     H8R      HAL2     0.900000E-01   1.00800           0
     45296 MEMB     51       PPPE     H8S      HAL2     0.900000E-01   1.00800           0
     45297 MEMB     51       PPPE     C29      CEL1    -0.150000       12.0110           0
     45298 MEMB     51       PPPE     H91      HEL1     0.150000       1.00800           0
     45299 MEMB     51       PPPE     C210     CEL1    -0.150000       12.0110           0
     45300 MEMB     51       PPPE     H101     HEL1     0.150000       1.00800           0
     45301 MEMB     51       PPPE     C211     CTL2    -0.180000       12.0110           0
     45302 MEMB     51       PPPE     H11R     HAL2     0.900000E-01   1.00800           0
     45303 MEMB     51       PPPE     H11S     HAL2     0.900000E-01   1.00800           0
     45304 MEMB     51       PPPE     C212     CTL2    -0.180000       12.0110           0
     45305 MEMB     51       PPPE     H12R     HAL2     0.900000E-01   1.00800           0
     45306 MEMB     51       PPPE     H12S     HAL2     0.900000E-01   1.00800           0
     45307 MEMB     51       PPPE     C213     CTL2    -0.180000       12.0110           0
     45308 MEMB     51       PPPE     H13R     HAL2     0.900000E-01   1.00800           0
     45309 MEMB     51       PPPE     H13S     HAL2     0.900000E-01   1.00800           0
     45310 MEMB     51       PPPE     C214     CTL2    -0.180000       12.0110           0
     45311 MEMB     51       PPPE     H14R     HAL2     0.900000E-01   1.00800           0
     45312 MEMB     51       PPPE     H14S     HAL2     0.900000E-01   1.00800           0
     45313 MEMB     51       PPPE     C215     CTL2    -0.180000       12.0110           0
     45314 MEMB     51       PPPE     H15R     HAL2     0.900000E-01   1.00800           0
     45315 MEMB     51       PPPE     H15S     HAL2     0.900000E-01   1.00800           0
     45316 MEMB     51       PPPE     C216     CTL3    -0.270000       12.0110           0
     45317 MEMB     51       PPPE     H16R     HAL3     0.900000E-01   1.00800           0
     45318 MEMB     51       PPPE     H16S     HAL3     0.900000E-01   1.00800           0
     45319 MEMB     51       PPPE     H16T     HAL3     0.900000E-01   1.00800           0
     45320 MEMB     51       PPPE     C33      CTL2    -0.180000       12.0110           0
     45321 MEMB     51       PPPE     H3X      HAL2     0.900000E-01   1.00800           0
     45322 MEMB     51       PPPE     H3Y      HAL2     0.900000E-01   1.00800           0
     45323 MEMB     51       PPPE     C34      CTL2    -0.180000       12.0110           0
     45324 MEMB     51       PPPE     H4X      HAL2     0.900000E-01   1.00800           0
     45325 MEMB     51       PPPE     H4Y      HAL2     0.900000E-01   1.00800           0
     45326 MEMB     51       PPPE     C35      CTL2    -0.180000       12.0110           0
     45327 MEMB     51       PPPE     H5X      HAL2     0.900000E-01   1.00800           0
     45328 MEMB     51       PPPE     H5Y      HAL2     0.900000E-01   1.00800           0
     45329 MEMB     51       PPPE     C36      CTL2    -0.180000       12.0110           0
     45330 MEMB     51       PPPE     H6X      HAL2     0.900000E-01   1.00800           0
     45331 MEMB     51       PPPE     H6Y      HAL2     0.900000E-01   1.00800           0
     45332 MEMB     51       PPPE     C37      CTL2    -0.180000       12.0110           0
     45333 MEMB     51       PPPE     H7X      HAL2     0.900000E-01   1.00800           0
     45334 MEMB     51       PPPE     H7Y      HAL2     0.900000E-01   1.00800           0
     45335 MEMB     51       PPPE     C38      CTL2    -0.180000       12.0110           0
     45336 MEMB     51       PPPE     H8X      HAL2     0.900000E-01   1.00800           0
     45337 MEMB     51       PPPE     H8Y      HAL2     0.900000E-01   1.00800           0
     45338 MEMB     51       PPPE     C39      CTL2    -0.180000       12.0110           0
     45339 MEMB     51       PPPE     H9X      HAL2     0.900000E-01   1.00800           0
     45340 MEMB     51       PPPE     H9Y      HAL2     0.900000E-01   1.00800           0
     45341 MEMB     51       PPPE     C310     CTL2    -0.180000       12.0110           0
     45342 MEMB     51       PPPE     H10X     HAL2     0.900000E-01   1.00800           0
     45343 MEMB     51       PPPE     H10Y     HAL2     0.900000E-01   1.00800           0
     45344 MEMB     51       PPPE     C311     CTL2    -0.180000       12.0110           0
     45345 MEMB     51       PPPE     H11X     HAL2     0.900000E-01   1.00800           0
     45346 MEMB     51       PPPE     H11Y     HAL2     0.900000E-01   1.00800           0
     45347 MEMB     51       PPPE     C312     CTL2    -0.180000       12.0110           0
     45348 MEMB     51       PPPE     H12X     HAL2     0.900000E-01   1.00800           0
     45349 MEMB     51       PPPE     H12Y     HAL2     0.900000E-01   1.00800           0
     45350 MEMB     51       PPPE     C313     CTL2    -0.180000       12.0110           0
     45351 MEMB     51       PPPE     H13X     HAL2     0.900000E-01   1.00800           0
     45352 MEMB     51       PPPE     H13Y     HAL2     0.900000E-01   1.00800           0
     45353 MEMB     51       PPPE     C314     CTL2    -0.180000       12.0110           0
     45354 MEMB     51       PPPE     H14X     HAL2     0.900000E-01   1.00800           0
     45355 MEMB     51       PPPE     H14Y     HAL2     0.900000E-01   1.00800           0
     45356 MEMB     51       PPPE     C315     CTL2    -0.180000       12.0110           0
     45357 MEMB     51       PPPE     H15X     HAL2     0.900000E-01   1.00800           0
     45358 MEMB     51       PPPE     H15Y     HAL2     0.900000E-01   1.00800           0
     45359 MEMB     51       PPPE     C316     CTL3    -0.270000       12.0110           0
     45360 MEMB     51       PPPE     H16X     HAL3     0.900000E-01   1.00800           0
     45361 MEMB     51       PPPE     H16Y     HAL3     0.900000E-01   1.00800           0
     45362 MEMB     51       PPPE     H16Z     HAL3     0.900000E-01   1.00800           0
     45363 MEMB     52       PPPE     N        NH3L    -0.300000       14.0070           0
     45364 MEMB     52       PPPE     HN1      HCL      0.330000       1.00800           0
     45365 MEMB     52       PPPE     HN2      HCL      0.330000       1.00800           0
     45366 MEMB     52       PPPE     HN3      HCL      0.330000       1.00800           0
     45367 MEMB     52       PPPE     C12      CTL2     0.130000       12.0110           0
     45368 MEMB     52       PPPE     H12A     HAL2     0.900000E-01   1.00800           0
     45369 MEMB     52       PPPE     H12B     HAL2     0.900000E-01   1.00800           0
     45370 MEMB     52       PPPE     C11      CTL2    -0.800000E-01   12.0110           0
     45371 MEMB     52       PPPE     H11A     HAL2     0.900000E-01   1.00800           0
     45372 MEMB     52       PPPE     H11B     HAL2     0.900000E-01   1.00800           0
     45373 MEMB     52       PPPE     P        PL        1.50000       30.9740           0
     45374 MEMB     52       PPPE     O13      O2L     -0.780000       15.9994           0
     45375 MEMB     52       PPPE     O14      O2L     -0.780000       15.9994           0
     45376 MEMB     52       PPPE     O11      OSLP    -0.570000       15.9994           0
     45377 MEMB     52       PPPE     O12      OSLP    -0.570000       15.9994           0
     45378 MEMB     52       PPPE     C1       CTL2    -0.800000E-01   12.0110           0
     45379 MEMB     52       PPPE     HA       HAL2     0.900000E-01   1.00800           0
     45380 MEMB     52       PPPE     HB       HAL2     0.900000E-01   1.00800           0
     45381 MEMB     52       PPPE     C2       CTL1     0.170000       12.0110           0
     45382 MEMB     52       PPPE     HS       HAL1     0.900000E-01   1.00800           0
     45383 MEMB     52       PPPE     O21      OSL     -0.490000       15.9994           0
     45384 MEMB     52       PPPE     C21      CL       0.900000       12.0110           0
     45385 MEMB     52       PPPE     O22      OBL     -0.630000       15.9994           0
     45386 MEMB     52       PPPE     C22      CTL2    -0.220000       12.0110           0
     45387 MEMB     52       PPPE     H2R      HAL2     0.900000E-01   1.00800           0
     45388 MEMB     52       PPPE     H2S      HAL2     0.900000E-01   1.00800           0
     45389 MEMB     52       PPPE     C3       CTL2     0.800000E-01   12.0110           0
     45390 MEMB     52       PPPE     HX       HAL2     0.900000E-01   1.00800           0
     45391 MEMB     52       PPPE     HY       HAL2     0.900000E-01   1.00800           0
     45392 MEMB     52       PPPE     O31      OSL     -0.490000       15.9994           0
     45393 MEMB     52       PPPE     C31      CL       0.900000       12.0110           0
     45394 MEMB     52       PPPE     O32      OBL     -0.630000       15.9994           0
     45395 MEMB     52       PPPE     C32      CTL2    -0.220000       12.0110           0
     45396 MEMB     52       PPPE     H2X      HAL2     0.900000E-01   1.00800           0
     45397 MEMB     52       PPPE     H2Y      HAL2     0.900000E-01   1.00800           0
     45398 MEMB     52       PPPE     C23      CTL2    -0.180000       12.0110           0
     45399 MEMB     52       PPPE     H3R      HAL2     0.900000E-01   1.00800           0
     45400 MEMB     52       PPPE     H3S      HAL2     0.900000E-01   1.00800           0
     45401 MEMB     52       PPPE     C24      CTL2    -0.180000       12.0110           0
     45402 MEMB     52       PPPE     H4R      HAL2     0.900000E-01   1.00800           0
     45403 MEMB     52       PPPE     H4S      HAL2     0.900000E-01   1.00800           0
     45404 MEMB     52       PPPE     C25      CTL2    -0.180000       12.0110           0
     45405 MEMB     52       PPPE     H5R      HAL2     0.900000E-01   1.00800           0
     45406 MEMB     52       PPPE     H5S      HAL2     0.900000E-01   1.00800           0
     45407 MEMB     52       PPPE     C26      CTL2    -0.180000       12.0110           0
     45408 MEMB     52       PPPE     H6R      HAL2     0.900000E-01   1.00800           0
     45409 MEMB     52       PPPE     H6S      HAL2     0.900000E-01   1.00800           0
     45410 MEMB     52       PPPE     C27      CTL2    -0.180000       12.0110           0
     45411 MEMB     52       PPPE     H7R      HAL2     0.900000E-01   1.00800           0
     45412 MEMB     52       PPPE     H7S      HAL2     0.900000E-01   1.00800           0
     45413 MEMB     52       PPPE     C28      CTL2    -0.180000       12.0110           0
     45414 MEMB     52       PPPE     H8R      HAL2     0.900000E-01   1.00800           0
     45415 MEMB     52       PPPE     H8S      HAL2     0.900000E-01   1.00800           0
     45416 MEMB     52       PPPE     C29      CEL1    -0.150000       12.0110           0
     45417 MEMB     52       PPPE     H91      HEL1     0.150000       1.00800           0
     45418 MEMB     52       PPPE     C210     CEL1    -0.150000       12.0110           0
     45419 MEMB     52       PPPE     H101     HEL1     0.150000       1.00800           0
     45420 MEMB     52       PPPE     C211     CTL2    -0.180000       12.0110           0
     45421 MEMB     52       PPPE     H11R     HAL2     0.900000E-01   1.00800           0
     45422 MEMB     52       PPPE     H11S     HAL2     0.900000E-01   1.00800           0
     45423 MEMB     52       PPPE     C212     CTL2    -0.180000       12.0110           0
     45424 MEMB     52       PPPE     H12R     HAL2     0.900000E-01   1.00800           0
     45425 MEMB     52       PPPE     H12S     HAL2     0.900000E-01   1.00800           0
     45426 MEMB     52       PPPE     C213     CTL2    -0.180000       12.0110           0
     45427 MEMB     52       PPPE     H13R     HAL2     0.900000E-01   1.00800           0
     45428 MEMB     52       PPPE     H13S     HAL2     0.900000E-01   1.00800           0
     45429 MEMB     52       PPPE     C214     CTL2    -0.180000       12.0110           0
     45430 MEMB     52       PPPE     H14R     HAL2     0.900000E-01   1.00800           0
     45431 MEMB     52       PPPE     H14S     HAL2     0.900000E-01   1.00800           0
     45432 MEMB     52       PPPE     C215     CTL2    -0.180000       12.0110           0
     45433 MEMB     52       PPPE     H15R     HAL2     0.900000E-01   1.00800           0
     45434 MEMB     52       PPPE     H15S     HAL2     0.900000E-01   1.00800           0
     45435 MEMB     52       PPPE     C216     CTL3    -0.270000       12.0110           0
     45436 MEMB     52       PPPE     H16R     HAL3     0.900000E-01   1.00800           0
     45437 MEMB     52       PPPE     H16S     HAL3     0.900000E-01   1.00800           0
     45438 MEMB     52       PPPE     H16T     HAL3     0.900000E-01   1.00800           0
     45439 MEMB     52       PPPE     C33      CTL2    -0.180000       12.0110           0
     45440 MEMB     52       PPPE     H3X      HAL2     0.900000E-01   1.00800           0
     45441 MEMB     52       PPPE     H3Y      HAL2     0.900000E-01   1.00800           0
     45442 MEMB     52       PPPE     C34      CTL2    -0.180000       12.0110           0
     45443 MEMB     52       PPPE     H4X      HAL2     0.900000E-01   1.00800           0
     45444 MEMB     52       PPPE     H4Y      HAL2     0.900000E-01   1.00800           0
     45445 MEMB     52       PPPE     C35      CTL2    -0.180000       12.0110           0
     45446 MEMB     52       PPPE     H5X      HAL2     0.900000E-01   1.00800           0
     45447 MEMB     52       PPPE     H5Y      HAL2     0.900000E-01   1.00800           0
     45448 MEMB     52       PPPE     C36      CTL2    -0.180000       12.0110           0
     45449 MEMB     52       PPPE     H6X      HAL2     0.900000E-01   1.00800           0
     45450 MEMB     52       PPPE     H6Y      HAL2     0.900000E-01   1.00800           0
     45451 MEMB     52       PPPE     C37      CTL2    -0.180000       12.0110           0
     45452 MEMB     52       PPPE     H7X      HAL2     0.900000E-01   1.00800           0
     45453 MEMB     52       PPPE     H7Y      HAL2     0.900000E-01   1.00800           0
     45454 MEMB     52       PPPE     C38      CTL2    -0.180000       12.0110           0
     45455 MEMB     52       PPPE     H8X      HAL2     0.900000E-01   1.00800           0
     45456 MEMB     52       PPPE     H8Y      HAL2     0.900000E-01   1.00800           0
     45457 MEMB     52       PPPE     C39      CTL2    -0.180000       12.0110           0
     45458 MEMB     52       PPPE     H9X      HAL2     0.900000E-01   1.00800           0
     45459 MEMB     52       PPPE     H9Y      HAL2     0.900000E-01   1.00800           0
     45460 MEMB     52       PPPE     C310     CTL2    -0.180000       12.0110           0
     45461 MEMB     52       PPPE     H10X     HAL2     0.900000E-01   1.00800           0
     45462 MEMB     52       PPPE     H10Y     HAL2     0.900000E-01   1.00800           0
     45463 MEMB     52       PPPE     C311     CTL2    -0.180000       12.0110           0
     45464 MEMB     52       PPPE     H11X     HAL2     0.900000E-01   1.00800           0
     45465 MEMB     52       PPPE     H11Y     HAL2     0.900000E-01   1.00800           0
     45466 MEMB     52       PPPE     C312     CTL2    -0.180000       12.0110           0
     45467 MEMB     52       PPPE     H12X     HAL2     0.900000E-01   1.00800           0
     45468 MEMB     52       PPPE     H12Y     HAL2     0.900000E-01   1.00800           0
     45469 MEMB     52       PPPE     C313     CTL2    -0.180000       12.0110           0
     45470 MEMB     52       PPPE     H13X     HAL2     0.900000E-01   1.00800           0
     45471 MEMB     52       PPPE     H13Y     HAL2     0.900000E-01   1.00800           0
     45472 MEMB     52       PPPE     C314     CTL2    -0.180000       12.0110           0
     45473 MEMB     52       PPPE     H14X     HAL2     0.900000E-01   1.00800           0
     45474 MEMB     52       PPPE     H14Y     HAL2     0.900000E-01   1.00800           0
     45475 MEMB     52       PPPE     C315     CTL2    -0.180000       12.0110           0
     45476 MEMB     52       PPPE     H15X     HAL2     0.900000E-01   1.00800           0
     45477 MEMB     52       PPPE     H15Y     HAL2     0.900000E-01   1.00800           0
     45478 MEMB     52       PPPE     C316     CTL3    -0.270000       12.0110           0
     45479 MEMB     52       PPPE     H16X     HAL3     0.900000E-01   1.00800           0
     45480 MEMB     52       PPPE     H16Y     HAL3     0.900000E-01   1.00800           0
     45481 MEMB     52       PPPE     H16Z     HAL3     0.900000E-01   1.00800           0
     45482 MEMB     53       PPPE     N        NH3L    -0.300000       14.0070           0
     45483 MEMB     53       PPPE     HN1      HCL      0.330000       1.00800           0
     45484 MEMB     53       PPPE     HN2      HCL      0.330000       1.00800           0
     45485 MEMB     53       PPPE     HN3      HCL      0.330000       1.00800           0
     45486 MEMB     53       PPPE     C12      CTL2     0.130000       12.0110           0
     45487 MEMB     53       PPPE     H12A     HAL2     0.900000E-01   1.00800           0
     45488 MEMB     53       PPPE     H12B     HAL2     0.900000E-01   1.00800           0
     45489 MEMB     53       PPPE     C11      CTL2    -0.800000E-01   12.0110           0
     45490 MEMB     53       PPPE     H11A     HAL2     0.900000E-01   1.00800           0
     45491 MEMB     53       PPPE     H11B     HAL2     0.900000E-01   1.00800           0
     45492 MEMB     53       PPPE     P        PL        1.50000       30.9740           0
     45493 MEMB     53       PPPE     O13      O2L     -0.780000       15.9994           0
     45494 MEMB     53       PPPE     O14      O2L     -0.780000       15.9994           0
     45495 MEMB     53       PPPE     O11      OSLP    -0.570000       15.9994           0
     45496 MEMB     53       PPPE     O12      OSLP    -0.570000       15.9994           0
     45497 MEMB     53       PPPE     C1       CTL2    -0.800000E-01   12.0110           0
     45498 MEMB     53       PPPE     HA       HAL2     0.900000E-01   1.00800           0
     45499 MEMB     53       PPPE     HB       HAL2     0.900000E-01   1.00800           0
     45500 MEMB     53       PPPE     C2       CTL1     0.170000       12.0110           0
     45501 MEMB     53       PPPE     HS       HAL1     0.900000E-01   1.00800           0
     45502 MEMB     53       PPPE     O21      OSL     -0.490000       15.9994           0
     45503 MEMB     53       PPPE     C21      CL       0.900000       12.0110           0
     45504 MEMB     53       PPPE     O22      OBL     -0.630000       15.9994           0
     45505 MEMB     53       PPPE     C22      CTL2    -0.220000       12.0110           0
     45506 MEMB     53       PPPE     H2R      HAL2     0.900000E-01   1.00800           0
     45507 MEMB     53       PPPE     H2S      HAL2     0.900000E-01   1.00800           0
     45508 MEMB     53       PPPE     C3       CTL2     0.800000E-01   12.0110           0
     45509 MEMB     53       PPPE     HX       HAL2     0.900000E-01   1.00800           0
     45510 MEMB     53       PPPE     HY       HAL2     0.900000E-01   1.00800           0
     45511 MEMB     53       PPPE     O31      OSL     -0.490000       15.9994           0
     45512 MEMB     53       PPPE     C31      CL       0.900000       12.0110           0
     45513 MEMB     53       PPPE     O32      OBL     -0.630000       15.9994           0
     45514 MEMB     53       PPPE     C32      CTL2    -0.220000       12.0110           0
     45515 MEMB     53       PPPE     H2X      HAL2     0.900000E-01   1.00800           0
     45516 MEMB     53       PPPE     H2Y      HAL2     0.900000E-01   1.00800           0
     45517 MEMB     53       PPPE     C23      CTL2    -0.180000       12.0110           0
     45518 MEMB     53       PPPE     H3R      HAL2     0.900000E-01   1.00800           0
     45519 MEMB     53       PPPE     H3S      HAL2     0.900000E-01   1.00800           0
     45520 MEMB     53       PPPE     C24      CTL2    -0.180000       12.0110           0
     45521 MEMB     53       PPPE     H4R      HAL2     0.900000E-01   1.00800           0
     45522 MEMB     53       PPPE     H4S      HAL2     0.900000E-01   1.00800           0
     45523 MEMB     53       PPPE     C25      CTL2    -0.180000       12.0110           0
     45524 MEMB     53       PPPE     H5R      HAL2     0.900000E-01   1.00800           0
     45525 MEMB     53       PPPE     H5S      HAL2     0.900000E-01   1.00800           0
     45526 MEMB     53       PPPE     C26      CTL2    -0.180000       12.0110           0
     45527 MEMB     53       PPPE     H6R      HAL2     0.900000E-01   1.00800           0
     45528 MEMB     53       PPPE     H6S      HAL2     0.900000E-01   1.00800           0
     45529 MEMB     53       PPPE     C27      CTL2    -0.180000       12.0110           0
     45530 MEMB     53       PPPE     H7R      HAL2     0.900000E-01   1.00800           0
     45531 MEMB     53       PPPE     H7S      HAL2     0.900000E-01   1.00800           0
     45532 MEMB     53       PPPE     C28      CTL2    -0.180000       12.0110           0
     45533 MEMB     53       PPPE     H8R      HAL2     0.900000E-01   1.00800           0
     45534 MEMB     53       PPPE     H8S      HAL2     0.900000E-01   1.00800           0
     45535 MEMB     53       PPPE     C29      CEL1    -0.150000       12.0110           0
     45536 MEMB     53       PPPE     H91      HEL1     0.150000       1.00800           0
     45537 MEMB     53       PPPE     C210     CEL1    -0.150000       12.0110           0
     45538 MEMB     53       PPPE     H101     HEL1     0.150000       1.00800           0
     45539 MEMB     53       PPPE     C211     CTL2    -0.180000       12.0110           0
     45540 MEMB     53       PPPE     H11R     HAL2     0.900000E-01   1.00800           0
     45541 MEMB     53       PPPE     H11S     HAL2     0.900000E-01   1.00800           0
     45542 MEMB     53       PPPE     C212     CTL2    -0.180000       12.0110           0
     45543 MEMB     53       PPPE     H12R     HAL2     0.900000E-01   1.00800           0
     45544 MEMB     53       PPPE     H12S     HAL2     0.900000E-01   1.00800           0
     45545 MEMB     53       PPPE     C213     CTL2    -0.180000       12.0110           0
     45546 MEMB     53       PPPE     H13R     HAL2     0.900000E-01   1.00800           0
     45547 MEMB     53       PPPE     H13S     HAL2     0.900000E-01   1.00800           0
     45548 MEMB     53       PPPE     C214     CTL2    -0.180000       12.0110           0
     45549 MEMB     53       PPPE     H14R     HAL2     0.900000E-01   1.00800           0
     45550 MEMB     53       PPPE     H14S     HAL2     0.900000E-01   1.00800           0
     45551 MEMB     53       PPPE     C215     CTL2    -0.180000       12.0110           0
     45552 MEMB     53       PPPE     H15R     HAL2     0.900000E-01   1.00800           0
     45553 MEMB     53       PPPE     H15S     HAL2     0.900000E-01   1.00800           0
     45554 MEMB     53       PPPE     C216     CTL3    -0.270000       12.0110           0
     45555 MEMB     53       PPPE     H16R     HAL3     0.900000E-01   1.00800           0
     45556 MEMB     53       PPPE     H16S     HAL3     0.900000E-01   1.00800           0
     45557 MEMB     53       PPPE     H16T     HAL3     0.900000E-01   1.00800           0
     45558 MEMB     53       PPPE     C33      CTL2    -0.180000       12.0110           0
     45559 MEMB     53       PPPE     H3X      HAL2     0.900000E-01   1.00800           0
     45560 MEMB     53       PPPE     H3Y      HAL2     0.900000E-01   1.00800           0
     45561 MEMB     53       PPPE     C34      CTL2    -0.180000       12.0110           0
     45562 MEMB     53       PPPE     H4X      HAL2     0.900000E-01   1.00800           0
     45563 MEMB     53       PPPE     H4Y      HAL2     0.900000E-01   1.00800           0
     45564 MEMB     53       PPPE     C35      CTL2    -0.180000       12.0110           0
     45565 MEMB     53       PPPE     H5X      HAL2     0.900000E-01   1.00800           0
     45566 MEMB     53       PPPE     H5Y      HAL2     0.900000E-01   1.00800           0
     45567 MEMB     53       PPPE     C36      CTL2    -0.180000       12.0110           0
     45568 MEMB     53       PPPE     H6X      HAL2     0.900000E-01   1.00800           0
     45569 MEMB     53       PPPE     H6Y      HAL2     0.900000E-01   1.00800           0
     45570 MEMB     53       PPPE     C37      CTL2    -0.180000       12.0110           0
     45571 MEMB     53       PPPE     H7X      HAL2     0.900000E-01   1.00800           0
     45572 MEMB     53       PPPE     H7Y      HAL2     0.900000E-01   1.00800           0
     45573 MEMB     53       PPPE     C38      CTL2    -0.180000       12.0110           0
     45574 MEMB     53       PPPE     H8X      HAL2     0.900000E-01   1.00800           0
     45575 MEMB     53       PPPE     H8Y      HAL2     0.900000E-01   1.00800           0
     45576 MEMB     53       PPPE     C39      CTL2    -0.180000       12.0110           0
     45577 MEMB     53       PPPE     H9X      HAL2     0.900000E-01   1.00800           0
     45578 MEMB     53       PPPE     H9Y      HAL2     0.900000E-01   1.00800           0
     45579 MEMB     53       PPPE     C310     CTL2    -0.180000       12.0110           0
     45580 MEMB     53       PPPE     H10X     HAL2     0.900000E-01   1.00800           0
     45581 MEMB     53       PPPE     H10Y     HAL2     0.900000E-01   1.00800           0
     45582 MEMB     53       PPPE     C311     CTL2    -0.180000       12.0110           0
     45583 MEMB     53       PPPE     H11X     HAL2     0.900000E-01   1.00800           0
     45584 MEMB     53       PPPE     H11Y     HAL2     0.900000E-01   1.00800           0
     45585 MEMB     53       PPPE     C312     CTL2    -0.180000       12.0110           0
     45586 MEMB     53       PPPE     H12X     HAL2     0.900000E-01   1.00800           0
     45587 MEMB     53       PPPE     H12Y     HAL2     0.900000E-01   1.00800           0
     45588 MEMB     53       PPPE     C313     CTL2    -0.180000       12.0110           0
     45589 MEMB     53       PPPE     H13X     HAL2     0.900000E-01   1.00800           0
     45590 MEMB     53       PPPE     H13Y     HAL2     0.900000E-01   1.00800           0
     45591 MEMB     53       PPPE     C314     CTL2    -0.180000       12.0110           0
     45592 MEMB     53       PPPE     H14X     HAL2     0.900000E-01   1.00800           0
     45593 MEMB     53       PPPE     H14Y     HAL2     0.900000E-01   1.00800           0
     45594 MEMB     53       PPPE     C315     CTL2    -0.180000       12.0110           0
     45595 MEMB     53       PPPE     H15X     HAL2     0.900000E-01   1.00800           0
     45596 MEMB     53       PPPE     H15Y     HAL2     0.900000E-01   1.00800           0
     45597 MEMB     53       PPPE     C316     CTL3    -0.270000       12.0110           0
     45598 MEMB     53       PPPE     H16X     HAL3     0.900000E-01   1.00800           0
     45599 MEMB     53       PPPE     H16Y     HAL3     0.900000E-01   1.00800           0
     45600 MEMB     53       PPPE     H16Z     HAL3     0.900000E-01   1.00800           0
     45601 MEMB     54       PPPE     N        NH3L    -0.300000       14.0070           0
     45602 MEMB     54       PPPE     HN1      HCL      0.330000       1.00800           0
     45603 MEMB     54       PPPE     HN2      HCL      0.330000       1.00800           0
     45604 MEMB     54       PPPE     HN3      HCL      0.330000       1.00800           0
     45605 MEMB     54       PPPE     C12      CTL2     0.130000       12.0110           0
     45606 MEMB     54       PPPE     H12A     HAL2     0.900000E-01   1.00800           0
     45607 MEMB     54       PPPE     H12B     HAL2     0.900000E-01   1.00800           0
     45608 MEMB     54       PPPE     C11      CTL2    -0.800000E-01   12.0110           0
     45609 MEMB     54       PPPE     H11A     HAL2     0.900000E-01   1.00800           0
     45610 MEMB     54       PPPE     H11B     HAL2     0.900000E-01   1.00800           0
     45611 MEMB     54       PPPE     P        PL        1.50000       30.9740           0
     45612 MEMB     54       PPPE     O13      O2L     -0.780000       15.9994           0
     45613 MEMB     54       PPPE     O14      O2L     -0.780000       15.9994           0
     45614 MEMB     54       PPPE     O11      OSLP    -0.570000       15.9994           0
     45615 MEMB     54       PPPE     O12      OSLP    -0.570000       15.9994           0
     45616 MEMB     54       PPPE     C1       CTL2    -0.800000E-01   12.0110           0
     45617 MEMB     54       PPPE     HA       HAL2     0.900000E-01   1.00800           0
     45618 MEMB     54       PPPE     HB       HAL2     0.900000E-01   1.00800           0
     45619 MEMB     54       PPPE     C2       CTL1     0.170000       12.0110           0
     45620 MEMB     54       PPPE     HS       HAL1     0.900000E-01   1.00800           0
     45621 MEMB     54       PPPE     O21      OSL     -0.490000       15.9994           0
     45622 MEMB     54       PPPE     C21      CL       0.900000       12.0110           0
     45623 MEMB     54       PPPE     O22      OBL     -0.630000       15.9994           0
     45624 MEMB     54       PPPE     C22      CTL2    -0.220000       12.0110           0
     45625 MEMB     54       PPPE     H2R      HAL2     0.900000E-01   1.00800           0
     45626 MEMB     54       PPPE     H2S      HAL2     0.900000E-01   1.00800           0
     45627 MEMB     54       PPPE     C3       CTL2     0.800000E-01   12.0110           0
     45628 MEMB     54       PPPE     HX       HAL2     0.900000E-01   1.00800           0
     45629 MEMB     54       PPPE     HY       HAL2     0.900000E-01   1.00800           0
     45630 MEMB     54       PPPE     O31      OSL     -0.490000       15.9994           0
     45631 MEMB     54       PPPE     C31      CL       0.900000       12.0110           0
     45632 MEMB     54       PPPE     O32      OBL     -0.630000       15.9994           0
     45633 MEMB     54       PPPE     C32      CTL2    -0.220000       12.0110           0
     45634 MEMB     54       PPPE     H2X      HAL2     0.900000E-01   1.00800           0
     45635 MEMB     54       PPPE     H2Y      HAL2     0.900000E-01   1.00800           0
     45636 MEMB     54       PPPE     C23      CTL2    -0.180000       12.0110           0
     45637 MEMB     54       PPPE     H3R      HAL2     0.900000E-01   1.00800           0
     45638 MEMB     54       PPPE     H3S      HAL2     0.900000E-01   1.00800           0
     45639 MEMB     54       PPPE     C24      CTL2    -0.180000       12.0110           0
     45640 MEMB     54       PPPE     H4R      HAL2     0.900000E-01   1.00800           0
     45641 MEMB     54       PPPE     H4S      HAL2     0.900000E-01   1.00800           0
     45642 MEMB     54       PPPE     C25      CTL2    -0.180000       12.0110           0
     45643 MEMB     54       PPPE     H5R      HAL2     0.900000E-01   1.00800           0
     45644 MEMB     54       PPPE     H5S      HAL2     0.900000E-01   1.00800           0
     45645 MEMB     54       PPPE     C26      CTL2    -0.180000       12.0110           0
     45646 MEMB     54       PPPE     H6R      HAL2     0.900000E-01   1.00800           0
     45647 MEMB     54       PPPE     H6S      HAL2     0.900000E-01   1.00800           0
     45648 MEMB     54       PPPE     C27      CTL2    -0.180000       12.0110           0
     45649 MEMB     54       PPPE     H7R      HAL2     0.900000E-01   1.00800           0
     45650 MEMB     54       PPPE     H7S      HAL2     0.900000E-01   1.00800           0
     45651 MEMB     54       PPPE     C28      CTL2    -0.180000       12.0110           0
     45652 MEMB     54       PPPE     H8R      HAL2     0.900000E-01   1.00800           0
     45653 MEMB     54       PPPE     H8S      HAL2     0.900000E-01   1.00800           0
     45654 MEMB     54       PPPE     C29      CEL1    -0.150000       12.0110           0
     45655 MEMB     54       PPPE     H91      HEL1     0.150000       1.00800           0
     45656 MEMB     54       PPPE     C210     CEL1    -0.150000       12.0110           0
     45657 MEMB     54       PPPE     H101     HEL1     0.150000       1.00800           0
     45658 MEMB     54       PPPE     C211     CTL2    -0.180000       12.0110           0
     45659 MEMB     54       PPPE     H11R     HAL2     0.900000E-01   1.00800           0
     45660 MEMB     54       PPPE     H11S     HAL2     0.900000E-01   1.00800           0
     45661 MEMB     54       PPPE     C212     CTL2    -0.180000       12.0110           0
     45662 MEMB     54       PPPE     H12R     HAL2     0.900000E-01   1.00800           0
     45663 MEMB     54       PPPE     H12S     HAL2     0.900000E-01   1.00800           0
     45664 MEMB     54       PPPE     C213     CTL2    -0.180000       12.0110           0
     45665 MEMB     54       PPPE     H13R     HAL2     0.900000E-01   1.00800           0
     45666 MEMB     54       PPPE     H13S     HAL2     0.900000E-01   1.00800           0
     45667 MEMB     54       PPPE     C214     CTL2    -0.180000       12.0110           0
     45668 MEMB     54       PPPE     H14R     HAL2     0.900000E-01   1.00800           0
     45669 MEMB     54       PPPE     H14S     HAL2     0.900000E-01   1.00800           0
     45670 MEMB     54       PPPE     C215     CTL2    -0.180000       12.0110           0
     45671 MEMB     54       PPPE     H15R     HAL2     0.900000E-01   1.00800           0
     45672 MEMB     54       PPPE     H15S     HAL2     0.900000E-01   1.00800           0
     45673 MEMB     54       PPPE     C216     CTL3    -0.270000       12.0110           0
     45674 MEMB     54       PPPE     H16R     HAL3     0.900000E-01   1.00800           0
     45675 MEMB     54       PPPE     H16S     HAL3     0.900000E-01   1.00800           0
     45676 MEMB     54       PPPE     H16T     HAL3     0.900000E-01   1.00800           0
     45677 MEMB     54       PPPE     C33      CTL2    -0.180000       12.0110           0
     45678 MEMB     54       PPPE     H3X      HAL2     0.900000E-01   1.00800           0
     45679 MEMB     54       PPPE     H3Y      HAL2     0.900000E-01   1.00800           0
     45680 MEMB     54       PPPE     C34      CTL2    -0.180000       12.0110           0
     45681 MEMB     54       PPPE     H4X      HAL2     0.900000E-01   1.00800           0
     45682 MEMB     54       PPPE     H4Y      HAL2     0.900000E-01   1.00800           0
     45683 MEMB     54       PPPE     C35      CTL2    -0.180000       12.0110           0
     45684 MEMB     54       PPPE     H5X      HAL2     0.900000E-01   1.00800           0
     45685 MEMB     54       PPPE     H5Y      HAL2     0.900000E-01   1.00800           0
     45686 MEMB     54       PPPE     C36      CTL2    -0.180000       12.0110           0
     45687 MEMB     54       PPPE     H6X      HAL2     0.900000E-01   1.00800           0
     45688 MEMB     54       PPPE     H6Y      HAL2     0.900000E-01   1.00800           0
     45689 MEMB     54       PPPE     C37      CTL2    -0.180000       12.0110           0
     45690 MEMB     54       PPPE     H7X      HAL2     0.900000E-01   1.00800           0
     45691 MEMB     54       PPPE     H7Y      HAL2     0.900000E-01   1.00800           0
     45692 MEMB     54       PPPE     C38      CTL2    -0.180000       12.0110           0
     45693 MEMB     54       PPPE     H8X      HAL2     0.900000E-01   1.00800           0
     45694 MEMB     54       PPPE     H8Y      HAL2     0.900000E-01   1.00800           0
     45695 MEMB     54       PPPE     C39      CTL2    -0.180000       12.0110           0
     45696 MEMB     54       PPPE     H9X      HAL2     0.900000E-01   1.00800           0
     45697 MEMB     54       PPPE     H9Y      HAL2     0.900000E-01   1.00800           0
     45698 MEMB     54       PPPE     C310     CTL2    -0.180000       12.0110           0
     45699 MEMB     54       PPPE     H10X     HAL2     0.900000E-01   1.00800           0
     45700 MEMB     54       PPPE     H10Y     HAL2     0.900000E-01   1.00800           0
     45701 MEMB     54       PPPE     C311     CTL2    -0.180000       12.0110           0
     45702 MEMB     54       PPPE     H11X     HAL2     0.900000E-01   1.00800           0
     45703 MEMB     54       PPPE     H11Y     HAL2     0.900000E-01   1.00800           0
     45704 MEMB     54       PPPE     C312     CTL2    -0.180000       12.0110           0
     45705 MEMB     54       PPPE     H12X     HAL2     0.900000E-01   1.00800           0
     45706 MEMB     54       PPPE     H12Y     HAL2     0.900000E-01   1.00800           0
     45707 MEMB     54       PPPE     C313     CTL2    -0.180000       12.0110           0
     45708 MEMB     54       PPPE     H13X     HAL2     0.900000E-01   1.00800           0
     45709 MEMB     54       PPPE     H13Y     HAL2     0.900000E-01   1.00800           0
     45710 MEMB     54       PPPE     C314     CTL2    -0.180000       12.0110           0
     45711 MEMB     54       PPPE     H14X     HAL2     0.900000E-01   1.00800           0
     45712 MEMB     54       PPPE     H14Y     HAL2     0.900000E-01   1.00800           0
     45713 MEMB     54       PPPE     C315     CTL2    -0.180000       12.0110           0
     45714 MEMB     54       PPPE     H15X     HAL2     0.900000E-01   1.00800           0
     45715 MEMB     54       PPPE     H15Y     HAL2     0.900000E-01   1.00800           0
     45716 MEMB     54       PPPE     C316     CTL3    -0.270000       12.0110           0
     45717 MEMB     54       PPPE     H16X     HAL3     0.900000E-01   1.00800           0
     45718 MEMB     54       PPPE     H16Y     HAL3     0.900000E-01   1.00800           0
     45719 MEMB     54       PPPE     H16Z     HAL3     0.900000E-01   1.00800           0
     45720 MEMB     55       PPPE     N        NH3L    -0.300000       14.0070           0
     45721 MEMB     55       PPPE     HN1      HCL      0.330000       1.00800           0
     45722 MEMB     55       PPPE     HN2      HCL      0.330000       1.00800           0
     45723 MEMB     55       PPPE     HN3      HCL      0.330000       1.00800           0
     45724 MEMB     55       PPPE     C12      CTL2     0.130000       12.0110           0
     45725 MEMB     55       PPPE     H12A     HAL2     0.900000E-01   1.00800           0
     45726 MEMB     55       PPPE     H12B     HAL2     0.900000E-01   1.00800           0
     45727 MEMB     55       PPPE     C11      CTL2    -0.800000E-01   12.0110           0
     45728 MEMB     55       PPPE     H11A     HAL2     0.900000E-01   1.00800           0
     45729 MEMB     55       PPPE     H11B     HAL2     0.900000E-01   1.00800           0
     45730 MEMB     55       PPPE     P        PL        1.50000       30.9740           0
     45731 MEMB     55       PPPE     O13      O2L     -0.780000       15.9994           0
     45732 MEMB     55       PPPE     O14      O2L     -0.780000       15.9994           0
     45733 MEMB     55       PPPE     O11      OSLP    -0.570000       15.9994           0
     45734 MEMB     55       PPPE     O12      OSLP    -0.570000       15.9994           0
     45735 MEMB     55       PPPE     C1       CTL2    -0.800000E-01   12.0110           0
     45736 MEMB     55       PPPE     HA       HAL2     0.900000E-01   1.00800           0
     45737 MEMB     55       PPPE     HB       HAL2     0.900000E-01   1.00800           0
     45738 MEMB     55       PPPE     C2       CTL1     0.170000       12.0110           0
     45739 MEMB     55       PPPE     HS       HAL1     0.900000E-01   1.00800           0
     45740 MEMB     55       PPPE     O21      OSL     -0.490000       15.9994           0
     45741 MEMB     55       PPPE     C21      CL       0.900000       12.0110           0
     45742 MEMB     55       PPPE     O22      OBL     -0.630000       15.9994           0
     45743 MEMB     55       PPPE     C22      CTL2    -0.220000       12.0110           0
     45744 MEMB     55       PPPE     H2R      HAL2     0.900000E-01   1.00800           0
     45745 MEMB     55       PPPE     H2S      HAL2     0.900000E-01   1.00800           0
     45746 MEMB     55       PPPE     C3       CTL2     0.800000E-01   12.0110           0
     45747 MEMB     55       PPPE     HX       HAL2     0.900000E-01   1.00800           0
     45748 MEMB     55       PPPE     HY       HAL2     0.900000E-01   1.00800           0
     45749 MEMB     55       PPPE     O31      OSL     -0.490000       15.9994           0
     45750 MEMB     55       PPPE     C31      CL       0.900000       12.0110           0
     45751 MEMB     55       PPPE     O32      OBL     -0.630000       15.9994           0
     45752 MEMB     55       PPPE     C32      CTL2    -0.220000       12.0110           0
     45753 MEMB     55       PPPE     H2X      HAL2     0.900000E-01   1.00800           0
     45754 MEMB     55       PPPE     H2Y      HAL2     0.900000E-01   1.00800           0
     45755 MEMB     55       PPPE     C23      CTL2    -0.180000       12.0110           0
     45756 MEMB     55       PPPE     H3R      HAL2     0.900000E-01   1.00800           0
     45757 MEMB     55       PPPE     H3S      HAL2     0.900000E-01   1.00800           0
     45758 MEMB     55       PPPE     C24      CTL2    -0.180000       12.0110           0
     45759 MEMB     55       PPPE     H4R      HAL2     0.900000E-01   1.00800           0
     45760 MEMB     55       PPPE     H4S      HAL2     0.900000E-01   1.00800           0
     45761 MEMB     55       PPPE     C25      CTL2    -0.180000       12.0110           0
     45762 MEMB     55       PPPE     H5R      HAL2     0.900000E-01   1.00800           0
     45763 MEMB     55       PPPE     H5S      HAL2     0.900000E-01   1.00800           0
     45764 MEMB     55       PPPE     C26      CTL2    -0.180000       12.0110           0
     45765 MEMB     55       PPPE     H6R      HAL2     0.900000E-01   1.00800           0
     45766 MEMB     55       PPPE     H6S      HAL2     0.900000E-01   1.00800           0
     45767 MEMB     55       PPPE     C27      CTL2    -0.180000       12.0110           0
     45768 MEMB     55       PPPE     H7R      HAL2     0.900000E-01   1.00800           0
     45769 MEMB     55       PPPE     H7S      HAL2     0.900000E-01   1.00800           0
     45770 MEMB     55       PPPE     C28      CTL2    -0.180000       12.0110           0
     45771 MEMB     55       PPPE     H8R      HAL2     0.900000E-01   1.00800           0
     45772 MEMB     55       PPPE     H8S      HAL2     0.900000E-01   1.00800           0
     45773 MEMB     55       PPPE     C29      CEL1    -0.150000       12.0110           0
     45774 MEMB     55       PPPE     H91      HEL1     0.150000       1.00800           0
     45775 MEMB     55       PPPE     C210     CEL1    -0.150000       12.0110           0
     45776 MEMB     55       PPPE     H101     HEL1     0.150000       1.00800           0
     45777 MEMB     55       PPPE     C211     CTL2    -0.180000       12.0110           0
     45778 MEMB     55       PPPE     H11R     HAL2     0.900000E-01   1.00800           0
     45779 MEMB     55       PPPE     H11S     HAL2     0.900000E-01   1.00800           0
     45780 MEMB     55       PPPE     C212     CTL2    -0.180000       12.0110           0
     45781 MEMB     55       PPPE     H12R     HAL2     0.900000E-01   1.00800           0
     45782 MEMB     55       PPPE     H12S     HAL2     0.900000E-01   1.00800           0
     45783 MEMB     55       PPPE     C213     CTL2    -0.180000       12.0110           0
     45784 MEMB     55       PPPE     H13R     HAL2     0.900000E-01   1.00800           0
     45785 MEMB     55       PPPE     H13S     HAL2     0.900000E-01   1.00800           0
     45786 MEMB     55       PPPE     C214     CTL2    -0.180000       12.0110           0
     45787 MEMB     55       PPPE     H14R     HAL2     0.900000E-01   1.00800           0
     45788 MEMB     55       PPPE     H14S     HAL2     0.900000E-01   1.00800           0
     45789 MEMB     55       PPPE     C215     CTL2    -0.180000       12.0110           0
     45790 MEMB     55       PPPE     H15R     HAL2     0.900000E-01   1.00800           0
     45791 MEMB     55       PPPE     H15S     HAL2     0.900000E-01   1.00800           0
     45792 MEMB     55       PPPE     C216     CTL3    -0.270000       12.0110           0
     45793 MEMB     55       PPPE     H16R     HAL3     0.900000E-01   1.00800           0
     45794 MEMB     55       PPPE     H16S     HAL3     0.900000E-01   1.00800           0
     45795 MEMB     55       PPPE     H16T     HAL3     0.900000E-01   1.00800           0
     45796 MEMB     55       PPPE     C33      CTL2    -0.180000       12.0110           0
     45797 MEMB     55       PPPE     H3X      HAL2     0.900000E-01   1.00800           0
     45798 MEMB     55       PPPE     H3Y      HAL2     0.900000E-01   1.00800           0
     45799 MEMB     55       PPPE     C34      CTL2    -0.180000       12.0110           0
     45800 MEMB     55       PPPE     H4X      HAL2     0.900000E-01   1.00800           0
     45801 MEMB     55       PPPE     H4Y      HAL2     0.900000E-01   1.00800           0
     45802 MEMB     55       PPPE     C35      CTL2    -0.180000       12.0110           0
     45803 MEMB     55       PPPE     H5X      HAL2     0.900000E-01   1.00800           0
     45804 MEMB     55       PPPE     H5Y      HAL2     0.900000E-01   1.00800           0
     45805 MEMB     55       PPPE     C36      CTL2    -0.180000       12.0110           0
     45806 MEMB     55       PPPE     H6X      HAL2     0.900000E-01   1.00800           0
     45807 MEMB     55       PPPE     H6Y      HAL2     0.900000E-01   1.00800           0
     45808 MEMB     55       PPPE     C37      CTL2    -0.180000       12.0110           0
     45809 MEMB     55       PPPE     H7X      HAL2     0.900000E-01   1.00800           0
     45810 MEMB     55       PPPE     H7Y      HAL2     0.900000E-01   1.00800           0
     45811 MEMB     55       PPPE     C38      CTL2    -0.180000       12.0110           0
     45812 MEMB     55       PPPE     H8X      HAL2     0.900000E-01   1.00800           0
     45813 MEMB     55       PPPE     H8Y      HAL2     0.900000E-01   1.00800           0
     45814 MEMB     55       PPPE     C39      CTL2    -0.180000       12.0110           0
     45815 MEMB     55       PPPE     H9X      HAL2     0.900000E-01   1.00800           0
     45816 MEMB     55       PPPE     H9Y      HAL2     0.900000E-01   1.00800           0
     45817 MEMB     55       PPPE     C310     CTL2    -0.180000       12.0110           0
     45818 MEMB     55       PPPE     H10X     HAL2     0.900000E-01   1.00800           0
     45819 MEMB     55       PPPE     H10Y     HAL2     0.900000E-01   1.00800           0
     45820 MEMB     55       PPPE     C311     CTL2    -0.180000       12.0110           0
     45821 MEMB     55       PPPE     H11X     HAL2     0.900000E-01   1.00800           0
     45822 MEMB     55       PPPE     H11Y     HAL2     0.900000E-01   1.00800           0
     45823 MEMB     55       PPPE     C312     CTL2    -0.180000       12.0110           0
     45824 MEMB     55       PPPE     H12X     HAL2     0.900000E-01   1.00800           0
     45825 MEMB     55       PPPE     H12Y     HAL2     0.900000E-01   1.00800           0
     45826 MEMB     55       PPPE     C313     CTL2    -0.180000       12.0110           0
     45827 MEMB     55       PPPE     H13X     HAL2     0.900000E-01   1.00800           0
     45828 MEMB     55       PPPE     H13Y     HAL2     0.900000E-01   1.00800           0
     45829 MEMB     55       PPPE     C314     CTL2    -0.180000       12.0110           0
     45830 MEMB     55       PPPE     H14X     HAL2     0.900000E-01   1.00800           0
     45831 MEMB     55       PPPE     H14Y     HAL2     0.900000E-01   1.00800           0
     45832 MEMB     55       PPPE     C315     CTL2    -0.180000       12.0110           0
     45833 MEMB     55       PPPE     H15X     HAL2     0.900000E-01   1.00800           0
     45834 MEMB     55       PPPE     H15Y     HAL2     0.900000E-01   1.00800           0
     45835 MEMB     55       PPPE     C316     CTL3    -0.270000       12.0110           0
     45836 MEMB     55       PPPE     H16X     HAL3     0.900000E-01   1.00800           0
     45837 MEMB     55       PPPE     H16Y     HAL3     0.900000E-01   1.00800           0
     45838 MEMB     55       PPPE     H16Z     HAL3     0.900000E-01   1.00800           0
     45839 MEMB     56       PPPE     N        NH3L    -0.300000       14.0070           0
     45840 MEMB     56       PPPE     HN1      HCL      0.330000       1.00800           0
     45841 MEMB     56       PPPE     HN2      HCL      0.330000       1.00800           0
     45842 MEMB     56       PPPE     HN3      HCL      0.330000       1.00800           0
     45843 MEMB     56       PPPE     C12      CTL2     0.130000       12.0110           0
     45844 MEMB     56       PPPE     H12A     HAL2     0.900000E-01   1.00800           0
     45845 MEMB     56       PPPE     H12B     HAL2     0.900000E-01   1.00800           0
     45846 MEMB     56       PPPE     C11      CTL2    -0.800000E-01   12.0110           0
     45847 MEMB     56       PPPE     H11A     HAL2     0.900000E-01   1.00800           0
     45848 MEMB     56       PPPE     H11B     HAL2     0.900000E-01   1.00800           0
     45849 MEMB     56       PPPE     P        PL        1.50000       30.9740           0
     45850 MEMB     56       PPPE     O13      O2L     -0.780000       15.9994           0
     45851 MEMB     56       PPPE     O14      O2L     -0.780000       15.9994           0
     45852 MEMB     56       PPPE     O11      OSLP    -0.570000       15.9994           0
     45853 MEMB     56       PPPE     O12      OSLP    -0.570000       15.9994           0
     45854 MEMB     56       PPPE     C1       CTL2    -0.800000E-01   12.0110           0
     45855 MEMB     56       PPPE     HA       HAL2     0.900000E-01   1.00800           0
     45856 MEMB     56       PPPE     HB       HAL2     0.900000E-01   1.00800           0
     45857 MEMB     56       PPPE     C2       CTL1     0.170000       12.0110           0
     45858 MEMB     56       PPPE     HS       HAL1     0.900000E-01   1.00800           0
     45859 MEMB     56       PPPE     O21      OSL     -0.490000       15.9994           0
     45860 MEMB     56       PPPE     C21      CL       0.900000       12.0110           0
     45861 MEMB     56       PPPE     O22      OBL     -0.630000       15.9994           0
     45862 MEMB     56       PPPE     C22      CTL2    -0.220000       12.0110           0
     45863 MEMB     56       PPPE     H2R      HAL2     0.900000E-01   1.00800           0
     45864 MEMB     56       PPPE     H2S      HAL2     0.900000E-01   1.00800           0
     45865 MEMB     56       PPPE     C3       CTL2     0.800000E-01   12.0110           0
     45866 MEMB     56       PPPE     HX       HAL2     0.900000E-01   1.00800           0
     45867 MEMB     56       PPPE     HY       HAL2     0.900000E-01   1.00800           0
     45868 MEMB     56       PPPE     O31      OSL     -0.490000       15.9994           0
     45869 MEMB     56       PPPE     C31      CL       0.900000       12.0110           0
     45870 MEMB     56       PPPE     O32      OBL     -0.630000       15.9994           0
     45871 MEMB     56       PPPE     C32      CTL2    -0.220000       12.0110           0
     45872 MEMB     56       PPPE     H2X      HAL2     0.900000E-01   1.00800           0
     45873 MEMB     56       PPPE     H2Y      HAL2     0.900000E-01   1.00800           0
     45874 MEMB     56       PPPE     C23      CTL2    -0.180000       12.0110           0
     45875 MEMB     56       PPPE     H3R      HAL2     0.900000E-01   1.00800           0
     45876 MEMB     56       PPPE     H3S      HAL2     0.900000E-01   1.00800           0
     45877 MEMB     56       PPPE     C24      CTL2    -0.180000       12.0110           0
     45878 MEMB     56       PPPE     H4R      HAL2     0.900000E-01   1.00800           0
     45879 MEMB     56       PPPE     H4S      HAL2     0.900000E-01   1.00800           0
     45880 MEMB     56       PPPE     C25      CTL2    -0.180000       12.0110           0
     45881 MEMB     56       PPPE     H5R      HAL2     0.900000E-01   1.00800           0
     45882 MEMB     56       PPPE     H5S      HAL2     0.900000E-01   1.00800           0
     45883 MEMB     56       PPPE     C26      CTL2    -0.180000       12.0110           0
     45884 MEMB     56       PPPE     H6R      HAL2     0.900000E-01   1.00800           0
     45885 MEMB     56       PPPE     H6S      HAL2     0.900000E-01   1.00800           0
     45886 MEMB     56       PPPE     C27      CTL2    -0.180000       12.0110           0
     45887 MEMB     56       PPPE     H7R      HAL2     0.900000E-01   1.00800           0
     45888 MEMB     56       PPPE     H7S      HAL2     0.900000E-01   1.00800           0
     45889 MEMB     56       PPPE     C28      CTL2    -0.180000       12.0110           0
     45890 MEMB     56       PPPE     H8R      HAL2     0.900000E-01   1.00800           0
     45891 MEMB     56       PPPE     H8S      HAL2     0.900000E-01   1.00800           0
     45892 MEMB     56       PPPE     C29      CEL1    -0.150000       12.0110           0
     45893 MEMB     56       PPPE     H91      HEL1     0.150000       1.00800           0
     45894 MEMB     56       PPPE     C210     CEL1    -0.150000       12.0110           0
     45895 MEMB     56       PPPE     H101     HEL1     0.150000       1.00800           0
     45896 MEMB     56       PPPE     C211     CTL2    -0.180000       12.0110           0
     45897 MEMB     56       PPPE     H11R     HAL2     0.900000E-01   1.00800           0
     45898 MEMB     56       PPPE     H11S     HAL2     0.900000E-01   1.00800           0
     45899 MEMB     56       PPPE     C212     CTL2    -0.180000       12.0110           0
     45900 MEMB     56       PPPE     H12R     HAL2     0.900000E-01   1.00800           0
     45901 MEMB     56       PPPE     H12S     HAL2     0.900000E-01   1.00800           0
     45902 MEMB     56       PPPE     C213     CTL2    -0.180000       12.0110           0
     45903 MEMB     56       PPPE     H13R     HAL2     0.900000E-01   1.00800           0
     45904 MEMB     56       PPPE     H13S     HAL2     0.900000E-01   1.00800           0
     45905 MEMB     56       PPPE     C214     CTL2    -0.180000       12.0110           0
     45906 MEMB     56       PPPE     H14R     HAL2     0.900000E-01   1.00800           0
     45907 MEMB     56       PPPE     H14S     HAL2     0.900000E-01   1.00800           0
     45908 MEMB     56       PPPE     C215     CTL2    -0.180000       12.0110           0
     45909 MEMB     56       PPPE     H15R     HAL2     0.900000E-01   1.00800           0
     45910 MEMB     56       PPPE     H15S     HAL2     0.900000E-01   1.00800           0
     45911 MEMB     56       PPPE     C216     CTL3    -0.270000       12.0110           0
     45912 MEMB     56       PPPE     H16R     HAL3     0.900000E-01   1.00800           0
     45913 MEMB     56       PPPE     H16S     HAL3     0.900000E-01   1.00800           0
     45914 MEMB     56       PPPE     H16T     HAL3     0.900000E-01   1.00800           0
     45915 MEMB     56       PPPE     C33      CTL2    -0.180000       12.0110           0
     45916 MEMB     56       PPPE     H3X      HAL2     0.900000E-01   1.00800           0
     45917 MEMB     56       PPPE     H3Y      HAL2     0.900000E-01   1.00800           0
     45918 MEMB     56       PPPE     C34      CTL2    -0.180000       12.0110           0
     45919 MEMB     56       PPPE     H4X      HAL2     0.900000E-01   1.00800           0
     45920 MEMB     56       PPPE     H4Y      HAL2     0.900000E-01   1.00800           0
     45921 MEMB     56       PPPE     C35      CTL2    -0.180000       12.0110           0
     45922 MEMB     56       PPPE     H5X      HAL2     0.900000E-01   1.00800           0
     45923 MEMB     56       PPPE     H5Y      HAL2     0.900000E-01   1.00800           0
     45924 MEMB     56       PPPE     C36      CTL2    -0.180000       12.0110           0
     45925 MEMB     56       PPPE     H6X      HAL2     0.900000E-01   1.00800           0
     45926 MEMB     56       PPPE     H6Y      HAL2     0.900000E-01   1.00800           0
     45927 MEMB     56       PPPE     C37      CTL2    -0.180000       12.0110           0
     45928 MEMB     56       PPPE     H7X      HAL2     0.900000E-01   1.00800           0
     45929 MEMB     56       PPPE     H7Y      HAL2     0.900000E-01   1.00800           0
     45930 MEMB     56       PPPE     C38      CTL2    -0.180000       12.0110           0
     45931 MEMB     56       PPPE     H8X      HAL2     0.900000E-01   1.00800           0
     45932 MEMB     56       PPPE     H8Y      HAL2     0.900000E-01   1.00800           0
     45933 MEMB     56       PPPE     C39      CTL2    -0.180000       12.0110           0
     45934 MEMB     56       PPPE     H9X      HAL2     0.900000E-01   1.00800           0
     45935 MEMB     56       PPPE     H9Y      HAL2     0.900000E-01   1.00800           0
     45936 MEMB     56       PPPE     C310     CTL2    -0.180000       12.0110           0
     45937 MEMB     56       PPPE     H10X     HAL2     0.900000E-01   1.00800           0
     45938 MEMB     56       PPPE     H10Y     HAL2     0.900000E-01   1.00800           0
     45939 MEMB     56       PPPE     C311     CTL2    -0.180000       12.0110           0
     45940 MEMB     56       PPPE     H11X     HAL2     0.900000E-01   1.00800           0
     45941 MEMB     56       PPPE     H11Y     HAL2     0.900000E-01   1.00800           0
     45942 MEMB     56       PPPE     C312     CTL2    -0.180000       12.0110           0
     45943 MEMB     56       PPPE     H12X     HAL2     0.900000E-01   1.00800           0
     45944 MEMB     56       PPPE     H12Y     HAL2     0.900000E-01   1.00800           0
     45945 MEMB     56       PPPE     C313     CTL2    -0.180000       12.0110           0
     45946 MEMB     56       PPPE     H13X     HAL2     0.900000E-01   1.00800           0
     45947 MEMB     56       PPPE     H13Y     HAL2     0.900000E-01   1.00800           0
     45948 MEMB     56       PPPE     C314     CTL2    -0.180000       12.0110           0
     45949 MEMB     56       PPPE     H14X     HAL2     0.900000E-01   1.00800           0
     45950 MEMB     56       PPPE     H14Y     HAL2     0.900000E-01   1.00800           0
     45951 MEMB     56       PPPE     C315     CTL2    -0.180000       12.0110           0
     45952 MEMB     56       PPPE     H15X     HAL2     0.900000E-01   1.00800           0
     45953 MEMB     56       PPPE     H15Y     HAL2     0.900000E-01   1.00800           0
     45954 MEMB     56       PPPE     C316     CTL3    -0.270000       12.0110           0
     45955 MEMB     56       PPPE     H16X     HAL3     0.900000E-01   1.00800           0
     45956 MEMB     56       PPPE     H16Y     HAL3     0.900000E-01   1.00800           0
     45957 MEMB     56       PPPE     H16Z     HAL3     0.900000E-01   1.00800           0
     45958 MEMB     57       PPPE     N        NH3L    -0.300000       14.0070           0
     45959 MEMB     57       PPPE     HN1      HCL      0.330000       1.00800           0
     45960 MEMB     57       PPPE     HN2      HCL      0.330000       1.00800           0
     45961 MEMB     57       PPPE     HN3      HCL      0.330000       1.00800           0
     45962 MEMB     57       PPPE     C12      CTL2     0.130000       12.0110           0
     45963 MEMB     57       PPPE     H12A     HAL2     0.900000E-01   1.00800           0
     45964 MEMB     57       PPPE     H12B     HAL2     0.900000E-01   1.00800           0
     45965 MEMB     57       PPPE     C11      CTL2    -0.800000E-01   12.0110           0
     45966 MEMB     57       PPPE     H11A     HAL2     0.900000E-01   1.00800           0
     45967 MEMB     57       PPPE     H11B     HAL2     0.900000E-01   1.00800           0
     45968 MEMB     57       PPPE     P        PL        1.50000       30.9740           0
     45969 MEMB     57       PPPE     O13      O2L     -0.780000       15.9994           0
     45970 MEMB     57       PPPE     O14      O2L     -0.780000       15.9994           0
     45971 MEMB     57       PPPE     O11      OSLP    -0.570000       15.9994           0
     45972 MEMB     57       PPPE     O12      OSLP    -0.570000       15.9994           0
     45973 MEMB     57       PPPE     C1       CTL2    -0.800000E-01   12.0110           0
     45974 MEMB     57       PPPE     HA       HAL2     0.900000E-01   1.00800           0
     45975 MEMB     57       PPPE     HB       HAL2     0.900000E-01   1.00800           0
     45976 MEMB     57       PPPE     C2       CTL1     0.170000       12.0110           0
     45977 MEMB     57       PPPE     HS       HAL1     0.900000E-01   1.00800           0
     45978 MEMB     57       PPPE     O21      OSL     -0.490000       15.9994           0
     45979 MEMB     57       PPPE     C21      CL       0.900000       12.0110           0
     45980 MEMB     57       PPPE     O22      OBL     -0.630000       15.9994           0
     45981 MEMB     57       PPPE     C22      CTL2    -0.220000       12.0110           0
     45982 MEMB     57       PPPE     H2R      HAL2     0.900000E-01   1.00800           0
     45983 MEMB     57       PPPE     H2S      HAL2     0.900000E-01   1.00800           0
     45984 MEMB     57       PPPE     C3       CTL2     0.800000E-01   12.0110           0
     45985 MEMB     57       PPPE     HX       HAL2     0.900000E-01   1.00800           0
     45986 MEMB     57       PPPE     HY       HAL2     0.900000E-01   1.00800           0
     45987 MEMB     57       PPPE     O31      OSL     -0.490000       15.9994           0
     45988 MEMB     57       PPPE     C31      CL       0.900000       12.0110           0
     45989 MEMB     57       PPPE     O32      OBL     -0.630000       15.9994           0
     45990 MEMB     57       PPPE     C32      CTL2    -0.220000       12.0110           0
     45991 MEMB     57       PPPE     H2X      HAL2     0.900000E-01   1.00800           0
     45992 MEMB     57       PPPE     H2Y      HAL2     0.900000E-01   1.00800           0
     45993 MEMB     57       PPPE     C23      CTL2    -0.180000       12.0110           0
     45994 MEMB     57       PPPE     H3R      HAL2     0.900000E-01   1.00800           0
     45995 MEMB     57       PPPE     H3S      HAL2     0.900000E-01   1.00800           0
     45996 MEMB     57       PPPE     C24      CTL2    -0.180000       12.0110           0
     45997 MEMB     57       PPPE     H4R      HAL2     0.900000E-01   1.00800           0
     45998 MEMB     57       PPPE     H4S      HAL2     0.900000E-01   1.00800           0
     45999 MEMB     57       PPPE     C25      CTL2    -0.180000       12.0110           0
     46000 MEMB     57       PPPE     H5R      HAL2     0.900000E-01   1.00800           0
     46001 MEMB     57       PPPE     H5S      HAL2     0.900000E-01   1.00800           0
     46002 MEMB     57       PPPE     C26      CTL2    -0.180000       12.0110           0
     46003 MEMB     57       PPPE     H6R      HAL2     0.900000E-01   1.00800           0
     46004 MEMB     57       PPPE     H6S      HAL2     0.900000E-01   1.00800           0
     46005 MEMB     57       PPPE     C27      CTL2    -0.180000       12.0110           0
     46006 MEMB     57       PPPE     H7R      HAL2     0.900000E-01   1.00800           0
     46007 MEMB     57       PPPE     H7S      HAL2     0.900000E-01   1.00800           0
     46008 MEMB     57       PPPE     C28      CTL2    -0.180000       12.0110           0
     46009 MEMB     57       PPPE     H8R      HAL2     0.900000E-01   1.00800           0
     46010 MEMB     57       PPPE     H8S      HAL2     0.900000E-01   1.00800           0
     46011 MEMB     57       PPPE     C29      CEL1    -0.150000       12.0110           0
     46012 MEMB     57       PPPE     H91      HEL1     0.150000       1.00800           0
     46013 MEMB     57       PPPE     C210     CEL1    -0.150000       12.0110           0
     46014 MEMB     57       PPPE     H101     HEL1     0.150000       1.00800           0
     46015 MEMB     57       PPPE     C211     CTL2    -0.180000       12.0110           0
     46016 MEMB     57       PPPE     H11R     HAL2     0.900000E-01   1.00800           0
     46017 MEMB     57       PPPE     H11S     HAL2     0.900000E-01   1.00800           0
     46018 MEMB     57       PPPE     C212     CTL2    -0.180000       12.0110           0
     46019 MEMB     57       PPPE     H12R     HAL2     0.900000E-01   1.00800           0
     46020 MEMB     57       PPPE     H12S     HAL2     0.900000E-01   1.00800           0
     46021 MEMB     57       PPPE     C213     CTL2    -0.180000       12.0110           0
     46022 MEMB     57       PPPE     H13R     HAL2     0.900000E-01   1.00800           0
     46023 MEMB     57       PPPE     H13S     HAL2     0.900000E-01   1.00800           0
     46024 MEMB     57       PPPE     C214     CTL2    -0.180000       12.0110           0
     46025 MEMB     57       PPPE     H14R     HAL2     0.900000E-01   1.00800           0
     46026 MEMB     57       PPPE     H14S     HAL2     0.900000E-01   1.00800           0
     46027 MEMB     57       PPPE     C215     CTL2    -0.180000       12.0110           0
     46028 MEMB     57       PPPE     H15R     HAL2     0.900000E-01   1.00800           0
     46029 MEMB     57       PPPE     H15S     HAL2     0.900000E-01   1.00800           0
     46030 MEMB     57       PPPE     C216     CTL3    -0.270000       12.0110           0
     46031 MEMB     57       PPPE     H16R     HAL3     0.900000E-01   1.00800           0
     46032 MEMB     57       PPPE     H16S     HAL3     0.900000E-01   1.00800           0
     46033 MEMB     57       PPPE     H16T     HAL3     0.900000E-01   1.00800           0
     46034 MEMB     57       PPPE     C33      CTL2    -0.180000       12.0110           0
     46035 MEMB     57       PPPE     H3X      HAL2     0.900000E-01   1.00800           0
     46036 MEMB     57       PPPE     H3Y      HAL2     0.900000E-01   1.00800           0
     46037 MEMB     57       PPPE     C34      CTL2    -0.180000       12.0110           0
     46038 MEMB     57       PPPE     H4X      HAL2     0.900000E-01   1.00800           0
     46039 MEMB     57       PPPE     H4Y      HAL2     0.900000E-01   1.00800           0
     46040 MEMB     57       PPPE     C35      CTL2    -0.180000       12.0110           0
     46041 MEMB     57       PPPE     H5X      HAL2     0.900000E-01   1.00800           0
     46042 MEMB     57       PPPE     H5Y      HAL2     0.900000E-01   1.00800           0
     46043 MEMB     57       PPPE     C36      CTL2    -0.180000       12.0110           0
     46044 MEMB     57       PPPE     H6X      HAL2     0.900000E-01   1.00800           0
     46045 MEMB     57       PPPE     H6Y      HAL2     0.900000E-01   1.00800           0
     46046 MEMB     57       PPPE     C37      CTL2    -0.180000       12.0110           0
     46047 MEMB     57       PPPE     H7X      HAL2     0.900000E-01   1.00800           0
     46048 MEMB     57       PPPE     H7Y      HAL2     0.900000E-01   1.00800           0
     46049 MEMB     57       PPPE     C38      CTL2    -0.180000       12.0110           0
     46050 MEMB     57       PPPE     H8X      HAL2     0.900000E-01   1.00800           0
     46051 MEMB     57       PPPE     H8Y      HAL2     0.900000E-01   1.00800           0
     46052 MEMB     57       PPPE     C39      CTL2    -0.180000       12.0110           0
     46053 MEMB     57       PPPE     H9X      HAL2     0.900000E-01   1.00800           0
     46054 MEMB     57       PPPE     H9Y      HAL2     0.900000E-01   1.00800           0
     46055 MEMB     57       PPPE     C310     CTL2    -0.180000       12.0110           0
     46056 MEMB     57       PPPE     H10X     HAL2     0.900000E-01   1.00800           0
     46057 MEMB     57       PPPE     H10Y     HAL2     0.900000E-01   1.00800           0
     46058 MEMB     57       PPPE     C311     CTL2    -0.180000       12.0110           0
     46059 MEMB     57       PPPE     H11X     HAL2     0.900000E-01   1.00800           0
     46060 MEMB     57       PPPE     H11Y     HAL2     0.900000E-01   1.00800           0
     46061 MEMB     57       PPPE     C312     CTL2    -0.180000       12.0110           0
     46062 MEMB     57       PPPE     H12X     HAL2     0.900000E-01   1.00800           0
     46063 MEMB     57       PPPE     H12Y     HAL2     0.900000E-01   1.00800           0
     46064 MEMB     57       PPPE     C313     CTL2    -0.180000       12.0110           0
     46065 MEMB     57       PPPE     H13X     HAL2     0.900000E-01   1.00800           0
     46066 MEMB     57       PPPE     H13Y     HAL2     0.900000E-01   1.00800           0
     46067 MEMB     57       PPPE     C314     CTL2    -0.180000       12.0110           0
     46068 MEMB     57       PPPE     H14X     HAL2     0.900000E-01   1.00800           0
     46069 MEMB     57       PPPE     H14Y     HAL2     0.900000E-01   1.00800           0
     46070 MEMB     57       PPPE     C315     CTL2    -0.180000       12.0110           0
     46071 MEMB     57       PPPE     H15X     HAL2     0.900000E-01   1.00800           0
     46072 MEMB     57       PPPE     H15Y     HAL2     0.900000E-01   1.00800           0
     46073 MEMB     57       PPPE     C316     CTL3    -0.270000       12.0110           0
     46074 MEMB     57       PPPE     H16X     HAL3     0.900000E-01   1.00800           0
     46075 MEMB     57       PPPE     H16Y     HAL3     0.900000E-01   1.00800           0
     46076 MEMB     57       PPPE     H16Z     HAL3     0.900000E-01   1.00800           0
     46077 MEMB     58       PPPE     N        NH3L    -0.300000       14.0070           0
     46078 MEMB     58       PPPE     HN1      HCL      0.330000       1.00800           0
     46079 MEMB     58       PPPE     HN2      HCL      0.330000       1.00800           0
     46080 MEMB     58       PPPE     HN3      HCL      0.330000       1.00800           0
     46081 MEMB     58       PPPE     C12      CTL2     0.130000       12.0110           0
     46082 MEMB     58       PPPE     H12A     HAL2     0.900000E-01   1.00800           0
     46083 MEMB     58       PPPE     H12B     HAL2     0.900000E-01   1.00800           0
     46084 MEMB     58       PPPE     C11      CTL2    -0.800000E-01   12.0110           0
     46085 MEMB     58       PPPE     H11A     HAL2     0.900000E-01   1.00800           0
     46086 MEMB     58       PPPE     H11B     HAL2     0.900000E-01   1.00800           0
     46087 MEMB     58       PPPE     P        PL        1.50000       30.9740           0
     46088 MEMB     58       PPPE     O13      O2L     -0.780000       15.9994           0
     46089 MEMB     58       PPPE     O14      O2L     -0.780000       15.9994           0
     46090 MEMB     58       PPPE     O11      OSLP    -0.570000       15.9994           0
     46091 MEMB     58       PPPE     O12      OSLP    -0.570000       15.9994           0
     46092 MEMB     58       PPPE     C1       CTL2    -0.800000E-01   12.0110           0
     46093 MEMB     58       PPPE     HA       HAL2     0.900000E-01   1.00800           0
     46094 MEMB     58       PPPE     HB       HAL2     0.900000E-01   1.00800           0
     46095 MEMB     58       PPPE     C2       CTL1     0.170000       12.0110           0
     46096 MEMB     58       PPPE     HS       HAL1     0.900000E-01   1.00800           0
     46097 MEMB     58       PPPE     O21      OSL     -0.490000       15.9994           0
     46098 MEMB     58       PPPE     C21      CL       0.900000       12.0110           0
     46099 MEMB     58       PPPE     O22      OBL     -0.630000       15.9994           0
     46100 MEMB     58       PPPE     C22      CTL2    -0.220000       12.0110           0
     46101 MEMB     58       PPPE     H2R      HAL2     0.900000E-01   1.00800           0
     46102 MEMB     58       PPPE     H2S      HAL2     0.900000E-01   1.00800           0
     46103 MEMB     58       PPPE     C3       CTL2     0.800000E-01   12.0110           0
     46104 MEMB     58       PPPE     HX       HAL2     0.900000E-01   1.00800           0
     46105 MEMB     58       PPPE     HY       HAL2     0.900000E-01   1.00800           0
     46106 MEMB     58       PPPE     O31      OSL     -0.490000       15.9994           0
     46107 MEMB     58       PPPE     C31      CL       0.900000       12.0110           0
     46108 MEMB     58       PPPE     O32      OBL     -0.630000       15.9994           0
     46109 MEMB     58       PPPE     C32      CTL2    -0.220000       12.0110           0
     46110 MEMB     58       PPPE     H2X      HAL2     0.900000E-01   1.00800           0
     46111 MEMB     58       PPPE     H2Y      HAL2     0.900000E-01   1.00800           0
     46112 MEMB     58       PPPE     C23      CTL2    -0.180000       12.0110           0
     46113 MEMB     58       PPPE     H3R      HAL2     0.900000E-01   1.00800           0
     46114 MEMB     58       PPPE     H3S      HAL2     0.900000E-01   1.00800           0
     46115 MEMB     58       PPPE     C24      CTL2    -0.180000       12.0110           0
     46116 MEMB     58       PPPE     H4R      HAL2     0.900000E-01   1.00800           0
     46117 MEMB     58       PPPE     H4S      HAL2     0.900000E-01   1.00800           0
     46118 MEMB     58       PPPE     C25      CTL2    -0.180000       12.0110           0
     46119 MEMB     58       PPPE     H5R      HAL2     0.900000E-01   1.00800           0
     46120 MEMB     58       PPPE     H5S      HAL2     0.900000E-01   1.00800           0
     46121 MEMB     58       PPPE     C26      CTL2    -0.180000       12.0110           0
     46122 MEMB     58       PPPE     H6R      HAL2     0.900000E-01   1.00800           0
     46123 MEMB     58       PPPE     H6S      HAL2     0.900000E-01   1.00800           0
     46124 MEMB     58       PPPE     C27      CTL2    -0.180000       12.0110           0
     46125 MEMB     58       PPPE     H7R      HAL2     0.900000E-01   1.00800           0
     46126 MEMB     58       PPPE     H7S      HAL2     0.900000E-01   1.00800           0
     46127 MEMB     58       PPPE     C28      CTL2    -0.180000       12.0110           0
     46128 MEMB     58       PPPE     H8R      HAL2     0.900000E-01   1.00800           0
     46129 MEMB     58       PPPE     H8S      HAL2     0.900000E-01   1.00800           0
     46130 MEMB     58       PPPE     C29      CEL1    -0.150000       12.0110           0
     46131 MEMB     58       PPPE     H91      HEL1     0.150000       1.00800           0
     46132 MEMB     58       PPPE     C210     CEL1    -0.150000       12.0110           0
     46133 MEMB     58       PPPE     H101     HEL1     0.150000       1.00800           0
     46134 MEMB     58       PPPE     C211     CTL2    -0.180000       12.0110           0
     46135 MEMB     58       PPPE     H11R     HAL2     0.900000E-01   1.00800           0
     46136 MEMB     58       PPPE     H11S     HAL2     0.900000E-01   1.00800           0
     46137 MEMB     58       PPPE     C212     CTL2    -0.180000       12.0110           0
     46138 MEMB     58       PPPE     H12R     HAL2     0.900000E-01   1.00800           0
     46139 MEMB     58       PPPE     H12S     HAL2     0.900000E-01   1.00800           0
     46140 MEMB     58       PPPE     C213     CTL2    -0.180000       12.0110           0
     46141 MEMB     58       PPPE     H13R     HAL2     0.900000E-01   1.00800           0
     46142 MEMB     58       PPPE     H13S     HAL2     0.900000E-01   1.00800           0
     46143 MEMB     58       PPPE     C214     CTL2    -0.180000       12.0110           0
     46144 MEMB     58       PPPE     H14R     HAL2     0.900000E-01   1.00800           0
     46145 MEMB     58       PPPE     H14S     HAL2     0.900000E-01   1.00800           0
     46146 MEMB     58       PPPE     C215     CTL2    -0.180000       12.0110           0
     46147 MEMB     58       PPPE     H15R     HAL2     0.900000E-01   1.00800           0
     46148 MEMB     58       PPPE     H15S     HAL2     0.900000E-01   1.00800           0
     46149 MEMB     58       PPPE     C216     CTL3    -0.270000       12.0110           0
     46150 MEMB     58       PPPE     H16R     HAL3     0.900000E-01   1.00800           0
     46151 MEMB     58       PPPE     H16S     HAL3     0.900000E-01   1.00800           0
     46152 MEMB     58       PPPE     H16T     HAL3     0.900000E-01   1.00800           0
     46153 MEMB     58       PPPE     C33      CTL2    -0.180000       12.0110           0
     46154 MEMB     58       PPPE     H3X      HAL2     0.900000E-01   1.00800           0
     46155 MEMB     58       PPPE     H3Y      HAL2     0.900000E-01   1.00800           0
     46156 MEMB     58       PPPE     C34      CTL2    -0.180000       12.0110           0
     46157 MEMB     58       PPPE     H4X      HAL2     0.900000E-01   1.00800           0
     46158 MEMB     58       PPPE     H4Y      HAL2     0.900000E-01   1.00800           0
     46159 MEMB     58       PPPE     C35      CTL2    -0.180000       12.0110           0
     46160 MEMB     58       PPPE     H5X      HAL2     0.900000E-01   1.00800           0
     46161 MEMB     58       PPPE     H5Y      HAL2     0.900000E-01   1.00800           0
     46162 MEMB     58       PPPE     C36      CTL2    -0.180000       12.0110           0
     46163 MEMB     58       PPPE     H6X      HAL2     0.900000E-01   1.00800           0
     46164 MEMB     58       PPPE     H6Y      HAL2     0.900000E-01   1.00800           0
     46165 MEMB     58       PPPE     C37      CTL2    -0.180000       12.0110           0
     46166 MEMB     58       PPPE     H7X      HAL2     0.900000E-01   1.00800           0
     46167 MEMB     58       PPPE     H7Y      HAL2     0.900000E-01   1.00800           0
     46168 MEMB     58       PPPE     C38      CTL2    -0.180000       12.0110           0
     46169 MEMB     58       PPPE     H8X      HAL2     0.900000E-01   1.00800           0
     46170 MEMB     58       PPPE     H8Y      HAL2     0.900000E-01   1.00800           0
     46171 MEMB     58       PPPE     C39      CTL2    -0.180000       12.0110           0
     46172 MEMB     58       PPPE     H9X      HAL2     0.900000E-01   1.00800           0
     46173 MEMB     58       PPPE     H9Y      HAL2     0.900000E-01   1.00800           0
     46174 MEMB     58       PPPE     C310     CTL2    -0.180000       12.0110           0
     46175 MEMB     58       PPPE     H10X     HAL2     0.900000E-01   1.00800           0
     46176 MEMB     58       PPPE     H10Y     HAL2     0.900000E-01   1.00800           0
     46177 MEMB     58       PPPE     C311     CTL2    -0.180000       12.0110           0
     46178 MEMB     58       PPPE     H11X     HAL2     0.900000E-01   1.00800           0
     46179 MEMB     58       PPPE     H11Y     HAL2     0.900000E-01   1.00800           0
     46180 MEMB     58       PPPE     C312     CTL2    -0.180000       12.0110           0
     46181 MEMB     58       PPPE     H12X     HAL2     0.900000E-01   1.00800           0
     46182 MEMB     58       PPPE     H12Y     HAL2     0.900000E-01   1.00800           0
     46183 MEMB     58       PPPE     C313     CTL2    -0.180000       12.0110           0
     46184 MEMB     58       PPPE     H13X     HAL2     0.900000E-01   1.00800           0
     46185 MEMB     58       PPPE     H13Y     HAL2     0.900000E-01   1.00800           0
     46186 MEMB     58       PPPE     C314     CTL2    -0.180000       12.0110           0
     46187 MEMB     58       PPPE     H14X     HAL2     0.900000E-01   1.00800           0
     46188 MEMB     58       PPPE     H14Y     HAL2     0.900000E-01   1.00800           0
     46189 MEMB     58       PPPE     C315     CTL2    -0.180000       12.0110           0
     46190 MEMB     58       PPPE     H15X     HAL2     0.900000E-01   1.00800           0
     46191 MEMB     58       PPPE     H15Y     HAL2     0.900000E-01   1.00800           0
     46192 MEMB     58       PPPE     C316     CTL3    -0.270000       12.0110           0
     46193 MEMB     58       PPPE     H16X     HAL3     0.900000E-01   1.00800           0
     46194 MEMB     58       PPPE     H16Y     HAL3     0.900000E-01   1.00800           0
     46195 MEMB     58       PPPE     H16Z     HAL3     0.900000E-01   1.00800           0
     46196 MEMB     59       PVPG     C13      CTL2     0.500000E-01   12.0110           0
     46197 MEMB     59       PVPG     H13A     HAL2     0.900000E-01   1.00800           0
     46198 MEMB     59       PVPG     H13B     HAL2     0.900000E-01   1.00800           0
     46199 MEMB     59       PVPG     OC3      OHL     -0.650000       15.9994           0
     46200 MEMB     59       PVPG     HO3      HOL      0.420000       1.00800           0
     46201 MEMB     59       PVPG     C12      CTL1     0.140000       12.0110           0
     46202 MEMB     59       PVPG     H12A     HAL1     0.900000E-01   1.00800           0
     46203 MEMB     59       PVPG     OC2      OHL     -0.650000       15.9994           0
     46204 MEMB     59       PVPG     HO2      HOL      0.420000       1.00800           0
     46205 MEMB     59       PVPG     C11      CTL2    -0.800000E-01   12.0110           0
     46206 MEMB     59       PVPG     H11A     HAL2     0.900000E-01   1.00800           0
     46207 MEMB     59       PVPG     H11B     HAL2     0.900000E-01   1.00800           0
     46208 MEMB     59       PVPG     P        PL        1.50000       30.9740           0
     46209 MEMB     59       PVPG     O13      O2L     -0.780000       15.9994           0
     46210 MEMB     59       PVPG     O14      O2L     -0.780000       15.9994           0
     46211 MEMB     59       PVPG     O12      OSLP    -0.570000       15.9994           0
     46212 MEMB     59       PVPG     O11      OSLP    -0.570000       15.9994           0
     46213 MEMB     59       PVPG     C1       CTL2    -0.800000E-01   12.0110           0
     46214 MEMB     59       PVPG     HA       HAL2     0.900000E-01   1.00800           0
     46215 MEMB     59       PVPG     HB       HAL2     0.900000E-01   1.00800           0
     46216 MEMB     59       PVPG     C2       CTL1     0.170000       12.0110           0
     46217 MEMB     59       PVPG     HS       HAL1     0.900000E-01   1.00800           0
     46218 MEMB     59       PVPG     O21      OSL     -0.490000       15.9994           0
     46219 MEMB     59       PVPG     C21      CL       0.900000       12.0110           0
     46220 MEMB     59       PVPG     O22      OBL     -0.630000       15.9994           0
     46221 MEMB     59       PVPG     C22      CTL2    -0.220000       12.0110           0
     46222 MEMB     59       PVPG     H2R      HAL2     0.900000E-01   1.00800           0
     46223 MEMB     59       PVPG     H2S      HAL2     0.900000E-01   1.00800           0
     46224 MEMB     59       PVPG     C3       CTL2     0.800000E-01   12.0110           0
     46225 MEMB     59       PVPG     HX       HAL2     0.900000E-01   1.00800           0
     46226 MEMB     59       PVPG     HY       HAL2     0.900000E-01   1.00800           0
     46227 MEMB     59       PVPG     O31      OSL     -0.490000       15.9994           0
     46228 MEMB     59       PVPG     C31      CL       0.900000       12.0110           0
     46229 MEMB     59       PVPG     O32      OBL     -0.630000       15.9994           0
     46230 MEMB     59       PVPG     C32      CTL2    -0.220000       12.0110           0
     46231 MEMB     59       PVPG     H2X      HAL2     0.900000E-01   1.00800           0
     46232 MEMB     59       PVPG     H2Y      HAL2     0.900000E-01   1.00800           0
     46233 MEMB     59       PVPG     C23      CTL2    -0.180000       12.0110           0
     46234 MEMB     59       PVPG     H3R      HAL2     0.900000E-01   1.00800           0
     46235 MEMB     59       PVPG     H3S      HAL2     0.900000E-01   1.00800           0
     46236 MEMB     59       PVPG     C24      CTL2    -0.180000       12.0110           0
     46237 MEMB     59       PVPG     H4R      HAL2     0.900000E-01   1.00800           0
     46238 MEMB     59       PVPG     H4S      HAL2     0.900000E-01   1.00800           0
     46239 MEMB     59       PVPG     C25      CTL2    -0.180000       12.0110           0
     46240 MEMB     59       PVPG     H5R      HAL2     0.900000E-01   1.00800           0
     46241 MEMB     59       PVPG     H5S      HAL2     0.900000E-01   1.00800           0
     46242 MEMB     59       PVPG     C26      CTL2    -0.180000       12.0110           0
     46243 MEMB     59       PVPG     H6R      HAL2     0.900000E-01   1.00800           0
     46244 MEMB     59       PVPG     H6S      HAL2     0.900000E-01   1.00800           0
     46245 MEMB     59       PVPG     C27      CTL2    -0.180000       12.0110           0
     46246 MEMB     59       PVPG     H7R      HAL2     0.900000E-01   1.00800           0
     46247 MEMB     59       PVPG     H7S      HAL2     0.900000E-01   1.00800           0
     46248 MEMB     59       PVPG     C28      CTL2    -0.180000       12.0110           0
     46249 MEMB     59       PVPG     H8R      HAL2     0.900000E-01   1.00800           0
     46250 MEMB     59       PVPG     H8S      HAL2     0.900000E-01   1.00800           0
     46251 MEMB     59       PVPG     C29      CTL2    -0.180000       12.0110           0
     46252 MEMB     59       PVPG     H9R      HAL2     0.900000E-01   1.00800           0
     46253 MEMB     59       PVPG     H9S      HAL2     0.900000E-01   1.00800           0
     46254 MEMB     59       PVPG     C210     CTL2    -0.180000       12.0110           0
     46255 MEMB     59       PVPG     H10R     HAL2     0.900000E-01   1.00800           0
     46256 MEMB     59       PVPG     H10S     HAL2     0.900000E-01   1.00800           0
     46257 MEMB     59       PVPG     C211     CEL1    -0.150000       12.0110           0
     46258 MEMB     59       PVPG     H111     HEL1     0.150000       1.00800           0
     46259 MEMB     59       PVPG     C212     CEL1    -0.150000       12.0110           0
     46260 MEMB     59       PVPG     H121     HEL1     0.150000       1.00800           0
     46261 MEMB     59       PVPG     C213     CTL2    -0.180000       12.0110           0
     46262 MEMB     59       PVPG     H13R     HAL2     0.900000E-01   1.00800           0
     46263 MEMB     59       PVPG     H13S     HAL2     0.900000E-01   1.00800           0
     46264 MEMB     59       PVPG     C214     CTL2    -0.180000       12.0110           0
     46265 MEMB     59       PVPG     H14R     HAL2     0.900000E-01   1.00800           0
     46266 MEMB     59       PVPG     H14S     HAL2     0.900000E-01   1.00800           0
     46267 MEMB     59       PVPG     C215     CTL2    -0.180000       12.0110           0
     46268 MEMB     59       PVPG     H15R     HAL2     0.900000E-01   1.00800           0
     46269 MEMB     59       PVPG     H15S     HAL2     0.900000E-01   1.00800           0
     46270 MEMB     59       PVPG     C216     CTL2    -0.180000       12.0110           0
     46271 MEMB     59       PVPG     H16R     HAL2     0.900000E-01   1.00800           0
     46272 MEMB     59       PVPG     H16S     HAL2     0.900000E-01   1.00800           0
     46273 MEMB     59       PVPG     C217     CTL2    -0.180000       12.0110           0
     46274 MEMB     59       PVPG     H17R     HAL2     0.900000E-01   1.00800           0
     46275 MEMB     59       PVPG     H17S     HAL2     0.900000E-01   1.00800           0
     46276 MEMB     59       PVPG     C218     CTL3    -0.270000       12.0110           0
     46277 MEMB     59       PVPG     H18R     HAL3     0.900000E-01   1.00800           0
     46278 MEMB     59       PVPG     H18S     HAL3     0.900000E-01   1.00800           0
     46279 MEMB     59       PVPG     H18T     HAL3     0.900000E-01   1.00800           0
     46280 MEMB     59       PVPG     C33      CTL2    -0.180000       12.0110           0
     46281 MEMB     59       PVPG     H3X      HAL2     0.900000E-01   1.00800           0
     46282 MEMB     59       PVPG     H3Y      HAL2     0.900000E-01   1.00800           0
     46283 MEMB     59       PVPG     C34      CTL2    -0.180000       12.0110           0
     46284 MEMB     59       PVPG     H4X      HAL2     0.900000E-01   1.00800           0
     46285 MEMB     59       PVPG     H4Y      HAL2     0.900000E-01   1.00800           0
     46286 MEMB     59       PVPG     C35      CTL2    -0.180000       12.0110           0
     46287 MEMB     59       PVPG     H5X      HAL2     0.900000E-01   1.00800           0
     46288 MEMB     59       PVPG     H5Y      HAL2     0.900000E-01   1.00800           0
     46289 MEMB     59       PVPG     C36      CTL2    -0.180000       12.0110           0
     46290 MEMB     59       PVPG     H6X      HAL2     0.900000E-01   1.00800           0
     46291 MEMB     59       PVPG     H6Y      HAL2     0.900000E-01   1.00800           0
     46292 MEMB     59       PVPG     C37      CTL2    -0.180000       12.0110           0
     46293 MEMB     59       PVPG     H7X      HAL2     0.900000E-01   1.00800           0
     46294 MEMB     59       PVPG     H7Y      HAL2     0.900000E-01   1.00800           0
     46295 MEMB     59       PVPG     C38      CTL2    -0.180000       12.0110           0
     46296 MEMB     59       PVPG     H8X      HAL2     0.900000E-01   1.00800           0
     46297 MEMB     59       PVPG     H8Y      HAL2     0.900000E-01   1.00800           0
     46298 MEMB     59       PVPG     C39      CTL2    -0.180000       12.0110           0
     46299 MEMB     59       PVPG     H9X      HAL2     0.900000E-01   1.00800           0
     46300 MEMB     59       PVPG     H9Y      HAL2     0.900000E-01   1.00800           0
     46301 MEMB     59       PVPG     C310     CTL2    -0.180000       12.0110           0
     46302 MEMB     59       PVPG     H10X     HAL2     0.900000E-01   1.00800           0
     46303 MEMB     59       PVPG     H10Y     HAL2     0.900000E-01   1.00800           0
     46304 MEMB     59       PVPG     C311     CTL2    -0.180000       12.0110           0
     46305 MEMB     59       PVPG     H11X     HAL2     0.900000E-01   1.00800           0
     46306 MEMB     59       PVPG     H11Y     HAL2     0.900000E-01   1.00800           0
     46307 MEMB     59       PVPG     C312     CTL2    -0.180000       12.0110           0
     46308 MEMB     59       PVPG     H12X     HAL2     0.900000E-01   1.00800           0
     46309 MEMB     59       PVPG     H12Y     HAL2     0.900000E-01   1.00800           0
     46310 MEMB     59       PVPG     C313     CTL2    -0.180000       12.0110           0
     46311 MEMB     59       PVPG     H13X     HAL2     0.900000E-01   1.00800           0
     46312 MEMB     59       PVPG     H13Y     HAL2     0.900000E-01   1.00800           0
     46313 MEMB     59       PVPG     C314     CTL2    -0.180000       12.0110           0
     46314 MEMB     59       PVPG     H14X     HAL2     0.900000E-01   1.00800           0
     46315 MEMB     59       PVPG     H14Y     HAL2     0.900000E-01   1.00800           0
     46316 MEMB     59       PVPG     C315     CTL2    -0.180000       12.0110           0
     46317 MEMB     59       PVPG     H15X     HAL2     0.900000E-01   1.00800           0
     46318 MEMB     59       PVPG     H15Y     HAL2     0.900000E-01   1.00800           0
     46319 MEMB     59       PVPG     C316     CTL3    -0.270000       12.0110           0
     46320 MEMB     59       PVPG     H16X     HAL3     0.900000E-01   1.00800           0
     46321 MEMB     59       PVPG     H16Y     HAL3     0.900000E-01   1.00800           0
     46322 MEMB     59       PVPG     H16Z     HAL3     0.900000E-01   1.00800           0
     46323 MEMB     60       PPPE     N        NH3L    -0.300000       14.0070           0
     46324 MEMB     60       PPPE     HN1      HCL      0.330000       1.00800           0
     46325 MEMB     60       PPPE     HN2      HCL      0.330000       1.00800           0
     46326 MEMB     60       PPPE     HN3      HCL      0.330000       1.00800           0
     46327 MEMB     60       PPPE     C12      CTL2     0.130000       12.0110           0
     46328 MEMB     60       PPPE     H12A     HAL2     0.900000E-01   1.00800           0
     46329 MEMB     60       PPPE     H12B     HAL2     0.900000E-01   1.00800           0
     46330 MEMB     60       PPPE     C11      CTL2    -0.800000E-01   12.0110           0
     46331 MEMB     60       PPPE     H11A     HAL2     0.900000E-01   1.00800           0
     46332 MEMB     60       PPPE     H11B     HAL2     0.900000E-01   1.00800           0
     46333 MEMB     60       PPPE     P        PL        1.50000       30.9740           0
     46334 MEMB     60       PPPE     O13      O2L     -0.780000       15.9994           0
     46335 MEMB     60       PPPE     O14      O2L     -0.780000       15.9994           0
     46336 MEMB     60       PPPE     O11      OSLP    -0.570000       15.9994           0
     46337 MEMB     60       PPPE     O12      OSLP    -0.570000       15.9994           0
     46338 MEMB     60       PPPE     C1       CTL2    -0.800000E-01   12.0110           0
     46339 MEMB     60       PPPE     HA       HAL2     0.900000E-01   1.00800           0
     46340 MEMB     60       PPPE     HB       HAL2     0.900000E-01   1.00800           0
     46341 MEMB     60       PPPE     C2       CTL1     0.170000       12.0110           0
     46342 MEMB     60       PPPE     HS       HAL1     0.900000E-01   1.00800           0
     46343 MEMB     60       PPPE     O21      OSL     -0.490000       15.9994           0
     46344 MEMB     60       PPPE     C21      CL       0.900000       12.0110           0
     46345 MEMB     60       PPPE     O22      OBL     -0.630000       15.9994           0
     46346 MEMB     60       PPPE     C22      CTL2    -0.220000       12.0110           0
     46347 MEMB     60       PPPE     H2R      HAL2     0.900000E-01   1.00800           0
     46348 MEMB     60       PPPE     H2S      HAL2     0.900000E-01   1.00800           0
     46349 MEMB     60       PPPE     C3       CTL2     0.800000E-01   12.0110           0
     46350 MEMB     60       PPPE     HX       HAL2     0.900000E-01   1.00800           0
     46351 MEMB     60       PPPE     HY       HAL2     0.900000E-01   1.00800           0
     46352 MEMB     60       PPPE     O31      OSL     -0.490000       15.9994           0
     46353 MEMB     60       PPPE     C31      CL       0.900000       12.0110           0
     46354 MEMB     60       PPPE     O32      OBL     -0.630000       15.9994           0
     46355 MEMB     60       PPPE     C32      CTL2    -0.220000       12.0110           0
     46356 MEMB     60       PPPE     H2X      HAL2     0.900000E-01   1.00800           0
     46357 MEMB     60       PPPE     H2Y      HAL2     0.900000E-01   1.00800           0
     46358 MEMB     60       PPPE     C23      CTL2    -0.180000       12.0110           0
     46359 MEMB     60       PPPE     H3R      HAL2     0.900000E-01   1.00800           0
     46360 MEMB     60       PPPE     H3S      HAL2     0.900000E-01   1.00800           0
     46361 MEMB     60       PPPE     C24      CTL2    -0.180000       12.0110           0
     46362 MEMB     60       PPPE     H4R      HAL2     0.900000E-01   1.00800           0
     46363 MEMB     60       PPPE     H4S      HAL2     0.900000E-01   1.00800           0
     46364 MEMB     60       PPPE     C25      CTL2    -0.180000       12.0110           0
     46365 MEMB     60       PPPE     H5R      HAL2     0.900000E-01   1.00800           0
     46366 MEMB     60       PPPE     H5S      HAL2     0.900000E-01   1.00800           0
     46367 MEMB     60       PPPE     C26      CTL2    -0.180000       12.0110           0
     46368 MEMB     60       PPPE     H6R      HAL2     0.900000E-01   1.00800           0
     46369 MEMB     60       PPPE     H6S      HAL2     0.900000E-01   1.00800           0
     46370 MEMB     60       PPPE     C27      CTL2    -0.180000       12.0110           0
     46371 MEMB     60       PPPE     H7R      HAL2     0.900000E-01   1.00800           0
     46372 MEMB     60       PPPE     H7S      HAL2     0.900000E-01   1.00800           0
     46373 MEMB     60       PPPE     C28      CTL2    -0.180000       12.0110           0
     46374 MEMB     60       PPPE     H8R      HAL2     0.900000E-01   1.00800           0
     46375 MEMB     60       PPPE     H8S      HAL2     0.900000E-01   1.00800           0
     46376 MEMB     60       PPPE     C29      CEL1    -0.150000       12.0110           0
     46377 MEMB     60       PPPE     H91      HEL1     0.150000       1.00800           0
     46378 MEMB     60       PPPE     C210     CEL1    -0.150000       12.0110           0
     46379 MEMB     60       PPPE     H101     HEL1     0.150000       1.00800           0
     46380 MEMB     60       PPPE     C211     CTL2    -0.180000       12.0110           0
     46381 MEMB     60       PPPE     H11R     HAL2     0.900000E-01   1.00800           0
     46382 MEMB     60       PPPE     H11S     HAL2     0.900000E-01   1.00800           0
     46383 MEMB     60       PPPE     C212     CTL2    -0.180000       12.0110           0
     46384 MEMB     60       PPPE     H12R     HAL2     0.900000E-01   1.00800           0
     46385 MEMB     60       PPPE     H12S     HAL2     0.900000E-01   1.00800           0
     46386 MEMB     60       PPPE     C213     CTL2    -0.180000       12.0110           0
     46387 MEMB     60       PPPE     H13R     HAL2     0.900000E-01   1.00800           0
     46388 MEMB     60       PPPE     H13S     HAL2     0.900000E-01   1.00800           0
     46389 MEMB     60       PPPE     C214     CTL2    -0.180000       12.0110           0
     46390 MEMB     60       PPPE     H14R     HAL2     0.900000E-01   1.00800           0
     46391 MEMB     60       PPPE     H14S     HAL2     0.900000E-01   1.00800           0
     46392 MEMB     60       PPPE     C215     CTL2    -0.180000       12.0110           0
     46393 MEMB     60       PPPE     H15R     HAL2     0.900000E-01   1.00800           0
     46394 MEMB     60       PPPE     H15S     HAL2     0.900000E-01   1.00800           0
     46395 MEMB     60       PPPE     C216     CTL3    -0.270000       12.0110           0
     46396 MEMB     60       PPPE     H16R     HAL3     0.900000E-01   1.00800           0
     46397 MEMB     60       PPPE     H16S     HAL3     0.900000E-01   1.00800           0
     46398 MEMB     60       PPPE     H16T     HAL3     0.900000E-01   1.00800           0
     46399 MEMB     60       PPPE     C33      CTL2    -0.180000       12.0110           0
     46400 MEMB     60       PPPE     H3X      HAL2     0.900000E-01   1.00800           0
     46401 MEMB     60       PPPE     H3Y      HAL2     0.900000E-01   1.00800           0
     46402 MEMB     60       PPPE     C34      CTL2    -0.180000       12.0110           0
     46403 MEMB     60       PPPE     H4X      HAL2     0.900000E-01   1.00800           0
     46404 MEMB     60       PPPE     H4Y      HAL2     0.900000E-01   1.00800           0
     46405 MEMB     60       PPPE     C35      CTL2    -0.180000       12.0110           0
     46406 MEMB     60       PPPE     H5X      HAL2     0.900000E-01   1.00800           0
     46407 MEMB     60       PPPE     H5Y      HAL2     0.900000E-01   1.00800           0
     46408 MEMB     60       PPPE     C36      CTL2    -0.180000       12.0110           0
     46409 MEMB     60       PPPE     H6X      HAL2     0.900000E-01   1.00800           0
     46410 MEMB     60       PPPE     H6Y      HAL2     0.900000E-01   1.00800           0
     46411 MEMB     60       PPPE     C37      CTL2    -0.180000       12.0110           0
     46412 MEMB     60       PPPE     H7X      HAL2     0.900000E-01   1.00800           0
     46413 MEMB     60       PPPE     H7Y      HAL2     0.900000E-01   1.00800           0
     46414 MEMB     60       PPPE     C38      CTL2    -0.180000       12.0110           0
     46415 MEMB     60       PPPE     H8X      HAL2     0.900000E-01   1.00800           0
     46416 MEMB     60       PPPE     H8Y      HAL2     0.900000E-01   1.00800           0
     46417 MEMB     60       PPPE     C39      CTL2    -0.180000       12.0110           0
     46418 MEMB     60       PPPE     H9X      HAL2     0.900000E-01   1.00800           0
     46419 MEMB     60       PPPE     H9Y      HAL2     0.900000E-01   1.00800           0
     46420 MEMB     60       PPPE     C310     CTL2    -0.180000       12.0110           0
     46421 MEMB     60       PPPE     H10X     HAL2     0.900000E-01   1.00800           0
     46422 MEMB     60       PPPE     H10Y     HAL2     0.900000E-01   1.00800           0
     46423 MEMB     60       PPPE     C311     CTL2    -0.180000       12.0110           0
     46424 MEMB     60       PPPE     H11X     HAL2     0.900000E-01   1.00800           0
     46425 MEMB     60       PPPE     H11Y     HAL2     0.900000E-01   1.00800           0
     46426 MEMB     60       PPPE     C312     CTL2    -0.180000       12.0110           0
     46427 MEMB     60       PPPE     H12X     HAL2     0.900000E-01   1.00800           0
     46428 MEMB     60       PPPE     H12Y     HAL2     0.900000E-01   1.00800           0
     46429 MEMB     60       PPPE     C313     CTL2    -0.180000       12.0110           0
     46430 MEMB     60       PPPE     H13X     HAL2     0.900000E-01   1.00800           0
     46431 MEMB     60       PPPE     H13Y     HAL2     0.900000E-01   1.00800           0
     46432 MEMB     60       PPPE     C314     CTL2    -0.180000       12.0110           0
     46433 MEMB     60       PPPE     H14X     HAL2     0.900000E-01   1.00800           0
     46434 MEMB     60       PPPE     H14Y     HAL2     0.900000E-01   1.00800           0
     46435 MEMB     60       PPPE     C315     CTL2    -0.180000       12.0110           0
     46436 MEMB     60       PPPE     H15X     HAL2     0.900000E-01   1.00800           0
     46437 MEMB     60       PPPE     H15Y     HAL2     0.900000E-01   1.00800           0
     46438 MEMB     60       PPPE     C316     CTL3    -0.270000       12.0110           0
     46439 MEMB     60       PPPE     H16X     HAL3     0.900000E-01   1.00800           0
     46440 MEMB     60       PPPE     H16Y     HAL3     0.900000E-01   1.00800           0
     46441 MEMB     60       PPPE     H16Z     HAL3     0.900000E-01   1.00800           0
     46442 MEMB     61       PPPE     N        NH3L    -0.300000       14.0070           0
     46443 MEMB     61       PPPE     HN1      HCL      0.330000       1.00800           0
     46444 MEMB     61       PPPE     HN2      HCL      0.330000       1.00800           0
     46445 MEMB     61       PPPE     HN3      HCL      0.330000       1.00800           0
     46446 MEMB     61       PPPE     C12      CTL2     0.130000       12.0110           0
     46447 MEMB     61       PPPE     H12A     HAL2     0.900000E-01   1.00800           0
     46448 MEMB     61       PPPE     H12B     HAL2     0.900000E-01   1.00800           0
     46449 MEMB     61       PPPE     C11      CTL2    -0.800000E-01   12.0110           0
     46450 MEMB     61       PPPE     H11A     HAL2     0.900000E-01   1.00800           0
     46451 MEMB     61       PPPE     H11B     HAL2     0.900000E-01   1.00800           0
     46452 MEMB     61       PPPE     P        PL        1.50000       30.9740           0
     46453 MEMB     61       PPPE     O13      O2L     -0.780000       15.9994           0
     46454 MEMB     61       PPPE     O14      O2L     -0.780000       15.9994           0
     46455 MEMB     61       PPPE     O11      OSLP    -0.570000       15.9994           0
     46456 MEMB     61       PPPE     O12      OSLP    -0.570000       15.9994           0
     46457 MEMB     61       PPPE     C1       CTL2    -0.800000E-01   12.0110           0
     46458 MEMB     61       PPPE     HA       HAL2     0.900000E-01   1.00800           0
     46459 MEMB     61       PPPE     HB       HAL2     0.900000E-01   1.00800           0
     46460 MEMB     61       PPPE     C2       CTL1     0.170000       12.0110           0
     46461 MEMB     61       PPPE     HS       HAL1     0.900000E-01   1.00800           0
     46462 MEMB     61       PPPE     O21      OSL     -0.490000       15.9994           0
     46463 MEMB     61       PPPE     C21      CL       0.900000       12.0110           0
     46464 MEMB     61       PPPE     O22      OBL     -0.630000       15.9994           0
     46465 MEMB     61       PPPE     C22      CTL2    -0.220000       12.0110           0
     46466 MEMB     61       PPPE     H2R      HAL2     0.900000E-01   1.00800           0
     46467 MEMB     61       PPPE     H2S      HAL2     0.900000E-01   1.00800           0
     46468 MEMB     61       PPPE     C3       CTL2     0.800000E-01   12.0110           0
     46469 MEMB     61       PPPE     HX       HAL2     0.900000E-01   1.00800           0
     46470 MEMB     61       PPPE     HY       HAL2     0.900000E-01   1.00800           0
     46471 MEMB     61       PPPE     O31      OSL     -0.490000       15.9994           0
     46472 MEMB     61       PPPE     C31      CL       0.900000       12.0110           0
     46473 MEMB     61       PPPE     O32      OBL     -0.630000       15.9994           0
     46474 MEMB     61       PPPE     C32      CTL2    -0.220000       12.0110           0
     46475 MEMB     61       PPPE     H2X      HAL2     0.900000E-01   1.00800           0
     46476 MEMB     61       PPPE     H2Y      HAL2     0.900000E-01   1.00800           0
     46477 MEMB     61       PPPE     C23      CTL2    -0.180000       12.0110           0
     46478 MEMB     61       PPPE     H3R      HAL2     0.900000E-01   1.00800           0
     46479 MEMB     61       PPPE     H3S      HAL2     0.900000E-01   1.00800           0
     46480 MEMB     61       PPPE     C24      CTL2    -0.180000       12.0110           0
     46481 MEMB     61       PPPE     H4R      HAL2     0.900000E-01   1.00800           0
     46482 MEMB     61       PPPE     H4S      HAL2     0.900000E-01   1.00800           0
     46483 MEMB     61       PPPE     C25      CTL2    -0.180000       12.0110           0
     46484 MEMB     61       PPPE     H5R      HAL2     0.900000E-01   1.00800           0
     46485 MEMB     61       PPPE     H5S      HAL2     0.900000E-01   1.00800           0
     46486 MEMB     61       PPPE     C26      CTL2    -0.180000       12.0110           0
     46487 MEMB     61       PPPE     H6R      HAL2     0.900000E-01   1.00800           0
     46488 MEMB     61       PPPE     H6S      HAL2     0.900000E-01   1.00800           0
     46489 MEMB     61       PPPE     C27      CTL2    -0.180000       12.0110           0
     46490 MEMB     61       PPPE     H7R      HAL2     0.900000E-01   1.00800           0
     46491 MEMB     61       PPPE     H7S      HAL2     0.900000E-01   1.00800           0
     46492 MEMB     61       PPPE     C28      CTL2    -0.180000       12.0110           0
     46493 MEMB     61       PPPE     H8R      HAL2     0.900000E-01   1.00800           0
     46494 MEMB     61       PPPE     H8S      HAL2     0.900000E-01   1.00800           0
     46495 MEMB     61       PPPE     C29      CEL1    -0.150000       12.0110           0
     46496 MEMB     61       PPPE     H91      HEL1     0.150000       1.00800           0
     46497 MEMB     61       PPPE     C210     CEL1    -0.150000       12.0110           0
     46498 MEMB     61       PPPE     H101     HEL1     0.150000       1.00800           0
     46499 MEMB     61       PPPE     C211     CTL2    -0.180000       12.0110           0
     46500 MEMB     61       PPPE     H11R     HAL2     0.900000E-01   1.00800           0
     46501 MEMB     61       PPPE     H11S     HAL2     0.900000E-01   1.00800           0
     46502 MEMB     61       PPPE     C212     CTL2    -0.180000       12.0110           0
     46503 MEMB     61       PPPE     H12R     HAL2     0.900000E-01   1.00800           0
     46504 MEMB     61       PPPE     H12S     HAL2     0.900000E-01   1.00800           0
     46505 MEMB     61       PPPE     C213     CTL2    -0.180000       12.0110           0
     46506 MEMB     61       PPPE     H13R     HAL2     0.900000E-01   1.00800           0
     46507 MEMB     61       PPPE     H13S     HAL2     0.900000E-01   1.00800           0
     46508 MEMB     61       PPPE     C214     CTL2    -0.180000       12.0110           0
     46509 MEMB     61       PPPE     H14R     HAL2     0.900000E-01   1.00800           0
     46510 MEMB     61       PPPE     H14S     HAL2     0.900000E-01   1.00800           0
     46511 MEMB     61       PPPE     C215     CTL2    -0.180000       12.0110           0
     46512 MEMB     61       PPPE     H15R     HAL2     0.900000E-01   1.00800           0
     46513 MEMB     61       PPPE     H15S     HAL2     0.900000E-01   1.00800           0
     46514 MEMB     61       PPPE     C216     CTL3    -0.270000       12.0110           0
     46515 MEMB     61       PPPE     H16R     HAL3     0.900000E-01   1.00800           0
     46516 MEMB     61       PPPE     H16S     HAL3     0.900000E-01   1.00800           0
     46517 MEMB     61       PPPE     H16T     HAL3     0.900000E-01   1.00800           0
     46518 MEMB     61       PPPE     C33      CTL2    -0.180000       12.0110           0
     46519 MEMB     61       PPPE     H3X      HAL2     0.900000E-01   1.00800           0
     46520 MEMB     61       PPPE     H3Y      HAL2     0.900000E-01   1.00800           0
     46521 MEMB     61       PPPE     C34      CTL2    -0.180000       12.0110           0
     46522 MEMB     61       PPPE     H4X      HAL2     0.900000E-01   1.00800           0
     46523 MEMB     61       PPPE     H4Y      HAL2     0.900000E-01   1.00800           0
     46524 MEMB     61       PPPE     C35      CTL2    -0.180000       12.0110           0
     46525 MEMB     61       PPPE     H5X      HAL2     0.900000E-01   1.00800           0
     46526 MEMB     61       PPPE     H5Y      HAL2     0.900000E-01   1.00800           0
     46527 MEMB     61       PPPE     C36      CTL2    -0.180000       12.0110           0
     46528 MEMB     61       PPPE     H6X      HAL2     0.900000E-01   1.00800           0
     46529 MEMB     61       PPPE     H6Y      HAL2     0.900000E-01   1.00800           0
     46530 MEMB     61       PPPE     C37      CTL2    -0.180000       12.0110           0
     46531 MEMB     61       PPPE     H7X      HAL2     0.900000E-01   1.00800           0
     46532 MEMB     61       PPPE     H7Y      HAL2     0.900000E-01   1.00800           0
     46533 MEMB     61       PPPE     C38      CTL2    -0.180000       12.0110           0
     46534 MEMB     61       PPPE     H8X      HAL2     0.900000E-01   1.00800           0
     46535 MEMB     61       PPPE     H8Y      HAL2     0.900000E-01   1.00800           0
     46536 MEMB     61       PPPE     C39      CTL2    -0.180000       12.0110           0
     46537 MEMB     61       PPPE     H9X      HAL2     0.900000E-01   1.00800           0
     46538 MEMB     61       PPPE     H9Y      HAL2     0.900000E-01   1.00800           0
     46539 MEMB     61       PPPE     C310     CTL2    -0.180000       12.0110           0
     46540 MEMB     61       PPPE     H10X     HAL2     0.900000E-01   1.00800           0
     46541 MEMB     61       PPPE     H10Y     HAL2     0.900000E-01   1.00800           0
     46542 MEMB     61       PPPE     C311     CTL2    -0.180000       12.0110           0
     46543 MEMB     61       PPPE     H11X     HAL2     0.900000E-01   1.00800           0
     46544 MEMB     61       PPPE     H11Y     HAL2     0.900000E-01   1.00800           0
     46545 MEMB     61       PPPE     C312     CTL2    -0.180000       12.0110           0
     46546 MEMB     61       PPPE     H12X     HAL2     0.900000E-01   1.00800           0
     46547 MEMB     61       PPPE     H12Y     HAL2     0.900000E-01   1.00800           0
     46548 MEMB     61       PPPE     C313     CTL2    -0.180000       12.0110           0
     46549 MEMB     61       PPPE     H13X     HAL2     0.900000E-01   1.00800           0
     46550 MEMB     61       PPPE     H13Y     HAL2     0.900000E-01   1.00800           0
     46551 MEMB     61       PPPE     C314     CTL2    -0.180000       12.0110           0
     46552 MEMB     61       PPPE     H14X     HAL2     0.900000E-01   1.00800           0
     46553 MEMB     61       PPPE     H14Y     HAL2     0.900000E-01   1.00800           0
     46554 MEMB     61       PPPE     C315     CTL2    -0.180000       12.0110           0
     46555 MEMB     61       PPPE     H15X     HAL2     0.900000E-01   1.00800           0
     46556 MEMB     61       PPPE     H15Y     HAL2     0.900000E-01   1.00800           0
     46557 MEMB     61       PPPE     C316     CTL3    -0.270000       12.0110           0
     46558 MEMB     61       PPPE     H16X     HAL3     0.900000E-01   1.00800           0
     46559 MEMB     61       PPPE     H16Y     HAL3     0.900000E-01   1.00800           0
     46560 MEMB     61       PPPE     H16Z     HAL3     0.900000E-01   1.00800           0
     46561 MEMB     62       PPPE     N        NH3L    -0.300000       14.0070           0
     46562 MEMB     62       PPPE     HN1      HCL      0.330000       1.00800           0
     46563 MEMB     62       PPPE     HN2      HCL      0.330000       1.00800           0
     46564 MEMB     62       PPPE     HN3      HCL      0.330000       1.00800           0
     46565 MEMB     62       PPPE     C12      CTL2     0.130000       12.0110           0
     46566 MEMB     62       PPPE     H12A     HAL2     0.900000E-01   1.00800           0
     46567 MEMB     62       PPPE     H12B     HAL2     0.900000E-01   1.00800           0
     46568 MEMB     62       PPPE     C11      CTL2    -0.800000E-01   12.0110           0
     46569 MEMB     62       PPPE     H11A     HAL2     0.900000E-01   1.00800           0
     46570 MEMB     62       PPPE     H11B     HAL2     0.900000E-01   1.00800           0
     46571 MEMB     62       PPPE     P        PL        1.50000       30.9740           0
     46572 MEMB     62       PPPE     O13      O2L     -0.780000       15.9994           0
     46573 MEMB     62       PPPE     O14      O2L     -0.780000       15.9994           0
     46574 MEMB     62       PPPE     O11      OSLP    -0.570000       15.9994           0
     46575 MEMB     62       PPPE     O12      OSLP    -0.570000       15.9994           0
     46576 MEMB     62       PPPE     C1       CTL2    -0.800000E-01   12.0110           0
     46577 MEMB     62       PPPE     HA       HAL2     0.900000E-01   1.00800           0
     46578 MEMB     62       PPPE     HB       HAL2     0.900000E-01   1.00800           0
     46579 MEMB     62       PPPE     C2       CTL1     0.170000       12.0110           0
     46580 MEMB     62       PPPE     HS       HAL1     0.900000E-01   1.00800           0
     46581 MEMB     62       PPPE     O21      OSL     -0.490000       15.9994           0
     46582 MEMB     62       PPPE     C21      CL       0.900000       12.0110           0
     46583 MEMB     62       PPPE     O22      OBL     -0.630000       15.9994           0
     46584 MEMB     62       PPPE     C22      CTL2    -0.220000       12.0110           0
     46585 MEMB     62       PPPE     H2R      HAL2     0.900000E-01   1.00800           0
     46586 MEMB     62       PPPE     H2S      HAL2     0.900000E-01   1.00800           0
     46587 MEMB     62       PPPE     C3       CTL2     0.800000E-01   12.0110           0
     46588 MEMB     62       PPPE     HX       HAL2     0.900000E-01   1.00800           0
     46589 MEMB     62       PPPE     HY       HAL2     0.900000E-01   1.00800           0
     46590 MEMB     62       PPPE     O31      OSL     -0.490000       15.9994           0
     46591 MEMB     62       PPPE     C31      CL       0.900000       12.0110           0
     46592 MEMB     62       PPPE     O32      OBL     -0.630000       15.9994           0
     46593 MEMB     62       PPPE     C32      CTL2    -0.220000       12.0110           0
     46594 MEMB     62       PPPE     H2X      HAL2     0.900000E-01   1.00800           0
     46595 MEMB     62       PPPE     H2Y      HAL2     0.900000E-01   1.00800           0
     46596 MEMB     62       PPPE     C23      CTL2    -0.180000       12.0110           0
     46597 MEMB     62       PPPE     H3R      HAL2     0.900000E-01   1.00800           0
     46598 MEMB     62       PPPE     H3S      HAL2     0.900000E-01   1.00800           0
     46599 MEMB     62       PPPE     C24      CTL2    -0.180000       12.0110           0
     46600 MEMB     62       PPPE     H4R      HAL2     0.900000E-01   1.00800           0
     46601 MEMB     62       PPPE     H4S      HAL2     0.900000E-01   1.00800           0
     46602 MEMB     62       PPPE     C25      CTL2    -0.180000       12.0110           0
     46603 MEMB     62       PPPE     H5R      HAL2     0.900000E-01   1.00800           0
     46604 MEMB     62       PPPE     H5S      HAL2     0.900000E-01   1.00800           0
     46605 MEMB     62       PPPE     C26      CTL2    -0.180000       12.0110           0
     46606 MEMB     62       PPPE     H6R      HAL2     0.900000E-01   1.00800           0
     46607 MEMB     62       PPPE     H6S      HAL2     0.900000E-01   1.00800           0
     46608 MEMB     62       PPPE     C27      CTL2    -0.180000       12.0110           0
     46609 MEMB     62       PPPE     H7R      HAL2     0.900000E-01   1.00800           0
     46610 MEMB     62       PPPE     H7S      HAL2     0.900000E-01   1.00800           0
     46611 MEMB     62       PPPE     C28      CTL2    -0.180000       12.0110           0
     46612 MEMB     62       PPPE     H8R      HAL2     0.900000E-01   1.00800           0
     46613 MEMB     62       PPPE     H8S      HAL2     0.900000E-01   1.00800           0
     46614 MEMB     62       PPPE     C29      CEL1    -0.150000       12.0110           0
     46615 MEMB     62       PPPE     H91      HEL1     0.150000       1.00800           0
     46616 MEMB     62       PPPE     C210     CEL1    -0.150000       12.0110           0
     46617 MEMB     62       PPPE     H101     HEL1     0.150000       1.00800           0
     46618 MEMB     62       PPPE     C211     CTL2    -0.180000       12.0110           0
     46619 MEMB     62       PPPE     H11R     HAL2     0.900000E-01   1.00800           0
     46620 MEMB     62       PPPE     H11S     HAL2     0.900000E-01   1.00800           0
     46621 MEMB     62       PPPE     C212     CTL2    -0.180000       12.0110           0
     46622 MEMB     62       PPPE     H12R     HAL2     0.900000E-01   1.00800           0
     46623 MEMB     62       PPPE     H12S     HAL2     0.900000E-01   1.00800           0
     46624 MEMB     62       PPPE     C213     CTL2    -0.180000       12.0110           0
     46625 MEMB     62       PPPE     H13R     HAL2     0.900000E-01   1.00800           0
     46626 MEMB     62       PPPE     H13S     HAL2     0.900000E-01   1.00800           0
     46627 MEMB     62       PPPE     C214     CTL2    -0.180000       12.0110           0
     46628 MEMB     62       PPPE     H14R     HAL2     0.900000E-01   1.00800           0
     46629 MEMB     62       PPPE     H14S     HAL2     0.900000E-01   1.00800           0
     46630 MEMB     62       PPPE     C215     CTL2    -0.180000       12.0110           0
     46631 MEMB     62       PPPE     H15R     HAL2     0.900000E-01   1.00800           0
     46632 MEMB     62       PPPE     H15S     HAL2     0.900000E-01   1.00800           0
     46633 MEMB     62       PPPE     C216     CTL3    -0.270000       12.0110           0
     46634 MEMB     62       PPPE     H16R     HAL3     0.900000E-01   1.00800           0
     46635 MEMB     62       PPPE     H16S     HAL3     0.900000E-01   1.00800           0
     46636 MEMB     62       PPPE     H16T     HAL3     0.900000E-01   1.00800           0
     46637 MEMB     62       PPPE     C33      CTL2    -0.180000       12.0110           0
     46638 MEMB     62       PPPE     H3X      HAL2     0.900000E-01   1.00800           0
     46639 MEMB     62       PPPE     H3Y      HAL2     0.900000E-01   1.00800           0
     46640 MEMB     62       PPPE     C34      CTL2    -0.180000       12.0110           0
     46641 MEMB     62       PPPE     H4X      HAL2     0.900000E-01   1.00800           0
     46642 MEMB     62       PPPE     H4Y      HAL2     0.900000E-01   1.00800           0
     46643 MEMB     62       PPPE     C35      CTL2    -0.180000       12.0110           0
     46644 MEMB     62       PPPE     H5X      HAL2     0.900000E-01   1.00800           0
     46645 MEMB     62       PPPE     H5Y      HAL2     0.900000E-01   1.00800           0
     46646 MEMB     62       PPPE     C36      CTL2    -0.180000       12.0110           0
     46647 MEMB     62       PPPE     H6X      HAL2     0.900000E-01   1.00800           0
     46648 MEMB     62       PPPE     H6Y      HAL2     0.900000E-01   1.00800           0
     46649 MEMB     62       PPPE     C37      CTL2    -0.180000       12.0110           0
     46650 MEMB     62       PPPE     H7X      HAL2     0.900000E-01   1.00800           0
     46651 MEMB     62       PPPE     H7Y      HAL2     0.900000E-01   1.00800           0
     46652 MEMB     62       PPPE     C38      CTL2    -0.180000       12.0110           0
     46653 MEMB     62       PPPE     H8X      HAL2     0.900000E-01   1.00800           0
     46654 MEMB     62       PPPE     H8Y      HAL2     0.900000E-01   1.00800           0
     46655 MEMB     62       PPPE     C39      CTL2    -0.180000       12.0110           0
     46656 MEMB     62       PPPE     H9X      HAL2     0.900000E-01   1.00800           0
     46657 MEMB     62       PPPE     H9Y      HAL2     0.900000E-01   1.00800           0
     46658 MEMB     62       PPPE     C310     CTL2    -0.180000       12.0110           0
     46659 MEMB     62       PPPE     H10X     HAL2     0.900000E-01   1.00800           0
     46660 MEMB     62       PPPE     H10Y     HAL2     0.900000E-01   1.00800           0
     46661 MEMB     62       PPPE     C311     CTL2    -0.180000       12.0110           0
     46662 MEMB     62       PPPE     H11X     HAL2     0.900000E-01   1.00800           0
     46663 MEMB     62       PPPE     H11Y     HAL2     0.900000E-01   1.00800           0
     46664 MEMB     62       PPPE     C312     CTL2    -0.180000       12.0110           0
     46665 MEMB     62       PPPE     H12X     HAL2     0.900000E-01   1.00800           0
     46666 MEMB     62       PPPE     H12Y     HAL2     0.900000E-01   1.00800           0
     46667 MEMB     62       PPPE     C313     CTL2    -0.180000       12.0110           0
     46668 MEMB     62       PPPE     H13X     HAL2     0.900000E-01   1.00800           0
     46669 MEMB     62       PPPE     H13Y     HAL2     0.900000E-01   1.00800           0
     46670 MEMB     62       PPPE     C314     CTL2    -0.180000       12.0110           0
     46671 MEMB     62       PPPE     H14X     HAL2     0.900000E-01   1.00800           0
     46672 MEMB     62       PPPE     H14Y     HAL2     0.900000E-01   1.00800           0
     46673 MEMB     62       PPPE     C315     CTL2    -0.180000       12.0110           0
     46674 MEMB     62       PPPE     H15X     HAL2     0.900000E-01   1.00800           0
     46675 MEMB     62       PPPE     H15Y     HAL2     0.900000E-01   1.00800           0
     46676 MEMB     62       PPPE     C316     CTL3    -0.270000       12.0110           0
     46677 MEMB     62       PPPE     H16X     HAL3     0.900000E-01   1.00800           0
     46678 MEMB     62       PPPE     H16Y     HAL3     0.900000E-01   1.00800           0
     46679 MEMB     62       PPPE     H16Z     HAL3     0.900000E-01   1.00800           0
     46680 MEMB     63       PPPE     N        NH3L    -0.300000       14.0070           0
     46681 MEMB     63       PPPE     HN1      HCL      0.330000       1.00800           0
     46682 MEMB     63       PPPE     HN2      HCL      0.330000       1.00800           0
     46683 MEMB     63       PPPE     HN3      HCL      0.330000       1.00800           0
     46684 MEMB     63       PPPE     C12      CTL2     0.130000       12.0110           0
     46685 MEMB     63       PPPE     H12A     HAL2     0.900000E-01   1.00800           0
     46686 MEMB     63       PPPE     H12B     HAL2     0.900000E-01   1.00800           0
     46687 MEMB     63       PPPE     C11      CTL2    -0.800000E-01   12.0110           0
     46688 MEMB     63       PPPE     H11A     HAL2     0.900000E-01   1.00800           0
     46689 MEMB     63       PPPE     H11B     HAL2     0.900000E-01   1.00800           0
     46690 MEMB     63       PPPE     P        PL        1.50000       30.9740           0
     46691 MEMB     63       PPPE     O13      O2L     -0.780000       15.9994           0
     46692 MEMB     63       PPPE     O14      O2L     -0.780000       15.9994           0
     46693 MEMB     63       PPPE     O11      OSLP    -0.570000       15.9994           0
     46694 MEMB     63       PPPE     O12      OSLP    -0.570000       15.9994           0
     46695 MEMB     63       PPPE     C1       CTL2    -0.800000E-01   12.0110           0
     46696 MEMB     63       PPPE     HA       HAL2     0.900000E-01   1.00800           0
     46697 MEMB     63       PPPE     HB       HAL2     0.900000E-01   1.00800           0
     46698 MEMB     63       PPPE     C2       CTL1     0.170000       12.0110           0
     46699 MEMB     63       PPPE     HS       HAL1     0.900000E-01   1.00800           0
     46700 MEMB     63       PPPE     O21      OSL     -0.490000       15.9994           0
     46701 MEMB     63       PPPE     C21      CL       0.900000       12.0110           0
     46702 MEMB     63       PPPE     O22      OBL     -0.630000       15.9994           0
     46703 MEMB     63       PPPE     C22      CTL2    -0.220000       12.0110           0
     46704 MEMB     63       PPPE     H2R      HAL2     0.900000E-01   1.00800           0
     46705 MEMB     63       PPPE     H2S      HAL2     0.900000E-01   1.00800           0
     46706 MEMB     63       PPPE     C3       CTL2     0.800000E-01   12.0110           0
     46707 MEMB     63       PPPE     HX       HAL2     0.900000E-01   1.00800           0
     46708 MEMB     63       PPPE     HY       HAL2     0.900000E-01   1.00800           0
     46709 MEMB     63       PPPE     O31      OSL     -0.490000       15.9994           0
     46710 MEMB     63       PPPE     C31      CL       0.900000       12.0110           0
     46711 MEMB     63       PPPE     O32      OBL     -0.630000       15.9994           0
     46712 MEMB     63       PPPE     C32      CTL2    -0.220000       12.0110           0
     46713 MEMB     63       PPPE     H2X      HAL2     0.900000E-01   1.00800           0
     46714 MEMB     63       PPPE     H2Y      HAL2     0.900000E-01   1.00800           0
     46715 MEMB     63       PPPE     C23      CTL2    -0.180000       12.0110           0
     46716 MEMB     63       PPPE     H3R      HAL2     0.900000E-01   1.00800           0
     46717 MEMB     63       PPPE     H3S      HAL2     0.900000E-01   1.00800           0
     46718 MEMB     63       PPPE     C24      CTL2    -0.180000       12.0110           0
     46719 MEMB     63       PPPE     H4R      HAL2     0.900000E-01   1.00800           0
     46720 MEMB     63       PPPE     H4S      HAL2     0.900000E-01   1.00800           0
     46721 MEMB     63       PPPE     C25      CTL2    -0.180000       12.0110           0
     46722 MEMB     63       PPPE     H5R      HAL2     0.900000E-01   1.00800           0
     46723 MEMB     63       PPPE     H5S      HAL2     0.900000E-01   1.00800           0
     46724 MEMB     63       PPPE     C26      CTL2    -0.180000       12.0110           0
     46725 MEMB     63       PPPE     H6R      HAL2     0.900000E-01   1.00800           0
     46726 MEMB     63       PPPE     H6S      HAL2     0.900000E-01   1.00800           0
     46727 MEMB     63       PPPE     C27      CTL2    -0.180000       12.0110           0
     46728 MEMB     63       PPPE     H7R      HAL2     0.900000E-01   1.00800           0
     46729 MEMB     63       PPPE     H7S      HAL2     0.900000E-01   1.00800           0
     46730 MEMB     63       PPPE     C28      CTL2    -0.180000       12.0110           0
     46731 MEMB     63       PPPE     H8R      HAL2     0.900000E-01   1.00800           0
     46732 MEMB     63       PPPE     H8S      HAL2     0.900000E-01   1.00800           0
     46733 MEMB     63       PPPE     C29      CEL1    -0.150000       12.0110           0
     46734 MEMB     63       PPPE     H91      HEL1     0.150000       1.00800           0
     46735 MEMB     63       PPPE     C210     CEL1    -0.150000       12.0110           0
     46736 MEMB     63       PPPE     H101     HEL1     0.150000       1.00800           0
     46737 MEMB     63       PPPE     C211     CTL2    -0.180000       12.0110           0
     46738 MEMB     63       PPPE     H11R     HAL2     0.900000E-01   1.00800           0
     46739 MEMB     63       PPPE     H11S     HAL2     0.900000E-01   1.00800           0
     46740 MEMB     63       PPPE     C212     CTL2    -0.180000       12.0110           0
     46741 MEMB     63       PPPE     H12R     HAL2     0.900000E-01   1.00800           0
     46742 MEMB     63       PPPE     H12S     HAL2     0.900000E-01   1.00800           0
     46743 MEMB     63       PPPE     C213     CTL2    -0.180000       12.0110           0
     46744 MEMB     63       PPPE     H13R     HAL2     0.900000E-01   1.00800           0
     46745 MEMB     63       PPPE     H13S     HAL2     0.900000E-01   1.00800           0
     46746 MEMB     63       PPPE     C214     CTL2    -0.180000       12.0110           0
     46747 MEMB     63       PPPE     H14R     HAL2     0.900000E-01   1.00800           0
     46748 MEMB     63       PPPE     H14S     HAL2     0.900000E-01   1.00800           0
     46749 MEMB     63       PPPE     C215     CTL2    -0.180000       12.0110           0
     46750 MEMB     63       PPPE     H15R     HAL2     0.900000E-01   1.00800           0
     46751 MEMB     63       PPPE     H15S     HAL2     0.900000E-01   1.00800           0
     46752 MEMB     63       PPPE     C216     CTL3    -0.270000       12.0110           0
     46753 MEMB     63       PPPE     H16R     HAL3     0.900000E-01   1.00800           0
     46754 MEMB     63       PPPE     H16S     HAL3     0.900000E-01   1.00800           0
     46755 MEMB     63       PPPE     H16T     HAL3     0.900000E-01   1.00800           0
     46756 MEMB     63       PPPE     C33      CTL2    -0.180000       12.0110           0
     46757 MEMB     63       PPPE     H3X      HAL2     0.900000E-01   1.00800           0
     46758 MEMB     63       PPPE     H3Y      HAL2     0.900000E-01   1.00800           0
     46759 MEMB     63       PPPE     C34      CTL2    -0.180000       12.0110           0
     46760 MEMB     63       PPPE     H4X      HAL2     0.900000E-01   1.00800           0
     46761 MEMB     63       PPPE     H4Y      HAL2     0.900000E-01   1.00800           0
     46762 MEMB     63       PPPE     C35      CTL2    -0.180000       12.0110           0
     46763 MEMB     63       PPPE     H5X      HAL2     0.900000E-01   1.00800           0
     46764 MEMB     63       PPPE     H5Y      HAL2     0.900000E-01   1.00800           0
     46765 MEMB     63       PPPE     C36      CTL2    -0.180000       12.0110           0
     46766 MEMB     63       PPPE     H6X      HAL2     0.900000E-01   1.00800           0
     46767 MEMB     63       PPPE     H6Y      HAL2     0.900000E-01   1.00800           0
     46768 MEMB     63       PPPE     C37      CTL2    -0.180000       12.0110           0
     46769 MEMB     63       PPPE     H7X      HAL2     0.900000E-01   1.00800           0
     46770 MEMB     63       PPPE     H7Y      HAL2     0.900000E-01   1.00800           0
     46771 MEMB     63       PPPE     C38      CTL2    -0.180000       12.0110           0
     46772 MEMB     63       PPPE     H8X      HAL2     0.900000E-01   1.00800           0
     46773 MEMB     63       PPPE     H8Y      HAL2     0.900000E-01   1.00800           0
     46774 MEMB     63       PPPE     C39      CTL2    -0.180000       12.0110           0
     46775 MEMB     63       PPPE     H9X      HAL2     0.900000E-01   1.00800           0
     46776 MEMB     63       PPPE     H9Y      HAL2     0.900000E-01   1.00800           0
     46777 MEMB     63       PPPE     C310     CTL2    -0.180000       12.0110           0
     46778 MEMB     63       PPPE     H10X     HAL2     0.900000E-01   1.00800           0
     46779 MEMB     63       PPPE     H10Y     HAL2     0.900000E-01   1.00800           0
     46780 MEMB     63       PPPE     C311     CTL2    -0.180000       12.0110           0
     46781 MEMB     63       PPPE     H11X     HAL2     0.900000E-01   1.00800           0
     46782 MEMB     63       PPPE     H11Y     HAL2     0.900000E-01   1.00800           0
     46783 MEMB     63       PPPE     C312     CTL2    -0.180000       12.0110           0
     46784 MEMB     63       PPPE     H12X     HAL2     0.900000E-01   1.00800           0
     46785 MEMB     63       PPPE     H12Y     HAL2     0.900000E-01   1.00800           0
     46786 MEMB     63       PPPE     C313     CTL2    -0.180000       12.0110           0
     46787 MEMB     63       PPPE     H13X     HAL2     0.900000E-01   1.00800           0
     46788 MEMB     63       PPPE     H13Y     HAL2     0.900000E-01   1.00800           0
     46789 MEMB     63       PPPE     C314     CTL2    -0.180000       12.0110           0
     46790 MEMB     63       PPPE     H14X     HAL2     0.900000E-01   1.00800           0
     46791 MEMB     63       PPPE     H14Y     HAL2     0.900000E-01   1.00800           0
     46792 MEMB     63       PPPE     C315     CTL2    -0.180000       12.0110           0
     46793 MEMB     63       PPPE     H15X     HAL2     0.900000E-01   1.00800           0
     46794 MEMB     63       PPPE     H15Y     HAL2     0.900000E-01   1.00800           0
     46795 MEMB     63       PPPE     C316     CTL3    -0.270000       12.0110           0
     46796 MEMB     63       PPPE     H16X     HAL3     0.900000E-01   1.00800           0
     46797 MEMB     63       PPPE     H16Y     HAL3     0.900000E-01   1.00800           0
     46798 MEMB     63       PPPE     H16Z     HAL3     0.900000E-01   1.00800           0
     46799 MEMB     64       PPPE     N        NH3L    -0.300000       14.0070           0
     46800 MEMB     64       PPPE     HN1      HCL      0.330000       1.00800           0
     46801 MEMB     64       PPPE     HN2      HCL      0.330000       1.00800           0
     46802 MEMB     64       PPPE     HN3      HCL      0.330000       1.00800           0
     46803 MEMB     64       PPPE     C12      CTL2     0.130000       12.0110           0
     46804 MEMB     64       PPPE     H12A     HAL2     0.900000E-01   1.00800           0
     46805 MEMB     64       PPPE     H12B     HAL2     0.900000E-01   1.00800           0
     46806 MEMB     64       PPPE     C11      CTL2    -0.800000E-01   12.0110           0
     46807 MEMB     64       PPPE     H11A     HAL2     0.900000E-01   1.00800           0
     46808 MEMB     64       PPPE     H11B     HAL2     0.900000E-01   1.00800           0
     46809 MEMB     64       PPPE     P        PL        1.50000       30.9740           0
     46810 MEMB     64       PPPE     O13      O2L     -0.780000       15.9994           0
     46811 MEMB     64       PPPE     O14      O2L     -0.780000       15.9994           0
     46812 MEMB     64       PPPE     O11      OSLP    -0.570000       15.9994           0
     46813 MEMB     64       PPPE     O12      OSLP    -0.570000       15.9994           0
     46814 MEMB     64       PPPE     C1       CTL2    -0.800000E-01   12.0110           0
     46815 MEMB     64       PPPE     HA       HAL2     0.900000E-01   1.00800           0
     46816 MEMB     64       PPPE     HB       HAL2     0.900000E-01   1.00800           0
     46817 MEMB     64       PPPE     C2       CTL1     0.170000       12.0110           0
     46818 MEMB     64       PPPE     HS       HAL1     0.900000E-01   1.00800           0
     46819 MEMB     64       PPPE     O21      OSL     -0.490000       15.9994           0
     46820 MEMB     64       PPPE     C21      CL       0.900000       12.0110           0
     46821 MEMB     64       PPPE     O22      OBL     -0.630000       15.9994           0
     46822 MEMB     64       PPPE     C22      CTL2    -0.220000       12.0110           0
     46823 MEMB     64       PPPE     H2R      HAL2     0.900000E-01   1.00800           0
     46824 MEMB     64       PPPE     H2S      HAL2     0.900000E-01   1.00800           0
     46825 MEMB     64       PPPE     C3       CTL2     0.800000E-01   12.0110           0
     46826 MEMB     64       PPPE     HX       HAL2     0.900000E-01   1.00800           0
     46827 MEMB     64       PPPE     HY       HAL2     0.900000E-01   1.00800           0
     46828 MEMB     64       PPPE     O31      OSL     -0.490000       15.9994           0
     46829 MEMB     64       PPPE     C31      CL       0.900000       12.0110           0
     46830 MEMB     64       PPPE     O32      OBL     -0.630000       15.9994           0
     46831 MEMB     64       PPPE     C32      CTL2    -0.220000       12.0110           0
     46832 MEMB     64       PPPE     H2X      HAL2     0.900000E-01   1.00800           0
     46833 MEMB     64       PPPE     H2Y      HAL2     0.900000E-01   1.00800           0
     46834 MEMB     64       PPPE     C23      CTL2    -0.180000       12.0110           0
     46835 MEMB     64       PPPE     H3R      HAL2     0.900000E-01   1.00800           0
     46836 MEMB     64       PPPE     H3S      HAL2     0.900000E-01   1.00800           0
     46837 MEMB     64       PPPE     C24      CTL2    -0.180000       12.0110           0
     46838 MEMB     64       PPPE     H4R      HAL2     0.900000E-01   1.00800           0
     46839 MEMB     64       PPPE     H4S      HAL2     0.900000E-01   1.00800           0
     46840 MEMB     64       PPPE     C25      CTL2    -0.180000       12.0110           0
     46841 MEMB     64       PPPE     H5R      HAL2     0.900000E-01   1.00800           0
     46842 MEMB     64       PPPE     H5S      HAL2     0.900000E-01   1.00800           0
     46843 MEMB     64       PPPE     C26      CTL2    -0.180000       12.0110           0
     46844 MEMB     64       PPPE     H6R      HAL2     0.900000E-01   1.00800           0
     46845 MEMB     64       PPPE     H6S      HAL2     0.900000E-01   1.00800           0
     46846 MEMB     64       PPPE     C27      CTL2    -0.180000       12.0110           0
     46847 MEMB     64       PPPE     H7R      HAL2     0.900000E-01   1.00800           0
     46848 MEMB     64       PPPE     H7S      HAL2     0.900000E-01   1.00800           0
     46849 MEMB     64       PPPE     C28      CTL2    -0.180000       12.0110           0
     46850 MEMB     64       PPPE     H8R      HAL2     0.900000E-01   1.00800           0
     46851 MEMB     64       PPPE     H8S      HAL2     0.900000E-01   1.00800           0
     46852 MEMB     64       PPPE     C29      CEL1    -0.150000       12.0110           0
     46853 MEMB     64       PPPE     H91      HEL1     0.150000       1.00800           0
     46854 MEMB     64       PPPE     C210     CEL1    -0.150000       12.0110           0
     46855 MEMB     64       PPPE     H101     HEL1     0.150000       1.00800           0
     46856 MEMB     64       PPPE     C211     CTL2    -0.180000       12.0110           0
     46857 MEMB     64       PPPE     H11R     HAL2     0.900000E-01   1.00800           0
     46858 MEMB     64       PPPE     H11S     HAL2     0.900000E-01   1.00800           0
     46859 MEMB     64       PPPE     C212     CTL2    -0.180000       12.0110           0
     46860 MEMB     64       PPPE     H12R     HAL2     0.900000E-01   1.00800           0
     46861 MEMB     64       PPPE     H12S     HAL2     0.900000E-01   1.00800           0
     46862 MEMB     64       PPPE     C213     CTL2    -0.180000       12.0110           0
     46863 MEMB     64       PPPE     H13R     HAL2     0.900000E-01   1.00800           0
     46864 MEMB     64       PPPE     H13S     HAL2     0.900000E-01   1.00800           0
     46865 MEMB     64       PPPE     C214     CTL2    -0.180000       12.0110           0
     46866 MEMB     64       PPPE     H14R     HAL2     0.900000E-01   1.00800           0
     46867 MEMB     64       PPPE     H14S     HAL2     0.900000E-01   1.00800           0
     46868 MEMB     64       PPPE     C215     CTL2    -0.180000       12.0110           0
     46869 MEMB     64       PPPE     H15R     HAL2     0.900000E-01   1.00800           0
     46870 MEMB     64       PPPE     H15S     HAL2     0.900000E-01   1.00800           0
     46871 MEMB     64       PPPE     C216     CTL3    -0.270000       12.0110           0
     46872 MEMB     64       PPPE     H16R     HAL3     0.900000E-01   1.00800           0
     46873 MEMB     64       PPPE     H16S     HAL3     0.900000E-01   1.00800           0
     46874 MEMB     64       PPPE     H16T     HAL3     0.900000E-01   1.00800           0
     46875 MEMB     64       PPPE     C33      CTL2    -0.180000       12.0110           0
     46876 MEMB     64       PPPE     H3X      HAL2     0.900000E-01   1.00800           0
     46877 MEMB     64       PPPE     H3Y      HAL2     0.900000E-01   1.00800           0
     46878 MEMB     64       PPPE     C34      CTL2    -0.180000       12.0110           0
     46879 MEMB     64       PPPE     H4X      HAL2     0.900000E-01   1.00800           0
     46880 MEMB     64       PPPE     H4Y      HAL2     0.900000E-01   1.00800           0
     46881 MEMB     64       PPPE     C35      CTL2    -0.180000       12.0110           0
     46882 MEMB     64       PPPE     H5X      HAL2     0.900000E-01   1.00800           0
     46883 MEMB     64       PPPE     H5Y      HAL2     0.900000E-01   1.00800           0
     46884 MEMB     64       PPPE     C36      CTL2    -0.180000       12.0110           0
     46885 MEMB     64       PPPE     H6X      HAL2     0.900000E-01   1.00800           0
     46886 MEMB     64       PPPE     H6Y      HAL2     0.900000E-01   1.00800           0
     46887 MEMB     64       PPPE     C37      CTL2    -0.180000       12.0110           0
     46888 MEMB     64       PPPE     H7X      HAL2     0.900000E-01   1.00800           0
     46889 MEMB     64       PPPE     H7Y      HAL2     0.900000E-01   1.00800           0
     46890 MEMB     64       PPPE     C38      CTL2    -0.180000       12.0110           0
     46891 MEMB     64       PPPE     H8X      HAL2     0.900000E-01   1.00800           0
     46892 MEMB     64       PPPE     H8Y      HAL2     0.900000E-01   1.00800           0
     46893 MEMB     64       PPPE     C39      CTL2    -0.180000       12.0110           0
     46894 MEMB     64       PPPE     H9X      HAL2     0.900000E-01   1.00800           0
     46895 MEMB     64       PPPE     H9Y      HAL2     0.900000E-01   1.00800           0
     46896 MEMB     64       PPPE     C310     CTL2    -0.180000       12.0110           0
     46897 MEMB     64       PPPE     H10X     HAL2     0.900000E-01   1.00800           0
     46898 MEMB     64       PPPE     H10Y     HAL2     0.900000E-01   1.00800           0
     46899 MEMB     64       PPPE     C311     CTL2    -0.180000       12.0110           0
     46900 MEMB     64       PPPE     H11X     HAL2     0.900000E-01   1.00800           0
     46901 MEMB     64       PPPE     H11Y     HAL2     0.900000E-01   1.00800           0
     46902 MEMB     64       PPPE     C312     CTL2    -0.180000       12.0110           0
     46903 MEMB     64       PPPE     H12X     HAL2     0.900000E-01   1.00800           0
     46904 MEMB     64       PPPE     H12Y     HAL2     0.900000E-01   1.00800           0
     46905 MEMB     64       PPPE     C313     CTL2    -0.180000       12.0110           0
     46906 MEMB     64       PPPE     H13X     HAL2     0.900000E-01   1.00800           0
     46907 MEMB     64       PPPE     H13Y     HAL2     0.900000E-01   1.00800           0
     46908 MEMB     64       PPPE     C314     CTL2    -0.180000       12.0110           0
     46909 MEMB     64       PPPE     H14X     HAL2     0.900000E-01   1.00800           0
     46910 MEMB     64       PPPE     H14Y     HAL2     0.900000E-01   1.00800           0
     46911 MEMB     64       PPPE     C315     CTL2    -0.180000       12.0110           0
     46912 MEMB     64       PPPE     H15X     HAL2     0.900000E-01   1.00800           0
     46913 MEMB     64       PPPE     H15Y     HAL2     0.900000E-01   1.00800           0
     46914 MEMB     64       PPPE     C316     CTL3    -0.270000       12.0110           0
     46915 MEMB     64       PPPE     H16X     HAL3     0.900000E-01   1.00800           0
     46916 MEMB     64       PPPE     H16Y     HAL3     0.900000E-01   1.00800           0
     46917 MEMB     64       PPPE     H16Z     HAL3     0.900000E-01   1.00800           0
     46918 MEMB     65       PVPG     C13      CTL2     0.500000E-01   12.0110           0
     46919 MEMB     65       PVPG     H13A     HAL2     0.900000E-01   1.00800           0
     46920 MEMB     65       PVPG     H13B     HAL2     0.900000E-01   1.00800           0
     46921 MEMB     65       PVPG     OC3      OHL     -0.650000       15.9994           0
     46922 MEMB     65       PVPG     HO3      HOL      0.420000       1.00800           0
     46923 MEMB     65       PVPG     C12      CTL1     0.140000       12.0110           0
     46924 MEMB     65       PVPG     H12A     HAL1     0.900000E-01   1.00800           0
     46925 MEMB     65       PVPG     OC2      OHL     -0.650000       15.9994           0
     46926 MEMB     65       PVPG     HO2      HOL      0.420000       1.00800           0
     46927 MEMB     65       PVPG     C11      CTL2    -0.800000E-01   12.0110           0
     46928 MEMB     65       PVPG     H11A     HAL2     0.900000E-01   1.00800           0
     46929 MEMB     65       PVPG     H11B     HAL2     0.900000E-01   1.00800           0
     46930 MEMB     65       PVPG     P        PL        1.50000       30.9740           0
     46931 MEMB     65       PVPG     O13      O2L     -0.780000       15.9994           0
     46932 MEMB     65       PVPG     O14      O2L     -0.780000       15.9994           0
     46933 MEMB     65       PVPG     O12      OSLP    -0.570000       15.9994           0
     46934 MEMB     65       PVPG     O11      OSLP    -0.570000       15.9994           0
     46935 MEMB     65       PVPG     C1       CTL2    -0.800000E-01   12.0110           0
     46936 MEMB     65       PVPG     HA       HAL2     0.900000E-01   1.00800           0
     46937 MEMB     65       PVPG     HB       HAL2     0.900000E-01   1.00800           0
     46938 MEMB     65       PVPG     C2       CTL1     0.170000       12.0110           0
     46939 MEMB     65       PVPG     HS       HAL1     0.900000E-01   1.00800           0
     46940 MEMB     65       PVPG     O21      OSL     -0.490000       15.9994           0
     46941 MEMB     65       PVPG     C21      CL       0.900000       12.0110           0
     46942 MEMB     65       PVPG     O22      OBL     -0.630000       15.9994           0
     46943 MEMB     65       PVPG     C22      CTL2    -0.220000       12.0110           0
     46944 MEMB     65       PVPG     H2R      HAL2     0.900000E-01   1.00800           0
     46945 MEMB     65       PVPG     H2S      HAL2     0.900000E-01   1.00800           0
     46946 MEMB     65       PVPG     C3       CTL2     0.800000E-01   12.0110           0
     46947 MEMB     65       PVPG     HX       HAL2     0.900000E-01   1.00800           0
     46948 MEMB     65       PVPG     HY       HAL2     0.900000E-01   1.00800           0
     46949 MEMB     65       PVPG     O31      OSL     -0.490000       15.9994           0
     46950 MEMB     65       PVPG     C31      CL       0.900000       12.0110           0
     46951 MEMB     65       PVPG     O32      OBL     -0.630000       15.9994           0
     46952 MEMB     65       PVPG     C32      CTL2    -0.220000       12.0110           0
     46953 MEMB     65       PVPG     H2X      HAL2     0.900000E-01   1.00800           0
     46954 MEMB     65       PVPG     H2Y      HAL2     0.900000E-01   1.00800           0
     46955 MEMB     65       PVPG     C23      CTL2    -0.180000       12.0110           0
     46956 MEMB     65       PVPG     H3R      HAL2     0.900000E-01   1.00800           0
     46957 MEMB     65       PVPG     H3S      HAL2     0.900000E-01   1.00800           0
     46958 MEMB     65       PVPG     C24      CTL2    -0.180000       12.0110           0
     46959 MEMB     65       PVPG     H4R      HAL2     0.900000E-01   1.00800           0
     46960 MEMB     65       PVPG     H4S      HAL2     0.900000E-01   1.00800           0
     46961 MEMB     65       PVPG     C25      CTL2    -0.180000       12.0110           0
     46962 MEMB     65       PVPG     H5R      HAL2     0.900000E-01   1.00800           0
     46963 MEMB     65       PVPG     H5S      HAL2     0.900000E-01   1.00800           0
     46964 MEMB     65       PVPG     C26      CTL2    -0.180000       12.0110           0
     46965 MEMB     65       PVPG     H6R      HAL2     0.900000E-01   1.00800           0
     46966 MEMB     65       PVPG     H6S      HAL2     0.900000E-01   1.00800           0
     46967 MEMB     65       PVPG     C27      CTL2    -0.180000       12.0110           0
     46968 MEMB     65       PVPG     H7R      HAL2     0.900000E-01   1.00800           0
     46969 MEMB     65       PVPG     H7S      HAL2     0.900000E-01   1.00800           0
     46970 MEMB     65       PVPG     C28      CTL2    -0.180000       12.0110           0
     46971 MEMB     65       PVPG     H8R      HAL2     0.900000E-01   1.00800           0
     46972 MEMB     65       PVPG     H8S      HAL2     0.900000E-01   1.00800           0
     46973 MEMB     65       PVPG     C29      CTL2    -0.180000       12.0110           0
     46974 MEMB     65       PVPG     H9R      HAL2     0.900000E-01   1.00800           0
     46975 MEMB     65       PVPG     H9S      HAL2     0.900000E-01   1.00800           0
     46976 MEMB     65       PVPG     C210     CTL2    -0.180000       12.0110           0
     46977 MEMB     65       PVPG     H10R     HAL2     0.900000E-01   1.00800           0
     46978 MEMB     65       PVPG     H10S     HAL2     0.900000E-01   1.00800           0
     46979 MEMB     65       PVPG     C211     CEL1    -0.150000       12.0110           0
     46980 MEMB     65       PVPG     H111     HEL1     0.150000       1.00800           0
     46981 MEMB     65       PVPG     C212     CEL1    -0.150000       12.0110           0
     46982 MEMB     65       PVPG     H121     HEL1     0.150000       1.00800           0
     46983 MEMB     65       PVPG     C213     CTL2    -0.180000       12.0110           0
     46984 MEMB     65       PVPG     H13R     HAL2     0.900000E-01   1.00800           0
     46985 MEMB     65       PVPG     H13S     HAL2     0.900000E-01   1.00800           0
     46986 MEMB     65       PVPG     C214     CTL2    -0.180000       12.0110           0
     46987 MEMB     65       PVPG     H14R     HAL2     0.900000E-01   1.00800           0
     46988 MEMB     65       PVPG     H14S     HAL2     0.900000E-01   1.00800           0
     46989 MEMB     65       PVPG     C215     CTL2    -0.180000       12.0110           0
     46990 MEMB     65       PVPG     H15R     HAL2     0.900000E-01   1.00800           0
     46991 MEMB     65       PVPG     H15S     HAL2     0.900000E-01   1.00800           0
     46992 MEMB     65       PVPG     C216     CTL2    -0.180000       12.0110           0
     46993 MEMB     65       PVPG     H16R     HAL2     0.900000E-01   1.00800           0
     46994 MEMB     65       PVPG     H16S     HAL2     0.900000E-01   1.00800           0
     46995 MEMB     65       PVPG     C217     CTL2    -0.180000       12.0110           0
     46996 MEMB     65       PVPG     H17R     HAL2     0.900000E-01   1.00800           0
     46997 MEMB     65       PVPG     H17S     HAL2     0.900000E-01   1.00800           0
     46998 MEMB     65       PVPG     C218     CTL3    -0.270000       12.0110           0
     46999 MEMB     65       PVPG     H18R     HAL3     0.900000E-01   1.00800           0
     47000 MEMB     65       PVPG     H18S     HAL3     0.900000E-01   1.00800           0
     47001 MEMB     65       PVPG     H18T     HAL3     0.900000E-01   1.00800           0
     47002 MEMB     65       PVPG     C33      CTL2    -0.180000       12.0110           0
     47003 MEMB     65       PVPG     H3X      HAL2     0.900000E-01   1.00800           0
     47004 MEMB     65       PVPG     H3Y      HAL2     0.900000E-01   1.00800           0
     47005 MEMB     65       PVPG     C34      CTL2    -0.180000       12.0110           0
     47006 MEMB     65       PVPG     H4X      HAL2     0.900000E-01   1.00800           0
     47007 MEMB     65       PVPG     H4Y      HAL2     0.900000E-01   1.00800           0
     47008 MEMB     65       PVPG     C35      CTL2    -0.180000       12.0110           0
     47009 MEMB     65       PVPG     H5X      HAL2     0.900000E-01   1.00800           0
     47010 MEMB     65       PVPG     H5Y      HAL2     0.900000E-01   1.00800           0
     47011 MEMB     65       PVPG     C36      CTL2    -0.180000       12.0110           0
     47012 MEMB     65       PVPG     H6X      HAL2     0.900000E-01   1.00800           0
     47013 MEMB     65       PVPG     H6Y      HAL2     0.900000E-01   1.00800           0
     47014 MEMB     65       PVPG     C37      CTL2    -0.180000       12.0110           0
     47015 MEMB     65       PVPG     H7X      HAL2     0.900000E-01   1.00800           0
     47016 MEMB     65       PVPG     H7Y      HAL2     0.900000E-01   1.00800           0
     47017 MEMB     65       PVPG     C38      CTL2    -0.180000       12.0110           0
     47018 MEMB     65       PVPG     H8X      HAL2     0.900000E-01   1.00800           0
     47019 MEMB     65       PVPG     H8Y      HAL2     0.900000E-01   1.00800           0
     47020 MEMB     65       PVPG     C39      CTL2    -0.180000       12.0110           0
     47021 MEMB     65       PVPG     H9X      HAL2     0.900000E-01   1.00800           0
     47022 MEMB     65       PVPG     H9Y      HAL2     0.900000E-01   1.00800           0
     47023 MEMB     65       PVPG     C310     CTL2    -0.180000       12.0110           0
     47024 MEMB     65       PVPG     H10X     HAL2     0.900000E-01   1.00800           0
     47025 MEMB     65       PVPG     H10Y     HAL2     0.900000E-01   1.00800           0
     47026 MEMB     65       PVPG     C311     CTL2    -0.180000       12.0110           0
     47027 MEMB     65       PVPG     H11X     HAL2     0.900000E-01   1.00800           0
     47028 MEMB     65       PVPG     H11Y     HAL2     0.900000E-01   1.00800           0
     47029 MEMB     65       PVPG     C312     CTL2    -0.180000       12.0110           0
     47030 MEMB     65       PVPG     H12X     HAL2     0.900000E-01   1.00800           0
     47031 MEMB     65       PVPG     H12Y     HAL2     0.900000E-01   1.00800           0
     47032 MEMB     65       PVPG     C313     CTL2    -0.180000       12.0110           0
     47033 MEMB     65       PVPG     H13X     HAL2     0.900000E-01   1.00800           0
     47034 MEMB     65       PVPG     H13Y     HAL2     0.900000E-01   1.00800           0
     47035 MEMB     65       PVPG     C314     CTL2    -0.180000       12.0110           0
     47036 MEMB     65       PVPG     H14X     HAL2     0.900000E-01   1.00800           0
     47037 MEMB     65       PVPG     H14Y     HAL2     0.900000E-01   1.00800           0
     47038 MEMB     65       PVPG     C315     CTL2    -0.180000       12.0110           0
     47039 MEMB     65       PVPG     H15X     HAL2     0.900000E-01   1.00800           0
     47040 MEMB     65       PVPG     H15Y     HAL2     0.900000E-01   1.00800           0
     47041 MEMB     65       PVPG     C316     CTL3    -0.270000       12.0110           0
     47042 MEMB     65       PVPG     H16X     HAL3     0.900000E-01   1.00800           0
     47043 MEMB     65       PVPG     H16Y     HAL3     0.900000E-01   1.00800           0
     47044 MEMB     65       PVPG     H16Z     HAL3     0.900000E-01   1.00800           0
     47045 MEMB     66       PVPG     C13      CTL2     0.500000E-01   12.0110           0
     47046 MEMB     66       PVPG     H13A     HAL2     0.900000E-01   1.00800           0
     47047 MEMB     66       PVPG     H13B     HAL2     0.900000E-01   1.00800           0
     47048 MEMB     66       PVPG     OC3      OHL     -0.650000       15.9994           0
     47049 MEMB     66       PVPG     HO3      HOL      0.420000       1.00800           0
     47050 MEMB     66       PVPG     C12      CTL1     0.140000       12.0110           0
     47051 MEMB     66       PVPG     H12A     HAL1     0.900000E-01   1.00800           0
     47052 MEMB     66       PVPG     OC2      OHL     -0.650000       15.9994           0
     47053 MEMB     66       PVPG     HO2      HOL      0.420000       1.00800           0
     47054 MEMB     66       PVPG     C11      CTL2    -0.800000E-01   12.0110           0
     47055 MEMB     66       PVPG     H11A     HAL2     0.900000E-01   1.00800           0
     47056 MEMB     66       PVPG     H11B     HAL2     0.900000E-01   1.00800           0
     47057 MEMB     66       PVPG     P        PL        1.50000       30.9740           0
     47058 MEMB     66       PVPG     O13      O2L     -0.780000       15.9994           0
     47059 MEMB     66       PVPG     O14      O2L     -0.780000       15.9994           0
     47060 MEMB     66       PVPG     O12      OSLP    -0.570000       15.9994           0
     47061 MEMB     66       PVPG     O11      OSLP    -0.570000       15.9994           0
     47062 MEMB     66       PVPG     C1       CTL2    -0.800000E-01   12.0110           0
     47063 MEMB     66       PVPG     HA       HAL2     0.900000E-01   1.00800           0
     47064 MEMB     66       PVPG     HB       HAL2     0.900000E-01   1.00800           0
     47065 MEMB     66       PVPG     C2       CTL1     0.170000       12.0110           0
     47066 MEMB     66       PVPG     HS       HAL1     0.900000E-01   1.00800           0
     47067 MEMB     66       PVPG     O21      OSL     -0.490000       15.9994           0
     47068 MEMB     66       PVPG     C21      CL       0.900000       12.0110           0
     47069 MEMB     66       PVPG     O22      OBL     -0.630000       15.9994           0
     47070 MEMB     66       PVPG     C22      CTL2    -0.220000       12.0110           0
     47071 MEMB     66       PVPG     H2R      HAL2     0.900000E-01   1.00800           0
     47072 MEMB     66       PVPG     H2S      HAL2     0.900000E-01   1.00800           0
     47073 MEMB     66       PVPG     C3       CTL2     0.800000E-01   12.0110           0
     47074 MEMB     66       PVPG     HX       HAL2     0.900000E-01   1.00800           0
     47075 MEMB     66       PVPG     HY       HAL2     0.900000E-01   1.00800           0
     47076 MEMB     66       PVPG     O31      OSL     -0.490000       15.9994           0
     47077 MEMB     66       PVPG     C31      CL       0.900000       12.0110           0
     47078 MEMB     66       PVPG     O32      OBL     -0.630000       15.9994           0
     47079 MEMB     66       PVPG     C32      CTL2    -0.220000       12.0110           0
     47080 MEMB     66       PVPG     H2X      HAL2     0.900000E-01   1.00800           0
     47081 MEMB     66       PVPG     H2Y      HAL2     0.900000E-01   1.00800           0
     47082 MEMB     66       PVPG     C23      CTL2    -0.180000       12.0110           0
     47083 MEMB     66       PVPG     H3R      HAL2     0.900000E-01   1.00800           0
     47084 MEMB     66       PVPG     H3S      HAL2     0.900000E-01   1.00800           0
     47085 MEMB     66       PVPG     C24      CTL2    -0.180000       12.0110           0
     47086 MEMB     66       PVPG     H4R      HAL2     0.900000E-01   1.00800           0
     47087 MEMB     66       PVPG     H4S      HAL2     0.900000E-01   1.00800           0
     47088 MEMB     66       PVPG     C25      CTL2    -0.180000       12.0110           0
     47089 MEMB     66       PVPG     H5R      HAL2     0.900000E-01   1.00800           0
     47090 MEMB     66       PVPG     H5S      HAL2     0.900000E-01   1.00800           0
     47091 MEMB     66       PVPG     C26      CTL2    -0.180000       12.0110           0
     47092 MEMB     66       PVPG     H6R      HAL2     0.900000E-01   1.00800           0
     47093 MEMB     66       PVPG     H6S      HAL2     0.900000E-01   1.00800           0
     47094 MEMB     66       PVPG     C27      CTL2    -0.180000       12.0110           0
     47095 MEMB     66       PVPG     H7R      HAL2     0.900000E-01   1.00800           0
     47096 MEMB     66       PVPG     H7S      HAL2     0.900000E-01   1.00800           0
     47097 MEMB     66       PVPG     C28      CTL2    -0.180000       12.0110           0
     47098 MEMB     66       PVPG     H8R      HAL2     0.900000E-01   1.00800           0
     47099 MEMB     66       PVPG     H8S      HAL2     0.900000E-01   1.00800           0
     47100 MEMB     66       PVPG     C29      CTL2    -0.180000       12.0110           0
     47101 MEMB     66       PVPG     H9R      HAL2     0.900000E-01   1.00800           0
     47102 MEMB     66       PVPG     H9S      HAL2     0.900000E-01   1.00800           0
     47103 MEMB     66       PVPG     C210     CTL2    -0.180000       12.0110           0
     47104 MEMB     66       PVPG     H10R     HAL2     0.900000E-01   1.00800           0
     47105 MEMB     66       PVPG     H10S     HAL2     0.900000E-01   1.00800           0
     47106 MEMB     66       PVPG     C211     CEL1    -0.150000       12.0110           0
     47107 MEMB     66       PVPG     H111     HEL1     0.150000       1.00800           0
     47108 MEMB     66       PVPG     C212     CEL1    -0.150000       12.0110           0
     47109 MEMB     66       PVPG     H121     HEL1     0.150000       1.00800           0
     47110 MEMB     66       PVPG     C213     CTL2    -0.180000       12.0110           0
     47111 MEMB     66       PVPG     H13R     HAL2     0.900000E-01   1.00800           0
     47112 MEMB     66       PVPG     H13S     HAL2     0.900000E-01   1.00800           0
     47113 MEMB     66       PVPG     C214     CTL2    -0.180000       12.0110           0
     47114 MEMB     66       PVPG     H14R     HAL2     0.900000E-01   1.00800           0
     47115 MEMB     66       PVPG     H14S     HAL2     0.900000E-01   1.00800           0
     47116 MEMB     66       PVPG     C215     CTL2    -0.180000       12.0110           0
     47117 MEMB     66       PVPG     H15R     HAL2     0.900000E-01   1.00800           0
     47118 MEMB     66       PVPG     H15S     HAL2     0.900000E-01   1.00800           0
     47119 MEMB     66       PVPG     C216     CTL2    -0.180000       12.0110           0
     47120 MEMB     66       PVPG     H16R     HAL2     0.900000E-01   1.00800           0
     47121 MEMB     66       PVPG     H16S     HAL2     0.900000E-01   1.00800           0
     47122 MEMB     66       PVPG     C217     CTL2    -0.180000       12.0110           0
     47123 MEMB     66       PVPG     H17R     HAL2     0.900000E-01   1.00800           0
     47124 MEMB     66       PVPG     H17S     HAL2     0.900000E-01   1.00800           0
     47125 MEMB     66       PVPG     C218     CTL3    -0.270000       12.0110           0
     47126 MEMB     66       PVPG     H18R     HAL3     0.900000E-01   1.00800           0
     47127 MEMB     66       PVPG     H18S     HAL3     0.900000E-01   1.00800           0
     47128 MEMB     66       PVPG     H18T     HAL3     0.900000E-01   1.00800           0
     47129 MEMB     66       PVPG     C33      CTL2    -0.180000       12.0110           0
     47130 MEMB     66       PVPG     H3X      HAL2     0.900000E-01   1.00800           0
     47131 MEMB     66       PVPG     H3Y      HAL2     0.900000E-01   1.00800           0
     47132 MEMB     66       PVPG     C34      CTL2    -0.180000       12.0110           0
     47133 MEMB     66       PVPG     H4X      HAL2     0.900000E-01   1.00800           0
     47134 MEMB     66       PVPG     H4Y      HAL2     0.900000E-01   1.00800           0
     47135 MEMB     66       PVPG     C35      CTL2    -0.180000       12.0110           0
     47136 MEMB     66       PVPG     H5X      HAL2     0.900000E-01   1.00800           0
     47137 MEMB     66       PVPG     H5Y      HAL2     0.900000E-01   1.00800           0
     47138 MEMB     66       PVPG     C36      CTL2    -0.180000       12.0110           0
     47139 MEMB     66       PVPG     H6X      HAL2     0.900000E-01   1.00800           0
     47140 MEMB     66       PVPG     H6Y      HAL2     0.900000E-01   1.00800           0
     47141 MEMB     66       PVPG     C37      CTL2    -0.180000       12.0110           0
     47142 MEMB     66       PVPG     H7X      HAL2     0.900000E-01   1.00800           0
     47143 MEMB     66       PVPG     H7Y      HAL2     0.900000E-01   1.00800           0
     47144 MEMB     66       PVPG     C38      CTL2    -0.180000       12.0110           0
     47145 MEMB     66       PVPG     H8X      HAL2     0.900000E-01   1.00800           0
     47146 MEMB     66       PVPG     H8Y      HAL2     0.900000E-01   1.00800           0
     47147 MEMB     66       PVPG     C39      CTL2    -0.180000       12.0110           0
     47148 MEMB     66       PVPG     H9X      HAL2     0.900000E-01   1.00800           0
     47149 MEMB     66       PVPG     H9Y      HAL2     0.900000E-01   1.00800           0
     47150 MEMB     66       PVPG     C310     CTL2    -0.180000       12.0110           0
     47151 MEMB     66       PVPG     H10X     HAL2     0.900000E-01   1.00800           0
     47152 MEMB     66       PVPG     H10Y     HAL2     0.900000E-01   1.00800           0
     47153 MEMB     66       PVPG     C311     CTL2    -0.180000       12.0110           0
     47154 MEMB     66       PVPG     H11X     HAL2     0.900000E-01   1.00800           0
     47155 MEMB     66       PVPG     H11Y     HAL2     0.900000E-01   1.00800           0
     47156 MEMB     66       PVPG     C312     CTL2    -0.180000       12.0110           0
     47157 MEMB     66       PVPG     H12X     HAL2     0.900000E-01   1.00800           0
     47158 MEMB     66       PVPG     H12Y     HAL2     0.900000E-01   1.00800           0
     47159 MEMB     66       PVPG     C313     CTL2    -0.180000       12.0110           0
     47160 MEMB     66       PVPG     H13X     HAL2     0.900000E-01   1.00800           0
     47161 MEMB     66       PVPG     H13Y     HAL2     0.900000E-01   1.00800           0
     47162 MEMB     66       PVPG     C314     CTL2    -0.180000       12.0110           0
     47163 MEMB     66       PVPG     H14X     HAL2     0.900000E-01   1.00800           0
     47164 MEMB     66       PVPG     H14Y     HAL2     0.900000E-01   1.00800           0
     47165 MEMB     66       PVPG     C315     CTL2    -0.180000       12.0110           0
     47166 MEMB     66       PVPG     H15X     HAL2     0.900000E-01   1.00800           0
     47167 MEMB     66       PVPG     H15Y     HAL2     0.900000E-01   1.00800           0
     47168 MEMB     66       PVPG     C316     CTL3    -0.270000       12.0110           0
     47169 MEMB     66       PVPG     H16X     HAL3     0.900000E-01   1.00800           0
     47170 MEMB     66       PVPG     H16Y     HAL3     0.900000E-01   1.00800           0
     47171 MEMB     66       PVPG     H16Z     HAL3     0.900000E-01   1.00800           0
     47172 MEMB     67       PPPE     N        NH3L    -0.300000       14.0070           0
     47173 MEMB     67       PPPE     HN1      HCL      0.330000       1.00800           0
     47174 MEMB     67       PPPE     HN2      HCL      0.330000       1.00800           0
     47175 MEMB     67       PPPE     HN3      HCL      0.330000       1.00800           0
     47176 MEMB     67       PPPE     C12      CTL2     0.130000       12.0110           0
     47177 MEMB     67       PPPE     H12A     HAL2     0.900000E-01   1.00800           0
     47178 MEMB     67       PPPE     H12B     HAL2     0.900000E-01   1.00800           0
     47179 MEMB     67       PPPE     C11      CTL2    -0.800000E-01   12.0110           0
     47180 MEMB     67       PPPE     H11A     HAL2     0.900000E-01   1.00800           0
     47181 MEMB     67       PPPE     H11B     HAL2     0.900000E-01   1.00800           0
     47182 MEMB     67       PPPE     P        PL        1.50000       30.9740           0
     47183 MEMB     67       PPPE     O13      O2L     -0.780000       15.9994           0
     47184 MEMB     67       PPPE     O14      O2L     -0.780000       15.9994           0
     47185 MEMB     67       PPPE     O11      OSLP    -0.570000       15.9994           0
     47186 MEMB     67       PPPE     O12      OSLP    -0.570000       15.9994           0
     47187 MEMB     67       PPPE     C1       CTL2    -0.800000E-01   12.0110           0
     47188 MEMB     67       PPPE     HA       HAL2     0.900000E-01   1.00800           0
     47189 MEMB     67       PPPE     HB       HAL2     0.900000E-01   1.00800           0
     47190 MEMB     67       PPPE     C2       CTL1     0.170000       12.0110           0
     47191 MEMB     67       PPPE     HS       HAL1     0.900000E-01   1.00800           0
     47192 MEMB     67       PPPE     O21      OSL     -0.490000       15.9994           0
     47193 MEMB     67       PPPE     C21      CL       0.900000       12.0110           0
     47194 MEMB     67       PPPE     O22      OBL     -0.630000       15.9994           0
     47195 MEMB     67       PPPE     C22      CTL2    -0.220000       12.0110           0
     47196 MEMB     67       PPPE     H2R      HAL2     0.900000E-01   1.00800           0
     47197 MEMB     67       PPPE     H2S      HAL2     0.900000E-01   1.00800           0
     47198 MEMB     67       PPPE     C3       CTL2     0.800000E-01   12.0110           0
     47199 MEMB     67       PPPE     HX       HAL2     0.900000E-01   1.00800           0
     47200 MEMB     67       PPPE     HY       HAL2     0.900000E-01   1.00800           0
     47201 MEMB     67       PPPE     O31      OSL     -0.490000       15.9994           0
     47202 MEMB     67       PPPE     C31      CL       0.900000       12.0110           0
     47203 MEMB     67       PPPE     O32      OBL     -0.630000       15.9994           0
     47204 MEMB     67       PPPE     C32      CTL2    -0.220000       12.0110           0
     47205 MEMB     67       PPPE     H2X      HAL2     0.900000E-01   1.00800           0
     47206 MEMB     67       PPPE     H2Y      HAL2     0.900000E-01   1.00800           0
     47207 MEMB     67       PPPE     C23      CTL2    -0.180000       12.0110           0
     47208 MEMB     67       PPPE     H3R      HAL2     0.900000E-01   1.00800           0
     47209 MEMB     67       PPPE     H3S      HAL2     0.900000E-01   1.00800           0
     47210 MEMB     67       PPPE     C24      CTL2    -0.180000       12.0110           0
     47211 MEMB     67       PPPE     H4R      HAL2     0.900000E-01   1.00800           0
     47212 MEMB     67       PPPE     H4S      HAL2     0.900000E-01   1.00800           0
     47213 MEMB     67       PPPE     C25      CTL2    -0.180000       12.0110           0
     47214 MEMB     67       PPPE     H5R      HAL2     0.900000E-01   1.00800           0
     47215 MEMB     67       PPPE     H5S      HAL2     0.900000E-01   1.00800           0
     47216 MEMB     67       PPPE     C26      CTL2    -0.180000       12.0110           0
     47217 MEMB     67       PPPE     H6R      HAL2     0.900000E-01   1.00800           0
     47218 MEMB     67       PPPE     H6S      HAL2     0.900000E-01   1.00800           0
     47219 MEMB     67       PPPE     C27      CTL2    -0.180000       12.0110           0
     47220 MEMB     67       PPPE     H7R      HAL2     0.900000E-01   1.00800           0
     47221 MEMB     67       PPPE     H7S      HAL2     0.900000E-01   1.00800           0
     47222 MEMB     67       PPPE     C28      CTL2    -0.180000       12.0110           0
     47223 MEMB     67       PPPE     H8R      HAL2     0.900000E-01   1.00800           0
     47224 MEMB     67       PPPE     H8S      HAL2     0.900000E-01   1.00800           0
     47225 MEMB     67       PPPE     C29      CEL1    -0.150000       12.0110           0
     47226 MEMB     67       PPPE     H91      HEL1     0.150000       1.00800           0
     47227 MEMB     67       PPPE     C210     CEL1    -0.150000       12.0110           0
     47228 MEMB     67       PPPE     H101     HEL1     0.150000       1.00800           0
     47229 MEMB     67       PPPE     C211     CTL2    -0.180000       12.0110           0
     47230 MEMB     67       PPPE     H11R     HAL2     0.900000E-01   1.00800           0
     47231 MEMB     67       PPPE     H11S     HAL2     0.900000E-01   1.00800           0
     47232 MEMB     67       PPPE     C212     CTL2    -0.180000       12.0110           0
     47233 MEMB     67       PPPE     H12R     HAL2     0.900000E-01   1.00800           0
     47234 MEMB     67       PPPE     H12S     HAL2     0.900000E-01   1.00800           0
     47235 MEMB     67       PPPE     C213     CTL2    -0.180000       12.0110           0
     47236 MEMB     67       PPPE     H13R     HAL2     0.900000E-01   1.00800           0
     47237 MEMB     67       PPPE     H13S     HAL2     0.900000E-01   1.00800           0
     47238 MEMB     67       PPPE     C214     CTL2    -0.180000       12.0110           0
     47239 MEMB     67       PPPE     H14R     HAL2     0.900000E-01   1.00800           0
     47240 MEMB     67       PPPE     H14S     HAL2     0.900000E-01   1.00800           0
     47241 MEMB     67       PPPE     C215     CTL2    -0.180000       12.0110           0
     47242 MEMB     67       PPPE     H15R     HAL2     0.900000E-01   1.00800           0
     47243 MEMB     67       PPPE     H15S     HAL2     0.900000E-01   1.00800           0
     47244 MEMB     67       PPPE     C216     CTL3    -0.270000       12.0110           0
     47245 MEMB     67       PPPE     H16R     HAL3     0.900000E-01   1.00800           0
     47246 MEMB     67       PPPE     H16S     HAL3     0.900000E-01   1.00800           0
     47247 MEMB     67       PPPE     H16T     HAL3     0.900000E-01   1.00800           0
     47248 MEMB     67       PPPE     C33      CTL2    -0.180000       12.0110           0
     47249 MEMB     67       PPPE     H3X      HAL2     0.900000E-01   1.00800           0
     47250 MEMB     67       PPPE     H3Y      HAL2     0.900000E-01   1.00800           0
     47251 MEMB     67       PPPE     C34      CTL2    -0.180000       12.0110           0
     47252 MEMB     67       PPPE     H4X      HAL2     0.900000E-01   1.00800           0
     47253 MEMB     67       PPPE     H4Y      HAL2     0.900000E-01   1.00800           0
     47254 MEMB     67       PPPE     C35      CTL2    -0.180000       12.0110           0
     47255 MEMB     67       PPPE     H5X      HAL2     0.900000E-01   1.00800           0
     47256 MEMB     67       PPPE     H5Y      HAL2     0.900000E-01   1.00800           0
     47257 MEMB     67       PPPE     C36      CTL2    -0.180000       12.0110           0
     47258 MEMB     67       PPPE     H6X      HAL2     0.900000E-01   1.00800           0
     47259 MEMB     67       PPPE     H6Y      HAL2     0.900000E-01   1.00800           0
     47260 MEMB     67       PPPE     C37      CTL2    -0.180000       12.0110           0
     47261 MEMB     67       PPPE     H7X      HAL2     0.900000E-01   1.00800           0
     47262 MEMB     67       PPPE     H7Y      HAL2     0.900000E-01   1.00800           0
     47263 MEMB     67       PPPE     C38      CTL2    -0.180000       12.0110           0
     47264 MEMB     67       PPPE     H8X      HAL2     0.900000E-01   1.00800           0
     47265 MEMB     67       PPPE     H8Y      HAL2     0.900000E-01   1.00800           0
     47266 MEMB     67       PPPE     C39      CTL2    -0.180000       12.0110           0
     47267 MEMB     67       PPPE     H9X      HAL2     0.900000E-01   1.00800           0
     47268 MEMB     67       PPPE     H9Y      HAL2     0.900000E-01   1.00800           0
     47269 MEMB     67       PPPE     C310     CTL2    -0.180000       12.0110           0
     47270 MEMB     67       PPPE     H10X     HAL2     0.900000E-01   1.00800           0
     47271 MEMB     67       PPPE     H10Y     HAL2     0.900000E-01   1.00800           0
     47272 MEMB     67       PPPE     C311     CTL2    -0.180000       12.0110           0
     47273 MEMB     67       PPPE     H11X     HAL2     0.900000E-01   1.00800           0
     47274 MEMB     67       PPPE     H11Y     HAL2     0.900000E-01   1.00800           0
     47275 MEMB     67       PPPE     C312     CTL2    -0.180000       12.0110           0
     47276 MEMB     67       PPPE     H12X     HAL2     0.900000E-01   1.00800           0
     47277 MEMB     67       PPPE     H12Y     HAL2     0.900000E-01   1.00800           0
     47278 MEMB     67       PPPE     C313     CTL2    -0.180000       12.0110           0
     47279 MEMB     67       PPPE     H13X     HAL2     0.900000E-01   1.00800           0
     47280 MEMB     67       PPPE     H13Y     HAL2     0.900000E-01   1.00800           0
     47281 MEMB     67       PPPE     C314     CTL2    -0.180000       12.0110           0
     47282 MEMB     67       PPPE     H14X     HAL2     0.900000E-01   1.00800           0
     47283 MEMB     67       PPPE     H14Y     HAL2     0.900000E-01   1.00800           0
     47284 MEMB     67       PPPE     C315     CTL2    -0.180000       12.0110           0
     47285 MEMB     67       PPPE     H15X     HAL2     0.900000E-01   1.00800           0
     47286 MEMB     67       PPPE     H15Y     HAL2     0.900000E-01   1.00800           0
     47287 MEMB     67       PPPE     C316     CTL3    -0.270000       12.0110           0
     47288 MEMB     67       PPPE     H16X     HAL3     0.900000E-01   1.00800           0
     47289 MEMB     67       PPPE     H16Y     HAL3     0.900000E-01   1.00800           0
     47290 MEMB     67       PPPE     H16Z     HAL3     0.900000E-01   1.00800           0
     47291 MEMB     68       PPPE     N        NH3L    -0.300000       14.0070           0
     47292 MEMB     68       PPPE     HN1      HCL      0.330000       1.00800           0
     47293 MEMB     68       PPPE     HN2      HCL      0.330000       1.00800           0
     47294 MEMB     68       PPPE     HN3      HCL      0.330000       1.00800           0
     47295 MEMB     68       PPPE     C12      CTL2     0.130000       12.0110           0
     47296 MEMB     68       PPPE     H12A     HAL2     0.900000E-01   1.00800           0
     47297 MEMB     68       PPPE     H12B     HAL2     0.900000E-01   1.00800           0
     47298 MEMB     68       PPPE     C11      CTL2    -0.800000E-01   12.0110           0
     47299 MEMB     68       PPPE     H11A     HAL2     0.900000E-01   1.00800           0
     47300 MEMB     68       PPPE     H11B     HAL2     0.900000E-01   1.00800           0
     47301 MEMB     68       PPPE     P        PL        1.50000       30.9740           0
     47302 MEMB     68       PPPE     O13      O2L     -0.780000       15.9994           0
     47303 MEMB     68       PPPE     O14      O2L     -0.780000       15.9994           0
     47304 MEMB     68       PPPE     O11      OSLP    -0.570000       15.9994           0
     47305 MEMB     68       PPPE     O12      OSLP    -0.570000       15.9994           0
     47306 MEMB     68       PPPE     C1       CTL2    -0.800000E-01   12.0110           0
     47307 MEMB     68       PPPE     HA       HAL2     0.900000E-01   1.00800           0
     47308 MEMB     68       PPPE     HB       HAL2     0.900000E-01   1.00800           0
     47309 MEMB     68       PPPE     C2       CTL1     0.170000       12.0110           0
     47310 MEMB     68       PPPE     HS       HAL1     0.900000E-01   1.00800           0
     47311 MEMB     68       PPPE     O21      OSL     -0.490000       15.9994           0
     47312 MEMB     68       PPPE     C21      CL       0.900000       12.0110           0
     47313 MEMB     68       PPPE     O22      OBL     -0.630000       15.9994           0
     47314 MEMB     68       PPPE     C22      CTL2    -0.220000       12.0110           0
     47315 MEMB     68       PPPE     H2R      HAL2     0.900000E-01   1.00800           0
     47316 MEMB     68       PPPE     H2S      HAL2     0.900000E-01   1.00800           0
     47317 MEMB     68       PPPE     C3       CTL2     0.800000E-01   12.0110           0
     47318 MEMB     68       PPPE     HX       HAL2     0.900000E-01   1.00800           0
     47319 MEMB     68       PPPE     HY       HAL2     0.900000E-01   1.00800           0
     47320 MEMB     68       PPPE     O31      OSL     -0.490000       15.9994           0
     47321 MEMB     68       PPPE     C31      CL       0.900000       12.0110           0
     47322 MEMB     68       PPPE     O32      OBL     -0.630000       15.9994           0
     47323 MEMB     68       PPPE     C32      CTL2    -0.220000       12.0110           0
     47324 MEMB     68       PPPE     H2X      HAL2     0.900000E-01   1.00800           0
     47325 MEMB     68       PPPE     H2Y      HAL2     0.900000E-01   1.00800           0
     47326 MEMB     68       PPPE     C23      CTL2    -0.180000       12.0110           0
     47327 MEMB     68       PPPE     H3R      HAL2     0.900000E-01   1.00800           0
     47328 MEMB     68       PPPE     H3S      HAL2     0.900000E-01   1.00800           0
     47329 MEMB     68       PPPE     C24      CTL2    -0.180000       12.0110           0
     47330 MEMB     68       PPPE     H4R      HAL2     0.900000E-01   1.00800           0
     47331 MEMB     68       PPPE     H4S      HAL2     0.900000E-01   1.00800           0
     47332 MEMB     68       PPPE     C25      CTL2    -0.180000       12.0110           0
     47333 MEMB     68       PPPE     H5R      HAL2     0.900000E-01   1.00800           0
     47334 MEMB     68       PPPE     H5S      HAL2     0.900000E-01   1.00800           0
     47335 MEMB     68       PPPE     C26      CTL2    -0.180000       12.0110           0
     47336 MEMB     68       PPPE     H6R      HAL2     0.900000E-01   1.00800           0
     47337 MEMB     68       PPPE     H6S      HAL2     0.900000E-01   1.00800           0
     47338 MEMB     68       PPPE     C27      CTL2    -0.180000       12.0110           0
     47339 MEMB     68       PPPE     H7R      HAL2     0.900000E-01   1.00800           0
     47340 MEMB     68       PPPE     H7S      HAL2     0.900000E-01   1.00800           0
     47341 MEMB     68       PPPE     C28      CTL2    -0.180000       12.0110           0
     47342 MEMB     68       PPPE     H8R      HAL2     0.900000E-01   1.00800           0
     47343 MEMB     68       PPPE     H8S      HAL2     0.900000E-01   1.00800           0
     47344 MEMB     68       PPPE     C29      CEL1    -0.150000       12.0110           0
     47345 MEMB     68       PPPE     H91      HEL1     0.150000       1.00800           0
     47346 MEMB     68       PPPE     C210     CEL1    -0.150000       12.0110           0
     47347 MEMB     68       PPPE     H101     HEL1     0.150000       1.00800           0
     47348 MEMB     68       PPPE     C211     CTL2    -0.180000       12.0110           0
     47349 MEMB     68       PPPE     H11R     HAL2     0.900000E-01   1.00800           0
     47350 MEMB     68       PPPE     H11S     HAL2     0.900000E-01   1.00800           0
     47351 MEMB     68       PPPE     C212     CTL2    -0.180000       12.0110           0
     47352 MEMB     68       PPPE     H12R     HAL2     0.900000E-01   1.00800           0
     47353 MEMB     68       PPPE     H12S     HAL2     0.900000E-01   1.00800           0
     47354 MEMB     68       PPPE     C213     CTL2    -0.180000       12.0110           0
     47355 MEMB     68       PPPE     H13R     HAL2     0.900000E-01   1.00800           0
     47356 MEMB     68       PPPE     H13S     HAL2     0.900000E-01   1.00800           0
     47357 MEMB     68       PPPE     C214     CTL2    -0.180000       12.0110           0
     47358 MEMB     68       PPPE     H14R     HAL2     0.900000E-01   1.00800           0
     47359 MEMB     68       PPPE     H14S     HAL2     0.900000E-01   1.00800           0
     47360 MEMB     68       PPPE     C215     CTL2    -0.180000       12.0110           0
     47361 MEMB     68       PPPE     H15R     HAL2     0.900000E-01   1.00800           0
     47362 MEMB     68       PPPE     H15S     HAL2     0.900000E-01   1.00800           0
     47363 MEMB     68       PPPE     C216     CTL3    -0.270000       12.0110           0
     47364 MEMB     68       PPPE     H16R     HAL3     0.900000E-01   1.00800           0
     47365 MEMB     68       PPPE     H16S     HAL3     0.900000E-01   1.00800           0
     47366 MEMB     68       PPPE     H16T     HAL3     0.900000E-01   1.00800           0
     47367 MEMB     68       PPPE     C33      CTL2    -0.180000       12.0110           0
     47368 MEMB     68       PPPE     H3X      HAL2     0.900000E-01   1.00800           0
     47369 MEMB     68       PPPE     H3Y      HAL2     0.900000E-01   1.00800           0
     47370 MEMB     68       PPPE     C34      CTL2    -0.180000       12.0110           0
     47371 MEMB     68       PPPE     H4X      HAL2     0.900000E-01   1.00800           0
     47372 MEMB     68       PPPE     H4Y      HAL2     0.900000E-01   1.00800           0
     47373 MEMB     68       PPPE     C35      CTL2    -0.180000       12.0110           0
     47374 MEMB     68       PPPE     H5X      HAL2     0.900000E-01   1.00800           0
     47375 MEMB     68       PPPE     H5Y      HAL2     0.900000E-01   1.00800           0
     47376 MEMB     68       PPPE     C36      CTL2    -0.180000       12.0110           0
     47377 MEMB     68       PPPE     H6X      HAL2     0.900000E-01   1.00800           0
     47378 MEMB     68       PPPE     H6Y      HAL2     0.900000E-01   1.00800           0
     47379 MEMB     68       PPPE     C37      CTL2    -0.180000       12.0110           0
     47380 MEMB     68       PPPE     H7X      HAL2     0.900000E-01   1.00800           0
     47381 MEMB     68       PPPE     H7Y      HAL2     0.900000E-01   1.00800           0
     47382 MEMB     68       PPPE     C38      CTL2    -0.180000       12.0110           0
     47383 MEMB     68       PPPE     H8X      HAL2     0.900000E-01   1.00800           0
     47384 MEMB     68       PPPE     H8Y      HAL2     0.900000E-01   1.00800           0
     47385 MEMB     68       PPPE     C39      CTL2    -0.180000       12.0110           0
     47386 MEMB     68       PPPE     H9X      HAL2     0.900000E-01   1.00800           0
     47387 MEMB     68       PPPE     H9Y      HAL2     0.900000E-01   1.00800           0
     47388 MEMB     68       PPPE     C310     CTL2    -0.180000       12.0110           0
     47389 MEMB     68       PPPE     H10X     HAL2     0.900000E-01   1.00800           0
     47390 MEMB     68       PPPE     H10Y     HAL2     0.900000E-01   1.00800           0
     47391 MEMB     68       PPPE     C311     CTL2    -0.180000       12.0110           0
     47392 MEMB     68       PPPE     H11X     HAL2     0.900000E-01   1.00800           0
     47393 MEMB     68       PPPE     H11Y     HAL2     0.900000E-01   1.00800           0
     47394 MEMB     68       PPPE     C312     CTL2    -0.180000       12.0110           0
     47395 MEMB     68       PPPE     H12X     HAL2     0.900000E-01   1.00800           0
     47396 MEMB     68       PPPE     H12Y     HAL2     0.900000E-01   1.00800           0
     47397 MEMB     68       PPPE     C313     CTL2    -0.180000       12.0110           0
     47398 MEMB     68       PPPE     H13X     HAL2     0.900000E-01   1.00800           0
     47399 MEMB     68       PPPE     H13Y     HAL2     0.900000E-01   1.00800           0
     47400 MEMB     68       PPPE     C314     CTL2    -0.180000       12.0110           0
     47401 MEMB     68       PPPE     H14X     HAL2     0.900000E-01   1.00800           0
     47402 MEMB     68       PPPE     H14Y     HAL2     0.900000E-01   1.00800           0
     47403 MEMB     68       PPPE     C315     CTL2    -0.180000       12.0110           0
     47404 MEMB     68       PPPE     H15X     HAL2     0.900000E-01   1.00800           0
     47405 MEMB     68       PPPE     H15Y     HAL2     0.900000E-01   1.00800           0
     47406 MEMB     68       PPPE     C316     CTL3    -0.270000       12.0110           0
     47407 MEMB     68       PPPE     H16X     HAL3     0.900000E-01   1.00800           0
     47408 MEMB     68       PPPE     H16Y     HAL3     0.900000E-01   1.00800           0
     47409 MEMB     68       PPPE     H16Z     HAL3     0.900000E-01   1.00800           0
     47410 MEMB     69       PPPE     N        NH3L    -0.300000       14.0070           0
     47411 MEMB     69       PPPE     HN1      HCL      0.330000       1.00800           0
     47412 MEMB     69       PPPE     HN2      HCL      0.330000       1.00800           0
     47413 MEMB     69       PPPE     HN3      HCL      0.330000       1.00800           0
     47414 MEMB     69       PPPE     C12      CTL2     0.130000       12.0110           0
     47415 MEMB     69       PPPE     H12A     HAL2     0.900000E-01   1.00800           0
     47416 MEMB     69       PPPE     H12B     HAL2     0.900000E-01   1.00800           0
     47417 MEMB     69       PPPE     C11      CTL2    -0.800000E-01   12.0110           0
     47418 MEMB     69       PPPE     H11A     HAL2     0.900000E-01   1.00800           0
     47419 MEMB     69       PPPE     H11B     HAL2     0.900000E-01   1.00800           0
     47420 MEMB     69       PPPE     P        PL        1.50000       30.9740           0
     47421 MEMB     69       PPPE     O13      O2L     -0.780000       15.9994           0
     47422 MEMB     69       PPPE     O14      O2L     -0.780000       15.9994           0
     47423 MEMB     69       PPPE     O11      OSLP    -0.570000       15.9994           0
     47424 MEMB     69       PPPE     O12      OSLP    -0.570000       15.9994           0
     47425 MEMB     69       PPPE     C1       CTL2    -0.800000E-01   12.0110           0
     47426 MEMB     69       PPPE     HA       HAL2     0.900000E-01   1.00800           0
     47427 MEMB     69       PPPE     HB       HAL2     0.900000E-01   1.00800           0
     47428 MEMB     69       PPPE     C2       CTL1     0.170000       12.0110           0
     47429 MEMB     69       PPPE     HS       HAL1     0.900000E-01   1.00800           0
     47430 MEMB     69       PPPE     O21      OSL     -0.490000       15.9994           0
     47431 MEMB     69       PPPE     C21      CL       0.900000       12.0110           0
     47432 MEMB     69       PPPE     O22      OBL     -0.630000       15.9994           0
     47433 MEMB     69       PPPE     C22      CTL2    -0.220000       12.0110           0
     47434 MEMB     69       PPPE     H2R      HAL2     0.900000E-01   1.00800           0
     47435 MEMB     69       PPPE     H2S      HAL2     0.900000E-01   1.00800           0
     47436 MEMB     69       PPPE     C3       CTL2     0.800000E-01   12.0110           0
     47437 MEMB     69       PPPE     HX       HAL2     0.900000E-01   1.00800           0
     47438 MEMB     69       PPPE     HY       HAL2     0.900000E-01   1.00800           0
     47439 MEMB     69       PPPE     O31      OSL     -0.490000       15.9994           0
     47440 MEMB     69       PPPE     C31      CL       0.900000       12.0110           0
     47441 MEMB     69       PPPE     O32      OBL     -0.630000       15.9994           0
     47442 MEMB     69       PPPE     C32      CTL2    -0.220000       12.0110           0
     47443 MEMB     69       PPPE     H2X      HAL2     0.900000E-01   1.00800           0
     47444 MEMB     69       PPPE     H2Y      HAL2     0.900000E-01   1.00800           0
     47445 MEMB     69       PPPE     C23      CTL2    -0.180000       12.0110           0
     47446 MEMB     69       PPPE     H3R      HAL2     0.900000E-01   1.00800           0
     47447 MEMB     69       PPPE     H3S      HAL2     0.900000E-01   1.00800           0
     47448 MEMB     69       PPPE     C24      CTL2    -0.180000       12.0110           0
     47449 MEMB     69       PPPE     H4R      HAL2     0.900000E-01   1.00800           0
     47450 MEMB     69       PPPE     H4S      HAL2     0.900000E-01   1.00800           0
     47451 MEMB     69       PPPE     C25      CTL2    -0.180000       12.0110           0
     47452 MEMB     69       PPPE     H5R      HAL2     0.900000E-01   1.00800           0
     47453 MEMB     69       PPPE     H5S      HAL2     0.900000E-01   1.00800           0
     47454 MEMB     69       PPPE     C26      CTL2    -0.180000       12.0110           0
     47455 MEMB     69       PPPE     H6R      HAL2     0.900000E-01   1.00800           0
     47456 MEMB     69       PPPE     H6S      HAL2     0.900000E-01   1.00800           0
     47457 MEMB     69       PPPE     C27      CTL2    -0.180000       12.0110           0
     47458 MEMB     69       PPPE     H7R      HAL2     0.900000E-01   1.00800           0
     47459 MEMB     69       PPPE     H7S      HAL2     0.900000E-01   1.00800           0
     47460 MEMB     69       PPPE     C28      CTL2    -0.180000       12.0110           0
     47461 MEMB     69       PPPE     H8R      HAL2     0.900000E-01   1.00800           0
     47462 MEMB     69       PPPE     H8S      HAL2     0.900000E-01   1.00800           0
     47463 MEMB     69       PPPE     C29      CEL1    -0.150000       12.0110           0
     47464 MEMB     69       PPPE     H91      HEL1     0.150000       1.00800           0
     47465 MEMB     69       PPPE     C210     CEL1    -0.150000       12.0110           0
     47466 MEMB     69       PPPE     H101     HEL1     0.150000       1.00800           0
     47467 MEMB     69       PPPE     C211     CTL2    -0.180000       12.0110           0
     47468 MEMB     69       PPPE     H11R     HAL2     0.900000E-01   1.00800           0
     47469 MEMB     69       PPPE     H11S     HAL2     0.900000E-01   1.00800           0
     47470 MEMB     69       PPPE     C212     CTL2    -0.180000       12.0110           0
     47471 MEMB     69       PPPE     H12R     HAL2     0.900000E-01   1.00800           0
     47472 MEMB     69       PPPE     H12S     HAL2     0.900000E-01   1.00800           0
     47473 MEMB     69       PPPE     C213     CTL2    -0.180000       12.0110           0
     47474 MEMB     69       PPPE     H13R     HAL2     0.900000E-01   1.00800           0
     47475 MEMB     69       PPPE     H13S     HAL2     0.900000E-01   1.00800           0
     47476 MEMB     69       PPPE     C214     CTL2    -0.180000       12.0110           0
     47477 MEMB     69       PPPE     H14R     HAL2     0.900000E-01   1.00800           0
     47478 MEMB     69       PPPE     H14S     HAL2     0.900000E-01   1.00800           0
     47479 MEMB     69       PPPE     C215     CTL2    -0.180000       12.0110           0
     47480 MEMB     69       PPPE     H15R     HAL2     0.900000E-01   1.00800           0
     47481 MEMB     69       PPPE     H15S     HAL2     0.900000E-01   1.00800           0
     47482 MEMB     69       PPPE     C216     CTL3    -0.270000       12.0110           0
     47483 MEMB     69       PPPE     H16R     HAL3     0.900000E-01   1.00800           0
     47484 MEMB     69       PPPE     H16S     HAL3     0.900000E-01   1.00800           0
     47485 MEMB     69       PPPE     H16T     HAL3     0.900000E-01   1.00800           0
     47486 MEMB     69       PPPE     C33      CTL2    -0.180000       12.0110           0
     47487 MEMB     69       PPPE     H3X      HAL2     0.900000E-01   1.00800           0
     47488 MEMB     69       PPPE     H3Y      HAL2     0.900000E-01   1.00800           0
     47489 MEMB     69       PPPE     C34      CTL2    -0.180000       12.0110           0
     47490 MEMB     69       PPPE     H4X      HAL2     0.900000E-01   1.00800           0
     47491 MEMB     69       PPPE     H4Y      HAL2     0.900000E-01   1.00800           0
     47492 MEMB     69       PPPE     C35      CTL2    -0.180000       12.0110           0
     47493 MEMB     69       PPPE     H5X      HAL2     0.900000E-01   1.00800           0
     47494 MEMB     69       PPPE     H5Y      HAL2     0.900000E-01   1.00800           0
     47495 MEMB     69       PPPE     C36      CTL2    -0.180000       12.0110           0
     47496 MEMB     69       PPPE     H6X      HAL2     0.900000E-01   1.00800           0
     47497 MEMB     69       PPPE     H6Y      HAL2     0.900000E-01   1.00800           0
     47498 MEMB     69       PPPE     C37      CTL2    -0.180000       12.0110           0
     47499 MEMB     69       PPPE     H7X      HAL2     0.900000E-01   1.00800           0
     47500 MEMB     69       PPPE     H7Y      HAL2     0.900000E-01   1.00800           0
     47501 MEMB     69       PPPE     C38      CTL2    -0.180000       12.0110           0
     47502 MEMB     69       PPPE     H8X      HAL2     0.900000E-01   1.00800           0
     47503 MEMB     69       PPPE     H8Y      HAL2     0.900000E-01   1.00800           0
     47504 MEMB     69       PPPE     C39      CTL2    -0.180000       12.0110           0
     47505 MEMB     69       PPPE     H9X      HAL2     0.900000E-01   1.00800           0
     47506 MEMB     69       PPPE     H9Y      HAL2     0.900000E-01   1.00800           0
     47507 MEMB     69       PPPE     C310     CTL2    -0.180000       12.0110           0
     47508 MEMB     69       PPPE     H10X     HAL2     0.900000E-01   1.00800           0
     47509 MEMB     69       PPPE     H10Y     HAL2     0.900000E-01   1.00800           0
     47510 MEMB     69       PPPE     C311     CTL2    -0.180000       12.0110           0
     47511 MEMB     69       PPPE     H11X     HAL2     0.900000E-01   1.00800           0
     47512 MEMB     69       PPPE     H11Y     HAL2     0.900000E-01   1.00800           0
     47513 MEMB     69       PPPE     C312     CTL2    -0.180000       12.0110           0
     47514 MEMB     69       PPPE     H12X     HAL2     0.900000E-01   1.00800           0
     47515 MEMB     69       PPPE     H12Y     HAL2     0.900000E-01   1.00800           0
     47516 MEMB     69       PPPE     C313     CTL2    -0.180000       12.0110           0
     47517 MEMB     69       PPPE     H13X     HAL2     0.900000E-01   1.00800           0
     47518 MEMB     69       PPPE     H13Y     HAL2     0.900000E-01   1.00800           0
     47519 MEMB     69       PPPE     C314     CTL2    -0.180000       12.0110           0
     47520 MEMB     69       PPPE     H14X     HAL2     0.900000E-01   1.00800           0
     47521 MEMB     69       PPPE     H14Y     HAL2     0.900000E-01   1.00800           0
     47522 MEMB     69       PPPE     C315     CTL2    -0.180000       12.0110           0
     47523 MEMB     69       PPPE     H15X     HAL2     0.900000E-01   1.00800           0
     47524 MEMB     69       PPPE     H15Y     HAL2     0.900000E-01   1.00800           0
     47525 MEMB     69       PPPE     C316     CTL3    -0.270000       12.0110           0
     47526 MEMB     69       PPPE     H16X     HAL3     0.900000E-01   1.00800           0
     47527 MEMB     69       PPPE     H16Y     HAL3     0.900000E-01   1.00800           0
     47528 MEMB     69       PPPE     H16Z     HAL3     0.900000E-01   1.00800           0
     47529 MEMB     70       PVPG     C13      CTL2     0.500000E-01   12.0110           0
     47530 MEMB     70       PVPG     H13A     HAL2     0.900000E-01   1.00800           0
     47531 MEMB     70       PVPG     H13B     HAL2     0.900000E-01   1.00800           0
     47532 MEMB     70       PVPG     OC3      OHL     -0.650000       15.9994           0
     47533 MEMB     70       PVPG     HO3      HOL      0.420000       1.00800           0
     47534 MEMB     70       PVPG     C12      CTL1     0.140000       12.0110           0
     47535 MEMB     70       PVPG     H12A     HAL1     0.900000E-01   1.00800           0
     47536 MEMB     70       PVPG     OC2      OHL     -0.650000       15.9994           0
     47537 MEMB     70       PVPG     HO2      HOL      0.420000       1.00800           0
     47538 MEMB     70       PVPG     C11      CTL2    -0.800000E-01   12.0110           0
     47539 MEMB     70       PVPG     H11A     HAL2     0.900000E-01   1.00800           0
     47540 MEMB     70       PVPG     H11B     HAL2     0.900000E-01   1.00800           0
     47541 MEMB     70       PVPG     P        PL        1.50000       30.9740           0
     47542 MEMB     70       PVPG     O13      O2L     -0.780000       15.9994           0
     47543 MEMB     70       PVPG     O14      O2L     -0.780000       15.9994           0
     47544 MEMB     70       PVPG     O12      OSLP    -0.570000       15.9994           0
     47545 MEMB     70       PVPG     O11      OSLP    -0.570000       15.9994           0
     47546 MEMB     70       PVPG     C1       CTL2    -0.800000E-01   12.0110           0
     47547 MEMB     70       PVPG     HA       HAL2     0.900000E-01   1.00800           0
     47548 MEMB     70       PVPG     HB       HAL2     0.900000E-01   1.00800           0
     47549 MEMB     70       PVPG     C2       CTL1     0.170000       12.0110           0
     47550 MEMB     70       PVPG     HS       HAL1     0.900000E-01   1.00800           0
     47551 MEMB     70       PVPG     O21      OSL     -0.490000       15.9994           0
     47552 MEMB     70       PVPG     C21      CL       0.900000       12.0110           0
     47553 MEMB     70       PVPG     O22      OBL     -0.630000       15.9994           0
     47554 MEMB     70       PVPG     C22      CTL2    -0.220000       12.0110           0
     47555 MEMB     70       PVPG     H2R      HAL2     0.900000E-01   1.00800           0
     47556 MEMB     70       PVPG     H2S      HAL2     0.900000E-01   1.00800           0
     47557 MEMB     70       PVPG     C3       CTL2     0.800000E-01   12.0110           0
     47558 MEMB     70       PVPG     HX       HAL2     0.900000E-01   1.00800           0
     47559 MEMB     70       PVPG     HY       HAL2     0.900000E-01   1.00800           0
     47560 MEMB     70       PVPG     O31      OSL     -0.490000       15.9994           0
     47561 MEMB     70       PVPG     C31      CL       0.900000       12.0110           0
     47562 MEMB     70       PVPG     O32      OBL     -0.630000       15.9994           0
     47563 MEMB     70       PVPG     C32      CTL2    -0.220000       12.0110           0
     47564 MEMB     70       PVPG     H2X      HAL2     0.900000E-01   1.00800           0
     47565 MEMB     70       PVPG     H2Y      HAL2     0.900000E-01   1.00800           0
     47566 MEMB     70       PVPG     C23      CTL2    -0.180000       12.0110           0
     47567 MEMB     70       PVPG     H3R      HAL2     0.900000E-01   1.00800           0
     47568 MEMB     70       PVPG     H3S      HAL2     0.900000E-01   1.00800           0
     47569 MEMB     70       PVPG     C24      CTL2    -0.180000       12.0110           0
     47570 MEMB     70       PVPG     H4R      HAL2     0.900000E-01   1.00800           0
     47571 MEMB     70       PVPG     H4S      HAL2     0.900000E-01   1.00800           0
     47572 MEMB     70       PVPG     C25      CTL2    -0.180000       12.0110           0
     47573 MEMB     70       PVPG     H5R      HAL2     0.900000E-01   1.00800           0
     47574 MEMB     70       PVPG     H5S      HAL2     0.900000E-01   1.00800           0
     47575 MEMB     70       PVPG     C26      CTL2    -0.180000       12.0110           0
     47576 MEMB     70       PVPG     H6R      HAL2     0.900000E-01   1.00800           0
     47577 MEMB     70       PVPG     H6S      HAL2     0.900000E-01   1.00800           0
     47578 MEMB     70       PVPG     C27      CTL2    -0.180000       12.0110           0
     47579 MEMB     70       PVPG     H7R      HAL2     0.900000E-01   1.00800           0
     47580 MEMB     70       PVPG     H7S      HAL2     0.900000E-01   1.00800           0
     47581 MEMB     70       PVPG     C28      CTL2    -0.180000       12.0110           0
     47582 MEMB     70       PVPG     H8R      HAL2     0.900000E-01   1.00800           0
     47583 MEMB     70       PVPG     H8S      HAL2     0.900000E-01   1.00800           0
     47584 MEMB     70       PVPG     C29      CTL2    -0.180000       12.0110           0
     47585 MEMB     70       PVPG     H9R      HAL2     0.900000E-01   1.00800           0
     47586 MEMB     70       PVPG     H9S      HAL2     0.900000E-01   1.00800           0
     47587 MEMB     70       PVPG     C210     CTL2    -0.180000       12.0110           0
     47588 MEMB     70       PVPG     H10R     HAL2     0.900000E-01   1.00800           0
     47589 MEMB     70       PVPG     H10S     HAL2     0.900000E-01   1.00800           0
     47590 MEMB     70       PVPG     C211     CEL1    -0.150000       12.0110           0
     47591 MEMB     70       PVPG     H111     HEL1     0.150000       1.00800           0
     47592 MEMB     70       PVPG     C212     CEL1    -0.150000       12.0110           0
     47593 MEMB     70       PVPG     H121     HEL1     0.150000       1.00800           0
     47594 MEMB     70       PVPG     C213     CTL2    -0.180000       12.0110           0
     47595 MEMB     70       PVPG     H13R     HAL2     0.900000E-01   1.00800           0
     47596 MEMB     70       PVPG     H13S     HAL2     0.900000E-01   1.00800           0
     47597 MEMB     70       PVPG     C214     CTL2    -0.180000       12.0110           0
     47598 MEMB     70       PVPG     H14R     HAL2     0.900000E-01   1.00800           0
     47599 MEMB     70       PVPG     H14S     HAL2     0.900000E-01   1.00800           0
     47600 MEMB     70       PVPG     C215     CTL2    -0.180000       12.0110           0
     47601 MEMB     70       PVPG     H15R     HAL2     0.900000E-01   1.00800           0
     47602 MEMB     70       PVPG     H15S     HAL2     0.900000E-01   1.00800           0
     47603 MEMB     70       PVPG     C216     CTL2    -0.180000       12.0110           0
     47604 MEMB     70       PVPG     H16R     HAL2     0.900000E-01   1.00800           0
     47605 MEMB     70       PVPG     H16S     HAL2     0.900000E-01   1.00800           0
     47606 MEMB     70       PVPG     C217     CTL2    -0.180000       12.0110           0
     47607 MEMB     70       PVPG     H17R     HAL2     0.900000E-01   1.00800           0
     47608 MEMB     70       PVPG     H17S     HAL2     0.900000E-01   1.00800           0
     47609 MEMB     70       PVPG     C218     CTL3    -0.270000       12.0110           0
     47610 MEMB     70       PVPG     H18R     HAL3     0.900000E-01   1.00800           0
     47611 MEMB     70       PVPG     H18S     HAL3     0.900000E-01   1.00800           0
     47612 MEMB     70       PVPG     H18T     HAL3     0.900000E-01   1.00800           0
     47613 MEMB     70       PVPG     C33      CTL2    -0.180000       12.0110           0
     47614 MEMB     70       PVPG     H3X      HAL2     0.900000E-01   1.00800           0
     47615 MEMB     70       PVPG     H3Y      HAL2     0.900000E-01   1.00800           0
     47616 MEMB     70       PVPG     C34      CTL2    -0.180000       12.0110           0
     47617 MEMB     70       PVPG     H4X      HAL2     0.900000E-01   1.00800           0
     47618 MEMB     70       PVPG     H4Y      HAL2     0.900000E-01   1.00800           0
     47619 MEMB     70       PVPG     C35      CTL2    -0.180000       12.0110           0
     47620 MEMB     70       PVPG     H5X      HAL2     0.900000E-01   1.00800           0
     47621 MEMB     70       PVPG     H5Y      HAL2     0.900000E-01   1.00800           0
     47622 MEMB     70       PVPG     C36      CTL2    -0.180000       12.0110           0
     47623 MEMB     70       PVPG     H6X      HAL2     0.900000E-01   1.00800           0
     47624 MEMB     70       PVPG     H6Y      HAL2     0.900000E-01   1.00800           0
     47625 MEMB     70       PVPG     C37      CTL2    -0.180000       12.0110           0
     47626 MEMB     70       PVPG     H7X      HAL2     0.900000E-01   1.00800           0
     47627 MEMB     70       PVPG     H7Y      HAL2     0.900000E-01   1.00800           0
     47628 MEMB     70       PVPG     C38      CTL2    -0.180000       12.0110           0
     47629 MEMB     70       PVPG     H8X      HAL2     0.900000E-01   1.00800           0
     47630 MEMB     70       PVPG     H8Y      HAL2     0.900000E-01   1.00800           0
     47631 MEMB     70       PVPG     C39      CTL2    -0.180000       12.0110           0
     47632 MEMB     70       PVPG     H9X      HAL2     0.900000E-01   1.00800           0
     47633 MEMB     70       PVPG     H9Y      HAL2     0.900000E-01   1.00800           0
     47634 MEMB     70       PVPG     C310     CTL2    -0.180000       12.0110           0
     47635 MEMB     70       PVPG     H10X     HAL2     0.900000E-01   1.00800           0
     47636 MEMB     70       PVPG     H10Y     HAL2     0.900000E-01   1.00800           0
     47637 MEMB     70       PVPG     C311     CTL2    -0.180000       12.0110           0
     47638 MEMB     70       PVPG     H11X     HAL2     0.900000E-01   1.00800           0
     47639 MEMB     70       PVPG     H11Y     HAL2     0.900000E-01   1.00800           0
     47640 MEMB     70       PVPG     C312     CTL2    -0.180000       12.0110           0
     47641 MEMB     70       PVPG     H12X     HAL2     0.900000E-01   1.00800           0
     47642 MEMB     70       PVPG     H12Y     HAL2     0.900000E-01   1.00800           0
     47643 MEMB     70       PVPG     C313     CTL2    -0.180000       12.0110           0
     47644 MEMB     70       PVPG     H13X     HAL2     0.900000E-01   1.00800           0
     47645 MEMB     70       PVPG     H13Y     HAL2     0.900000E-01   1.00800           0
     47646 MEMB     70       PVPG     C314     CTL2    -0.180000       12.0110           0
     47647 MEMB     70       PVPG     H14X     HAL2     0.900000E-01   1.00800           0
     47648 MEMB     70       PVPG     H14Y     HAL2     0.900000E-01   1.00800           0
     47649 MEMB     70       PVPG     C315     CTL2    -0.180000       12.0110           0
     47650 MEMB     70       PVPG     H15X     HAL2     0.900000E-01   1.00800           0
     47651 MEMB     70       PVPG     H15Y     HAL2     0.900000E-01   1.00800           0
     47652 MEMB     70       PVPG     C316     CTL3    -0.270000       12.0110           0
     47653 MEMB     70       PVPG     H16X     HAL3     0.900000E-01   1.00800           0
     47654 MEMB     70       PVPG     H16Y     HAL3     0.900000E-01   1.00800           0
     47655 MEMB     70       PVPG     H16Z     HAL3     0.900000E-01   1.00800           0
     47656 MEMB     71       PPPE     N        NH3L    -0.300000       14.0070           0
     47657 MEMB     71       PPPE     HN1      HCL      0.330000       1.00800           0
     47658 MEMB     71       PPPE     HN2      HCL      0.330000       1.00800           0
     47659 MEMB     71       PPPE     HN3      HCL      0.330000       1.00800           0
     47660 MEMB     71       PPPE     C12      CTL2     0.130000       12.0110           0
     47661 MEMB     71       PPPE     H12A     HAL2     0.900000E-01   1.00800           0
     47662 MEMB     71       PPPE     H12B     HAL2     0.900000E-01   1.00800           0
     47663 MEMB     71       PPPE     C11      CTL2    -0.800000E-01   12.0110           0
     47664 MEMB     71       PPPE     H11A     HAL2     0.900000E-01   1.00800           0
     47665 MEMB     71       PPPE     H11B     HAL2     0.900000E-01   1.00800           0
     47666 MEMB     71       PPPE     P        PL        1.50000       30.9740           0
     47667 MEMB     71       PPPE     O13      O2L     -0.780000       15.9994           0
     47668 MEMB     71       PPPE     O14      O2L     -0.780000       15.9994           0
     47669 MEMB     71       PPPE     O11      OSLP    -0.570000       15.9994           0
     47670 MEMB     71       PPPE     O12      OSLP    -0.570000       15.9994           0
     47671 MEMB     71       PPPE     C1       CTL2    -0.800000E-01   12.0110           0
     47672 MEMB     71       PPPE     HA       HAL2     0.900000E-01   1.00800           0
     47673 MEMB     71       PPPE     HB       HAL2     0.900000E-01   1.00800           0
     47674 MEMB     71       PPPE     C2       CTL1     0.170000       12.0110           0
     47675 MEMB     71       PPPE     HS       HAL1     0.900000E-01   1.00800           0
     47676 MEMB     71       PPPE     O21      OSL     -0.490000       15.9994           0
     47677 MEMB     71       PPPE     C21      CL       0.900000       12.0110           0
     47678 MEMB     71       PPPE     O22      OBL     -0.630000       15.9994           0
     47679 MEMB     71       PPPE     C22      CTL2    -0.220000       12.0110           0
     47680 MEMB     71       PPPE     H2R      HAL2     0.900000E-01   1.00800           0
     47681 MEMB     71       PPPE     H2S      HAL2     0.900000E-01   1.00800           0
     47682 MEMB     71       PPPE     C3       CTL2     0.800000E-01   12.0110           0
     47683 MEMB     71       PPPE     HX       HAL2     0.900000E-01   1.00800           0
     47684 MEMB     71       PPPE     HY       HAL2     0.900000E-01   1.00800           0
     47685 MEMB     71       PPPE     O31      OSL     -0.490000       15.9994           0
     47686 MEMB     71       PPPE     C31      CL       0.900000       12.0110           0
     47687 MEMB     71       PPPE     O32      OBL     -0.630000       15.9994           0
     47688 MEMB     71       PPPE     C32      CTL2    -0.220000       12.0110           0
     47689 MEMB     71       PPPE     H2X      HAL2     0.900000E-01   1.00800           0
     47690 MEMB     71       PPPE     H2Y      HAL2     0.900000E-01   1.00800           0
     47691 MEMB     71       PPPE     C23      CTL2    -0.180000       12.0110           0
     47692 MEMB     71       PPPE     H3R      HAL2     0.900000E-01   1.00800           0
     47693 MEMB     71       PPPE     H3S      HAL2     0.900000E-01   1.00800           0
     47694 MEMB     71       PPPE     C24      CTL2    -0.180000       12.0110           0
     47695 MEMB     71       PPPE     H4R      HAL2     0.900000E-01   1.00800           0
     47696 MEMB     71       PPPE     H4S      HAL2     0.900000E-01   1.00800           0
     47697 MEMB     71       PPPE     C25      CTL2    -0.180000       12.0110           0
     47698 MEMB     71       PPPE     H5R      HAL2     0.900000E-01   1.00800           0
     47699 MEMB     71       PPPE     H5S      HAL2     0.900000E-01   1.00800           0
     47700 MEMB     71       PPPE     C26      CTL2    -0.180000       12.0110           0
     47701 MEMB     71       PPPE     H6R      HAL2     0.900000E-01   1.00800           0
     47702 MEMB     71       PPPE     H6S      HAL2     0.900000E-01   1.00800           0
     47703 MEMB     71       PPPE     C27      CTL2    -0.180000       12.0110           0
     47704 MEMB     71       PPPE     H7R      HAL2     0.900000E-01   1.00800           0
     47705 MEMB     71       PPPE     H7S      HAL2     0.900000E-01   1.00800           0
     47706 MEMB     71       PPPE     C28      CTL2    -0.180000       12.0110           0
     47707 MEMB     71       PPPE     H8R      HAL2     0.900000E-01   1.00800           0
     47708 MEMB     71       PPPE     H8S      HAL2     0.900000E-01   1.00800           0
     47709 MEMB     71       PPPE     C29      CEL1    -0.150000       12.0110           0
     47710 MEMB     71       PPPE     H91      HEL1     0.150000       1.00800           0
     47711 MEMB     71       PPPE     C210     CEL1    -0.150000       12.0110           0
     47712 MEMB     71       PPPE     H101     HEL1     0.150000       1.00800           0
     47713 MEMB     71       PPPE     C211     CTL2    -0.180000       12.0110           0
     47714 MEMB     71       PPPE     H11R     HAL2     0.900000E-01   1.00800           0
     47715 MEMB     71       PPPE     H11S     HAL2     0.900000E-01   1.00800           0
     47716 MEMB     71       PPPE     C212     CTL2    -0.180000       12.0110           0
     47717 MEMB     71       PPPE     H12R     HAL2     0.900000E-01   1.00800           0
     47718 MEMB     71       PPPE     H12S     HAL2     0.900000E-01   1.00800           0
     47719 MEMB     71       PPPE     C213     CTL2    -0.180000       12.0110           0
     47720 MEMB     71       PPPE     H13R     HAL2     0.900000E-01   1.00800           0
     47721 MEMB     71       PPPE     H13S     HAL2     0.900000E-01   1.00800           0
     47722 MEMB     71       PPPE     C214     CTL2    -0.180000       12.0110           0
     47723 MEMB     71       PPPE     H14R     HAL2     0.900000E-01   1.00800           0
     47724 MEMB     71       PPPE     H14S     HAL2     0.900000E-01   1.00800           0
     47725 MEMB     71       PPPE     C215     CTL2    -0.180000       12.0110           0
     47726 MEMB     71       PPPE     H15R     HAL2     0.900000E-01   1.00800           0
     47727 MEMB     71       PPPE     H15S     HAL2     0.900000E-01   1.00800           0
     47728 MEMB     71       PPPE     C216     CTL3    -0.270000       12.0110           0
     47729 MEMB     71       PPPE     H16R     HAL3     0.900000E-01   1.00800           0
     47730 MEMB     71       PPPE     H16S     HAL3     0.900000E-01   1.00800           0
     47731 MEMB     71       PPPE     H16T     HAL3     0.900000E-01   1.00800           0
     47732 MEMB     71       PPPE     C33      CTL2    -0.180000       12.0110           0
     47733 MEMB     71       PPPE     H3X      HAL2     0.900000E-01   1.00800           0
     47734 MEMB     71       PPPE     H3Y      HAL2     0.900000E-01   1.00800           0
     47735 MEMB     71       PPPE     C34      CTL2    -0.180000       12.0110           0
     47736 MEMB     71       PPPE     H4X      HAL2     0.900000E-01   1.00800           0
     47737 MEMB     71       PPPE     H4Y      HAL2     0.900000E-01   1.00800           0
     47738 MEMB     71       PPPE     C35      CTL2    -0.180000       12.0110           0
     47739 MEMB     71       PPPE     H5X      HAL2     0.900000E-01   1.00800           0
     47740 MEMB     71       PPPE     H5Y      HAL2     0.900000E-01   1.00800           0
     47741 MEMB     71       PPPE     C36      CTL2    -0.180000       12.0110           0
     47742 MEMB     71       PPPE     H6X      HAL2     0.900000E-01   1.00800           0
     47743 MEMB     71       PPPE     H6Y      HAL2     0.900000E-01   1.00800           0
     47744 MEMB     71       PPPE     C37      CTL2    -0.180000       12.0110           0
     47745 MEMB     71       PPPE     H7X      HAL2     0.900000E-01   1.00800           0
     47746 MEMB     71       PPPE     H7Y      HAL2     0.900000E-01   1.00800           0
     47747 MEMB     71       PPPE     C38      CTL2    -0.180000       12.0110           0
     47748 MEMB     71       PPPE     H8X      HAL2     0.900000E-01   1.00800           0
     47749 MEMB     71       PPPE     H8Y      HAL2     0.900000E-01   1.00800           0
     47750 MEMB     71       PPPE     C39      CTL2    -0.180000       12.0110           0
     47751 MEMB     71       PPPE     H9X      HAL2     0.900000E-01   1.00800           0
     47752 MEMB     71       PPPE     H9Y      HAL2     0.900000E-01   1.00800           0
     47753 MEMB     71       PPPE     C310     CTL2    -0.180000       12.0110           0
     47754 MEMB     71       PPPE     H10X     HAL2     0.900000E-01   1.00800           0
     47755 MEMB     71       PPPE     H10Y     HAL2     0.900000E-01   1.00800           0
     47756 MEMB     71       PPPE     C311     CTL2    -0.180000       12.0110           0
     47757 MEMB     71       PPPE     H11X     HAL2     0.900000E-01   1.00800           0
     47758 MEMB     71       PPPE     H11Y     HAL2     0.900000E-01   1.00800           0
     47759 MEMB     71       PPPE     C312     CTL2    -0.180000       12.0110           0
     47760 MEMB     71       PPPE     H12X     HAL2     0.900000E-01   1.00800           0
     47761 MEMB     71       PPPE     H12Y     HAL2     0.900000E-01   1.00800           0
     47762 MEMB     71       PPPE     C313     CTL2    -0.180000       12.0110           0
     47763 MEMB     71       PPPE     H13X     HAL2     0.900000E-01   1.00800           0
     47764 MEMB     71       PPPE     H13Y     HAL2     0.900000E-01   1.00800           0
     47765 MEMB     71       PPPE     C314     CTL2    -0.180000       12.0110           0
     47766 MEMB     71       PPPE     H14X     HAL2     0.900000E-01   1.00800           0
     47767 MEMB     71       PPPE     H14Y     HAL2     0.900000E-01   1.00800           0
     47768 MEMB     71       PPPE     C315     CTL2    -0.180000       12.0110           0
     47769 MEMB     71       PPPE     H15X     HAL2     0.900000E-01   1.00800           0
     47770 MEMB     71       PPPE     H15Y     HAL2     0.900000E-01   1.00800           0
     47771 MEMB     71       PPPE     C316     CTL3    -0.270000       12.0110           0
     47772 MEMB     71       PPPE     H16X     HAL3     0.900000E-01   1.00800           0
     47773 MEMB     71       PPPE     H16Y     HAL3     0.900000E-01   1.00800           0
     47774 MEMB     71       PPPE     H16Z     HAL3     0.900000E-01   1.00800           0
     47775 MEMB     72       PVPG     C13      CTL2     0.500000E-01   12.0110           0
     47776 MEMB     72       PVPG     H13A     HAL2     0.900000E-01   1.00800           0
     47777 MEMB     72       PVPG     H13B     HAL2     0.900000E-01   1.00800           0
     47778 MEMB     72       PVPG     OC3      OHL     -0.650000       15.9994           0
     47779 MEMB     72       PVPG     HO3      HOL      0.420000       1.00800           0
     47780 MEMB     72       PVPG     C12      CTL1     0.140000       12.0110           0
     47781 MEMB     72       PVPG     H12A     HAL1     0.900000E-01   1.00800           0
     47782 MEMB     72       PVPG     OC2      OHL     -0.650000       15.9994           0
     47783 MEMB     72       PVPG     HO2      HOL      0.420000       1.00800           0
     47784 MEMB     72       PVPG     C11      CTL2    -0.800000E-01   12.0110           0
     47785 MEMB     72       PVPG     H11A     HAL2     0.900000E-01   1.00800           0
     47786 MEMB     72       PVPG     H11B     HAL2     0.900000E-01   1.00800           0
     47787 MEMB     72       PVPG     P        PL        1.50000       30.9740           0
     47788 MEMB     72       PVPG     O13      O2L     -0.780000       15.9994           0
     47789 MEMB     72       PVPG     O14      O2L     -0.780000       15.9994           0
     47790 MEMB     72       PVPG     O12      OSLP    -0.570000       15.9994           0
     47791 MEMB     72       PVPG     O11      OSLP    -0.570000       15.9994           0
     47792 MEMB     72       PVPG     C1       CTL2    -0.800000E-01   12.0110           0
     47793 MEMB     72       PVPG     HA       HAL2     0.900000E-01   1.00800           0
     47794 MEMB     72       PVPG     HB       HAL2     0.900000E-01   1.00800           0
     47795 MEMB     72       PVPG     C2       CTL1     0.170000       12.0110           0
     47796 MEMB     72       PVPG     HS       HAL1     0.900000E-01   1.00800           0
     47797 MEMB     72       PVPG     O21      OSL     -0.490000       15.9994           0
     47798 MEMB     72       PVPG     C21      CL       0.900000       12.0110           0
     47799 MEMB     72       PVPG     O22      OBL     -0.630000       15.9994           0
     47800 MEMB     72       PVPG     C22      CTL2    -0.220000       12.0110           0
     47801 MEMB     72       PVPG     H2R      HAL2     0.900000E-01   1.00800           0
     47802 MEMB     72       PVPG     H2S      HAL2     0.900000E-01   1.00800           0
     47803 MEMB     72       PVPG     C3       CTL2     0.800000E-01   12.0110           0
     47804 MEMB     72       PVPG     HX       HAL2     0.900000E-01   1.00800           0
     47805 MEMB     72       PVPG     HY       HAL2     0.900000E-01   1.00800           0
     47806 MEMB     72       PVPG     O31      OSL     -0.490000       15.9994           0
     47807 MEMB     72       PVPG     C31      CL       0.900000       12.0110           0
     47808 MEMB     72       PVPG     O32      OBL     -0.630000       15.9994           0
     47809 MEMB     72       PVPG     C32      CTL2    -0.220000       12.0110           0
     47810 MEMB     72       PVPG     H2X      HAL2     0.900000E-01   1.00800           0
     47811 MEMB     72       PVPG     H2Y      HAL2     0.900000E-01   1.00800           0
     47812 MEMB     72       PVPG     C23      CTL2    -0.180000       12.0110           0
     47813 MEMB     72       PVPG     H3R      HAL2     0.900000E-01   1.00800           0
     47814 MEMB     72       PVPG     H3S      HAL2     0.900000E-01   1.00800           0
     47815 MEMB     72       PVPG     C24      CTL2    -0.180000       12.0110           0
     47816 MEMB     72       PVPG     H4R      HAL2     0.900000E-01   1.00800           0
     47817 MEMB     72       PVPG     H4S      HAL2     0.900000E-01   1.00800           0
     47818 MEMB     72       PVPG     C25      CTL2    -0.180000       12.0110           0
     47819 MEMB     72       PVPG     H5R      HAL2     0.900000E-01   1.00800           0
     47820 MEMB     72       PVPG     H5S      HAL2     0.900000E-01   1.00800           0
     47821 MEMB     72       PVPG     C26      CTL2    -0.180000       12.0110           0
     47822 MEMB     72       PVPG     H6R      HAL2     0.900000E-01   1.00800           0
     47823 MEMB     72       PVPG     H6S      HAL2     0.900000E-01   1.00800           0
     47824 MEMB     72       PVPG     C27      CTL2    -0.180000       12.0110           0
     47825 MEMB     72       PVPG     H7R      HAL2     0.900000E-01   1.00800           0
     47826 MEMB     72       PVPG     H7S      HAL2     0.900000E-01   1.00800           0
     47827 MEMB     72       PVPG     C28      CTL2    -0.180000       12.0110           0
     47828 MEMB     72       PVPG     H8R      HAL2     0.900000E-01   1.00800           0
     47829 MEMB     72       PVPG     H8S      HAL2     0.900000E-01   1.00800           0
     47830 MEMB     72       PVPG     C29      CTL2    -0.180000       12.0110           0
     47831 MEMB     72       PVPG     H9R      HAL2     0.900000E-01   1.00800           0
     47832 MEMB     72       PVPG     H9S      HAL2     0.900000E-01   1.00800           0
     47833 MEMB     72       PVPG     C210     CTL2    -0.180000       12.0110           0
     47834 MEMB     72       PVPG     H10R     HAL2     0.900000E-01   1.00800           0
     47835 MEMB     72       PVPG     H10S     HAL2     0.900000E-01   1.00800           0
     47836 MEMB     72       PVPG     C211     CEL1    -0.150000       12.0110           0
     47837 MEMB     72       PVPG     H111     HEL1     0.150000       1.00800           0
     47838 MEMB     72       PVPG     C212     CEL1    -0.150000       12.0110           0
     47839 MEMB     72       PVPG     H121     HEL1     0.150000       1.00800           0
     47840 MEMB     72       PVPG     C213     CTL2    -0.180000       12.0110           0
     47841 MEMB     72       PVPG     H13R     HAL2     0.900000E-01   1.00800           0
     47842 MEMB     72       PVPG     H13S     HAL2     0.900000E-01   1.00800           0
     47843 MEMB     72       PVPG     C214     CTL2    -0.180000       12.0110           0
     47844 MEMB     72       PVPG     H14R     HAL2     0.900000E-01   1.00800           0
     47845 MEMB     72       PVPG     H14S     HAL2     0.900000E-01   1.00800           0
     47846 MEMB     72       PVPG     C215     CTL2    -0.180000       12.0110           0
     47847 MEMB     72       PVPG     H15R     HAL2     0.900000E-01   1.00800           0
     47848 MEMB     72       PVPG     H15S     HAL2     0.900000E-01   1.00800           0
     47849 MEMB     72       PVPG     C216     CTL2    -0.180000       12.0110           0
     47850 MEMB     72       PVPG     H16R     HAL2     0.900000E-01   1.00800           0
     47851 MEMB     72       PVPG     H16S     HAL2     0.900000E-01   1.00800           0
     47852 MEMB     72       PVPG     C217     CTL2    -0.180000       12.0110           0
     47853 MEMB     72       PVPG     H17R     HAL2     0.900000E-01   1.00800           0
     47854 MEMB     72       PVPG     H17S     HAL2     0.900000E-01   1.00800           0
     47855 MEMB     72       PVPG     C218     CTL3    -0.270000       12.0110           0
     47856 MEMB     72       PVPG     H18R     HAL3     0.900000E-01   1.00800           0
     47857 MEMB     72       PVPG     H18S     HAL3     0.900000E-01   1.00800           0
     47858 MEMB     72       PVPG     H18T     HAL3     0.900000E-01   1.00800           0
     47859 MEMB     72       PVPG     C33      CTL2    -0.180000       12.0110           0
     47860 MEMB     72       PVPG     H3X      HAL2     0.900000E-01   1.00800           0
     47861 MEMB     72       PVPG     H3Y      HAL2     0.900000E-01   1.00800           0
     47862 MEMB     72       PVPG     C34      CTL2    -0.180000       12.0110           0
     47863 MEMB     72       PVPG     H4X      HAL2     0.900000E-01   1.00800           0
     47864 MEMB     72       PVPG     H4Y      HAL2     0.900000E-01   1.00800           0
     47865 MEMB     72       PVPG     C35      CTL2    -0.180000       12.0110           0
     47866 MEMB     72       PVPG     H5X      HAL2     0.900000E-01   1.00800           0
     47867 MEMB     72       PVPG     H5Y      HAL2     0.900000E-01   1.00800           0
     47868 MEMB     72       PVPG     C36      CTL2    -0.180000       12.0110           0
     47869 MEMB     72       PVPG     H6X      HAL2     0.900000E-01   1.00800           0
     47870 MEMB     72       PVPG     H6Y      HAL2     0.900000E-01   1.00800           0
     47871 MEMB     72       PVPG     C37      CTL2    -0.180000       12.0110           0
     47872 MEMB     72       PVPG     H7X      HAL2     0.900000E-01   1.00800           0
     47873 MEMB     72       PVPG     H7Y      HAL2     0.900000E-01   1.00800           0
     47874 MEMB     72       PVPG     C38      CTL2    -0.180000       12.0110           0
     47875 MEMB     72       PVPG     H8X      HAL2     0.900000E-01   1.00800           0
     47876 MEMB     72       PVPG     H8Y      HAL2     0.900000E-01   1.00800           0
     47877 MEMB     72       PVPG     C39      CTL2    -0.180000       12.0110           0
     47878 MEMB     72       PVPG     H9X      HAL2     0.900000E-01   1.00800           0
     47879 MEMB     72       PVPG     H9Y      HAL2     0.900000E-01   1.00800           0
     47880 MEMB     72       PVPG     C310     CTL2    -0.180000       12.0110           0
     47881 MEMB     72       PVPG     H10X     HAL2     0.900000E-01   1.00800           0
     47882 MEMB     72       PVPG     H10Y     HAL2     0.900000E-01   1.00800           0
     47883 MEMB     72       PVPG     C311     CTL2    -0.180000       12.0110           0
     47884 MEMB     72       PVPG     H11X     HAL2     0.900000E-01   1.00800           0
     47885 MEMB     72       PVPG     H11Y     HAL2     0.900000E-01   1.00800           0
     47886 MEMB     72       PVPG     C312     CTL2    -0.180000       12.0110           0
     47887 MEMB     72       PVPG     H12X     HAL2     0.900000E-01   1.00800           0
     47888 MEMB     72       PVPG     H12Y     HAL2     0.900000E-01   1.00800           0
     47889 MEMB     72       PVPG     C313     CTL2    -0.180000       12.0110           0
     47890 MEMB     72       PVPG     H13X     HAL2     0.900000E-01   1.00800           0
     47891 MEMB     72       PVPG     H13Y     HAL2     0.900000E-01   1.00800           0
     47892 MEMB     72       PVPG     C314     CTL2    -0.180000       12.0110           0
     47893 MEMB     72       PVPG     H14X     HAL2     0.900000E-01   1.00800           0
     47894 MEMB     72       PVPG     H14Y     HAL2     0.900000E-01   1.00800           0
     47895 MEMB     72       PVPG     C315     CTL2    -0.180000       12.0110           0
     47896 MEMB     72       PVPG     H15X     HAL2     0.900000E-01   1.00800           0
     47897 MEMB     72       PVPG     H15Y     HAL2     0.900000E-01   1.00800           0
     47898 MEMB     72       PVPG     C316     CTL3    -0.270000       12.0110           0
     47899 MEMB     72       PVPG     H16X     HAL3     0.900000E-01   1.00800           0
     47900 MEMB     72       PVPG     H16Y     HAL3     0.900000E-01   1.00800           0
     47901 MEMB     72       PVPG     H16Z     HAL3     0.900000E-01   1.00800           0
     47902 MEMB     73       PVPG     C13      CTL2     0.500000E-01   12.0110           0
     47903 MEMB     73       PVPG     H13A     HAL2     0.900000E-01   1.00800           0
     47904 MEMB     73       PVPG     H13B     HAL2     0.900000E-01   1.00800           0
     47905 MEMB     73       PVPG     OC3      OHL     -0.650000       15.9994           0
     47906 MEMB     73       PVPG     HO3      HOL      0.420000       1.00800           0
     47907 MEMB     73       PVPG     C12      CTL1     0.140000       12.0110           0
     47908 MEMB     73       PVPG     H12A     HAL1     0.900000E-01   1.00800           0
     47909 MEMB     73       PVPG     OC2      OHL     -0.650000       15.9994           0
     47910 MEMB     73       PVPG     HO2      HOL      0.420000       1.00800           0
     47911 MEMB     73       PVPG     C11      CTL2    -0.800000E-01   12.0110           0
     47912 MEMB     73       PVPG     H11A     HAL2     0.900000E-01   1.00800           0
     47913 MEMB     73       PVPG     H11B     HAL2     0.900000E-01   1.00800           0
     47914 MEMB     73       PVPG     P        PL        1.50000       30.9740           0
     47915 MEMB     73       PVPG     O13      O2L     -0.780000       15.9994           0
     47916 MEMB     73       PVPG     O14      O2L     -0.780000       15.9994           0
     47917 MEMB     73       PVPG     O12      OSLP    -0.570000       15.9994           0
     47918 MEMB     73       PVPG     O11      OSLP    -0.570000       15.9994           0
     47919 MEMB     73       PVPG     C1       CTL2    -0.800000E-01   12.0110           0
     47920 MEMB     73       PVPG     HA       HAL2     0.900000E-01   1.00800           0
     47921 MEMB     73       PVPG     HB       HAL2     0.900000E-01   1.00800           0
     47922 MEMB     73       PVPG     C2       CTL1     0.170000       12.0110           0
     47923 MEMB     73       PVPG     HS       HAL1     0.900000E-01   1.00800           0
     47924 MEMB     73       PVPG     O21      OSL     -0.490000       15.9994           0
     47925 MEMB     73       PVPG     C21      CL       0.900000       12.0110           0
     47926 MEMB     73       PVPG     O22      OBL     -0.630000       15.9994           0
     47927 MEMB     73       PVPG     C22      CTL2    -0.220000       12.0110           0
     47928 MEMB     73       PVPG     H2R      HAL2     0.900000E-01   1.00800           0
     47929 MEMB     73       PVPG     H2S      HAL2     0.900000E-01   1.00800           0
     47930 MEMB     73       PVPG     C3       CTL2     0.800000E-01   12.0110           0
     47931 MEMB     73       PVPG     HX       HAL2     0.900000E-01   1.00800           0
     47932 MEMB     73       PVPG     HY       HAL2     0.900000E-01   1.00800           0
     47933 MEMB     73       PVPG     O31      OSL     -0.490000       15.9994           0
     47934 MEMB     73       PVPG     C31      CL       0.900000       12.0110           0
     47935 MEMB     73       PVPG     O32      OBL     -0.630000       15.9994           0
     47936 MEMB     73       PVPG     C32      CTL2    -0.220000       12.0110           0
     47937 MEMB     73       PVPG     H2X      HAL2     0.900000E-01   1.00800           0
     47938 MEMB     73       PVPG     H2Y      HAL2     0.900000E-01   1.00800           0
     47939 MEMB     73       PVPG     C23      CTL2    -0.180000       12.0110           0
     47940 MEMB     73       PVPG     H3R      HAL2     0.900000E-01   1.00800           0
     47941 MEMB     73       PVPG     H3S      HAL2     0.900000E-01   1.00800           0
     47942 MEMB     73       PVPG     C24      CTL2    -0.180000       12.0110           0
     47943 MEMB     73       PVPG     H4R      HAL2     0.900000E-01   1.00800           0
     47944 MEMB     73       PVPG     H4S      HAL2     0.900000E-01   1.00800           0
     47945 MEMB     73       PVPG     C25      CTL2    -0.180000       12.0110           0
     47946 MEMB     73       PVPG     H5R      HAL2     0.900000E-01   1.00800           0
     47947 MEMB     73       PVPG     H5S      HAL2     0.900000E-01   1.00800           0
     47948 MEMB     73       PVPG     C26      CTL2    -0.180000       12.0110           0
     47949 MEMB     73       PVPG     H6R      HAL2     0.900000E-01   1.00800           0
     47950 MEMB     73       PVPG     H6S      HAL2     0.900000E-01   1.00800           0
     47951 MEMB     73       PVPG     C27      CTL2    -0.180000       12.0110           0
     47952 MEMB     73       PVPG     H7R      HAL2     0.900000E-01   1.00800           0
     47953 MEMB     73       PVPG     H7S      HAL2     0.900000E-01   1.00800           0
     47954 MEMB     73       PVPG     C28      CTL2    -0.180000       12.0110           0
     47955 MEMB     73       PVPG     H8R      HAL2     0.900000E-01   1.00800           0
     47956 MEMB     73       PVPG     H8S      HAL2     0.900000E-01   1.00800           0
     47957 MEMB     73       PVPG     C29      CTL2    -0.180000       12.0110           0
     47958 MEMB     73       PVPG     H9R      HAL2     0.900000E-01   1.00800           0
     47959 MEMB     73       PVPG     H9S      HAL2     0.900000E-01   1.00800           0
     47960 MEMB     73       PVPG     C210     CTL2    -0.180000       12.0110           0
     47961 MEMB     73       PVPG     H10R     HAL2     0.900000E-01   1.00800           0
     47962 MEMB     73       PVPG     H10S     HAL2     0.900000E-01   1.00800           0
     47963 MEMB     73       PVPG     C211     CEL1    -0.150000       12.0110           0
     47964 MEMB     73       PVPG     H111     HEL1     0.150000       1.00800           0
     47965 MEMB     73       PVPG     C212     CEL1    -0.150000       12.0110           0
     47966 MEMB     73       PVPG     H121     HEL1     0.150000       1.00800           0
     47967 MEMB     73       PVPG     C213     CTL2    -0.180000       12.0110           0
     47968 MEMB     73       PVPG     H13R     HAL2     0.900000E-01   1.00800           0
     47969 MEMB     73       PVPG     H13S     HAL2     0.900000E-01   1.00800           0
     47970 MEMB     73       PVPG     C214     CTL2    -0.180000       12.0110           0
     47971 MEMB     73       PVPG     H14R     HAL2     0.900000E-01   1.00800           0
     47972 MEMB     73       PVPG     H14S     HAL2     0.900000E-01   1.00800           0
     47973 MEMB     73       PVPG     C215     CTL2    -0.180000       12.0110           0
     47974 MEMB     73       PVPG     H15R     HAL2     0.900000E-01   1.00800           0
     47975 MEMB     73       PVPG     H15S     HAL2     0.900000E-01   1.00800           0
     47976 MEMB     73       PVPG     C216     CTL2    -0.180000       12.0110           0
     47977 MEMB     73       PVPG     H16R     HAL2     0.900000E-01   1.00800           0
     47978 MEMB     73       PVPG     H16S     HAL2     0.900000E-01   1.00800           0
     47979 MEMB     73       PVPG     C217     CTL2    -0.180000       12.0110           0
     47980 MEMB     73       PVPG     H17R     HAL2     0.900000E-01   1.00800           0
     47981 MEMB     73       PVPG     H17S     HAL2     0.900000E-01   1.00800           0
     47982 MEMB     73       PVPG     C218     CTL3    -0.270000       12.0110           0
     47983 MEMB     73       PVPG     H18R     HAL3     0.900000E-01   1.00800           0
     47984 MEMB     73       PVPG     H18S     HAL3     0.900000E-01   1.00800           0
     47985 MEMB     73       PVPG     H18T     HAL3     0.900000E-01   1.00800           0
     47986 MEMB     73       PVPG     C33      CTL2    -0.180000       12.0110           0
     47987 MEMB     73       PVPG     H3X      HAL2     0.900000E-01   1.00800           0
     47988 MEMB     73       PVPG     H3Y      HAL2     0.900000E-01   1.00800           0
     47989 MEMB     73       PVPG     C34      CTL2    -0.180000       12.0110           0
     47990 MEMB     73       PVPG     H4X      HAL2     0.900000E-01   1.00800           0
     47991 MEMB     73       PVPG     H4Y      HAL2     0.900000E-01   1.00800           0
     47992 MEMB     73       PVPG     C35      CTL2    -0.180000       12.0110           0
     47993 MEMB     73       PVPG     H5X      HAL2     0.900000E-01   1.00800           0
     47994 MEMB     73       PVPG     H5Y      HAL2     0.900000E-01   1.00800           0
     47995 MEMB     73       PVPG     C36      CTL2    -0.180000       12.0110           0
     47996 MEMB     73       PVPG     H6X      HAL2     0.900000E-01   1.00800           0
     47997 MEMB     73       PVPG     H6Y      HAL2     0.900000E-01   1.00800           0
     47998 MEMB     73       PVPG     C37      CTL2    -0.180000       12.0110           0
     47999 MEMB     73       PVPG     H7X      HAL2     0.900000E-01   1.00800           0
     48000 MEMB     73       PVPG     H7Y      HAL2     0.900000E-01   1.00800           0
     48001 MEMB     73       PVPG     C38      CTL2    -0.180000       12.0110           0
     48002 MEMB     73       PVPG     H8X      HAL2     0.900000E-01   1.00800           0
     48003 MEMB     73       PVPG     H8Y      HAL2     0.900000E-01   1.00800           0
     48004 MEMB     73       PVPG     C39      CTL2    -0.180000       12.0110           0
     48005 MEMB     73       PVPG     H9X      HAL2     0.900000E-01   1.00800           0
     48006 MEMB     73       PVPG     H9Y      HAL2     0.900000E-01   1.00800           0
     48007 MEMB     73       PVPG     C310     CTL2    -0.180000       12.0110           0
     48008 MEMB     73       PVPG     H10X     HAL2     0.900000E-01   1.00800           0
     48009 MEMB     73       PVPG     H10Y     HAL2     0.900000E-01   1.00800           0
     48010 MEMB     73       PVPG     C311     CTL2    -0.180000       12.0110           0
     48011 MEMB     73       PVPG     H11X     HAL2     0.900000E-01   1.00800           0
     48012 MEMB     73       PVPG     H11Y     HAL2     0.900000E-01   1.00800           0
     48013 MEMB     73       PVPG     C312     CTL2    -0.180000       12.0110           0
     48014 MEMB     73       PVPG     H12X     HAL2     0.900000E-01   1.00800           0
     48015 MEMB     73       PVPG     H12Y     HAL2     0.900000E-01   1.00800           0
     48016 MEMB     73       PVPG     C313     CTL2    -0.180000       12.0110           0
     48017 MEMB     73       PVPG     H13X     HAL2     0.900000E-01   1.00800           0
     48018 MEMB     73       PVPG     H13Y     HAL2     0.900000E-01   1.00800           0
     48019 MEMB     73       PVPG     C314     CTL2    -0.180000       12.0110           0
     48020 MEMB     73       PVPG     H14X     HAL2     0.900000E-01   1.00800           0
     48021 MEMB     73       PVPG     H14Y     HAL2     0.900000E-01   1.00800           0
     48022 MEMB     73       PVPG     C315     CTL2    -0.180000       12.0110           0
     48023 MEMB     73       PVPG     H15X     HAL2     0.900000E-01   1.00800           0
     48024 MEMB     73       PVPG     H15Y     HAL2     0.900000E-01   1.00800           0
     48025 MEMB     73       PVPG     C316     CTL3    -0.270000       12.0110           0
     48026 MEMB     73       PVPG     H16X     HAL3     0.900000E-01   1.00800           0
     48027 MEMB     73       PVPG     H16Y     HAL3     0.900000E-01   1.00800           0
     48028 MEMB     73       PVPG     H16Z     HAL3     0.900000E-01   1.00800           0
     48029 MEMB     74       PPPE     N        NH3L    -0.300000       14.0070           0
     48030 MEMB     74       PPPE     HN1      HCL      0.330000       1.00800           0
     48031 MEMB     74       PPPE     HN2      HCL      0.330000       1.00800           0
     48032 MEMB     74       PPPE     HN3      HCL      0.330000       1.00800           0
     48033 MEMB     74       PPPE     C12      CTL2     0.130000       12.0110           0
     48034 MEMB     74       PPPE     H12A     HAL2     0.900000E-01   1.00800           0
     48035 MEMB     74       PPPE     H12B     HAL2     0.900000E-01   1.00800           0
     48036 MEMB     74       PPPE     C11      CTL2    -0.800000E-01   12.0110           0
     48037 MEMB     74       PPPE     H11A     HAL2     0.900000E-01   1.00800           0
     48038 MEMB     74       PPPE     H11B     HAL2     0.900000E-01   1.00800           0
     48039 MEMB     74       PPPE     P        PL        1.50000       30.9740           0
     48040 MEMB     74       PPPE     O13      O2L     -0.780000       15.9994           0
     48041 MEMB     74       PPPE     O14      O2L     -0.780000       15.9994           0
     48042 MEMB     74       PPPE     O11      OSLP    -0.570000       15.9994           0
     48043 MEMB     74       PPPE     O12      OSLP    -0.570000       15.9994           0
     48044 MEMB     74       PPPE     C1       CTL2    -0.800000E-01   12.0110           0
     48045 MEMB     74       PPPE     HA       HAL2     0.900000E-01   1.00800           0
     48046 MEMB     74       PPPE     HB       HAL2     0.900000E-01   1.00800           0
     48047 MEMB     74       PPPE     C2       CTL1     0.170000       12.0110           0
     48048 MEMB     74       PPPE     HS       HAL1     0.900000E-01   1.00800           0
     48049 MEMB     74       PPPE     O21      OSL     -0.490000       15.9994           0
     48050 MEMB     74       PPPE     C21      CL       0.900000       12.0110           0
     48051 MEMB     74       PPPE     O22      OBL     -0.630000       15.9994           0
     48052 MEMB     74       PPPE     C22      CTL2    -0.220000       12.0110           0
     48053 MEMB     74       PPPE     H2R      HAL2     0.900000E-01   1.00800           0
     48054 MEMB     74       PPPE     H2S      HAL2     0.900000E-01   1.00800           0
     48055 MEMB     74       PPPE     C3       CTL2     0.800000E-01   12.0110           0
     48056 MEMB     74       PPPE     HX       HAL2     0.900000E-01   1.00800           0
     48057 MEMB     74       PPPE     HY       HAL2     0.900000E-01   1.00800           0
     48058 MEMB     74       PPPE     O31      OSL     -0.490000       15.9994           0
     48059 MEMB     74       PPPE     C31      CL       0.900000       12.0110           0
     48060 MEMB     74       PPPE     O32      OBL     -0.630000       15.9994           0
     48061 MEMB     74       PPPE     C32      CTL2    -0.220000       12.0110           0
     48062 MEMB     74       PPPE     H2X      HAL2     0.900000E-01   1.00800           0
     48063 MEMB     74       PPPE     H2Y      HAL2     0.900000E-01   1.00800           0
     48064 MEMB     74       PPPE     C23      CTL2    -0.180000       12.0110           0
     48065 MEMB     74       PPPE     H3R      HAL2     0.900000E-01   1.00800           0
     48066 MEMB     74       PPPE     H3S      HAL2     0.900000E-01   1.00800           0
     48067 MEMB     74       PPPE     C24      CTL2    -0.180000       12.0110           0
     48068 MEMB     74       PPPE     H4R      HAL2     0.900000E-01   1.00800           0
     48069 MEMB     74       PPPE     H4S      HAL2     0.900000E-01   1.00800           0
     48070 MEMB     74       PPPE     C25      CTL2    -0.180000       12.0110           0
     48071 MEMB     74       PPPE     H5R      HAL2     0.900000E-01   1.00800           0
     48072 MEMB     74       PPPE     H5S      HAL2     0.900000E-01   1.00800           0
     48073 MEMB     74       PPPE     C26      CTL2    -0.180000       12.0110           0
     48074 MEMB     74       PPPE     H6R      HAL2     0.900000E-01   1.00800           0
     48075 MEMB     74       PPPE     H6S      HAL2     0.900000E-01   1.00800           0
     48076 MEMB     74       PPPE     C27      CTL2    -0.180000       12.0110           0
     48077 MEMB     74       PPPE     H7R      HAL2     0.900000E-01   1.00800           0
     48078 MEMB     74       PPPE     H7S      HAL2     0.900000E-01   1.00800           0
     48079 MEMB     74       PPPE     C28      CTL2    -0.180000       12.0110           0
     48080 MEMB     74       PPPE     H8R      HAL2     0.900000E-01   1.00800           0
     48081 MEMB     74       PPPE     H8S      HAL2     0.900000E-01   1.00800           0
     48082 MEMB     74       PPPE     C29      CEL1    -0.150000       12.0110           0
     48083 MEMB     74       PPPE     H91      HEL1     0.150000       1.00800           0
     48084 MEMB     74       PPPE     C210     CEL1    -0.150000       12.0110           0
     48085 MEMB     74       PPPE     H101     HEL1     0.150000       1.00800           0
     48086 MEMB     74       PPPE     C211     CTL2    -0.180000       12.0110           0
     48087 MEMB     74       PPPE     H11R     HAL2     0.900000E-01   1.00800           0
     48088 MEMB     74       PPPE     H11S     HAL2     0.900000E-01   1.00800           0
     48089 MEMB     74       PPPE     C212     CTL2    -0.180000       12.0110           0
     48090 MEMB     74       PPPE     H12R     HAL2     0.900000E-01   1.00800           0
     48091 MEMB     74       PPPE     H12S     HAL2     0.900000E-01   1.00800           0
     48092 MEMB     74       PPPE     C213     CTL2    -0.180000       12.0110           0
     48093 MEMB     74       PPPE     H13R     HAL2     0.900000E-01   1.00800           0
     48094 MEMB     74       PPPE     H13S     HAL2     0.900000E-01   1.00800           0
     48095 MEMB     74       PPPE     C214     CTL2    -0.180000       12.0110           0
     48096 MEMB     74       PPPE     H14R     HAL2     0.900000E-01   1.00800           0
     48097 MEMB     74       PPPE     H14S     HAL2     0.900000E-01   1.00800           0
     48098 MEMB     74       PPPE     C215     CTL2    -0.180000       12.0110           0
     48099 MEMB     74       PPPE     H15R     HAL2     0.900000E-01   1.00800           0
     48100 MEMB     74       PPPE     H15S     HAL2     0.900000E-01   1.00800           0
     48101 MEMB     74       PPPE     C216     CTL3    -0.270000       12.0110           0
     48102 MEMB     74       PPPE     H16R     HAL3     0.900000E-01   1.00800           0
     48103 MEMB     74       PPPE     H16S     HAL3     0.900000E-01   1.00800           0
     48104 MEMB     74       PPPE     H16T     HAL3     0.900000E-01   1.00800           0
     48105 MEMB     74       PPPE     C33      CTL2    -0.180000       12.0110           0
     48106 MEMB     74       PPPE     H3X      HAL2     0.900000E-01   1.00800           0
     48107 MEMB     74       PPPE     H3Y      HAL2     0.900000E-01   1.00800           0
     48108 MEMB     74       PPPE     C34      CTL2    -0.180000       12.0110           0
     48109 MEMB     74       PPPE     H4X      HAL2     0.900000E-01   1.00800           0
     48110 MEMB     74       PPPE     H4Y      HAL2     0.900000E-01   1.00800           0
     48111 MEMB     74       PPPE     C35      CTL2    -0.180000       12.0110           0
     48112 MEMB     74       PPPE     H5X      HAL2     0.900000E-01   1.00800           0
     48113 MEMB     74       PPPE     H5Y      HAL2     0.900000E-01   1.00800           0
     48114 MEMB     74       PPPE     C36      CTL2    -0.180000       12.0110           0
     48115 MEMB     74       PPPE     H6X      HAL2     0.900000E-01   1.00800           0
     48116 MEMB     74       PPPE     H6Y      HAL2     0.900000E-01   1.00800           0
     48117 MEMB     74       PPPE     C37      CTL2    -0.180000       12.0110           0
     48118 MEMB     74       PPPE     H7X      HAL2     0.900000E-01   1.00800           0
     48119 MEMB     74       PPPE     H7Y      HAL2     0.900000E-01   1.00800           0
     48120 MEMB     74       PPPE     C38      CTL2    -0.180000       12.0110           0
     48121 MEMB     74       PPPE     H8X      HAL2     0.900000E-01   1.00800           0
     48122 MEMB     74       PPPE     H8Y      HAL2     0.900000E-01   1.00800           0
     48123 MEMB     74       PPPE     C39      CTL2    -0.180000       12.0110           0
     48124 MEMB     74       PPPE     H9X      HAL2     0.900000E-01   1.00800           0
     48125 MEMB     74       PPPE     H9Y      HAL2     0.900000E-01   1.00800           0
     48126 MEMB     74       PPPE     C310     CTL2    -0.180000       12.0110           0
     48127 MEMB     74       PPPE     H10X     HAL2     0.900000E-01   1.00800           0
     48128 MEMB     74       PPPE     H10Y     HAL2     0.900000E-01   1.00800           0
     48129 MEMB     74       PPPE     C311     CTL2    -0.180000       12.0110           0
     48130 MEMB     74       PPPE     H11X     HAL2     0.900000E-01   1.00800           0
     48131 MEMB     74       PPPE     H11Y     HAL2     0.900000E-01   1.00800           0
     48132 MEMB     74       PPPE     C312     CTL2    -0.180000       12.0110           0
     48133 MEMB     74       PPPE     H12X     HAL2     0.900000E-01   1.00800           0
     48134 MEMB     74       PPPE     H12Y     HAL2     0.900000E-01   1.00800           0
     48135 MEMB     74       PPPE     C313     CTL2    -0.180000       12.0110           0
     48136 MEMB     74       PPPE     H13X     HAL2     0.900000E-01   1.00800           0
     48137 MEMB     74       PPPE     H13Y     HAL2     0.900000E-01   1.00800           0
     48138 MEMB     74       PPPE     C314     CTL2    -0.180000       12.0110           0
     48139 MEMB     74       PPPE     H14X     HAL2     0.900000E-01   1.00800           0
     48140 MEMB     74       PPPE     H14Y     HAL2     0.900000E-01   1.00800           0
     48141 MEMB     74       PPPE     C315     CTL2    -0.180000       12.0110           0
     48142 MEMB     74       PPPE     H15X     HAL2     0.900000E-01   1.00800           0
     48143 MEMB     74       PPPE     H15Y     HAL2     0.900000E-01   1.00800           0
     48144 MEMB     74       PPPE     C316     CTL3    -0.270000       12.0110           0
     48145 MEMB     74       PPPE     H16X     HAL3     0.900000E-01   1.00800           0
     48146 MEMB     74       PPPE     H16Y     HAL3     0.900000E-01   1.00800           0
     48147 MEMB     74       PPPE     H16Z     HAL3     0.900000E-01   1.00800           0
     48148 MEMB     75       PPPE     N        NH3L    -0.300000       14.0070           0
     48149 MEMB     75       PPPE     HN1      HCL      0.330000       1.00800           0
     48150 MEMB     75       PPPE     HN2      HCL      0.330000       1.00800           0
     48151 MEMB     75       PPPE     HN3      HCL      0.330000       1.00800           0
     48152 MEMB     75       PPPE     C12      CTL2     0.130000       12.0110           0
     48153 MEMB     75       PPPE     H12A     HAL2     0.900000E-01   1.00800           0
     48154 MEMB     75       PPPE     H12B     HAL2     0.900000E-01   1.00800           0
     48155 MEMB     75       PPPE     C11      CTL2    -0.800000E-01   12.0110           0
     48156 MEMB     75       PPPE     H11A     HAL2     0.900000E-01   1.00800           0
     48157 MEMB     75       PPPE     H11B     HAL2     0.900000E-01   1.00800           0
     48158 MEMB     75       PPPE     P        PL        1.50000       30.9740           0
     48159 MEMB     75       PPPE     O13      O2L     -0.780000       15.9994           0
     48160 MEMB     75       PPPE     O14      O2L     -0.780000       15.9994           0
     48161 MEMB     75       PPPE     O11      OSLP    -0.570000       15.9994           0
     48162 MEMB     75       PPPE     O12      OSLP    -0.570000       15.9994           0
     48163 MEMB     75       PPPE     C1       CTL2    -0.800000E-01   12.0110           0
     48164 MEMB     75       PPPE     HA       HAL2     0.900000E-01   1.00800           0
     48165 MEMB     75       PPPE     HB       HAL2     0.900000E-01   1.00800           0
     48166 MEMB     75       PPPE     C2       CTL1     0.170000       12.0110           0
     48167 MEMB     75       PPPE     HS       HAL1     0.900000E-01   1.00800           0
     48168 MEMB     75       PPPE     O21      OSL     -0.490000       15.9994           0
     48169 MEMB     75       PPPE     C21      CL       0.900000       12.0110           0
     48170 MEMB     75       PPPE     O22      OBL     -0.630000       15.9994           0
     48171 MEMB     75       PPPE     C22      CTL2    -0.220000       12.0110           0
     48172 MEMB     75       PPPE     H2R      HAL2     0.900000E-01   1.00800           0
     48173 MEMB     75       PPPE     H2S      HAL2     0.900000E-01   1.00800           0
     48174 MEMB     75       PPPE     C3       CTL2     0.800000E-01   12.0110           0
     48175 MEMB     75       PPPE     HX       HAL2     0.900000E-01   1.00800           0
     48176 MEMB     75       PPPE     HY       HAL2     0.900000E-01   1.00800           0
     48177 MEMB     75       PPPE     O31      OSL     -0.490000       15.9994           0
     48178 MEMB     75       PPPE     C31      CL       0.900000       12.0110           0
     48179 MEMB     75       PPPE     O32      OBL     -0.630000       15.9994           0
     48180 MEMB     75       PPPE     C32      CTL2    -0.220000       12.0110           0
     48181 MEMB     75       PPPE     H2X      HAL2     0.900000E-01   1.00800           0
     48182 MEMB     75       PPPE     H2Y      HAL2     0.900000E-01   1.00800           0
     48183 MEMB     75       PPPE     C23      CTL2    -0.180000       12.0110           0
     48184 MEMB     75       PPPE     H3R      HAL2     0.900000E-01   1.00800           0
     48185 MEMB     75       PPPE     H3S      HAL2     0.900000E-01   1.00800           0
     48186 MEMB     75       PPPE     C24      CTL2    -0.180000       12.0110           0
     48187 MEMB     75       PPPE     H4R      HAL2     0.900000E-01   1.00800           0
     48188 MEMB     75       PPPE     H4S      HAL2     0.900000E-01   1.00800           0
     48189 MEMB     75       PPPE     C25      CTL2    -0.180000       12.0110           0
     48190 MEMB     75       PPPE     H5R      HAL2     0.900000E-01   1.00800           0
     48191 MEMB     75       PPPE     H5S      HAL2     0.900000E-01   1.00800           0
     48192 MEMB     75       PPPE     C26      CTL2    -0.180000       12.0110           0
     48193 MEMB     75       PPPE     H6R      HAL2     0.900000E-01   1.00800           0
     48194 MEMB     75       PPPE     H6S      HAL2     0.900000E-01   1.00800           0
     48195 MEMB     75       PPPE     C27      CTL2    -0.180000       12.0110           0
     48196 MEMB     75       PPPE     H7R      HAL2     0.900000E-01   1.00800           0
     48197 MEMB     75       PPPE     H7S      HAL2     0.900000E-01   1.00800           0
     48198 MEMB     75       PPPE     C28      CTL2    -0.180000       12.0110           0
     48199 MEMB     75       PPPE     H8R      HAL2     0.900000E-01   1.00800           0
     48200 MEMB     75       PPPE     H8S      HAL2     0.900000E-01   1.00800           0
     48201 MEMB     75       PPPE     C29      CEL1    -0.150000       12.0110           0
     48202 MEMB     75       PPPE     H91      HEL1     0.150000       1.00800           0
     48203 MEMB     75       PPPE     C210     CEL1    -0.150000       12.0110           0
     48204 MEMB     75       PPPE     H101     HEL1     0.150000       1.00800           0
     48205 MEMB     75       PPPE     C211     CTL2    -0.180000       12.0110           0
     48206 MEMB     75       PPPE     H11R     HAL2     0.900000E-01   1.00800           0
     48207 MEMB     75       PPPE     H11S     HAL2     0.900000E-01   1.00800           0
     48208 MEMB     75       PPPE     C212     CTL2    -0.180000       12.0110           0
     48209 MEMB     75       PPPE     H12R     HAL2     0.900000E-01   1.00800           0
     48210 MEMB     75       PPPE     H12S     HAL2     0.900000E-01   1.00800           0
     48211 MEMB     75       PPPE     C213     CTL2    -0.180000       12.0110           0
     48212 MEMB     75       PPPE     H13R     HAL2     0.900000E-01   1.00800           0
     48213 MEMB     75       PPPE     H13S     HAL2     0.900000E-01   1.00800           0
     48214 MEMB     75       PPPE     C214     CTL2    -0.180000       12.0110           0
     48215 MEMB     75       PPPE     H14R     HAL2     0.900000E-01   1.00800           0
     48216 MEMB     75       PPPE     H14S     HAL2     0.900000E-01   1.00800           0
     48217 MEMB     75       PPPE     C215     CTL2    -0.180000       12.0110           0
     48218 MEMB     75       PPPE     H15R     HAL2     0.900000E-01   1.00800           0
     48219 MEMB     75       PPPE     H15S     HAL2     0.900000E-01   1.00800           0
     48220 MEMB     75       PPPE     C216     CTL3    -0.270000       12.0110           0
     48221 MEMB     75       PPPE     H16R     HAL3     0.900000E-01   1.00800           0
     48222 MEMB     75       PPPE     H16S     HAL3     0.900000E-01   1.00800           0
     48223 MEMB     75       PPPE     H16T     HAL3     0.900000E-01   1.00800           0
     48224 MEMB     75       PPPE     C33      CTL2    -0.180000       12.0110           0
     48225 MEMB     75       PPPE     H3X      HAL2     0.900000E-01   1.00800           0
     48226 MEMB     75       PPPE     H3Y      HAL2     0.900000E-01   1.00800           0
     48227 MEMB     75       PPPE     C34      CTL2    -0.180000       12.0110           0
     48228 MEMB     75       PPPE     H4X      HAL2     0.900000E-01   1.00800           0
     48229 MEMB     75       PPPE     H4Y      HAL2     0.900000E-01   1.00800           0
     48230 MEMB     75       PPPE     C35      CTL2    -0.180000       12.0110           0
     48231 MEMB     75       PPPE     H5X      HAL2     0.900000E-01   1.00800           0
     48232 MEMB     75       PPPE     H5Y      HAL2     0.900000E-01   1.00800           0
     48233 MEMB     75       PPPE     C36      CTL2    -0.180000       12.0110           0
     48234 MEMB     75       PPPE     H6X      HAL2     0.900000E-01   1.00800           0
     48235 MEMB     75       PPPE     H6Y      HAL2     0.900000E-01   1.00800           0
     48236 MEMB     75       PPPE     C37      CTL2    -0.180000       12.0110           0
     48237 MEMB     75       PPPE     H7X      HAL2     0.900000E-01   1.00800           0
     48238 MEMB     75       PPPE     H7Y      HAL2     0.900000E-01   1.00800           0
     48239 MEMB     75       PPPE     C38      CTL2    -0.180000       12.0110           0
     48240 MEMB     75       PPPE     H8X      HAL2     0.900000E-01   1.00800           0
     48241 MEMB     75       PPPE     H8Y      HAL2     0.900000E-01   1.00800           0
     48242 MEMB     75       PPPE     C39      CTL2    -0.180000       12.0110           0
     48243 MEMB     75       PPPE     H9X      HAL2     0.900000E-01   1.00800           0
     48244 MEMB     75       PPPE     H9Y      HAL2     0.900000E-01   1.00800           0
     48245 MEMB     75       PPPE     C310     CTL2    -0.180000       12.0110           0
     48246 MEMB     75       PPPE     H10X     HAL2     0.900000E-01   1.00800           0
     48247 MEMB     75       PPPE     H10Y     HAL2     0.900000E-01   1.00800           0
     48248 MEMB     75       PPPE     C311     CTL2    -0.180000       12.0110           0
     48249 MEMB     75       PPPE     H11X     HAL2     0.900000E-01   1.00800           0
     48250 MEMB     75       PPPE     H11Y     HAL2     0.900000E-01   1.00800           0
     48251 MEMB     75       PPPE     C312     CTL2    -0.180000       12.0110           0
     48252 MEMB     75       PPPE     H12X     HAL2     0.900000E-01   1.00800           0
     48253 MEMB     75       PPPE     H12Y     HAL2     0.900000E-01   1.00800           0
     48254 MEMB     75       PPPE     C313     CTL2    -0.180000       12.0110           0
     48255 MEMB     75       PPPE     H13X     HAL2     0.900000E-01   1.00800           0
     48256 MEMB     75       PPPE     H13Y     HAL2     0.900000E-01   1.00800           0
     48257 MEMB     75       PPPE     C314     CTL2    -0.180000       12.0110           0
     48258 MEMB     75       PPPE     H14X     HAL2     0.900000E-01   1.00800           0
     48259 MEMB     75       PPPE     H14Y     HAL2     0.900000E-01   1.00800           0
     48260 MEMB     75       PPPE     C315     CTL2    -0.180000       12.0110           0
     48261 MEMB     75       PPPE     H15X     HAL2     0.900000E-01   1.00800           0
     48262 MEMB     75       PPPE     H15Y     HAL2     0.900000E-01   1.00800           0
     48263 MEMB     75       PPPE     C316     CTL3    -0.270000       12.0110           0
     48264 MEMB     75       PPPE     H16X     HAL3     0.900000E-01   1.00800           0
     48265 MEMB     75       PPPE     H16Y     HAL3     0.900000E-01   1.00800           0
     48266 MEMB     75       PPPE     H16Z     HAL3     0.900000E-01   1.00800           0
     48267 MEMB     76       PPPE     N        NH3L    -0.300000       14.0070           0
     48268 MEMB     76       PPPE     HN1      HCL      0.330000       1.00800           0
     48269 MEMB     76       PPPE     HN2      HCL      0.330000       1.00800           0
     48270 MEMB     76       PPPE     HN3      HCL      0.330000       1.00800           0
     48271 MEMB     76       PPPE     C12      CTL2     0.130000       12.0110           0
     48272 MEMB     76       PPPE     H12A     HAL2     0.900000E-01   1.00800           0
     48273 MEMB     76       PPPE     H12B     HAL2     0.900000E-01   1.00800           0
     48274 MEMB     76       PPPE     C11      CTL2    -0.800000E-01   12.0110           0
     48275 MEMB     76       PPPE     H11A     HAL2     0.900000E-01   1.00800           0
     48276 MEMB     76       PPPE     H11B     HAL2     0.900000E-01   1.00800           0
     48277 MEMB     76       PPPE     P        PL        1.50000       30.9740           0
     48278 MEMB     76       PPPE     O13      O2L     -0.780000       15.9994           0
     48279 MEMB     76       PPPE     O14      O2L     -0.780000       15.9994           0
     48280 MEMB     76       PPPE     O11      OSLP    -0.570000       15.9994           0
     48281 MEMB     76       PPPE     O12      OSLP    -0.570000       15.9994           0
     48282 MEMB     76       PPPE     C1       CTL2    -0.800000E-01   12.0110           0
     48283 MEMB     76       PPPE     HA       HAL2     0.900000E-01   1.00800           0
     48284 MEMB     76       PPPE     HB       HAL2     0.900000E-01   1.00800           0
     48285 MEMB     76       PPPE     C2       CTL1     0.170000       12.0110           0
     48286 MEMB     76       PPPE     HS       HAL1     0.900000E-01   1.00800           0
     48287 MEMB     76       PPPE     O21      OSL     -0.490000       15.9994           0
     48288 MEMB     76       PPPE     C21      CL       0.900000       12.0110           0
     48289 MEMB     76       PPPE     O22      OBL     -0.630000       15.9994           0
     48290 MEMB     76       PPPE     C22      CTL2    -0.220000       12.0110           0
     48291 MEMB     76       PPPE     H2R      HAL2     0.900000E-01   1.00800           0
     48292 MEMB     76       PPPE     H2S      HAL2     0.900000E-01   1.00800           0
     48293 MEMB     76       PPPE     C3       CTL2     0.800000E-01   12.0110           0
     48294 MEMB     76       PPPE     HX       HAL2     0.900000E-01   1.00800           0
     48295 MEMB     76       PPPE     HY       HAL2     0.900000E-01   1.00800           0
     48296 MEMB     76       PPPE     O31      OSL     -0.490000       15.9994           0
     48297 MEMB     76       PPPE     C31      CL       0.900000       12.0110           0
     48298 MEMB     76       PPPE     O32      OBL     -0.630000       15.9994           0
     48299 MEMB     76       PPPE     C32      CTL2    -0.220000       12.0110           0
     48300 MEMB     76       PPPE     H2X      HAL2     0.900000E-01   1.00800           0
     48301 MEMB     76       PPPE     H2Y      HAL2     0.900000E-01   1.00800           0
     48302 MEMB     76       PPPE     C23      CTL2    -0.180000       12.0110           0
     48303 MEMB     76       PPPE     H3R      HAL2     0.900000E-01   1.00800           0
     48304 MEMB     76       PPPE     H3S      HAL2     0.900000E-01   1.00800           0
     48305 MEMB     76       PPPE     C24      CTL2    -0.180000       12.0110           0
     48306 MEMB     76       PPPE     H4R      HAL2     0.900000E-01   1.00800           0
     48307 MEMB     76       PPPE     H4S      HAL2     0.900000E-01   1.00800           0
     48308 MEMB     76       PPPE     C25      CTL2    -0.180000       12.0110           0
     48309 MEMB     76       PPPE     H5R      HAL2     0.900000E-01   1.00800           0
     48310 MEMB     76       PPPE     H5S      HAL2     0.900000E-01   1.00800           0
     48311 MEMB     76       PPPE     C26      CTL2    -0.180000       12.0110           0
     48312 MEMB     76       PPPE     H6R      HAL2     0.900000E-01   1.00800           0
     48313 MEMB     76       PPPE     H6S      HAL2     0.900000E-01   1.00800           0
     48314 MEMB     76       PPPE     C27      CTL2    -0.180000       12.0110           0
     48315 MEMB     76       PPPE     H7R      HAL2     0.900000E-01   1.00800           0
     48316 MEMB     76       PPPE     H7S      HAL2     0.900000E-01   1.00800           0
     48317 MEMB     76       PPPE     C28      CTL2    -0.180000       12.0110           0
     48318 MEMB     76       PPPE     H8R      HAL2     0.900000E-01   1.00800           0
     48319 MEMB     76       PPPE     H8S      HAL2     0.900000E-01   1.00800           0
     48320 MEMB     76       PPPE     C29      CEL1    -0.150000       12.0110           0
     48321 MEMB     76       PPPE     H91      HEL1     0.150000       1.00800           0
     48322 MEMB     76       PPPE     C210     CEL1    -0.150000       12.0110           0
     48323 MEMB     76       PPPE     H101     HEL1     0.150000       1.00800           0
     48324 MEMB     76       PPPE     C211     CTL2    -0.180000       12.0110           0
     48325 MEMB     76       PPPE     H11R     HAL2     0.900000E-01   1.00800           0
     48326 MEMB     76       PPPE     H11S     HAL2     0.900000E-01   1.00800           0
     48327 MEMB     76       PPPE     C212     CTL2    -0.180000       12.0110           0
     48328 MEMB     76       PPPE     H12R     HAL2     0.900000E-01   1.00800           0
     48329 MEMB     76       PPPE     H12S     HAL2     0.900000E-01   1.00800           0
     48330 MEMB     76       PPPE     C213     CTL2    -0.180000       12.0110           0
     48331 MEMB     76       PPPE     H13R     HAL2     0.900000E-01   1.00800           0
     48332 MEMB     76       PPPE     H13S     HAL2     0.900000E-01   1.00800           0
     48333 MEMB     76       PPPE     C214     CTL2    -0.180000       12.0110           0
     48334 MEMB     76       PPPE     H14R     HAL2     0.900000E-01   1.00800           0
     48335 MEMB     76       PPPE     H14S     HAL2     0.900000E-01   1.00800           0
     48336 MEMB     76       PPPE     C215     CTL2    -0.180000       12.0110           0
     48337 MEMB     76       PPPE     H15R     HAL2     0.900000E-01   1.00800           0
     48338 MEMB     76       PPPE     H15S     HAL2     0.900000E-01   1.00800           0
     48339 MEMB     76       PPPE     C216     CTL3    -0.270000       12.0110           0
     48340 MEMB     76       PPPE     H16R     HAL3     0.900000E-01   1.00800           0
     48341 MEMB     76       PPPE     H16S     HAL3     0.900000E-01   1.00800           0
     48342 MEMB     76       PPPE     H16T     HAL3     0.900000E-01   1.00800           0
     48343 MEMB     76       PPPE     C33      CTL2    -0.180000       12.0110           0
     48344 MEMB     76       PPPE     H3X      HAL2     0.900000E-01   1.00800           0
     48345 MEMB     76       PPPE     H3Y      HAL2     0.900000E-01   1.00800           0
     48346 MEMB     76       PPPE     C34      CTL2    -0.180000       12.0110           0
     48347 MEMB     76       PPPE     H4X      HAL2     0.900000E-01   1.00800           0
     48348 MEMB     76       PPPE     H4Y      HAL2     0.900000E-01   1.00800           0
     48349 MEMB     76       PPPE     C35      CTL2    -0.180000       12.0110           0
     48350 MEMB     76       PPPE     H5X      HAL2     0.900000E-01   1.00800           0
     48351 MEMB     76       PPPE     H5Y      HAL2     0.900000E-01   1.00800           0
     48352 MEMB     76       PPPE     C36      CTL2    -0.180000       12.0110           0
     48353 MEMB     76       PPPE     H6X      HAL2     0.900000E-01   1.00800           0
     48354 MEMB     76       PPPE     H6Y      HAL2     0.900000E-01   1.00800           0
     48355 MEMB     76       PPPE     C37      CTL2    -0.180000       12.0110           0
     48356 MEMB     76       PPPE     H7X      HAL2     0.900000E-01   1.00800           0
     48357 MEMB     76       PPPE     H7Y      HAL2     0.900000E-01   1.00800           0
     48358 MEMB     76       PPPE     C38      CTL2    -0.180000       12.0110           0
     48359 MEMB     76       PPPE     H8X      HAL2     0.900000E-01   1.00800           0
     48360 MEMB     76       PPPE     H8Y      HAL2     0.900000E-01   1.00800           0
     48361 MEMB     76       PPPE     C39      CTL2    -0.180000       12.0110           0
     48362 MEMB     76       PPPE     H9X      HAL2     0.900000E-01   1.00800           0
     48363 MEMB     76       PPPE     H9Y      HAL2     0.900000E-01   1.00800           0
     48364 MEMB     76       PPPE     C310     CTL2    -0.180000       12.0110           0
     48365 MEMB     76       PPPE     H10X     HAL2     0.900000E-01   1.00800           0
     48366 MEMB     76       PPPE     H10Y     HAL2     0.900000E-01   1.00800           0
     48367 MEMB     76       PPPE     C311     CTL2    -0.180000       12.0110           0
     48368 MEMB     76       PPPE     H11X     HAL2     0.900000E-01   1.00800           0
     48369 MEMB     76       PPPE     H11Y     HAL2     0.900000E-01   1.00800           0
     48370 MEMB     76       PPPE     C312     CTL2    -0.180000       12.0110           0
     48371 MEMB     76       PPPE     H12X     HAL2     0.900000E-01   1.00800           0
     48372 MEMB     76       PPPE     H12Y     HAL2     0.900000E-01   1.00800           0
     48373 MEMB     76       PPPE     C313     CTL2    -0.180000       12.0110           0
     48374 MEMB     76       PPPE     H13X     HAL2     0.900000E-01   1.00800           0
     48375 MEMB     76       PPPE     H13Y     HAL2     0.900000E-01   1.00800           0
     48376 MEMB     76       PPPE     C314     CTL2    -0.180000       12.0110           0
     48377 MEMB     76       PPPE     H14X     HAL2     0.900000E-01   1.00800           0
     48378 MEMB     76       PPPE     H14Y     HAL2     0.900000E-01   1.00800           0
     48379 MEMB     76       PPPE     C315     CTL2    -0.180000       12.0110           0
     48380 MEMB     76       PPPE     H15X     HAL2     0.900000E-01   1.00800           0
     48381 MEMB     76       PPPE     H15Y     HAL2     0.900000E-01   1.00800           0
     48382 MEMB     76       PPPE     C316     CTL3    -0.270000       12.0110           0
     48383 MEMB     76       PPPE     H16X     HAL3     0.900000E-01   1.00800           0
     48384 MEMB     76       PPPE     H16Y     HAL3     0.900000E-01   1.00800           0
     48385 MEMB     76       PPPE     H16Z     HAL3     0.900000E-01   1.00800           0
     48386 MEMB     77       PPPE     N        NH3L    -0.300000       14.0070           0
     48387 MEMB     77       PPPE     HN1      HCL      0.330000       1.00800           0
     48388 MEMB     77       PPPE     HN2      HCL      0.330000       1.00800           0
     48389 MEMB     77       PPPE     HN3      HCL      0.330000       1.00800           0
     48390 MEMB     77       PPPE     C12      CTL2     0.130000       12.0110           0
     48391 MEMB     77       PPPE     H12A     HAL2     0.900000E-01   1.00800           0
     48392 MEMB     77       PPPE     H12B     HAL2     0.900000E-01   1.00800           0
     48393 MEMB     77       PPPE     C11      CTL2    -0.800000E-01   12.0110           0
     48394 MEMB     77       PPPE     H11A     HAL2     0.900000E-01   1.00800           0
     48395 MEMB     77       PPPE     H11B     HAL2     0.900000E-01   1.00800           0
     48396 MEMB     77       PPPE     P        PL        1.50000       30.9740           0
     48397 MEMB     77       PPPE     O13      O2L     -0.780000       15.9994           0
     48398 MEMB     77       PPPE     O14      O2L     -0.780000       15.9994           0
     48399 MEMB     77       PPPE     O11      OSLP    -0.570000       15.9994           0
     48400 MEMB     77       PPPE     O12      OSLP    -0.570000       15.9994           0
     48401 MEMB     77       PPPE     C1       CTL2    -0.800000E-01   12.0110           0
     48402 MEMB     77       PPPE     HA       HAL2     0.900000E-01   1.00800           0
     48403 MEMB     77       PPPE     HB       HAL2     0.900000E-01   1.00800           0
     48404 MEMB     77       PPPE     C2       CTL1     0.170000       12.0110           0
     48405 MEMB     77       PPPE     HS       HAL1     0.900000E-01   1.00800           0
     48406 MEMB     77       PPPE     O21      OSL     -0.490000       15.9994           0
     48407 MEMB     77       PPPE     C21      CL       0.900000       12.0110           0
     48408 MEMB     77       PPPE     O22      OBL     -0.630000       15.9994           0
     48409 MEMB     77       PPPE     C22      CTL2    -0.220000       12.0110           0
     48410 MEMB     77       PPPE     H2R      HAL2     0.900000E-01   1.00800           0
     48411 MEMB     77       PPPE     H2S      HAL2     0.900000E-01   1.00800           0
     48412 MEMB     77       PPPE     C3       CTL2     0.800000E-01   12.0110           0
     48413 MEMB     77       PPPE     HX       HAL2     0.900000E-01   1.00800           0
     48414 MEMB     77       PPPE     HY       HAL2     0.900000E-01   1.00800           0
     48415 MEMB     77       PPPE     O31      OSL     -0.490000       15.9994           0
     48416 MEMB     77       PPPE     C31      CL       0.900000       12.0110           0
     48417 MEMB     77       PPPE     O32      OBL     -0.630000       15.9994           0
     48418 MEMB     77       PPPE     C32      CTL2    -0.220000       12.0110           0
     48419 MEMB     77       PPPE     H2X      HAL2     0.900000E-01   1.00800           0
     48420 MEMB     77       PPPE     H2Y      HAL2     0.900000E-01   1.00800           0
     48421 MEMB     77       PPPE     C23      CTL2    -0.180000       12.0110           0
     48422 MEMB     77       PPPE     H3R      HAL2     0.900000E-01   1.00800           0
     48423 MEMB     77       PPPE     H3S      HAL2     0.900000E-01   1.00800           0
     48424 MEMB     77       PPPE     C24      CTL2    -0.180000       12.0110           0
     48425 MEMB     77       PPPE     H4R      HAL2     0.900000E-01   1.00800           0
     48426 MEMB     77       PPPE     H4S      HAL2     0.900000E-01   1.00800           0
     48427 MEMB     77       PPPE     C25      CTL2    -0.180000       12.0110           0
     48428 MEMB     77       PPPE     H5R      HAL2     0.900000E-01   1.00800           0
     48429 MEMB     77       PPPE     H5S      HAL2     0.900000E-01   1.00800           0
     48430 MEMB     77       PPPE     C26      CTL2    -0.180000       12.0110           0
     48431 MEMB     77       PPPE     H6R      HAL2     0.900000E-01   1.00800           0
     48432 MEMB     77       PPPE     H6S      HAL2     0.900000E-01   1.00800           0
     48433 MEMB     77       PPPE     C27      CTL2    -0.180000       12.0110           0
     48434 MEMB     77       PPPE     H7R      HAL2     0.900000E-01   1.00800           0
     48435 MEMB     77       PPPE     H7S      HAL2     0.900000E-01   1.00800           0
     48436 MEMB     77       PPPE     C28      CTL2    -0.180000       12.0110           0
     48437 MEMB     77       PPPE     H8R      HAL2     0.900000E-01   1.00800           0
     48438 MEMB     77       PPPE     H8S      HAL2     0.900000E-01   1.00800           0
     48439 MEMB     77       PPPE     C29      CEL1    -0.150000       12.0110           0
     48440 MEMB     77       PPPE     H91      HEL1     0.150000       1.00800           0
     48441 MEMB     77       PPPE     C210     CEL1    -0.150000       12.0110           0
     48442 MEMB     77       PPPE     H101     HEL1     0.150000       1.00800           0
     48443 MEMB     77       PPPE     C211     CTL2    -0.180000       12.0110           0
     48444 MEMB     77       PPPE     H11R     HAL2     0.900000E-01   1.00800           0
     48445 MEMB     77       PPPE     H11S     HAL2     0.900000E-01   1.00800           0
     48446 MEMB     77       PPPE     C212     CTL2    -0.180000       12.0110           0
     48447 MEMB     77       PPPE     H12R     HAL2     0.900000E-01   1.00800           0
     48448 MEMB     77       PPPE     H12S     HAL2     0.900000E-01   1.00800           0
     48449 MEMB     77       PPPE     C213     CTL2    -0.180000       12.0110           0
     48450 MEMB     77       PPPE     H13R     HAL2     0.900000E-01   1.00800           0
     48451 MEMB     77       PPPE     H13S     HAL2     0.900000E-01   1.00800           0
     48452 MEMB     77       PPPE     C214     CTL2    -0.180000       12.0110           0
     48453 MEMB     77       PPPE     H14R     HAL2     0.900000E-01   1.00800           0
     48454 MEMB     77       PPPE     H14S     HAL2     0.900000E-01   1.00800           0
     48455 MEMB     77       PPPE     C215     CTL2    -0.180000       12.0110           0
     48456 MEMB     77       PPPE     H15R     HAL2     0.900000E-01   1.00800           0
     48457 MEMB     77       PPPE     H15S     HAL2     0.900000E-01   1.00800           0
     48458 MEMB     77       PPPE     C216     CTL3    -0.270000       12.0110           0
     48459 MEMB     77       PPPE     H16R     HAL3     0.900000E-01   1.00800           0
     48460 MEMB     77       PPPE     H16S     HAL3     0.900000E-01   1.00800           0
     48461 MEMB     77       PPPE     H16T     HAL3     0.900000E-01   1.00800           0
     48462 MEMB     77       PPPE     C33      CTL2    -0.180000       12.0110           0
     48463 MEMB     77       PPPE     H3X      HAL2     0.900000E-01   1.00800           0
     48464 MEMB     77       PPPE     H3Y      HAL2     0.900000E-01   1.00800           0
     48465 MEMB     77       PPPE     C34      CTL2    -0.180000       12.0110           0
     48466 MEMB     77       PPPE     H4X      HAL2     0.900000E-01   1.00800           0
     48467 MEMB     77       PPPE     H4Y      HAL2     0.900000E-01   1.00800           0
     48468 MEMB     77       PPPE     C35      CTL2    -0.180000       12.0110           0
     48469 MEMB     77       PPPE     H5X      HAL2     0.900000E-01   1.00800           0
     48470 MEMB     77       PPPE     H5Y      HAL2     0.900000E-01   1.00800           0
     48471 MEMB     77       PPPE     C36      CTL2    -0.180000       12.0110           0
     48472 MEMB     77       PPPE     H6X      HAL2     0.900000E-01   1.00800           0
     48473 MEMB     77       PPPE     H6Y      HAL2     0.900000E-01   1.00800           0
     48474 MEMB     77       PPPE     C37      CTL2    -0.180000       12.0110           0
     48475 MEMB     77       PPPE     H7X      HAL2     0.900000E-01   1.00800           0
     48476 MEMB     77       PPPE     H7Y      HAL2     0.900000E-01   1.00800           0
     48477 MEMB     77       PPPE     C38      CTL2    -0.180000       12.0110           0
     48478 MEMB     77       PPPE     H8X      HAL2     0.900000E-01   1.00800           0
     48479 MEMB     77       PPPE     H8Y      HAL2     0.900000E-01   1.00800           0
     48480 MEMB     77       PPPE     C39      CTL2    -0.180000       12.0110           0
     48481 MEMB     77       PPPE     H9X      HAL2     0.900000E-01   1.00800           0
     48482 MEMB     77       PPPE     H9Y      HAL2     0.900000E-01   1.00800           0
     48483 MEMB     77       PPPE     C310     CTL2    -0.180000       12.0110           0
     48484 MEMB     77       PPPE     H10X     HAL2     0.900000E-01   1.00800           0
     48485 MEMB     77       PPPE     H10Y     HAL2     0.900000E-01   1.00800           0
     48486 MEMB     77       PPPE     C311     CTL2    -0.180000       12.0110           0
     48487 MEMB     77       PPPE     H11X     HAL2     0.900000E-01   1.00800           0
     48488 MEMB     77       PPPE     H11Y     HAL2     0.900000E-01   1.00800           0
     48489 MEMB     77       PPPE     C312     CTL2    -0.180000       12.0110           0
     48490 MEMB     77       PPPE     H12X     HAL2     0.900000E-01   1.00800           0
     48491 MEMB     77       PPPE     H12Y     HAL2     0.900000E-01   1.00800           0
     48492 MEMB     77       PPPE     C313     CTL2    -0.180000       12.0110           0
     48493 MEMB     77       PPPE     H13X     HAL2     0.900000E-01   1.00800           0
     48494 MEMB     77       PPPE     H13Y     HAL2     0.900000E-01   1.00800           0
     48495 MEMB     77       PPPE     C314     CTL2    -0.180000       12.0110           0
     48496 MEMB     77       PPPE     H14X     HAL2     0.900000E-01   1.00800           0
     48497 MEMB     77       PPPE     H14Y     HAL2     0.900000E-01   1.00800           0
     48498 MEMB     77       PPPE     C315     CTL2    -0.180000       12.0110           0
     48499 MEMB     77       PPPE     H15X     HAL2     0.900000E-01   1.00800           0
     48500 MEMB     77       PPPE     H15Y     HAL2     0.900000E-01   1.00800           0
     48501 MEMB     77       PPPE     C316     CTL3    -0.270000       12.0110           0
     48502 MEMB     77       PPPE     H16X     HAL3     0.900000E-01   1.00800           0
     48503 MEMB     77       PPPE     H16Y     HAL3     0.900000E-01   1.00800           0
     48504 MEMB     77       PPPE     H16Z     HAL3     0.900000E-01   1.00800           0
     48505 MEMB     78       PPPE     N        NH3L    -0.300000       14.0070           0
     48506 MEMB     78       PPPE     HN1      HCL      0.330000       1.00800           0
     48507 MEMB     78       PPPE     HN2      HCL      0.330000       1.00800           0
     48508 MEMB     78       PPPE     HN3      HCL      0.330000       1.00800           0
     48509 MEMB     78       PPPE     C12      CTL2     0.130000       12.0110           0
     48510 MEMB     78       PPPE     H12A     HAL2     0.900000E-01   1.00800           0
     48511 MEMB     78       PPPE     H12B     HAL2     0.900000E-01   1.00800           0
     48512 MEMB     78       PPPE     C11      CTL2    -0.800000E-01   12.0110           0
     48513 MEMB     78       PPPE     H11A     HAL2     0.900000E-01   1.00800           0
     48514 MEMB     78       PPPE     H11B     HAL2     0.900000E-01   1.00800           0
     48515 MEMB     78       PPPE     P        PL        1.50000       30.9740           0
     48516 MEMB     78       PPPE     O13      O2L     -0.780000       15.9994           0
     48517 MEMB     78       PPPE     O14      O2L     -0.780000       15.9994           0
     48518 MEMB     78       PPPE     O11      OSLP    -0.570000       15.9994           0
     48519 MEMB     78       PPPE     O12      OSLP    -0.570000       15.9994           0
     48520 MEMB     78       PPPE     C1       CTL2    -0.800000E-01   12.0110           0
     48521 MEMB     78       PPPE     HA       HAL2     0.900000E-01   1.00800           0
     48522 MEMB     78       PPPE     HB       HAL2     0.900000E-01   1.00800           0
     48523 MEMB     78       PPPE     C2       CTL1     0.170000       12.0110           0
     48524 MEMB     78       PPPE     HS       HAL1     0.900000E-01   1.00800           0
     48525 MEMB     78       PPPE     O21      OSL     -0.490000       15.9994           0
     48526 MEMB     78       PPPE     C21      CL       0.900000       12.0110           0
     48527 MEMB     78       PPPE     O22      OBL     -0.630000       15.9994           0
     48528 MEMB     78       PPPE     C22      CTL2    -0.220000       12.0110           0
     48529 MEMB     78       PPPE     H2R      HAL2     0.900000E-01   1.00800           0
     48530 MEMB     78       PPPE     H2S      HAL2     0.900000E-01   1.00800           0
     48531 MEMB     78       PPPE     C3       CTL2     0.800000E-01   12.0110           0
     48532 MEMB     78       PPPE     HX       HAL2     0.900000E-01   1.00800           0
     48533 MEMB     78       PPPE     HY       HAL2     0.900000E-01   1.00800           0
     48534 MEMB     78       PPPE     O31      OSL     -0.490000       15.9994           0
     48535 MEMB     78       PPPE     C31      CL       0.900000       12.0110           0
     48536 MEMB     78       PPPE     O32      OBL     -0.630000       15.9994           0
     48537 MEMB     78       PPPE     C32      CTL2    -0.220000       12.0110           0
     48538 MEMB     78       PPPE     H2X      HAL2     0.900000E-01   1.00800           0
     48539 MEMB     78       PPPE     H2Y      HAL2     0.900000E-01   1.00800           0
     48540 MEMB     78       PPPE     C23      CTL2    -0.180000       12.0110           0
     48541 MEMB     78       PPPE     H3R      HAL2     0.900000E-01   1.00800           0
     48542 MEMB     78       PPPE     H3S      HAL2     0.900000E-01   1.00800           0
     48543 MEMB     78       PPPE     C24      CTL2    -0.180000       12.0110           0
     48544 MEMB     78       PPPE     H4R      HAL2     0.900000E-01   1.00800           0
     48545 MEMB     78       PPPE     H4S      HAL2     0.900000E-01   1.00800           0
     48546 MEMB     78       PPPE     C25      CTL2    -0.180000       12.0110           0
     48547 MEMB     78       PPPE     H5R      HAL2     0.900000E-01   1.00800           0
     48548 MEMB     78       PPPE     H5S      HAL2     0.900000E-01   1.00800           0
     48549 MEMB     78       PPPE     C26      CTL2    -0.180000       12.0110           0
     48550 MEMB     78       PPPE     H6R      HAL2     0.900000E-01   1.00800           0
     48551 MEMB     78       PPPE     H6S      HAL2     0.900000E-01   1.00800           0
     48552 MEMB     78       PPPE     C27      CTL2    -0.180000       12.0110           0
     48553 MEMB     78       PPPE     H7R      HAL2     0.900000E-01   1.00800           0
     48554 MEMB     78       PPPE     H7S      HAL2     0.900000E-01   1.00800           0
     48555 MEMB     78       PPPE     C28      CTL2    -0.180000       12.0110           0
     48556 MEMB     78       PPPE     H8R      HAL2     0.900000E-01   1.00800           0
     48557 MEMB     78       PPPE     H8S      HAL2     0.900000E-01   1.00800           0
     48558 MEMB     78       PPPE     C29      CEL1    -0.150000       12.0110           0
     48559 MEMB     78       PPPE     H91      HEL1     0.150000       1.00800           0
     48560 MEMB     78       PPPE     C210     CEL1    -0.150000       12.0110           0
     48561 MEMB     78       PPPE     H101     HEL1     0.150000       1.00800           0
     48562 MEMB     78       PPPE     C211     CTL2    -0.180000       12.0110           0
     48563 MEMB     78       PPPE     H11R     HAL2     0.900000E-01   1.00800           0
     48564 MEMB     78       PPPE     H11S     HAL2     0.900000E-01   1.00800           0
     48565 MEMB     78       PPPE     C212     CTL2    -0.180000       12.0110           0
     48566 MEMB     78       PPPE     H12R     HAL2     0.900000E-01   1.00800           0
     48567 MEMB     78       PPPE     H12S     HAL2     0.900000E-01   1.00800           0
     48568 MEMB     78       PPPE     C213     CTL2    -0.180000       12.0110           0
     48569 MEMB     78       PPPE     H13R     HAL2     0.900000E-01   1.00800           0
     48570 MEMB     78       PPPE     H13S     HAL2     0.900000E-01   1.00800           0
     48571 MEMB     78       PPPE     C214     CTL2    -0.180000       12.0110           0
     48572 MEMB     78       PPPE     H14R     HAL2     0.900000E-01   1.00800           0
     48573 MEMB     78       PPPE     H14S     HAL2     0.900000E-01   1.00800           0
     48574 MEMB     78       PPPE     C215     CTL2    -0.180000       12.0110           0
     48575 MEMB     78       PPPE     H15R     HAL2     0.900000E-01   1.00800           0
     48576 MEMB     78       PPPE     H15S     HAL2     0.900000E-01   1.00800           0
     48577 MEMB     78       PPPE     C216     CTL3    -0.270000       12.0110           0
     48578 MEMB     78       PPPE     H16R     HAL3     0.900000E-01   1.00800           0
     48579 MEMB     78       PPPE     H16S     HAL3     0.900000E-01   1.00800           0
     48580 MEMB     78       PPPE     H16T     HAL3     0.900000E-01   1.00800           0
     48581 MEMB     78       PPPE     C33      CTL2    -0.180000       12.0110           0
     48582 MEMB     78       PPPE     H3X      HAL2     0.900000E-01   1.00800           0
     48583 MEMB     78       PPPE     H3Y      HAL2     0.900000E-01   1.00800           0
     48584 MEMB     78       PPPE     C34      CTL2    -0.180000       12.0110           0
     48585 MEMB     78       PPPE     H4X      HAL2     0.900000E-01   1.00800           0
     48586 MEMB     78       PPPE     H4Y      HAL2     0.900000E-01   1.00800           0
     48587 MEMB     78       PPPE     C35      CTL2    -0.180000       12.0110           0
     48588 MEMB     78       PPPE     H5X      HAL2     0.900000E-01   1.00800           0
     48589 MEMB     78       PPPE     H5Y      HAL2     0.900000E-01   1.00800           0
     48590 MEMB     78       PPPE     C36      CTL2    -0.180000       12.0110           0
     48591 MEMB     78       PPPE     H6X      HAL2     0.900000E-01   1.00800           0
     48592 MEMB     78       PPPE     H6Y      HAL2     0.900000E-01   1.00800           0
     48593 MEMB     78       PPPE     C37      CTL2    -0.180000       12.0110           0
     48594 MEMB     78       PPPE     H7X      HAL2     0.900000E-01   1.00800           0
     48595 MEMB     78       PPPE     H7Y      HAL2     0.900000E-01   1.00800           0
     48596 MEMB     78       PPPE     C38      CTL2    -0.180000       12.0110           0
     48597 MEMB     78       PPPE     H8X      HAL2     0.900000E-01   1.00800           0
     48598 MEMB     78       PPPE     H8Y      HAL2     0.900000E-01   1.00800           0
     48599 MEMB     78       PPPE     C39      CTL2    -0.180000       12.0110           0
     48600 MEMB     78       PPPE     H9X      HAL2     0.900000E-01   1.00800           0
     48601 MEMB     78       PPPE     H9Y      HAL2     0.900000E-01   1.00800           0
     48602 MEMB     78       PPPE     C310     CTL2    -0.180000       12.0110           0
     48603 MEMB     78       PPPE     H10X     HAL2     0.900000E-01   1.00800           0
     48604 MEMB     78       PPPE     H10Y     HAL2     0.900000E-01   1.00800           0
     48605 MEMB     78       PPPE     C311     CTL2    -0.180000       12.0110           0
     48606 MEMB     78       PPPE     H11X     HAL2     0.900000E-01   1.00800           0
     48607 MEMB     78       PPPE     H11Y     HAL2     0.900000E-01   1.00800           0
     48608 MEMB     78       PPPE     C312     CTL2    -0.180000       12.0110           0
     48609 MEMB     78       PPPE     H12X     HAL2     0.900000E-01   1.00800           0
     48610 MEMB     78       PPPE     H12Y     HAL2     0.900000E-01   1.00800           0
     48611 MEMB     78       PPPE     C313     CTL2    -0.180000       12.0110           0
     48612 MEMB     78       PPPE     H13X     HAL2     0.900000E-01   1.00800           0
     48613 MEMB     78       PPPE     H13Y     HAL2     0.900000E-01   1.00800           0
     48614 MEMB     78       PPPE     C314     CTL2    -0.180000       12.0110           0
     48615 MEMB     78       PPPE     H14X     HAL2     0.900000E-01   1.00800           0
     48616 MEMB     78       PPPE     H14Y     HAL2     0.900000E-01   1.00800           0
     48617 MEMB     78       PPPE     C315     CTL2    -0.180000       12.0110           0
     48618 MEMB     78       PPPE     H15X     HAL2     0.900000E-01   1.00800           0
     48619 MEMB     78       PPPE     H15Y     HAL2     0.900000E-01   1.00800           0
     48620 MEMB     78       PPPE     C316     CTL3    -0.270000       12.0110           0
     48621 MEMB     78       PPPE     H16X     HAL3     0.900000E-01   1.00800           0
     48622 MEMB     78       PPPE     H16Y     HAL3     0.900000E-01   1.00800           0
     48623 MEMB     78       PPPE     H16Z     HAL3     0.900000E-01   1.00800           0
     48624 MEMB     79       PPPE     N        NH3L    -0.300000       14.0070           0
     48625 MEMB     79       PPPE     HN1      HCL      0.330000       1.00800           0
     48626 MEMB     79       PPPE     HN2      HCL      0.330000       1.00800           0
     48627 MEMB     79       PPPE     HN3      HCL      0.330000       1.00800           0
     48628 MEMB     79       PPPE     C12      CTL2     0.130000       12.0110           0
     48629 MEMB     79       PPPE     H12A     HAL2     0.900000E-01   1.00800           0
     48630 MEMB     79       PPPE     H12B     HAL2     0.900000E-01   1.00800           0
     48631 MEMB     79       PPPE     C11      CTL2    -0.800000E-01   12.0110           0
     48632 MEMB     79       PPPE     H11A     HAL2     0.900000E-01   1.00800           0
     48633 MEMB     79       PPPE     H11B     HAL2     0.900000E-01   1.00800           0
     48634 MEMB     79       PPPE     P        PL        1.50000       30.9740           0
     48635 MEMB     79       PPPE     O13      O2L     -0.780000       15.9994           0
     48636 MEMB     79       PPPE     O14      O2L     -0.780000       15.9994           0
     48637 MEMB     79       PPPE     O11      OSLP    -0.570000       15.9994           0
     48638 MEMB     79       PPPE     O12      OSLP    -0.570000       15.9994           0
     48639 MEMB     79       PPPE     C1       CTL2    -0.800000E-01   12.0110           0
     48640 MEMB     79       PPPE     HA       HAL2     0.900000E-01   1.00800           0
     48641 MEMB     79       PPPE     HB       HAL2     0.900000E-01   1.00800           0
     48642 MEMB     79       PPPE     C2       CTL1     0.170000       12.0110           0
     48643 MEMB     79       PPPE     HS       HAL1     0.900000E-01   1.00800           0
     48644 MEMB     79       PPPE     O21      OSL     -0.490000       15.9994           0
     48645 MEMB     79       PPPE     C21      CL       0.900000       12.0110           0
     48646 MEMB     79       PPPE     O22      OBL     -0.630000       15.9994           0
     48647 MEMB     79       PPPE     C22      CTL2    -0.220000       12.0110           0
     48648 MEMB     79       PPPE     H2R      HAL2     0.900000E-01   1.00800           0
     48649 MEMB     79       PPPE     H2S      HAL2     0.900000E-01   1.00800           0
     48650 MEMB     79       PPPE     C3       CTL2     0.800000E-01   12.0110           0
     48651 MEMB     79       PPPE     HX       HAL2     0.900000E-01   1.00800           0
     48652 MEMB     79       PPPE     HY       HAL2     0.900000E-01   1.00800           0
     48653 MEMB     79       PPPE     O31      OSL     -0.490000       15.9994           0
     48654 MEMB     79       PPPE     C31      CL       0.900000       12.0110           0
     48655 MEMB     79       PPPE     O32      OBL     -0.630000       15.9994           0
     48656 MEMB     79       PPPE     C32      CTL2    -0.220000       12.0110           0
     48657 MEMB     79       PPPE     H2X      HAL2     0.900000E-01   1.00800           0
     48658 MEMB     79       PPPE     H2Y      HAL2     0.900000E-01   1.00800           0
     48659 MEMB     79       PPPE     C23      CTL2    -0.180000       12.0110           0
     48660 MEMB     79       PPPE     H3R      HAL2     0.900000E-01   1.00800           0
     48661 MEMB     79       PPPE     H3S      HAL2     0.900000E-01   1.00800           0
     48662 MEMB     79       PPPE     C24      CTL2    -0.180000       12.0110           0
     48663 MEMB     79       PPPE     H4R      HAL2     0.900000E-01   1.00800           0
     48664 MEMB     79       PPPE     H4S      HAL2     0.900000E-01   1.00800           0
     48665 MEMB     79       PPPE     C25      CTL2    -0.180000       12.0110           0
     48666 MEMB     79       PPPE     H5R      HAL2     0.900000E-01   1.00800           0
     48667 MEMB     79       PPPE     H5S      HAL2     0.900000E-01   1.00800           0
     48668 MEMB     79       PPPE     C26      CTL2    -0.180000       12.0110           0
     48669 MEMB     79       PPPE     H6R      HAL2     0.900000E-01   1.00800           0
     48670 MEMB     79       PPPE     H6S      HAL2     0.900000E-01   1.00800           0
     48671 MEMB     79       PPPE     C27      CTL2    -0.180000       12.0110           0
     48672 MEMB     79       PPPE     H7R      HAL2     0.900000E-01   1.00800           0
     48673 MEMB     79       PPPE     H7S      HAL2     0.900000E-01   1.00800           0
     48674 MEMB     79       PPPE     C28      CTL2    -0.180000       12.0110           0
     48675 MEMB     79       PPPE     H8R      HAL2     0.900000E-01   1.00800           0
     48676 MEMB     79       PPPE     H8S      HAL2     0.900000E-01   1.00800           0
     48677 MEMB     79       PPPE     C29      CEL1    -0.150000       12.0110           0
     48678 MEMB     79       PPPE     H91      HEL1     0.150000       1.00800           0
     48679 MEMB     79       PPPE     C210     CEL1    -0.150000       12.0110           0
     48680 MEMB     79       PPPE     H101     HEL1     0.150000       1.00800           0
     48681 MEMB     79       PPPE     C211     CTL2    -0.180000       12.0110           0
     48682 MEMB     79       PPPE     H11R     HAL2     0.900000E-01   1.00800           0
     48683 MEMB     79       PPPE     H11S     HAL2     0.900000E-01   1.00800           0
     48684 MEMB     79       PPPE     C212     CTL2    -0.180000       12.0110           0
     48685 MEMB     79       PPPE     H12R     HAL2     0.900000E-01   1.00800           0
     48686 MEMB     79       PPPE     H12S     HAL2     0.900000E-01   1.00800           0
     48687 MEMB     79       PPPE     C213     CTL2    -0.180000       12.0110           0
     48688 MEMB     79       PPPE     H13R     HAL2     0.900000E-01   1.00800           0
     48689 MEMB     79       PPPE     H13S     HAL2     0.900000E-01   1.00800           0
     48690 MEMB     79       PPPE     C214     CTL2    -0.180000       12.0110           0
     48691 MEMB     79       PPPE     H14R     HAL2     0.900000E-01   1.00800           0
     48692 MEMB     79       PPPE     H14S     HAL2     0.900000E-01   1.00800           0
     48693 MEMB     79       PPPE     C215     CTL2    -0.180000       12.0110           0
     48694 MEMB     79       PPPE     H15R     HAL2     0.900000E-01   1.00800           0
     48695 MEMB     79       PPPE     H15S     HAL2     0.900000E-01   1.00800           0
     48696 MEMB     79       PPPE     C216     CTL3    -0.270000       12.0110           0
     48697 MEMB     79       PPPE     H16R     HAL3     0.900000E-01   1.00800           0
     48698 MEMB     79       PPPE     H16S     HAL3     0.900000E-01   1.00800           0
     48699 MEMB     79       PPPE     H16T     HAL3     0.900000E-01   1.00800           0
     48700 MEMB     79       PPPE     C33      CTL2    -0.180000       12.0110           0
     48701 MEMB     79       PPPE     H3X      HAL2     0.900000E-01   1.00800           0
     48702 MEMB     79       PPPE     H3Y      HAL2     0.900000E-01   1.00800           0
     48703 MEMB     79       PPPE     C34      CTL2    -0.180000       12.0110           0
     48704 MEMB     79       PPPE     H4X      HAL2     0.900000E-01   1.00800           0
     48705 MEMB     79       PPPE     H4Y      HAL2     0.900000E-01   1.00800           0
     48706 MEMB     79       PPPE     C35      CTL2    -0.180000       12.0110           0
     48707 MEMB     79       PPPE     H5X      HAL2     0.900000E-01   1.00800           0
     48708 MEMB     79       PPPE     H5Y      HAL2     0.900000E-01   1.00800           0
     48709 MEMB     79       PPPE     C36      CTL2    -0.180000       12.0110           0
     48710 MEMB     79       PPPE     H6X      HAL2     0.900000E-01   1.00800           0
     48711 MEMB     79       PPPE     H6Y      HAL2     0.900000E-01   1.00800           0
     48712 MEMB     79       PPPE     C37      CTL2    -0.180000       12.0110           0
     48713 MEMB     79       PPPE     H7X      HAL2     0.900000E-01   1.00800           0
     48714 MEMB     79       PPPE     H7Y      HAL2     0.900000E-01   1.00800           0
     48715 MEMB     79       PPPE     C38      CTL2    -0.180000       12.0110           0
     48716 MEMB     79       PPPE     H8X      HAL2     0.900000E-01   1.00800           0
     48717 MEMB     79       PPPE     H8Y      HAL2     0.900000E-01   1.00800           0
     48718 MEMB     79       PPPE     C39      CTL2    -0.180000       12.0110           0
     48719 MEMB     79       PPPE     H9X      HAL2     0.900000E-01   1.00800           0
     48720 MEMB     79       PPPE     H9Y      HAL2     0.900000E-01   1.00800           0
     48721 MEMB     79       PPPE     C310     CTL2    -0.180000       12.0110           0
     48722 MEMB     79       PPPE     H10X     HAL2     0.900000E-01   1.00800           0
     48723 MEMB     79       PPPE     H10Y     HAL2     0.900000E-01   1.00800           0
     48724 MEMB     79       PPPE     C311     CTL2    -0.180000       12.0110           0
     48725 MEMB     79       PPPE     H11X     HAL2     0.900000E-01   1.00800           0
     48726 MEMB     79       PPPE     H11Y     HAL2     0.900000E-01   1.00800           0
     48727 MEMB     79       PPPE     C312     CTL2    -0.180000       12.0110           0
     48728 MEMB     79       PPPE     H12X     HAL2     0.900000E-01   1.00800           0
     48729 MEMB     79       PPPE     H12Y     HAL2     0.900000E-01   1.00800           0
     48730 MEMB     79       PPPE     C313     CTL2    -0.180000       12.0110           0
     48731 MEMB     79       PPPE     H13X     HAL2     0.900000E-01   1.00800           0
     48732 MEMB     79       PPPE     H13Y     HAL2     0.900000E-01   1.00800           0
     48733 MEMB     79       PPPE     C314     CTL2    -0.180000       12.0110           0
     48734 MEMB     79       PPPE     H14X     HAL2     0.900000E-01   1.00800           0
     48735 MEMB     79       PPPE     H14Y     HAL2     0.900000E-01   1.00800           0
     48736 MEMB     79       PPPE     C315     CTL2    -0.180000       12.0110           0
     48737 MEMB     79       PPPE     H15X     HAL2     0.900000E-01   1.00800           0
     48738 MEMB     79       PPPE     H15Y     HAL2     0.900000E-01   1.00800           0
     48739 MEMB     79       PPPE     C316     CTL3    -0.270000       12.0110           0
     48740 MEMB     79       PPPE     H16X     HAL3     0.900000E-01   1.00800           0
     48741 MEMB     79       PPPE     H16Y     HAL3     0.900000E-01   1.00800           0
     48742 MEMB     79       PPPE     H16Z     HAL3     0.900000E-01   1.00800           0
     48743 MEMB     80       PPPE     N        NH3L    -0.300000       14.0070           0
     48744 MEMB     80       PPPE     HN1      HCL      0.330000       1.00800           0
     48745 MEMB     80       PPPE     HN2      HCL      0.330000       1.00800           0
     48746 MEMB     80       PPPE     HN3      HCL      0.330000       1.00800           0
     48747 MEMB     80       PPPE     C12      CTL2     0.130000       12.0110           0
     48748 MEMB     80       PPPE     H12A     HAL2     0.900000E-01   1.00800           0
     48749 MEMB     80       PPPE     H12B     HAL2     0.900000E-01   1.00800           0
     48750 MEMB     80       PPPE     C11      CTL2    -0.800000E-01   12.0110           0
     48751 MEMB     80       PPPE     H11A     HAL2     0.900000E-01   1.00800           0
     48752 MEMB     80       PPPE     H11B     HAL2     0.900000E-01   1.00800           0
     48753 MEMB     80       PPPE     P        PL        1.50000       30.9740           0
     48754 MEMB     80       PPPE     O13      O2L     -0.780000       15.9994           0
     48755 MEMB     80       PPPE     O14      O2L     -0.780000       15.9994           0
     48756 MEMB     80       PPPE     O11      OSLP    -0.570000       15.9994           0
     48757 MEMB     80       PPPE     O12      OSLP    -0.570000       15.9994           0
     48758 MEMB     80       PPPE     C1       CTL2    -0.800000E-01   12.0110           0
     48759 MEMB     80       PPPE     HA       HAL2     0.900000E-01   1.00800           0
     48760 MEMB     80       PPPE     HB       HAL2     0.900000E-01   1.00800           0
     48761 MEMB     80       PPPE     C2       CTL1     0.170000       12.0110           0
     48762 MEMB     80       PPPE     HS       HAL1     0.900000E-01   1.00800           0
     48763 MEMB     80       PPPE     O21      OSL     -0.490000       15.9994           0
     48764 MEMB     80       PPPE     C21      CL       0.900000       12.0110           0
     48765 MEMB     80       PPPE     O22      OBL     -0.630000       15.9994           0
     48766 MEMB     80       PPPE     C22      CTL2    -0.220000       12.0110           0
     48767 MEMB     80       PPPE     H2R      HAL2     0.900000E-01   1.00800           0
     48768 MEMB     80       PPPE     H2S      HAL2     0.900000E-01   1.00800           0
     48769 MEMB     80       PPPE     C3       CTL2     0.800000E-01   12.0110           0
     48770 MEMB     80       PPPE     HX       HAL2     0.900000E-01   1.00800           0
     48771 MEMB     80       PPPE     HY       HAL2     0.900000E-01   1.00800           0
     48772 MEMB     80       PPPE     O31      OSL     -0.490000       15.9994           0
     48773 MEMB     80       PPPE     C31      CL       0.900000       12.0110           0
     48774 MEMB     80       PPPE     O32      OBL     -0.630000       15.9994           0
     48775 MEMB     80       PPPE     C32      CTL2    -0.220000       12.0110           0
     48776 MEMB     80       PPPE     H2X      HAL2     0.900000E-01   1.00800           0
     48777 MEMB     80       PPPE     H2Y      HAL2     0.900000E-01   1.00800           0
     48778 MEMB     80       PPPE     C23      CTL2    -0.180000       12.0110           0
     48779 MEMB     80       PPPE     H3R      HAL2     0.900000E-01   1.00800           0
     48780 MEMB     80       PPPE     H3S      HAL2     0.900000E-01   1.00800           0
     48781 MEMB     80       PPPE     C24      CTL2    -0.180000       12.0110           0
     48782 MEMB     80       PPPE     H4R      HAL2     0.900000E-01   1.00800           0
     48783 MEMB     80       PPPE     H4S      HAL2     0.900000E-01   1.00800           0
     48784 MEMB     80       PPPE     C25      CTL2    -0.180000       12.0110           0
     48785 MEMB     80       PPPE     H5R      HAL2     0.900000E-01   1.00800           0
     48786 MEMB     80       PPPE     H5S      HAL2     0.900000E-01   1.00800           0
     48787 MEMB     80       PPPE     C26      CTL2    -0.180000       12.0110           0
     48788 MEMB     80       PPPE     H6R      HAL2     0.900000E-01   1.00800           0
     48789 MEMB     80       PPPE     H6S      HAL2     0.900000E-01   1.00800           0
     48790 MEMB     80       PPPE     C27      CTL2    -0.180000       12.0110           0
     48791 MEMB     80       PPPE     H7R      HAL2     0.900000E-01   1.00800           0
     48792 MEMB     80       PPPE     H7S      HAL2     0.900000E-01   1.00800           0
     48793 MEMB     80       PPPE     C28      CTL2    -0.180000       12.0110           0
     48794 MEMB     80       PPPE     H8R      HAL2     0.900000E-01   1.00800           0
     48795 MEMB     80       PPPE     H8S      HAL2     0.900000E-01   1.00800           0
     48796 MEMB     80       PPPE     C29      CEL1    -0.150000       12.0110           0
     48797 MEMB     80       PPPE     H91      HEL1     0.150000       1.00800           0
     48798 MEMB     80       PPPE     C210     CEL1    -0.150000       12.0110           0
     48799 MEMB     80       PPPE     H101     HEL1     0.150000       1.00800           0
     48800 MEMB     80       PPPE     C211     CTL2    -0.180000       12.0110           0
     48801 MEMB     80       PPPE     H11R     HAL2     0.900000E-01   1.00800           0
     48802 MEMB     80       PPPE     H11S     HAL2     0.900000E-01   1.00800           0
     48803 MEMB     80       PPPE     C212     CTL2    -0.180000       12.0110           0
     48804 MEMB     80       PPPE     H12R     HAL2     0.900000E-01   1.00800           0
     48805 MEMB     80       PPPE     H12S     HAL2     0.900000E-01   1.00800           0
     48806 MEMB     80       PPPE     C213     CTL2    -0.180000       12.0110           0
     48807 MEMB     80       PPPE     H13R     HAL2     0.900000E-01   1.00800           0
     48808 MEMB     80       PPPE     H13S     HAL2     0.900000E-01   1.00800           0
     48809 MEMB     80       PPPE     C214     CTL2    -0.180000       12.0110           0
     48810 MEMB     80       PPPE     H14R     HAL2     0.900000E-01   1.00800           0
     48811 MEMB     80       PPPE     H14S     HAL2     0.900000E-01   1.00800           0
     48812 MEMB     80       PPPE     C215     CTL2    -0.180000       12.0110           0
     48813 MEMB     80       PPPE     H15R     HAL2     0.900000E-01   1.00800           0
     48814 MEMB     80       PPPE     H15S     HAL2     0.900000E-01   1.00800           0
     48815 MEMB     80       PPPE     C216     CTL3    -0.270000       12.0110           0
     48816 MEMB     80       PPPE     H16R     HAL3     0.900000E-01   1.00800           0
     48817 MEMB     80       PPPE     H16S     HAL3     0.900000E-01   1.00800           0
     48818 MEMB     80       PPPE     H16T     HAL3     0.900000E-01   1.00800           0
     48819 MEMB     80       PPPE     C33      CTL2    -0.180000       12.0110           0
     48820 MEMB     80       PPPE     H3X      HAL2     0.900000E-01   1.00800           0
     48821 MEMB     80       PPPE     H3Y      HAL2     0.900000E-01   1.00800           0
     48822 MEMB     80       PPPE     C34      CTL2    -0.180000       12.0110           0
     48823 MEMB     80       PPPE     H4X      HAL2     0.900000E-01   1.00800           0
     48824 MEMB     80       PPPE     H4Y      HAL2     0.900000E-01   1.00800           0
     48825 MEMB     80       PPPE     C35      CTL2    -0.180000       12.0110           0
     48826 MEMB     80       PPPE     H5X      HAL2     0.900000E-01   1.00800           0
     48827 MEMB     80       PPPE     H5Y      HAL2     0.900000E-01   1.00800           0
     48828 MEMB     80       PPPE     C36      CTL2    -0.180000       12.0110           0
     48829 MEMB     80       PPPE     H6X      HAL2     0.900000E-01   1.00800           0
     48830 MEMB     80       PPPE     H6Y      HAL2     0.900000E-01   1.00800           0
     48831 MEMB     80       PPPE     C37      CTL2    -0.180000       12.0110           0
     48832 MEMB     80       PPPE     H7X      HAL2     0.900000E-01   1.00800           0
     48833 MEMB     80       PPPE     H7Y      HAL2     0.900000E-01   1.00800           0
     48834 MEMB     80       PPPE     C38      CTL2    -0.180000       12.0110           0
     48835 MEMB     80       PPPE     H8X      HAL2     0.900000E-01   1.00800           0
     48836 MEMB     80       PPPE     H8Y      HAL2     0.900000E-01   1.00800           0
     48837 MEMB     80       PPPE     C39      CTL2    -0.180000       12.0110           0
     48838 MEMB     80       PPPE     H9X      HAL2     0.900000E-01   1.00800           0
     48839 MEMB     80       PPPE     H9Y      HAL2     0.900000E-01   1.00800           0
     48840 MEMB     80       PPPE     C310     CTL2    -0.180000       12.0110           0
     48841 MEMB     80       PPPE     H10X     HAL2     0.900000E-01   1.00800           0
     48842 MEMB     80       PPPE     H10Y     HAL2     0.900000E-01   1.00800           0
     48843 MEMB     80       PPPE     C311     CTL2    -0.180000       12.0110           0
     48844 MEMB     80       PPPE     H11X     HAL2     0.900000E-01   1.00800           0
     48845 MEMB     80       PPPE     H11Y     HAL2     0.900000E-01   1.00800           0
     48846 MEMB     80       PPPE     C312     CTL2    -0.180000       12.0110           0
     48847 MEMB     80       PPPE     H12X     HAL2     0.900000E-01   1.00800           0
     48848 MEMB     80       PPPE     H12Y     HAL2     0.900000E-01   1.00800           0
     48849 MEMB     80       PPPE     C313     CTL2    -0.180000       12.0110           0
     48850 MEMB     80       PPPE     H13X     HAL2     0.900000E-01   1.00800           0
     48851 MEMB     80       PPPE     H13Y     HAL2     0.900000E-01   1.00800           0
     48852 MEMB     80       PPPE     C314     CTL2    -0.180000       12.0110           0
     48853 MEMB     80       PPPE     H14X     HAL2     0.900000E-01   1.00800           0
     48854 MEMB     80       PPPE     H14Y     HAL2     0.900000E-01   1.00800           0
     48855 MEMB     80       PPPE     C315     CTL2    -0.180000       12.0110           0
     48856 MEMB     80       PPPE     H15X     HAL2     0.900000E-01   1.00800           0
     48857 MEMB     80       PPPE     H15Y     HAL2     0.900000E-01   1.00800           0
     48858 MEMB     80       PPPE     C316     CTL3    -0.270000       12.0110           0
     48859 MEMB     80       PPPE     H16X     HAL3     0.900000E-01   1.00800           0
     48860 MEMB     80       PPPE     H16Y     HAL3     0.900000E-01   1.00800           0
     48861 MEMB     80       PPPE     H16Z     HAL3     0.900000E-01   1.00800           0
     48862 MEMB     81       PPPE     N        NH3L    -0.300000       14.0070           0
     48863 MEMB     81       PPPE     HN1      HCL      0.330000       1.00800           0
     48864 MEMB     81       PPPE     HN2      HCL      0.330000       1.00800           0
     48865 MEMB     81       PPPE     HN3      HCL      0.330000       1.00800           0
     48866 MEMB     81       PPPE     C12      CTL2     0.130000       12.0110           0
     48867 MEMB     81       PPPE     H12A     HAL2     0.900000E-01   1.00800           0
     48868 MEMB     81       PPPE     H12B     HAL2     0.900000E-01   1.00800           0
     48869 MEMB     81       PPPE     C11      CTL2    -0.800000E-01   12.0110           0
     48870 MEMB     81       PPPE     H11A     HAL2     0.900000E-01   1.00800           0
     48871 MEMB     81       PPPE     H11B     HAL2     0.900000E-01   1.00800           0
     48872 MEMB     81       PPPE     P        PL        1.50000       30.9740           0
     48873 MEMB     81       PPPE     O13      O2L     -0.780000       15.9994           0
     48874 MEMB     81       PPPE     O14      O2L     -0.780000       15.9994           0
     48875 MEMB     81       PPPE     O11      OSLP    -0.570000       15.9994           0
     48876 MEMB     81       PPPE     O12      OSLP    -0.570000       15.9994           0
     48877 MEMB     81       PPPE     C1       CTL2    -0.800000E-01   12.0110           0
     48878 MEMB     81       PPPE     HA       HAL2     0.900000E-01   1.00800           0
     48879 MEMB     81       PPPE     HB       HAL2     0.900000E-01   1.00800           0
     48880 MEMB     81       PPPE     C2       CTL1     0.170000       12.0110           0
     48881 MEMB     81       PPPE     HS       HAL1     0.900000E-01   1.00800           0
     48882 MEMB     81       PPPE     O21      OSL     -0.490000       15.9994           0
     48883 MEMB     81       PPPE     C21      CL       0.900000       12.0110           0
     48884 MEMB     81       PPPE     O22      OBL     -0.630000       15.9994           0
     48885 MEMB     81       PPPE     C22      CTL2    -0.220000       12.0110           0
     48886 MEMB     81       PPPE     H2R      HAL2     0.900000E-01   1.00800           0
     48887 MEMB     81       PPPE     H2S      HAL2     0.900000E-01   1.00800           0
     48888 MEMB     81       PPPE     C3       CTL2     0.800000E-01   12.0110           0
     48889 MEMB     81       PPPE     HX       HAL2     0.900000E-01   1.00800           0
     48890 MEMB     81       PPPE     HY       HAL2     0.900000E-01   1.00800           0
     48891 MEMB     81       PPPE     O31      OSL     -0.490000       15.9994           0
     48892 MEMB     81       PPPE     C31      CL       0.900000       12.0110           0
     48893 MEMB     81       PPPE     O32      OBL     -0.630000       15.9994           0
     48894 MEMB     81       PPPE     C32      CTL2    -0.220000       12.0110           0
     48895 MEMB     81       PPPE     H2X      HAL2     0.900000E-01   1.00800           0
     48896 MEMB     81       PPPE     H2Y      HAL2     0.900000E-01   1.00800           0
     48897 MEMB     81       PPPE     C23      CTL2    -0.180000       12.0110           0
     48898 MEMB     81       PPPE     H3R      HAL2     0.900000E-01   1.00800           0
     48899 MEMB     81       PPPE     H3S      HAL2     0.900000E-01   1.00800           0
     48900 MEMB     81       PPPE     C24      CTL2    -0.180000       12.0110           0
     48901 MEMB     81       PPPE     H4R      HAL2     0.900000E-01   1.00800           0
     48902 MEMB     81       PPPE     H4S      HAL2     0.900000E-01   1.00800           0
     48903 MEMB     81       PPPE     C25      CTL2    -0.180000       12.0110           0
     48904 MEMB     81       PPPE     H5R      HAL2     0.900000E-01   1.00800           0
     48905 MEMB     81       PPPE     H5S      HAL2     0.900000E-01   1.00800           0
     48906 MEMB     81       PPPE     C26      CTL2    -0.180000       12.0110           0
     48907 MEMB     81       PPPE     H6R      HAL2     0.900000E-01   1.00800           0
     48908 MEMB     81       PPPE     H6S      HAL2     0.900000E-01   1.00800           0
     48909 MEMB     81       PPPE     C27      CTL2    -0.180000       12.0110           0
     48910 MEMB     81       PPPE     H7R      HAL2     0.900000E-01   1.00800           0
     48911 MEMB     81       PPPE     H7S      HAL2     0.900000E-01   1.00800           0
     48912 MEMB     81       PPPE     C28      CTL2    -0.180000       12.0110           0
     48913 MEMB     81       PPPE     H8R      HAL2     0.900000E-01   1.00800           0
     48914 MEMB     81       PPPE     H8S      HAL2     0.900000E-01   1.00800           0
     48915 MEMB     81       PPPE     C29      CEL1    -0.150000       12.0110           0
     48916 MEMB     81       PPPE     H91      HEL1     0.150000       1.00800           0
     48917 MEMB     81       PPPE     C210     CEL1    -0.150000       12.0110           0
     48918 MEMB     81       PPPE     H101     HEL1     0.150000       1.00800           0
     48919 MEMB     81       PPPE     C211     CTL2    -0.180000       12.0110           0
     48920 MEMB     81       PPPE     H11R     HAL2     0.900000E-01   1.00800           0
     48921 MEMB     81       PPPE     H11S     HAL2     0.900000E-01   1.00800           0
     48922 MEMB     81       PPPE     C212     CTL2    -0.180000       12.0110           0
     48923 MEMB     81       PPPE     H12R     HAL2     0.900000E-01   1.00800           0
     48924 MEMB     81       PPPE     H12S     HAL2     0.900000E-01   1.00800           0
     48925 MEMB     81       PPPE     C213     CTL2    -0.180000       12.0110           0
     48926 MEMB     81       PPPE     H13R     HAL2     0.900000E-01   1.00800           0
     48927 MEMB     81       PPPE     H13S     HAL2     0.900000E-01   1.00800           0
     48928 MEMB     81       PPPE     C214     CTL2    -0.180000       12.0110           0
     48929 MEMB     81       PPPE     H14R     HAL2     0.900000E-01   1.00800           0
     48930 MEMB     81       PPPE     H14S     HAL2     0.900000E-01   1.00800           0
     48931 MEMB     81       PPPE     C215     CTL2    -0.180000       12.0110           0
     48932 MEMB     81       PPPE     H15R     HAL2     0.900000E-01   1.00800           0
     48933 MEMB     81       PPPE     H15S     HAL2     0.900000E-01   1.00800           0
     48934 MEMB     81       PPPE     C216     CTL3    -0.270000       12.0110           0
     48935 MEMB     81       PPPE     H16R     HAL3     0.900000E-01   1.00800           0
     48936 MEMB     81       PPPE     H16S     HAL3     0.900000E-01   1.00800           0
     48937 MEMB     81       PPPE     H16T     HAL3     0.900000E-01   1.00800           0
     48938 MEMB     81       PPPE     C33      CTL2    -0.180000       12.0110           0
     48939 MEMB     81       PPPE     H3X      HAL2     0.900000E-01   1.00800           0
     48940 MEMB     81       PPPE     H3Y      HAL2     0.900000E-01   1.00800           0
     48941 MEMB     81       PPPE     C34      CTL2    -0.180000       12.0110           0
     48942 MEMB     81       PPPE     H4X      HAL2     0.900000E-01   1.00800           0
     48943 MEMB     81       PPPE     H4Y      HAL2     0.900000E-01   1.00800           0
     48944 MEMB     81       PPPE     C35      CTL2    -0.180000       12.0110           0
     48945 MEMB     81       PPPE     H5X      HAL2     0.900000E-01   1.00800           0
     48946 MEMB     81       PPPE     H5Y      HAL2     0.900000E-01   1.00800           0
     48947 MEMB     81       PPPE     C36      CTL2    -0.180000       12.0110           0
     48948 MEMB     81       PPPE     H6X      HAL2     0.900000E-01   1.00800           0
     48949 MEMB     81       PPPE     H6Y      HAL2     0.900000E-01   1.00800           0
     48950 MEMB     81       PPPE     C37      CTL2    -0.180000       12.0110           0
     48951 MEMB     81       PPPE     H7X      HAL2     0.900000E-01   1.00800           0
     48952 MEMB     81       PPPE     H7Y      HAL2     0.900000E-01   1.00800           0
     48953 MEMB     81       PPPE     C38      CTL2    -0.180000       12.0110           0
     48954 MEMB     81       PPPE     H8X      HAL2     0.900000E-01   1.00800           0
     48955 MEMB     81       PPPE     H8Y      HAL2     0.900000E-01   1.00800           0
     48956 MEMB     81       PPPE     C39      CTL2    -0.180000       12.0110           0
     48957 MEMB     81       PPPE     H9X      HAL2     0.900000E-01   1.00800           0
     48958 MEMB     81       PPPE     H9Y      HAL2     0.900000E-01   1.00800           0
     48959 MEMB     81       PPPE     C310     CTL2    -0.180000       12.0110           0
     48960 MEMB     81       PPPE     H10X     HAL2     0.900000E-01   1.00800           0
     48961 MEMB     81       PPPE     H10Y     HAL2     0.900000E-01   1.00800           0
     48962 MEMB     81       PPPE     C311     CTL2    -0.180000       12.0110           0
     48963 MEMB     81       PPPE     H11X     HAL2     0.900000E-01   1.00800           0
     48964 MEMB     81       PPPE     H11Y     HAL2     0.900000E-01   1.00800           0
     48965 MEMB     81       PPPE     C312     CTL2    -0.180000       12.0110           0
     48966 MEMB     81       PPPE     H12X     HAL2     0.900000E-01   1.00800           0
     48967 MEMB     81       PPPE     H12Y     HAL2     0.900000E-01   1.00800           0
     48968 MEMB     81       PPPE     C313     CTL2    -0.180000       12.0110           0
     48969 MEMB     81       PPPE     H13X     HAL2     0.900000E-01   1.00800           0
     48970 MEMB     81       PPPE     H13Y     HAL2     0.900000E-01   1.00800           0
     48971 MEMB     81       PPPE     C314     CTL2    -0.180000       12.0110           0
     48972 MEMB     81       PPPE     H14X     HAL2     0.900000E-01   1.00800           0
     48973 MEMB     81       PPPE     H14Y     HAL2     0.900000E-01   1.00800           0
     48974 MEMB     81       PPPE     C315     CTL2    -0.180000       12.0110           0
     48975 MEMB     81       PPPE     H15X     HAL2     0.900000E-01   1.00800           0
     48976 MEMB     81       PPPE     H15Y     HAL2     0.900000E-01   1.00800           0
     48977 MEMB     81       PPPE     C316     CTL3    -0.270000       12.0110           0
     48978 MEMB     81       PPPE     H16X     HAL3     0.900000E-01   1.00800           0
     48979 MEMB     81       PPPE     H16Y     HAL3     0.900000E-01   1.00800           0
     48980 MEMB     81       PPPE     H16Z     HAL3     0.900000E-01   1.00800           0
     48981 MEMB     82       PPPE     N        NH3L    -0.300000       14.0070           0
     48982 MEMB     82       PPPE     HN1      HCL      0.330000       1.00800           0
     48983 MEMB     82       PPPE     HN2      HCL      0.330000       1.00800           0
     48984 MEMB     82       PPPE     HN3      HCL      0.330000       1.00800           0
     48985 MEMB     82       PPPE     C12      CTL2     0.130000       12.0110           0
     48986 MEMB     82       PPPE     H12A     HAL2     0.900000E-01   1.00800           0
     48987 MEMB     82       PPPE     H12B     HAL2     0.900000E-01   1.00800           0
     48988 MEMB     82       PPPE     C11      CTL2    -0.800000E-01   12.0110           0
     48989 MEMB     82       PPPE     H11A     HAL2     0.900000E-01   1.00800           0
     48990 MEMB     82       PPPE     H11B     HAL2     0.900000E-01   1.00800           0
     48991 MEMB     82       PPPE     P        PL        1.50000       30.9740           0
     48992 MEMB     82       PPPE     O13      O2L     -0.780000       15.9994           0
     48993 MEMB     82       PPPE     O14      O2L     -0.780000       15.9994           0
     48994 MEMB     82       PPPE     O11      OSLP    -0.570000       15.9994           0
     48995 MEMB     82       PPPE     O12      OSLP    -0.570000       15.9994           0
     48996 MEMB     82       PPPE     C1       CTL2    -0.800000E-01   12.0110           0
     48997 MEMB     82       PPPE     HA       HAL2     0.900000E-01   1.00800           0
     48998 MEMB     82       PPPE     HB       HAL2     0.900000E-01   1.00800           0
     48999 MEMB     82       PPPE     C2       CTL1     0.170000       12.0110           0
     49000 MEMB     82       PPPE     HS       HAL1     0.900000E-01   1.00800           0
     49001 MEMB     82       PPPE     O21      OSL     -0.490000       15.9994           0
     49002 MEMB     82       PPPE     C21      CL       0.900000       12.0110           0
     49003 MEMB     82       PPPE     O22      OBL     -0.630000       15.9994           0
     49004 MEMB     82       PPPE     C22      CTL2    -0.220000       12.0110           0
     49005 MEMB     82       PPPE     H2R      HAL2     0.900000E-01   1.00800           0
     49006 MEMB     82       PPPE     H2S      HAL2     0.900000E-01   1.00800           0
     49007 MEMB     82       PPPE     C3       CTL2     0.800000E-01   12.0110           0
     49008 MEMB     82       PPPE     HX       HAL2     0.900000E-01   1.00800           0
     49009 MEMB     82       PPPE     HY       HAL2     0.900000E-01   1.00800           0
     49010 MEMB     82       PPPE     O31      OSL     -0.490000       15.9994           0
     49011 MEMB     82       PPPE     C31      CL       0.900000       12.0110           0
     49012 MEMB     82       PPPE     O32      OBL     -0.630000       15.9994           0
     49013 MEMB     82       PPPE     C32      CTL2    -0.220000       12.0110           0
     49014 MEMB     82       PPPE     H2X      HAL2     0.900000E-01   1.00800           0
     49015 MEMB     82       PPPE     H2Y      HAL2     0.900000E-01   1.00800           0
     49016 MEMB     82       PPPE     C23      CTL2    -0.180000       12.0110           0
     49017 MEMB     82       PPPE     H3R      HAL2     0.900000E-01   1.00800           0
     49018 MEMB     82       PPPE     H3S      HAL2     0.900000E-01   1.00800           0
     49019 MEMB     82       PPPE     C24      CTL2    -0.180000       12.0110           0
     49020 MEMB     82       PPPE     H4R      HAL2     0.900000E-01   1.00800           0
     49021 MEMB     82       PPPE     H4S      HAL2     0.900000E-01   1.00800           0
     49022 MEMB     82       PPPE     C25      CTL2    -0.180000       12.0110           0
     49023 MEMB     82       PPPE     H5R      HAL2     0.900000E-01   1.00800           0
     49024 MEMB     82       PPPE     H5S      HAL2     0.900000E-01   1.00800           0
     49025 MEMB     82       PPPE     C26      CTL2    -0.180000       12.0110           0
     49026 MEMB     82       PPPE     H6R      HAL2     0.900000E-01   1.00800           0
     49027 MEMB     82       PPPE     H6S      HAL2     0.900000E-01   1.00800           0
     49028 MEMB     82       PPPE     C27      CTL2    -0.180000       12.0110           0
     49029 MEMB     82       PPPE     H7R      HAL2     0.900000E-01   1.00800           0
     49030 MEMB     82       PPPE     H7S      HAL2     0.900000E-01   1.00800           0
     49031 MEMB     82       PPPE     C28      CTL2    -0.180000       12.0110           0
     49032 MEMB     82       PPPE     H8R      HAL2     0.900000E-01   1.00800           0
     49033 MEMB     82       PPPE     H8S      HAL2     0.900000E-01   1.00800           0
     49034 MEMB     82       PPPE     C29      CEL1    -0.150000       12.0110           0
     49035 MEMB     82       PPPE     H91      HEL1     0.150000       1.00800           0
     49036 MEMB     82       PPPE     C210     CEL1    -0.150000       12.0110           0
     49037 MEMB     82       PPPE     H101     HEL1     0.150000       1.00800           0
     49038 MEMB     82       PPPE     C211     CTL2    -0.180000       12.0110           0
     49039 MEMB     82       PPPE     H11R     HAL2     0.900000E-01   1.00800           0
     49040 MEMB     82       PPPE     H11S     HAL2     0.900000E-01   1.00800           0
     49041 MEMB     82       PPPE     C212     CTL2    -0.180000       12.0110           0
     49042 MEMB     82       PPPE     H12R     HAL2     0.900000E-01   1.00800           0
     49043 MEMB     82       PPPE     H12S     HAL2     0.900000E-01   1.00800           0
     49044 MEMB     82       PPPE     C213     CTL2    -0.180000       12.0110           0
     49045 MEMB     82       PPPE     H13R     HAL2     0.900000E-01   1.00800           0
     49046 MEMB     82       PPPE     H13S     HAL2     0.900000E-01   1.00800           0
     49047 MEMB     82       PPPE     C214     CTL2    -0.180000       12.0110           0
     49048 MEMB     82       PPPE     H14R     HAL2     0.900000E-01   1.00800           0
     49049 MEMB     82       PPPE     H14S     HAL2     0.900000E-01   1.00800           0
     49050 MEMB     82       PPPE     C215     CTL2    -0.180000       12.0110           0
     49051 MEMB     82       PPPE     H15R     HAL2     0.900000E-01   1.00800           0
     49052 MEMB     82       PPPE     H15S     HAL2     0.900000E-01   1.00800           0
     49053 MEMB     82       PPPE     C216     CTL3    -0.270000       12.0110           0
     49054 MEMB     82       PPPE     H16R     HAL3     0.900000E-01   1.00800           0
     49055 MEMB     82       PPPE     H16S     HAL3     0.900000E-01   1.00800           0
     49056 MEMB     82       PPPE     H16T     HAL3     0.900000E-01   1.00800           0
     49057 MEMB     82       PPPE     C33      CTL2    -0.180000       12.0110           0
     49058 MEMB     82       PPPE     H3X      HAL2     0.900000E-01   1.00800           0
     49059 MEMB     82       PPPE     H3Y      HAL2     0.900000E-01   1.00800           0
     49060 MEMB     82       PPPE     C34      CTL2    -0.180000       12.0110           0
     49061 MEMB     82       PPPE     H4X      HAL2     0.900000E-01   1.00800           0
     49062 MEMB     82       PPPE     H4Y      HAL2     0.900000E-01   1.00800           0
     49063 MEMB     82       PPPE     C35      CTL2    -0.180000       12.0110           0
     49064 MEMB     82       PPPE     H5X      HAL2     0.900000E-01   1.00800           0
     49065 MEMB     82       PPPE     H5Y      HAL2     0.900000E-01   1.00800           0
     49066 MEMB     82       PPPE     C36      CTL2    -0.180000       12.0110           0
     49067 MEMB     82       PPPE     H6X      HAL2     0.900000E-01   1.00800           0
     49068 MEMB     82       PPPE     H6Y      HAL2     0.900000E-01   1.00800           0
     49069 MEMB     82       PPPE     C37      CTL2    -0.180000       12.0110           0
     49070 MEMB     82       PPPE     H7X      HAL2     0.900000E-01   1.00800           0
     49071 MEMB     82       PPPE     H7Y      HAL2     0.900000E-01   1.00800           0
     49072 MEMB     82       PPPE     C38      CTL2    -0.180000       12.0110           0
     49073 MEMB     82       PPPE     H8X      HAL2     0.900000E-01   1.00800           0
     49074 MEMB     82       PPPE     H8Y      HAL2     0.900000E-01   1.00800           0
     49075 MEMB     82       PPPE     C39      CTL2    -0.180000       12.0110           0
     49076 MEMB     82       PPPE     H9X      HAL2     0.900000E-01   1.00800           0
     49077 MEMB     82       PPPE     H9Y      HAL2     0.900000E-01   1.00800           0
     49078 MEMB     82       PPPE     C310     CTL2    -0.180000       12.0110           0
     49079 MEMB     82       PPPE     H10X     HAL2     0.900000E-01   1.00800           0
     49080 MEMB     82       PPPE     H10Y     HAL2     0.900000E-01   1.00800           0
     49081 MEMB     82       PPPE     C311     CTL2    -0.180000       12.0110           0
     49082 MEMB     82       PPPE     H11X     HAL2     0.900000E-01   1.00800           0
     49083 MEMB     82       PPPE     H11Y     HAL2     0.900000E-01   1.00800           0
     49084 MEMB     82       PPPE     C312     CTL2    -0.180000       12.0110           0
     49085 MEMB     82       PPPE     H12X     HAL2     0.900000E-01   1.00800           0
     49086 MEMB     82       PPPE     H12Y     HAL2     0.900000E-01   1.00800           0
     49087 MEMB     82       PPPE     C313     CTL2    -0.180000       12.0110           0
     49088 MEMB     82       PPPE     H13X     HAL2     0.900000E-01   1.00800           0
     49089 MEMB     82       PPPE     H13Y     HAL2     0.900000E-01   1.00800           0
     49090 MEMB     82       PPPE     C314     CTL2    -0.180000       12.0110           0
     49091 MEMB     82       PPPE     H14X     HAL2     0.900000E-01   1.00800           0
     49092 MEMB     82       PPPE     H14Y     HAL2     0.900000E-01   1.00800           0
     49093 MEMB     82       PPPE     C315     CTL2    -0.180000       12.0110           0
     49094 MEMB     82       PPPE     H15X     HAL2     0.900000E-01   1.00800           0
     49095 MEMB     82       PPPE     H15Y     HAL2     0.900000E-01   1.00800           0
     49096 MEMB     82       PPPE     C316     CTL3    -0.270000       12.0110           0
     49097 MEMB     82       PPPE     H16X     HAL3     0.900000E-01   1.00800           0
     49098 MEMB     82       PPPE     H16Y     HAL3     0.900000E-01   1.00800           0
     49099 MEMB     82       PPPE     H16Z     HAL3     0.900000E-01   1.00800           0
     49100 MEMB     83       PPPE     N        NH3L    -0.300000       14.0070           0
     49101 MEMB     83       PPPE     HN1      HCL      0.330000       1.00800           0
     49102 MEMB     83       PPPE     HN2      HCL      0.330000       1.00800           0
     49103 MEMB     83       PPPE     HN3      HCL      0.330000       1.00800           0
     49104 MEMB     83       PPPE     C12      CTL2     0.130000       12.0110           0
     49105 MEMB     83       PPPE     H12A     HAL2     0.900000E-01   1.00800           0
     49106 MEMB     83       PPPE     H12B     HAL2     0.900000E-01   1.00800           0
     49107 MEMB     83       PPPE     C11      CTL2    -0.800000E-01   12.0110           0
     49108 MEMB     83       PPPE     H11A     HAL2     0.900000E-01   1.00800           0
     49109 MEMB     83       PPPE     H11B     HAL2     0.900000E-01   1.00800           0
     49110 MEMB     83       PPPE     P        PL        1.50000       30.9740           0
     49111 MEMB     83       PPPE     O13      O2L     -0.780000       15.9994           0
     49112 MEMB     83       PPPE     O14      O2L     -0.780000       15.9994           0
     49113 MEMB     83       PPPE     O11      OSLP    -0.570000       15.9994           0
     49114 MEMB     83       PPPE     O12      OSLP    -0.570000       15.9994           0
     49115 MEMB     83       PPPE     C1       CTL2    -0.800000E-01   12.0110           0
     49116 MEMB     83       PPPE     HA       HAL2     0.900000E-01   1.00800           0
     49117 MEMB     83       PPPE     HB       HAL2     0.900000E-01   1.00800           0
     49118 MEMB     83       PPPE     C2       CTL1     0.170000       12.0110           0
     49119 MEMB     83       PPPE     HS       HAL1     0.900000E-01   1.00800           0
     49120 MEMB     83       PPPE     O21      OSL     -0.490000       15.9994           0
     49121 MEMB     83       PPPE     C21      CL       0.900000       12.0110           0
     49122 MEMB     83       PPPE     O22      OBL     -0.630000       15.9994           0
     49123 MEMB     83       PPPE     C22      CTL2    -0.220000       12.0110           0
     49124 MEMB     83       PPPE     H2R      HAL2     0.900000E-01   1.00800           0
     49125 MEMB     83       PPPE     H2S      HAL2     0.900000E-01   1.00800           0
     49126 MEMB     83       PPPE     C3       CTL2     0.800000E-01   12.0110           0
     49127 MEMB     83       PPPE     HX       HAL2     0.900000E-01   1.00800           0
     49128 MEMB     83       PPPE     HY       HAL2     0.900000E-01   1.00800           0
     49129 MEMB     83       PPPE     O31      OSL     -0.490000       15.9994           0
     49130 MEMB     83       PPPE     C31      CL       0.900000       12.0110           0
     49131 MEMB     83       PPPE     O32      OBL     -0.630000       15.9994           0
     49132 MEMB     83       PPPE     C32      CTL2    -0.220000       12.0110           0
     49133 MEMB     83       PPPE     H2X      HAL2     0.900000E-01   1.00800           0
     49134 MEMB     83       PPPE     H2Y      HAL2     0.900000E-01   1.00800           0
     49135 MEMB     83       PPPE     C23      CTL2    -0.180000       12.0110           0
     49136 MEMB     83       PPPE     H3R      HAL2     0.900000E-01   1.00800           0
     49137 MEMB     83       PPPE     H3S      HAL2     0.900000E-01   1.00800           0
     49138 MEMB     83       PPPE     C24      CTL2    -0.180000       12.0110           0
     49139 MEMB     83       PPPE     H4R      HAL2     0.900000E-01   1.00800           0
     49140 MEMB     83       PPPE     H4S      HAL2     0.900000E-01   1.00800           0
     49141 MEMB     83       PPPE     C25      CTL2    -0.180000       12.0110           0
     49142 MEMB     83       PPPE     H5R      HAL2     0.900000E-01   1.00800           0
     49143 MEMB     83       PPPE     H5S      HAL2     0.900000E-01   1.00800           0
     49144 MEMB     83       PPPE     C26      CTL2    -0.180000       12.0110           0
     49145 MEMB     83       PPPE     H6R      HAL2     0.900000E-01   1.00800           0
     49146 MEMB     83       PPPE     H6S      HAL2     0.900000E-01   1.00800           0
     49147 MEMB     83       PPPE     C27      CTL2    -0.180000       12.0110           0
     49148 MEMB     83       PPPE     H7R      HAL2     0.900000E-01   1.00800           0
     49149 MEMB     83       PPPE     H7S      HAL2     0.900000E-01   1.00800           0
     49150 MEMB     83       PPPE     C28      CTL2    -0.180000       12.0110           0
     49151 MEMB     83       PPPE     H8R      HAL2     0.900000E-01   1.00800           0
     49152 MEMB     83       PPPE     H8S      HAL2     0.900000E-01   1.00800           0
     49153 MEMB     83       PPPE     C29      CEL1    -0.150000       12.0110           0
     49154 MEMB     83       PPPE     H91      HEL1     0.150000       1.00800           0
     49155 MEMB     83       PPPE     C210     CEL1    -0.150000       12.0110           0
     49156 MEMB     83       PPPE     H101     HEL1     0.150000       1.00800           0
     49157 MEMB     83       PPPE     C211     CTL2    -0.180000       12.0110           0
     49158 MEMB     83       PPPE     H11R     HAL2     0.900000E-01   1.00800           0
     49159 MEMB     83       PPPE     H11S     HAL2     0.900000E-01   1.00800           0
     49160 MEMB     83       PPPE     C212     CTL2    -0.180000       12.0110           0
     49161 MEMB     83       PPPE     H12R     HAL2     0.900000E-01   1.00800           0
     49162 MEMB     83       PPPE     H12S     HAL2     0.900000E-01   1.00800           0
     49163 MEMB     83       PPPE     C213     CTL2    -0.180000       12.0110           0
     49164 MEMB     83       PPPE     H13R     HAL2     0.900000E-01   1.00800           0
     49165 MEMB     83       PPPE     H13S     HAL2     0.900000E-01   1.00800           0
     49166 MEMB     83       PPPE     C214     CTL2    -0.180000       12.0110           0
     49167 MEMB     83       PPPE     H14R     HAL2     0.900000E-01   1.00800           0
     49168 MEMB     83       PPPE     H14S     HAL2     0.900000E-01   1.00800           0
     49169 MEMB     83       PPPE     C215     CTL2    -0.180000       12.0110           0
     49170 MEMB     83       PPPE     H15R     HAL2     0.900000E-01   1.00800           0
     49171 MEMB     83       PPPE     H15S     HAL2     0.900000E-01   1.00800           0
     49172 MEMB     83       PPPE     C216     CTL3    -0.270000       12.0110           0
     49173 MEMB     83       PPPE     H16R     HAL3     0.900000E-01   1.00800           0
     49174 MEMB     83       PPPE     H16S     HAL3     0.900000E-01   1.00800           0
     49175 MEMB     83       PPPE     H16T     HAL3     0.900000E-01   1.00800           0
     49176 MEMB     83       PPPE     C33      CTL2    -0.180000       12.0110           0
     49177 MEMB     83       PPPE     H3X      HAL2     0.900000E-01   1.00800           0
     49178 MEMB     83       PPPE     H3Y      HAL2     0.900000E-01   1.00800           0
     49179 MEMB     83       PPPE     C34      CTL2    -0.180000       12.0110           0
     49180 MEMB     83       PPPE     H4X      HAL2     0.900000E-01   1.00800           0
     49181 MEMB     83       PPPE     H4Y      HAL2     0.900000E-01   1.00800           0
     49182 MEMB     83       PPPE     C35      CTL2    -0.180000       12.0110           0
     49183 MEMB     83       PPPE     H5X      HAL2     0.900000E-01   1.00800           0
     49184 MEMB     83       PPPE     H5Y      HAL2     0.900000E-01   1.00800           0
     49185 MEMB     83       PPPE     C36      CTL2    -0.180000       12.0110           0
     49186 MEMB     83       PPPE     H6X      HAL2     0.900000E-01   1.00800           0
     49187 MEMB     83       PPPE     H6Y      HAL2     0.900000E-01   1.00800           0
     49188 MEMB     83       PPPE     C37      CTL2    -0.180000       12.0110           0
     49189 MEMB     83       PPPE     H7X      HAL2     0.900000E-01   1.00800           0
     49190 MEMB     83       PPPE     H7Y      HAL2     0.900000E-01   1.00800           0
     49191 MEMB     83       PPPE     C38      CTL2    -0.180000       12.0110           0
     49192 MEMB     83       PPPE     H8X      HAL2     0.900000E-01   1.00800           0
     49193 MEMB     83       PPPE     H8Y      HAL2     0.900000E-01   1.00800           0
     49194 MEMB     83       PPPE     C39      CTL2    -0.180000       12.0110           0
     49195 MEMB     83       PPPE     H9X      HAL2     0.900000E-01   1.00800           0
     49196 MEMB     83       PPPE     H9Y      HAL2     0.900000E-01   1.00800           0
     49197 MEMB     83       PPPE     C310     CTL2    -0.180000       12.0110           0
     49198 MEMB     83       PPPE     H10X     HAL2     0.900000E-01   1.00800           0
     49199 MEMB     83       PPPE     H10Y     HAL2     0.900000E-01   1.00800           0
     49200 MEMB     83       PPPE     C311     CTL2    -0.180000       12.0110           0
     49201 MEMB     83       PPPE     H11X     HAL2     0.900000E-01   1.00800           0
     49202 MEMB     83       PPPE     H11Y     HAL2     0.900000E-01   1.00800           0
     49203 MEMB     83       PPPE     C312     CTL2    -0.180000       12.0110           0
     49204 MEMB     83       PPPE     H12X     HAL2     0.900000E-01   1.00800           0
     49205 MEMB     83       PPPE     H12Y     HAL2     0.900000E-01   1.00800           0
     49206 MEMB     83       PPPE     C313     CTL2    -0.180000       12.0110           0
     49207 MEMB     83       PPPE     H13X     HAL2     0.900000E-01   1.00800           0
     49208 MEMB     83       PPPE     H13Y     HAL2     0.900000E-01   1.00800           0
     49209 MEMB     83       PPPE     C314     CTL2    -0.180000       12.0110           0
     49210 MEMB     83       PPPE     H14X     HAL2     0.900000E-01   1.00800           0
     49211 MEMB     83       PPPE     H14Y     HAL2     0.900000E-01   1.00800           0
     49212 MEMB     83       PPPE     C315     CTL2    -0.180000       12.0110           0
     49213 MEMB     83       PPPE     H15X     HAL2     0.900000E-01   1.00800           0
     49214 MEMB     83       PPPE     H15Y     HAL2     0.900000E-01   1.00800           0
     49215 MEMB     83       PPPE     C316     CTL3    -0.270000       12.0110           0
     49216 MEMB     83       PPPE     H16X     HAL3     0.900000E-01   1.00800           0
     49217 MEMB     83       PPPE     H16Y     HAL3     0.900000E-01   1.00800           0
     49218 MEMB     83       PPPE     H16Z     HAL3     0.900000E-01   1.00800           0
     49219 MEMB     84       PPPE     N        NH3L    -0.300000       14.0070           0
     49220 MEMB     84       PPPE     HN1      HCL      0.330000       1.00800           0
     49221 MEMB     84       PPPE     HN2      HCL      0.330000       1.00800           0
     49222 MEMB     84       PPPE     HN3      HCL      0.330000       1.00800           0
     49223 MEMB     84       PPPE     C12      CTL2     0.130000       12.0110           0
     49224 MEMB     84       PPPE     H12A     HAL2     0.900000E-01   1.00800           0
     49225 MEMB     84       PPPE     H12B     HAL2     0.900000E-01   1.00800           0
     49226 MEMB     84       PPPE     C11      CTL2    -0.800000E-01   12.0110           0
     49227 MEMB     84       PPPE     H11A     HAL2     0.900000E-01   1.00800           0
     49228 MEMB     84       PPPE     H11B     HAL2     0.900000E-01   1.00800           0
     49229 MEMB     84       PPPE     P        PL        1.50000       30.9740           0
     49230 MEMB     84       PPPE     O13      O2L     -0.780000       15.9994           0
     49231 MEMB     84       PPPE     O14      O2L     -0.780000       15.9994           0
     49232 MEMB     84       PPPE     O11      OSLP    -0.570000       15.9994           0
     49233 MEMB     84       PPPE     O12      OSLP    -0.570000       15.9994           0
     49234 MEMB     84       PPPE     C1       CTL2    -0.800000E-01   12.0110           0
     49235 MEMB     84       PPPE     HA       HAL2     0.900000E-01   1.00800           0
     49236 MEMB     84       PPPE     HB       HAL2     0.900000E-01   1.00800           0
     49237 MEMB     84       PPPE     C2       CTL1     0.170000       12.0110           0
     49238 MEMB     84       PPPE     HS       HAL1     0.900000E-01   1.00800           0
     49239 MEMB     84       PPPE     O21      OSL     -0.490000       15.9994           0
     49240 MEMB     84       PPPE     C21      CL       0.900000       12.0110           0
     49241 MEMB     84       PPPE     O22      OBL     -0.630000       15.9994           0
     49242 MEMB     84       PPPE     C22      CTL2    -0.220000       12.0110           0
     49243 MEMB     84       PPPE     H2R      HAL2     0.900000E-01   1.00800           0
     49244 MEMB     84       PPPE     H2S      HAL2     0.900000E-01   1.00800           0
     49245 MEMB     84       PPPE     C3       CTL2     0.800000E-01   12.0110           0
     49246 MEMB     84       PPPE     HX       HAL2     0.900000E-01   1.00800           0
     49247 MEMB     84       PPPE     HY       HAL2     0.900000E-01   1.00800           0
     49248 MEMB     84       PPPE     O31      OSL     -0.490000       15.9994           0
     49249 MEMB     84       PPPE     C31      CL       0.900000       12.0110           0
     49250 MEMB     84       PPPE     O32      OBL     -0.630000       15.9994           0
     49251 MEMB     84       PPPE     C32      CTL2    -0.220000       12.0110           0
     49252 MEMB     84       PPPE     H2X      HAL2     0.900000E-01   1.00800           0
     49253 MEMB     84       PPPE     H2Y      HAL2     0.900000E-01   1.00800           0
     49254 MEMB     84       PPPE     C23      CTL2    -0.180000       12.0110           0
     49255 MEMB     84       PPPE     H3R      HAL2     0.900000E-01   1.00800           0
     49256 MEMB     84       PPPE     H3S      HAL2     0.900000E-01   1.00800           0
     49257 MEMB     84       PPPE     C24      CTL2    -0.180000       12.0110           0
     49258 MEMB     84       PPPE     H4R      HAL2     0.900000E-01   1.00800           0
     49259 MEMB     84       PPPE     H4S      HAL2     0.900000E-01   1.00800           0
     49260 MEMB     84       PPPE     C25      CTL2    -0.180000       12.0110           0
     49261 MEMB     84       PPPE     H5R      HAL2     0.900000E-01   1.00800           0
     49262 MEMB     84       PPPE     H5S      HAL2     0.900000E-01   1.00800           0
     49263 MEMB     84       PPPE     C26      CTL2    -0.180000       12.0110           0
     49264 MEMB     84       PPPE     H6R      HAL2     0.900000E-01   1.00800           0
     49265 MEMB     84       PPPE     H6S      HAL2     0.900000E-01   1.00800           0
     49266 MEMB     84       PPPE     C27      CTL2    -0.180000       12.0110           0
     49267 MEMB     84       PPPE     H7R      HAL2     0.900000E-01   1.00800           0
     49268 MEMB     84       PPPE     H7S      HAL2     0.900000E-01   1.00800           0
     49269 MEMB     84       PPPE     C28      CTL2    -0.180000       12.0110           0
     49270 MEMB     84       PPPE     H8R      HAL2     0.900000E-01   1.00800           0
     49271 MEMB     84       PPPE     H8S      HAL2     0.900000E-01   1.00800           0
     49272 MEMB     84       PPPE     C29      CEL1    -0.150000       12.0110           0
     49273 MEMB     84       PPPE     H91      HEL1     0.150000       1.00800           0
     49274 MEMB     84       PPPE     C210     CEL1    -0.150000       12.0110           0
     49275 MEMB     84       PPPE     H101     HEL1     0.150000       1.00800           0
     49276 MEMB     84       PPPE     C211     CTL2    -0.180000       12.0110           0
     49277 MEMB     84       PPPE     H11R     HAL2     0.900000E-01   1.00800           0
     49278 MEMB     84       PPPE     H11S     HAL2     0.900000E-01   1.00800           0
     49279 MEMB     84       PPPE     C212     CTL2    -0.180000       12.0110           0
     49280 MEMB     84       PPPE     H12R     HAL2     0.900000E-01   1.00800           0
     49281 MEMB     84       PPPE     H12S     HAL2     0.900000E-01   1.00800           0
     49282 MEMB     84       PPPE     C213     CTL2    -0.180000       12.0110           0
     49283 MEMB     84       PPPE     H13R     HAL2     0.900000E-01   1.00800           0
     49284 MEMB     84       PPPE     H13S     HAL2     0.900000E-01   1.00800           0
     49285 MEMB     84       PPPE     C214     CTL2    -0.180000       12.0110           0
     49286 MEMB     84       PPPE     H14R     HAL2     0.900000E-01   1.00800           0
     49287 MEMB     84       PPPE     H14S     HAL2     0.900000E-01   1.00800           0
     49288 MEMB     84       PPPE     C215     CTL2    -0.180000       12.0110           0
     49289 MEMB     84       PPPE     H15R     HAL2     0.900000E-01   1.00800           0
     49290 MEMB     84       PPPE     H15S     HAL2     0.900000E-01   1.00800           0
     49291 MEMB     84       PPPE     C216     CTL3    -0.270000       12.0110           0
     49292 MEMB     84       PPPE     H16R     HAL3     0.900000E-01   1.00800           0
     49293 MEMB     84       PPPE     H16S     HAL3     0.900000E-01   1.00800           0
     49294 MEMB     84       PPPE     H16T     HAL3     0.900000E-01   1.00800           0
     49295 MEMB     84       PPPE     C33      CTL2    -0.180000       12.0110           0
     49296 MEMB     84       PPPE     H3X      HAL2     0.900000E-01   1.00800           0
     49297 MEMB     84       PPPE     H3Y      HAL2     0.900000E-01   1.00800           0
     49298 MEMB     84       PPPE     C34      CTL2    -0.180000       12.0110           0
     49299 MEMB     84       PPPE     H4X      HAL2     0.900000E-01   1.00800           0
     49300 MEMB     84       PPPE     H4Y      HAL2     0.900000E-01   1.00800           0
     49301 MEMB     84       PPPE     C35      CTL2    -0.180000       12.0110           0
     49302 MEMB     84       PPPE     H5X      HAL2     0.900000E-01   1.00800           0
     49303 MEMB     84       PPPE     H5Y      HAL2     0.900000E-01   1.00800           0
     49304 MEMB     84       PPPE     C36      CTL2    -0.180000       12.0110           0
     49305 MEMB     84       PPPE     H6X      HAL2     0.900000E-01   1.00800           0
     49306 MEMB     84       PPPE     H6Y      HAL2     0.900000E-01   1.00800           0
     49307 MEMB     84       PPPE     C37      CTL2    -0.180000       12.0110           0
     49308 MEMB     84       PPPE     H7X      HAL2     0.900000E-01   1.00800           0
     49309 MEMB     84       PPPE     H7Y      HAL2     0.900000E-01   1.00800           0
     49310 MEMB     84       PPPE     C38      CTL2    -0.180000       12.0110           0
     49311 MEMB     84       PPPE     H8X      HAL2     0.900000E-01   1.00800           0
     49312 MEMB     84       PPPE     H8Y      HAL2     0.900000E-01   1.00800           0
     49313 MEMB     84       PPPE     C39      CTL2    -0.180000       12.0110           0
     49314 MEMB     84       PPPE     H9X      HAL2     0.900000E-01   1.00800           0
     49315 MEMB     84       PPPE     H9Y      HAL2     0.900000E-01   1.00800           0
     49316 MEMB     84       PPPE     C310     CTL2    -0.180000       12.0110           0
     49317 MEMB     84       PPPE     H10X     HAL2     0.900000E-01   1.00800           0
     49318 MEMB     84       PPPE     H10Y     HAL2     0.900000E-01   1.00800           0
     49319 MEMB     84       PPPE     C311     CTL2    -0.180000       12.0110           0
     49320 MEMB     84       PPPE     H11X     HAL2     0.900000E-01   1.00800           0
     49321 MEMB     84       PPPE     H11Y     HAL2     0.900000E-01   1.00800           0
     49322 MEMB     84       PPPE     C312     CTL2    -0.180000       12.0110           0
     49323 MEMB     84       PPPE     H12X     HAL2     0.900000E-01   1.00800           0
     49324 MEMB     84       PPPE     H12Y     HAL2     0.900000E-01   1.00800           0
     49325 MEMB     84       PPPE     C313     CTL2    -0.180000       12.0110           0
     49326 MEMB     84       PPPE     H13X     HAL2     0.900000E-01   1.00800           0
     49327 MEMB     84       PPPE     H13Y     HAL2     0.900000E-01   1.00800           0
     49328 MEMB     84       PPPE     C314     CTL2    -0.180000       12.0110           0
     49329 MEMB     84       PPPE     H14X     HAL2     0.900000E-01   1.00800           0
     49330 MEMB     84       PPPE     H14Y     HAL2     0.900000E-01   1.00800           0
     49331 MEMB     84       PPPE     C315     CTL2    -0.180000       12.0110           0
     49332 MEMB     84       PPPE     H15X     HAL2     0.900000E-01   1.00800           0
     49333 MEMB     84       PPPE     H15Y     HAL2     0.900000E-01   1.00800           0
     49334 MEMB     84       PPPE     C316     CTL3    -0.270000       12.0110           0
     49335 MEMB     84       PPPE     H16X     HAL3     0.900000E-01   1.00800           0
     49336 MEMB     84       PPPE     H16Y     HAL3     0.900000E-01   1.00800           0
     49337 MEMB     84       PPPE     H16Z     HAL3     0.900000E-01   1.00800           0
     49338 MEMB     85       PVPG     C13      CTL2     0.500000E-01   12.0110           0
     49339 MEMB     85       PVPG     H13A     HAL2     0.900000E-01   1.00800           0
     49340 MEMB     85       PVPG     H13B     HAL2     0.900000E-01   1.00800           0
     49341 MEMB     85       PVPG     OC3      OHL     -0.650000       15.9994           0
     49342 MEMB     85       PVPG     HO3      HOL      0.420000       1.00800           0
     49343 MEMB     85       PVPG     C12      CTL1     0.140000       12.0110           0
     49344 MEMB     85       PVPG     H12A     HAL1     0.900000E-01   1.00800           0
     49345 MEMB     85       PVPG     OC2      OHL     -0.650000       15.9994           0
     49346 MEMB     85       PVPG     HO2      HOL      0.420000       1.00800           0
     49347 MEMB     85       PVPG     C11      CTL2    -0.800000E-01   12.0110           0
     49348 MEMB     85       PVPG     H11A     HAL2     0.900000E-01   1.00800           0
     49349 MEMB     85       PVPG     H11B     HAL2     0.900000E-01   1.00800           0
     49350 MEMB     85       PVPG     P        PL        1.50000       30.9740           0
     49351 MEMB     85       PVPG     O13      O2L     -0.780000       15.9994           0
     49352 MEMB     85       PVPG     O14      O2L     -0.780000       15.9994           0
     49353 MEMB     85       PVPG     O12      OSLP    -0.570000       15.9994           0
     49354 MEMB     85       PVPG     O11      OSLP    -0.570000       15.9994           0
     49355 MEMB     85       PVPG     C1       CTL2    -0.800000E-01   12.0110           0
     49356 MEMB     85       PVPG     HA       HAL2     0.900000E-01   1.00800           0
     49357 MEMB     85       PVPG     HB       HAL2     0.900000E-01   1.00800           0
     49358 MEMB     85       PVPG     C2       CTL1     0.170000       12.0110           0
     49359 MEMB     85       PVPG     HS       HAL1     0.900000E-01   1.00800           0
     49360 MEMB     85       PVPG     O21      OSL     -0.490000       15.9994           0
     49361 MEMB     85       PVPG     C21      CL       0.900000       12.0110           0
     49362 MEMB     85       PVPG     O22      OBL     -0.630000       15.9994           0
     49363 MEMB     85       PVPG     C22      CTL2    -0.220000       12.0110           0
     49364 MEMB     85       PVPG     H2R      HAL2     0.900000E-01   1.00800           0
     49365 MEMB     85       PVPG     H2S      HAL2     0.900000E-01   1.00800           0
     49366 MEMB     85       PVPG     C3       CTL2     0.800000E-01   12.0110           0
     49367 MEMB     85       PVPG     HX       HAL2     0.900000E-01   1.00800           0
     49368 MEMB     85       PVPG     HY       HAL2     0.900000E-01   1.00800           0
     49369 MEMB     85       PVPG     O31      OSL     -0.490000       15.9994           0
     49370 MEMB     85       PVPG     C31      CL       0.900000       12.0110           0
     49371 MEMB     85       PVPG     O32      OBL     -0.630000       15.9994           0
     49372 MEMB     85       PVPG     C32      CTL2    -0.220000       12.0110           0
     49373 MEMB     85       PVPG     H2X      HAL2     0.900000E-01   1.00800           0
     49374 MEMB     85       PVPG     H2Y      HAL2     0.900000E-01   1.00800           0
     49375 MEMB     85       PVPG     C23      CTL2    -0.180000       12.0110           0
     49376 MEMB     85       PVPG     H3R      HAL2     0.900000E-01   1.00800           0
     49377 MEMB     85       PVPG     H3S      HAL2     0.900000E-01   1.00800           0
     49378 MEMB     85       PVPG     C24      CTL2    -0.180000       12.0110           0
     49379 MEMB     85       PVPG     H4R      HAL2     0.900000E-01   1.00800           0
     49380 MEMB     85       PVPG     H4S      HAL2     0.900000E-01   1.00800           0
     49381 MEMB     85       PVPG     C25      CTL2    -0.180000       12.0110           0
     49382 MEMB     85       PVPG     H5R      HAL2     0.900000E-01   1.00800           0
     49383 MEMB     85       PVPG     H5S      HAL2     0.900000E-01   1.00800           0
     49384 MEMB     85       PVPG     C26      CTL2    -0.180000       12.0110           0
     49385 MEMB     85       PVPG     H6R      HAL2     0.900000E-01   1.00800           0
     49386 MEMB     85       PVPG     H6S      HAL2     0.900000E-01   1.00800           0
     49387 MEMB     85       PVPG     C27      CTL2    -0.180000       12.0110           0
     49388 MEMB     85       PVPG     H7R      HAL2     0.900000E-01   1.00800           0
     49389 MEMB     85       PVPG     H7S      HAL2     0.900000E-01   1.00800           0
     49390 MEMB     85       PVPG     C28      CTL2    -0.180000       12.0110           0
     49391 MEMB     85       PVPG     H8R      HAL2     0.900000E-01   1.00800           0
     49392 MEMB     85       PVPG     H8S      HAL2     0.900000E-01   1.00800           0
     49393 MEMB     85       PVPG     C29      CTL2    -0.180000       12.0110           0
     49394 MEMB     85       PVPG     H9R      HAL2     0.900000E-01   1.00800           0
     49395 MEMB     85       PVPG     H9S      HAL2     0.900000E-01   1.00800           0
     49396 MEMB     85       PVPG     C210     CTL2    -0.180000       12.0110           0
     49397 MEMB     85       PVPG     H10R     HAL2     0.900000E-01   1.00800           0
     49398 MEMB     85       PVPG     H10S     HAL2     0.900000E-01   1.00800           0
     49399 MEMB     85       PVPG     C211     CEL1    -0.150000       12.0110           0
     49400 MEMB     85       PVPG     H111     HEL1     0.150000       1.00800           0
     49401 MEMB     85       PVPG     C212     CEL1    -0.150000       12.0110           0
     49402 MEMB     85       PVPG     H121     HEL1     0.150000       1.00800           0
     49403 MEMB     85       PVPG     C213     CTL2    -0.180000       12.0110           0
     49404 MEMB     85       PVPG     H13R     HAL2     0.900000E-01   1.00800           0
     49405 MEMB     85       PVPG     H13S     HAL2     0.900000E-01   1.00800           0
     49406 MEMB     85       PVPG     C214     CTL2    -0.180000       12.0110           0
     49407 MEMB     85       PVPG     H14R     HAL2     0.900000E-01   1.00800           0
     49408 MEMB     85       PVPG     H14S     HAL2     0.900000E-01   1.00800           0
     49409 MEMB     85       PVPG     C215     CTL2    -0.180000       12.0110           0
     49410 MEMB     85       PVPG     H15R     HAL2     0.900000E-01   1.00800           0
     49411 MEMB     85       PVPG     H15S     HAL2     0.900000E-01   1.00800           0
     49412 MEMB     85       PVPG     C216     CTL2    -0.180000       12.0110           0
     49413 MEMB     85       PVPG     H16R     HAL2     0.900000E-01   1.00800           0
     49414 MEMB     85       PVPG     H16S     HAL2     0.900000E-01   1.00800           0
     49415 MEMB     85       PVPG     C217     CTL2    -0.180000       12.0110           0
     49416 MEMB     85       PVPG     H17R     HAL2     0.900000E-01   1.00800           0
     49417 MEMB     85       PVPG     H17S     HAL2     0.900000E-01   1.00800           0
     49418 MEMB     85       PVPG     C218     CTL3    -0.270000       12.0110           0
     49419 MEMB     85       PVPG     H18R     HAL3     0.900000E-01   1.00800           0
     49420 MEMB     85       PVPG     H18S     HAL3     0.900000E-01   1.00800           0
     49421 MEMB     85       PVPG     H18T     HAL3     0.900000E-01   1.00800           0
     49422 MEMB     85       PVPG     C33      CTL2    -0.180000       12.0110           0
     49423 MEMB     85       PVPG     H3X      HAL2     0.900000E-01   1.00800           0
     49424 MEMB     85       PVPG     H3Y      HAL2     0.900000E-01   1.00800           0
     49425 MEMB     85       PVPG     C34      CTL2    -0.180000       12.0110           0
     49426 MEMB     85       PVPG     H4X      HAL2     0.900000E-01   1.00800           0
     49427 MEMB     85       PVPG     H4Y      HAL2     0.900000E-01   1.00800           0
     49428 MEMB     85       PVPG     C35      CTL2    -0.180000       12.0110           0
     49429 MEMB     85       PVPG     H5X      HAL2     0.900000E-01   1.00800           0
     49430 MEMB     85       PVPG     H5Y      HAL2     0.900000E-01   1.00800           0
     49431 MEMB     85       PVPG     C36      CTL2    -0.180000       12.0110           0
     49432 MEMB     85       PVPG     H6X      HAL2     0.900000E-01   1.00800           0
     49433 MEMB     85       PVPG     H6Y      HAL2     0.900000E-01   1.00800           0
     49434 MEMB     85       PVPG     C37      CTL2    -0.180000       12.0110           0
     49435 MEMB     85       PVPG     H7X      HAL2     0.900000E-01   1.00800           0
     49436 MEMB     85       PVPG     H7Y      HAL2     0.900000E-01   1.00800           0
     49437 MEMB     85       PVPG     C38      CTL2    -0.180000       12.0110           0
     49438 MEMB     85       PVPG     H8X      HAL2     0.900000E-01   1.00800           0
     49439 MEMB     85       PVPG     H8Y      HAL2     0.900000E-01   1.00800           0
     49440 MEMB     85       PVPG     C39      CTL2    -0.180000       12.0110           0
     49441 MEMB     85       PVPG     H9X      HAL2     0.900000E-01   1.00800           0
     49442 MEMB     85       PVPG     H9Y      HAL2     0.900000E-01   1.00800           0
     49443 MEMB     85       PVPG     C310     CTL2    -0.180000       12.0110           0
     49444 MEMB     85       PVPG     H10X     HAL2     0.900000E-01   1.00800           0
     49445 MEMB     85       PVPG     H10Y     HAL2     0.900000E-01   1.00800           0
     49446 MEMB     85       PVPG     C311     CTL2    -0.180000       12.0110           0
     49447 MEMB     85       PVPG     H11X     HAL2     0.900000E-01   1.00800           0
     49448 MEMB     85       PVPG     H11Y     HAL2     0.900000E-01   1.00800           0
     49449 MEMB     85       PVPG     C312     CTL2    -0.180000       12.0110           0
     49450 MEMB     85       PVPG     H12X     HAL2     0.900000E-01   1.00800           0
     49451 MEMB     85       PVPG     H12Y     HAL2     0.900000E-01   1.00800           0
     49452 MEMB     85       PVPG     C313     CTL2    -0.180000       12.0110           0
     49453 MEMB     85       PVPG     H13X     HAL2     0.900000E-01   1.00800           0
     49454 MEMB     85       PVPG     H13Y     HAL2     0.900000E-01   1.00800           0
     49455 MEMB     85       PVPG     C314     CTL2    -0.180000       12.0110           0
     49456 MEMB     85       PVPG     H14X     HAL2     0.900000E-01   1.00800           0
     49457 MEMB     85       PVPG     H14Y     HAL2     0.900000E-01   1.00800           0
     49458 MEMB     85       PVPG     C315     CTL2    -0.180000       12.0110           0
     49459 MEMB     85       PVPG     H15X     HAL2     0.900000E-01   1.00800           0
     49460 MEMB     85       PVPG     H15Y     HAL2     0.900000E-01   1.00800           0
     49461 MEMB     85       PVPG     C316     CTL3    -0.270000       12.0110           0
     49462 MEMB     85       PVPG     H16X     HAL3     0.900000E-01   1.00800           0
     49463 MEMB     85       PVPG     H16Y     HAL3     0.900000E-01   1.00800           0
     49464 MEMB     85       PVPG     H16Z     HAL3     0.900000E-01   1.00800           0
     49465 MEMB     86       PPPE     N        NH3L    -0.300000       14.0070           0
     49466 MEMB     86       PPPE     HN1      HCL      0.330000       1.00800           0
     49467 MEMB     86       PPPE     HN2      HCL      0.330000       1.00800           0
     49468 MEMB     86       PPPE     HN3      HCL      0.330000       1.00800           0
     49469 MEMB     86       PPPE     C12      CTL2     0.130000       12.0110           0
     49470 MEMB     86       PPPE     H12A     HAL2     0.900000E-01   1.00800           0
     49471 MEMB     86       PPPE     H12B     HAL2     0.900000E-01   1.00800           0
     49472 MEMB     86       PPPE     C11      CTL2    -0.800000E-01   12.0110           0
     49473 MEMB     86       PPPE     H11A     HAL2     0.900000E-01   1.00800           0
     49474 MEMB     86       PPPE     H11B     HAL2     0.900000E-01   1.00800           0
     49475 MEMB     86       PPPE     P        PL        1.50000       30.9740           0
     49476 MEMB     86       PPPE     O13      O2L     -0.780000       15.9994           0
     49477 MEMB     86       PPPE     O14      O2L     -0.780000       15.9994           0
     49478 MEMB     86       PPPE     O11      OSLP    -0.570000       15.9994           0
     49479 MEMB     86       PPPE     O12      OSLP    -0.570000       15.9994           0
     49480 MEMB     86       PPPE     C1       CTL2    -0.800000E-01   12.0110           0
     49481 MEMB     86       PPPE     HA       HAL2     0.900000E-01   1.00800           0
     49482 MEMB     86       PPPE     HB       HAL2     0.900000E-01   1.00800           0
     49483 MEMB     86       PPPE     C2       CTL1     0.170000       12.0110           0
     49484 MEMB     86       PPPE     HS       HAL1     0.900000E-01   1.00800           0
     49485 MEMB     86       PPPE     O21      OSL     -0.490000       15.9994           0
     49486 MEMB     86       PPPE     C21      CL       0.900000       12.0110           0
     49487 MEMB     86       PPPE     O22      OBL     -0.630000       15.9994           0
     49488 MEMB     86       PPPE     C22      CTL2    -0.220000       12.0110           0
     49489 MEMB     86       PPPE     H2R      HAL2     0.900000E-01   1.00800           0
     49490 MEMB     86       PPPE     H2S      HAL2     0.900000E-01   1.00800           0
     49491 MEMB     86       PPPE     C3       CTL2     0.800000E-01   12.0110           0
     49492 MEMB     86       PPPE     HX       HAL2     0.900000E-01   1.00800           0
     49493 MEMB     86       PPPE     HY       HAL2     0.900000E-01   1.00800           0
     49494 MEMB     86       PPPE     O31      OSL     -0.490000       15.9994           0
     49495 MEMB     86       PPPE     C31      CL       0.900000       12.0110           0
     49496 MEMB     86       PPPE     O32      OBL     -0.630000       15.9994           0
     49497 MEMB     86       PPPE     C32      CTL2    -0.220000       12.0110           0
     49498 MEMB     86       PPPE     H2X      HAL2     0.900000E-01   1.00800           0
     49499 MEMB     86       PPPE     H2Y      HAL2     0.900000E-01   1.00800           0
     49500 MEMB     86       PPPE     C23      CTL2    -0.180000       12.0110           0
     49501 MEMB     86       PPPE     H3R      HAL2     0.900000E-01   1.00800           0
     49502 MEMB     86       PPPE     H3S      HAL2     0.900000E-01   1.00800           0
     49503 MEMB     86       PPPE     C24      CTL2    -0.180000       12.0110           0
     49504 MEMB     86       PPPE     H4R      HAL2     0.900000E-01   1.00800           0
     49505 MEMB     86       PPPE     H4S      HAL2     0.900000E-01   1.00800           0
     49506 MEMB     86       PPPE     C25      CTL2    -0.180000       12.0110           0
     49507 MEMB     86       PPPE     H5R      HAL2     0.900000E-01   1.00800           0
     49508 MEMB     86       PPPE     H5S      HAL2     0.900000E-01   1.00800           0
     49509 MEMB     86       PPPE     C26      CTL2    -0.180000       12.0110           0
     49510 MEMB     86       PPPE     H6R      HAL2     0.900000E-01   1.00800           0
     49511 MEMB     86       PPPE     H6S      HAL2     0.900000E-01   1.00800           0
     49512 MEMB     86       PPPE     C27      CTL2    -0.180000       12.0110           0
     49513 MEMB     86       PPPE     H7R      HAL2     0.900000E-01   1.00800           0
     49514 MEMB     86       PPPE     H7S      HAL2     0.900000E-01   1.00800           0
     49515 MEMB     86       PPPE     C28      CTL2    -0.180000       12.0110           0
     49516 MEMB     86       PPPE     H8R      HAL2     0.900000E-01   1.00800           0
     49517 MEMB     86       PPPE     H8S      HAL2     0.900000E-01   1.00800           0
     49518 MEMB     86       PPPE     C29      CEL1    -0.150000       12.0110           0
     49519 MEMB     86       PPPE     H91      HEL1     0.150000       1.00800           0
     49520 MEMB     86       PPPE     C210     CEL1    -0.150000       12.0110           0
     49521 MEMB     86       PPPE     H101     HEL1     0.150000       1.00800           0
     49522 MEMB     86       PPPE     C211     CTL2    -0.180000       12.0110           0
     49523 MEMB     86       PPPE     H11R     HAL2     0.900000E-01   1.00800           0
     49524 MEMB     86       PPPE     H11S     HAL2     0.900000E-01   1.00800           0
     49525 MEMB     86       PPPE     C212     CTL2    -0.180000       12.0110           0
     49526 MEMB     86       PPPE     H12R     HAL2     0.900000E-01   1.00800           0
     49527 MEMB     86       PPPE     H12S     HAL2     0.900000E-01   1.00800           0
     49528 MEMB     86       PPPE     C213     CTL2    -0.180000       12.0110           0
     49529 MEMB     86       PPPE     H13R     HAL2     0.900000E-01   1.00800           0
     49530 MEMB     86       PPPE     H13S     HAL2     0.900000E-01   1.00800           0
     49531 MEMB     86       PPPE     C214     CTL2    -0.180000       12.0110           0
     49532 MEMB     86       PPPE     H14R     HAL2     0.900000E-01   1.00800           0
     49533 MEMB     86       PPPE     H14S     HAL2     0.900000E-01   1.00800           0
     49534 MEMB     86       PPPE     C215     CTL2    -0.180000       12.0110           0
     49535 MEMB     86       PPPE     H15R     HAL2     0.900000E-01   1.00800           0
     49536 MEMB     86       PPPE     H15S     HAL2     0.900000E-01   1.00800           0
     49537 MEMB     86       PPPE     C216     CTL3    -0.270000       12.0110           0
     49538 MEMB     86       PPPE     H16R     HAL3     0.900000E-01   1.00800           0
     49539 MEMB     86       PPPE     H16S     HAL3     0.900000E-01   1.00800           0
     49540 MEMB     86       PPPE     H16T     HAL3     0.900000E-01   1.00800           0
     49541 MEMB     86       PPPE     C33      CTL2    -0.180000       12.0110           0
     49542 MEMB     86       PPPE     H3X      HAL2     0.900000E-01   1.00800           0
     49543 MEMB     86       PPPE     H3Y      HAL2     0.900000E-01   1.00800           0
     49544 MEMB     86       PPPE     C34      CTL2    -0.180000       12.0110           0
     49545 MEMB     86       PPPE     H4X      HAL2     0.900000E-01   1.00800           0
     49546 MEMB     86       PPPE     H4Y      HAL2     0.900000E-01   1.00800           0
     49547 MEMB     86       PPPE     C35      CTL2    -0.180000       12.0110           0
     49548 MEMB     86       PPPE     H5X      HAL2     0.900000E-01   1.00800           0
     49549 MEMB     86       PPPE     H5Y      HAL2     0.900000E-01   1.00800           0
     49550 MEMB     86       PPPE     C36      CTL2    -0.180000       12.0110           0
     49551 MEMB     86       PPPE     H6X      HAL2     0.900000E-01   1.00800           0
     49552 MEMB     86       PPPE     H6Y      HAL2     0.900000E-01   1.00800           0
     49553 MEMB     86       PPPE     C37      CTL2    -0.180000       12.0110           0
     49554 MEMB     86       PPPE     H7X      HAL2     0.900000E-01   1.00800           0
     49555 MEMB     86       PPPE     H7Y      HAL2     0.900000E-01   1.00800           0
     49556 MEMB     86       PPPE     C38      CTL2    -0.180000       12.0110           0
     49557 MEMB     86       PPPE     H8X      HAL2     0.900000E-01   1.00800           0
     49558 MEMB     86       PPPE     H8Y      HAL2     0.900000E-01   1.00800           0
     49559 MEMB     86       PPPE     C39      CTL2    -0.180000       12.0110           0
     49560 MEMB     86       PPPE     H9X      HAL2     0.900000E-01   1.00800           0
     49561 MEMB     86       PPPE     H9Y      HAL2     0.900000E-01   1.00800           0
     49562 MEMB     86       PPPE     C310     CTL2    -0.180000       12.0110           0
     49563 MEMB     86       PPPE     H10X     HAL2     0.900000E-01   1.00800           0
     49564 MEMB     86       PPPE     H10Y     HAL2     0.900000E-01   1.00800           0
     49565 MEMB     86       PPPE     C311     CTL2    -0.180000       12.0110           0
     49566 MEMB     86       PPPE     H11X     HAL2     0.900000E-01   1.00800           0
     49567 MEMB     86       PPPE     H11Y     HAL2     0.900000E-01   1.00800           0
     49568 MEMB     86       PPPE     C312     CTL2    -0.180000       12.0110           0
     49569 MEMB     86       PPPE     H12X     HAL2     0.900000E-01   1.00800           0
     49570 MEMB     86       PPPE     H12Y     HAL2     0.900000E-01   1.00800           0
     49571 MEMB     86       PPPE     C313     CTL2    -0.180000       12.0110           0
     49572 MEMB     86       PPPE     H13X     HAL2     0.900000E-01   1.00800           0
     49573 MEMB     86       PPPE     H13Y     HAL2     0.900000E-01   1.00800           0
     49574 MEMB     86       PPPE     C314     CTL2    -0.180000       12.0110           0
     49575 MEMB     86       PPPE     H14X     HAL2     0.900000E-01   1.00800           0
     49576 MEMB     86       PPPE     H14Y     HAL2     0.900000E-01   1.00800           0
     49577 MEMB     86       PPPE     C315     CTL2    -0.180000       12.0110           0
     49578 MEMB     86       PPPE     H15X     HAL2     0.900000E-01   1.00800           0
     49579 MEMB     86       PPPE     H15Y     HAL2     0.900000E-01   1.00800           0
     49580 MEMB     86       PPPE     C316     CTL3    -0.270000       12.0110           0
     49581 MEMB     86       PPPE     H16X     HAL3     0.900000E-01   1.00800           0
     49582 MEMB     86       PPPE     H16Y     HAL3     0.900000E-01   1.00800           0
     49583 MEMB     86       PPPE     H16Z     HAL3     0.900000E-01   1.00800           0
     49584 MEMB     87       PPPE     N        NH3L    -0.300000       14.0070           0
     49585 MEMB     87       PPPE     HN1      HCL      0.330000       1.00800           0
     49586 MEMB     87       PPPE     HN2      HCL      0.330000       1.00800           0
     49587 MEMB     87       PPPE     HN3      HCL      0.330000       1.00800           0
     49588 MEMB     87       PPPE     C12      CTL2     0.130000       12.0110           0
     49589 MEMB     87       PPPE     H12A     HAL2     0.900000E-01   1.00800           0
     49590 MEMB     87       PPPE     H12B     HAL2     0.900000E-01   1.00800           0
     49591 MEMB     87       PPPE     C11      CTL2    -0.800000E-01   12.0110           0
     49592 MEMB     87       PPPE     H11A     HAL2     0.900000E-01   1.00800           0
     49593 MEMB     87       PPPE     H11B     HAL2     0.900000E-01   1.00800           0
     49594 MEMB     87       PPPE     P        PL        1.50000       30.9740           0
     49595 MEMB     87       PPPE     O13      O2L     -0.780000       15.9994           0
     49596 MEMB     87       PPPE     O14      O2L     -0.780000       15.9994           0
     49597 MEMB     87       PPPE     O11      OSLP    -0.570000       15.9994           0
     49598 MEMB     87       PPPE     O12      OSLP    -0.570000       15.9994           0
     49599 MEMB     87       PPPE     C1       CTL2    -0.800000E-01   12.0110           0
     49600 MEMB     87       PPPE     HA       HAL2     0.900000E-01   1.00800           0
     49601 MEMB     87       PPPE     HB       HAL2     0.900000E-01   1.00800           0
     49602 MEMB     87       PPPE     C2       CTL1     0.170000       12.0110           0
     49603 MEMB     87       PPPE     HS       HAL1     0.900000E-01   1.00800           0
     49604 MEMB     87       PPPE     O21      OSL     -0.490000       15.9994           0
     49605 MEMB     87       PPPE     C21      CL       0.900000       12.0110           0
     49606 MEMB     87       PPPE     O22      OBL     -0.630000       15.9994           0
     49607 MEMB     87       PPPE     C22      CTL2    -0.220000       12.0110           0
     49608 MEMB     87       PPPE     H2R      HAL2     0.900000E-01   1.00800           0
     49609 MEMB     87       PPPE     H2S      HAL2     0.900000E-01   1.00800           0
     49610 MEMB     87       PPPE     C3       CTL2     0.800000E-01   12.0110           0
     49611 MEMB     87       PPPE     HX       HAL2     0.900000E-01   1.00800           0
     49612 MEMB     87       PPPE     HY       HAL2     0.900000E-01   1.00800           0
     49613 MEMB     87       PPPE     O31      OSL     -0.490000       15.9994           0
     49614 MEMB     87       PPPE     C31      CL       0.900000       12.0110           0
     49615 MEMB     87       PPPE     O32      OBL     -0.630000       15.9994           0
     49616 MEMB     87       PPPE     C32      CTL2    -0.220000       12.0110           0
     49617 MEMB     87       PPPE     H2X      HAL2     0.900000E-01   1.00800           0
     49618 MEMB     87       PPPE     H2Y      HAL2     0.900000E-01   1.00800           0
     49619 MEMB     87       PPPE     C23      CTL2    -0.180000       12.0110           0
     49620 MEMB     87       PPPE     H3R      HAL2     0.900000E-01   1.00800           0
     49621 MEMB     87       PPPE     H3S      HAL2     0.900000E-01   1.00800           0
     49622 MEMB     87       PPPE     C24      CTL2    -0.180000       12.0110           0
     49623 MEMB     87       PPPE     H4R      HAL2     0.900000E-01   1.00800           0
     49624 MEMB     87       PPPE     H4S      HAL2     0.900000E-01   1.00800           0
     49625 MEMB     87       PPPE     C25      CTL2    -0.180000       12.0110           0
     49626 MEMB     87       PPPE     H5R      HAL2     0.900000E-01   1.00800           0
     49627 MEMB     87       PPPE     H5S      HAL2     0.900000E-01   1.00800           0
     49628 MEMB     87       PPPE     C26      CTL2    -0.180000       12.0110           0
     49629 MEMB     87       PPPE     H6R      HAL2     0.900000E-01   1.00800           0
     49630 MEMB     87       PPPE     H6S      HAL2     0.900000E-01   1.00800           0
     49631 MEMB     87       PPPE     C27      CTL2    -0.180000       12.0110           0
     49632 MEMB     87       PPPE     H7R      HAL2     0.900000E-01   1.00800           0
     49633 MEMB     87       PPPE     H7S      HAL2     0.900000E-01   1.00800           0
     49634 MEMB     87       PPPE     C28      CTL2    -0.180000       12.0110           0
     49635 MEMB     87       PPPE     H8R      HAL2     0.900000E-01   1.00800           0
     49636 MEMB     87       PPPE     H8S      HAL2     0.900000E-01   1.00800           0
     49637 MEMB     87       PPPE     C29      CEL1    -0.150000       12.0110           0
     49638 MEMB     87       PPPE     H91      HEL1     0.150000       1.00800           0
     49639 MEMB     87       PPPE     C210     CEL1    -0.150000       12.0110           0
     49640 MEMB     87       PPPE     H101     HEL1     0.150000       1.00800           0
     49641 MEMB     87       PPPE     C211     CTL2    -0.180000       12.0110           0
     49642 MEMB     87       PPPE     H11R     HAL2     0.900000E-01   1.00800           0
     49643 MEMB     87       PPPE     H11S     HAL2     0.900000E-01   1.00800           0
     49644 MEMB     87       PPPE     C212     CTL2    -0.180000       12.0110           0
     49645 MEMB     87       PPPE     H12R     HAL2     0.900000E-01   1.00800           0
     49646 MEMB     87       PPPE     H12S     HAL2     0.900000E-01   1.00800           0
     49647 MEMB     87       PPPE     C213     CTL2    -0.180000       12.0110           0
     49648 MEMB     87       PPPE     H13R     HAL2     0.900000E-01   1.00800           0
     49649 MEMB     87       PPPE     H13S     HAL2     0.900000E-01   1.00800           0
     49650 MEMB     87       PPPE     C214     CTL2    -0.180000       12.0110           0
     49651 MEMB     87       PPPE     H14R     HAL2     0.900000E-01   1.00800           0
     49652 MEMB     87       PPPE     H14S     HAL2     0.900000E-01   1.00800           0
     49653 MEMB     87       PPPE     C215     CTL2    -0.180000       12.0110           0
     49654 MEMB     87       PPPE     H15R     HAL2     0.900000E-01   1.00800           0
     49655 MEMB     87       PPPE     H15S     HAL2     0.900000E-01   1.00800           0
     49656 MEMB     87       PPPE     C216     CTL3    -0.270000       12.0110           0
     49657 MEMB     87       PPPE     H16R     HAL3     0.900000E-01   1.00800           0
     49658 MEMB     87       PPPE     H16S     HAL3     0.900000E-01   1.00800           0
     49659 MEMB     87       PPPE     H16T     HAL3     0.900000E-01   1.00800           0
     49660 MEMB     87       PPPE     C33      CTL2    -0.180000       12.0110           0
     49661 MEMB     87       PPPE     H3X      HAL2     0.900000E-01   1.00800           0
     49662 MEMB     87       PPPE     H3Y      HAL2     0.900000E-01   1.00800           0
     49663 MEMB     87       PPPE     C34      CTL2    -0.180000       12.0110           0
     49664 MEMB     87       PPPE     H4X      HAL2     0.900000E-01   1.00800           0
     49665 MEMB     87       PPPE     H4Y      HAL2     0.900000E-01   1.00800           0
     49666 MEMB     87       PPPE     C35      CTL2    -0.180000       12.0110           0
     49667 MEMB     87       PPPE     H5X      HAL2     0.900000E-01   1.00800           0
     49668 MEMB     87       PPPE     H5Y      HAL2     0.900000E-01   1.00800           0
     49669 MEMB     87       PPPE     C36      CTL2    -0.180000       12.0110           0
     49670 MEMB     87       PPPE     H6X      HAL2     0.900000E-01   1.00800           0
     49671 MEMB     87       PPPE     H6Y      HAL2     0.900000E-01   1.00800           0
     49672 MEMB     87       PPPE     C37      CTL2    -0.180000       12.0110           0
     49673 MEMB     87       PPPE     H7X      HAL2     0.900000E-01   1.00800           0
     49674 MEMB     87       PPPE     H7Y      HAL2     0.900000E-01   1.00800           0
     49675 MEMB     87       PPPE     C38      CTL2    -0.180000       12.0110           0
     49676 MEMB     87       PPPE     H8X      HAL2     0.900000E-01   1.00800           0
     49677 MEMB     87       PPPE     H8Y      HAL2     0.900000E-01   1.00800           0
     49678 MEMB     87       PPPE     C39      CTL2    -0.180000       12.0110           0
     49679 MEMB     87       PPPE     H9X      HAL2     0.900000E-01   1.00800           0
     49680 MEMB     87       PPPE     H9Y      HAL2     0.900000E-01   1.00800           0
     49681 MEMB     87       PPPE     C310     CTL2    -0.180000       12.0110           0
     49682 MEMB     87       PPPE     H10X     HAL2     0.900000E-01   1.00800           0
     49683 MEMB     87       PPPE     H10Y     HAL2     0.900000E-01   1.00800           0
     49684 MEMB     87       PPPE     C311     CTL2    -0.180000       12.0110           0
     49685 MEMB     87       PPPE     H11X     HAL2     0.900000E-01   1.00800           0
     49686 MEMB     87       PPPE     H11Y     HAL2     0.900000E-01   1.00800           0
     49687 MEMB     87       PPPE     C312     CTL2    -0.180000       12.0110           0
     49688 MEMB     87       PPPE     H12X     HAL2     0.900000E-01   1.00800           0
     49689 MEMB     87       PPPE     H12Y     HAL2     0.900000E-01   1.00800           0
     49690 MEMB     87       PPPE     C313     CTL2    -0.180000       12.0110           0
     49691 MEMB     87       PPPE     H13X     HAL2     0.900000E-01   1.00800           0
     49692 MEMB     87       PPPE     H13Y     HAL2     0.900000E-01   1.00800           0
     49693 MEMB     87       PPPE     C314     CTL2    -0.180000       12.0110           0
     49694 MEMB     87       PPPE     H14X     HAL2     0.900000E-01   1.00800           0
     49695 MEMB     87       PPPE     H14Y     HAL2     0.900000E-01   1.00800           0
     49696 MEMB     87       PPPE     C315     CTL2    -0.180000       12.0110           0
     49697 MEMB     87       PPPE     H15X     HAL2     0.900000E-01   1.00800           0
     49698 MEMB     87       PPPE     H15Y     HAL2     0.900000E-01   1.00800           0
     49699 MEMB     87       PPPE     C316     CTL3    -0.270000       12.0110           0
     49700 MEMB     87       PPPE     H16X     HAL3     0.900000E-01   1.00800           0
     49701 MEMB     87       PPPE     H16Y     HAL3     0.900000E-01   1.00800           0
     49702 MEMB     87       PPPE     H16Z     HAL3     0.900000E-01   1.00800           0
     49703 MEMB     88       PVCL2    C3       CTL2    -0.800000E-01   12.0110           0
     49704 MEMB     88       PVCL2    HG31     HAL2     0.900000E-01   1.00800           0
     49705 MEMB     88       PVCL2    HG32     HAL2     0.900000E-01   1.00800           0
     49706 MEMB     88       PVCL2    P3       PL        1.50000       30.9740           0
     49707 MEMB     88       PVCL2    OP33     O2L     -0.780000       15.9994           0
     49708 MEMB     88       PVCL2    OP34     O2L     -0.780000       15.9994           0
     49709 MEMB     88       PVCL2    OP31     OSLP    -0.570000       15.9994           0
     49710 MEMB     88       PVCL2    OP32     OSLP    -0.570000       15.9994           0
     49711 MEMB     88       PVCL2    C31      CTL2    -0.800000E-01   12.0110           0
     49712 MEMB     88       PVCL2    H31J     HAL2     0.900000E-01   1.00800           0
     49713 MEMB     88       PVCL2    H31K     HAL2     0.900000E-01   1.00800           0
     49714 MEMB     88       PVCL2    C2       CTL1     0.140000       12.0110           0
     49715 MEMB     88       PVCL2    HG22     HAL1     0.900000E-01   1.00800           0
     49716 MEMB     88       PVCL2    OG12     OHL     -0.650000       15.9994           0
     49717 MEMB     88       PVCL2    HO12     HOL      0.420000       1.00800           0
     49718 MEMB     88       PVCL2    C1       CTL2    -0.800000E-01   12.0110           0
     49719 MEMB     88       PVCL2    HG11     HAL2     0.900000E-01   1.00800           0
     49720 MEMB     88       PVCL2    HG12     HAL2     0.900000E-01   1.00800           0
     49721 MEMB     88       PVCL2    P1       PL        1.50000       30.9740           0
     49722 MEMB     88       PVCL2    OP13     O2L     -0.780000       15.9994           0
     49723 MEMB     88       PVCL2    OP14     O2L     -0.780000       15.9994           0
     49724 MEMB     88       PVCL2    OP11     OSLP    -0.570000       15.9994           0
     49725 MEMB     88       PVCL2    OP12     OSLP    -0.570000       15.9994           0
     49726 MEMB     88       PVCL2    C11      CTL2    -0.800000E-01   12.0110           0
     49727 MEMB     88       PVCL2    H11J     HAL2     0.900000E-01   1.00800           0
     49728 MEMB     88       PVCL2    H11K     HAL2     0.900000E-01   1.00800           0
     49729 MEMB     88       PVCL2    C12      CTL1     0.170000       12.0110           0
     49730 MEMB     88       PVCL2    H12J     HAL1     0.900000E-01   1.00800           0
     49731 MEMB     88       PVCL2    O12      OSL     -0.490000       15.9994           0
     49732 MEMB     88       PVCL2    CA1      CL       0.900000       12.0110           0
     49733 MEMB     88       PVCL2    OA1      OBL     -0.630000       15.9994           0
     49734 MEMB     88       PVCL2    CA2      CTL2    -0.220000       12.0110           0
     49735 MEMB     88       PVCL2    H2A      HAL2     0.900000E-01   1.00800           0
     49736 MEMB     88       PVCL2    H2B      HAL2     0.900000E-01   1.00800           0
     49737 MEMB     88       PVCL2    C13      CTL2     0.800000E-01   12.0110           0
     49738 MEMB     88       PVCL2    H13J     HAL2     0.900000E-01   1.00800           0
     49739 MEMB     88       PVCL2    H13K     HAL2     0.900000E-01   1.00800           0
     49740 MEMB     88       PVCL2    O13      OSL     -0.490000       15.9994           0
     49741 MEMB     88       PVCL2    CB1      CL       0.900000       12.0110           0
     49742 MEMB     88       PVCL2    OB1      OBL     -0.630000       15.9994           0
     49743 MEMB     88       PVCL2    CB2      CTL2    -0.220000       12.0110           0
     49744 MEMB     88       PVCL2    H2D      HAL2     0.900000E-01   1.00800           0
     49745 MEMB     88       PVCL2    H2E      HAL2     0.900000E-01   1.00800           0
     49746 MEMB     88       PVCL2    C32      CTL1     0.170000       12.0110           0
     49747 MEMB     88       PVCL2    H32J     HAL1     0.900000E-01   1.00800           0
     49748 MEMB     88       PVCL2    O32      OSL     -0.490000       15.9994           0
     49749 MEMB     88       PVCL2    CC1      CL       0.900000       12.0110           0
     49750 MEMB     88       PVCL2    OC1      OBL     -0.630000       15.9994           0
     49751 MEMB     88       PVCL2    CC2      CTL2    -0.220000       12.0110           0
     49752 MEMB     88       PVCL2    H2R      HAL2     0.900000E-01   1.00800           0
     49753 MEMB     88       PVCL2    H2S      HAL2     0.900000E-01   1.00800           0
     49754 MEMB     88       PVCL2    C33      CTL2     0.800000E-01   12.0110           0
     49755 MEMB     88       PVCL2    H33J     HAL2     0.900000E-01   1.00800           0
     49756 MEMB     88       PVCL2    H33K     HAL2     0.900000E-01   1.00800           0
     49757 MEMB     88       PVCL2    O33      OSL     -0.490000       15.9994           0
     49758 MEMB     88       PVCL2    CD1      CL       0.900000       12.0110           0
     49759 MEMB     88       PVCL2    OD1      OBL     -0.630000       15.9994           0
     49760 MEMB     88       PVCL2    CD2      CTL2    -0.220000       12.0110           0
     49761 MEMB     88       PVCL2    H2X      HAL2     0.900000E-01   1.00800           0
     49762 MEMB     88       PVCL2    H2Y      HAL2     0.900000E-01   1.00800           0
     49763 MEMB     88       PVCL2    CA3      CTL2    -0.180000       12.0110           0
     49764 MEMB     88       PVCL2    H3A      HAL2     0.900000E-01   1.00800           0
     49765 MEMB     88       PVCL2    H3B      HAL2     0.900000E-01   1.00800           0
     49766 MEMB     88       PVCL2    CA4      CTL2    -0.180000       12.0110           0
     49767 MEMB     88       PVCL2    H4A      HAL2     0.900000E-01   1.00800           0
     49768 MEMB     88       PVCL2    H4B      HAL2     0.900000E-01   1.00800           0
     49769 MEMB     88       PVCL2    CA5      CTL2    -0.180000       12.0110           0
     49770 MEMB     88       PVCL2    H5A      HAL2     0.900000E-01   1.00800           0
     49771 MEMB     88       PVCL2    H5B      HAL2     0.900000E-01   1.00800           0
     49772 MEMB     88       PVCL2    CA6      CTL2    -0.180000       12.0110           0
     49773 MEMB     88       PVCL2    H6A      HAL2     0.900000E-01   1.00800           0
     49774 MEMB     88       PVCL2    H6B      HAL2     0.900000E-01   1.00800           0
     49775 MEMB     88       PVCL2    CA7      CTL2    -0.180000       12.0110           0
     49776 MEMB     88       PVCL2    H7A      HAL2     0.900000E-01   1.00800           0
     49777 MEMB     88       PVCL2    H7B      HAL2     0.900000E-01   1.00800           0
     49778 MEMB     88       PVCL2    CA8      CTL2    -0.180000       12.0110           0
     49779 MEMB     88       PVCL2    H8A      HAL2     0.900000E-01   1.00800           0
     49780 MEMB     88       PVCL2    H8B      HAL2     0.900000E-01   1.00800           0
     49781 MEMB     88       PVCL2    CA9      CTL2    -0.180000       12.0110           0
     49782 MEMB     88       PVCL2    H9A      HAL2     0.900000E-01   1.00800           0
     49783 MEMB     88       PVCL2    H9B      HAL2     0.900000E-01   1.00800           0
     49784 MEMB     88       PVCL2    CA10     CTL2    -0.180000       12.0110           0
     49785 MEMB     88       PVCL2    H10A     HAL2     0.900000E-01   1.00800           0
     49786 MEMB     88       PVCL2    H10B     HAL2     0.900000E-01   1.00800           0
     49787 MEMB     88       PVCL2    CA11     CEL1    -0.150000       12.0110           0
     49788 MEMB     88       PVCL2    H11A     HEL1     0.150000       1.00800           0
     49789 MEMB     88       PVCL2    CA12     CEL1    -0.150000       12.0110           0
     49790 MEMB     88       PVCL2    H12A     HEL1     0.150000       1.00800           0
     49791 MEMB     88       PVCL2    CA13     CTL2    -0.180000       12.0110           0
     49792 MEMB     88       PVCL2    H13A     HAL2     0.900000E-01   1.00800           0
     49793 MEMB     88       PVCL2    H13B     HAL2     0.900000E-01   1.00800           0
     49794 MEMB     88       PVCL2    CA14     CTL2    -0.180000       12.0110           0
     49795 MEMB     88       PVCL2    H14A     HAL2     0.900000E-01   1.00800           0
     49796 MEMB     88       PVCL2    H14B     HAL2     0.900000E-01   1.00800           0
     49797 MEMB     88       PVCL2    CA15     CTL2    -0.180000       12.0110           0
     49798 MEMB     88       PVCL2    H15A     HAL2     0.900000E-01   1.00800           0
     49799 MEMB     88       PVCL2    H15B     HAL2     0.900000E-01   1.00800           0
     49800 MEMB     88       PVCL2    CA16     CTL2    -0.180000       12.0110           0
     49801 MEMB     88       PVCL2    H16A     HAL2     0.900000E-01   1.00800           0
     49802 MEMB     88       PVCL2    H16B     HAL2     0.900000E-01   1.00800           0
     49803 MEMB     88       PVCL2    CA17     CTL2    -0.180000       12.0110           0
     49804 MEMB     88       PVCL2    H17A     HAL2     0.900000E-01   1.00800           0
     49805 MEMB     88       PVCL2    H17B     HAL2     0.900000E-01   1.00800           0
     49806 MEMB     88       PVCL2    CA18     CTL3    -0.270000       12.0110           0
     49807 MEMB     88       PVCL2    H18A     HAL3     0.900000E-01   1.00800           0
     49808 MEMB     88       PVCL2    H18B     HAL3     0.900000E-01   1.00800           0
     49809 MEMB     88       PVCL2    H18C     HAL3     0.900000E-01   1.00800           0
     49810 MEMB     88       PVCL2    CB3      CTL2    -0.180000       12.0110           0
     49811 MEMB     88       PVCL2    H3D      HAL2     0.900000E-01   1.00800           0
     49812 MEMB     88       PVCL2    H3E      HAL2     0.900000E-01   1.00800           0
     49813 MEMB     88       PVCL2    CB4      CTL2    -0.180000       12.0110           0
     49814 MEMB     88       PVCL2    H4D      HAL2     0.900000E-01   1.00800           0
     49815 MEMB     88       PVCL2    H4E      HAL2     0.900000E-01   1.00800           0
     49816 MEMB     88       PVCL2    CB5      CTL2    -0.180000       12.0110           0
     49817 MEMB     88       PVCL2    H5D      HAL2     0.900000E-01   1.00800           0
     49818 MEMB     88       PVCL2    H5E      HAL2     0.900000E-01   1.00800           0
     49819 MEMB     88       PVCL2    CB6      CTL2    -0.180000       12.0110           0
     49820 MEMB     88       PVCL2    H6D      HAL2     0.900000E-01   1.00800           0
     49821 MEMB     88       PVCL2    H6E      HAL2     0.900000E-01   1.00800           0
     49822 MEMB     88       PVCL2    CB7      CTL2    -0.180000       12.0110           0
     49823 MEMB     88       PVCL2    H7D      HAL2     0.900000E-01   1.00800           0
     49824 MEMB     88       PVCL2    H7E      HAL2     0.900000E-01   1.00800           0
     49825 MEMB     88       PVCL2    CB8      CTL2    -0.180000       12.0110           0
     49826 MEMB     88       PVCL2    H8D      HAL2     0.900000E-01   1.00800           0
     49827 MEMB     88       PVCL2    H8E      HAL2     0.900000E-01   1.00800           0
     49828 MEMB     88       PVCL2    CB9      CTL2    -0.180000       12.0110           0
     49829 MEMB     88       PVCL2    H9D      HAL2     0.900000E-01   1.00800           0
     49830 MEMB     88       PVCL2    H9E      HAL2     0.900000E-01   1.00800           0
     49831 MEMB     88       PVCL2    CB10     CTL2    -0.180000       12.0110           0
     49832 MEMB     88       PVCL2    H10D     HAL2     0.900000E-01   1.00800           0
     49833 MEMB     88       PVCL2    H10E     HAL2     0.900000E-01   1.00800           0
     49834 MEMB     88       PVCL2    CB11     CTL2    -0.180000       12.0110           0
     49835 MEMB     88       PVCL2    H11D     HAL2     0.900000E-01   1.00800           0
     49836 MEMB     88       PVCL2    H11E     HAL2     0.900000E-01   1.00800           0
     49837 MEMB     88       PVCL2    CB12     CTL2    -0.180000       12.0110           0
     49838 MEMB     88       PVCL2    H12D     HAL2     0.900000E-01   1.00800           0
     49839 MEMB     88       PVCL2    H12E     HAL2     0.900000E-01   1.00800           0
     49840 MEMB     88       PVCL2    CB13     CTL2    -0.180000       12.0110           0
     49841 MEMB     88       PVCL2    H13D     HAL2     0.900000E-01   1.00800           0
     49842 MEMB     88       PVCL2    H13E     HAL2     0.900000E-01   1.00800           0
     49843 MEMB     88       PVCL2    CB14     CTL2    -0.180000       12.0110           0
     49844 MEMB     88       PVCL2    H14D     HAL2     0.900000E-01   1.00800           0
     49845 MEMB     88       PVCL2    H14E     HAL2     0.900000E-01   1.00800           0
     49846 MEMB     88       PVCL2    CB15     CTL2    -0.180000       12.0110           0
     49847 MEMB     88       PVCL2    H15D     HAL2     0.900000E-01   1.00800           0
     49848 MEMB     88       PVCL2    H15E     HAL2     0.900000E-01   1.00800           0
     49849 MEMB     88       PVCL2    CB16     CTL3    -0.270000       12.0110           0
     49850 MEMB     88       PVCL2    H16D     HAL3     0.900000E-01   1.00800           0
     49851 MEMB     88       PVCL2    H16E     HAL3     0.900000E-01   1.00800           0
     49852 MEMB     88       PVCL2    H16F     HAL3     0.900000E-01   1.00800           0
     49853 MEMB     88       PVCL2    CC3      CTL2    -0.180000       12.0110           0
     49854 MEMB     88       PVCL2    H3R      HAL2     0.900000E-01   1.00800           0
     49855 MEMB     88       PVCL2    H3S      HAL2     0.900000E-01   1.00800           0
     49856 MEMB     88       PVCL2    CC4      CTL2    -0.180000       12.0110           0
     49857 MEMB     88       PVCL2    H4R      HAL2     0.900000E-01   1.00800           0
     49858 MEMB     88       PVCL2    H4S      HAL2     0.900000E-01   1.00800           0
     49859 MEMB     88       PVCL2    CC5      CTL2    -0.180000       12.0110           0
     49860 MEMB     88       PVCL2    H5R      HAL2     0.900000E-01   1.00800           0
     49861 MEMB     88       PVCL2    H5S      HAL2     0.900000E-01   1.00800           0
     49862 MEMB     88       PVCL2    CC6      CTL2    -0.180000       12.0110           0
     49863 MEMB     88       PVCL2    H6R      HAL2     0.900000E-01   1.00800           0
     49864 MEMB     88       PVCL2    H6S      HAL2     0.900000E-01   1.00800           0
     49865 MEMB     88       PVCL2    CC7      CTL2    -0.180000       12.0110           0
     49866 MEMB     88       PVCL2    H7R      HAL2     0.900000E-01   1.00800           0
     49867 MEMB     88       PVCL2    H7S      HAL2     0.900000E-01   1.00800           0
     49868 MEMB     88       PVCL2    CC8      CTL2    -0.180000       12.0110           0
     49869 MEMB     88       PVCL2    H8R      HAL2     0.900000E-01   1.00800           0
     49870 MEMB     88       PVCL2    H8S      HAL2     0.900000E-01   1.00800           0
     49871 MEMB     88       PVCL2    CC9      CTL2    -0.180000       12.0110           0
     49872 MEMB     88       PVCL2    H9R      HAL2     0.900000E-01   1.00800           0
     49873 MEMB     88       PVCL2    H9S      HAL2     0.900000E-01   1.00800           0
     49874 MEMB     88       PVCL2    CC10     CTL2    -0.180000       12.0110           0
     49875 MEMB     88       PVCL2    H10R     HAL2     0.900000E-01   1.00800           0
     49876 MEMB     88       PVCL2    H10S     HAL2     0.900000E-01   1.00800           0
     49877 MEMB     88       PVCL2    CC11     CEL1    -0.150000       12.0110           0
     49878 MEMB     88       PVCL2    H11R     HEL1     0.150000       1.00800           0
     49879 MEMB     88       PVCL2    CC12     CEL1    -0.150000       12.0110           0
     49880 MEMB     88       PVCL2    H12R     HEL1     0.150000       1.00800           0
     49881 MEMB     88       PVCL2    CC13     CTL2    -0.180000       12.0110           0
     49882 MEMB     88       PVCL2    H13R     HAL2     0.900000E-01   1.00800           0
     49883 MEMB     88       PVCL2    H13S     HAL2     0.900000E-01   1.00800           0
     49884 MEMB     88       PVCL2    CC14     CTL2    -0.180000       12.0110           0
     49885 MEMB     88       PVCL2    H14R     HAL2     0.900000E-01   1.00800           0
     49886 MEMB     88       PVCL2    H14S     HAL2     0.900000E-01   1.00800           0
     49887 MEMB     88       PVCL2    CC15     CTL2    -0.180000       12.0110           0
     49888 MEMB     88       PVCL2    H15R     HAL2     0.900000E-01   1.00800           0
     49889 MEMB     88       PVCL2    H15S     HAL2     0.900000E-01   1.00800           0
     49890 MEMB     88       PVCL2    CC16     CTL2    -0.180000       12.0110           0
     49891 MEMB     88       PVCL2    H16R     HAL2     0.900000E-01   1.00800           0
     49892 MEMB     88       PVCL2    H16S     HAL2     0.900000E-01   1.00800           0
     49893 MEMB     88       PVCL2    CC17     CTL2    -0.180000       12.0110           0
     49894 MEMB     88       PVCL2    H17R     HAL2     0.900000E-01   1.00800           0
     49895 MEMB     88       PVCL2    H17S     HAL2     0.900000E-01   1.00800           0
     49896 MEMB     88       PVCL2    CC18     CTL3    -0.270000       12.0110           0
     49897 MEMB     88       PVCL2    H18R     HAL3     0.900000E-01   1.00800           0
     49898 MEMB     88       PVCL2    H18S     HAL3     0.900000E-01   1.00800           0
     49899 MEMB     88       PVCL2    H18T     HAL3     0.900000E-01   1.00800           0
     49900 MEMB     88       PVCL2    CD3      CTL2    -0.180000       12.0110           0
     49901 MEMB     88       PVCL2    H3X      HAL2     0.900000E-01   1.00800           0
     49902 MEMB     88       PVCL2    H3Y      HAL2     0.900000E-01   1.00800           0
     49903 MEMB     88       PVCL2    CD4      CTL2    -0.180000       12.0110           0
     49904 MEMB     88       PVCL2    H4X      HAL2     0.900000E-01   1.00800           0
     49905 MEMB     88       PVCL2    H4Y      HAL2     0.900000E-01   1.00800           0
     49906 MEMB     88       PVCL2    CD5      CTL2    -0.180000       12.0110           0
     49907 MEMB     88       PVCL2    H5X      HAL2     0.900000E-01   1.00800           0
     49908 MEMB     88       PVCL2    H5Y      HAL2     0.900000E-01   1.00800           0
     49909 MEMB     88       PVCL2    CD6      CTL2    -0.180000       12.0110           0
     49910 MEMB     88       PVCL2    H6X      HAL2     0.900000E-01   1.00800           0
     49911 MEMB     88       PVCL2    H6Y      HAL2     0.900000E-01   1.00800           0
     49912 MEMB     88       PVCL2    CD7      CTL2    -0.180000       12.0110           0
     49913 MEMB     88       PVCL2    H7X      HAL2     0.900000E-01   1.00800           0
     49914 MEMB     88       PVCL2    H7Y      HAL2     0.900000E-01   1.00800           0
     49915 MEMB     88       PVCL2    CD8      CTL2    -0.180000       12.0110           0
     49916 MEMB     88       PVCL2    H8X      HAL2     0.900000E-01   1.00800           0
     49917 MEMB     88       PVCL2    H8Y      HAL2     0.900000E-01   1.00800           0
     49918 MEMB     88       PVCL2    CD9      CTL2    -0.180000       12.0110           0
     49919 MEMB     88       PVCL2    H9X      HAL2     0.900000E-01   1.00800           0
     49920 MEMB     88       PVCL2    H9Y      HAL2     0.900000E-01   1.00800           0
     49921 MEMB     88       PVCL2    CD10     CTL2    -0.180000       12.0110           0
     49922 MEMB     88       PVCL2    H10X     HAL2     0.900000E-01   1.00800           0
     49923 MEMB     88       PVCL2    H10Y     HAL2     0.900000E-01   1.00800           0
     49924 MEMB     88       PVCL2    CD11     CTL2    -0.180000       12.0110           0
     49925 MEMB     88       PVCL2    H11X     HAL2     0.900000E-01   1.00800           0
     49926 MEMB     88       PVCL2    H11Y     HAL2     0.900000E-01   1.00800           0
     49927 MEMB     88       PVCL2    CD12     CTL2    -0.180000       12.0110           0
     49928 MEMB     88       PVCL2    H12X     HAL2     0.900000E-01   1.00800           0
     49929 MEMB     88       PVCL2    H12Y     HAL2     0.900000E-01   1.00800           0
     49930 MEMB     88       PVCL2    CD13     CTL2    -0.180000       12.0110           0
     49931 MEMB     88       PVCL2    H13X     HAL2     0.900000E-01   1.00800           0
     49932 MEMB     88       PVCL2    H13Y     HAL2     0.900000E-01   1.00800           0
     49933 MEMB     88       PVCL2    CD14     CTL2    -0.180000       12.0110           0
     49934 MEMB     88       PVCL2    H14X     HAL2     0.900000E-01   1.00800           0
     49935 MEMB     88       PVCL2    H14Y     HAL2     0.900000E-01   1.00800           0
     49936 MEMB     88       PVCL2    CD15     CTL2    -0.180000       12.0110           0
     49937 MEMB     88       PVCL2    H15X     HAL2     0.900000E-01   1.00800           0
     49938 MEMB     88       PVCL2    H15Y     HAL2     0.900000E-01   1.00800           0
     49939 MEMB     88       PVCL2    CD16     CTL3    -0.270000       12.0110           0
     49940 MEMB     88       PVCL2    H16X     HAL3     0.900000E-01   1.00800           0
     49941 MEMB     88       PVCL2    H16Y     HAL3     0.900000E-01   1.00800           0
     49942 MEMB     88       PVCL2    H16Z     HAL3     0.900000E-01   1.00800           0
     49943 MEMB     89       PVPG     C13      CTL2     0.500000E-01   12.0110           0
     49944 MEMB     89       PVPG     H13A     HAL2     0.900000E-01   1.00800           0
     49945 MEMB     89       PVPG     H13B     HAL2     0.900000E-01   1.00800           0
     49946 MEMB     89       PVPG     OC3      OHL     -0.650000       15.9994           0
     49947 MEMB     89       PVPG     HO3      HOL      0.420000       1.00800           0
     49948 MEMB     89       PVPG     C12      CTL1     0.140000       12.0110           0
     49949 MEMB     89       PVPG     H12A     HAL1     0.900000E-01   1.00800           0
     49950 MEMB     89       PVPG     OC2      OHL     -0.650000       15.9994           0
     49951 MEMB     89       PVPG     HO2      HOL      0.420000       1.00800           0
     49952 MEMB     89       PVPG     C11      CTL2    -0.800000E-01   12.0110           0
     49953 MEMB     89       PVPG     H11A     HAL2     0.900000E-01   1.00800           0
     49954 MEMB     89       PVPG     H11B     HAL2     0.900000E-01   1.00800           0
     49955 MEMB     89       PVPG     P        PL        1.50000       30.9740           0
     49956 MEMB     89       PVPG     O13      O2L     -0.780000       15.9994           0
     49957 MEMB     89       PVPG     O14      O2L     -0.780000       15.9994           0
     49958 MEMB     89       PVPG     O12      OSLP    -0.570000       15.9994           0
     49959 MEMB     89       PVPG     O11      OSLP    -0.570000       15.9994           0
     49960 MEMB     89       PVPG     C1       CTL2    -0.800000E-01   12.0110           0
     49961 MEMB     89       PVPG     HA       HAL2     0.900000E-01   1.00800           0
     49962 MEMB     89       PVPG     HB       HAL2     0.900000E-01   1.00800           0
     49963 MEMB     89       PVPG     C2       CTL1     0.170000       12.0110           0
     49964 MEMB     89       PVPG     HS       HAL1     0.900000E-01   1.00800           0
     49965 MEMB     89       PVPG     O21      OSL     -0.490000       15.9994           0
     49966 MEMB     89       PVPG     C21      CL       0.900000       12.0110           0
     49967 MEMB     89       PVPG     O22      OBL     -0.630000       15.9994           0
     49968 MEMB     89       PVPG     C22      CTL2    -0.220000       12.0110           0
     49969 MEMB     89       PVPG     H2R      HAL2     0.900000E-01   1.00800           0
     49970 MEMB     89       PVPG     H2S      HAL2     0.900000E-01   1.00800           0
     49971 MEMB     89       PVPG     C3       CTL2     0.800000E-01   12.0110           0
     49972 MEMB     89       PVPG     HX       HAL2     0.900000E-01   1.00800           0
     49973 MEMB     89       PVPG     HY       HAL2     0.900000E-01   1.00800           0
     49974 MEMB     89       PVPG     O31      OSL     -0.490000       15.9994           0
     49975 MEMB     89       PVPG     C31      CL       0.900000       12.0110           0
     49976 MEMB     89       PVPG     O32      OBL     -0.630000       15.9994           0
     49977 MEMB     89       PVPG     C32      CTL2    -0.220000       12.0110           0
     49978 MEMB     89       PVPG     H2X      HAL2     0.900000E-01   1.00800           0
     49979 MEMB     89       PVPG     H2Y      HAL2     0.900000E-01   1.00800           0
     49980 MEMB     89       PVPG     C23      CTL2    -0.180000       12.0110           0
     49981 MEMB     89       PVPG     H3R      HAL2     0.900000E-01   1.00800           0
     49982 MEMB     89       PVPG     H3S      HAL2     0.900000E-01   1.00800           0
     49983 MEMB     89       PVPG     C24      CTL2    -0.180000       12.0110           0
     49984 MEMB     89       PVPG     H4R      HAL2     0.900000E-01   1.00800           0
     49985 MEMB     89       PVPG     H4S      HAL2     0.900000E-01   1.00800           0
     49986 MEMB     89       PVPG     C25      CTL2    -0.180000       12.0110           0
     49987 MEMB     89       PVPG     H5R      HAL2     0.900000E-01   1.00800           0
     49988 MEMB     89       PVPG     H5S      HAL2     0.900000E-01   1.00800           0
     49989 MEMB     89       PVPG     C26      CTL2    -0.180000       12.0110           0
     49990 MEMB     89       PVPG     H6R      HAL2     0.900000E-01   1.00800           0
     49991 MEMB     89       PVPG     H6S      HAL2     0.900000E-01   1.00800           0
     49992 MEMB     89       PVPG     C27      CTL2    -0.180000       12.0110           0
     49993 MEMB     89       PVPG     H7R      HAL2     0.900000E-01   1.00800           0
     49994 MEMB     89       PVPG     H7S      HAL2     0.900000E-01   1.00800           0
     49995 MEMB     89       PVPG     C28      CTL2    -0.180000       12.0110           0
     49996 MEMB     89       PVPG     H8R      HAL2     0.900000E-01   1.00800           0
     49997 MEMB     89       PVPG     H8S      HAL2     0.900000E-01   1.00800           0
     49998 MEMB     89       PVPG     C29      CTL2    -0.180000       12.0110           0
     49999 MEMB     89       PVPG     H9R      HAL2     0.900000E-01   1.00800           0
     50000 MEMB     89       PVPG     H9S      HAL2     0.900000E-01   1.00800           0
     50001 MEMB     89       PVPG     C210     CTL2    -0.180000       12.0110           0
     50002 MEMB     89       PVPG     H10R     HAL2     0.900000E-01   1.00800           0
     50003 MEMB     89       PVPG     H10S     HAL2     0.900000E-01   1.00800           0
     50004 MEMB     89       PVPG     C211     CEL1    -0.150000       12.0110           0
     50005 MEMB     89       PVPG     H111     HEL1     0.150000       1.00800           0
     50006 MEMB     89       PVPG     C212     CEL1    -0.150000       12.0110           0
     50007 MEMB     89       PVPG     H121     HEL1     0.150000       1.00800           0
     50008 MEMB     89       PVPG     C213     CTL2    -0.180000       12.0110           0
     50009 MEMB     89       PVPG     H13R     HAL2     0.900000E-01   1.00800           0
     50010 MEMB     89       PVPG     H13S     HAL2     0.900000E-01   1.00800           0
     50011 MEMB     89       PVPG     C214     CTL2    -0.180000       12.0110           0
     50012 MEMB     89       PVPG     H14R     HAL2     0.900000E-01   1.00800           0
     50013 MEMB     89       PVPG     H14S     HAL2     0.900000E-01   1.00800           0
     50014 MEMB     89       PVPG     C215     CTL2    -0.180000       12.0110           0
     50015 MEMB     89       PVPG     H15R     HAL2     0.900000E-01   1.00800           0
     50016 MEMB     89       PVPG     H15S     HAL2     0.900000E-01   1.00800           0
     50017 MEMB     89       PVPG     C216     CTL2    -0.180000       12.0110           0
     50018 MEMB     89       PVPG     H16R     HAL2     0.900000E-01   1.00800           0
     50019 MEMB     89       PVPG     H16S     HAL2     0.900000E-01   1.00800           0
     50020 MEMB     89       PVPG     C217     CTL2    -0.180000       12.0110           0
     50021 MEMB     89       PVPG     H17R     HAL2     0.900000E-01   1.00800           0
     50022 MEMB     89       PVPG     H17S     HAL2     0.900000E-01   1.00800           0
     50023 MEMB     89       PVPG     C218     CTL3    -0.270000       12.0110           0
     50024 MEMB     89       PVPG     H18R     HAL3     0.900000E-01   1.00800           0
     50025 MEMB     89       PVPG     H18S     HAL3     0.900000E-01   1.00800           0
     50026 MEMB     89       PVPG     H18T     HAL3     0.900000E-01   1.00800           0
     50027 MEMB     89       PVPG     C33      CTL2    -0.180000       12.0110           0
     50028 MEMB     89       PVPG     H3X      HAL2     0.900000E-01   1.00800           0
     50029 MEMB     89       PVPG     H3Y      HAL2     0.900000E-01   1.00800           0
     50030 MEMB     89       PVPG     C34      CTL2    -0.180000       12.0110           0
     50031 MEMB     89       PVPG     H4X      HAL2     0.900000E-01   1.00800           0
     50032 MEMB     89       PVPG     H4Y      HAL2     0.900000E-01   1.00800           0
     50033 MEMB     89       PVPG     C35      CTL2    -0.180000       12.0110           0
     50034 MEMB     89       PVPG     H5X      HAL2     0.900000E-01   1.00800           0
     50035 MEMB     89       PVPG     H5Y      HAL2     0.900000E-01   1.00800           0
     50036 MEMB     89       PVPG     C36      CTL2    -0.180000       12.0110           0
     50037 MEMB     89       PVPG     H6X      HAL2     0.900000E-01   1.00800           0
     50038 MEMB     89       PVPG     H6Y      HAL2     0.900000E-01   1.00800           0
     50039 MEMB     89       PVPG     C37      CTL2    -0.180000       12.0110           0
     50040 MEMB     89       PVPG     H7X      HAL2     0.900000E-01   1.00800           0
     50041 MEMB     89       PVPG     H7Y      HAL2     0.900000E-01   1.00800           0
     50042 MEMB     89       PVPG     C38      CTL2    -0.180000       12.0110           0
     50043 MEMB     89       PVPG     H8X      HAL2     0.900000E-01   1.00800           0
     50044 MEMB     89       PVPG     H8Y      HAL2     0.900000E-01   1.00800           0
     50045 MEMB     89       PVPG     C39      CTL2    -0.180000       12.0110           0
     50046 MEMB     89       PVPG     H9X      HAL2     0.900000E-01   1.00800           0
     50047 MEMB     89       PVPG     H9Y      HAL2     0.900000E-01   1.00800           0
     50048 MEMB     89       PVPG     C310     CTL2    -0.180000       12.0110           0
     50049 MEMB     89       PVPG     H10X     HAL2     0.900000E-01   1.00800           0
     50050 MEMB     89       PVPG     H10Y     HAL2     0.900000E-01   1.00800           0
     50051 MEMB     89       PVPG     C311     CTL2    -0.180000       12.0110           0
     50052 MEMB     89       PVPG     H11X     HAL2     0.900000E-01   1.00800           0
     50053 MEMB     89       PVPG     H11Y     HAL2     0.900000E-01   1.00800           0
     50054 MEMB     89       PVPG     C312     CTL2    -0.180000       12.0110           0
     50055 MEMB     89       PVPG     H12X     HAL2     0.900000E-01   1.00800           0
     50056 MEMB     89       PVPG     H12Y     HAL2     0.900000E-01   1.00800           0
     50057 MEMB     89       PVPG     C313     CTL2    -0.180000       12.0110           0
     50058 MEMB     89       PVPG     H13X     HAL2     0.900000E-01   1.00800           0
     50059 MEMB     89       PVPG     H13Y     HAL2     0.900000E-01   1.00800           0
     50060 MEMB     89       PVPG     C314     CTL2    -0.180000       12.0110           0
     50061 MEMB     89       PVPG     H14X     HAL2     0.900000E-01   1.00800           0
     50062 MEMB     89       PVPG     H14Y     HAL2     0.900000E-01   1.00800           0
     50063 MEMB     89       PVPG     C315     CTL2    -0.180000       12.0110           0
     50064 MEMB     89       PVPG     H15X     HAL2     0.900000E-01   1.00800           0
     50065 MEMB     89       PVPG     H15Y     HAL2     0.900000E-01   1.00800           0
     50066 MEMB     89       PVPG     C316     CTL3    -0.270000       12.0110           0
     50067 MEMB     89       PVPG     H16X     HAL3     0.900000E-01   1.00800           0
     50068 MEMB     89       PVPG     H16Y     HAL3     0.900000E-01   1.00800           0
     50069 MEMB     89       PVPG     H16Z     HAL3     0.900000E-01   1.00800           0
     50070 MEMB     90       PPPE     N        NH3L    -0.300000       14.0070           0
     50071 MEMB     90       PPPE     HN1      HCL      0.330000       1.00800           0
     50072 MEMB     90       PPPE     HN2      HCL      0.330000       1.00800           0
     50073 MEMB     90       PPPE     HN3      HCL      0.330000       1.00800           0
     50074 MEMB     90       PPPE     C12      CTL2     0.130000       12.0110           0
     50075 MEMB     90       PPPE     H12A     HAL2     0.900000E-01   1.00800           0
     50076 MEMB     90       PPPE     H12B     HAL2     0.900000E-01   1.00800           0
     50077 MEMB     90       PPPE     C11      CTL2    -0.800000E-01   12.0110           0
     50078 MEMB     90       PPPE     H11A     HAL2     0.900000E-01   1.00800           0
     50079 MEMB     90       PPPE     H11B     HAL2     0.900000E-01   1.00800           0
     50080 MEMB     90       PPPE     P        PL        1.50000       30.9740           0
     50081 MEMB     90       PPPE     O13      O2L     -0.780000       15.9994           0
     50082 MEMB     90       PPPE     O14      O2L     -0.780000       15.9994           0
     50083 MEMB     90       PPPE     O11      OSLP    -0.570000       15.9994           0
     50084 MEMB     90       PPPE     O12      OSLP    -0.570000       15.9994           0
     50085 MEMB     90       PPPE     C1       CTL2    -0.800000E-01   12.0110           0
     50086 MEMB     90       PPPE     HA       HAL2     0.900000E-01   1.00800           0
     50087 MEMB     90       PPPE     HB       HAL2     0.900000E-01   1.00800           0
     50088 MEMB     90       PPPE     C2       CTL1     0.170000       12.0110           0
     50089 MEMB     90       PPPE     HS       HAL1     0.900000E-01   1.00800           0
     50090 MEMB     90       PPPE     O21      OSL     -0.490000       15.9994           0
     50091 MEMB     90       PPPE     C21      CL       0.900000       12.0110           0
     50092 MEMB     90       PPPE     O22      OBL     -0.630000       15.9994           0
     50093 MEMB     90       PPPE     C22      CTL2    -0.220000       12.0110           0
     50094 MEMB     90       PPPE     H2R      HAL2     0.900000E-01   1.00800           0
     50095 MEMB     90       PPPE     H2S      HAL2     0.900000E-01   1.00800           0
     50096 MEMB     90       PPPE     C3       CTL2     0.800000E-01   12.0110           0
     50097 MEMB     90       PPPE     HX       HAL2     0.900000E-01   1.00800           0
     50098 MEMB     90       PPPE     HY       HAL2     0.900000E-01   1.00800           0
     50099 MEMB     90       PPPE     O31      OSL     -0.490000       15.9994           0
     50100 MEMB     90       PPPE     C31      CL       0.900000       12.0110           0
     50101 MEMB     90       PPPE     O32      OBL     -0.630000       15.9994           0
     50102 MEMB     90       PPPE     C32      CTL2    -0.220000       12.0110           0
     50103 MEMB     90       PPPE     H2X      HAL2     0.900000E-01   1.00800           0
     50104 MEMB     90       PPPE     H2Y      HAL2     0.900000E-01   1.00800           0
     50105 MEMB     90       PPPE     C23      CTL2    -0.180000       12.0110           0
     50106 MEMB     90       PPPE     H3R      HAL2     0.900000E-01   1.00800           0
     50107 MEMB     90       PPPE     H3S      HAL2     0.900000E-01   1.00800           0
     50108 MEMB     90       PPPE     C24      CTL2    -0.180000       12.0110           0
     50109 MEMB     90       PPPE     H4R      HAL2     0.900000E-01   1.00800           0
     50110 MEMB     90       PPPE     H4S      HAL2     0.900000E-01   1.00800           0
     50111 MEMB     90       PPPE     C25      CTL2    -0.180000       12.0110           0
     50112 MEMB     90       PPPE     H5R      HAL2     0.900000E-01   1.00800           0
     50113 MEMB     90       PPPE     H5S      HAL2     0.900000E-01   1.00800           0
     50114 MEMB     90       PPPE     C26      CTL2    -0.180000       12.0110           0
     50115 MEMB     90       PPPE     H6R      HAL2     0.900000E-01   1.00800           0
     50116 MEMB     90       PPPE     H6S      HAL2     0.900000E-01   1.00800           0
     50117 MEMB     90       PPPE     C27      CTL2    -0.180000       12.0110           0
     50118 MEMB     90       PPPE     H7R      HAL2     0.900000E-01   1.00800           0
     50119 MEMB     90       PPPE     H7S      HAL2     0.900000E-01   1.00800           0
     50120 MEMB     90       PPPE     C28      CTL2    -0.180000       12.0110           0
     50121 MEMB     90       PPPE     H8R      HAL2     0.900000E-01   1.00800           0
     50122 MEMB     90       PPPE     H8S      HAL2     0.900000E-01   1.00800           0
     50123 MEMB     90       PPPE     C29      CEL1    -0.150000       12.0110           0
     50124 MEMB     90       PPPE     H91      HEL1     0.150000       1.00800           0
     50125 MEMB     90       PPPE     C210     CEL1    -0.150000       12.0110           0
     50126 MEMB     90       PPPE     H101     HEL1     0.150000       1.00800           0
     50127 MEMB     90       PPPE     C211     CTL2    -0.180000       12.0110           0
     50128 MEMB     90       PPPE     H11R     HAL2     0.900000E-01   1.00800           0
     50129 MEMB     90       PPPE     H11S     HAL2     0.900000E-01   1.00800           0
     50130 MEMB     90       PPPE     C212     CTL2    -0.180000       12.0110           0
     50131 MEMB     90       PPPE     H12R     HAL2     0.900000E-01   1.00800           0
     50132 MEMB     90       PPPE     H12S     HAL2     0.900000E-01   1.00800           0
     50133 MEMB     90       PPPE     C213     CTL2    -0.180000       12.0110           0
     50134 MEMB     90       PPPE     H13R     HAL2     0.900000E-01   1.00800           0
     50135 MEMB     90       PPPE     H13S     HAL2     0.900000E-01   1.00800           0
     50136 MEMB     90       PPPE     C214     CTL2    -0.180000       12.0110           0
     50137 MEMB     90       PPPE     H14R     HAL2     0.900000E-01   1.00800           0
     50138 MEMB     90       PPPE     H14S     HAL2     0.900000E-01   1.00800           0
     50139 MEMB     90       PPPE     C215     CTL2    -0.180000       12.0110           0
     50140 MEMB     90       PPPE     H15R     HAL2     0.900000E-01   1.00800           0
     50141 MEMB     90       PPPE     H15S     HAL2     0.900000E-01   1.00800           0
     50142 MEMB     90       PPPE     C216     CTL3    -0.270000       12.0110           0
     50143 MEMB     90       PPPE     H16R     HAL3     0.900000E-01   1.00800           0
     50144 MEMB     90       PPPE     H16S     HAL3     0.900000E-01   1.00800           0
     50145 MEMB     90       PPPE     H16T     HAL3     0.900000E-01   1.00800           0
     50146 MEMB     90       PPPE     C33      CTL2    -0.180000       12.0110           0
     50147 MEMB     90       PPPE     H3X      HAL2     0.900000E-01   1.00800           0
     50148 MEMB     90       PPPE     H3Y      HAL2     0.900000E-01   1.00800           0
     50149 MEMB     90       PPPE     C34      CTL2    -0.180000       12.0110           0
     50150 MEMB     90       PPPE     H4X      HAL2     0.900000E-01   1.00800           0
     50151 MEMB     90       PPPE     H4Y      HAL2     0.900000E-01   1.00800           0
     50152 MEMB     90       PPPE     C35      CTL2    -0.180000       12.0110           0
     50153 MEMB     90       PPPE     H5X      HAL2     0.900000E-01   1.00800           0
     50154 MEMB     90       PPPE     H5Y      HAL2     0.900000E-01   1.00800           0
     50155 MEMB     90       PPPE     C36      CTL2    -0.180000       12.0110           0
     50156 MEMB     90       PPPE     H6X      HAL2     0.900000E-01   1.00800           0
     50157 MEMB     90       PPPE     H6Y      HAL2     0.900000E-01   1.00800           0
     50158 MEMB     90       PPPE     C37      CTL2    -0.180000       12.0110           0
     50159 MEMB     90       PPPE     H7X      HAL2     0.900000E-01   1.00800           0
     50160 MEMB     90       PPPE     H7Y      HAL2     0.900000E-01   1.00800           0
     50161 MEMB     90       PPPE     C38      CTL2    -0.180000       12.0110           0
     50162 MEMB     90       PPPE     H8X      HAL2     0.900000E-01   1.00800           0
     50163 MEMB     90       PPPE     H8Y      HAL2     0.900000E-01   1.00800           0
     50164 MEMB     90       PPPE     C39      CTL2    -0.180000       12.0110           0
     50165 MEMB     90       PPPE     H9X      HAL2     0.900000E-01   1.00800           0
     50166 MEMB     90       PPPE     H9Y      HAL2     0.900000E-01   1.00800           0
     50167 MEMB     90       PPPE     C310     CTL2    -0.180000       12.0110           0
     50168 MEMB     90       PPPE     H10X     HAL2     0.900000E-01   1.00800           0
     50169 MEMB     90       PPPE     H10Y     HAL2     0.900000E-01   1.00800           0
     50170 MEMB     90       PPPE     C311     CTL2    -0.180000       12.0110           0
     50171 MEMB     90       PPPE     H11X     HAL2     0.900000E-01   1.00800           0
     50172 MEMB     90       PPPE     H11Y     HAL2     0.900000E-01   1.00800           0
     50173 MEMB     90       PPPE     C312     CTL2    -0.180000       12.0110           0
     50174 MEMB     90       PPPE     H12X     HAL2     0.900000E-01   1.00800           0
     50175 MEMB     90       PPPE     H12Y     HAL2     0.900000E-01   1.00800           0
     50176 MEMB     90       PPPE     C313     CTL2    -0.180000       12.0110           0
     50177 MEMB     90       PPPE     H13X     HAL2     0.900000E-01   1.00800           0
     50178 MEMB     90       PPPE     H13Y     HAL2     0.900000E-01   1.00800           0
     50179 MEMB     90       PPPE     C314     CTL2    -0.180000       12.0110           0
     50180 MEMB     90       PPPE     H14X     HAL2     0.900000E-01   1.00800           0
     50181 MEMB     90       PPPE     H14Y     HAL2     0.900000E-01   1.00800           0
     50182 MEMB     90       PPPE     C315     CTL2    -0.180000       12.0110           0
     50183 MEMB     90       PPPE     H15X     HAL2     0.900000E-01   1.00800           0
     50184 MEMB     90       PPPE     H15Y     HAL2     0.900000E-01   1.00800           0
     50185 MEMB     90       PPPE     C316     CTL3    -0.270000       12.0110           0
     50186 MEMB     90       PPPE     H16X     HAL3     0.900000E-01   1.00800           0
     50187 MEMB     90       PPPE     H16Y     HAL3     0.900000E-01   1.00800           0
     50188 MEMB     90       PPPE     H16Z     HAL3     0.900000E-01   1.00800           0
     50189 MEMB     91       PPPE     N        NH3L    -0.300000       14.0070           0
     50190 MEMB     91       PPPE     HN1      HCL      0.330000       1.00800           0
     50191 MEMB     91       PPPE     HN2      HCL      0.330000       1.00800           0
     50192 MEMB     91       PPPE     HN3      HCL      0.330000       1.00800           0
     50193 MEMB     91       PPPE     C12      CTL2     0.130000       12.0110           0
     50194 MEMB     91       PPPE     H12A     HAL2     0.900000E-01   1.00800           0
     50195 MEMB     91       PPPE     H12B     HAL2     0.900000E-01   1.00800           0
     50196 MEMB     91       PPPE     C11      CTL2    -0.800000E-01   12.0110           0
     50197 MEMB     91       PPPE     H11A     HAL2     0.900000E-01   1.00800           0
     50198 MEMB     91       PPPE     H11B     HAL2     0.900000E-01   1.00800           0
     50199 MEMB     91       PPPE     P        PL        1.50000       30.9740           0
     50200 MEMB     91       PPPE     O13      O2L     -0.780000       15.9994           0
     50201 MEMB     91       PPPE     O14      O2L     -0.780000       15.9994           0
     50202 MEMB     91       PPPE     O11      OSLP    -0.570000       15.9994           0
     50203 MEMB     91       PPPE     O12      OSLP    -0.570000       15.9994           0
     50204 MEMB     91       PPPE     C1       CTL2    -0.800000E-01   12.0110           0
     50205 MEMB     91       PPPE     HA       HAL2     0.900000E-01   1.00800           0
     50206 MEMB     91       PPPE     HB       HAL2     0.900000E-01   1.00800           0
     50207 MEMB     91       PPPE     C2       CTL1     0.170000       12.0110           0
     50208 MEMB     91       PPPE     HS       HAL1     0.900000E-01   1.00800           0
     50209 MEMB     91       PPPE     O21      OSL     -0.490000       15.9994           0
     50210 MEMB     91       PPPE     C21      CL       0.900000       12.0110           0
     50211 MEMB     91       PPPE     O22      OBL     -0.630000       15.9994           0
     50212 MEMB     91       PPPE     C22      CTL2    -0.220000       12.0110           0
     50213 MEMB     91       PPPE     H2R      HAL2     0.900000E-01   1.00800           0
     50214 MEMB     91       PPPE     H2S      HAL2     0.900000E-01   1.00800           0
     50215 MEMB     91       PPPE     C3       CTL2     0.800000E-01   12.0110           0
     50216 MEMB     91       PPPE     HX       HAL2     0.900000E-01   1.00800           0
     50217 MEMB     91       PPPE     HY       HAL2     0.900000E-01   1.00800           0
     50218 MEMB     91       PPPE     O31      OSL     -0.490000       15.9994           0
     50219 MEMB     91       PPPE     C31      CL       0.900000       12.0110           0
     50220 MEMB     91       PPPE     O32      OBL     -0.630000       15.9994           0
     50221 MEMB     91       PPPE     C32      CTL2    -0.220000       12.0110           0
     50222 MEMB     91       PPPE     H2X      HAL2     0.900000E-01   1.00800           0
     50223 MEMB     91       PPPE     H2Y      HAL2     0.900000E-01   1.00800           0
     50224 MEMB     91       PPPE     C23      CTL2    -0.180000       12.0110           0
     50225 MEMB     91       PPPE     H3R      HAL2     0.900000E-01   1.00800           0
     50226 MEMB     91       PPPE     H3S      HAL2     0.900000E-01   1.00800           0
     50227 MEMB     91       PPPE     C24      CTL2    -0.180000       12.0110           0
     50228 MEMB     91       PPPE     H4R      HAL2     0.900000E-01   1.00800           0
     50229 MEMB     91       PPPE     H4S      HAL2     0.900000E-01   1.00800           0
     50230 MEMB     91       PPPE     C25      CTL2    -0.180000       12.0110           0
     50231 MEMB     91       PPPE     H5R      HAL2     0.900000E-01   1.00800           0
     50232 MEMB     91       PPPE     H5S      HAL2     0.900000E-01   1.00800           0
     50233 MEMB     91       PPPE     C26      CTL2    -0.180000       12.0110           0
     50234 MEMB     91       PPPE     H6R      HAL2     0.900000E-01   1.00800           0
     50235 MEMB     91       PPPE     H6S      HAL2     0.900000E-01   1.00800           0
     50236 MEMB     91       PPPE     C27      CTL2    -0.180000       12.0110           0
     50237 MEMB     91       PPPE     H7R      HAL2     0.900000E-01   1.00800           0
     50238 MEMB     91       PPPE     H7S      HAL2     0.900000E-01   1.00800           0
     50239 MEMB     91       PPPE     C28      CTL2    -0.180000       12.0110           0
     50240 MEMB     91       PPPE     H8R      HAL2     0.900000E-01   1.00800           0
     50241 MEMB     91       PPPE     H8S      HAL2     0.900000E-01   1.00800           0
     50242 MEMB     91       PPPE     C29      CEL1    -0.150000       12.0110           0
     50243 MEMB     91       PPPE     H91      HEL1     0.150000       1.00800           0
     50244 MEMB     91       PPPE     C210     CEL1    -0.150000       12.0110           0
     50245 MEMB     91       PPPE     H101     HEL1     0.150000       1.00800           0
     50246 MEMB     91       PPPE     C211     CTL2    -0.180000       12.0110           0
     50247 MEMB     91       PPPE     H11R     HAL2     0.900000E-01   1.00800           0
     50248 MEMB     91       PPPE     H11S     HAL2     0.900000E-01   1.00800           0
     50249 MEMB     91       PPPE     C212     CTL2    -0.180000       12.0110           0
     50250 MEMB     91       PPPE     H12R     HAL2     0.900000E-01   1.00800           0
     50251 MEMB     91       PPPE     H12S     HAL2     0.900000E-01   1.00800           0
     50252 MEMB     91       PPPE     C213     CTL2    -0.180000       12.0110           0
     50253 MEMB     91       PPPE     H13R     HAL2     0.900000E-01   1.00800           0
     50254 MEMB     91       PPPE     H13S     HAL2     0.900000E-01   1.00800           0
     50255 MEMB     91       PPPE     C214     CTL2    -0.180000       12.0110           0
     50256 MEMB     91       PPPE     H14R     HAL2     0.900000E-01   1.00800           0
     50257 MEMB     91       PPPE     H14S     HAL2     0.900000E-01   1.00800           0
     50258 MEMB     91       PPPE     C215     CTL2    -0.180000       12.0110           0
     50259 MEMB     91       PPPE     H15R     HAL2     0.900000E-01   1.00800           0
     50260 MEMB     91       PPPE     H15S     HAL2     0.900000E-01   1.00800           0
     50261 MEMB     91       PPPE     C216     CTL3    -0.270000       12.0110           0
     50262 MEMB     91       PPPE     H16R     HAL3     0.900000E-01   1.00800           0
     50263 MEMB     91       PPPE     H16S     HAL3     0.900000E-01   1.00800           0
     50264 MEMB     91       PPPE     H16T     HAL3     0.900000E-01   1.00800           0
     50265 MEMB     91       PPPE     C33      CTL2    -0.180000       12.0110           0
     50266 MEMB     91       PPPE     H3X      HAL2     0.900000E-01   1.00800           0
     50267 MEMB     91       PPPE     H3Y      HAL2     0.900000E-01   1.00800           0
     50268 MEMB     91       PPPE     C34      CTL2    -0.180000       12.0110           0
     50269 MEMB     91       PPPE     H4X      HAL2     0.900000E-01   1.00800           0
     50270 MEMB     91       PPPE     H4Y      HAL2     0.900000E-01   1.00800           0
     50271 MEMB     91       PPPE     C35      CTL2    -0.180000       12.0110           0
     50272 MEMB     91       PPPE     H5X      HAL2     0.900000E-01   1.00800           0
     50273 MEMB     91       PPPE     H5Y      HAL2     0.900000E-01   1.00800           0
     50274 MEMB     91       PPPE     C36      CTL2    -0.180000       12.0110           0
     50275 MEMB     91       PPPE     H6X      HAL2     0.900000E-01   1.00800           0
     50276 MEMB     91       PPPE     H6Y      HAL2     0.900000E-01   1.00800           0
     50277 MEMB     91       PPPE     C37      CTL2    -0.180000       12.0110           0
     50278 MEMB     91       PPPE     H7X      HAL2     0.900000E-01   1.00800           0
     50279 MEMB     91       PPPE     H7Y      HAL2     0.900000E-01   1.00800           0
     50280 MEMB     91       PPPE     C38      CTL2    -0.180000       12.0110           0
     50281 MEMB     91       PPPE     H8X      HAL2     0.900000E-01   1.00800           0
     50282 MEMB     91       PPPE     H8Y      HAL2     0.900000E-01   1.00800           0
     50283 MEMB     91       PPPE     C39      CTL2    -0.180000       12.0110           0
     50284 MEMB     91       PPPE     H9X      HAL2     0.900000E-01   1.00800           0
     50285 MEMB     91       PPPE     H9Y      HAL2     0.900000E-01   1.00800           0
     50286 MEMB     91       PPPE     C310     CTL2    -0.180000       12.0110           0
     50287 MEMB     91       PPPE     H10X     HAL2     0.900000E-01   1.00800           0
     50288 MEMB     91       PPPE     H10Y     HAL2     0.900000E-01   1.00800           0
     50289 MEMB     91       PPPE     C311     CTL2    -0.180000       12.0110           0
     50290 MEMB     91       PPPE     H11X     HAL2     0.900000E-01   1.00800           0
     50291 MEMB     91       PPPE     H11Y     HAL2     0.900000E-01   1.00800           0
     50292 MEMB     91       PPPE     C312     CTL2    -0.180000       12.0110           0
     50293 MEMB     91       PPPE     H12X     HAL2     0.900000E-01   1.00800           0
     50294 MEMB     91       PPPE     H12Y     HAL2     0.900000E-01   1.00800           0
     50295 MEMB     91       PPPE     C313     CTL2    -0.180000       12.0110           0
     50296 MEMB     91       PPPE     H13X     HAL2     0.900000E-01   1.00800           0
     50297 MEMB     91       PPPE     H13Y     HAL2     0.900000E-01   1.00800           0
     50298 MEMB     91       PPPE     C314     CTL2    -0.180000       12.0110           0
     50299 MEMB     91       PPPE     H14X     HAL2     0.900000E-01   1.00800           0
     50300 MEMB     91       PPPE     H14Y     HAL2     0.900000E-01   1.00800           0
     50301 MEMB     91       PPPE     C315     CTL2    -0.180000       12.0110           0
     50302 MEMB     91       PPPE     H15X     HAL2     0.900000E-01   1.00800           0
     50303 MEMB     91       PPPE     H15Y     HAL2     0.900000E-01   1.00800           0
     50304 MEMB     91       PPPE     C316     CTL3    -0.270000       12.0110           0
     50305 MEMB     91       PPPE     H16X     HAL3     0.900000E-01   1.00800           0
     50306 MEMB     91       PPPE     H16Y     HAL3     0.900000E-01   1.00800           0
     50307 MEMB     91       PPPE     H16Z     HAL3     0.900000E-01   1.00800           0
     50308 MEMB     92       PPPE     N        NH3L    -0.300000       14.0070           0
     50309 MEMB     92       PPPE     HN1      HCL      0.330000       1.00800           0
     50310 MEMB     92       PPPE     HN2      HCL      0.330000       1.00800           0
     50311 MEMB     92       PPPE     HN3      HCL      0.330000       1.00800           0
     50312 MEMB     92       PPPE     C12      CTL2     0.130000       12.0110           0
     50313 MEMB     92       PPPE     H12A     HAL2     0.900000E-01   1.00800           0
     50314 MEMB     92       PPPE     H12B     HAL2     0.900000E-01   1.00800           0
     50315 MEMB     92       PPPE     C11      CTL2    -0.800000E-01   12.0110           0
     50316 MEMB     92       PPPE     H11A     HAL2     0.900000E-01   1.00800           0
     50317 MEMB     92       PPPE     H11B     HAL2     0.900000E-01   1.00800           0
     50318 MEMB     92       PPPE     P        PL        1.50000       30.9740           0
     50319 MEMB     92       PPPE     O13      O2L     -0.780000       15.9994           0
     50320 MEMB     92       PPPE     O14      O2L     -0.780000       15.9994           0
     50321 MEMB     92       PPPE     O11      OSLP    -0.570000       15.9994           0
     50322 MEMB     92       PPPE     O12      OSLP    -0.570000       15.9994           0
     50323 MEMB     92       PPPE     C1       CTL2    -0.800000E-01   12.0110           0
     50324 MEMB     92       PPPE     HA       HAL2     0.900000E-01   1.00800           0
     50325 MEMB     92       PPPE     HB       HAL2     0.900000E-01   1.00800           0
     50326 MEMB     92       PPPE     C2       CTL1     0.170000       12.0110           0
     50327 MEMB     92       PPPE     HS       HAL1     0.900000E-01   1.00800           0
     50328 MEMB     92       PPPE     O21      OSL     -0.490000       15.9994           0
     50329 MEMB     92       PPPE     C21      CL       0.900000       12.0110           0
     50330 MEMB     92       PPPE     O22      OBL     -0.630000       15.9994           0
     50331 MEMB     92       PPPE     C22      CTL2    -0.220000       12.0110           0
     50332 MEMB     92       PPPE     H2R      HAL2     0.900000E-01   1.00800           0
     50333 MEMB     92       PPPE     H2S      HAL2     0.900000E-01   1.00800           0
     50334 MEMB     92       PPPE     C3       CTL2     0.800000E-01   12.0110           0
     50335 MEMB     92       PPPE     HX       HAL2     0.900000E-01   1.00800           0
     50336 MEMB     92       PPPE     HY       HAL2     0.900000E-01   1.00800           0
     50337 MEMB     92       PPPE     O31      OSL     -0.490000       15.9994           0
     50338 MEMB     92       PPPE     C31      CL       0.900000       12.0110           0
     50339 MEMB     92       PPPE     O32      OBL     -0.630000       15.9994           0
     50340 MEMB     92       PPPE     C32      CTL2    -0.220000       12.0110           0
     50341 MEMB     92       PPPE     H2X      HAL2     0.900000E-01   1.00800           0
     50342 MEMB     92       PPPE     H2Y      HAL2     0.900000E-01   1.00800           0
     50343 MEMB     92       PPPE     C23      CTL2    -0.180000       12.0110           0
     50344 MEMB     92       PPPE     H3R      HAL2     0.900000E-01   1.00800           0
     50345 MEMB     92       PPPE     H3S      HAL2     0.900000E-01   1.00800           0
     50346 MEMB     92       PPPE     C24      CTL2    -0.180000       12.0110           0
     50347 MEMB     92       PPPE     H4R      HAL2     0.900000E-01   1.00800           0
     50348 MEMB     92       PPPE     H4S      HAL2     0.900000E-01   1.00800           0
     50349 MEMB     92       PPPE     C25      CTL2    -0.180000       12.0110           0
     50350 MEMB     92       PPPE     H5R      HAL2     0.900000E-01   1.00800           0
     50351 MEMB     92       PPPE     H5S      HAL2     0.900000E-01   1.00800           0
     50352 MEMB     92       PPPE     C26      CTL2    -0.180000       12.0110           0
     50353 MEMB     92       PPPE     H6R      HAL2     0.900000E-01   1.00800           0
     50354 MEMB     92       PPPE     H6S      HAL2     0.900000E-01   1.00800           0
     50355 MEMB     92       PPPE     C27      CTL2    -0.180000       12.0110           0
     50356 MEMB     92       PPPE     H7R      HAL2     0.900000E-01   1.00800           0
     50357 MEMB     92       PPPE     H7S      HAL2     0.900000E-01   1.00800           0
     50358 MEMB     92       PPPE     C28      CTL2    -0.180000       12.0110           0
     50359 MEMB     92       PPPE     H8R      HAL2     0.900000E-01   1.00800           0
     50360 MEMB     92       PPPE     H8S      HAL2     0.900000E-01   1.00800           0
     50361 MEMB     92       PPPE     C29      CEL1    -0.150000       12.0110           0
     50362 MEMB     92       PPPE     H91      HEL1     0.150000       1.00800           0
     50363 MEMB     92       PPPE     C210     CEL1    -0.150000       12.0110           0
     50364 MEMB     92       PPPE     H101     HEL1     0.150000       1.00800           0
     50365 MEMB     92       PPPE     C211     CTL2    -0.180000       12.0110           0
     50366 MEMB     92       PPPE     H11R     HAL2     0.900000E-01   1.00800           0
     50367 MEMB     92       PPPE     H11S     HAL2     0.900000E-01   1.00800           0
     50368 MEMB     92       PPPE     C212     CTL2    -0.180000       12.0110           0
     50369 MEMB     92       PPPE     H12R     HAL2     0.900000E-01   1.00800           0
     50370 MEMB     92       PPPE     H12S     HAL2     0.900000E-01   1.00800           0
     50371 MEMB     92       PPPE     C213     CTL2    -0.180000       12.0110           0
     50372 MEMB     92       PPPE     H13R     HAL2     0.900000E-01   1.00800           0
     50373 MEMB     92       PPPE     H13S     HAL2     0.900000E-01   1.00800           0
     50374 MEMB     92       PPPE     C214     CTL2    -0.180000       12.0110           0
     50375 MEMB     92       PPPE     H14R     HAL2     0.900000E-01   1.00800           0
     50376 MEMB     92       PPPE     H14S     HAL2     0.900000E-01   1.00800           0
     50377 MEMB     92       PPPE     C215     CTL2    -0.180000       12.0110           0
     50378 MEMB     92       PPPE     H15R     HAL2     0.900000E-01   1.00800           0
     50379 MEMB     92       PPPE     H15S     HAL2     0.900000E-01   1.00800           0
     50380 MEMB     92       PPPE     C216     CTL3    -0.270000       12.0110           0
     50381 MEMB     92       PPPE     H16R     HAL3     0.900000E-01   1.00800           0
     50382 MEMB     92       PPPE     H16S     HAL3     0.900000E-01   1.00800           0
     50383 MEMB     92       PPPE     H16T     HAL3     0.900000E-01   1.00800           0
     50384 MEMB     92       PPPE     C33      CTL2    -0.180000       12.0110           0
     50385 MEMB     92       PPPE     H3X      HAL2     0.900000E-01   1.00800           0
     50386 MEMB     92       PPPE     H3Y      HAL2     0.900000E-01   1.00800           0
     50387 MEMB     92       PPPE     C34      CTL2    -0.180000       12.0110           0
     50388 MEMB     92       PPPE     H4X      HAL2     0.900000E-01   1.00800           0
     50389 MEMB     92       PPPE     H4Y      HAL2     0.900000E-01   1.00800           0
     50390 MEMB     92       PPPE     C35      CTL2    -0.180000       12.0110           0
     50391 MEMB     92       PPPE     H5X      HAL2     0.900000E-01   1.00800           0
     50392 MEMB     92       PPPE     H5Y      HAL2     0.900000E-01   1.00800           0
     50393 MEMB     92       PPPE     C36      CTL2    -0.180000       12.0110           0
     50394 MEMB     92       PPPE     H6X      HAL2     0.900000E-01   1.00800           0
     50395 MEMB     92       PPPE     H6Y      HAL2     0.900000E-01   1.00800           0
     50396 MEMB     92       PPPE     C37      CTL2    -0.180000       12.0110           0
     50397 MEMB     92       PPPE     H7X      HAL2     0.900000E-01   1.00800           0
     50398 MEMB     92       PPPE     H7Y      HAL2     0.900000E-01   1.00800           0
     50399 MEMB     92       PPPE     C38      CTL2    -0.180000       12.0110           0
     50400 MEMB     92       PPPE     H8X      HAL2     0.900000E-01   1.00800           0
     50401 MEMB     92       PPPE     H8Y      HAL2     0.900000E-01   1.00800           0
     50402 MEMB     92       PPPE     C39      CTL2    -0.180000       12.0110           0
     50403 MEMB     92       PPPE     H9X      HAL2     0.900000E-01   1.00800           0
     50404 MEMB     92       PPPE     H9Y      HAL2     0.900000E-01   1.00800           0
     50405 MEMB     92       PPPE     C310     CTL2    -0.180000       12.0110           0
     50406 MEMB     92       PPPE     H10X     HAL2     0.900000E-01   1.00800           0
     50407 MEMB     92       PPPE     H10Y     HAL2     0.900000E-01   1.00800           0
     50408 MEMB     92       PPPE     C311     CTL2    -0.180000       12.0110           0
     50409 MEMB     92       PPPE     H11X     HAL2     0.900000E-01   1.00800           0
     50410 MEMB     92       PPPE     H11Y     HAL2     0.900000E-01   1.00800           0
     50411 MEMB     92       PPPE     C312     CTL2    -0.180000       12.0110           0
     50412 MEMB     92       PPPE     H12X     HAL2     0.900000E-01   1.00800           0
     50413 MEMB     92       PPPE     H12Y     HAL2     0.900000E-01   1.00800           0
     50414 MEMB     92       PPPE     C313     CTL2    -0.180000       12.0110           0
     50415 MEMB     92       PPPE     H13X     HAL2     0.900000E-01   1.00800           0
     50416 MEMB     92       PPPE     H13Y     HAL2     0.900000E-01   1.00800           0
     50417 MEMB     92       PPPE     C314     CTL2    -0.180000       12.0110           0
     50418 MEMB     92       PPPE     H14X     HAL2     0.900000E-01   1.00800           0
     50419 MEMB     92       PPPE     H14Y     HAL2     0.900000E-01   1.00800           0
     50420 MEMB     92       PPPE     C315     CTL2    -0.180000       12.0110           0
     50421 MEMB     92       PPPE     H15X     HAL2     0.900000E-01   1.00800           0
     50422 MEMB     92       PPPE     H15Y     HAL2     0.900000E-01   1.00800           0
     50423 MEMB     92       PPPE     C316     CTL3    -0.270000       12.0110           0
     50424 MEMB     92       PPPE     H16X     HAL3     0.900000E-01   1.00800           0
     50425 MEMB     92       PPPE     H16Y     HAL3     0.900000E-01   1.00800           0
     50426 MEMB     92       PPPE     H16Z     HAL3     0.900000E-01   1.00800           0
     50427 MEMB     93       PPPE     N        NH3L    -0.300000       14.0070           0
     50428 MEMB     93       PPPE     HN1      HCL      0.330000       1.00800           0
     50429 MEMB     93       PPPE     HN2      HCL      0.330000       1.00800           0
     50430 MEMB     93       PPPE     HN3      HCL      0.330000       1.00800           0
     50431 MEMB     93       PPPE     C12      CTL2     0.130000       12.0110           0
     50432 MEMB     93       PPPE     H12A     HAL2     0.900000E-01   1.00800           0
     50433 MEMB     93       PPPE     H12B     HAL2     0.900000E-01   1.00800           0
     50434 MEMB     93       PPPE     C11      CTL2    -0.800000E-01   12.0110           0
     50435 MEMB     93       PPPE     H11A     HAL2     0.900000E-01   1.00800           0
     50436 MEMB     93       PPPE     H11B     HAL2     0.900000E-01   1.00800           0
     50437 MEMB     93       PPPE     P        PL        1.50000       30.9740           0
     50438 MEMB     93       PPPE     O13      O2L     -0.780000       15.9994           0
     50439 MEMB     93       PPPE     O14      O2L     -0.780000       15.9994           0
     50440 MEMB     93       PPPE     O11      OSLP    -0.570000       15.9994           0
     50441 MEMB     93       PPPE     O12      OSLP    -0.570000       15.9994           0
     50442 MEMB     93       PPPE     C1       CTL2    -0.800000E-01   12.0110           0
     50443 MEMB     93       PPPE     HA       HAL2     0.900000E-01   1.00800           0
     50444 MEMB     93       PPPE     HB       HAL2     0.900000E-01   1.00800           0
     50445 MEMB     93       PPPE     C2       CTL1     0.170000       12.0110           0
     50446 MEMB     93       PPPE     HS       HAL1     0.900000E-01   1.00800           0
     50447 MEMB     93       PPPE     O21      OSL     -0.490000       15.9994           0
     50448 MEMB     93       PPPE     C21      CL       0.900000       12.0110           0
     50449 MEMB     93       PPPE     O22      OBL     -0.630000       15.9994           0
     50450 MEMB     93       PPPE     C22      CTL2    -0.220000       12.0110           0
     50451 MEMB     93       PPPE     H2R      HAL2     0.900000E-01   1.00800           0
     50452 MEMB     93       PPPE     H2S      HAL2     0.900000E-01   1.00800           0
     50453 MEMB     93       PPPE     C3       CTL2     0.800000E-01   12.0110           0
     50454 MEMB     93       PPPE     HX       HAL2     0.900000E-01   1.00800           0
     50455 MEMB     93       PPPE     HY       HAL2     0.900000E-01   1.00800           0
     50456 MEMB     93       PPPE     O31      OSL     -0.490000       15.9994           0
     50457 MEMB     93       PPPE     C31      CL       0.900000       12.0110           0
     50458 MEMB     93       PPPE     O32      OBL     -0.630000       15.9994           0
     50459 MEMB     93       PPPE     C32      CTL2    -0.220000       12.0110           0
     50460 MEMB     93       PPPE     H2X      HAL2     0.900000E-01   1.00800           0
     50461 MEMB     93       PPPE     H2Y      HAL2     0.900000E-01   1.00800           0
     50462 MEMB     93       PPPE     C23      CTL2    -0.180000       12.0110           0
     50463 MEMB     93       PPPE     H3R      HAL2     0.900000E-01   1.00800           0
     50464 MEMB     93       PPPE     H3S      HAL2     0.900000E-01   1.00800           0
     50465 MEMB     93       PPPE     C24      CTL2    -0.180000       12.0110           0
     50466 MEMB     93       PPPE     H4R      HAL2     0.900000E-01   1.00800           0
     50467 MEMB     93       PPPE     H4S      HAL2     0.900000E-01   1.00800           0
     50468 MEMB     93       PPPE     C25      CTL2    -0.180000       12.0110           0
     50469 MEMB     93       PPPE     H5R      HAL2     0.900000E-01   1.00800           0
     50470 MEMB     93       PPPE     H5S      HAL2     0.900000E-01   1.00800           0
     50471 MEMB     93       PPPE     C26      CTL2    -0.180000       12.0110           0
     50472 MEMB     93       PPPE     H6R      HAL2     0.900000E-01   1.00800           0
     50473 MEMB     93       PPPE     H6S      HAL2     0.900000E-01   1.00800           0
     50474 MEMB     93       PPPE     C27      CTL2    -0.180000       12.0110           0
     50475 MEMB     93       PPPE     H7R      HAL2     0.900000E-01   1.00800           0
     50476 MEMB     93       PPPE     H7S      HAL2     0.900000E-01   1.00800           0
     50477 MEMB     93       PPPE     C28      CTL2    -0.180000       12.0110           0
     50478 MEMB     93       PPPE     H8R      HAL2     0.900000E-01   1.00800           0
     50479 MEMB     93       PPPE     H8S      HAL2     0.900000E-01   1.00800           0
     50480 MEMB     93       PPPE     C29      CEL1    -0.150000       12.0110           0
     50481 MEMB     93       PPPE     H91      HEL1     0.150000       1.00800           0
     50482 MEMB     93       PPPE     C210     CEL1    -0.150000       12.0110           0
     50483 MEMB     93       PPPE     H101     HEL1     0.150000       1.00800           0
     50484 MEMB     93       PPPE     C211     CTL2    -0.180000       12.0110           0
     50485 MEMB     93       PPPE     H11R     HAL2     0.900000E-01   1.00800           0
     50486 MEMB     93       PPPE     H11S     HAL2     0.900000E-01   1.00800           0
     50487 MEMB     93       PPPE     C212     CTL2    -0.180000       12.0110           0
     50488 MEMB     93       PPPE     H12R     HAL2     0.900000E-01   1.00800           0
     50489 MEMB     93       PPPE     H12S     HAL2     0.900000E-01   1.00800           0
     50490 MEMB     93       PPPE     C213     CTL2    -0.180000       12.0110           0
     50491 MEMB     93       PPPE     H13R     HAL2     0.900000E-01   1.00800           0
     50492 MEMB     93       PPPE     H13S     HAL2     0.900000E-01   1.00800           0
     50493 MEMB     93       PPPE     C214     CTL2    -0.180000       12.0110           0
     50494 MEMB     93       PPPE     H14R     HAL2     0.900000E-01   1.00800           0
     50495 MEMB     93       PPPE     H14S     HAL2     0.900000E-01   1.00800           0
     50496 MEMB     93       PPPE     C215     CTL2    -0.180000       12.0110           0
     50497 MEMB     93       PPPE     H15R     HAL2     0.900000E-01   1.00800           0
     50498 MEMB     93       PPPE     H15S     HAL2     0.900000E-01   1.00800           0
     50499 MEMB     93       PPPE     C216     CTL3    -0.270000       12.0110           0
     50500 MEMB     93       PPPE     H16R     HAL3     0.900000E-01   1.00800           0
     50501 MEMB     93       PPPE     H16S     HAL3     0.900000E-01   1.00800           0
     50502 MEMB     93       PPPE     H16T     HAL3     0.900000E-01   1.00800           0
     50503 MEMB     93       PPPE     C33      CTL2    -0.180000       12.0110           0
     50504 MEMB     93       PPPE     H3X      HAL2     0.900000E-01   1.00800           0
     50505 MEMB     93       PPPE     H3Y      HAL2     0.900000E-01   1.00800           0
     50506 MEMB     93       PPPE     C34      CTL2    -0.180000       12.0110           0
     50507 MEMB     93       PPPE     H4X      HAL2     0.900000E-01   1.00800           0
     50508 MEMB     93       PPPE     H4Y      HAL2     0.900000E-01   1.00800           0
     50509 MEMB     93       PPPE     C35      CTL2    -0.180000       12.0110           0
     50510 MEMB     93       PPPE     H5X      HAL2     0.900000E-01   1.00800           0
     50511 MEMB     93       PPPE     H5Y      HAL2     0.900000E-01   1.00800           0
     50512 MEMB     93       PPPE     C36      CTL2    -0.180000       12.0110           0
     50513 MEMB     93       PPPE     H6X      HAL2     0.900000E-01   1.00800           0
     50514 MEMB     93       PPPE     H6Y      HAL2     0.900000E-01   1.00800           0
     50515 MEMB     93       PPPE     C37      CTL2    -0.180000       12.0110           0
     50516 MEMB     93       PPPE     H7X      HAL2     0.900000E-01   1.00800           0
     50517 MEMB     93       PPPE     H7Y      HAL2     0.900000E-01   1.00800           0
     50518 MEMB     93       PPPE     C38      CTL2    -0.180000       12.0110           0
     50519 MEMB     93       PPPE     H8X      HAL2     0.900000E-01   1.00800           0
     50520 MEMB     93       PPPE     H8Y      HAL2     0.900000E-01   1.00800           0
     50521 MEMB     93       PPPE     C39      CTL2    -0.180000       12.0110           0
     50522 MEMB     93       PPPE     H9X      HAL2     0.900000E-01   1.00800           0
     50523 MEMB     93       PPPE     H9Y      HAL2     0.900000E-01   1.00800           0
     50524 MEMB     93       PPPE     C310     CTL2    -0.180000       12.0110           0
     50525 MEMB     93       PPPE     H10X     HAL2     0.900000E-01   1.00800           0
     50526 MEMB     93       PPPE     H10Y     HAL2     0.900000E-01   1.00800           0
     50527 MEMB     93       PPPE     C311     CTL2    -0.180000       12.0110           0
     50528 MEMB     93       PPPE     H11X     HAL2     0.900000E-01   1.00800           0
     50529 MEMB     93       PPPE     H11Y     HAL2     0.900000E-01   1.00800           0
     50530 MEMB     93       PPPE     C312     CTL2    -0.180000       12.0110           0
     50531 MEMB     93       PPPE     H12X     HAL2     0.900000E-01   1.00800           0
     50532 MEMB     93       PPPE     H12Y     HAL2     0.900000E-01   1.00800           0
     50533 MEMB     93       PPPE     C313     CTL2    -0.180000       12.0110           0
     50534 MEMB     93       PPPE     H13X     HAL2     0.900000E-01   1.00800           0
     50535 MEMB     93       PPPE     H13Y     HAL2     0.900000E-01   1.00800           0
     50536 MEMB     93       PPPE     C314     CTL2    -0.180000       12.0110           0
     50537 MEMB     93       PPPE     H14X     HAL2     0.900000E-01   1.00800           0
     50538 MEMB     93       PPPE     H14Y     HAL2     0.900000E-01   1.00800           0
     50539 MEMB     93       PPPE     C315     CTL2    -0.180000       12.0110           0
     50540 MEMB     93       PPPE     H15X     HAL2     0.900000E-01   1.00800           0
     50541 MEMB     93       PPPE     H15Y     HAL2     0.900000E-01   1.00800           0
     50542 MEMB     93       PPPE     C316     CTL3    -0.270000       12.0110           0
     50543 MEMB     93       PPPE     H16X     HAL3     0.900000E-01   1.00800           0
     50544 MEMB     93       PPPE     H16Y     HAL3     0.900000E-01   1.00800           0
     50545 MEMB     93       PPPE     H16Z     HAL3     0.900000E-01   1.00800           0
     50546 MEMB     94       PPPE     N        NH3L    -0.300000       14.0070           0
     50547 MEMB     94       PPPE     HN1      HCL      0.330000       1.00800           0
     50548 MEMB     94       PPPE     HN2      HCL      0.330000       1.00800           0
     50549 MEMB     94       PPPE     HN3      HCL      0.330000       1.00800           0
     50550 MEMB     94       PPPE     C12      CTL2     0.130000       12.0110           0
     50551 MEMB     94       PPPE     H12A     HAL2     0.900000E-01   1.00800           0
     50552 MEMB     94       PPPE     H12B     HAL2     0.900000E-01   1.00800           0
     50553 MEMB     94       PPPE     C11      CTL2    -0.800000E-01   12.0110           0
     50554 MEMB     94       PPPE     H11A     HAL2     0.900000E-01   1.00800           0
     50555 MEMB     94       PPPE     H11B     HAL2     0.900000E-01   1.00800           0
     50556 MEMB     94       PPPE     P        PL        1.50000       30.9740           0
     50557 MEMB     94       PPPE     O13      O2L     -0.780000       15.9994           0
     50558 MEMB     94       PPPE     O14      O2L     -0.780000       15.9994           0
     50559 MEMB     94       PPPE     O11      OSLP    -0.570000       15.9994           0
     50560 MEMB     94       PPPE     O12      OSLP    -0.570000       15.9994           0
     50561 MEMB     94       PPPE     C1       CTL2    -0.800000E-01   12.0110           0
     50562 MEMB     94       PPPE     HA       HAL2     0.900000E-01   1.00800           0
     50563 MEMB     94       PPPE     HB       HAL2     0.900000E-01   1.00800           0
     50564 MEMB     94       PPPE     C2       CTL1     0.170000       12.0110           0
     50565 MEMB     94       PPPE     HS       HAL1     0.900000E-01   1.00800           0
     50566 MEMB     94       PPPE     O21      OSL     -0.490000       15.9994           0
     50567 MEMB     94       PPPE     C21      CL       0.900000       12.0110           0
     50568 MEMB     94       PPPE     O22      OBL     -0.630000       15.9994           0
     50569 MEMB     94       PPPE     C22      CTL2    -0.220000       12.0110           0
     50570 MEMB     94       PPPE     H2R      HAL2     0.900000E-01   1.00800           0
     50571 MEMB     94       PPPE     H2S      HAL2     0.900000E-01   1.00800           0
     50572 MEMB     94       PPPE     C3       CTL2     0.800000E-01   12.0110           0
     50573 MEMB     94       PPPE     HX       HAL2     0.900000E-01   1.00800           0
     50574 MEMB     94       PPPE     HY       HAL2     0.900000E-01   1.00800           0
     50575 MEMB     94       PPPE     O31      OSL     -0.490000       15.9994           0
     50576 MEMB     94       PPPE     C31      CL       0.900000       12.0110           0
     50577 MEMB     94       PPPE     O32      OBL     -0.630000       15.9994           0
     50578 MEMB     94       PPPE     C32      CTL2    -0.220000       12.0110           0
     50579 MEMB     94       PPPE     H2X      HAL2     0.900000E-01   1.00800           0
     50580 MEMB     94       PPPE     H2Y      HAL2     0.900000E-01   1.00800           0
     50581 MEMB     94       PPPE     C23      CTL2    -0.180000       12.0110           0
     50582 MEMB     94       PPPE     H3R      HAL2     0.900000E-01   1.00800           0
     50583 MEMB     94       PPPE     H3S      HAL2     0.900000E-01   1.00800           0
     50584 MEMB     94       PPPE     C24      CTL2    -0.180000       12.0110           0
     50585 MEMB     94       PPPE     H4R      HAL2     0.900000E-01   1.00800           0
     50586 MEMB     94       PPPE     H4S      HAL2     0.900000E-01   1.00800           0
     50587 MEMB     94       PPPE     C25      CTL2    -0.180000       12.0110           0
     50588 MEMB     94       PPPE     H5R      HAL2     0.900000E-01   1.00800           0
     50589 MEMB     94       PPPE     H5S      HAL2     0.900000E-01   1.00800           0
     50590 MEMB     94       PPPE     C26      CTL2    -0.180000       12.0110           0
     50591 MEMB     94       PPPE     H6R      HAL2     0.900000E-01   1.00800           0
     50592 MEMB     94       PPPE     H6S      HAL2     0.900000E-01   1.00800           0
     50593 MEMB     94       PPPE     C27      CTL2    -0.180000       12.0110           0
     50594 MEMB     94       PPPE     H7R      HAL2     0.900000E-01   1.00800           0
     50595 MEMB     94       PPPE     H7S      HAL2     0.900000E-01   1.00800           0
     50596 MEMB     94       PPPE     C28      CTL2    -0.180000       12.0110           0
     50597 MEMB     94       PPPE     H8R      HAL2     0.900000E-01   1.00800           0
     50598 MEMB     94       PPPE     H8S      HAL2     0.900000E-01   1.00800           0
     50599 MEMB     94       PPPE     C29      CEL1    -0.150000       12.0110           0
     50600 MEMB     94       PPPE     H91      HEL1     0.150000       1.00800           0
     50601 MEMB     94       PPPE     C210     CEL1    -0.150000       12.0110           0
     50602 MEMB     94       PPPE     H101     HEL1     0.150000       1.00800           0
     50603 MEMB     94       PPPE     C211     CTL2    -0.180000       12.0110           0
     50604 MEMB     94       PPPE     H11R     HAL2     0.900000E-01   1.00800           0
     50605 MEMB     94       PPPE     H11S     HAL2     0.900000E-01   1.00800           0
     50606 MEMB     94       PPPE     C212     CTL2    -0.180000       12.0110           0
     50607 MEMB     94       PPPE     H12R     HAL2     0.900000E-01   1.00800           0
     50608 MEMB     94       PPPE     H12S     HAL2     0.900000E-01   1.00800           0
     50609 MEMB     94       PPPE     C213     CTL2    -0.180000       12.0110           0
     50610 MEMB     94       PPPE     H13R     HAL2     0.900000E-01   1.00800           0
     50611 MEMB     94       PPPE     H13S     HAL2     0.900000E-01   1.00800           0
     50612 MEMB     94       PPPE     C214     CTL2    -0.180000       12.0110           0
     50613 MEMB     94       PPPE     H14R     HAL2     0.900000E-01   1.00800           0
     50614 MEMB     94       PPPE     H14S     HAL2     0.900000E-01   1.00800           0
     50615 MEMB     94       PPPE     C215     CTL2    -0.180000       12.0110           0
     50616 MEMB     94       PPPE     H15R     HAL2     0.900000E-01   1.00800           0
     50617 MEMB     94       PPPE     H15S     HAL2     0.900000E-01   1.00800           0
     50618 MEMB     94       PPPE     C216     CTL3    -0.270000       12.0110           0
     50619 MEMB     94       PPPE     H16R     HAL3     0.900000E-01   1.00800           0
     50620 MEMB     94       PPPE     H16S     HAL3     0.900000E-01   1.00800           0
     50621 MEMB     94       PPPE     H16T     HAL3     0.900000E-01   1.00800           0
     50622 MEMB     94       PPPE     C33      CTL2    -0.180000       12.0110           0
     50623 MEMB     94       PPPE     H3X      HAL2     0.900000E-01   1.00800           0
     50624 MEMB     94       PPPE     H3Y      HAL2     0.900000E-01   1.00800           0
     50625 MEMB     94       PPPE     C34      CTL2    -0.180000       12.0110           0
     50626 MEMB     94       PPPE     H4X      HAL2     0.900000E-01   1.00800           0
     50627 MEMB     94       PPPE     H4Y      HAL2     0.900000E-01   1.00800           0
     50628 MEMB     94       PPPE     C35      CTL2    -0.180000       12.0110           0
     50629 MEMB     94       PPPE     H5X      HAL2     0.900000E-01   1.00800           0
     50630 MEMB     94       PPPE     H5Y      HAL2     0.900000E-01   1.00800           0
     50631 MEMB     94       PPPE     C36      CTL2    -0.180000       12.0110           0
     50632 MEMB     94       PPPE     H6X      HAL2     0.900000E-01   1.00800           0
     50633 MEMB     94       PPPE     H6Y      HAL2     0.900000E-01   1.00800           0
     50634 MEMB     94       PPPE     C37      CTL2    -0.180000       12.0110           0
     50635 MEMB     94       PPPE     H7X      HAL2     0.900000E-01   1.00800           0
     50636 MEMB     94       PPPE     H7Y      HAL2     0.900000E-01   1.00800           0
     50637 MEMB     94       PPPE     C38      CTL2    -0.180000       12.0110           0
     50638 MEMB     94       PPPE     H8X      HAL2     0.900000E-01   1.00800           0
     50639 MEMB     94       PPPE     H8Y      HAL2     0.900000E-01   1.00800           0
     50640 MEMB     94       PPPE     C39      CTL2    -0.180000       12.0110           0
     50641 MEMB     94       PPPE     H9X      HAL2     0.900000E-01   1.00800           0
     50642 MEMB     94       PPPE     H9Y      HAL2     0.900000E-01   1.00800           0
     50643 MEMB     94       PPPE     C310     CTL2    -0.180000       12.0110           0
     50644 MEMB     94       PPPE     H10X     HAL2     0.900000E-01   1.00800           0
     50645 MEMB     94       PPPE     H10Y     HAL2     0.900000E-01   1.00800           0
     50646 MEMB     94       PPPE     C311     CTL2    -0.180000       12.0110           0
     50647 MEMB     94       PPPE     H11X     HAL2     0.900000E-01   1.00800           0
     50648 MEMB     94       PPPE     H11Y     HAL2     0.900000E-01   1.00800           0
     50649 MEMB     94       PPPE     C312     CTL2    -0.180000       12.0110           0
     50650 MEMB     94       PPPE     H12X     HAL2     0.900000E-01   1.00800           0
     50651 MEMB     94       PPPE     H12Y     HAL2     0.900000E-01   1.00800           0
     50652 MEMB     94       PPPE     C313     CTL2    -0.180000       12.0110           0
     50653 MEMB     94       PPPE     H13X     HAL2     0.900000E-01   1.00800           0
     50654 MEMB     94       PPPE     H13Y     HAL2     0.900000E-01   1.00800           0
     50655 MEMB     94       PPPE     C314     CTL2    -0.180000       12.0110           0
     50656 MEMB     94       PPPE     H14X     HAL2     0.900000E-01   1.00800           0
     50657 MEMB     94       PPPE     H14Y     HAL2     0.900000E-01   1.00800           0
     50658 MEMB     94       PPPE     C315     CTL2    -0.180000       12.0110           0
     50659 MEMB     94       PPPE     H15X     HAL2     0.900000E-01   1.00800           0
     50660 MEMB     94       PPPE     H15Y     HAL2     0.900000E-01   1.00800           0
     50661 MEMB     94       PPPE     C316     CTL3    -0.270000       12.0110           0
     50662 MEMB     94       PPPE     H16X     HAL3     0.900000E-01   1.00800           0
     50663 MEMB     94       PPPE     H16Y     HAL3     0.900000E-01   1.00800           0
     50664 MEMB     94       PPPE     H16Z     HAL3     0.900000E-01   1.00800           0
     50665 MEMB     95       PPPE     N        NH3L    -0.300000       14.0070           0
     50666 MEMB     95       PPPE     HN1      HCL      0.330000       1.00800           0
     50667 MEMB     95       PPPE     HN2      HCL      0.330000       1.00800           0
     50668 MEMB     95       PPPE     HN3      HCL      0.330000       1.00800           0
     50669 MEMB     95       PPPE     C12      CTL2     0.130000       12.0110           0
     50670 MEMB     95       PPPE     H12A     HAL2     0.900000E-01   1.00800           0
     50671 MEMB     95       PPPE     H12B     HAL2     0.900000E-01   1.00800           0
     50672 MEMB     95       PPPE     C11      CTL2    -0.800000E-01   12.0110           0
     50673 MEMB     95       PPPE     H11A     HAL2     0.900000E-01   1.00800           0
     50674 MEMB     95       PPPE     H11B     HAL2     0.900000E-01   1.00800           0
     50675 MEMB     95       PPPE     P        PL        1.50000       30.9740           0
     50676 MEMB     95       PPPE     O13      O2L     -0.780000       15.9994           0
     50677 MEMB     95       PPPE     O14      O2L     -0.780000       15.9994           0
     50678 MEMB     95       PPPE     O11      OSLP    -0.570000       15.9994           0
     50679 MEMB     95       PPPE     O12      OSLP    -0.570000       15.9994           0
     50680 MEMB     95       PPPE     C1       CTL2    -0.800000E-01   12.0110           0
     50681 MEMB     95       PPPE     HA       HAL2     0.900000E-01   1.00800           0
     50682 MEMB     95       PPPE     HB       HAL2     0.900000E-01   1.00800           0
     50683 MEMB     95       PPPE     C2       CTL1     0.170000       12.0110           0
     50684 MEMB     95       PPPE     HS       HAL1     0.900000E-01   1.00800           0
     50685 MEMB     95       PPPE     O21      OSL     -0.490000       15.9994           0
     50686 MEMB     95       PPPE     C21      CL       0.900000       12.0110           0
     50687 MEMB     95       PPPE     O22      OBL     -0.630000       15.9994           0
     50688 MEMB     95       PPPE     C22      CTL2    -0.220000       12.0110           0
     50689 MEMB     95       PPPE     H2R      HAL2     0.900000E-01   1.00800           0
     50690 MEMB     95       PPPE     H2S      HAL2     0.900000E-01   1.00800           0
     50691 MEMB     95       PPPE     C3       CTL2     0.800000E-01   12.0110           0
     50692 MEMB     95       PPPE     HX       HAL2     0.900000E-01   1.00800           0
     50693 MEMB     95       PPPE     HY       HAL2     0.900000E-01   1.00800           0
     50694 MEMB     95       PPPE     O31      OSL     -0.490000       15.9994           0
     50695 MEMB     95       PPPE     C31      CL       0.900000       12.0110           0
     50696 MEMB     95       PPPE     O32      OBL     -0.630000       15.9994           0
     50697 MEMB     95       PPPE     C32      CTL2    -0.220000       12.0110           0
     50698 MEMB     95       PPPE     H2X      HAL2     0.900000E-01   1.00800           0
     50699 MEMB     95       PPPE     H2Y      HAL2     0.900000E-01   1.00800           0
     50700 MEMB     95       PPPE     C23      CTL2    -0.180000       12.0110           0
     50701 MEMB     95       PPPE     H3R      HAL2     0.900000E-01   1.00800           0
     50702 MEMB     95       PPPE     H3S      HAL2     0.900000E-01   1.00800           0
     50703 MEMB     95       PPPE     C24      CTL2    -0.180000       12.0110           0
     50704 MEMB     95       PPPE     H4R      HAL2     0.900000E-01   1.00800           0
     50705 MEMB     95       PPPE     H4S      HAL2     0.900000E-01   1.00800           0
     50706 MEMB     95       PPPE     C25      CTL2    -0.180000       12.0110           0
     50707 MEMB     95       PPPE     H5R      HAL2     0.900000E-01   1.00800           0
     50708 MEMB     95       PPPE     H5S      HAL2     0.900000E-01   1.00800           0
     50709 MEMB     95       PPPE     C26      CTL2    -0.180000       12.0110           0
     50710 MEMB     95       PPPE     H6R      HAL2     0.900000E-01   1.00800           0
     50711 MEMB     95       PPPE     H6S      HAL2     0.900000E-01   1.00800           0
     50712 MEMB     95       PPPE     C27      CTL2    -0.180000       12.0110           0
     50713 MEMB     95       PPPE     H7R      HAL2     0.900000E-01   1.00800           0
     50714 MEMB     95       PPPE     H7S      HAL2     0.900000E-01   1.00800           0
     50715 MEMB     95       PPPE     C28      CTL2    -0.180000       12.0110           0
     50716 MEMB     95       PPPE     H8R      HAL2     0.900000E-01   1.00800           0
     50717 MEMB     95       PPPE     H8S      HAL2     0.900000E-01   1.00800           0
     50718 MEMB     95       PPPE     C29      CEL1    -0.150000       12.0110           0
     50719 MEMB     95       PPPE     H91      HEL1     0.150000       1.00800           0
     50720 MEMB     95       PPPE     C210     CEL1    -0.150000       12.0110           0
     50721 MEMB     95       PPPE     H101     HEL1     0.150000       1.00800           0
     50722 MEMB     95       PPPE     C211     CTL2    -0.180000       12.0110           0
     50723 MEMB     95       PPPE     H11R     HAL2     0.900000E-01   1.00800           0
     50724 MEMB     95       PPPE     H11S     HAL2     0.900000E-01   1.00800           0
     50725 MEMB     95       PPPE     C212     CTL2    -0.180000       12.0110           0
     50726 MEMB     95       PPPE     H12R     HAL2     0.900000E-01   1.00800           0
     50727 MEMB     95       PPPE     H12S     HAL2     0.900000E-01   1.00800           0
     50728 MEMB     95       PPPE     C213     CTL2    -0.180000       12.0110           0
     50729 MEMB     95       PPPE     H13R     HAL2     0.900000E-01   1.00800           0
     50730 MEMB     95       PPPE     H13S     HAL2     0.900000E-01   1.00800           0
     50731 MEMB     95       PPPE     C214     CTL2    -0.180000       12.0110           0
     50732 MEMB     95       PPPE     H14R     HAL2     0.900000E-01   1.00800           0
     50733 MEMB     95       PPPE     H14S     HAL2     0.900000E-01   1.00800           0
     50734 MEMB     95       PPPE     C215     CTL2    -0.180000       12.0110           0
     50735 MEMB     95       PPPE     H15R     HAL2     0.900000E-01   1.00800           0
     50736 MEMB     95       PPPE     H15S     HAL2     0.900000E-01   1.00800           0
     50737 MEMB     95       PPPE     C216     CTL3    -0.270000       12.0110           0
     50738 MEMB     95       PPPE     H16R     HAL3     0.900000E-01   1.00800           0
     50739 MEMB     95       PPPE     H16S     HAL3     0.900000E-01   1.00800           0
     50740 MEMB     95       PPPE     H16T     HAL3     0.900000E-01   1.00800           0
     50741 MEMB     95       PPPE     C33      CTL2    -0.180000       12.0110           0
     50742 MEMB     95       PPPE     H3X      HAL2     0.900000E-01   1.00800           0
     50743 MEMB     95       PPPE     H3Y      HAL2     0.900000E-01   1.00800           0
     50744 MEMB     95       PPPE     C34      CTL2    -0.180000       12.0110           0
     50745 MEMB     95       PPPE     H4X      HAL2     0.900000E-01   1.00800           0
     50746 MEMB     95       PPPE     H4Y      HAL2     0.900000E-01   1.00800           0
     50747 MEMB     95       PPPE     C35      CTL2    -0.180000       12.0110           0
     50748 MEMB     95       PPPE     H5X      HAL2     0.900000E-01   1.00800           0
     50749 MEMB     95       PPPE     H5Y      HAL2     0.900000E-01   1.00800           0
     50750 MEMB     95       PPPE     C36      CTL2    -0.180000       12.0110           0
     50751 MEMB     95       PPPE     H6X      HAL2     0.900000E-01   1.00800           0
     50752 MEMB     95       PPPE     H6Y      HAL2     0.900000E-01   1.00800           0
     50753 MEMB     95       PPPE     C37      CTL2    -0.180000       12.0110           0
     50754 MEMB     95       PPPE     H7X      HAL2     0.900000E-01   1.00800           0
     50755 MEMB     95       PPPE     H7Y      HAL2     0.900000E-01   1.00800           0
     50756 MEMB     95       PPPE     C38      CTL2    -0.180000       12.0110           0
     50757 MEMB     95       PPPE     H8X      HAL2     0.900000E-01   1.00800           0
     50758 MEMB     95       PPPE     H8Y      HAL2     0.900000E-01   1.00800           0
     50759 MEMB     95       PPPE     C39      CTL2    -0.180000       12.0110           0
     50760 MEMB     95       PPPE     H9X      HAL2     0.900000E-01   1.00800           0
     50761 MEMB     95       PPPE     H9Y      HAL2     0.900000E-01   1.00800           0
     50762 MEMB     95       PPPE     C310     CTL2    -0.180000       12.0110           0
     50763 MEMB     95       PPPE     H10X     HAL2     0.900000E-01   1.00800           0
     50764 MEMB     95       PPPE     H10Y     HAL2     0.900000E-01   1.00800           0
     50765 MEMB     95       PPPE     C311     CTL2    -0.180000       12.0110           0
     50766 MEMB     95       PPPE     H11X     HAL2     0.900000E-01   1.00800           0
     50767 MEMB     95       PPPE     H11Y     HAL2     0.900000E-01   1.00800           0
     50768 MEMB     95       PPPE     C312     CTL2    -0.180000       12.0110           0
     50769 MEMB     95       PPPE     H12X     HAL2     0.900000E-01   1.00800           0
     50770 MEMB     95       PPPE     H12Y     HAL2     0.900000E-01   1.00800           0
     50771 MEMB     95       PPPE     C313     CTL2    -0.180000       12.0110           0
     50772 MEMB     95       PPPE     H13X     HAL2     0.900000E-01   1.00800           0
     50773 MEMB     95       PPPE     H13Y     HAL2     0.900000E-01   1.00800           0
     50774 MEMB     95       PPPE     C314     CTL2    -0.180000       12.0110           0
     50775 MEMB     95       PPPE     H14X     HAL2     0.900000E-01   1.00800           0
     50776 MEMB     95       PPPE     H14Y     HAL2     0.900000E-01   1.00800           0
     50777 MEMB     95       PPPE     C315     CTL2    -0.180000       12.0110           0
     50778 MEMB     95       PPPE     H15X     HAL2     0.900000E-01   1.00800           0
     50779 MEMB     95       PPPE     H15Y     HAL2     0.900000E-01   1.00800           0
     50780 MEMB     95       PPPE     C316     CTL3    -0.270000       12.0110           0
     50781 MEMB     95       PPPE     H16X     HAL3     0.900000E-01   1.00800           0
     50782 MEMB     95       PPPE     H16Y     HAL3     0.900000E-01   1.00800           0
     50783 MEMB     95       PPPE     H16Z     HAL3     0.900000E-01   1.00800           0
     50784 MEMB     96       PPPE     N        NH3L    -0.300000       14.0070           0
     50785 MEMB     96       PPPE     HN1      HCL      0.330000       1.00800           0
     50786 MEMB     96       PPPE     HN2      HCL      0.330000       1.00800           0
     50787 MEMB     96       PPPE     HN3      HCL      0.330000       1.00800           0
     50788 MEMB     96       PPPE     C12      CTL2     0.130000       12.0110           0
     50789 MEMB     96       PPPE     H12A     HAL2     0.900000E-01   1.00800           0
     50790 MEMB     96       PPPE     H12B     HAL2     0.900000E-01   1.00800           0
     50791 MEMB     96       PPPE     C11      CTL2    -0.800000E-01   12.0110           0
     50792 MEMB     96       PPPE     H11A     HAL2     0.900000E-01   1.00800           0
     50793 MEMB     96       PPPE     H11B     HAL2     0.900000E-01   1.00800           0
     50794 MEMB     96       PPPE     P        PL        1.50000       30.9740           0
     50795 MEMB     96       PPPE     O13      O2L     -0.780000       15.9994           0
     50796 MEMB     96       PPPE     O14      O2L     -0.780000       15.9994           0
     50797 MEMB     96       PPPE     O11      OSLP    -0.570000       15.9994           0
     50798 MEMB     96       PPPE     O12      OSLP    -0.570000       15.9994           0
     50799 MEMB     96       PPPE     C1       CTL2    -0.800000E-01   12.0110           0
     50800 MEMB     96       PPPE     HA       HAL2     0.900000E-01   1.00800           0
     50801 MEMB     96       PPPE     HB       HAL2     0.900000E-01   1.00800           0
     50802 MEMB     96       PPPE     C2       CTL1     0.170000       12.0110           0
     50803 MEMB     96       PPPE     HS       HAL1     0.900000E-01   1.00800           0
     50804 MEMB     96       PPPE     O21      OSL     -0.490000       15.9994           0
     50805 MEMB     96       PPPE     C21      CL       0.900000       12.0110           0
     50806 MEMB     96       PPPE     O22      OBL     -0.630000       15.9994           0
     50807 MEMB     96       PPPE     C22      CTL2    -0.220000       12.0110           0
     50808 MEMB     96       PPPE     H2R      HAL2     0.900000E-01   1.00800           0
     50809 MEMB     96       PPPE     H2S      HAL2     0.900000E-01   1.00800           0
     50810 MEMB     96       PPPE     C3       CTL2     0.800000E-01   12.0110           0
     50811 MEMB     96       PPPE     HX       HAL2     0.900000E-01   1.00800           0
     50812 MEMB     96       PPPE     HY       HAL2     0.900000E-01   1.00800           0
     50813 MEMB     96       PPPE     O31      OSL     -0.490000       15.9994           0
     50814 MEMB     96       PPPE     C31      CL       0.900000       12.0110           0
     50815 MEMB     96       PPPE     O32      OBL     -0.630000       15.9994           0
     50816 MEMB     96       PPPE     C32      CTL2    -0.220000       12.0110           0
     50817 MEMB     96       PPPE     H2X      HAL2     0.900000E-01   1.00800           0
     50818 MEMB     96       PPPE     H2Y      HAL2     0.900000E-01   1.00800           0
     50819 MEMB     96       PPPE     C23      CTL2    -0.180000       12.0110           0
     50820 MEMB     96       PPPE     H3R      HAL2     0.900000E-01   1.00800           0
     50821 MEMB     96       PPPE     H3S      HAL2     0.900000E-01   1.00800           0
     50822 MEMB     96       PPPE     C24      CTL2    -0.180000       12.0110           0
     50823 MEMB     96       PPPE     H4R      HAL2     0.900000E-01   1.00800           0
     50824 MEMB     96       PPPE     H4S      HAL2     0.900000E-01   1.00800           0
     50825 MEMB     96       PPPE     C25      CTL2    -0.180000       12.0110           0
     50826 MEMB     96       PPPE     H5R      HAL2     0.900000E-01   1.00800           0
     50827 MEMB     96       PPPE     H5S      HAL2     0.900000E-01   1.00800           0
     50828 MEMB     96       PPPE     C26      CTL2    -0.180000       12.0110           0
     50829 MEMB     96       PPPE     H6R      HAL2     0.900000E-01   1.00800           0
     50830 MEMB     96       PPPE     H6S      HAL2     0.900000E-01   1.00800           0
     50831 MEMB     96       PPPE     C27      CTL2    -0.180000       12.0110           0
     50832 MEMB     96       PPPE     H7R      HAL2     0.900000E-01   1.00800           0
     50833 MEMB     96       PPPE     H7S      HAL2     0.900000E-01   1.00800           0
     50834 MEMB     96       PPPE     C28      CTL2    -0.180000       12.0110           0
     50835 MEMB     96       PPPE     H8R      HAL2     0.900000E-01   1.00800           0
     50836 MEMB     96       PPPE     H8S      HAL2     0.900000E-01   1.00800           0
     50837 MEMB     96       PPPE     C29      CEL1    -0.150000       12.0110           0
     50838 MEMB     96       PPPE     H91      HEL1     0.150000       1.00800           0
     50839 MEMB     96       PPPE     C210     CEL1    -0.150000       12.0110           0
     50840 MEMB     96       PPPE     H101     HEL1     0.150000       1.00800           0
     50841 MEMB     96       PPPE     C211     CTL2    -0.180000       12.0110           0
     50842 MEMB     96       PPPE     H11R     HAL2     0.900000E-01   1.00800           0
     50843 MEMB     96       PPPE     H11S     HAL2     0.900000E-01   1.00800           0
     50844 MEMB     96       PPPE     C212     CTL2    -0.180000       12.0110           0
     50845 MEMB     96       PPPE     H12R     HAL2     0.900000E-01   1.00800           0
     50846 MEMB     96       PPPE     H12S     HAL2     0.900000E-01   1.00800           0
     50847 MEMB     96       PPPE     C213     CTL2    -0.180000       12.0110           0
     50848 MEMB     96       PPPE     H13R     HAL2     0.900000E-01   1.00800           0
     50849 MEMB     96       PPPE     H13S     HAL2     0.900000E-01   1.00800           0
     50850 MEMB     96       PPPE     C214     CTL2    -0.180000       12.0110           0
     50851 MEMB     96       PPPE     H14R     HAL2     0.900000E-01   1.00800           0
     50852 MEMB     96       PPPE     H14S     HAL2     0.900000E-01   1.00800           0
     50853 MEMB     96       PPPE     C215     CTL2    -0.180000       12.0110           0
     50854 MEMB     96       PPPE     H15R     HAL2     0.900000E-01   1.00800           0
     50855 MEMB     96       PPPE     H15S     HAL2     0.900000E-01   1.00800           0
     50856 MEMB     96       PPPE     C216     CTL3    -0.270000       12.0110           0
     50857 MEMB     96       PPPE     H16R     HAL3     0.900000E-01   1.00800           0
     50858 MEMB     96       PPPE     H16S     HAL3     0.900000E-01   1.00800           0
     50859 MEMB     96       PPPE     H16T     HAL3     0.900000E-01   1.00800           0
     50860 MEMB     96       PPPE     C33      CTL2    -0.180000       12.0110           0
     50861 MEMB     96       PPPE     H3X      HAL2     0.900000E-01   1.00800           0
     50862 MEMB     96       PPPE     H3Y      HAL2     0.900000E-01   1.00800           0
     50863 MEMB     96       PPPE     C34      CTL2    -0.180000       12.0110           0
     50864 MEMB     96       PPPE     H4X      HAL2     0.900000E-01   1.00800           0
     50865 MEMB     96       PPPE     H4Y      HAL2     0.900000E-01   1.00800           0
     50866 MEMB     96       PPPE     C35      CTL2    -0.180000       12.0110           0
     50867 MEMB     96       PPPE     H5X      HAL2     0.900000E-01   1.00800           0
     50868 MEMB     96       PPPE     H5Y      HAL2     0.900000E-01   1.00800           0
     50869 MEMB     96       PPPE     C36      CTL2    -0.180000       12.0110           0
     50870 MEMB     96       PPPE     H6X      HAL2     0.900000E-01   1.00800           0
     50871 MEMB     96       PPPE     H6Y      HAL2     0.900000E-01   1.00800           0
     50872 MEMB     96       PPPE     C37      CTL2    -0.180000       12.0110           0
     50873 MEMB     96       PPPE     H7X      HAL2     0.900000E-01   1.00800           0
     50874 MEMB     96       PPPE     H7Y      HAL2     0.900000E-01   1.00800           0
     50875 MEMB     96       PPPE     C38      CTL2    -0.180000       12.0110           0
     50876 MEMB     96       PPPE     H8X      HAL2     0.900000E-01   1.00800           0
     50877 MEMB     96       PPPE     H8Y      HAL2     0.900000E-01   1.00800           0
     50878 MEMB     96       PPPE     C39      CTL2    -0.180000       12.0110           0
     50879 MEMB     96       PPPE     H9X      HAL2     0.900000E-01   1.00800           0
     50880 MEMB     96       PPPE     H9Y      HAL2     0.900000E-01   1.00800           0
     50881 MEMB     96       PPPE     C310     CTL2    -0.180000       12.0110           0
     50882 MEMB     96       PPPE     H10X     HAL2     0.900000E-01   1.00800           0
     50883 MEMB     96       PPPE     H10Y     HAL2     0.900000E-01   1.00800           0
     50884 MEMB     96       PPPE     C311     CTL2    -0.180000       12.0110           0
     50885 MEMB     96       PPPE     H11X     HAL2     0.900000E-01   1.00800           0
     50886 MEMB     96       PPPE     H11Y     HAL2     0.900000E-01   1.00800           0
     50887 MEMB     96       PPPE     C312     CTL2    -0.180000       12.0110           0
     50888 MEMB     96       PPPE     H12X     HAL2     0.900000E-01   1.00800           0
     50889 MEMB     96       PPPE     H12Y     HAL2     0.900000E-01   1.00800           0
     50890 MEMB     96       PPPE     C313     CTL2    -0.180000       12.0110           0
     50891 MEMB     96       PPPE     H13X     HAL2     0.900000E-01   1.00800           0
     50892 MEMB     96       PPPE     H13Y     HAL2     0.900000E-01   1.00800           0
     50893 MEMB     96       PPPE     C314     CTL2    -0.180000       12.0110           0
     50894 MEMB     96       PPPE     H14X     HAL2     0.900000E-01   1.00800           0
     50895 MEMB     96       PPPE     H14Y     HAL2     0.900000E-01   1.00800           0
     50896 MEMB     96       PPPE     C315     CTL2    -0.180000       12.0110           0
     50897 MEMB     96       PPPE     H15X     HAL2     0.900000E-01   1.00800           0
     50898 MEMB     96       PPPE     H15Y     HAL2     0.900000E-01   1.00800           0
     50899 MEMB     96       PPPE     C316     CTL3    -0.270000       12.0110           0
     50900 MEMB     96       PPPE     H16X     HAL3     0.900000E-01   1.00800           0
     50901 MEMB     96       PPPE     H16Y     HAL3     0.900000E-01   1.00800           0
     50902 MEMB     96       PPPE     H16Z     HAL3     0.900000E-01   1.00800           0
     50903 MEMB     97       PVPG     C13      CTL2     0.500000E-01   12.0110           0
     50904 MEMB     97       PVPG     H13A     HAL2     0.900000E-01   1.00800           0
     50905 MEMB     97       PVPG     H13B     HAL2     0.900000E-01   1.00800           0
     50906 MEMB     97       PVPG     OC3      OHL     -0.650000       15.9994           0
     50907 MEMB     97       PVPG     HO3      HOL      0.420000       1.00800           0
     50908 MEMB     97       PVPG     C12      CTL1     0.140000       12.0110           0
     50909 MEMB     97       PVPG     H12A     HAL1     0.900000E-01   1.00800           0
     50910 MEMB     97       PVPG     OC2      OHL     -0.650000       15.9994           0
     50911 MEMB     97       PVPG     HO2      HOL      0.420000       1.00800           0
     50912 MEMB     97       PVPG     C11      CTL2    -0.800000E-01   12.0110           0
     50913 MEMB     97       PVPG     H11A     HAL2     0.900000E-01   1.00800           0
     50914 MEMB     97       PVPG     H11B     HAL2     0.900000E-01   1.00800           0
     50915 MEMB     97       PVPG     P        PL        1.50000       30.9740           0
     50916 MEMB     97       PVPG     O13      O2L     -0.780000       15.9994           0
     50917 MEMB     97       PVPG     O14      O2L     -0.780000       15.9994           0
     50918 MEMB     97       PVPG     O12      OSLP    -0.570000       15.9994           0
     50919 MEMB     97       PVPG     O11      OSLP    -0.570000       15.9994           0
     50920 MEMB     97       PVPG     C1       CTL2    -0.800000E-01   12.0110           0
     50921 MEMB     97       PVPG     HA       HAL2     0.900000E-01   1.00800           0
     50922 MEMB     97       PVPG     HB       HAL2     0.900000E-01   1.00800           0
     50923 MEMB     97       PVPG     C2       CTL1     0.170000       12.0110           0
     50924 MEMB     97       PVPG     HS       HAL1     0.900000E-01   1.00800           0
     50925 MEMB     97       PVPG     O21      OSL     -0.490000       15.9994           0
     50926 MEMB     97       PVPG     C21      CL       0.900000       12.0110           0
     50927 MEMB     97       PVPG     O22      OBL     -0.630000       15.9994           0
     50928 MEMB     97       PVPG     C22      CTL2    -0.220000       12.0110           0
     50929 MEMB     97       PVPG     H2R      HAL2     0.900000E-01   1.00800           0
     50930 MEMB     97       PVPG     H2S      HAL2     0.900000E-01   1.00800           0
     50931 MEMB     97       PVPG     C3       CTL2     0.800000E-01   12.0110           0
     50932 MEMB     97       PVPG     HX       HAL2     0.900000E-01   1.00800           0
     50933 MEMB     97       PVPG     HY       HAL2     0.900000E-01   1.00800           0
     50934 MEMB     97       PVPG     O31      OSL     -0.490000       15.9994           0
     50935 MEMB     97       PVPG     C31      CL       0.900000       12.0110           0
     50936 MEMB     97       PVPG     O32      OBL     -0.630000       15.9994           0
     50937 MEMB     97       PVPG     C32      CTL2    -0.220000       12.0110           0
     50938 MEMB     97       PVPG     H2X      HAL2     0.900000E-01   1.00800           0
     50939 MEMB     97       PVPG     H2Y      HAL2     0.900000E-01   1.00800           0
     50940 MEMB     97       PVPG     C23      CTL2    -0.180000       12.0110           0
     50941 MEMB     97       PVPG     H3R      HAL2     0.900000E-01   1.00800           0
     50942 MEMB     97       PVPG     H3S      HAL2     0.900000E-01   1.00800           0
     50943 MEMB     97       PVPG     C24      CTL2    -0.180000       12.0110           0
     50944 MEMB     97       PVPG     H4R      HAL2     0.900000E-01   1.00800           0
     50945 MEMB     97       PVPG     H4S      HAL2     0.900000E-01   1.00800           0
     50946 MEMB     97       PVPG     C25      CTL2    -0.180000       12.0110           0
     50947 MEMB     97       PVPG     H5R      HAL2     0.900000E-01   1.00800           0
     50948 MEMB     97       PVPG     H5S      HAL2     0.900000E-01   1.00800           0
     50949 MEMB     97       PVPG     C26      CTL2    -0.180000       12.0110           0
     50950 MEMB     97       PVPG     H6R      HAL2     0.900000E-01   1.00800           0
     50951 MEMB     97       PVPG     H6S      HAL2     0.900000E-01   1.00800           0
     50952 MEMB     97       PVPG     C27      CTL2    -0.180000       12.0110           0
     50953 MEMB     97       PVPG     H7R      HAL2     0.900000E-01   1.00800           0
     50954 MEMB     97       PVPG     H7S      HAL2     0.900000E-01   1.00800           0
     50955 MEMB     97       PVPG     C28      CTL2    -0.180000       12.0110           0
     50956 MEMB     97       PVPG     H8R      HAL2     0.900000E-01   1.00800           0
     50957 MEMB     97       PVPG     H8S      HAL2     0.900000E-01   1.00800           0
     50958 MEMB     97       PVPG     C29      CTL2    -0.180000       12.0110           0
     50959 MEMB     97       PVPG     H9R      HAL2     0.900000E-01   1.00800           0
     50960 MEMB     97       PVPG     H9S      HAL2     0.900000E-01   1.00800           0
     50961 MEMB     97       PVPG     C210     CTL2    -0.180000       12.0110           0
     50962 MEMB     97       PVPG     H10R     HAL2     0.900000E-01   1.00800           0
     50963 MEMB     97       PVPG     H10S     HAL2     0.900000E-01   1.00800           0
     50964 MEMB     97       PVPG     C211     CEL1    -0.150000       12.0110           0
     50965 MEMB     97       PVPG     H111     HEL1     0.150000       1.00800           0
     50966 MEMB     97       PVPG     C212     CEL1    -0.150000       12.0110           0
     50967 MEMB     97       PVPG     H121     HEL1     0.150000       1.00800           0
     50968 MEMB     97       PVPG     C213     CTL2    -0.180000       12.0110           0
     50969 MEMB     97       PVPG     H13R     HAL2     0.900000E-01   1.00800           0
     50970 MEMB     97       PVPG     H13S     HAL2     0.900000E-01   1.00800           0
     50971 MEMB     97       PVPG     C214     CTL2    -0.180000       12.0110           0
     50972 MEMB     97       PVPG     H14R     HAL2     0.900000E-01   1.00800           0
     50973 MEMB     97       PVPG     H14S     HAL2     0.900000E-01   1.00800           0
     50974 MEMB     97       PVPG     C215     CTL2    -0.180000       12.0110           0
     50975 MEMB     97       PVPG     H15R     HAL2     0.900000E-01   1.00800           0
     50976 MEMB     97       PVPG     H15S     HAL2     0.900000E-01   1.00800           0
     50977 MEMB     97       PVPG     C216     CTL2    -0.180000       12.0110           0
     50978 MEMB     97       PVPG     H16R     HAL2     0.900000E-01   1.00800           0
     50979 MEMB     97       PVPG     H16S     HAL2     0.900000E-01   1.00800           0
     50980 MEMB     97       PVPG     C217     CTL2    -0.180000       12.0110           0
     50981 MEMB     97       PVPG     H17R     HAL2     0.900000E-01   1.00800           0
     50982 MEMB     97       PVPG     H17S     HAL2     0.900000E-01   1.00800           0
     50983 MEMB     97       PVPG     C218     CTL3    -0.270000       12.0110           0
     50984 MEMB     97       PVPG     H18R     HAL3     0.900000E-01   1.00800           0
     50985 MEMB     97       PVPG     H18S     HAL3     0.900000E-01   1.00800           0
     50986 MEMB     97       PVPG     H18T     HAL3     0.900000E-01   1.00800           0
     50987 MEMB     97       PVPG     C33      CTL2    -0.180000       12.0110           0
     50988 MEMB     97       PVPG     H3X      HAL2     0.900000E-01   1.00800           0
     50989 MEMB     97       PVPG     H3Y      HAL2     0.900000E-01   1.00800           0
     50990 MEMB     97       PVPG     C34      CTL2    -0.180000       12.0110           0
     50991 MEMB     97       PVPG     H4X      HAL2     0.900000E-01   1.00800           0
     50992 MEMB     97       PVPG     H4Y      HAL2     0.900000E-01   1.00800           0
     50993 MEMB     97       PVPG     C35      CTL2    -0.180000       12.0110           0
     50994 MEMB     97       PVPG     H5X      HAL2     0.900000E-01   1.00800           0
     50995 MEMB     97       PVPG     H5Y      HAL2     0.900000E-01   1.00800           0
     50996 MEMB     97       PVPG     C36      CTL2    -0.180000       12.0110           0
     50997 MEMB     97       PVPG     H6X      HAL2     0.900000E-01   1.00800           0
     50998 MEMB     97       PVPG     H6Y      HAL2     0.900000E-01   1.00800           0
     50999 MEMB     97       PVPG     C37      CTL2    -0.180000       12.0110           0
     51000 MEMB     97       PVPG     H7X      HAL2     0.900000E-01   1.00800           0
     51001 MEMB     97       PVPG     H7Y      HAL2     0.900000E-01   1.00800           0
     51002 MEMB     97       PVPG     C38      CTL2    -0.180000       12.0110           0
     51003 MEMB     97       PVPG     H8X      HAL2     0.900000E-01   1.00800           0
     51004 MEMB     97       PVPG     H8Y      HAL2     0.900000E-01   1.00800           0
     51005 MEMB     97       PVPG     C39      CTL2    -0.180000       12.0110           0
     51006 MEMB     97       PVPG     H9X      HAL2     0.900000E-01   1.00800           0
     51007 MEMB     97       PVPG     H9Y      HAL2     0.900000E-01   1.00800           0
     51008 MEMB     97       PVPG     C310     CTL2    -0.180000       12.0110           0
     51009 MEMB     97       PVPG     H10X     HAL2     0.900000E-01   1.00800           0
     51010 MEMB     97       PVPG     H10Y     HAL2     0.900000E-01   1.00800           0
     51011 MEMB     97       PVPG     C311     CTL2    -0.180000       12.0110           0
     51012 MEMB     97       PVPG     H11X     HAL2     0.900000E-01   1.00800           0
     51013 MEMB     97       PVPG     H11Y     HAL2     0.900000E-01   1.00800           0
     51014 MEMB     97       PVPG     C312     CTL2    -0.180000       12.0110           0
     51015 MEMB     97       PVPG     H12X     HAL2     0.900000E-01   1.00800           0
     51016 MEMB     97       PVPG     H12Y     HAL2     0.900000E-01   1.00800           0
     51017 MEMB     97       PVPG     C313     CTL2    -0.180000       12.0110           0
     51018 MEMB     97       PVPG     H13X     HAL2     0.900000E-01   1.00800           0
     51019 MEMB     97       PVPG     H13Y     HAL2     0.900000E-01   1.00800           0
     51020 MEMB     97       PVPG     C314     CTL2    -0.180000       12.0110           0
     51021 MEMB     97       PVPG     H14X     HAL2     0.900000E-01   1.00800           0
     51022 MEMB     97       PVPG     H14Y     HAL2     0.900000E-01   1.00800           0
     51023 MEMB     97       PVPG     C315     CTL2    -0.180000       12.0110           0
     51024 MEMB     97       PVPG     H15X     HAL2     0.900000E-01   1.00800           0
     51025 MEMB     97       PVPG     H15Y     HAL2     0.900000E-01   1.00800           0
     51026 MEMB     97       PVPG     C316     CTL3    -0.270000       12.0110           0
     51027 MEMB     97       PVPG     H16X     HAL3     0.900000E-01   1.00800           0
     51028 MEMB     97       PVPG     H16Y     HAL3     0.900000E-01   1.00800           0
     51029 MEMB     97       PVPG     H16Z     HAL3     0.900000E-01   1.00800           0
     51030 MEMB     98       PPPE     N        NH3L    -0.300000       14.0070           0
     51031 MEMB     98       PPPE     HN1      HCL      0.330000       1.00800           0
     51032 MEMB     98       PPPE     HN2      HCL      0.330000       1.00800           0
     51033 MEMB     98       PPPE     HN3      HCL      0.330000       1.00800           0
     51034 MEMB     98       PPPE     C12      CTL2     0.130000       12.0110           0
     51035 MEMB     98       PPPE     H12A     HAL2     0.900000E-01   1.00800           0
     51036 MEMB     98       PPPE     H12B     HAL2     0.900000E-01   1.00800           0
     51037 MEMB     98       PPPE     C11      CTL2    -0.800000E-01   12.0110           0
     51038 MEMB     98       PPPE     H11A     HAL2     0.900000E-01   1.00800           0
     51039 MEMB     98       PPPE     H11B     HAL2     0.900000E-01   1.00800           0
     51040 MEMB     98       PPPE     P        PL        1.50000       30.9740           0
     51041 MEMB     98       PPPE     O13      O2L     -0.780000       15.9994           0
     51042 MEMB     98       PPPE     O14      O2L     -0.780000       15.9994           0
     51043 MEMB     98       PPPE     O11      OSLP    -0.570000       15.9994           0
     51044 MEMB     98       PPPE     O12      OSLP    -0.570000       15.9994           0
     51045 MEMB     98       PPPE     C1       CTL2    -0.800000E-01   12.0110           0
     51046 MEMB     98       PPPE     HA       HAL2     0.900000E-01   1.00800           0
     51047 MEMB     98       PPPE     HB       HAL2     0.900000E-01   1.00800           0
     51048 MEMB     98       PPPE     C2       CTL1     0.170000       12.0110           0
     51049 MEMB     98       PPPE     HS       HAL1     0.900000E-01   1.00800           0
     51050 MEMB     98       PPPE     O21      OSL     -0.490000       15.9994           0
     51051 MEMB     98       PPPE     C21      CL       0.900000       12.0110           0
     51052 MEMB     98       PPPE     O22      OBL     -0.630000       15.9994           0
     51053 MEMB     98       PPPE     C22      CTL2    -0.220000       12.0110           0
     51054 MEMB     98       PPPE     H2R      HAL2     0.900000E-01   1.00800           0
     51055 MEMB     98       PPPE     H2S      HAL2     0.900000E-01   1.00800           0
     51056 MEMB     98       PPPE     C3       CTL2     0.800000E-01   12.0110           0
     51057 MEMB     98       PPPE     HX       HAL2     0.900000E-01   1.00800           0
     51058 MEMB     98       PPPE     HY       HAL2     0.900000E-01   1.00800           0
     51059 MEMB     98       PPPE     O31      OSL     -0.490000       15.9994           0
     51060 MEMB     98       PPPE     C31      CL       0.900000       12.0110           0
     51061 MEMB     98       PPPE     O32      OBL     -0.630000       15.9994           0
     51062 MEMB     98       PPPE     C32      CTL2    -0.220000       12.0110           0
     51063 MEMB     98       PPPE     H2X      HAL2     0.900000E-01   1.00800           0
     51064 MEMB     98       PPPE     H2Y      HAL2     0.900000E-01   1.00800           0
     51065 MEMB     98       PPPE     C23      CTL2    -0.180000       12.0110           0
     51066 MEMB     98       PPPE     H3R      HAL2     0.900000E-01   1.00800           0
     51067 MEMB     98       PPPE     H3S      HAL2     0.900000E-01   1.00800           0
     51068 MEMB     98       PPPE     C24      CTL2    -0.180000       12.0110           0
     51069 MEMB     98       PPPE     H4R      HAL2     0.900000E-01   1.00800           0
     51070 MEMB     98       PPPE     H4S      HAL2     0.900000E-01   1.00800           0
     51071 MEMB     98       PPPE     C25      CTL2    -0.180000       12.0110           0
     51072 MEMB     98       PPPE     H5R      HAL2     0.900000E-01   1.00800           0
     51073 MEMB     98       PPPE     H5S      HAL2     0.900000E-01   1.00800           0
     51074 MEMB     98       PPPE     C26      CTL2    -0.180000       12.0110           0
     51075 MEMB     98       PPPE     H6R      HAL2     0.900000E-01   1.00800           0
     51076 MEMB     98       PPPE     H6S      HAL2     0.900000E-01   1.00800           0
     51077 MEMB     98       PPPE     C27      CTL2    -0.180000       12.0110           0
     51078 MEMB     98       PPPE     H7R      HAL2     0.900000E-01   1.00800           0
     51079 MEMB     98       PPPE     H7S      HAL2     0.900000E-01   1.00800           0
     51080 MEMB     98       PPPE     C28      CTL2    -0.180000       12.0110           0
     51081 MEMB     98       PPPE     H8R      HAL2     0.900000E-01   1.00800           0
     51082 MEMB     98       PPPE     H8S      HAL2     0.900000E-01   1.00800           0
     51083 MEMB     98       PPPE     C29      CEL1    -0.150000       12.0110           0
     51084 MEMB     98       PPPE     H91      HEL1     0.150000       1.00800           0
     51085 MEMB     98       PPPE     C210     CEL1    -0.150000       12.0110           0
     51086 MEMB     98       PPPE     H101     HEL1     0.150000       1.00800           0
     51087 MEMB     98       PPPE     C211     CTL2    -0.180000       12.0110           0
     51088 MEMB     98       PPPE     H11R     HAL2     0.900000E-01   1.00800           0
     51089 MEMB     98       PPPE     H11S     HAL2     0.900000E-01   1.00800           0
     51090 MEMB     98       PPPE     C212     CTL2    -0.180000       12.0110           0
     51091 MEMB     98       PPPE     H12R     HAL2     0.900000E-01   1.00800           0
     51092 MEMB     98       PPPE     H12S     HAL2     0.900000E-01   1.00800           0
     51093 MEMB     98       PPPE     C213     CTL2    -0.180000       12.0110           0
     51094 MEMB     98       PPPE     H13R     HAL2     0.900000E-01   1.00800           0
     51095 MEMB     98       PPPE     H13S     HAL2     0.900000E-01   1.00800           0
     51096 MEMB     98       PPPE     C214     CTL2    -0.180000       12.0110           0
     51097 MEMB     98       PPPE     H14R     HAL2     0.900000E-01   1.00800           0
     51098 MEMB     98       PPPE     H14S     HAL2     0.900000E-01   1.00800           0
     51099 MEMB     98       PPPE     C215     CTL2    -0.180000       12.0110           0
     51100 MEMB     98       PPPE     H15R     HAL2     0.900000E-01   1.00800           0
     51101 MEMB     98       PPPE     H15S     HAL2     0.900000E-01   1.00800           0
     51102 MEMB     98       PPPE     C216     CTL3    -0.270000       12.0110           0
     51103 MEMB     98       PPPE     H16R     HAL3     0.900000E-01   1.00800           0
     51104 MEMB     98       PPPE     H16S     HAL3     0.900000E-01   1.00800           0
     51105 MEMB     98       PPPE     H16T     HAL3     0.900000E-01   1.00800           0
     51106 MEMB     98       PPPE     C33      CTL2    -0.180000       12.0110           0
     51107 MEMB     98       PPPE     H3X      HAL2     0.900000E-01   1.00800           0
     51108 MEMB     98       PPPE     H3Y      HAL2     0.900000E-01   1.00800           0
     51109 MEMB     98       PPPE     C34      CTL2    -0.180000       12.0110           0
     51110 MEMB     98       PPPE     H4X      HAL2     0.900000E-01   1.00800           0
     51111 MEMB     98       PPPE     H4Y      HAL2     0.900000E-01   1.00800           0
     51112 MEMB     98       PPPE     C35      CTL2    -0.180000       12.0110           0
     51113 MEMB     98       PPPE     H5X      HAL2     0.900000E-01   1.00800           0
     51114 MEMB     98       PPPE     H5Y      HAL2     0.900000E-01   1.00800           0
     51115 MEMB     98       PPPE     C36      CTL2    -0.180000       12.0110           0
     51116 MEMB     98       PPPE     H6X      HAL2     0.900000E-01   1.00800           0
     51117 MEMB     98       PPPE     H6Y      HAL2     0.900000E-01   1.00800           0
     51118 MEMB     98       PPPE     C37      CTL2    -0.180000       12.0110           0
     51119 MEMB     98       PPPE     H7X      HAL2     0.900000E-01   1.00800           0
     51120 MEMB     98       PPPE     H7Y      HAL2     0.900000E-01   1.00800           0
     51121 MEMB     98       PPPE     C38      CTL2    -0.180000       12.0110           0
     51122 MEMB     98       PPPE     H8X      HAL2     0.900000E-01   1.00800           0
     51123 MEMB     98       PPPE     H8Y      HAL2     0.900000E-01   1.00800           0
     51124 MEMB     98       PPPE     C39      CTL2    -0.180000       12.0110           0
     51125 MEMB     98       PPPE     H9X      HAL2     0.900000E-01   1.00800           0
     51126 MEMB     98       PPPE     H9Y      HAL2     0.900000E-01   1.00800           0
     51127 MEMB     98       PPPE     C310     CTL2    -0.180000       12.0110           0
     51128 MEMB     98       PPPE     H10X     HAL2     0.900000E-01   1.00800           0
     51129 MEMB     98       PPPE     H10Y     HAL2     0.900000E-01   1.00800           0
     51130 MEMB     98       PPPE     C311     CTL2    -0.180000       12.0110           0
     51131 MEMB     98       PPPE     H11X     HAL2     0.900000E-01   1.00800           0
     51132 MEMB     98       PPPE     H11Y     HAL2     0.900000E-01   1.00800           0
     51133 MEMB     98       PPPE     C312     CTL2    -0.180000       12.0110           0
     51134 MEMB     98       PPPE     H12X     HAL2     0.900000E-01   1.00800           0
     51135 MEMB     98       PPPE     H12Y     HAL2     0.900000E-01   1.00800           0
     51136 MEMB     98       PPPE     C313     CTL2    -0.180000       12.0110           0
     51137 MEMB     98       PPPE     H13X     HAL2     0.900000E-01   1.00800           0
     51138 MEMB     98       PPPE     H13Y     HAL2     0.900000E-01   1.00800           0
     51139 MEMB     98       PPPE     C314     CTL2    -0.180000       12.0110           0
     51140 MEMB     98       PPPE     H14X     HAL2     0.900000E-01   1.00800           0
     51141 MEMB     98       PPPE     H14Y     HAL2     0.900000E-01   1.00800           0
     51142 MEMB     98       PPPE     C315     CTL2    -0.180000       12.0110           0
     51143 MEMB     98       PPPE     H15X     HAL2     0.900000E-01   1.00800           0
     51144 MEMB     98       PPPE     H15Y     HAL2     0.900000E-01   1.00800           0
     51145 MEMB     98       PPPE     C316     CTL3    -0.270000       12.0110           0
     51146 MEMB     98       PPPE     H16X     HAL3     0.900000E-01   1.00800           0
     51147 MEMB     98       PPPE     H16Y     HAL3     0.900000E-01   1.00800           0
     51148 MEMB     98       PPPE     H16Z     HAL3     0.900000E-01   1.00800           0
     51149 MEMB     99       PVPG     C13      CTL2     0.500000E-01   12.0110           0
     51150 MEMB     99       PVPG     H13A     HAL2     0.900000E-01   1.00800           0
     51151 MEMB     99       PVPG     H13B     HAL2     0.900000E-01   1.00800           0
     51152 MEMB     99       PVPG     OC3      OHL     -0.650000       15.9994           0
     51153 MEMB     99       PVPG     HO3      HOL      0.420000       1.00800           0
     51154 MEMB     99       PVPG     C12      CTL1     0.140000       12.0110           0
     51155 MEMB     99       PVPG     H12A     HAL1     0.900000E-01   1.00800           0
     51156 MEMB     99       PVPG     OC2      OHL     -0.650000       15.9994           0
     51157 MEMB     99       PVPG     HO2      HOL      0.420000       1.00800           0
     51158 MEMB     99       PVPG     C11      CTL2    -0.800000E-01   12.0110           0
     51159 MEMB     99       PVPG     H11A     HAL2     0.900000E-01   1.00800           0
     51160 MEMB     99       PVPG     H11B     HAL2     0.900000E-01   1.00800           0
     51161 MEMB     99       PVPG     P        PL        1.50000       30.9740           0
     51162 MEMB     99       PVPG     O13      O2L     -0.780000       15.9994           0
     51163 MEMB     99       PVPG     O14      O2L     -0.780000       15.9994           0
     51164 MEMB     99       PVPG     O12      OSLP    -0.570000       15.9994           0
     51165 MEMB     99       PVPG     O11      OSLP    -0.570000       15.9994           0
     51166 MEMB     99       PVPG     C1       CTL2    -0.800000E-01   12.0110           0
     51167 MEMB     99       PVPG     HA       HAL2     0.900000E-01   1.00800           0
     51168 MEMB     99       PVPG     HB       HAL2     0.900000E-01   1.00800           0
     51169 MEMB     99       PVPG     C2       CTL1     0.170000       12.0110           0
     51170 MEMB     99       PVPG     HS       HAL1     0.900000E-01   1.00800           0
     51171 MEMB     99       PVPG     O21      OSL     -0.490000       15.9994           0
     51172 MEMB     99       PVPG     C21      CL       0.900000       12.0110           0
     51173 MEMB     99       PVPG     O22      OBL     -0.630000       15.9994           0
     51174 MEMB     99       PVPG     C22      CTL2    -0.220000       12.0110           0
     51175 MEMB     99       PVPG     H2R      HAL2     0.900000E-01   1.00800           0
     51176 MEMB     99       PVPG     H2S      HAL2     0.900000E-01   1.00800           0
     51177 MEMB     99       PVPG     C3       CTL2     0.800000E-01   12.0110           0
     51178 MEMB     99       PVPG     HX       HAL2     0.900000E-01   1.00800           0
     51179 MEMB     99       PVPG     HY       HAL2     0.900000E-01   1.00800           0
     51180 MEMB     99       PVPG     O31      OSL     -0.490000       15.9994           0
     51181 MEMB     99       PVPG     C31      CL       0.900000       12.0110           0
     51182 MEMB     99       PVPG     O32      OBL     -0.630000       15.9994           0
     51183 MEMB     99       PVPG     C32      CTL2    -0.220000       12.0110           0
     51184 MEMB     99       PVPG     H2X      HAL2     0.900000E-01   1.00800           0
     51185 MEMB     99       PVPG     H2Y      HAL2     0.900000E-01   1.00800           0
     51186 MEMB     99       PVPG     C23      CTL2    -0.180000       12.0110           0
     51187 MEMB     99       PVPG     H3R      HAL2     0.900000E-01   1.00800           0
     51188 MEMB     99       PVPG     H3S      HAL2     0.900000E-01   1.00800           0
     51189 MEMB     99       PVPG     C24      CTL2    -0.180000       12.0110           0
     51190 MEMB     99       PVPG     H4R      HAL2     0.900000E-01   1.00800           0
     51191 MEMB     99       PVPG     H4S      HAL2     0.900000E-01   1.00800           0
     51192 MEMB     99       PVPG     C25      CTL2    -0.180000       12.0110           0
     51193 MEMB     99       PVPG     H5R      HAL2     0.900000E-01   1.00800           0
     51194 MEMB     99       PVPG     H5S      HAL2     0.900000E-01   1.00800           0
     51195 MEMB     99       PVPG     C26      CTL2    -0.180000       12.0110           0
     51196 MEMB     99       PVPG     H6R      HAL2     0.900000E-01   1.00800           0
     51197 MEMB     99       PVPG     H6S      HAL2     0.900000E-01   1.00800           0
     51198 MEMB     99       PVPG     C27      CTL2    -0.180000       12.0110           0
     51199 MEMB     99       PVPG     H7R      HAL2     0.900000E-01   1.00800           0
     51200 MEMB     99       PVPG     H7S      HAL2     0.900000E-01   1.00800           0
     51201 MEMB     99       PVPG     C28      CTL2    -0.180000       12.0110           0
     51202 MEMB     99       PVPG     H8R      HAL2     0.900000E-01   1.00800           0
     51203 MEMB     99       PVPG     H8S      HAL2     0.900000E-01   1.00800           0
     51204 MEMB     99       PVPG     C29      CTL2    -0.180000       12.0110           0
     51205 MEMB     99       PVPG     H9R      HAL2     0.900000E-01   1.00800           0
     51206 MEMB     99       PVPG     H9S      HAL2     0.900000E-01   1.00800           0
     51207 MEMB     99       PVPG     C210     CTL2    -0.180000       12.0110           0
     51208 MEMB     99       PVPG     H10R     HAL2     0.900000E-01   1.00800           0
     51209 MEMB     99       PVPG     H10S     HAL2     0.900000E-01   1.00800           0
     51210 MEMB     99       PVPG     C211     CEL1    -0.150000       12.0110           0
     51211 MEMB     99       PVPG     H111     HEL1     0.150000       1.00800           0
     51212 MEMB     99       PVPG     C212     CEL1    -0.150000       12.0110           0
     51213 MEMB     99       PVPG     H121     HEL1     0.150000       1.00800           0
     51214 MEMB     99       PVPG     C213     CTL2    -0.180000       12.0110           0
     51215 MEMB     99       PVPG     H13R     HAL2     0.900000E-01   1.00800           0
     51216 MEMB     99       PVPG     H13S     HAL2     0.900000E-01   1.00800           0
     51217 MEMB     99       PVPG     C214     CTL2    -0.180000       12.0110           0
     51218 MEMB     99       PVPG     H14R     HAL2     0.900000E-01   1.00800           0
     51219 MEMB     99       PVPG     H14S     HAL2     0.900000E-01   1.00800           0
     51220 MEMB     99       PVPG     C215     CTL2    -0.180000       12.0110           0
     51221 MEMB     99       PVPG     H15R     HAL2     0.900000E-01   1.00800           0
     51222 MEMB     99       PVPG     H15S     HAL2     0.900000E-01   1.00800           0
     51223 MEMB     99       PVPG     C216     CTL2    -0.180000       12.0110           0
     51224 MEMB     99       PVPG     H16R     HAL2     0.900000E-01   1.00800           0
     51225 MEMB     99       PVPG     H16S     HAL2     0.900000E-01   1.00800           0
     51226 MEMB     99       PVPG     C217     CTL2    -0.180000       12.0110           0
     51227 MEMB     99       PVPG     H17R     HAL2     0.900000E-01   1.00800           0
     51228 MEMB     99       PVPG     H17S     HAL2     0.900000E-01   1.00800           0
     51229 MEMB     99       PVPG     C218     CTL3    -0.270000       12.0110           0
     51230 MEMB     99       PVPG     H18R     HAL3     0.900000E-01   1.00800           0
     51231 MEMB     99       PVPG     H18S     HAL3     0.900000E-01   1.00800           0
     51232 MEMB     99       PVPG     H18T     HAL3     0.900000E-01   1.00800           0
     51233 MEMB     99       PVPG     C33      CTL2    -0.180000       12.0110           0
     51234 MEMB     99       PVPG     H3X      HAL2     0.900000E-01   1.00800           0
     51235 MEMB     99       PVPG     H3Y      HAL2     0.900000E-01   1.00800           0
     51236 MEMB     99       PVPG     C34      CTL2    -0.180000       12.0110           0
     51237 MEMB     99       PVPG     H4X      HAL2     0.900000E-01   1.00800           0
     51238 MEMB     99       PVPG     H4Y      HAL2     0.900000E-01   1.00800           0
     51239 MEMB     99       PVPG     C35      CTL2    -0.180000       12.0110           0
     51240 MEMB     99       PVPG     H5X      HAL2     0.900000E-01   1.00800           0
     51241 MEMB     99       PVPG     H5Y      HAL2     0.900000E-01   1.00800           0
     51242 MEMB     99       PVPG     C36      CTL2    -0.180000       12.0110           0
     51243 MEMB     99       PVPG     H6X      HAL2     0.900000E-01   1.00800           0
     51244 MEMB     99       PVPG     H6Y      HAL2     0.900000E-01   1.00800           0
     51245 MEMB     99       PVPG     C37      CTL2    -0.180000       12.0110           0
     51246 MEMB     99       PVPG     H7X      HAL2     0.900000E-01   1.00800           0
     51247 MEMB     99       PVPG     H7Y      HAL2     0.900000E-01   1.00800           0
     51248 MEMB     99       PVPG     C38      CTL2    -0.180000       12.0110           0
     51249 MEMB     99       PVPG     H8X      HAL2     0.900000E-01   1.00800           0
     51250 MEMB     99       PVPG     H8Y      HAL2     0.900000E-01   1.00800           0
     51251 MEMB     99       PVPG     C39      CTL2    -0.180000       12.0110           0
     51252 MEMB     99       PVPG     H9X      HAL2     0.900000E-01   1.00800           0
     51253 MEMB     99       PVPG     H9Y      HAL2     0.900000E-01   1.00800           0
     51254 MEMB     99       PVPG     C310     CTL2    -0.180000       12.0110           0
     51255 MEMB     99       PVPG     H10X     HAL2     0.900000E-01   1.00800           0
     51256 MEMB     99       PVPG     H10Y     HAL2     0.900000E-01   1.00800           0
     51257 MEMB     99       PVPG     C311     CTL2    -0.180000       12.0110           0
     51258 MEMB     99       PVPG     H11X     HAL2     0.900000E-01   1.00800           0
     51259 MEMB     99       PVPG     H11Y     HAL2     0.900000E-01   1.00800           0
     51260 MEMB     99       PVPG     C312     CTL2    -0.180000       12.0110           0
     51261 MEMB     99       PVPG     H12X     HAL2     0.900000E-01   1.00800           0
     51262 MEMB     99       PVPG     H12Y     HAL2     0.900000E-01   1.00800           0
     51263 MEMB     99       PVPG     C313     CTL2    -0.180000       12.0110           0
     51264 MEMB     99       PVPG     H13X     HAL2     0.900000E-01   1.00800           0
     51265 MEMB     99       PVPG     H13Y     HAL2     0.900000E-01   1.00800           0
     51266 MEMB     99       PVPG     C314     CTL2    -0.180000       12.0110           0
     51267 MEMB     99       PVPG     H14X     HAL2     0.900000E-01   1.00800           0
     51268 MEMB     99       PVPG     H14Y     HAL2     0.900000E-01   1.00800           0
     51269 MEMB     99       PVPG     C315     CTL2    -0.180000       12.0110           0
     51270 MEMB     99       PVPG     H15X     HAL2     0.900000E-01   1.00800           0
     51271 MEMB     99       PVPG     H15Y     HAL2     0.900000E-01   1.00800           0
     51272 MEMB     99       PVPG     C316     CTL3    -0.270000       12.0110           0
     51273 MEMB     99       PVPG     H16X     HAL3     0.900000E-01   1.00800           0
     51274 MEMB     99       PVPG     H16Y     HAL3     0.900000E-01   1.00800           0
     51275 MEMB     99       PVPG     H16Z     HAL3     0.900000E-01   1.00800           0
     51276 MEMB     100      PVCL2    C3       CTL2    -0.800000E-01   12.0110           0
     51277 MEMB     100      PVCL2    HG31     HAL2     0.900000E-01   1.00800           0
     51278 MEMB     100      PVCL2    HG32     HAL2     0.900000E-01   1.00800           0
     51279 MEMB     100      PVCL2    P3       PL        1.50000       30.9740           0
     51280 MEMB     100      PVCL2    OP33     O2L     -0.780000       15.9994           0
     51281 MEMB     100      PVCL2    OP34     O2L     -0.780000       15.9994           0
     51282 MEMB     100      PVCL2    OP31     OSLP    -0.570000       15.9994           0
     51283 MEMB     100      PVCL2    OP32     OSLP    -0.570000       15.9994           0
     51284 MEMB     100      PVCL2    C31      CTL2    -0.800000E-01   12.0110           0
     51285 MEMB     100      PVCL2    H31J     HAL2     0.900000E-01   1.00800           0
     51286 MEMB     100      PVCL2    H31K     HAL2     0.900000E-01   1.00800           0
     51287 MEMB     100      PVCL2    C2       CTL1     0.140000       12.0110           0
     51288 MEMB     100      PVCL2    HG22     HAL1     0.900000E-01   1.00800           0
     51289 MEMB     100      PVCL2    OG12     OHL     -0.650000       15.9994           0
     51290 MEMB     100      PVCL2    HO12     HOL      0.420000       1.00800           0
     51291 MEMB     100      PVCL2    C1       CTL2    -0.800000E-01   12.0110           0
     51292 MEMB     100      PVCL2    HG11     HAL2     0.900000E-01   1.00800           0
     51293 MEMB     100      PVCL2    HG12     HAL2     0.900000E-01   1.00800           0
     51294 MEMB     100      PVCL2    P1       PL        1.50000       30.9740           0
     51295 MEMB     100      PVCL2    OP13     O2L     -0.780000       15.9994           0
     51296 MEMB     100      PVCL2    OP14     O2L     -0.780000       15.9994           0
     51297 MEMB     100      PVCL2    OP11     OSLP    -0.570000       15.9994           0
     51298 MEMB     100      PVCL2    OP12     OSLP    -0.570000       15.9994           0
     51299 MEMB     100      PVCL2    C11      CTL2    -0.800000E-01   12.0110           0
     51300 MEMB     100      PVCL2    H11J     HAL2     0.900000E-01   1.00800           0
     51301 MEMB     100      PVCL2    H11K     HAL2     0.900000E-01   1.00800           0
     51302 MEMB     100      PVCL2    C12      CTL1     0.170000       12.0110           0
     51303 MEMB     100      PVCL2    H12J     HAL1     0.900000E-01   1.00800           0
     51304 MEMB     100      PVCL2    O12      OSL     -0.490000       15.9994           0
     51305 MEMB     100      PVCL2    CA1      CL       0.900000       12.0110           0
     51306 MEMB     100      PVCL2    OA1      OBL     -0.630000       15.9994           0
     51307 MEMB     100      PVCL2    CA2      CTL2    -0.220000       12.0110           0
     51308 MEMB     100      PVCL2    H2A      HAL2     0.900000E-01   1.00800           0
     51309 MEMB     100      PVCL2    H2B      HAL2     0.900000E-01   1.00800           0
     51310 MEMB     100      PVCL2    C13      CTL2     0.800000E-01   12.0110           0
     51311 MEMB     100      PVCL2    H13J     HAL2     0.900000E-01   1.00800           0
     51312 MEMB     100      PVCL2    H13K     HAL2     0.900000E-01   1.00800           0
     51313 MEMB     100      PVCL2    O13      OSL     -0.490000       15.9994           0
     51314 MEMB     100      PVCL2    CB1      CL       0.900000       12.0110           0
     51315 MEMB     100      PVCL2    OB1      OBL     -0.630000       15.9994           0
     51316 MEMB     100      PVCL2    CB2      CTL2    -0.220000       12.0110           0
     51317 MEMB     100      PVCL2    H2D      HAL2     0.900000E-01   1.00800           0
     51318 MEMB     100      PVCL2    H2E      HAL2     0.900000E-01   1.00800           0
     51319 MEMB     100      PVCL2    C32      CTL1     0.170000       12.0110           0
     51320 MEMB     100      PVCL2    H32J     HAL1     0.900000E-01   1.00800           0
     51321 MEMB     100      PVCL2    O32      OSL     -0.490000       15.9994           0
     51322 MEMB     100      PVCL2    CC1      CL       0.900000       12.0110           0
     51323 MEMB     100      PVCL2    OC1      OBL     -0.630000       15.9994           0
     51324 MEMB     100      PVCL2    CC2      CTL2    -0.220000       12.0110           0
     51325 MEMB     100      PVCL2    H2R      HAL2     0.900000E-01   1.00800           0
     51326 MEMB     100      PVCL2    H2S      HAL2     0.900000E-01   1.00800           0
     51327 MEMB     100      PVCL2    C33      CTL2     0.800000E-01   12.0110           0
     51328 MEMB     100      PVCL2    H33J     HAL2     0.900000E-01   1.00800           0
     51329 MEMB     100      PVCL2    H33K     HAL2     0.900000E-01   1.00800           0
     51330 MEMB     100      PVCL2    O33      OSL     -0.490000       15.9994           0
     51331 MEMB     100      PVCL2    CD1      CL       0.900000       12.0110           0
     51332 MEMB     100      PVCL2    OD1      OBL     -0.630000       15.9994           0
     51333 MEMB     100      PVCL2    CD2      CTL2    -0.220000       12.0110           0
     51334 MEMB     100      PVCL2    H2X      HAL2     0.900000E-01   1.00800           0
     51335 MEMB     100      PVCL2    H2Y      HAL2     0.900000E-01   1.00800           0
     51336 MEMB     100      PVCL2    CA3      CTL2    -0.180000       12.0110           0
     51337 MEMB     100      PVCL2    H3A      HAL2     0.900000E-01   1.00800           0
     51338 MEMB     100      PVCL2    H3B      HAL2     0.900000E-01   1.00800           0
     51339 MEMB     100      PVCL2    CA4      CTL2    -0.180000       12.0110           0
     51340 MEMB     100      PVCL2    H4A      HAL2     0.900000E-01   1.00800           0
     51341 MEMB     100      PVCL2    H4B      HAL2     0.900000E-01   1.00800           0
     51342 MEMB     100      PVCL2    CA5      CTL2    -0.180000       12.0110           0
     51343 MEMB     100      PVCL2    H5A      HAL2     0.900000E-01   1.00800           0
     51344 MEMB     100      PVCL2    H5B      HAL2     0.900000E-01   1.00800           0
     51345 MEMB     100      PVCL2    CA6      CTL2    -0.180000       12.0110           0
     51346 MEMB     100      PVCL2    H6A      HAL2     0.900000E-01   1.00800           0
     51347 MEMB     100      PVCL2    H6B      HAL2     0.900000E-01   1.00800           0
     51348 MEMB     100      PVCL2    CA7      CTL2    -0.180000       12.0110           0
     51349 MEMB     100      PVCL2    H7A      HAL2     0.900000E-01   1.00800           0
     51350 MEMB     100      PVCL2    H7B      HAL2     0.900000E-01   1.00800           0
     51351 MEMB     100      PVCL2    CA8      CTL2    -0.180000       12.0110           0
     51352 MEMB     100      PVCL2    H8A      HAL2     0.900000E-01   1.00800           0
     51353 MEMB     100      PVCL2    H8B      HAL2     0.900000E-01   1.00800           0
     51354 MEMB     100      PVCL2    CA9      CTL2    -0.180000       12.0110           0
     51355 MEMB     100      PVCL2    H9A      HAL2     0.900000E-01   1.00800           0
     51356 MEMB     100      PVCL2    H9B      HAL2     0.900000E-01   1.00800           0
     51357 MEMB     100      PVCL2    CA10     CTL2    -0.180000       12.0110           0
     51358 MEMB     100      PVCL2    H10A     HAL2     0.900000E-01   1.00800           0
     51359 MEMB     100      PVCL2    H10B     HAL2     0.900000E-01   1.00800           0
     51360 MEMB     100      PVCL2    CA11     CEL1    -0.150000       12.0110           0
     51361 MEMB     100      PVCL2    H11A     HEL1     0.150000       1.00800           0
     51362 MEMB     100      PVCL2    CA12     CEL1    -0.150000       12.0110           0
     51363 MEMB     100      PVCL2    H12A     HEL1     0.150000       1.00800           0
     51364 MEMB     100      PVCL2    CA13     CTL2    -0.180000       12.0110           0
     51365 MEMB     100      PVCL2    H13A     HAL2     0.900000E-01   1.00800           0
     51366 MEMB     100      PVCL2    H13B     HAL2     0.900000E-01   1.00800           0
     51367 MEMB     100      PVCL2    CA14     CTL2    -0.180000       12.0110           0
     51368 MEMB     100      PVCL2    H14A     HAL2     0.900000E-01   1.00800           0
     51369 MEMB     100      PVCL2    H14B     HAL2     0.900000E-01   1.00800           0
     51370 MEMB     100      PVCL2    CA15     CTL2    -0.180000       12.0110           0
     51371 MEMB     100      PVCL2    H15A     HAL2     0.900000E-01   1.00800           0
     51372 MEMB     100      PVCL2    H15B     HAL2     0.900000E-01   1.00800           0
     51373 MEMB     100      PVCL2    CA16     CTL2    -0.180000       12.0110           0
     51374 MEMB     100      PVCL2    H16A     HAL2     0.900000E-01   1.00800           0
     51375 MEMB     100      PVCL2    H16B     HAL2     0.900000E-01   1.00800           0
     51376 MEMB     100      PVCL2    CA17     CTL2    -0.180000       12.0110           0
     51377 MEMB     100      PVCL2    H17A     HAL2     0.900000E-01   1.00800           0
     51378 MEMB     100      PVCL2    H17B     HAL2     0.900000E-01   1.00800           0
     51379 MEMB     100      PVCL2    CA18     CTL3    -0.270000       12.0110           0
     51380 MEMB     100      PVCL2    H18A     HAL3     0.900000E-01   1.00800           0
     51381 MEMB     100      PVCL2    H18B     HAL3     0.900000E-01   1.00800           0
     51382 MEMB     100      PVCL2    H18C     HAL3     0.900000E-01   1.00800           0
     51383 MEMB     100      PVCL2    CB3      CTL2    -0.180000       12.0110           0
     51384 MEMB     100      PVCL2    H3D      HAL2     0.900000E-01   1.00800           0
     51385 MEMB     100      PVCL2    H3E      HAL2     0.900000E-01   1.00800           0
     51386 MEMB     100      PVCL2    CB4      CTL2    -0.180000       12.0110           0
     51387 MEMB     100      PVCL2    H4D      HAL2     0.900000E-01   1.00800           0
     51388 MEMB     100      PVCL2    H4E      HAL2     0.900000E-01   1.00800           0
     51389 MEMB     100      PVCL2    CB5      CTL2    -0.180000       12.0110           0
     51390 MEMB     100      PVCL2    H5D      HAL2     0.900000E-01   1.00800           0
     51391 MEMB     100      PVCL2    H5E      HAL2     0.900000E-01   1.00800           0
     51392 MEMB     100      PVCL2    CB6      CTL2    -0.180000       12.0110           0
     51393 MEMB     100      PVCL2    H6D      HAL2     0.900000E-01   1.00800           0
     51394 MEMB     100      PVCL2    H6E      HAL2     0.900000E-01   1.00800           0
     51395 MEMB     100      PVCL2    CB7      CTL2    -0.180000       12.0110           0
     51396 MEMB     100      PVCL2    H7D      HAL2     0.900000E-01   1.00800           0
     51397 MEMB     100      PVCL2    H7E      HAL2     0.900000E-01   1.00800           0
     51398 MEMB     100      PVCL2    CB8      CTL2    -0.180000       12.0110           0
     51399 MEMB     100      PVCL2    H8D      HAL2     0.900000E-01   1.00800           0
     51400 MEMB     100      PVCL2    H8E      HAL2     0.900000E-01   1.00800           0
     51401 MEMB     100      PVCL2    CB9      CTL2    -0.180000       12.0110           0
     51402 MEMB     100      PVCL2    H9D      HAL2     0.900000E-01   1.00800           0
     51403 MEMB     100      PVCL2    H9E      HAL2     0.900000E-01   1.00800           0
     51404 MEMB     100      PVCL2    CB10     CTL2    -0.180000       12.0110           0
     51405 MEMB     100      PVCL2    H10D     HAL2     0.900000E-01   1.00800           0
     51406 MEMB     100      PVCL2    H10E     HAL2     0.900000E-01   1.00800           0
     51407 MEMB     100      PVCL2    CB11     CTL2    -0.180000       12.0110           0
     51408 MEMB     100      PVCL2    H11D     HAL2     0.900000E-01   1.00800           0
     51409 MEMB     100      PVCL2    H11E     HAL2     0.900000E-01   1.00800           0
     51410 MEMB     100      PVCL2    CB12     CTL2    -0.180000       12.0110           0
     51411 MEMB     100      PVCL2    H12D     HAL2     0.900000E-01   1.00800           0
     51412 MEMB     100      PVCL2    H12E     HAL2     0.900000E-01   1.00800           0
     51413 MEMB     100      PVCL2    CB13     CTL2    -0.180000       12.0110           0
     51414 MEMB     100      PVCL2    H13D     HAL2     0.900000E-01   1.00800           0
     51415 MEMB     100      PVCL2    H13E     HAL2     0.900000E-01   1.00800           0
     51416 MEMB     100      PVCL2    CB14     CTL2    -0.180000       12.0110           0
     51417 MEMB     100      PVCL2    H14D     HAL2     0.900000E-01   1.00800           0
     51418 MEMB     100      PVCL2    H14E     HAL2     0.900000E-01   1.00800           0
     51419 MEMB     100      PVCL2    CB15     CTL2    -0.180000       12.0110           0
     51420 MEMB     100      PVCL2    H15D     HAL2     0.900000E-01   1.00800           0
     51421 MEMB     100      PVCL2    H15E     HAL2     0.900000E-01   1.00800           0
     51422 MEMB     100      PVCL2    CB16     CTL3    -0.270000       12.0110           0
     51423 MEMB     100      PVCL2    H16D     HAL3     0.900000E-01   1.00800           0
     51424 MEMB     100      PVCL2    H16E     HAL3     0.900000E-01   1.00800           0
     51425 MEMB     100      PVCL2    H16F     HAL3     0.900000E-01   1.00800           0
     51426 MEMB     100      PVCL2    CC3      CTL2    -0.180000       12.0110           0
     51427 MEMB     100      PVCL2    H3R      HAL2     0.900000E-01   1.00800           0
     51428 MEMB     100      PVCL2    H3S      HAL2     0.900000E-01   1.00800           0
     51429 MEMB     100      PVCL2    CC4      CTL2    -0.180000       12.0110           0
     51430 MEMB     100      PVCL2    H4R      HAL2     0.900000E-01   1.00800           0
     51431 MEMB     100      PVCL2    H4S      HAL2     0.900000E-01   1.00800           0
     51432 MEMB     100      PVCL2    CC5      CTL2    -0.180000       12.0110           0
     51433 MEMB     100      PVCL2    H5R      HAL2     0.900000E-01   1.00800           0
     51434 MEMB     100      PVCL2    H5S      HAL2     0.900000E-01   1.00800           0
     51435 MEMB     100      PVCL2    CC6      CTL2    -0.180000       12.0110           0
     51436 MEMB     100      PVCL2    H6R      HAL2     0.900000E-01   1.00800           0
     51437 MEMB     100      PVCL2    H6S      HAL2     0.900000E-01   1.00800           0
     51438 MEMB     100      PVCL2    CC7      CTL2    -0.180000       12.0110           0
     51439 MEMB     100      PVCL2    H7R      HAL2     0.900000E-01   1.00800           0
     51440 MEMB     100      PVCL2    H7S      HAL2     0.900000E-01   1.00800           0
     51441 MEMB     100      PVCL2    CC8      CTL2    -0.180000       12.0110           0
     51442 MEMB     100      PVCL2    H8R      HAL2     0.900000E-01   1.00800           0
     51443 MEMB     100      PVCL2    H8S      HAL2     0.900000E-01   1.00800           0
     51444 MEMB     100      PVCL2    CC9      CTL2    -0.180000       12.0110           0
     51445 MEMB     100      PVCL2    H9R      HAL2     0.900000E-01   1.00800           0
     51446 MEMB     100      PVCL2    H9S      HAL2     0.900000E-01   1.00800           0
     51447 MEMB     100      PVCL2    CC10     CTL2    -0.180000       12.0110           0
     51448 MEMB     100      PVCL2    H10R     HAL2     0.900000E-01   1.00800           0
     51449 MEMB     100      PVCL2    H10S     HAL2     0.900000E-01   1.00800           0
     51450 MEMB     100      PVCL2    CC11     CEL1    -0.150000       12.0110           0
     51451 MEMB     100      PVCL2    H11R     HEL1     0.150000       1.00800           0
     51452 MEMB     100      PVCL2    CC12     CEL1    -0.150000       12.0110           0
     51453 MEMB     100      PVCL2    H12R     HEL1     0.150000       1.00800           0
     51454 MEMB     100      PVCL2    CC13     CTL2    -0.180000       12.0110           0
     51455 MEMB     100      PVCL2    H13R     HAL2     0.900000E-01   1.00800           0
     51456 MEMB     100      PVCL2    H13S     HAL2     0.900000E-01   1.00800           0
     51457 MEMB     100      PVCL2    CC14     CTL2    -0.180000       12.0110           0
     51458 MEMB     100      PVCL2    H14R     HAL2     0.900000E-01   1.00800           0
     51459 MEMB     100      PVCL2    H14S     HAL2     0.900000E-01   1.00800           0
     51460 MEMB     100      PVCL2    CC15     CTL2    -0.180000       12.0110           0
     51461 MEMB     100      PVCL2    H15R     HAL2     0.900000E-01   1.00800           0
     51462 MEMB     100      PVCL2    H15S     HAL2     0.900000E-01   1.00800           0
     51463 MEMB     100      PVCL2    CC16     CTL2    -0.180000       12.0110           0
     51464 MEMB     100      PVCL2    H16R     HAL2     0.900000E-01   1.00800           0
     51465 MEMB     100      PVCL2    H16S     HAL2     0.900000E-01   1.00800           0
     51466 MEMB     100      PVCL2    CC17     CTL2    -0.180000       12.0110           0
     51467 MEMB     100      PVCL2    H17R     HAL2     0.900000E-01   1.00800           0
     51468 MEMB     100      PVCL2    H17S     HAL2     0.900000E-01   1.00800           0
     51469 MEMB     100      PVCL2    CC18     CTL3    -0.270000       12.0110           0
     51470 MEMB     100      PVCL2    H18R     HAL3     0.900000E-01   1.00800           0
     51471 MEMB     100      PVCL2    H18S     HAL3     0.900000E-01   1.00800           0
     51472 MEMB     100      PVCL2    H18T     HAL3     0.900000E-01   1.00800           0
     51473 MEMB     100      PVCL2    CD3      CTL2    -0.180000       12.0110           0
     51474 MEMB     100      PVCL2    H3X      HAL2     0.900000E-01   1.00800           0
     51475 MEMB     100      PVCL2    H3Y      HAL2     0.900000E-01   1.00800           0
     51476 MEMB     100      PVCL2    CD4      CTL2    -0.180000       12.0110           0
     51477 MEMB     100      PVCL2    H4X      HAL2     0.900000E-01   1.00800           0
     51478 MEMB     100      PVCL2    H4Y      HAL2     0.900000E-01   1.00800           0
     51479 MEMB     100      PVCL2    CD5      CTL2    -0.180000       12.0110           0
     51480 MEMB     100      PVCL2    H5X      HAL2     0.900000E-01   1.00800           0
     51481 MEMB     100      PVCL2    H5Y      HAL2     0.900000E-01   1.00800           0
     51482 MEMB     100      PVCL2    CD6      CTL2    -0.180000       12.0110           0
     51483 MEMB     100      PVCL2    H6X      HAL2     0.900000E-01   1.00800           0
     51484 MEMB     100      PVCL2    H6Y      HAL2     0.900000E-01   1.00800           0
     51485 MEMB     100      PVCL2    CD7      CTL2    -0.180000       12.0110           0
     51486 MEMB     100      PVCL2    H7X      HAL2     0.900000E-01   1.00800           0
     51487 MEMB     100      PVCL2    H7Y      HAL2     0.900000E-01   1.00800           0
     51488 MEMB     100      PVCL2    CD8      CTL2    -0.180000       12.0110           0
     51489 MEMB     100      PVCL2    H8X      HAL2     0.900000E-01   1.00800           0
     51490 MEMB     100      PVCL2    H8Y      HAL2     0.900000E-01   1.00800           0
     51491 MEMB     100      PVCL2    CD9      CTL2    -0.180000       12.0110           0
     51492 MEMB     100      PVCL2    H9X      HAL2     0.900000E-01   1.00800           0
     51493 MEMB     100      PVCL2    H9Y      HAL2     0.900000E-01   1.00800           0
     51494 MEMB     100      PVCL2    CD10     CTL2    -0.180000       12.0110           0
     51495 MEMB     100      PVCL2    H10X     HAL2     0.900000E-01   1.00800           0
     51496 MEMB     100      PVCL2    H10Y     HAL2     0.900000E-01   1.00800           0
     51497 MEMB     100      PVCL2    CD11     CTL2    -0.180000       12.0110           0
     51498 MEMB     100      PVCL2    H11X     HAL2     0.900000E-01   1.00800           0
     51499 MEMB     100      PVCL2    H11Y     HAL2     0.900000E-01   1.00800           0
     51500 MEMB     100      PVCL2    CD12     CTL2    -0.180000       12.0110           0
     51501 MEMB     100      PVCL2    H12X     HAL2     0.900000E-01   1.00800           0
     51502 MEMB     100      PVCL2    H12Y     HAL2     0.900000E-01   1.00800           0
     51503 MEMB     100      PVCL2    CD13     CTL2    -0.180000       12.0110           0
     51504 MEMB     100      PVCL2    H13X     HAL2     0.900000E-01   1.00800           0
     51505 MEMB     100      PVCL2    H13Y     HAL2     0.900000E-01   1.00800           0
     51506 MEMB     100      PVCL2    CD14     CTL2    -0.180000       12.0110           0
     51507 MEMB     100      PVCL2    H14X     HAL2     0.900000E-01   1.00800           0
     51508 MEMB     100      PVCL2    H14Y     HAL2     0.900000E-01   1.00800           0
     51509 MEMB     100      PVCL2    CD15     CTL2    -0.180000       12.0110           0
     51510 MEMB     100      PVCL2    H15X     HAL2     0.900000E-01   1.00800           0
     51511 MEMB     100      PVCL2    H15Y     HAL2     0.900000E-01   1.00800           0
     51512 MEMB     100      PVCL2    CD16     CTL3    -0.270000       12.0110           0
     51513 MEMB     100      PVCL2    H16X     HAL3     0.900000E-01   1.00800           0
     51514 MEMB     100      PVCL2    H16Y     HAL3     0.900000E-01   1.00800           0
     51515 MEMB     100      PVCL2    H16Z     HAL3     0.900000E-01   1.00800           0

     52675 !NBOND: bonds
        26        27        26        28        26        59        59        60
        59        61        62        61        62        64        64        65
        64        66        63        62        64        67        67        68
        67        69        67        70        70        71        70        73
        73        74        73        75        73        76        76        77
        70        72        76        78        76        79        79        80
        79        81        79        82        82        83        82        84
        82        85        85        86        85        87        85        88
        88        89        88        90        88        91        91        92
        91        93        91        94        94        95        94        96
        94        97        97        98        97        99        97       100
       100       101       100       102       100       103        59       104
       104       105       104       106       104       107       107       108
       107       109       107       110       110       111       110       112
       110       113       113       114       113       115       113       116
       116       117       116       118       116       119       119       120
       119       121       119       122       122       123       122       124
       122       125       125       126       125       127       125       128
       128       129       128       130       128       131       131       132
       131       133       131       134       134       135       134       136
       134       137       140       141       140       142       140       143
       143       144       143       145       147       146       145       146
       146       148       148       149       148       150       148       151
       151       152       151       153       151       154       154       155
       154       156       154       157       157       158       157       159
       157       160       160       161       160       162       160       163
       163       164       163       165       163       166       166       167
       166       168       166       169       169       170       169       171
       169       172       172       173       172       174       172       175
       175       176       175       177       175       178       178       179
       178       180       178       181       143       182       182       183
       182       184       182       185       185       186       185       187
       185       188       188       189       188       190       188       191
       191       192       191       193       191       194       194       195
       194       196       194       197       197       198       197       199
       197       200       200       201       200       202       200       203
       203       204       203       205       203       206       206       207
       206       208       206       209       209       210       209       211
       209       212       212       213       212       214       212       215
        50        51        50        52        52        53        52        54
        52       216       216       217       216       218       218       219
       216       220       220       221       220       222       220       223
       223       224       223       225       223       226       226       227
       226       228       226       229       229       230       229       231
       229       232       232       233       232       234       232       235
       235       236       235       237       235       238       238       239
       238       240       238       241       241       242       241       243
       241       244       244       245       244       246       244       247
       247       248       247       249       247       250       250       251
       250       252       250       253       259       261       261       262
       259       263       263       264       263       265       263       266
       266       267       266       268       266       269       269       270
       269       271       269       272       272       273       272       274
       272       275       275       276       275       277       275       278
       278       279       278       280       278       281       281       282
       281       283       281       284       284       285       284       286
       284       287       287       288       287       289       287       290
       290       291       290       292       290       293       293       294
       293       295       293       296        17        18        17        19
        17        20        17        16        16        14        14        15
        14         5         5         7         5         3         3         4
         3         1         3         2         5         6         6         8
         8         9         8        29        29        30        29        31
        31        32        31       138       138       140        29        21
        21        23        21        14       138       139        24        25
        21        22        22        24        24        26         8        10
        11        10        11        12        11        13        11        37
        37        38        37        33        33        34        33        35
        35        36        33        47        47        48        47        49
        49        50        47        55        55        56        55        57
        57        58        57       254       254       256       256       257
       256       258       256       259        55        40        40        41
        40        39        40        42        42        46        46        43
        46        44        46        45        39        37       259       260
       254       255       297       299       297       300       300       304
       297       298       304       305       304       306       304       307
       307       308       307       309       307       310       310       311
       310       312       310       301       301       302       301       303
       301       313       313       314       313       315       315       316
       313       317       317       320       320       321       317       318
       317       319       300       303       322       324       322       325
       325       329       322       323       329       330       329       331
       329       332       332       333       332       334       334       335
       332       336       336       337       336       338       338       339
       336       326       326       327       326       328       326       340
       340       341       340       342       342       343       340       344
       344       347       347       348       344       345       344       346
       325       328       349       350       349       353       349       354
       354       355       354       356       356       357       354       358
       358       359       358       360       358       361       361       362
       361       363       361       351       351       352       351       368
       368       369       368       372       368       370       370       371
       351       353       372       373       372       374       372       375
       375       376       377       378       377       381       377       382
       382       383       382       384       384       385       382       386
       386       387       386       388       386       389       389       390
       389       391       389       379       379       380       379       396
       396       397       396       400       396       398       398       399
       379       381       400       401       400       402       400       403
       404       405       404       408       404       409       409       410
       409       411       411       412       409       413       413       414
       413       415       415       416       413       417       417       418
       417       419       419       420       417       406       406       407
       406       421       421       422       421       425       421       423
       423       424       406       408       425       426       425       427
       425       428       428       429       430       431       430       434
       430       435       435       436       435       437       437       438
       435       439       439       440       439       441       439       442
       442       443       442       444       444       445       442       432
       432       433       432       446       446       447       446       448
       446       449       449       450       432       434       451       452
       451       455       451       456       456       457       456       458
       456       459       459       460       459       461       459       462
       462       463       462       464       464       465       462       453
       453       454       453       466       466       467       466       468
       466       469       469       470       453       455       471       472
       471       475       471       476       476       477       476       478
       476       479       479       480       479       481       481       482
       479       483       483       484       483       485       485       486
       483       473       473       474       473       487       487       488
       487       489       487       490       490       491       473       475
       492       493       492       496       492       497       497       498
       497       499       499       500       497       501       501       502
       501       503       503       504       501       505       505       506
       505       507       507       508       505       494       494       495
       494       509       509       510       509       511       509       512
       512       513       494       496       514       515       514       518
       514       519       519       520       519       521       521       522
       519       523       523       524       523       525       523       526
       526       527       526       528       528       529       526       516
       516       517       516       530       530       531       530       532
       530       533       533       534       516       518       309       325
       312       349       360       377       403       404       388       430
       441       451       458       471       478       492       461       514
       363       364       365       364       366       364       367       364
       391       392       393       392       394       392       395       392
         2       300       535       536       535       539       535       540
       540       541       540       542       542       543       540       550
       550       551       550       552       550       553       553       554
       553       555       555       556       553       537       537       538
       537       557       557       558       557       559       557       560
       560       561       537       539       542       544       544       545
       544       546       546       547       546       548       546       549
       562       563       562       566       562       567       567       568
       567       569       567       570       570       571       570       572
       572       573       570       574       574       575       574       576
       576       577       574       564       564       565       564       578
       578       579       578       580       578       581       581       582
       564       566       583       584       583       587       583       588
       588       589       588       590       588       591       591       592
       591       593       593       594       591       595       595       596
       595       597       597       598       595       585       585       586
       585       599       599       600       599       601       599       602
       585       587       603       604       603       607       603       608
       608       609       608       610       608       611       611       612
       611       613       611       614       614       615       614       616
       616       617       614       605       605       606       605       618
       618       619       618       620       618       621       605       607
       622       623       622       626       622       627       627       628
       627       629       629       630       627       637       637       638
       637       639       639       640       637       641       641       642
       641       643       643       644       641       624       624       625
       624       645       645       646       645       647       645       648
       648       649       624       626       629       631       631       632
       631       633       633       634       633       635       633       636
       552       562       569       583       590       603       610       622
       650       651       650       654       650       655       655       656
       655       657       657       658       655       665       665       666
       665       667       665       668       668       669       668       670
       670       671       668       652       652       653       652       672
       672       673       672       674       672       675       675       676
       652       654       657       659       659       660       659       661
       661       662       661       663       661       664       677       678
       677       681       677       682       682       683       682       684
       682       685       685       686       685       687       687       688
       685       689       689       690       689       691       691       692
       689       679       679       680       679       693       693       694
       693       695       693       696       696       697       679       681
       698       699       698       702       698       703       703       704
       703       705       703       706       706       707       706       708
       708       709       706       710       710       711       710       712
       712       713       710       700       700       701       700       714
       714       715       714       716       714       717       700       702
       718       719       718       722       718       723       723       724
       723       725       723       726       726       727       726       728
       726       729       729       730       729       731       731       732
       729       720       720       721       720       733       733       734
       733       735       733       736       720       722       737       738
       737       741       737       742       742       743       742       744
       744       745       742       752       752       753       752       754
       754       755       752       756       756       757       756       758
       758       759       756       739       739       740       739       760
       760       761       760       762       760       763       763       764
       739       741       744       746       746       747       746       748
       748       749       748       750       748       751       667       677
       684       698       705       718       725       737       613       650
       765       766       765       769       765       770       770       771
       770       772       772       773       770       780       780       781
       780       782       780       783       783       784       783       785
       785       786       783       767       767       768       767       787
       787       788       787       789       787       790       790       791
       767       769       772       774       774       775       774       776
       776       777       776       778       776       779       792       793
       792       796       792       797       797       798       797       799
       797       800       800       801       800       802       802       803
       800       804       804       805       804       806       806       807
       804       794       794       795       794       808       808       809
       808       810       808       811       811       812       794       796
       813       814       813       817       813       818       818       819
       818       820       818       821       821       822       821       823
       823       824       821       825       825       826       825       827
       827       828       825       815       815       816       815       829
       829       830       829       831       829       832       815       817
       833       834       833       837       833       838       838       839
       838       840       838       841       841       842       841       843
       841       844       844       845       844       846       846       847
       844       835       835       836       835       848       848       849
       848       850       848       851       835       837       852       853
       852       856       852       857       857       858       857       859
       859       860       857       867       867       868       867       869
       869       870       867       871       871       872       871       873
       873       874       871       854       854       855       854       875
       875       876       875       877       875       878       878       879
       854       856       859       861       861       862       861       863
       863       864       863       865       863       866       782       792
       799       813       820       833       840       852       728       765
       880       881       880       884       880       885       885       886
       885       887       887       888       885       895       895       896
       895       897       895       898       898       899       898       900
       900       901       898       882       882       883       882       902
       902       903       902       904       902       905       905       906
       882       884       887       889       889       890       889       891
       891       892       891       893       891       894       907       908
       907       911       907       912       912       913       912       914
       912       915       915       916       915       917       917       918
       915       919       919       920       919       921       921       922
       919       909       909       910       909       923       923       924
       923       925       923       926       926       927       909       911
       928       929       928       932       928       933       933       934
       933       935       933       936       936       937       936       938
       938       939       936       940       940       941       940       942
       942       943       940       930       930       931       930       944
       944       945       944       946       944       947       930       932
       948       949       948       952       948       953       953       954
       953       955       953       956       956       957       956       958
       956       959       959       960       959       961       961       962
       959       950       950       951       950       963       963       964
       963       965       963       966       950       952       967       968
       967       971       967       972       972       973       972       974
       974       975       972       982       982       983       982       984
       984       985       982       986       986       987       986       988
       988       989       986       969       969       970       969       990
       990       991       990       992       990       993       993       994
       969       971       974       976       976       977       976       978
       978       979       978       980       978       981       897       907
       914       928       935       948       955       967       843       880
       995       996       995       999       995      1000      1000      1001
      1000      1002      1002      1003      1000      1010      1010      1011
      1010      1012      1010      1013      1013      1014      1013      1015
      1015      1016      1013       997       997       998       997      1017
      1017      1018      1017      1019      1017      1020      1020      1021
       997       999      1002      1004      1004      1005      1004      1006
      1006      1007      1006      1008      1006      1009      1022      1023
      1022      1026      1022      1027      1027      1028      1027      1029
      1027      1030      1030      1031      1030      1032      1032      1033
      1030      1034      1034      1035      1034      1036      1036      1037
      1034      1024      1024      1025      1024      1038      1038      1039
      1038      1040      1038      1041      1041      1042      1024      1026
      1043      1044      1043      1047      1043      1048      1048      1049
      1048      1050      1048      1051      1051      1052      1051      1053
      1053      1054      1051      1055      1055      1056      1055      1057
      1057      1058      1055      1045      1045      1046      1045      1059
      1059      1060      1059      1061      1059      1062      1045      1047
      1063      1064      1063      1067      1063      1068      1068      1069
      1068      1070      1068      1071      1071      1072      1071      1073
      1073      1074      1071      1075      1075      1076      1075      1077
      1077      1078      1075      1065      1065      1066      1065      1079
      1079      1080      1079      1081      1079      1082      1065      1067
      1083      1084      1083      1087      1083      1088      1088      1089
      1088      1090      1090      1091      1088      1098      1098      1099
      1098      1100      1100      1101      1098      1102      1102      1103
      1102      1104      1104      1105      1102      1085      1085      1086
      1085      1106      1106      1107      1106      1108      1106      1109
      1109      1110      1085      1087      1090      1092      1092      1093
      1092      1094      1094      1095      1094      1096      1094      1097
      1012      1022      1029      1043      1050      1063      1070      1083
       958       995       525       535      1136      1137      1136      1138
      1136      1169      1169      1170      1169      1171      1172      1171
      1172      1174      1174      1175      1174      1176      1173      1172
      1174      1177      1177      1178      1177      1179      1177      1180
      1180      1181      1180      1183      1183      1184      1183      1185
      1183      1186      1186      1187      1180      1182      1186      1188
      1186      1189      1189      1190      1189      1191      1189      1192
      1192      1193      1192      1194      1192      1195      1195      1196
      1195      1197      1195      1198      1198      1199      1198      1200
      1198      1201      1201      1202      1201      1203      1201      1204
      1204      1205      1204      1206      1204      1207      1207      1208
      1207      1209      1207      1210      1210      1211      1210      1212
      1210      1213      1169      1214      1214      1215      1214      1216
      1214      1217      1217      1218      1217      1219      1217      1220
      1220      1221      1220      1222      1220      1223      1223      1224
      1223      1225      1223      1226      1226      1227      1226      1228
      1226      1229      1229      1230      1229      1231      1229      1232
      1232      1233      1232      1234      1232      1235      1235      1236
      1235      1237      1235      1238      1238      1239      1238      1240
      1238      1241      1241      1242      1241      1243      1241      1244
      1244      1245      1244      1246      1244      1247      1250      1251
      1250      1252      1250      1253      1253      1254      1253      1255
      1257      1256      1255      1256      1256      1258      1258      1259
      1258      1260      1258      1261      1261      1262      1261      1263
      1261      1264      1264      1265      1264      1266      1264      1267
      1267      1268      1267      1269      1267      1270      1270      1271
      1270      1272      1270      1273      1273      1274      1273      1275
      1273      1276      1276      1277      1276      1278      1276      1279
      1279      1280      1279      1281      1279      1282      1282      1283
      1282      1284      1282      1285      1285      1286      1285      1287
      1285      1288      1288      1289      1288      1290      1288      1291
      1253      1292      1292      1293      1292      1294      1292      1295
      1295      1296      1295      1297      1295      1298      1298      1299
      1298      1300      1298      1301      1301      1302      1301      1303
      1301      1304      1304      1305      1304      1306      1304      1307
      1307      1308      1307      1309      1307      1310      1310      1311
      1310      1312      1310      1313      1313      1314      1313      1315
      1313      1316      1316      1317      1316      1318      1316      1319
      1319      1320      1319      1321      1319      1322      1322      1323
      1322      1324      1322      1325      1160      1161      1160      1162
      1162      1163      1162      1164      1162      1326      1326      1327
      1326      1328      1328      1329      1326      1330      1330      1331
      1330      1332      1330      1333      1333      1334      1333      1335
      1333      1336      1336      1337      1336      1338      1336      1339
      1339      1340      1339      1341      1339      1342      1342      1343
      1342      1344      1342      1345      1345      1346      1345      1347
      1345      1348      1348      1349      1348      1350      1348      1351
      1351      1352      1351      1353      1351      1354      1354      1355
      1354      1356      1354      1357      1357      1358      1357      1359
      1357      1360      1360      1361      1360      1362      1360      1363
      1369      1371      1371      1372      1369      1373      1373      1374
      1373      1375      1373      1376      1376      1377      1376      1378
      1376      1379      1379      1380      1379      1381      1379      1382
      1382      1383      1382      1384      1382      1385      1385      1386
      1385      1387      1385      1388      1388      1389      1388      1390
      1388      1391      1391      1392      1391      1393      1391      1394
      1394      1395      1394      1396      1394      1397      1397      1398
      1397      1399      1397      1400      1400      1401      1400      1402
      1400      1403      1403      1404      1403      1405      1403      1406
      1127      1128      1127      1129      1127      1130      1127      1126
      1126      1124      1124      1125      1124      1115      1115      1117
      1115      1113      1113      1114      1113      1111      1113      1112
      1115      1116      1116      1118      1118      1119      1118      1139
      1139      1140      1139      1141      1141      1142      1141      1248
      1248      1250      1139      1131      1131      1133      1131      1124
      1248      1249      1134      1135      1131      1132      1132      1134
      1134      1136      1118      1120      1121      1120      1121      1122
      1121      1123      1121      1147      1147      1148      1147      1143
      1143      1144      1143      1145      1145      1146      1143      1157
      1157      1158      1157      1159      1159      1160      1157      1165
      1165      1166      1165      1167      1167      1168      1167      1364
      1364      1366      1366      1367      1366      1368      1366      1369
      1165      1150      1150      1151      1150      1149      1150      1152
      1152      1156      1156      1153      1156      1154      1156      1155
      1149      1147      1369      1370      1364      1365      1407      1409
      1407      1410      1410      1414      1407      1408      1414      1415
      1414      1416      1414      1417      1417      1418      1417      1419
      1417      1420      1420      1421      1420      1422      1420      1411
      1411      1412      1411      1413      1411      1423      1423      1424
      1423      1425      1425      1426      1423      1427      1427      1430
      1430      1431      1427      1428      1427      1429      1410      1413
      1432      1434      1432      1435      1435      1439      1432      1433
      1439      1440      1439      1441      1439      1442      1442      1443
      1442      1444      1444      1445      1442      1446      1446      1447
      1446      1448      1448      1449      1446      1436      1436      1437
      1436      1438      1436      1450      1450      1451      1450      1452
      1452      1453      1450      1454      1454      1457      1457      1458
      1454      1455      1454      1456      1435      1438      1459      1460
      1459      1463      1459      1464      1464      1465      1464      1466
      1466      1467      1464      1468      1468      1469      1468      1470
      1468      1471      1471      1472      1471      1473      1471      1461
      1461      1462      1461      1478      1478      1479      1478      1482
      1478      1480      1480      1481      1461      1463      1482      1483
      1482      1484      1482      1485      1485      1486      1487      1488
      1487      1491      1487      1492      1492      1493      1492      1494
      1494      1495      1492      1496      1496      1497      1496      1498
      1496      1499      1499      1500      1499      1501      1499      1489
      1489      1490      1489      1506      1506      1507      1506      1510
      1506      1508      1508      1509      1489      1491      1510      1511
      1510      1512      1510      1513      1514      1515      1514      1518
      1514      1519      1519      1520      1519      1521      1521      1522
      1519      1523      1523      1524      1523      1525      1525      1526
      1523      1527      1527      1528      1527      1529      1529      1530
      1527      1516      1516      1517      1516      1531      1531      1532
      1531      1535      1531      1533      1533      1534      1516      1518
      1535      1536      1535      1537      1535      1538      1538      1539
      1540      1541      1540      1544      1540      1545      1545      1546
      1545      1547      1547      1548      1545      1549      1549      1550
      1549      1551      1549      1552      1552      1553      1552      1554
      1554      1555      1552      1542      1542      1543      1542      1556
      1556      1557      1556      1558      1556      1559      1559      1560
      1542      1544      1561      1562      1561      1565      1561      1566
      1566      1567      1566      1568      1566      1569      1569      1570
      1569      1571      1569      1572      1572      1573      1572      1574
      1574      1575      1572      1563      1563      1564      1563      1576
      1576      1577      1576      1578      1576      1579      1579      1580
      1563      1565      1581      1582      1581      1585      1581      1586
      1586      1587      1586      1588      1586      1589      1589      1590
      1589      1591      1591      1592      1589      1593      1593      1594
      1593      1595      1595      1596      1593      1583      1583      1584
      1583      1597      1597      1598      1597      1599      1597      1600
      1600      1601      1583      1585      1602      1603      1602      1606
      1602      1607      1607      1608      1607      1609      1609      1610
      1607      1611      1611      1612      1611      1613      1613      1614
      1611      1615      1615      1616      1615      1617      1617      1618
      1615      1604      1604      1605      1604      1619      1619      1620
      1619      1621      1619      1622      1622      1623      1604      1606
      1624      1625      1624      1628      1624      1629      1629      1630
      1629      1631      1631      1632      1629      1633      1633      1634
      1633      1635      1633      1636      1636      1637      1636      1638
      1638      1639      1636      1626      1626      1627      1626      1640
      1640      1641      1640      1642      1640      1643      1643      1644
      1626      1628      1419      1435      1422      1459      1470      1487
      1513      1514      1498      1540      1551      1561      1568      1581
      1588      1602      1571      1624      1473      1474      1475      1474
      1476      1474      1477      1474      1501      1502      1503      1502
      1504      1502      1505      1502      1112      1410      1645      1646
      1645      1649      1645      1650      1650      1651      1650      1652
      1652      1653      1650      1660      1660      1661      1660      1662
      1660      1663      1663      1664      1663      1665      1665      1666
      1663      1647      1647      1648      1647      1667      1667      1668
      1667      1669      1667      1670      1670      1671      1647      1649
      1652      1654      1654      1655      1654      1656      1656      1657
      1656      1658      1656      1659      1672      1673      1672      1676
      1672      1677      1677      1678      1677      1679      1677      1680
      1680      1681      1680      1682      1682      1683      1680      1684
      1684      1685      1684      1686      1686      1687      1684      1674
      1674      1675      1674      1688      1688      1689      1688      1690
      1688      1691      1691      1692      1674      1676      1693      1694
      1693      1697      1693      1698      1698      1699      1698      1700
      1698      1701      1701      1702      1701      1703      1703      1704
      1701      1705      1705      1706      1705      1707      1707      1708
      1705      1695      1695      1696      1695      1709      1709      1710
      1709      1711      1709      1712      1695      1697      1713      1714
      1713      1717      1713      1718      1718      1719      1718      1720
      1718      1721      1721      1722      1721      1723      1721      1724
      1724      1725      1724      1726      1726      1727      1724      1715
      1715      1716      1715      1728      1728      1729      1728      1730
      1728      1731      1715      1717      1732      1733      1732      1736
      1732      1737      1737      1738      1737      1739      1739      1740
      1737      1747      1747      1748      1747      1749      1749      1750
      1747      1751      1751      1752      1751      1753      1753      1754
      1751      1734      1734      1735      1734      1755      1755      1756
      1755      1757      1755      1758      1758      1759      1734      1736
      1739      1741      1741      1742      1741      1743      1743      1744
      1743      1745      1743      1746      1662      1672      1679      1693
      1700      1713      1720      1732      1760      1761      1760      1764
      1760      1765      1765      1766      1765      1767      1767      1768
      1765      1775      1775      1776      1775      1777      1775      1778
      1778      1779      1778      1780      1780      1781      1778      1762
      1762      1763      1762      1782      1782      1783      1782      1784
      1782      1785      1785      1786      1762      1764      1767      1769
      1769      1770      1769      1771      1771      1772      1771      1773
      1771      1774      1787      1788      1787      1791      1787      1792
      1792      1793      1792      1794      1792      1795      1795      1796
      1795      1797      1797      1798      1795      1799      1799      1800
      1799      1801      1801      1802      1799      1789      1789      1790
      1789      1803      1803      1804      1803      1805      1803      1806
      1806      1807      1789      1791      1808      1809      1808      1812
      1808      1813      1813      1814      1813      1815      1813      1816
      1816      1817      1816      1818      1818      1819      1816      1820
      1820      1821      1820      1822      1822      1823      1820      1810
      1810      1811      1810      1824      1824      1825      1824      1826
      1824      1827      1810      1812      1828      1829      1828      1832
      1828      1833      1833      1834      1833      1835      1833      1836
      1836      1837      1836      1838      1836      1839      1839      1840
      1839      1841      1841      1842      1839      1830      1830      1831
      1830      1843      1843      1844      1843      1845      1843      1846
      1830      1832      1847      1848      1847      1851      1847      1852
      1852      1853      1852      1854      1854      1855      1852      1862
      1862      1863      1862      1864      1864      1865      1862      1866
      1866      1867      1866      1868      1868      1869      1866      1849
      1849      1850      1849      1870      1870      1871      1870      1872
      1870      1873      1873      1874      1849      1851      1854      1856
      1856      1857      1856      1858      1858      1859      1858      1860
      1858      1861      1777      1787      1794      1808      1815      1828
      1835      1847      1723      1760      1875      1876      1875      1879
      1875      1880      1880      1881      1880      1882      1882      1883
      1880      1890      1890      1891      1890      1892      1890      1893
      1893      1894      1893      1895      1895      1896      1893      1877
      1877      1878      1877      1897      1897      1898      1897      1899
      1897      1900      1900      1901      1877      1879      1882      1884
      1884      1885      1884      1886      1886      1887      1886      1888
      1886      1889      1902      1903      1902      1906      1902      1907
      1907      1908      1907      1909      1907      1910      1910      1911
      1910      1912      1912      1913      1910      1914      1914      1915
      1914      1916      1916      1917      1914      1904      1904      1905
      1904      1918      1918      1919      1918      1920      1918      1921
      1921      1922      1904      1906      1923      1924      1923      1927
      1923      1928      1928      1929      1928      1930      1928      1931
      1931      1932      1931      1933      1933      1934      1931      1935
      1935      1936      1935      1937      1937      1938      1935      1925
      1925      1926      1925      1939      1939      1940      1939      1941
      1939      1942      1925      1927      1943      1944      1943      1947
      1943      1948      1948      1949      1948      1950      1948      1951
      1951      1952      1951      1953      1951      1954      1954      1955
      1954      1956      1956      1957      1954      1945      1945      1946
      1945      1958      1958      1959      1958      1960      1958      1961
      1945      1947      1962      1963      1962      1966      1962      1967
      1967      1968      1967      1969      1969      1970      1967      1977
      1977      1978      1977      1979      1979      1980      1977      1981
      1981      1982      1981      1983      1983      1984      1981      1964
      1964      1965      1964      1985      1985      1986      1985      1987
      1985      1988      1988      1989      1964      1966      1969      1971
      1971      1972      1971      1973      1973      1974      1973      1975
      1973      1976      1892      1902      1909      1923      1930      1943
      1950      1962      1838      1875      1990      1991      1990      1994
      1990      1995      1995      1996      1995      1997      1997      1998
      1995      2005      2005      2006      2005      2007      2005      2008
      2008      2009      2008      2010      2010      2011      2008      1992
      1992      1993      1992      2012      2012      2013      2012      2014
      2012      2015      2015      2016      1992      1994      1997      1999
      1999      2000      1999      2001      2001      2002      2001      2003
      2001      2004      2017      2018      2017      2021      2017      2022
      2022      2023      2022      2024      2022      2025      2025      2026
      2025      2027      2027      2028      2025      2029      2029      2030
      2029      2031      2031      2032      2029      2019      2019      2020
      2019      2033      2033      2034      2033      2035      2033      2036
      2036      2037      2019      2021      2038      2039      2038      2042
      2038      2043      2043      2044      2043      2045      2043      2046
      2046      2047      2046      2048      2048      2049      2046      2050
      2050      2051      2050      2052      2052      2053      2050      2040
      2040      2041      2040      2054      2054      2055      2054      2056
      2054      2057      2040      2042      2058      2059      2058      2062
      2058      2063      2063      2064      2063      2065      2063      2066
      2066      2067      2066      2068      2066      2069      2069      2070
      2069      2071      2071      2072      2069      2060      2060      2061
      2060      2073      2073      2074      2073      2075      2073      2076
      2060      2062      2077      2078      2077      2081      2077      2082
      2082      2083      2082      2084      2084      2085      2082      2092
      2092      2093      2092      2094      2094      2095      2092      2096
      2096      2097      2096      2098      2098      2099      2096      2079
      2079      2080      2079      2100      2100      2101      2100      2102
      2100      2103      2103      2104      2079      2081      2084      2086
      2086      2087      2086      2088      2088      2089      2088      2090
      2088      2091      2007      2017      2024      2038      2045      2058
      2065      2077      1953      1990      2105      2106      2105      2109
      2105      2110      2110      2111      2110      2112      2112      2113
      2110      2120      2120      2121      2120      2122      2120      2123
      2123      2124      2123      2125      2125      2126      2123      2107
      2107      2108      2107      2127      2127      2128      2127      2129
      2127      2130      2130      2131      2107      2109      2112      2114
      2114      2115      2114      2116      2116      2117      2116      2118
      2116      2119      2132      2133      2132      2136      2132      2137
      2137      2138      2137      2139      2137      2140      2140      2141
      2140      2142      2142      2143      2140      2144      2144      2145
      2144      2146      2146      2147      2144      2134      2134      2135
      2134      2148      2148      2149      2148      2150      2148      2151
      2151      2152      2134      2136      2153      2154      2153      2157
      2153      2158      2158      2159      2158      2160      2158      2161
      2161      2162      2161      2163      2163      2164      2161      2165
      2165      2166      2165      2167      2167      2168      2165      2155
      2155      2156      2155      2169      2169      2170      2169      2171
      2169      2172      2155      2157      2173      2174      2173      2177
      2173      2178      2178      2179      2178      2180      2178      2181
      2181      2182      2181      2183      2183      2184      2181      2185
      2185      2186      2185      2187      2187      2188      2185      2175
      2175      2176      2175      2189      2189      2190      2189      2191
      2189      2192      2175      2177      2193      2194      2193      2197
      2193      2198      2198      2199      2198      2200      2200      2201
      2198      2208      2208      2209      2208      2210      2210      2211
      2208      2212      2212      2213      2212      2214      2214      2215
      2212      2195      2195      2196      2195      2216      2216      2217
      2216      2218      2216      2219      2219      2220      2195      2197
      2200      2202      2202      2203      2202      2204      2204      2205
      2204      2206      2204      2207      2122      2132      2139      2153
      2160      2173      2180      2193      2068      2105      1635      1645
      2246      2247      2246      2248      2246      2279      2279      2280
      2279      2281      2282      2281      2282      2284      2284      2285
      2284      2286      2283      2282      2284      2287      2287      2288
      2287      2289      2287      2290      2290      2291      2290      2293
      2293      2294      2293      2295      2293      2296      2296      2297
      2290      2292      2296      2298      2296      2299      2299      2300
      2299      2301      2299      2302      2302      2303      2302      2304
      2302      2305      2305      2306      2305      2307      2305      2308
      2308      2309      2308      2310      2308      2311      2311      2312
      2311      2313      2311      2314      2314      2315      2314      2316
      2314      2317      2317      2318      2317      2319      2317      2320
      2320      2321      2320      2322      2320      2323      2279      2324
      2324      2325      2324      2326      2324      2327      2327      2328
      2327      2329      2327      2330      2330      2331      2330      2332
      2330      2333      2333      2334      2333      2335      2333      2336
      2336      2337      2336      2338      2336      2339      2339      2340
      2339      2341      2339      2342      2342      2343      2342      2344
      2342      2345      2345      2346      2345      2347      2345      2348
      2348      2349      2348      2350      2348      2351      2351      2352
      2351      2353      2351      2354      2354      2355      2354      2356
      2354      2357      2360      2361      2360      2362      2360      2363
      2363      2364      2363      2365      2367      2366      2365      2366
      2366      2368      2368      2369      2368      2370      2368      2371
      2371      2372      2371      2373      2371      2374      2374      2375
      2374      2376      2374      2377      2377      2378      2377      2379
      2377      2380      2380      2381      2380      2382      2380      2383
      2383      2384      2383      2385      2383      2386      2386      2387
      2386      2388      2386      2389      2389      2390      2389      2391
      2389      2392      2392      2393      2392      2394      2392      2395
      2395      2396      2395      2397      2395      2398      2398      2399
      2398      2400      2398      2401      2363      2402      2402      2403
      2402      2404      2402      2405      2405      2406      2405      2407
      2405      2408      2408      2409      2408      2410      2408      2411
      2411      2412      2411      2413      2411      2414      2414      2415
      2414      2416      2414      2417      2417      2418      2417      2419
      2417      2420      2420      2421      2420      2422      2420      2423
      2423      2424      2423      2425      2423      2426      2426      2427
      2426      2428      2426      2429      2429      2430      2429      2431
      2429      2432      2432      2433      2432      2434      2432      2435
      2270      2271      2270      2272      2272      2273      2272      2274
      2272      2436      2436      2437      2436      2438      2438      2439
      2436      2440      2440      2441      2440      2442      2440      2443
      2443      2444      2443      2445      2443      2446      2446      2447
      2446      2448      2446      2449      2449      2450      2449      2451
      2449      2452      2452      2453      2452      2454      2452      2455
      2455      2456      2455      2457      2455      2458      2458      2459
      2458      2460      2458      2461      2461      2462      2461      2463
      2461      2464      2464      2465      2464      2466      2464      2467
      2467      2468      2467      2469      2467      2470      2470      2471
      2470      2472      2470      2473      2479      2481      2481      2482
      2479      2483      2483      2484      2483      2485      2483      2486
      2486      2487      2486      2488      2486      2489      2489      2490
      2489      2491      2489      2492      2492      2493      2492      2494
      2492      2495      2495      2496      2495      2497      2495      2498
      2498      2499      2498      2500      2498      2501      2501      2502
      2501      2503      2501      2504      2504      2505      2504      2506
      2504      2507      2507      2508      2507      2509      2507      2510
      2510      2511      2510      2512      2510      2513      2513      2514
      2513      2515      2513      2516      2237      2238      2237      2239
      2237      2240      2237      2236      2236      2234      2234      2235
      2234      2225      2225      2227      2225      2223      2223      2224
      2223      2221      2223      2222      2225      2226      2226      2228
      2228      2229      2228      2249      2249      2250      2249      2251
      2251      2252      2251      2358      2358      2360      2249      2241
      2241      2243      2241      2234      2358      2359      2244      2245
      2241      2242      2242      2244      2244      2246      2228      2230
      2231      2230      2231      2232      2231      2233      2231      2257
      2257      2258      2257      2253      2253      2254      2253      2255
      2255      2256      2253      2267      2267      2268      2267      2269
      2269      2270      2267      2275      2275      2276      2275      2277
      2277      2278      2277      2474      2474      2476      2476      2477
      2476      2478      2476      2479      2275      2260      2260      2261
      2260      2259      2260      2262      2262      2266      2266      2263
      2266      2264      2266      2265      2259      2257      2479      2480
      2474      2475      2517      2519      2517      2520      2520      2524
      2517      2518      2524      2525      2524      2526      2524      2527
      2527      2528      2527      2529      2527      2530      2530      2531
      2530      2532      2530      2521      2521      2522      2521      2523
      2521      2533      2533      2534      2533      2535      2535      2536
      2533      2537      2537      2540      2540      2541      2537      2538
      2537      2539      2520      2523      2542      2544      2542      2545
      2545      2549      2542      2543      2549      2550      2549      2551
      2549      2552      2552      2553      2552      2554      2554      2555
      2552      2556      2556      2557      2556      2558      2558      2559
      2556      2546      2546      2547      2546      2548      2546      2560
      2560      2561      2560      2562      2562      2563      2560      2564
      2564      2567      2567      2568      2564      2565      2564      2566
      2545      2548      2569      2570      2569      2573      2569      2574
      2574      2575      2574      2576      2576      2577      2574      2578
      2578      2579      2578      2580      2578      2581      2581      2582
      2581      2583      2581      2571      2571      2572      2571      2588
      2588      2589      2588      2592      2588      2590      2590      2591
      2571      2573      2592      2593      2592      2594      2592      2595
      2595      2596      2597      2598      2597      2601      2597      2602
      2602      2603      2602      2604      2604      2605      2602      2606
      2606      2607      2606      2608      2606      2609      2609      2610
      2609      2611      2609      2599      2599      2600      2599      2616
      2616      2617      2616      2620      2616      2618      2618      2619
      2599      2601      2620      2621      2620      2622      2620      2623
      2624      2625      2624      2628      2624      2629      2629      2630
      2629      2631      2631      2632      2629      2633      2633      2634
      2633      2635      2635      2636      2633      2637      2637      2638
      2637      2639      2639      2640      2637      2626      2626      2627
      2626      2641      2641      2642      2641      2645      2641      2643
      2643      2644      2626      2628      2645      2646      2645      2647
      2645      2648      2648      2649      2650      2651      2650      2654
      2650      2655      2655      2656      2655      2657      2657      2658
      2655      2659      2659      2660      2659      2661      2659      2662
      2662      2663      2662      2664      2664      2665      2662      2652
      2652      2653      2652      2666      2666      2667      2666      2668
      2666      2669      2669      2670      2652      2654      2671      2672
      2671      2675      2671      2676      2676      2677      2676      2678
      2676      2679      2679      2680      2679      2681      2679      2682
      2682      2683      2682      2684      2684      2685      2682      2673
      2673      2674      2673      2686      2686      2687      2686      2688
      2686      2689      2689      2690      2673      2675      2691      2692
      2691      2695      2691      2696      2696      2697      2696      2698
      2696      2699      2699      2700      2699      2701      2701      2702
      2699      2703      2703      2704      2703      2705      2705      2706
      2703      2693      2693      2694      2693      2707      2707      2708
      2707      2709      2707      2710      2710      2711      2693      2695
      2712      2713      2712      2716      2712      2717      2717      2718
      2717      2719      2719      2720      2717      2721      2721      2722
      2721      2723      2723      2724      2721      2725      2725      2726
      2725      2727      2727      2728      2725      2714      2714      2715
      2714      2729      2729      2730      2729      2731      2729      2732
      2732      2733      2714      2716      2734      2735      2734      2738
      2734      2739      2739      2740      2739      2741      2741      2742
      2739      2743      2743      2744      2743      2745      2743      2746
      2746      2747      2746      2748      2748      2749      2746      2736
      2736      2737      2736      2750      2750      2751      2750      2752
      2750      2753      2753      2754      2736      2738      2529      2545
      2532      2569      2580      2597      2623      2624      2608      2650
      2661      2671      2678      2691      2698      2712      2681      2734
      2583      2584      2585      2584      2586      2584      2587      2584
      2611      2612      2613      2612      2614      2612      2615      2612
      2222      2520      2755      2756      2755      2759      2755      2760
      2760      2761      2760      2762      2762      2763      2760      2770
      2770      2771      2770      2772      2770      2773      2773      2774
      2773      2775      2775      2776      2773      2757      2757      2758
      2757      2777      2777      2778      2777      2779      2777      2780
      2780      2781      2757      2759      2762      2764      2764      2765
      2764      2766      2766      2767      2766      2768      2766      2769
      2782      2783      2782      2786      2782      2787      2787      2788
      2787      2789      2787      2790      2790      2791      2790      2792
      2792      2793      2790      2794      2794      2795      2794      2796
      2796      2797      2794      2784      2784      2785      2784      2798
      2798      2799      2798      2800      2798      2801      2801      2802
      2784      2786      2803      2804      2803      2807      2803      2808
      2808      2809      2808      2810      2808      2811      2811      2812
      2811      2813      2813      2814      2811      2815      2815      2816
      2815      2817      2817      2818      2815      2805      2805      2806
      2805      2819      2819      2820      2819      2821      2819      2822
      2805      2807      2823      2824      2823      2827      2823      2828
      2828      2829      2828      2830      2828      2831      2831      2832
      2831      2833      2831      2834      2834      2835      2834      2836
      2836      2837      2834      2825      2825      2826      2825      2838
      2838      2839      2838      2840      2838      2841      2825      2827
      2842      2843      2842      2846      2842      2847      2847      2848
      2847      2849      2849      2850      2847      2857      2857      2858
      2857      2859      2859      2860      2857      2861      2861      2862
      2861      2863      2863      2864      2861      2844      2844      2845
      2844      2865      2865      2866      2865      2867      2865      2868
      2868      2869      2844      2846      2849      2851      2851      2852
      2851      2853      2853      2854      2853      2855      2853      2856
      2772      2782      2789      2803      2810      2823      2830      2842
      2870      2871      2870      2874      2870      2875      2875      2876
      2875      2877      2877      2878      2875      2885      2885      2886
      2885      2887      2885      2888      2888      2889      2888      2890
      2890      2891      2888      2872      2872      2873      2872      2892
      2892      2893      2892      2894      2892      2895      2895      2896
      2872      2874      2877      2879      2879      2880      2879      2881
      2881      2882      2881      2883      2881      2884      2897      2898
      2897      2901      2897      2902      2902      2903      2902      2904
      2902      2905      2905      2906      2905      2907      2907      2908
      2905      2909      2909      2910      2909      2911      2911      2912
      2909      2899      2899      2900      2899      2913      2913      2914
      2913      2915      2913      2916      2916      2917      2899      2901
      2918      2919      2918      2922      2918      2923      2923      2924
      2923      2925      2923      2926      2926      2927      2926      2928
      2928      2929      2926      2930      2930      2931      2930      2932
      2932      2933      2930      2920      2920      2921      2920      2934
      2934      2935      2934      2936      2934      2937      2920      2922
      2938      2939      2938      2942      2938      2943      2943      2944
      2943      2945      2943      2946      2946      2947      2946      2948
      2946      2949      2949      2950      2949      2951      2951      2952
      2949      2940      2940      2941      2940      2953      2953      2954
      2953      2955      2953      2956      2940      2942      2957      2958
      2957      2961      2957      2962      2962      2963      2962      2964
      2964      2965      2962      2972      2972      2973      2972      2974
      2974      2975      2972      2976      2976      2977      2976      2978
      2978      2979      2976      2959      2959      2960      2959      2980
      2980      2981      2980      2982      2980      2983      2983      2984
      2959      2961      2964      2966      2966      2967      2966      2968
      2968      2969      2968      2970      2968      2971      2887      2897
      2904      2918      2925      2938      2945      2957      2833      2870
      2985      2986      2985      2989      2985      2990      2990      2991
      2990      2992      2992      2993      2990      3000      3000      3001
      3000      3002      3000      3003      3003      3004      3003      3005
      3005      3006      3003      2987      2987      2988      2987      3007
      3007      3008      3007      3009      3007      3010      3010      3011
      2987      2989      2992      2994      2994      2995      2994      2996
      2996      2997      2996      2998      2996      2999      3012      3013
      3012      3016      3012      3017      3017      3018      3017      3019
      3017      3020      3020      3021      3020      3022      3022      3023
      3020      3024      3024      3025      3024      3026      3026      3027
      3024      3014      3014      3015      3014      3028      3028      3029
      3028      3030      3028      3031      3031      3032      3014      3016
      3033      3034      3033      3037      3033      3038      3038      3039
      3038      3040      3038      3041      3041      3042      3041      3043
      3043      3044      3041      3045      3045      3046      3045      3047
      3047      3048      3045      3035      3035      3036      3035      3049
      3049      3050      3049      3051      3049      3052      3035      3037
      3053      3054      3053      3057      3053      3058      3058      3059
      3058      3060      3058      3061      3061      3062      3061      3063
      3061      3064      3064      3065      3064      3066      3066      3067
      3064      3055      3055      3056      3055      3068      3068      3069
      3068      3070      3068      3071      3055      3057      3072      3073
      3072      3076      3072      3077      3077      3078      3077      3079
      3079      3080      3077      3087      3087      3088      3087      3089
      3089      3090      3087      3091      3091      3092      3091      3093
      3093      3094      3091      3074      3074      3075      3074      3095
      3095      3096      3095      3097      3095      3098      3098      3099
      3074      3076      3079      3081      3081      3082      3081      3083
      3083      3084      3083      3085      3083      3086      3002      3012
      3019      3033      3040      3053      3060      3072      2948      2985
      3100      3101      3100      3104      3100      3105      3105      3106
      3105      3107      3107      3108      3105      3115      3115      3116
      3115      3117      3115      3118      3118      3119      3118      3120
      3120      3121      3118      3102      3102      3103      3102      3122
      3122      3123      3122      3124      3122      3125      3125      3126
      3102      3104      3107      3109      3109      3110      3109      3111
      3111      3112      3111      3113      3111      3114      3127      3128
      3127      3131      3127      3132      3132      3133      3132      3134
      3132      3135      3135      3136      3135      3137      3137      3138
      3135      3139      3139      3140      3139      3141      3141      3142
      3139      3129      3129      3130      3129      3143      3143      3144
      3143      3145      3143      3146      3146      3147      3129      3131
      3148      3149      3148      3152      3148      3153      3153      3154
      3153      3155      3153      3156      3156      3157      3156      3158
      3158      3159      3156      3160      3160      3161      3160      3162
      3162      3163      3160      3150      3150      3151      3150      3164
      3164      3165      3164      3166      3164      3167      3150      3152
      3168      3169      3168      3172      3168      3173      3173      3174
      3173      3175      3173      3176      3176      3177      3176      3178
      3176      3179      3179      3180      3179      3181      3181      3182
      3179      3170      3170      3171      3170      3183      3183      3184
      3183      3185      3183      3186      3170      3172      3187      3188
      3187      3191      3187      3192      3192      3193      3192      3194
      3194      3195      3192      3202      3202      3203      3202      3204
      3204      3205      3202      3206      3206      3207      3206      3208
      3208      3209      3206      3189      3189      3190      3189      3210
      3210      3211      3210      3212      3210      3213      3213      3214
      3189      3191      3194      3196      3196      3197      3196      3198
      3198      3199      3198      3200      3198      3201      3117      3127
      3134      3148      3155      3168      3175      3187      3063      3100
      3215      3216      3215      3219      3215      3220      3220      3221
      3220      3222      3222      3223      3220      3230      3230      3231
      3230      3232      3230      3233      3233      3234      3233      3235
      3235      3236      3233      3217      3217      3218      3217      3237
      3237      3238      3237      3239      3237      3240      3240      3241
      3217      3219      3222      3224      3224      3225      3224      3226
      3226      3227      3226      3228      3226      3229      3242      3243
      3242      3246      3242      3247      3247      3248      3247      3249
      3247      3250      3250      3251      3250      3252      3252      3253
      3250      3254      3254      3255      3254      3256      3256      3257
      3254      3244      3244      3245      3244      3258      3258      3259
      3258      3260      3258      3261      3261      3262      3244      3246
      3263      3264      3263      3267      3263      3268      3268      3269
      3268      3270      3268      3271      3271      3272      3271      3273
      3273      3274      3271      3275      3275      3276      3275      3277
      3277      3278      3275      3265      3265      3266      3265      3279
      3279      3280      3279      3281      3279      3282      3265      3267
      3283      3284      3283      3287      3283      3288      3288      3289
      3288      3290      3288      3291      3291      3292      3291      3293
      3293      3294      3291      3295      3295      3296      3295      3297
      3297      3298      3295      3285      3285      3286      3285      3299
      3299      3300      3299      3301      3299      3302      3285      3287
      3303      3304      3303      3307      3303      3308      3308      3309
      3308      3310      3310      3311      3308      3318      3318      3319
      3318      3320      3320      3321      3318      3322      3322      3323
      3322      3324      3324      3325      3322      3305      3305      3306
      3305      3326      3326      3327      3326      3328      3326      3329
      3329      3330      3305      3307      3310      3312      3312      3313
      3312      3314      3314      3315      3314      3316      3314      3317
      3232      3242      3249      3263      3270      3283      3290      3303
      3178      3215      2745      2755      3356      3357      3356      3358
      3356      3389      3389      3390      3389      3391      3392      3391
      3392      3394      3394      3395      3394      3396      3393      3392
      3394      3397      3397      3398      3397      3399      3397      3400
      3400      3401      3400      3403      3403      3404      3403      3405
      3403      3406      3406      3407      3400      3402      3406      3408
      3406      3409      3409      3410      3409      3411      3409      3412
      3412      3413      3412      3414      3412      3415      3415      3416
      3415      3417      3415      3418      3418      3419      3418      3420
      3418      3421      3421      3422      3421      3423      3421      3424
      3424      3425      3424      3426      3424      3427      3427      3428
      3427      3429      3427      3430      3430      3431      3430      3432
      3430      3433      3389      3434      3434      3435      3434      3436
      3434      3437      3437      3438      3437      3439      3437      3440
      3440      3441      3440      3442      3440      3443      3443      3444
      3443      3445      3443      3446      3446      3447      3446      3448
      3446      3449      3449      3450      3449      3451      3449      3452
      3452      3453      3452      3454      3452      3455      3455      3456
      3455      3457      3455      3458      3458      3459      3458      3460
      3458      3461      3461      3462      3461      3463      3461      3464
      3464      3465      3464      3466      3464      3467      3470      3471
      3470      3472      3470      3473      3473      3474      3473      3475
      3477      3476      3475      3476      3476      3478      3478      3479
      3478      3480      3478      3481      3481      3482      3481      3483
      3481      3484      3484      3485      3484      3486      3484      3487
      3487      3488      3487      3489      3487      3490      3490      3491
      3490      3492      3490      3493      3493      3494      3493      3495
      3493      3496      3496      3497      3496      3498      3496      3499
      3499      3500      3499      3501      3499      3502      3502      3503
      3502      3504      3502      3505      3505      3506      3505      3507
      3505      3508      3508      3509      3508      3510      3508      3511
      3473      3512      3512      3513      3512      3514      3512      3515
      3515      3516      3515      3517      3515      3518      3518      3519
      3518      3520      3518      3521      3521      3522      3521      3523
      3521      3524      3524      3525      3524      3526      3524      3527
      3527      3528      3527      3529      3527      3530      3530      3531
      3530      3532      3530      3533      3533      3534      3533      3535
      3533      3536      3536      3537      3536      3538      3536      3539
      3539      3540      3539      3541      3539      3542      3542      3543
      3542      3544      3542      3545      3380      3381      3380      3382
      3382      3383      3382      3384      3382      3546      3546      3547
      3546      3548      3548      3549      3546      3550      3550      3551
      3550      3552      3550      3553      3553      3554      3553      3555
      3553      3556      3556      3557      3556      3558      3556      3559
      3559      3560      3559      3561      3559      3562      3562      3563
      3562      3564      3562      3565      3565      3566      3565      3567
      3565      3568      3568      3569      3568      3570      3568      3571
      3571      3572      3571      3573      3571      3574      3574      3575
      3574      3576      3574      3577      3577      3578      3577      3579
      3577      3580      3580      3581      3580      3582      3580      3583
      3589      3591      3591      3592      3589      3593      3593      3594
      3593      3595      3593      3596      3596      3597      3596      3598
      3596      3599      3599      3600      3599      3601      3599      3602
      3602      3603      3602      3604      3602      3605      3605      3606
      3605      3607      3605      3608      3608      3609      3608      3610
      3608      3611      3611      3612      3611      3613      3611      3614
      3614      3615      3614      3616      3614      3617      3617      3618
      3617      3619      3617      3620      3620      3621      3620      3622
      3620      3623      3623      3624      3623      3625      3623      3626
      3347      3348      3347      3349      3347      3350      3347      3346
      3346      3344      3344      3345      3344      3335      3335      3337
      3335      3333      3333      3334      3333      3331      3333      3332
      3335      3336      3336      3338      3338      3339      3338      3359
      3359      3360      3359      3361      3361      3362      3361      3468
      3468      3470      3359      3351      3351      3353      3351      3344
      3468      3469      3354      3355      3351      3352      3352      3354
      3354      3356      3338      3340      3341      3340      3341      3342
      3341      3343      3341      3367      3367      3368      3367      3363
      3363      3364      3363      3365      3365      3366      3363      3377
      3377      3378      3377      3379      3379      3380      3377      3385
      3385      3386      3385      3387      3387      3388      3387      3584
      3584      3586      3586      3587      3586      3588      3586      3589
      3385      3370      3370      3371      3370      3369      3370      3372
      3372      3376      3376      3373      3376      3374      3376      3375
      3369      3367      3589      3590      3584      3585      3627      3629
      3627      3630      3630      3634      3627      3628      3634      3635
      3634      3636      3634      3637      3637      3638      3637      3639
      3637      3640      3640      3641      3640      3642      3640      3631
      3631      3632      3631      3633      3631      3643      3643      3644
      3643      3645      3645      3646      3643      3647      3647      3650
      3650      3651      3647      3648      3647      3649      3630      3633
      3652      3654      3652      3655      3655      3659      3652      3653
      3659      3660      3659      3661      3659      3662      3662      3663
      3662      3664      3664      3665      3662      3666      3666      3667
      3666      3668      3668      3669      3666      3656      3656      3657
      3656      3658      3656      3670      3670      3671      3670      3672
      3672      3673      3670      3674      3674      3677      3677      3678
      3674      3675      3674      3676      3655      3658      3679      3680
      3679      3683      3679      3684      3684      3685      3684      3686
      3686      3687      3684      3688      3688      3689      3688      3690
      3688      3691      3691      3692      3691      3693      3691      3681
      3681      3682      3681      3698      3698      3699      3698      3702
      3698      3700      3700      3701      3681      3683      3702      3703
      3702      3704      3702      3705      3705      3706      3707      3708
      3707      3711      3707      3712      3712      3713      3712      3714
      3714      3715      3712      3716      3716      3717      3716      3718
      3716      3719      3719      3720      3719      3721      3719      3709
      3709      3710      3709      3726      3726      3727      3726      3730
      3726      3728      3728      3729      3709      3711      3730      3731
      3730      3732      3730      3733      3734      3735      3734      3738
      3734      3739      3739      3740      3739      3741      3741      3742
      3739      3743      3743      3744      3743      3745      3745      3746
      3743      3747      3747      3748      3747      3749      3749      3750
      3747      3736      3736      3737      3736      3751      3751      3752
      3751      3755      3751      3753      3753      3754      3736      3738
      3755      3756      3755      3757      3755      3758      3758      3759
      3760      3761      3760      3764      3760      3765      3765      3766
      3765      3767      3767      3768      3765      3769      3769      3770
      3769      3771      3769      3772      3772      3773      3772      3774
      3774      3775      3772      3762      3762      3763      3762      3776
      3776      3777      3776      3778      3776      3779      3779      3780
      3762      3764      3781      3782      3781      3785      3781      3786
      3786      3787      3786      3788      3786      3789      3789      3790
      3789      3791      3789      3792      3792      3793      3792      3794
      3794      3795      3792      3783      3783      3784      3783      3796
      3796      3797      3796      3798      3796      3799      3799      3800
      3783      3785      3801      3802      3801      3805      3801      3806
      3806      3807      3806      3808      3806      3809      3809      3810
      3809      3811      3811      3812      3809      3813      3813      3814
      3813      3815      3815      3816      3813      3803      3803      3804
      3803      3817      3817      3818      3817      3819      3817      3820
      3820      3821      3803      3805      3822      3823      3822      3826
      3822      3827      3827      3828      3827      3829      3829      3830
      3827      3831      3831      3832      3831      3833      3833      3834
      3831      3835      3835      3836      3835      3837      3837      3838
      3835      3824      3824      3825      3824      3839      3839      3840
      3839      3841      3839      3842      3842      3843      3824      3826
      3844      3845      3844      3848      3844      3849      3849      3850
      3849      3851      3851      3852      3849      3853      3853      3854
      3853      3855      3853      3856      3856      3857      3856      3858
      3858      3859      3856      3846      3846      3847      3846      3860
      3860      3861      3860      3862      3860      3863      3863      3864
      3846      3848      3639      3655      3642      3679      3690      3707
      3733      3734      3718      3760      3771      3781      3788      3801
      3808      3822      3791      3844      3693      3694      3695      3694
      3696      3694      3697      3694      3721      3722      3723      3722
      3724      3722      3725      3722      3332      3630      3865      3866
      3865      3869      3865      3870      3870      3871      3870      3872
      3872      3873      3870      3880      3880      3881      3880      3882
      3880      3883      3883      3884      3883      3885      3885      3886
      3883      3867      3867      3868      3867      3887      3887      3888
      3887      3889      3887      3890      3890      3891      3867      3869
      3872      3874      3874      3875      3874      3876      3876      3877
      3876      3878      3876      3879      3892      3893      3892      3896
      3892      3897      3897      3898      3897      3899      3897      3900
      3900      3901      3900      3902      3902      3903      3900      3904
      3904      3905      3904      3906      3906      3907      3904      3894
      3894      3895      3894      3908      3908      3909      3908      3910
      3908      3911      3911      3912      3894      3896      3913      3914
      3913      3917      3913      3918      3918      3919      3918      3920
      3918      3921      3921      3922      3921      3923      3923      3924
      3921      3925      3925      3926      3925      3927      3927      3928
      3925      3915      3915      3916      3915      3929      3929      3930
      3929      3931      3929      3932      3915      3917      3933      3934
      3933      3937      3933      3938      3938      3939      3938      3940
      3938      3941      3941      3942      3941      3943      3941      3944
      3944      3945      3944      3946      3946      3947      3944      3935
      3935      3936      3935      3948      3948      3949      3948      3950
      3948      3951      3935      3937      3952      3953      3952      3956
      3952      3957      3957      3958      3957      3959      3959      3960
      3957      3967      3967      3968      3967      3969      3969      3970
      3967      3971      3971      3972      3971      3973      3973      3974
      3971      3954      3954      3955      3954      3975      3975      3976
      3975      3977      3975      3978      3978      3979      3954      3956
      3959      3961      3961      3962      3961      3963      3963      3964
      3963      3965      3963      3966      3882      3892      3899      3913
      3920      3933      3940      3952      3980      3981      3980      3984
      3980      3985      3985      3986      3985      3987      3987      3988
      3985      3995      3995      3996      3995      3997      3995      3998
      3998      3999      3998      4000      4000      4001      3998      3982
      3982      3983      3982      4002      4002      4003      4002      4004
      4002      4005      4005      4006      3982      3984      3987      3989
      3989      3990      3989      3991      3991      3992      3991      3993
      3991      3994      4007      4008      4007      4011      4007      4012
      4012      4013      4012      4014      4012      4015      4015      4016
      4015      4017      4017      4018      4015      4019      4019      4020
      4019      4021      4021      4022      4019      4009      4009      4010
      4009      4023      4023      4024      4023      4025      4023      4026
      4026      4027      4009      4011      4028      4029      4028      4032
      4028      4033      4033      4034      4033      4035      4033      4036
      4036      4037      4036      4038      4038      4039      4036      4040
      4040      4041      4040      4042      4042      4043      4040      4030
      4030      4031      4030      4044      4044      4045      4044      4046
      4044      4047      4030      4032      4048      4049      4048      4052
      4048      4053      4053      4054      4053      4055      4053      4056
      4056      4057      4056      4058      4056      4059      4059      4060
      4059      4061      4061      4062      4059      4050      4050      4051
      4050      4063      4063      4064      4063      4065      4063      4066
      4050      4052      4067      4068      4067      4071      4067      4072
      4072      4073      4072      4074      4074      4075      4072      4082
      4082      4083      4082      4084      4084      4085      4082      4086
      4086      4087      4086      4088      4088      4089      4086      4069
      4069      4070      4069      4090      4090      4091      4090      4092
      4090      4093      4093      4094      4069      4071      4074      4076
      4076      4077      4076      4078      4078      4079      4078      4080
      4078      4081      3997      4007      4014      4028      4035      4048
      4055      4067      3943      3980      4095      4096      4095      4099
      4095      4100      4100      4101      4100      4102      4102      4103
      4100      4110      4110      4111      4110      4112      4110      4113
      4113      4114      4113      4115      4115      4116      4113      4097
      4097      4098      4097      4117      4117      4118      4117      4119
      4117      4120      4120      4121      4097      4099      4102      4104
      4104      4105      4104      4106      4106      4107      4106      4108
      4106      4109      4122      4123      4122      4126      4122      4127
      4127      4128      4127      4129      4127      4130      4130      4131
      4130      4132      4132      4133      4130      4134      4134      4135
      4134      4136      4136      4137      4134      4124      4124      4125
      4124      4138      4138      4139      4138      4140      4138      4141
      4141      4142      4124      4126      4143      4144      4143      4147
      4143      4148      4148      4149      4148      4150      4148      4151
      4151      4152      4151      4153      4153      4154      4151      4155
      4155      4156      4155      4157      4157      4158      4155      4145
      4145      4146      4145      4159      4159      4160      4159      4161
      4159      4162      4145      4147      4163      4164      4163      4167
      4163      4168      4168      4169      4168      4170      4168      4171
      4171      4172      4171      4173      4171      4174      4174      4175
      4174      4176      4176      4177      4174      4165      4165      4166
      4165      4178      4178      4179      4178      4180      4178      4181
      4165      4167      4182      4183      4182      4186      4182      4187
      4187      4188      4187      4189      4189      4190      4187      4197
      4197      4198      4197      4199      4199      4200      4197      4201
      4201      4202      4201      4203      4203      4204      4201      4184
      4184      4185      4184      4205      4205      4206      4205      4207
      4205      4208      4208      4209      4184      4186      4189      4191
      4191      4192      4191      4193      4193      4194      4193      4195
      4193      4196      4112      4122      4129      4143      4150      4163
      4170      4182      4058      4095      4210      4211      4210      4214
      4210      4215      4215      4216      4215      4217      4217      4218
      4215      4225      4225      4226      4225      4227      4225      4228
      4228      4229      4228      4230      4230      4231      4228      4212
      4212      4213      4212      4232      4232      4233      4232      4234
      4232      4235      4235      4236      4212      4214      4217      4219
      4219      4220      4219      4221      4221      4222      4221      4223
      4221      4224      4237      4238      4237      4241      4237      4242
      4242      4243      4242      4244      4242      4245      4245      4246
      4245      4247      4247      4248      4245      4249      4249      4250
      4249      4251      4251      4252      4249      4239      4239      4240
      4239      4253      4253      4254      4253      4255      4253      4256
      4256      4257      4239      4241      4258      4259      4258      4262
      4258      4263      4263      4264      4263      4265      4263      4266
      4266      4267      4266      4268      4268      4269      4266      4270
      4270      4271      4270      4272      4272      4273      4270      4260
      4260      4261      4260      4274      4274      4275      4274      4276
      4274      4277      4260      4262      4278      4279      4278      4282
      4278      4283      4283      4284      4283      4285      4283      4286
      4286      4287      4286      4288      4286      4289      4289      4290
      4289      4291      4291      4292      4289      4280      4280      4281
      4280      4293      4293      4294      4293      4295      4293      4296
      4280      4282      4297      4298      4297      4301      4297      4302
      4302      4303      4302      4304      4304      4305      4302      4312
      4312      4313      4312      4314      4314      4315      4312      4316
      4316      4317      4316      4318      4318      4319      4316      4299
      4299      4300      4299      4320      4320      4321      4320      4322
      4320      4323      4323      4324      4299      4301      4304      4306
      4306      4307      4306      4308      4308      4309      4308      4310
      4308      4311      4227      4237      4244      4258      4265      4278
      4285      4297      4173      4210      4325      4326      4325      4329
      4325      4330      4330      4331      4330      4332      4332      4333
      4330      4340      4340      4341      4340      4342      4340      4343
      4343      4344      4343      4345      4345      4346      4343      4327
      4327      4328      4327      4347      4347      4348      4347      4349
      4347      4350      4350      4351      4327      4329      4332      4334
      4334      4335      4334      4336      4336      4337      4336      4338
      4336      4339      4352      4353      4352      4356      4352      4357
      4357      4358      4357      4359      4357      4360      4360      4361
      4360      4362      4362      4363      4360      4364      4364      4365
      4364      4366      4366      4367      4364      4354      4354      4355
      4354      4368      4368      4369      4368      4370      4368      4371
      4371      4372      4354      4356      4373      4374      4373      4377
      4373      4378      4378      4379      4378      4380      4378      4381
      4381      4382      4381      4383      4383      4384      4381      4385
      4385      4386      4385      4387      4387      4388      4385      4375
      4375      4376      4375      4389      4389      4390      4389      4391
      4389      4392      4375      4377      4393      4394      4393      4397
      4393      4398      4398      4399      4398      4400      4398      4401
      4401      4402      4401      4403      4403      4404      4401      4405
      4405      4406      4405      4407      4407      4408      4405      4395
      4395      4396      4395      4409      4409      4410      4409      4411
      4409      4412      4395      4397      4413      4414      4413      4417
      4413      4418      4418      4419      4418      4420      4420      4421
      4418      4428      4428      4429      4428      4430      4430      4431
      4428      4432      4432      4433      4432      4434      4434      4435
      4432      4415      4415      4416      4415      4436      4436      4437
      4436      4438      4436      4439      4439      4440      4415      4417
      4420      4422      4422      4423      4422      4424      4424      4425
      4424      4426      4424      4427      4342      4352      4359      4373
      4380      4393      4400      4413      4288      4325      3855      3865
      4466      4467      4466      4468      4466      4499      4499      4500
      4499      4501      4502      4501      4502      4504      4504      4505
      4504      4506      4503      4502      4504      4507      4507      4508
      4507      4509      4507      4510      4510      4511      4510      4513
      4513      4514      4513      4515      4513      4516      4516      4517
      4510      4512      4516      4518      4516      4519      4519      4520
      4519      4521      4519      4522      4522      4523      4522      4524
      4522      4525      4525      4526      4525      4527      4525      4528
      4528      4529      4528      4530      4528      4531      4531      4532
      4531      4533      4531      4534      4534      4535      4534      4536
      4534      4537      4537      4538      4537      4539      4537      4540
      4540      4541      4540      4542      4540      4543      4499      4544
      4544      4545      4544      4546      4544      4547      4547      4548
      4547      4549      4547      4550      4550      4551      4550      4552
      4550      4553      4553      4554      4553      4555      4553      4556
      4556      4557      4556      4558      4556      4559      4559      4560
      4559      4561      4559      4562      4562      4563      4562      4564
      4562      4565      4565      4566      4565      4567      4565      4568
      4568      4569      4568      4570      4568      4571      4571      4572
      4571      4573      4571      4574      4574      4575      4574      4576
      4574      4577      4580      4581      4580      4582      4580      4583
      4583      4584      4583      4585      4587      4586      4585      4586
      4586      4588      4588      4589      4588      4590      4588      4591
      4591      4592      4591      4593      4591      4594      4594      4595
      4594      4596      4594      4597      4597      4598      4597      4599
      4597      4600      4600      4601      4600      4602      4600      4603
      4603      4604      4603      4605      4603      4606      4606      4607
      4606      4608      4606      4609      4609      4610      4609      4611
      4609      4612      4612      4613      4612      4614      4612      4615
      4615      4616      4615      4617      4615      4618      4618      4619
      4618      4620      4618      4621      4583      4622      4622      4623
      4622      4624      4622      4625      4625      4626      4625      4627
      4625      4628      4628      4629      4628      4630      4628      4631
      4631      4632      4631      4633      4631      4634      4634      4635
      4634      4636      4634      4637      4637      4638      4637      4639
      4637      4640      4640      4641      4640      4642      4640      4643
      4643      4644      4643      4645      4643      4646      4646      4647
      4646      4648      4646      4649      4649      4650      4649      4651
      4649      4652      4652      4653      4652      4654      4652      4655
      4490      4491      4490      4492      4492      4493      4492      4494
      4492      4656      4656      4657      4656      4658      4658      4659
      4656      4660      4660      4661      4660      4662      4660      4663
      4663      4664      4663      4665      4663      4666      4666      4667
      4666      4668      4666      4669      4669      4670      4669      4671
      4669      4672      4672      4673      4672      4674      4672      4675
      4675      4676      4675      4677      4675      4678      4678      4679
      4678      4680      4678      4681      4681      4682      4681      4683
      4681      4684      4684      4685      4684      4686      4684      4687
      4687      4688      4687      4689      4687      4690      4690      4691
      4690      4692      4690      4693      4699      4701      4701      4702
      4699      4703      4703      4704      4703      4705      4703      4706
      4706      4707      4706      4708      4706      4709      4709      4710
      4709      4711      4709      4712      4712      4713      4712      4714
      4712      4715      4715      4716      4715      4717      4715      4718
      4718      4719      4718      4720      4718      4721      4721      4722
      4721      4723      4721      4724      4724      4725      4724      4726
      4724      4727      4727      4728      4727      4729      4727      4730
      4730      4731      4730      4732      4730      4733      4733      4734
      4733      4735      4733      4736      4457      4458      4457      4459
      4457      4460      4457      4456      4456      4454      4454      4455
      4454      4445      4445      4447      4445      4443      4443      4444
      4443      4441      4443      4442      4445      4446      4446      4448
      4448      4449      4448      4469      4469      4470      4469      4471
      4471      4472      4471      4578      4578      4580      4469      4461
      4461      4463      4461      4454      4578      4579      4464      4465
      4461      4462      4462      4464      4464      4466      4448      4450
      4451      4450      4451      4452      4451      4453      4451      4477
      4477      4478      4477      4473      4473      4474      4473      4475
      4475      4476      4473      4487      4487      4488      4487      4489
      4489      4490      4487      4495      4495      4496      4495      4497
      4497      4498      4497      4694      4694      4696      4696      4697
      4696      4698      4696      4699      4495      4480      4480      4481
      4480      4479      4480      4482      4482      4486      4486      4483
      4486      4484      4486      4485      4479      4477      4699      4700
      4694      4695      4737      4739      4737      4740      4740      4744
      4737      4738      4744      4745      4744      4746      4744      4747
      4747      4748      4747      4749      4747      4750      4750      4751
      4750      4752      4750      4741      4741      4742      4741      4743
      4741      4753      4753      4754      4753      4755      4755      4756
      4753      4757      4757      4760      4760      4761      4757      4758
      4757      4759      4740      4743      4762      4764      4762      4765
      4765      4769      4762      4763      4769      4770      4769      4771
      4769      4772      4772      4773      4772      4774      4774      4775
      4772      4776      4776      4777      4776      4778      4778      4779
      4776      4766      4766      4767      4766      4768      4766      4780
      4780      4781      4780      4782      4782      4783      4780      4784
      4784      4787      4787      4788      4784      4785      4784      4786
      4765      4768      4789      4790      4789      4793      4789      4794
      4794      4795      4794      4796      4796      4797      4794      4798
      4798      4799      4798      4800      4798      4801      4801      4802
      4801      4803      4801      4791      4791      4792      4791      4808
      4808      4809      4808      4812      4808      4810      4810      4811
      4791      4793      4812      4813      4812      4814      4812      4815
      4815      4816      4817      4818      4817      4821      4817      4822
      4822      4823      4822      4824      4824      4825      4822      4826
      4826      4827      4826      4828      4826      4829      4829      4830
      4829      4831      4829      4819      4819      4820      4819      4836
      4836      4837      4836      4840      4836      4838      4838      4839
      4819      4821      4840      4841      4840      4842      4840      4843
      4844      4845      4844      4848      4844      4849      4849      4850
      4849      4851      4851      4852      4849      4853      4853      4854
      4853      4855      4855      4856      4853      4857      4857      4858
      4857      4859      4859      4860      4857      4846      4846      4847
      4846      4861      4861      4862      4861      4865      4861      4863
      4863      4864      4846      4848      4865      4866      4865      4867
      4865      4868      4868      4869      4870      4871      4870      4874
      4870      4875      4875      4876      4875      4877      4877      4878
      4875      4879      4879      4880      4879      4881      4879      4882
      4882      4883      4882      4884      4884      4885      4882      4872
      4872      4873      4872      4886      4886      4887      4886      4888
      4886      4889      4889      4890      4872      4874      4891      4892
      4891      4895      4891      4896      4896      4897      4896      4898
      4896      4899      4899      4900      4899      4901      4899      4902
      4902      4903      4902      4904      4904      4905      4902      4893
      4893      4894      4893      4906      4906      4907      4906      4908
      4906      4909      4909      4910      4893      4895      4911      4912
      4911      4915      4911      4916      4916      4917      4916      4918
      4916      4919      4919      4920      4919      4921      4921      4922
      4919      4923      4923      4924      4923      4925      4925      4926
      4923      4913      4913      4914      4913      4927      4927      4928
      4927      4929      4927      4930      4930      4931      4913      4915
      4932      4933      4932      4936      4932      4937      4937      4938
      4937      4939      4939      4940      4937      4941      4941      4942
      4941      4943      4943      4944      4941      4945      4945      4946
      4945      4947      4947      4948      4945      4934      4934      4935
      4934      4949      4949      4950      4949      4951      4949      4952
      4952      4953      4934      4936      4954      4955      4954      4958
      4954      4959      4959      4960      4959      4961      4961      4962
      4959      4963      4963      4964      4963      4965      4963      4966
      4966      4967      4966      4968      4968      4969      4966      4956
      4956      4957      4956      4970      4970      4971      4970      4972
      4970      4973      4973      4974      4956      4958      4749      4765
      4752      4789      4800      4817      4843      4844      4828      4870
      4881      4891      4898      4911      4918      4932      4901      4954
      4803      4804      4805      4804      4806      4804      4807      4804
      4831      4832      4833      4832      4834      4832      4835      4832
      4442      4740      4975      4976      4975      4979      4975      4980
      4980      4981      4980      4982      4982      4983      4980      4990
      4990      4991      4990      4992      4990      4993      4993      4994
      4993      4995      4995      4996      4993      4977      4977      4978
      4977      4997      4997      4998      4997      4999      4997      5000
      5000      5001      4977      4979      4982      4984      4984      4985
      4984      4986      4986      4987      4986      4988      4986      4989
      5002      5003      5002      5006      5002      5007      5007      5008
      5007      5009      5007      5010      5010      5011      5010      5012
      5012      5013      5010      5014      5014      5015      5014      5016
      5016      5017      5014      5004      5004      5005      5004      5018
      5018      5019      5018      5020      5018      5021      5021      5022
      5004      5006      5023      5024      5023      5027      5023      5028
      5028      5029      5028      5030      5028      5031      5031      5032
      5031      5033      5033      5034      5031      5035      5035      5036
      5035      5037      5037      5038      5035      5025      5025      5026
      5025      5039      5039      5040      5039      5041      5039      5042
      5025      5027      5043      5044      5043      5047      5043      5048
      5048      5049      5048      5050      5048      5051      5051      5052
      5051      5053      5051      5054      5054      5055      5054      5056
      5056      5057      5054      5045      5045      5046      5045      5058
      5058      5059      5058      5060      5058      5061      5045      5047
      5062      5063      5062      5066      5062      5067      5067      5068
      5067      5069      5069      5070      5067      5077      5077      5078
      5077      5079      5079      5080      5077      5081      5081      5082
      5081      5083      5083      5084      5081      5064      5064      5065
      5064      5085      5085      5086      5085      5087      5085      5088
      5088      5089      5064      5066      5069      5071      5071      5072
      5071      5073      5073      5074      5073      5075      5073      5076
      4992      5002      5009      5023      5030      5043      5050      5062
      5090      5091      5090      5094      5090      5095      5095      5096
      5095      5097      5097      5098      5095      5105      5105      5106
      5105      5107      5105      5108      5108      5109      5108      5110
      5110      5111      5108      5092      5092      5093      5092      5112
      5112      5113      5112      5114      5112      5115      5115      5116
      5092      5094      5097      5099      5099      5100      5099      5101
      5101      5102      5101      5103      5101      5104      5117      5118
      5117      5121      5117      5122      5122      5123      5122      5124
      5122      5125      5125      5126      5125      5127      5127      5128
      5125      5129      5129      5130      5129      5131      5131      5132
      5129      5119      5119      5120      5119      5133      5133      5134
      5133      5135      5133      5136      5136      5137      5119      5121
      5138      5139      5138      5142      5138      5143      5143      5144
      5143      5145      5143      5146      5146      5147      5146      5148
      5148      5149      5146      5150      5150      5151      5150      5152
      5152      5153      5150      5140      5140      5141      5140      5154
      5154      5155      5154      5156      5154      5157      5140      5142
      5158      5159      5158      5162      5158      5163      5163      5164
      5163      5165      5163      5166      5166      5167      5166      5168
      5166      5169      5169      5170      5169      5171      5171      5172
      5169      5160      5160      5161      5160      5173      5173      5174
      5173      5175      5173      5176      5160      5162      5177      5178
      5177      5181      5177      5182      5182      5183      5182      5184
      5184      5185      5182      5192      5192      5193      5192      5194
      5194      5195      5192      5196      5196      5197      5196      5198
      5198      5199      5196      5179      5179      5180      5179      5200
      5200      5201      5200      5202      5200      5203      5203      5204
      5179      5181      5184      5186      5186      5187      5186      5188
      5188      5189      5188      5190      5188      5191      5107      5117
      5124      5138      5145      5158      5165      5177      5053      5090
      5205      5206      5205      5209      5205      5210      5210      5211
      5210      5212      5212      5213      5210      5220      5220      5221
      5220      5222      5220      5223      5223      5224      5223      5225
      5225      5226      5223      5207      5207      5208      5207      5227
      5227      5228      5227      5229      5227      5230      5230      5231
      5207      5209      5212      5214      5214      5215      5214      5216
      5216      5217      5216      5218      5216      5219      5232      5233
      5232      5236      5232      5237      5237      5238      5237      5239
      5237      5240      5240      5241      5240      5242      5242      5243
      5240      5244      5244      5245      5244      5246      5246      5247
      5244      5234      5234      5235      5234      5248      5248      5249
      5248      5250      5248      5251      5251      5252      5234      5236
      5253      5254      5253      5257      5253      5258      5258      5259
      5258      5260      5258      5261      5261      5262      5261      5263
      5263      5264      5261      5265      5265      5266      5265      5267
      5267      5268      5265      5255      5255      5256      5255      5269
      5269      5270      5269      5271      5269      5272      5255      5257
      5273      5274      5273      5277      5273      5278      5278      5279
      5278      5280      5278      5281      5281      5282      5281      5283
      5281      5284      5284      5285      5284      5286      5286      5287
      5284      5275      5275      5276      5275      5288      5288      5289
      5288      5290      5288      5291      5275      5277      5292      5293
      5292      5296      5292      5297      5297      5298      5297      5299
      5299      5300      5297      5307      5307      5308      5307      5309
      5309      5310      5307      5311      5311      5312      5311      5313
      5313      5314      5311      5294      5294      5295      5294      5315
      5315      5316      5315      5317      5315      5318      5318      5319
      5294      5296      5299      5301      5301      5302      5301      5303
      5303      5304      5303      5305      5303      5306      5222      5232
      5239      5253      5260      5273      5280      5292      5168      5205
      5320      5321      5320      5324      5320      5325      5325      5326
      5325      5327      5327      5328      5325      5335      5335      5336
      5335      5337      5335      5338      5338      5339      5338      5340
      5340      5341      5338      5322      5322      5323      5322      5342
      5342      5343      5342      5344      5342      5345      5345      5346
      5322      5324      5327      5329      5329      5330      5329      5331
      5331      5332      5331      5333      5331      5334      5347      5348
      5347      5351      5347      5352      5352      5353      5352      5354
      5352      5355      5355      5356      5355      5357      5357      5358
      5355      5359      5359      5360      5359      5361      5361      5362
      5359      5349      5349      5350      5349      5363      5363      5364
      5363      5365      5363      5366      5366      5367      5349      5351
      5368      5369      5368      5372      5368      5373      5373      5374
      5373      5375      5373      5376      5376      5377      5376      5378
      5378      5379      5376      5380      5380      5381      5380      5382
      5382      5383      5380      5370      5370      5371      5370      5384
      5384      5385      5384      5386      5384      5387      5370      5372
      5388      5389      5388      5392      5388      5393      5393      5394
      5393      5395      5393      5396      5396      5397      5396      5398
      5396      5399      5399      5400      5399      5401      5401      5402
      5399      5390      5390      5391      5390      5403      5403      5404
      5403      5405      5403      5406      5390      5392      5407      5408
      5407      5411      5407      5412      5412      5413      5412      5414
      5414      5415      5412      5422      5422      5423      5422      5424
      5424      5425      5422      5426      5426      5427      5426      5428
      5428      5429      5426      5409      5409      5410      5409      5430
      5430      5431      5430      5432      5430      5433      5433      5434
      5409      5411      5414      5416      5416      5417      5416      5418
      5418      5419      5418      5420      5418      5421      5337      5347
      5354      5368      5375      5388      5395      5407      5283      5320
      5435      5436      5435      5439      5435      5440      5440      5441
      5440      5442      5442      5443      5440      5450      5450      5451
      5450      5452      5450      5453      5453      5454      5453      5455
      5455      5456      5453      5437      5437      5438      5437      5457
      5457      5458      5457      5459      5457      5460      5460      5461
      5437      5439      5442      5444      5444      5445      5444      5446
      5446      5447      5446      5448      5446      5449      5462      5463
      5462      5466      5462      5467      5467      5468      5467      5469
      5467      5470      5470      5471      5470      5472      5472      5473
      5470      5474      5474      5475      5474      5476      5476      5477
      5474      5464      5464      5465      5464      5478      5478      5479
      5478      5480      5478      5481      5481      5482      5464      5466
      5483      5484      5483      5487      5483      5488      5488      5489
      5488      5490      5488      5491      5491      5492      5491      5493
      5493      5494      5491      5495      5495      5496      5495      5497
      5497      5498      5495      5485      5485      5486      5485      5499
      5499      5500      5499      5501      5499      5502      5485      5487
      5503      5504      5503      5507      5503      5508      5508      5509
      5508      5510      5508      5511      5511      5512      5511      5513
      5513      5514      5511      5515      5515      5516      5515      5517
      5517      5518      5515      5505      5505      5506      5505      5519
      5519      5520      5519      5521      5519      5522      5505      5507
      5523      5524      5523      5527      5523      5528      5528      5529
      5528      5530      5530      5531      5528      5538      5538      5539
      5538      5540      5540      5541      5538      5542      5542      5543
      5542      5544      5544      5545      5542      5525      5525      5526
      5525      5546      5546      5547      5546      5548      5546      5549
      5549      5550      5525      5527      5530      5532      5532      5533
      5532      5534      5534      5535      5534      5536      5534      5537
      5452      5462      5469      5483      5490      5503      5510      5523
      5398      5435      4965      4975      5576      5577      5576      5578
      5576      5609      5609      5610      5609      5611      5612      5611
      5612      5614      5614      5615      5614      5616      5613      5612
      5614      5617      5617      5618      5617      5619      5617      5620
      5620      5621      5620      5623      5623      5624      5623      5625
      5623      5626      5626      5627      5620      5622      5626      5628
      5626      5629      5629      5630      5629      5631      5629      5632
      5632      5633      5632      5634      5632      5635      5635      5636
      5635      5637      5635      5638      5638      5639      5638      5640
      5638      5641      5641      5642      5641      5643      5641      5644
      5644      5645      5644      5646      5644      5647      5647      5648
      5647      5649      5647      5650      5650      5651      5650      5652
      5650      5653      5609      5654      5654      5655      5654      5656
      5654      5657      5657      5658      5657      5659      5657      5660
      5660      5661      5660      5662      5660      5663      5663      5664
      5663      5665      5663      5666      5666      5667      5666      5668
      5666      5669      5669      5670      5669      5671      5669      5672
      5672      5673      5672      5674      5672      5675      5675      5676
      5675      5677      5675      5678      5678      5679      5678      5680
      5678      5681      5681      5682      5681      5683      5681      5684
      5684      5685      5684      5686      5684      5687      5690      5691
      5690      5692      5690      5693      5693      5694      5693      5695
      5697      5696      5695      5696      5696      5698      5698      5699
      5698      5700      5698      5701      5701      5702      5701      5703
      5701      5704      5704      5705      5704      5706      5704      5707
      5707      5708      5707      5709      5707      5710      5710      5711
      5710      5712      5710      5713      5713      5714      5713      5715
      5713      5716      5716      5717      5716      5718      5716      5719
      5719      5720      5719      5721      5719      5722      5722      5723
      5722      5724      5722      5725      5725      5726      5725      5727
      5725      5728      5728      5729      5728      5730      5728      5731
      5693      5732      5732      5733      5732      5734      5732      5735
      5735      5736      5735      5737      5735      5738      5738      5739
      5738      5740      5738      5741      5741      5742      5741      5743
      5741      5744      5744      5745      5744      5746      5744      5747
      5747      5748      5747      5749      5747      5750      5750      5751
      5750      5752      5750      5753      5753      5754      5753      5755
      5753      5756      5756      5757      5756      5758      5756      5759
      5759      5760      5759      5761      5759      5762      5762      5763
      5762      5764      5762      5765      5600      5601      5600      5602
      5602      5603      5602      5604      5602      5766      5766      5767
      5766      5768      5768      5769      5766      5770      5770      5771
      5770      5772      5770      5773      5773      5774      5773      5775
      5773      5776      5776      5777      5776      5778      5776      5779
      5779      5780      5779      5781      5779      5782      5782      5783
      5782      5784      5782      5785      5785      5786      5785      5787
      5785      5788      5788      5789      5788      5790      5788      5791
      5791      5792      5791      5793      5791      5794      5794      5795
      5794      5796      5794      5797      5797      5798      5797      5799
      5797      5800      5800      5801      5800      5802      5800      5803
      5809      5811      5811      5812      5809      5813      5813      5814
      5813      5815      5813      5816      5816      5817      5816      5818
      5816      5819      5819      5820      5819      5821      5819      5822
      5822      5823      5822      5824      5822      5825      5825      5826
      5825      5827      5825      5828      5828      5829      5828      5830
      5828      5831      5831      5832      5831      5833      5831      5834
      5834      5835      5834      5836      5834      5837      5837      5838
      5837      5839      5837      5840      5840      5841      5840      5842
      5840      5843      5843      5844      5843      5845      5843      5846
      5567      5568      5567      5569      5567      5570      5567      5566
      5566      5564      5564      5565      5564      5555      5555      5557
      5555      5553      5553      5554      5553      5551      5553      5552
      5555      5556      5556      5558      5558      5559      5558      5579
      5579      5580      5579      5581      5581      5582      5581      5688
      5688      5690      5579      5571      5571      5573      5571      5564
      5688      5689      5574      5575      5571      5572      5572      5574
      5574      5576      5558      5560      5561      5560      5561      5562
      5561      5563      5561      5587      5587      5588      5587      5583
      5583      5584      5583      5585      5585      5586      5583      5597
      5597      5598      5597      5599      5599      5600      5597      5605
      5605      5606      5605      5607      5607      5608      5607      5804
      5804      5806      5806      5807      5806      5808      5806      5809
      5605      5590      5590      5591      5590      5589      5590      5592
      5592      5596      5596      5593      5596      5594      5596      5595
      5589      5587      5809      5810      5804      5805      5847      5849
      5847      5850      5850      5854      5847      5848      5854      5855
      5854      5856      5854      5857      5857      5858      5857      5859
      5857      5860      5860      5861      5860      5862      5860      5851
      5851      5852      5851      5853      5851      5863      5863      5864
      5863      5865      5865      5866      5863      5867      5867      5870
      5870      5871      5867      5868      5867      5869      5850      5853
      5872      5874      5872      5875      5875      5879      5872      5873
      5879      5880      5879      5881      5879      5882      5882      5883
      5882      5884      5884      5885      5882      5886      5886      5887
      5886      5888      5888      5889      5886      5876      5876      5877
      5876      5878      5876      5890      5890      5891      5890      5892
      5892      5893      5890      5894      5894      5897      5897      5898
      5894      5895      5894      5896      5875      5878      5899      5900
      5899      5903      5899      5904      5904      5905      5904      5906
      5906      5907      5904      5908      5908      5909      5908      5910
      5908      5911      5911      5912      5911      5913      5911      5901
      5901      5902      5901      5918      5918      5919      5918      5922
      5918      5920      5920      5921      5901      5903      5922      5923
      5922      5924      5922      5925      5925      5926      5927      5928
      5927      5931      5927      5932      5932      5933      5932      5934
      5934      5935      5932      5936      5936      5937      5936      5938
      5936      5939      5939      5940      5939      5941      5939      5929
      5929      5930      5929      5946      5946      5947      5946      5950
      5946      5948      5948      5949      5929      5931      5950      5951
      5950      5952      5950      5953      5954      5955      5954      5958
      5954      5959      5959      5960      5959      5961      5961      5962
      5959      5963      5963      5964      5963      5965      5965      5966
      5963      5967      5967      5968      5967      5969      5969      5970
      5967      5956      5956      5957      5956      5971      5971      5972
      5971      5975      5971      5973      5973      5974      5956      5958
      5975      5976      5975      5977      5975      5978      5978      5979
      5980      5981      5980      5984      5980      5985      5985      5986
      5985      5987      5987      5988      5985      5989      5989      5990
      5989      5991      5989      5992      5992      5993      5992      5994
      5994      5995      5992      5982      5982      5983      5982      5996
      5996      5997      5996      5998      5996      5999      5999      6000
      5982      5984      6001      6002      6001      6005      6001      6006
      6006      6007      6006      6008      6006      6009      6009      6010
      6009      6011      6009      6012      6012      6013      6012      6014
      6014      6015      6012      6003      6003      6004      6003      6016
      6016      6017      6016      6018      6016      6019      6019      6020
      6003      6005      6021      6022      6021      6025      6021      6026
      6026      6027      6026      6028      6026      6029      6029      6030
      6029      6031      6031      6032      6029      6033      6033      6034
      6033      6035      6035      6036      6033      6023      6023      6024
      6023      6037      6037      6038      6037      6039      6037      6040
      6040      6041      6023      6025      6042      6043      6042      6046
      6042      6047      6047      6048      6047      6049      6049      6050
      6047      6051      6051      6052      6051      6053      6053      6054
      6051      6055      6055      6056      6055      6057      6057      6058
      6055      6044      6044      6045      6044      6059      6059      6060
      6059      6061      6059      6062      6062      6063      6044      6046
      6064      6065      6064      6068      6064      6069      6069      6070
      6069      6071      6071      6072      6069      6073      6073      6074
      6073      6075      6073      6076      6076      6077      6076      6078
      6078      6079      6076      6066      6066      6067      6066      6080
      6080      6081      6080      6082      6080      6083      6083      6084
      6066      6068      5859      5875      5862      5899      5910      5927
      5953      5954      5938      5980      5991      6001      6008      6021
      6028      6042      6011      6064      5913      5914      5915      5914
      5916      5914      5917      5914      5941      5942      5943      5942
      5944      5942      5945      5942      5552      5850      6085      6086
      6085      6089      6085      6090      6090      6091      6090      6092
      6092      6093      6090      6100      6100      6101      6100      6102
      6100      6103      6103      6104      6103      6105      6105      6106
      6103      6087      6087      6088      6087      6107      6107      6108
      6107      6109      6107      6110      6110      6111      6087      6089
      6092      6094      6094      6095      6094      6096      6096      6097
      6096      6098      6096      6099      6112      6113      6112      6116
      6112      6117      6117      6118      6117      6119      6117      6120
      6120      6121      6120      6122      6122      6123      6120      6124
      6124      6125      6124      6126      6126      6127      6124      6114
      6114      6115      6114      6128      6128      6129      6128      6130
      6128      6131      6131      6132      6114      6116      6133      6134
      6133      6137      6133      6138      6138      6139      6138      6140
      6138      6141      6141      6142      6141      6143      6143      6144
      6141      6145      6145      6146      6145      6147      6147      6148
      6145      6135      6135      6136      6135      6149      6149      6150
      6149      6151      6149      6152      6135      6137      6153      6154
      6153      6157      6153      6158      6158      6159      6158      6160
      6158      6161      6161      6162      6161      6163      6161      6164
      6164      6165      6164      6166      6166      6167      6164      6155
      6155      6156      6155      6168      6168      6169      6168      6170
      6168      6171      6155      6157      6172      6173      6172      6176
      6172      6177      6177      6178      6177      6179      6179      6180
      6177      6187      6187      6188      6187      6189      6189      6190
      6187      6191      6191      6192      6191      6193      6193      6194
      6191      6174      6174      6175      6174      6195      6195      6196
      6195      6197      6195      6198      6198      6199      6174      6176
      6179      6181      6181      6182      6181      6183      6183      6184
      6183      6185      6183      6186      6102      6112      6119      6133
      6140      6153      6160      6172      6200      6201      6200      6204
      6200      6205      6205      6206      6205      6207      6207      6208
      6205      6215      6215      6216      6215      6217      6215      6218
      6218      6219      6218      6220      6220      6221      6218      6202
      6202      6203      6202      6222      6222      6223      6222      6224
      6222      6225      6225      6226      6202      6204      6207      6209
      6209      6210      6209      6211      6211      6212      6211      6213
      6211      6214      6227      6228      6227      6231      6227      6232
      6232      6233      6232      6234      6232      6235      6235      6236
      6235      6237      6237      6238      6235      6239      6239      6240
      6239      6241      6241      6242      6239      6229      6229      6230
      6229      6243      6243      6244      6243      6245      6243      6246
      6246      6247      6229      6231      6248      6249      6248      6252
      6248      6253      6253      6254      6253      6255      6253      6256
      6256      6257      6256      6258      6258      6259      6256      6260
      6260      6261      6260      6262      6262      6263      6260      6250
      6250      6251      6250      6264      6264      6265      6264      6266
      6264      6267      6250      6252      6268      6269      6268      6272
      6268      6273      6273      6274      6273      6275      6273      6276
      6276      6277      6276      6278      6276      6279      6279      6280
      6279      6281      6281      6282      6279      6270      6270      6271
      6270      6283      6283      6284      6283      6285      6283      6286
      6270      6272      6287      6288      6287      6291      6287      6292
      6292      6293      6292      6294      6294      6295      6292      6302
      6302      6303      6302      6304      6304      6305      6302      6306
      6306      6307      6306      6308      6308      6309      6306      6289
      6289      6290      6289      6310      6310      6311      6310      6312
      6310      6313      6313      6314      6289      6291      6294      6296
      6296      6297      6296      6298      6298      6299      6298      6300
      6298      6301      6217      6227      6234      6248      6255      6268
      6275      6287      6163      6200      6315      6316      6315      6319
      6315      6320      6320      6321      6320      6322      6322      6323
      6320      6330      6330      6331      6330      6332      6330      6333
      6333      6334      6333      6335      6335      6336      6333      6317
      6317      6318      6317      6337      6337      6338      6337      6339
      6337      6340      6340      6341      6317      6319      6322      6324
      6324      6325      6324      6326      6326      6327      6326      6328
      6326      6329      6342      6343      6342      6346      6342      6347
      6347      6348      6347      6349      6347      6350      6350      6351
      6350      6352      6352      6353      6350      6354      6354      6355
      6354      6356      6356      6357      6354      6344      6344      6345
      6344      6358      6358      6359      6358      6360      6358      6361
      6361      6362      6344      6346      6363      6364      6363      6367
      6363      6368      6368      6369      6368      6370      6368      6371
      6371      6372      6371      6373      6373      6374      6371      6375
      6375      6376      6375      6377      6377      6378      6375      6365
      6365      6366      6365      6379      6379      6380      6379      6381
      6379      6382      6365      6367      6383      6384      6383      6387
      6383      6388      6388      6389      6388      6390      6388      6391
      6391      6392      6391      6393      6391      6394      6394      6395
      6394      6396      6396      6397      6394      6385      6385      6386
      6385      6398      6398      6399      6398      6400      6398      6401
      6385      6387      6402      6403      6402      6406      6402      6407
      6407      6408      6407      6409      6409      6410      6407      6417
      6417      6418      6417      6419      6419      6420      6417      6421
      6421      6422      6421      6423      6423      6424      6421      6404
      6404      6405      6404      6425      6425      6426      6425      6427
      6425      6428      6428      6429      6404      6406      6409      6411
      6411      6412      6411      6413      6413      6414      6413      6415
      6413      6416      6332      6342      6349      6363      6370      6383
      6390      6402      6278      6315      6430      6431      6430      6434
      6430      6435      6435      6436      6435      6437      6437      6438
      6435      6445      6445      6446      6445      6447      6445      6448
      6448      6449      6448      6450      6450      6451      6448      6432
      6432      6433      6432      6452      6452      6453      6452      6454
      6452      6455      6455      6456      6432      6434      6437      6439
      6439      6440      6439      6441      6441      6442      6441      6443
      6441      6444      6457      6458      6457      6461      6457      6462
      6462      6463      6462      6464      6462      6465      6465      6466
      6465      6467      6467      6468      6465      6469      6469      6470
      6469      6471      6471      6472      6469      6459      6459      6460
      6459      6473      6473      6474      6473      6475      6473      6476
      6476      6477      6459      6461      6478      6479      6478      6482
      6478      6483      6483      6484      6483      6485      6483      6486
      6486      6487      6486      6488      6488      6489      6486      6490
      6490      6491      6490      6492      6492      6493      6490      6480
      6480      6481      6480      6494      6494      6495      6494      6496
      6494      6497      6480      6482      6498      6499      6498      6502
      6498      6503      6503      6504      6503      6505      6503      6506
      6506      6507      6506      6508      6506      6509      6509      6510
      6509      6511      6511      6512      6509      6500      6500      6501
      6500      6513      6513      6514      6513      6515      6513      6516
      6500      6502      6517      6518      6517      6521      6517      6522
      6522      6523      6522      6524      6524      6525      6522      6532
      6532      6533      6532      6534      6534      6535      6532      6536
      6536      6537      6536      6538      6538      6539      6536      6519
      6519      6520      6519      6540      6540      6541      6540      6542
      6540      6543      6543      6544      6519      6521      6524      6526
      6526      6527      6526      6528      6528      6529      6528      6530
      6528      6531      6447      6457      6464      6478      6485      6498
      6505      6517      6393      6430      6545      6546      6545      6549
      6545      6550      6550      6551      6550      6552      6552      6553
      6550      6560      6560      6561      6560      6562      6560      6563
      6563      6564      6563      6565      6565      6566      6563      6547
      6547      6548      6547      6567      6567      6568      6567      6569
      6567      6570      6570      6571      6547      6549      6552      6554
      6554      6555      6554      6556      6556      6557      6556      6558
      6556      6559      6572      6573      6572      6576      6572      6577
      6577      6578      6577      6579      6577      6580      6580      6581
      6580      6582      6582      6583      6580      6584      6584      6585
      6584      6586      6586      6587      6584      6574      6574      6575
      6574      6588      6588      6589      6588      6590      6588      6591
      6591      6592      6574      6576      6593      6594      6593      6597
      6593      6598      6598      6599      6598      6600      6598      6601
      6601      6602      6601      6603      6603      6604      6601      6605
      6605      6606      6605      6607      6607      6608      6605      6595
      6595      6596      6595      6609      6609      6610      6609      6611
      6609      6612      6595      6597      6613      6614      6613      6617
      6613      6618      6618      6619      6618      6620      6618      6621
      6621      6622      6621      6623      6623      6624      6621      6625
      6625      6626      6625      6627      6627      6628      6625      6615
      6615      6616      6615      6629      6629      6630      6629      6631
      6629      6632      6615      6617      6633      6634      6633      6637
      6633      6638      6638      6639      6638      6640      6640      6641
      6638      6648      6648      6649      6648      6650      6650      6651
      6648      6652      6652      6653      6652      6654      6654      6655
      6652      6635      6635      6636      6635      6656      6656      6657
      6656      6658      6656      6659      6659      6660      6635      6637
      6640      6642      6642      6643      6642      6644      6644      6645
      6644      6646      6644      6647      6562      6572      6579      6593
      6600      6613      6620      6633      6508      6545      6075      6085
      6686      6687      6686      6688      6686      6719      6719      6720
      6719      6721      6722      6721      6722      6724      6724      6725
      6724      6726      6723      6722      6724      6727      6727      6728
      6727      6729      6727      6730      6730      6731      6730      6733
      6733      6734      6733      6735      6733      6736      6736      6737
      6730      6732      6736      6738      6736      6739      6739      6740
      6739      6741      6739      6742      6742      6743      6742      6744
      6742      6745      6745      6746      6745      6747      6745      6748
      6748      6749      6748      6750      6748      6751      6751      6752
      6751      6753      6751      6754      6754      6755      6754      6756
      6754      6757      6757      6758      6757      6759      6757      6760
      6760      6761      6760      6762      6760      6763      6719      6764
      6764      6765      6764      6766      6764      6767      6767      6768
      6767      6769      6767      6770      6770      6771      6770      6772
      6770      6773      6773      6774      6773      6775      6773      6776
      6776      6777      6776      6778      6776      6779      6779      6780
      6779      6781      6779      6782      6782      6783      6782      6784
      6782      6785      6785      6786      6785      6787      6785      6788
      6788      6789      6788      6790      6788      6791      6791      6792
      6791      6793      6791      6794      6794      6795      6794      6796
      6794      6797      6800      6801      6800      6802      6800      6803
      6803      6804      6803      6805      6807      6806      6805      6806
      6806      6808      6808      6809      6808      6810      6808      6811
      6811      6812      6811      6813      6811      6814      6814      6815
      6814      6816      6814      6817      6817      6818      6817      6819
      6817      6820      6820      6821      6820      6822      6820      6823
      6823      6824      6823      6825      6823      6826      6826      6827
      6826      6828      6826      6829      6829      6830      6829      6831
      6829      6832      6832      6833      6832      6834      6832      6835
      6835      6836      6835      6837      6835      6838      6838      6839
      6838      6840      6838      6841      6803      6842      6842      6843
      6842      6844      6842      6845      6845      6846      6845      6847
      6845      6848      6848      6849      6848      6850      6848      6851
      6851      6852      6851      6853      6851      6854      6854      6855
      6854      6856      6854      6857      6857      6858      6857      6859
      6857      6860      6860      6861      6860      6862      6860      6863
      6863      6864      6863      6865      6863      6866      6866      6867
      6866      6868      6866      6869      6869      6870      6869      6871
      6869      6872      6872      6873      6872      6874      6872      6875
      6710      6711      6710      6712      6712      6713      6712      6714
      6712      6876      6876      6877      6876      6878      6878      6879
      6876      6880      6880      6881      6880      6882      6880      6883
      6883      6884      6883      6885      6883      6886      6886      6887
      6886      6888      6886      6889      6889      6890      6889      6891
      6889      6892      6892      6893      6892      6894      6892      6895
      6895      6896      6895      6897      6895      6898      6898      6899
      6898      6900      6898      6901      6901      6902      6901      6903
      6901      6904      6904      6905      6904      6906      6904      6907
      6907      6908      6907      6909      6907      6910      6910      6911
      6910      6912      6910      6913      6919      6921      6921      6922
      6919      6923      6923      6924      6923      6925      6923      6926
      6926      6927      6926      6928      6926      6929      6929      6930
      6929      6931      6929      6932      6932      6933      6932      6934
      6932      6935      6935      6936      6935      6937      6935      6938
      6938      6939      6938      6940      6938      6941      6941      6942
      6941      6943      6941      6944      6944      6945      6944      6946
      6944      6947      6947      6948      6947      6949      6947      6950
      6950      6951      6950      6952      6950      6953      6953      6954
      6953      6955      6953      6956      6677      6678      6677      6679
      6677      6680      6677      6676      6676      6674      6674      6675
      6674      6665      6665      6667      6665      6663      6663      6664
      6663      6661      6663      6662      6665      6666      6666      6668
      6668      6669      6668      6689      6689      6690      6689      6691
      6691      6692      6691      6798      6798      6800      6689      6681
      6681      6683      6681      6674      6798      6799      6684      6685
      6681      6682      6682      6684      6684      6686      6668      6670
      6671      6670      6671      6672      6671      6673      6671      6697
      6697      6698      6697      6693      6693      6694      6693      6695
      6695      6696      6693      6707      6707      6708      6707      6709
      6709      6710      6707      6715      6715      6716      6715      6717
      6717      6718      6717      6914      6914      6916      6916      6917
      6916      6918      6916      6919      6715      6700      6700      6701
      6700      6699      6700      6702      6702      6706      6706      6703
      6706      6704      6706      6705      6699      6697      6919      6920
      6914      6915      6957      6959      6957      6960      6960      6964
      6957      6958      6964      6965      6964      6966      6964      6967
      6967      6968      6967      6969      6967      6970      6970      6971
      6970      6972      6970      6961      6961      6962      6961      6963
      6961      6973      6973      6974      6973      6975      6975      6976
      6973      6977      6977      6980      6980      6981      6977      6978
      6977      6979      6960      6963      6982      6984      6982      6985
      6985      6989      6982      6983      6989      6990      6989      6991
      6989      6992      6992      6993      6992      6994      6994      6995
      6992      6996      6996      6997      6996      6998      6998      6999
      6996      6986      6986      6987      6986      6988      6986      7000
      7000      7001      7000      7002      7002      7003      7000      7004
      7004      7007      7007      7008      7004      7005      7004      7006
      6985      6988      7009      7010      7009      7013      7009      7014
      7014      7015      7014      7016      7016      7017      7014      7018
      7018      7019      7018      7020      7018      7021      7021      7022
      7021      7023      7021      7011      7011      7012      7011      7028
      7028      7029      7028      7032      7028      7030      7030      7031
      7011      7013      7032      7033      7032      7034      7032      7035
      7035      7036      7037      7038      7037      7041      7037      7042
      7042      7043      7042      7044      7044      7045      7042      7046
      7046      7047      7046      7048      7046      7049      7049      7050
      7049      7051      7049      7039      7039      7040      7039      7056
      7056      7057      7056      7060      7056      7058      7058      7059
      7039      7041      7060      7061      7060      7062      7060      7063
      7064      7065      7064      7068      7064      7069      7069      7070
      7069      7071      7071      7072      7069      7073      7073      7074
      7073      7075      7075      7076      7073      7077      7077      7078
      7077      7079      7079      7080      7077      7066      7066      7067
      7066      7081      7081      7082      7081      7085      7081      7083
      7083      7084      7066      7068      7085      7086      7085      7087
      7085      7088      7088      7089      7090      7091      7090      7094
      7090      7095      7095      7096      7095      7097      7097      7098
      7095      7099      7099      7100      7099      7101      7099      7102
      7102      7103      7102      7104      7104      7105      7102      7092
      7092      7093      7092      7106      7106      7107      7106      7108
      7106      7109      7109      7110      7092      7094      7111      7112
      7111      7115      7111      7116      7116      7117      7116      7118
      7116      7119      7119      7120      7119      7121      7119      7122
      7122      7123      7122      7124      7124      7125      7122      7113
      7113      7114      7113      7126      7126      7127      7126      7128
      7126      7129      7129      7130      7113      7115      7131      7132
      7131      7135      7131      7136      7136      7137      7136      7138
      7136      7139      7139      7140      7139      7141      7141      7142
      7139      7143      7143      7144      7143      7145      7145      7146
      7143      7133      7133      7134      7133      7147      7147      7148
      7147      7149      7147      7150      7150      7151      7133      7135
      7152      7153      7152      7156      7152      7157      7157      7158
      7157      7159      7159      7160      7157      7161      7161      7162
      7161      7163      7163      7164      7161      7165      7165      7166
      7165      7167      7167      7168      7165      7154      7154      7155
      7154      7169      7169      7170      7169      7171      7169      7172
      7172      7173      7154      7156      7174      7175      7174      7178
      7174      7179      7179      7180      7179      7181      7181      7182
      7179      7183      7183      7184      7183      7185      7183      7186
      7186      7187      7186      7188      7188      7189      7186      7176
      7176      7177      7176      7190      7190      7191      7190      7192
      7190      7193      7193      7194      7176      7178      6969      6985
      6972      7009      7020      7037      7063      7064      7048      7090
      7101      7111      7118      7131      7138      7152      7121      7174
      7023      7024      7025      7024      7026      7024      7027      7024
      7051      7052      7053      7052      7054      7052      7055      7052
      6662      6960      7195      7196      7195      7199      7195      7200
      7200      7201      7200      7202      7202      7203      7200      7210
      7210      7211      7210      7212      7210      7213      7213      7214
      7213      7215      7215      7216      7213      7197      7197      7198
      7197      7217      7217      7218      7217      7219      7217      7220
      7220      7221      7197      7199      7202      7204      7204      7205
      7204      7206      7206      7207      7206      7208      7206      7209
      7222      7223      7222      7226      7222      7227      7227      7228
      7227      7229      7227      7230      7230      7231      7230      7232
      7232      7233      7230      7234      7234      7235      7234      7236
      7236      7237      7234      7224      7224      7225      7224      7238
      7238      7239      7238      7240      7238      7241      7241      7242
      7224      7226      7243      7244      7243      7247      7243      7248
      7248      7249      7248      7250      7248      7251      7251      7252
      7251      7253      7253      7254      7251      7255      7255      7256
      7255      7257      7257      7258      7255      7245      7245      7246
      7245      7259      7259      7260      7259      7261      7259      7262
      7245      7247      7263      7264      7263      7267      7263      7268
      7268      7269      7268      7270      7268      7271      7271      7272
      7271      7273      7271      7274      7274      7275      7274      7276
      7276      7277      7274      7265      7265      7266      7265      7278
      7278      7279      7278      7280      7278      7281      7265      7267
      7282      7283      7282      7286      7282      7287      7287      7288
      7287      7289      7289      7290      7287      7297      7297      7298
      7297      7299      7299      7300      7297      7301      7301      7302
      7301      7303      7303      7304      7301      7284      7284      7285
      7284      7305      7305      7306      7305      7307      7305      7308
      7308      7309      7284      7286      7289      7291      7291      7292
      7291      7293      7293      7294      7293      7295      7293      7296
      7212      7222      7229      7243      7250      7263      7270      7282
      7310      7311      7310      7314      7310      7315      7315      7316
      7315      7317      7317      7318      7315      7325      7325      7326
      7325      7327      7325      7328      7328      7329      7328      7330
      7330      7331      7328      7312      7312      7313      7312      7332
      7332      7333      7332      7334      7332      7335      7335      7336
      7312      7314      7317      7319      7319      7320      7319      7321
      7321      7322      7321      7323      7321      7324      7337      7338
      7337      7341      7337      7342      7342      7343      7342      7344
      7342      7345      7345      7346      7345      7347      7347      7348
      7345      7349      7349      7350      7349      7351      7351      7352
      7349      7339      7339      7340      7339      7353      7353      7354
      7353      7355      7353      7356      7356      7357      7339      7341
      7358      7359      7358      7362      7358      7363      7363      7364
      7363      7365      7363      7366      7366      7367      7366      7368
      7368      7369      7366      7370      7370      7371      7370      7372
      7372      7373      7370      7360      7360      7361      7360      7374
      7374      7375      7374      7376      7374      7377      7360      7362
      7378      7379      7378      7382      7378      7383      7383      7384
      7383      7385      7383      7386      7386      7387      7386      7388
      7386      7389      7389      7390      7389      7391      7391      7392
      7389      7380      7380      7381      7380      7393      7393      7394
      7393      7395      7393      7396      7380      7382      7397      7398
      7397      7401      7397      7402      7402      7403      7402      7404
      7404      7405      7402      7412      7412      7413      7412      7414
      7414      7415      7412      7416      7416      7417      7416      7418
      7418      7419      7416      7399      7399      7400      7399      7420
      7420      7421      7420      7422      7420      7423      7423      7424
      7399      7401      7404      7406      7406      7407      7406      7408
      7408      7409      7408      7410      7408      7411      7327      7337
      7344      7358      7365      7378      7385      7397      7273      7310
      7425      7426      7425      7429      7425      7430      7430      7431
      7430      7432      7432      7433      7430      7440      7440      7441
      7440      7442      7440      7443      7443      7444      7443      7445
      7445      7446      7443      7427      7427      7428      7427      7447
      7447      7448      7447      7449      7447      7450      7450      7451
      7427      7429      7432      7434      7434      7435      7434      7436
      7436      7437      7436      7438      7436      7439      7452      7453
      7452      7456      7452      7457      7457      7458      7457      7459
      7457      7460      7460      7461      7460      7462      7462      7463
      7460      7464      7464      7465      7464      7466      7466      7467
      7464      7454      7454      7455      7454      7468      7468      7469
      7468      7470      7468      7471      7471      7472      7454      7456
      7473      7474      7473      7477      7473      7478      7478      7479
      7478      7480      7478      7481      7481      7482      7481      7483
      7483      7484      7481      7485      7485      7486      7485      7487
      7487      7488      7485      7475      7475      7476      7475      7489
      7489      7490      7489      7491      7489      7492      7475      7477
      7493      7494      7493      7497      7493      7498      7498      7499
      7498      7500      7498      7501      7501      7502      7501      7503
      7501      7504      7504      7505      7504      7506      7506      7507
      7504      7495      7495      7496      7495      7508      7508      7509
      7508      7510      7508      7511      7495      7497      7512      7513
      7512      7516      7512      7517      7517      7518      7517      7519
      7519      7520      7517      7527      7527      7528      7527      7529
      7529      7530      7527      7531      7531      7532      7531      7533
      7533      7534      7531      7514      7514      7515      7514      7535
      7535      7536      7535      7537      7535      7538      7538      7539
      7514      7516      7519      7521      7521      7522      7521      7523
      7523      7524      7523      7525      7523      7526      7442      7452
      7459      7473      7480      7493      7500      7512      7388      7425
      7540      7541      7540      7544      7540      7545      7545      7546
      7545      7547      7547      7548      7545      7555      7555      7556
      7555      7557      7555      7558      7558      7559      7558      7560
      7560      7561      7558      7542      7542      7543      7542      7562
      7562      7563      7562      7564      7562      7565      7565      7566
      7542      7544      7547      7549      7549      7550      7549      7551
      7551      7552      7551      7553      7551      7554      7567      7568
      7567      7571      7567      7572      7572      7573      7572      7574
      7572      7575      7575      7576      7575      7577      7577      7578
      7575      7579      7579      7580      7579      7581      7581      7582
      7579      7569      7569      7570      7569      7583      7583      7584
      7583      7585      7583      7586      7586      7587      7569      7571
      7588      7589      7588      7592      7588      7593      7593      7594
      7593      7595      7593      7596      7596      7597      7596      7598
      7598      7599      7596      7600      7600      7601      7600      7602
      7602      7603      7600      7590      7590      7591      7590      7604
      7604      7605      7604      7606      7604      7607      7590      7592
      7608      7609      7608      7612      7608      7613      7613      7614
      7613      7615      7613      7616      7616      7617      7616      7618
      7616      7619      7619      7620      7619      7621      7621      7622
      7619      7610      7610      7611      7610      7623      7623      7624
      7623      7625      7623      7626      7610      7612      7627      7628
      7627      7631      7627      7632      7632      7633      7632      7634
      7634      7635      7632      7642      7642      7643      7642      7644
      7644      7645      7642      7646      7646      7647      7646      7648
      7648      7649      7646      7629      7629      7630      7629      7650
      7650      7651      7650      7652      7650      7653      7653      7654
      7629      7631      7634      7636      7636      7637      7636      7638
      7638      7639      7638      7640      7638      7641      7557      7567
      7574      7588      7595      7608      7615      7627      7503      7540
      7655      7656      7655      7659      7655      7660      7660      7661
      7660      7662      7662      7663      7660      7670      7670      7671
      7670      7672      7670      7673      7673      7674      7673      7675
      7675      7676      7673      7657      7657      7658      7657      7677
      7677      7678      7677      7679      7677      7680      7680      7681
      7657      7659      7662      7664      7664      7665      7664      7666
      7666      7667      7666      7668      7666      7669      7682      7683
      7682      7686      7682      7687      7687      7688      7687      7689
      7687      7690      7690      7691      7690      7692      7692      7693
      7690      7694      7694      7695      7694      7696      7696      7697
      7694      7684      7684      7685      7684      7698      7698      7699
      7698      7700      7698      7701      7701      7702      7684      7686
      7703      7704      7703      7707      7703      7708      7708      7709
      7708      7710      7708      7711      7711      7712      7711      7713
      7713      7714      7711      7715      7715      7716      7715      7717
      7717      7718      7715      7705      7705      7706      7705      7719
      7719      7720      7719      7721      7719      7722      7705      7707
      7723      7724      7723      7727      7723      7728      7728      7729
      7728      7730      7728      7731      7731      7732      7731      7733
      7733      7734      7731      7735      7735      7736      7735      7737
      7737      7738      7735      7725      7725      7726      7725      7739
      7739      7740      7739      7741      7739      7742      7725      7727
      7743      7744      7743      7747      7743      7748      7748      7749
      7748      7750      7750      7751      7748      7758      7758      7759
      7758      7760      7760      7761      7758      7762      7762      7763
      7762      7764      7764      7765      7762      7745      7745      7746
      7745      7766      7766      7767      7766      7768      7766      7769
      7769      7770      7745      7747      7750      7752      7752      7753
      7752      7754      7754      7755      7754      7756      7754      7757
      7672      7682      7689      7703      7710      7723      7730      7743
      7618      7655      7185      7195      7796      7797      7796      7798
      7796      7829      7829      7830      7829      7831      7832      7831
      7832      7834      7834      7835      7834      7836      7833      7832
      7834      7837      7837      7838      7837      7839      7837      7840
      7840      7841      7840      7843      7843      7844      7843      7845
      7843      7846      7846      7847      7840      7842      7846      7848
      7846      7849      7849      7850      7849      7851      7849      7852
      7852      7853      7852      7854      7852      7855      7855      7856
      7855      7857      7855      7858      7858      7859      7858      7860
      7858      7861      7861      7862      7861      7863      7861      7864
      7864      7865      7864      7866      7864      7867      7867      7868
      7867      7869      7867      7870      7870      7871      7870      7872
      7870      7873      7829      7874      7874      7875      7874      7876
      7874      7877      7877      7878      7877      7879      7877      7880
      7880      7881      7880      7882      7880      7883      7883      7884
      7883      7885      7883      7886      7886      7887      7886      7888
      7886      7889      7889      7890      7889      7891      7889      7892
      7892      7893      7892      7894      7892      7895      7895      7896
      7895      7897      7895      7898      7898      7899      7898      7900
      7898      7901      7901      7902      7901      7903      7901      7904
      7904      7905      7904      7906      7904      7907      7910      7911
      7910      7912      7910      7913      7913      7914      7913      7915
      7917      7916      7915      7916      7916      7918      7918      7919
      7918      7920      7918      7921      7921      7922      7921      7923
      7921      7924      7924      7925      7924      7926      7924      7927
      7927      7928      7927      7929      7927      7930      7930      7931
      7930      7932      7930      7933      7933      7934      7933      7935
      7933      7936      7936      7937      7936      7938      7936      7939
      7939      7940      7939      7941      7939      7942      7942      7943
      7942      7944      7942      7945      7945      7946      7945      7947
      7945      7948      7948      7949      7948      7950      7948      7951
      7913      7952      7952      7953      7952      7954      7952      7955
      7955      7956      7955      7957      7955      7958      7958      7959
      7958      7960      7958      7961      7961      7962      7961      7963
      7961      7964      7964      7965      7964      7966      7964      7967
      7967      7968      7967      7969      7967      7970      7970      7971
      7970      7972      7970      7973      7973      7974      7973      7975
      7973      7976      7976      7977      7976      7978      7976      7979
      7979      7980      7979      7981      7979      7982      7982      7983
      7982      7984      7982      7985      7820      7821      7820      7822
      7822      7823      7822      7824      7822      7986      7986      7987
      7986      7988      7988      7989      7986      7990      7990      7991
      7990      7992      7990      7993      7993      7994      7993      7995
      7993      7996      7996      7997      7996      7998      7996      7999
      7999      8000      7999      8001      7999      8002      8002      8003
      8002      8004      8002      8005      8005      8006      8005      8007
      8005      8008      8008      8009      8008      8010      8008      8011
      8011      8012      8011      8013      8011      8014      8014      8015
      8014      8016      8014      8017      8017      8018      8017      8019
      8017      8020      8020      8021      8020      8022      8020      8023
      8029      8031      8031      8032      8029      8033      8033      8034
      8033      8035      8033      8036      8036      8037      8036      8038
      8036      8039      8039      8040      8039      8041      8039      8042
      8042      8043      8042      8044      8042      8045      8045      8046
      8045      8047      8045      8048      8048      8049      8048      8050
      8048      8051      8051      8052      8051      8053      8051      8054
      8054      8055      8054      8056      8054      8057      8057      8058
      8057      8059      8057      8060      8060      8061      8060      8062
      8060      8063      8063      8064      8063      8065      8063      8066
      7787      7788      7787      7789      7787      7790      7787      7786
      7786      7784      7784      7785      7784      7775      7775      7777
      7775      7773      7773      7774      7773      7771      7773      7772
      7775      7776      7776      7778      7778      7779      7778      7799
      7799      7800      7799      7801      7801      7802      7801      7908
      7908      7910      7799      7791      7791      7793      7791      7784
      7908      7909      7794      7795      7791      7792      7792      7794
      7794      7796      7778      7780      7781      7780      7781      7782
      7781      7783      7781      7807      7807      7808      7807      7803
      7803      7804      7803      7805      7805      7806      7803      7817
      7817      7818      7817      7819      7819      7820      7817      7825
      7825      7826      7825      7827      7827      7828      7827      8024
      8024      8026      8026      8027      8026      8028      8026      8029
      7825      7810      7810      7811      7810      7809      7810      7812
      7812      7816      7816      7813      7816      7814      7816      7815
      7809      7807      8029      8030      8024      8025      8067      8069
      8067      8070      8070      8074      8067      8068      8074      8075
      8074      8076      8074      8077      8077      8078      8077      8079
      8077      8080      8080      8081      8080      8082      8080      8071
      8071      8072      8071      8073      8071      8083      8083      8084
      8083      8085      8085      8086      8083      8087      8087      8090
      8090      8091      8087      8088      8087      8089      8070      8073
      8092      8094      8092      8095      8095      8099      8092      8093
      8099      8100      8099      8101      8099      8102      8102      8103
      8102      8104      8104      8105      8102      8106      8106      8107
      8106      8108      8108      8109      8106      8096      8096      8097
      8096      8098      8096      8110      8110      8111      8110      8112
      8112      8113      8110      8114      8114      8117      8117      8118
      8114      8115      8114      8116      8095      8098      8119      8120
      8119      8123      8119      8124      8124      8125      8124      8126
      8126      8127      8124      8128      8128      8129      8128      8130
      8128      8131      8131      8132      8131      8133      8131      8121
      8121      8122      8121      8138      8138      8139      8138      8142
      8138      8140      8140      8141      8121      8123      8142      8143
      8142      8144      8142      8145      8145      8146      8147      8148
      8147      8151      8147      8152      8152      8153      8152      8154
      8154      8155      8152      8156      8156      8157      8156      8158
      8156      8159      8159      8160      8159      8161      8159      8149
      8149      8150      8149      8166      8166      8167      8166      8170
      8166      8168      8168      8169      8149      8151      8170      8171
      8170      8172      8170      8173      8174      8175      8174      8178
      8174      8179      8179      8180      8179      8181      8181      8182
      8179      8183      8183      8184      8183      8185      8185      8186
      8183      8187      8187      8188      8187      8189      8189      8190
      8187      8176      8176      8177      8176      8191      8191      8192
      8191      8195      8191      8193      8193      8194      8176      8178
      8195      8196      8195      8197      8195      8198      8198      8199
      8200      8201      8200      8204      8200      8205      8205      8206
      8205      8207      8207      8208      8205      8209      8209      8210
      8209      8211      8209      8212      8212      8213      8212      8214
      8214      8215      8212      8202      8202      8203      8202      8216
      8216      8217      8216      8218      8216      8219      8219      8220
      8202      8204      8221      8222      8221      8225      8221      8226
      8226      8227      8226      8228      8226      8229      8229      8230
      8229      8231      8229      8232      8232      8233      8232      8234
      8234      8235      8232      8223      8223      8224      8223      8236
      8236      8237      8236      8238      8236      8239      8239      8240
      8223      8225      8241      8242      8241      8245      8241      8246
      8246      8247      8246      8248      8246      8249      8249      8250
      8249      8251      8251      8252      8249      8253      8253      8254
      8253      8255      8255      8256      8253      8243      8243      8244
      8243      8257      8257      8258      8257      8259      8257      8260
      8260      8261      8243      8245      8262      8263      8262      8266
      8262      8267      8267      8268      8267      8269      8269      8270
      8267      8271      8271      8272      8271      8273      8273      8274
      8271      8275      8275      8276      8275      8277      8277      8278
      8275      8264      8264      8265      8264      8279      8279      8280
      8279      8281      8279      8282      8282      8283      8264      8266
      8284      8285      8284      8288      8284      8289      8289      8290
      8289      8291      8291      8292      8289      8293      8293      8294
      8293      8295      8293      8296      8296      8297      8296      8298
      8298      8299      8296      8286      8286      8287      8286      8300
      8300      8301      8300      8302      8300      8303      8303      8304
      8286      8288      8079      8095      8082      8119      8130      8147
      8173      8174      8158      8200      8211      8221      8228      8241
      8248      8262      8231      8284      8133      8134      8135      8134
      8136      8134      8137      8134      8161      8162      8163      8162
      8164      8162      8165      8162      7772      8070      8305      8306
      8305      8309      8305      8310      8310      8311      8310      8312
      8312      8313      8310      8320      8320      8321      8320      8322
      8320      8323      8323      8324      8323      8325      8325      8326
      8323      8307      8307      8308      8307      8327      8327      8328
      8327      8329      8327      8330      8330      8331      8307      8309
      8312      8314      8314      8315      8314      8316      8316      8317
      8316      8318      8316      8319      8332      8333      8332      8336
      8332      8337      8337      8338      8337      8339      8337      8340
      8340      8341      8340      8342      8342      8343      8340      8344
      8344      8345      8344      8346      8346      8347      8344      8334
      8334      8335      8334      8348      8348      8349      8348      8350
      8348      8351      8351      8352      8334      8336      8353      8354
      8353      8357      8353      8358      8358      8359      8358      8360
      8358      8361      8361      8362      8361      8363      8363      8364
      8361      8365      8365      8366      8365      8367      8367      8368
      8365      8355      8355      8356      8355      8369      8369      8370
      8369      8371      8369      8372      8355      8357      8373      8374
      8373      8377      8373      8378      8378      8379      8378      8380
      8378      8381      8381      8382      8381      8383      8381      8384
      8384      8385      8384      8386      8386      8387      8384      8375
      8375      8376      8375      8388      8388      8389      8388      8390
      8388      8391      8375      8377      8392      8393      8392      8396
      8392      8397      8397      8398      8397      8399      8399      8400
      8397      8407      8407      8408      8407      8409      8409      8410
      8407      8411      8411      8412      8411      8413      8413      8414
      8411      8394      8394      8395      8394      8415      8415      8416
      8415      8417      8415      8418      8418      8419      8394      8396
      8399      8401      8401      8402      8401      8403      8403      8404
      8403      8405      8403      8406      8322      8332      8339      8353
      8360      8373      8380      8392      8420      8421      8420      8424
      8420      8425      8425      8426      8425      8427      8427      8428
      8425      8435      8435      8436      8435      8437      8435      8438
      8438      8439      8438      8440      8440      8441      8438      8422
      8422      8423      8422      8442      8442      8443      8442      8444
      8442      8445      8445      8446      8422      8424      8427      8429
      8429      8430      8429      8431      8431      8432      8431      8433
      8431      8434      8447      8448      8447      8451      8447      8452
      8452      8453      8452      8454      8452      8455      8455      8456
      8455      8457      8457      8458      8455      8459      8459      8460
      8459      8461      8461      8462      8459      8449      8449      8450
      8449      8463      8463      8464      8463      8465      8463      8466
      8466      8467      8449      8451      8468      8469      8468      8472
      8468      8473      8473      8474      8473      8475      8473      8476
      8476      8477      8476      8478      8478      8479      8476      8480
      8480      8481      8480      8482      8482      8483      8480      8470
      8470      8471      8470      8484      8484      8485      8484      8486
      8484      8487      8470      8472      8488      8489      8488      8492
      8488      8493      8493      8494      8493      8495      8493      8496
      8496      8497      8496      8498      8496      8499      8499      8500
      8499      8501      8501      8502      8499      8490      8490      8491
      8490      8503      8503      8504      8503      8505      8503      8506
      8490      8492      8507      8508      8507      8511      8507      8512
      8512      8513      8512      8514      8514      8515      8512      8522
      8522      8523      8522      8524      8524      8525      8522      8526
      8526      8527      8526      8528      8528      8529      8526      8509
      8509      8510      8509      8530      8530      8531      8530      8532
      8530      8533      8533      8534      8509      8511      8514      8516
      8516      8517      8516      8518      8518      8519      8518      8520
      8518      8521      8437      8447      8454      8468      8475      8488
      8495      8507      8383      8420      8535      8536      8535      8539
      8535      8540      8540      8541      8540      8542      8542      8543
      8540      8550      8550      8551      8550      8552      8550      8553
      8553      8554      8553      8555      8555      8556      8553      8537
      8537      8538      8537      8557      8557      8558      8557      8559
      8557      8560      8560      8561      8537      8539      8542      8544
      8544      8545      8544      8546      8546      8547      8546      8548
      8546      8549      8562      8563      8562      8566      8562      8567
      8567      8568      8567      8569      8567      8570      8570      8571
      8570      8572      8572      8573      8570      8574      8574      8575
      8574      8576      8576      8577      8574      8564      8564      8565
      8564      8578      8578      8579      8578      8580      8578      8581
      8581      8582      8564      8566      8583      8584      8583      8587
      8583      8588      8588      8589      8588      8590      8588      8591
      8591      8592      8591      8593      8593      8594      8591      8595
      8595      8596      8595      8597      8597      8598      8595      8585
      8585      8586      8585      8599      8599      8600      8599      8601
      8599      8602      8585      8587      8603      8604      8603      8607
      8603      8608      8608      8609      8608      8610      8608      8611
      8611      8612      8611      8613      8611      8614      8614      8615
      8614      8616      8616      8617      8614      8605      8605      8606
      8605      8618      8618      8619      8618      8620      8618      8621
      8605      8607      8622      8623      8622      8626      8622      8627
      8627      8628      8627      8629      8629      8630      8627      8637
      8637      8638      8637      8639      8639      8640      8637      8641
      8641      8642      8641      8643      8643      8644      8641      8624
      8624      8625      8624      8645      8645      8646      8645      8647
      8645      8648      8648      8649      8624      8626      8629      8631
      8631      8632      8631      8633      8633      8634      8633      8635
      8633      8636      8552      8562      8569      8583      8590      8603
      8610      8622      8498      8535      8650      8651      8650      8654
      8650      8655      8655      8656      8655      8657      8657      8658
      8655      8665      8665      8666      8665      8667      8665      8668
      8668      8669      8668      8670      8670      8671      8668      8652
      8652      8653      8652      8672      8672      8673      8672      8674
      8672      8675      8675      8676      8652      8654      8657      8659
      8659      8660      8659      8661      8661      8662      8661      8663
      8661      8664      8677      8678      8677      8681      8677      8682
      8682      8683      8682      8684      8682      8685      8685      8686
      8685      8687      8687      8688      8685      8689      8689      8690
      8689      8691      8691      8692      8689      8679      8679      8680
      8679      8693      8693      8694      8693      8695      8693      8696
      8696      8697      8679      8681      8698      8699      8698      8702
      8698      8703      8703      8704      8703      8705      8703      8706
      8706      8707      8706      8708      8708      8709      8706      8710
      8710      8711      8710      8712      8712      8713      8710      8700
      8700      8701      8700      8714      8714      8715      8714      8716
      8714      8717      8700      8702      8718      8719      8718      8722
      8718      8723      8723      8724      8723      8725      8723      8726
      8726      8727      8726      8728      8726      8729      8729      8730
      8729      8731      8731      8732      8729      8720      8720      8721
      8720      8733      8733      8734      8733      8735      8733      8736
      8720      8722      8737      8738      8737      8741      8737      8742
      8742      8743      8742      8744      8744      8745      8742      8752
      8752      8753      8752      8754      8754      8755      8752      8756
      8756      8757      8756      8758      8758      8759      8756      8739
      8739      8740      8739      8760      8760      8761      8760      8762
      8760      8763      8763      8764      8739      8741      8744      8746
      8746      8747      8746      8748      8748      8749      8748      8750
      8748      8751      8667      8677      8684      8698      8705      8718
      8725      8737      8613      8650      8765      8766      8765      8769
      8765      8770      8770      8771      8770      8772      8772      8773
      8770      8780      8780      8781      8780      8782      8780      8783
      8783      8784      8783      8785      8785      8786      8783      8767
      8767      8768      8767      8787      8787      8788      8787      8789
      8787      8790      8790      8791      8767      8769      8772      8774
      8774      8775      8774      8776      8776      8777      8776      8778
      8776      8779      8792      8793      8792      8796      8792      8797
      8797      8798      8797      8799      8797      8800      8800      8801
      8800      8802      8802      8803      8800      8804      8804      8805
      8804      8806      8806      8807      8804      8794      8794      8795
      8794      8808      8808      8809      8808      8810      8808      8811
      8811      8812      8794      8796      8813      8814      8813      8817
      8813      8818      8818      8819      8818      8820      8818      8821
      8821      8822      8821      8823      8823      8824      8821      8825
      8825      8826      8825      8827      8827      8828      8825      8815
      8815      8816      8815      8829      8829      8830      8829      8831
      8829      8832      8815      8817      8833      8834      8833      8837
      8833      8838      8838      8839      8838      8840      8838      8841
      8841      8842      8841      8843      8843      8844      8841      8845
      8845      8846      8845      8847      8847      8848      8845      8835
      8835      8836      8835      8849      8849      8850      8849      8851
      8849      8852      8835      8837      8853      8854      8853      8857
      8853      8858      8858      8859      8858      8860      8860      8861
      8858      8868      8868      8869      8868      8870      8870      8871
      8868      8872      8872      8873      8872      8874      8874      8875
      8872      8855      8855      8856      8855      8876      8876      8877
      8876      8878      8876      8879      8879      8880      8855      8857
      8860      8862      8862      8863      8862      8864      8864      8865
      8864      8866      8864      8867      8782      8792      8799      8813
      8820      8833      8840      8853      8728      8765      8295      8305
      8906      8907      8906      8908      8906      8939      8939      8940
      8939      8941      8942      8941      8942      8944      8944      8945
      8944      8946      8943      8942      8944      8947      8947      8948
      8947      8949      8947      8950      8950      8951      8950      8953
      8953      8954      8953      8955      8953      8956      8956      8957
      8950      8952      8956      8958      8956      8959      8959      8960
      8959      8961      8959      8962      8962      8963      8962      8964
      8962      8965      8965      8966      8965      8967      8965      8968
      8968      8969      8968      8970      8968      8971      8971      8972
      8971      8973      8971      8974      8974      8975      8974      8976
      8974      8977      8977      8978      8977      8979      8977      8980
      8980      8981      8980      8982      8980      8983      8939      8984
      8984      8985      8984      8986      8984      8987      8987      8988
      8987      8989      8987      8990      8990      8991      8990      8992
      8990      8993      8993      8994      8993      8995      8993      8996
      8996      8997      8996      8998      8996      8999      8999      9000
      8999      9001      8999      9002      9002      9003      9002      9004
      9002      9005      9005      9006      9005      9007      9005      9008
      9008      9009      9008      9010      9008      9011      9011      9012
      9011      9013      9011      9014      9014      9015      9014      9016
      9014      9017      9020      9021      9020      9022      9020      9023
      9023      9024      9023      9025      9027      9026      9025      9026
      9026      9028      9028      9029      9028      9030      9028      9031
      9031      9032      9031      9033      9031      9034      9034      9035
      9034      9036      9034      9037      9037      9038      9037      9039
      9037      9040      9040      9041      9040      9042      9040      9043
      9043      9044      9043      9045      9043      9046      9046      9047
      9046      9048      9046      9049      9049      9050      9049      9051
      9049      9052      9052      9053      9052      9054      9052      9055
      9055      9056      9055      9057      9055      9058      9058      9059
      9058      9060      9058      9061      9023      9062      9062      9063
      9062      9064      9062      9065      9065      9066      9065      9067
      9065      9068      9068      9069      9068      9070      9068      9071
      9071      9072      9071      9073      9071      9074      9074      9075
      9074      9076      9074      9077      9077      9078      9077      9079
      9077      9080      9080      9081      9080      9082      9080      9083
      9083      9084      9083      9085      9083      9086      9086      9087
      9086      9088      9086      9089      9089      9090      9089      9091
      9089      9092      9092      9093      9092      9094      9092      9095
      8930      8931      8930      8932      8932      8933      8932      8934
      8932      9096      9096      9097      9096      9098      9098      9099
      9096      9100      9100      9101      9100      9102      9100      9103
      9103      9104      9103      9105      9103      9106      9106      9107
      9106      9108      9106      9109      9109      9110      9109      9111
      9109      9112      9112      9113      9112      9114      9112      9115
      9115      9116      9115      9117      9115      9118      9118      9119
      9118      9120      9118      9121      9121      9122      9121      9123
      9121      9124      9124      9125      9124      9126      9124      9127
      9127      9128      9127      9129      9127      9130      9130      9131
      9130      9132      9130      9133      9139      9141      9141      9142
      9139      9143      9143      9144      9143      9145      9143      9146
      9146      9147      9146      9148      9146      9149      9149      9150
      9149      9151      9149      9152      9152      9153      9152      9154
      9152      9155      9155      9156      9155      9157      9155      9158
      9158      9159      9158      9160      9158      9161      9161      9162
      9161      9163      9161      9164      9164      9165      9164      9166
      9164      9167      9167      9168      9167      9169      9167      9170
      9170      9171      9170      9172      9170      9173      9173      9174
      9173      9175      9173      9176      8897      8898      8897      8899
      8897      8900      8897      8896      8896      8894      8894      8895
      8894      8885      8885      8887      8885      8883      8883      8884
      8883      8881      8883      8882      8885      8886      8886      8888
      8888      8889      8888      8909      8909      8910      8909      8911
      8911      8912      8911      9018      9018      9020      8909      8901
      8901      8903      8901      8894      9018      9019      8904      8905
      8901      8902      8902      8904      8904      8906      8888      8890
      8891      8890      8891      8892      8891      8893      8891      8917
      8917      8918      8917      8913      8913      8914      8913      8915
      8915      8916      8913      8927      8927      8928      8927      8929
      8929      8930      8927      8935      8935      8936      8935      8937
      8937      8938      8937      9134      9134      9136      9136      9137
      9136      9138      9136      9139      8935      8920      8920      8921
      8920      8919      8920      8922      8922      8926      8926      8923
      8926      8924      8926      8925      8919      8917      9139      9140
      9134      9135      9177      9179      9177      9180      9180      9184
      9177      9178      9184      9185      9184      9186      9184      9187
      9187      9188      9187      9189      9187      9190      9190      9191
      9190      9192      9190      9181      9181      9182      9181      9183
      9181      9193      9193      9194      9193      9195      9195      9196
      9193      9197      9197      9200      9200      9201      9197      9198
      9197      9199      9180      9183      9202      9204      9202      9205
      9205      9209      9202      9203      9209      9210      9209      9211
      9209      9212      9212      9213      9212      9214      9214      9215
      9212      9216      9216      9217      9216      9218      9218      9219
      9216      9206      9206      9207      9206      9208      9206      9220
      9220      9221      9220      9222      9222      9223      9220      9224
      9224      9227      9227      9228      9224      9225      9224      9226
      9205      9208      9229      9230      9229      9233      9229      9234
      9234      9235      9234      9236      9236      9237      9234      9238
      9238      9239      9238      9240      9238      9241      9241      9242
      9241      9243      9241      9231      9231      9232      9231      9248
      9248      9249      9248      9252      9248      9250      9250      9251
      9231      9233      9252      9253      9252      9254      9252      9255
      9255      9256      9257      9258      9257      9261      9257      9262
      9262      9263      9262      9264      9264      9265      9262      9266
      9266      9267      9266      9268      9266      9269      9269      9270
      9269      9271      9269      9259      9259      9260      9259      9276
      9276      9277      9276      9280      9276      9278      9278      9279
      9259      9261      9280      9281      9280      9282      9280      9283
      9284      9285      9284      9288      9284      9289      9289      9290
      9289      9291      9291      9292      9289      9293      9293      9294
      9293      9295      9295      9296      9293      9297      9297      9298
      9297      9299      9299      9300      9297      9286      9286      9287
      9286      9301      9301      9302      9301      9305      9301      9303
      9303      9304      9286      9288      9305      9306      9305      9307
      9305      9308      9308      9309      9310      9311      9310      9314
      9310      9315      9315      9316      9315      9317      9317      9318
      9315      9319      9319      9320      9319      9321      9319      9322
      9322      9323      9322      9324      9324      9325      9322      9312
      9312      9313      9312      9326      9326      9327      9326      9328
      9326      9329      9329      9330      9312      9314      9331      9332
      9331      9335      9331      9336      9336      9337      9336      9338
      9336      9339      9339      9340      9339      9341      9339      9342
      9342      9343      9342      9344      9344      9345      9342      9333
      9333      9334      9333      9346      9346      9347      9346      9348
      9346      9349      9349      9350      9333      9335      9351      9352
      9351      9355      9351      9356      9356      9357      9356      9358
      9356      9359      9359      9360      9359      9361      9361      9362
      9359      9363      9363      9364      9363      9365      9365      9366
      9363      9353      9353      9354      9353      9367      9367      9368
      9367      9369      9367      9370      9370      9371      9353      9355
      9372      9373      9372      9376      9372      9377      9377      9378
      9377      9379      9379      9380      9377      9381      9381      9382
      9381      9383      9383      9384      9381      9385      9385      9386
      9385      9387      9387      9388      9385      9374      9374      9375
      9374      9389      9389      9390      9389      9391      9389      9392
      9392      9393      9374      9376      9394      9395      9394      9398
      9394      9399      9399      9400      9399      9401      9401      9402
      9399      9403      9403      9404      9403      9405      9403      9406
      9406      9407      9406      9408      9408      9409      9406      9396
      9396      9397      9396      9410      9410      9411      9410      9412
      9410      9413      9413      9414      9396      9398      9189      9205
      9192      9229      9240      9257      9283      9284      9268      9310
      9321      9331      9338      9351      9358      9372      9341      9394
      9243      9244      9245      9244      9246      9244      9247      9244
      9271      9272      9273      9272      9274      9272      9275      9272
      8882      9180      9415      9416      9415      9419      9415      9420
      9420      9421      9420      9422      9422      9423      9420      9430
      9430      9431      9430      9432      9430      9433      9433      9434
      9433      9435      9435      9436      9433      9417      9417      9418
      9417      9437      9437      9438      9437      9439      9437      9440
      9440      9441      9417      9419      9422      9424      9424      9425
      9424      9426      9426      9427      9426      9428      9426      9429
      9442      9443      9442      9446      9442      9447      9447      9448
      9447      9449      9447      9450      9450      9451      9450      9452
      9452      9453      9450      9454      9454      9455      9454      9456
      9456      9457      9454      9444      9444      9445      9444      9458
      9458      9459      9458      9460      9458      9461      9461      9462
      9444      9446      9463      9464      9463      9467      9463      9468
      9468      9469      9468      9470      9468      9471      9471      9472
      9471      9473      9473      9474      9471      9475      9475      9476
      9475      9477      9477      9478      9475      9465      9465      9466
      9465      9479      9479      9480      9479      9481      9479      9482
      9465      9467      9483      9484      9483      9487      9483      9488
      9488      9489      9488      9490      9488      9491      9491      9492
      9491      9493      9491      9494      9494      9495      9494      9496
      9496      9497      9494      9485      9485      9486      9485      9498
      9498      9499      9498      9500      9498      9501      9485      9487
      9502      9503      9502      9506      9502      9507      9507      9508
      9507      9509      9509      9510      9507      9517      9517      9518
      9517      9519      9519      9520      9517      9521      9521      9522
      9521      9523      9523      9524      9521      9504      9504      9505
      9504      9525      9525      9526      9525      9527      9525      9528
      9528      9529      9504      9506      9509      9511      9511      9512
      9511      9513      9513      9514      9513      9515      9513      9516
      9432      9442      9449      9463      9470      9483      9490      9502
      9530      9531      9530      9534      9530      9535      9535      9536
      9535      9537      9537      9538      9535      9545      9545      9546
      9545      9547      9545      9548      9548      9549      9548      9550
      9550      9551      9548      9532      9532      9533      9532      9552
      9552      9553      9552      9554      9552      9555      9555      9556
      9532      9534      9537      9539      9539      9540      9539      9541
      9541      9542      9541      9543      9541      9544      9557      9558
      9557      9561      9557      9562      9562      9563      9562      9564
      9562      9565      9565      9566      9565      9567      9567      9568
      9565      9569      9569      9570      9569      9571      9571      9572
      9569      9559      9559      9560      9559      9573      9573      9574
      9573      9575      9573      9576      9576      9577      9559      9561
      9578      9579      9578      9582      9578      9583      9583      9584
      9583      9585      9583      9586      9586      9587      9586      9588
      9588      9589      9586      9590      9590      9591      9590      9592
      9592      9593      9590      9580      9580      9581      9580      9594
      9594      9595      9594      9596      9594      9597      9580      9582
      9598      9599      9598      9602      9598      9603      9603      9604
      9603      9605      9603      9606      9606      9607      9606      9608
      9606      9609      9609      9610      9609      9611      9611      9612
      9609      9600      9600      9601      9600      9613      9613      9614
      9613      9615      9613      9616      9600      9602      9617      9618
      9617      9621      9617      9622      9622      9623      9622      9624
      9624      9625      9622      9632      9632      9633      9632      9634
      9634      9635      9632      9636      9636      9637      9636      9638
      9638      9639      9636      9619      9619      9620      9619      9640
      9640      9641      9640      9642      9640      9643      9643      9644
      9619      9621      9624      9626      9626      9627      9626      9628
      9628      9629      9628      9630      9628      9631      9547      9557
      9564      9578      9585      9598      9605      9617      9493      9530
      9645      9646      9645      9649      9645      9650      9650      9651
      9650      9652      9652      9653      9650      9660      9660      9661
      9660      9662      9660      9663      9663      9664      9663      9665
      9665      9666      9663      9647      9647      9648      9647      9667
      9667      9668      9667      9669      9667      9670      9670      9671
      9647      9649      9652      9654      9654      9655      9654      9656
      9656      9657      9656      9658      9656      9659      9672      9673
      9672      9676      9672      9677      9677      9678      9677      9679
      9677      9680      9680      9681      9680      9682      9682      9683
      9680      9684      9684      9685      9684      9686      9686      9687
      9684      9674      9674      9675      9674      9688      9688      9689
      9688      9690      9688      9691      9691      9692      9674      9676
      9693      9694      9693      9697      9693      9698      9698      9699
      9698      9700      9698      9701      9701      9702      9701      9703
      9703      9704      9701      9705      9705      9706      9705      9707
      9707      9708      9705      9695      9695      9696      9695      9709
      9709      9710      9709      9711      9709      9712      9695      9697
      9713      9714      9713      9717      9713      9718      9718      9719
      9718      9720      9718      9721      9721      9722      9721      9723
      9721      9724      9724      9725      9724      9726      9726      9727
      9724      9715      9715      9716      9715      9728      9728      9729
      9728      9730      9728      9731      9715      9717      9732      9733
      9732      9736      9732      9737      9737      9738      9737      9739
      9739      9740      9737      9747      9747      9748      9747      9749
      9749      9750      9747      9751      9751      9752      9751      9753
      9753      9754      9751      9734      9734      9735      9734      9755
      9755      9756      9755      9757      9755      9758      9758      9759
      9734      9736      9739      9741      9741      9742      9741      9743
      9743      9744      9743      9745      9743      9746      9662      9672
      9679      9693      9700      9713      9720      9732      9608      9645
      9760      9761      9760      9764      9760      9765      9765      9766
      9765      9767      9767      9768      9765      9775      9775      9776
      9775      9777      9775      9778      9778      9779      9778      9780
      9780      9781      9778      9762      9762      9763      9762      9782
      9782      9783      9782      9784      9782      9785      9785      9786
      9762      9764      9767      9769      9769      9770      9769      9771
      9771      9772      9771      9773      9771      9774      9787      9788
      9787      9791      9787      9792      9792      9793      9792      9794
      9792      9795      9795      9796      9795      9797      9797      9798
      9795      9799      9799      9800      9799      9801      9801      9802
      9799      9789      9789      9790      9789      9803      9803      9804
      9803      9805      9803      9806      9806      9807      9789      9791
      9808      9809      9808      9812      9808      9813      9813      9814
      9813      9815      9813      9816      9816      9817      9816      9818
      9818      9819      9816      9820      9820      9821      9820      9822
      9822      9823      9820      9810      9810      9811      9810      9824
      9824      9825      9824      9826      9824      9827      9810      9812
      9828      9829      9828      9832      9828      9833      9833      9834
      9833      9835      9833      9836      9836      9837      9836      9838
      9836      9839      9839      9840      9839      9841      9841      9842
      9839      9830      9830      9831      9830      9843      9843      9844
      9843      9845      9843      9846      9830      9832      9847      9848
      9847      9851      9847      9852      9852      9853      9852      9854
      9854      9855      9852      9862      9862      9863      9862      9864
      9864      9865      9862      9866      9866      9867      9866      9868
      9868      9869      9866      9849      9849      9850      9849      9870
      9870      9871      9870      9872      9870      9873      9873      9874
      9849      9851      9854      9856      9856      9857      9856      9858
      9858      9859      9858      9860      9858      9861      9777      9787
      9794      9808      9815      9828      9835      9847      9723      9760
      9875      9876      9875      9879      9875      9880      9880      9881
      9880      9882      9882      9883      9880      9890      9890      9891
      9890      9892      9890      9893      9893      9894      9893      9895
      9895      9896      9893      9877      9877      9878      9877      9897
      9897      9898      9897      9899      9897      9900      9900      9901
      9877      9879      9882      9884      9884      9885      9884      9886
      9886      9887      9886      9888      9886      9889      9902      9903
      9902      9906      9902      9907      9907      9908      9907      9909
      9907      9910      9910      9911      9910      9912      9912      9913
      9910      9914      9914      9915      9914      9916      9916      9917
      9914      9904      9904      9905      9904      9918      9918      9919
      9918      9920      9918      9921      9921      9922      9904      9906
      9923      9924      9923      9927      9923      9928      9928      9929
      9928      9930      9928      9931      9931      9932      9931      9933
      9933      9934      9931      9935      9935      9936      9935      9937
      9937      9938      9935      9925      9925      9926      9925      9939
      9939      9940      9939      9941      9939      9942      9925      9927
      9943      9944      9943      9947      9943      9948      9948      9949
      9948      9950      9948      9951      9951      9952      9951      9953
      9953      9954      9951      9955      9955      9956      9955      9957
      9957      9958      9955      9945      9945      9946      9945      9959
      9959      9960      9959      9961      9959      9962      9945      9947
      9963      9964      9963      9967      9963      9968      9968      9969
      9968      9970      9970      9971      9968      9978      9978      9979
      9978      9980      9980      9981      9978      9982      9982      9983
      9982      9984      9984      9985      9982      9965      9965      9966
      9965      9986      9986      9987      9986      9988      9986      9989
      9989      9990      9965      9967      9970      9972      9972      9973
      9972      9974      9974      9975      9974      9976      9974      9977
      9892      9902      9909      9923      9930      9943      9950      9963
      9838      9875      9405      9415     10016     10017     10016     10018
     10016     10049     10049     10050     10049     10051     10052     10051
     10052     10054     10054     10055     10054     10056     10053     10052
     10054     10057     10057     10058     10057     10059     10057     10060
     10060     10061     10060     10063     10063     10064     10063     10065
     10063     10066     10066     10067     10060     10062     10066     10068
     10066     10069     10069     10070     10069     10071     10069     10072
     10072     10073     10072     10074     10072     10075     10075     10076
     10075     10077     10075     10078     10078     10079     10078     10080
     10078     10081     10081     10082     10081     10083     10081     10084
     10084     10085     10084     10086     10084     10087     10087     10088
     10087     10089     10087     10090     10090     10091     10090     10092
     10090     10093     10049     10094     10094     10095     10094     10096
     10094     10097     10097     10098     10097     10099     10097     10100
     10100     10101     10100     10102     10100     10103     10103     10104
     10103     10105     10103     10106     10106     10107     10106     10108
     10106     10109     10109     10110     10109     10111     10109     10112
     10112     10113     10112     10114     10112     10115     10115     10116
     10115     10117     10115     10118     10118     10119     10118     10120
     10118     10121     10121     10122     10121     10123     10121     10124
     10124     10125     10124     10126     10124     10127     10130     10131
     10130     10132     10130     10133     10133     10134     10133     10135
     10137     10136     10135     10136     10136     10138     10138     10139
     10138     10140     10138     10141     10141     10142     10141     10143
     10141     10144     10144     10145     10144     10146     10144     10147
     10147     10148     10147     10149     10147     10150     10150     10151
     10150     10152     10150     10153     10153     10154     10153     10155
     10153     10156     10156     10157     10156     10158     10156     10159
     10159     10160     10159     10161     10159     10162     10162     10163
     10162     10164     10162     10165     10165     10166     10165     10167
     10165     10168     10168     10169     10168     10170     10168     10171
     10133     10172     10172     10173     10172     10174     10172     10175
     10175     10176     10175     10177     10175     10178     10178     10179
     10178     10180     10178     10181     10181     10182     10181     10183
     10181     10184     10184     10185     10184     10186     10184     10187
     10187     10188     10187     10189     10187     10190     10190     10191
     10190     10192     10190     10193     10193     10194     10193     10195
     10193     10196     10196     10197     10196     10198     10196     10199
     10199     10200     10199     10201     10199     10202     10202     10203
     10202     10204     10202     10205     10040     10041     10040     10042
     10042     10043     10042     10044     10042     10206     10206     10207
     10206     10208     10208     10209     10206     10210     10210     10211
     10210     10212     10210     10213     10213     10214     10213     10215
     10213     10216     10216     10217     10216     10218     10216     10219
     10219     10220     10219     10221     10219     10222     10222     10223
     10222     10224     10222     10225     10225     10226     10225     10227
     10225     10228     10228     10229     10228     10230     10228     10231
     10231     10232     10231     10233     10231     10234     10234     10235
     10234     10236     10234     10237     10237     10238     10237     10239
     10237     10240     10240     10241     10240     10242     10240     10243
     10249     10251     10251     10252     10249     10253     10253     10254
     10253     10255     10253     10256     10256     10257     10256     10258
     10256     10259     10259     10260     10259     10261     10259     10262
     10262     10263     10262     10264     10262     10265     10265     10266
     10265     10267     10265     10268     10268     10269     10268     10270
     10268     10271     10271     10272     10271     10273     10271     10274
     10274     10275     10274     10276     10274     10277     10277     10278
     10277     10279     10277     10280     10280     10281     10280     10282
     10280     10283     10283     10284     10283     10285     10283     10286
     10007     10008     10007     10009     10007     10010     10007     10006
     10006     10004     10004     10005     10004      9995      9995      9997
      9995      9993      9993      9994      9993      9991      9993      9992
      9995      9996      9996      9998      9998      9999      9998     10019
     10019     10020     10019     10021     10021     10022     10021     10128
     10128     10130     10019     10011     10011     10013     10011     10004
     10128     10129     10014     10015     10011     10012     10012     10014
     10014     10016      9998     10000     10001     10000     10001     10002
     10001     10003     10001     10027     10027     10028     10027     10023
     10023     10024     10023     10025     10025     10026     10023     10037
     10037     10038     10037     10039     10039     10040     10037     10045
     10045     10046     10045     10047     10047     10048     10047     10244
     10244     10246     10246     10247     10246     10248     10246     10249
     10045     10030     10030     10031     10030     10029     10030     10032
     10032     10036     10036     10033     10036     10034     10036     10035
     10029     10027     10249     10250     10244     10245     10287     10289
     10287     10290     10290     10294     10287     10288     10294     10295
     10294     10296     10294     10297     10297     10298     10297     10299
     10297     10300     10300     10301     10300     10302     10300     10291
     10291     10292     10291     10293     10291     10303     10303     10304
     10303     10305     10305     10306     10303     10307     10307     10310
     10310     10311     10307     10308     10307     10309     10290     10293
     10312     10314     10312     10315     10315     10319     10312     10313
     10319     10320     10319     10321     10319     10322     10322     10323
     10322     10324     10324     10325     10322     10326     10326     10327
     10326     10328     10328     10329     10326     10316     10316     10317
     10316     10318     10316     10330     10330     10331     10330     10332
     10332     10333     10330     10334     10334     10337     10337     10338
     10334     10335     10334     10336     10315     10318     10339     10340
     10339     10343     10339     10344     10344     10345     10344     10346
     10346     10347     10344     10348     10348     10349     10348     10350
     10348     10351     10351     10352     10351     10353     10351     10341
     10341     10342     10341     10358     10358     10359     10358     10362
     10358     10360     10360     10361     10341     10343     10362     10363
     10362     10364     10362     10365     10365     10366     10367     10368
     10367     10371     10367     10372     10372     10373     10372     10374
     10374     10375     10372     10376     10376     10377     10376     10378
     10376     10379     10379     10380     10379     10381     10379     10369
     10369     10370     10369     10386     10386     10387     10386     10390
     10386     10388     10388     10389     10369     10371     10390     10391
     10390     10392     10390     10393     10394     10395     10394     10398
     10394     10399     10399     10400     10399     10401     10401     10402
     10399     10403     10403     10404     10403     10405     10405     10406
     10403     10407     10407     10408     10407     10409     10409     10410
     10407     10396     10396     10397     10396     10411     10411     10412
     10411     10415     10411     10413     10413     10414     10396     10398
     10415     10416     10415     10417     10415     10418     10418     10419
     10420     10421     10420     10424     10420     10425     10425     10426
     10425     10427     10427     10428     10425     10429     10429     10430
     10429     10431     10429     10432     10432     10433     10432     10434
     10434     10435     10432     10422     10422     10423     10422     10436
     10436     10437     10436     10438     10436     10439     10439     10440
     10422     10424     10441     10442     10441     10445     10441     10446
     10446     10447     10446     10448     10446     10449     10449     10450
     10449     10451     10449     10452     10452     10453     10452     10454
     10454     10455     10452     10443     10443     10444     10443     10456
     10456     10457     10456     10458     10456     10459     10459     10460
     10443     10445     10461     10462     10461     10465     10461     10466
     10466     10467     10466     10468     10466     10469     10469     10470
     10469     10471     10471     10472     10469     10473     10473     10474
     10473     10475     10475     10476     10473     10463     10463     10464
     10463     10477     10477     10478     10477     10479     10477     10480
     10480     10481     10463     10465     10482     10483     10482     10486
     10482     10487     10487     10488     10487     10489     10489     10490
     10487     10491     10491     10492     10491     10493     10493     10494
     10491     10495     10495     10496     10495     10497     10497     10498
     10495     10484     10484     10485     10484     10499     10499     10500
     10499     10501     10499     10502     10502     10503     10484     10486
     10504     10505     10504     10508     10504     10509     10509     10510
     10509     10511     10511     10512     10509     10513     10513     10514
     10513     10515     10513     10516     10516     10517     10516     10518
     10518     10519     10516     10506     10506     10507     10506     10520
     10520     10521     10520     10522     10520     10523     10523     10524
     10506     10508     10299     10315     10302     10339     10350     10367
     10393     10394     10378     10420     10431     10441     10448     10461
     10468     10482     10451     10504     10353     10354     10355     10354
     10356     10354     10357     10354     10381     10382     10383     10382
     10384     10382     10385     10382      9992     10290     10525     10526
     10525     10529     10525     10530     10530     10531     10530     10532
     10532     10533     10530     10540     10540     10541     10540     10542
     10540     10543     10543     10544     10543     10545     10545     10546
     10543     10527     10527     10528     10527     10547     10547     10548
     10547     10549     10547     10550     10550     10551     10527     10529
     10532     10534     10534     10535     10534     10536     10536     10537
     10536     10538     10536     10539     10552     10553     10552     10556
     10552     10557     10557     10558     10557     10559     10557     10560
     10560     10561     10560     10562     10562     10563     10560     10564
     10564     10565     10564     10566     10566     10567     10564     10554
     10554     10555     10554     10568     10568     10569     10568     10570
     10568     10571     10571     10572     10554     10556     10573     10574
     10573     10577     10573     10578     10578     10579     10578     10580
     10578     10581     10581     10582     10581     10583     10583     10584
     10581     10585     10585     10586     10585     10587     10587     10588
     10585     10575     10575     10576     10575     10589     10589     10590
     10589     10591     10589     10592     10575     10577     10593     10594
     10593     10597     10593     10598     10598     10599     10598     10600
     10598     10601     10601     10602     10601     10603     10601     10604
     10604     10605     10604     10606     10606     10607     10604     10595
     10595     10596     10595     10608     10608     10609     10608     10610
     10608     10611     10595     10597     10612     10613     10612     10616
     10612     10617     10617     10618     10617     10619     10619     10620
     10617     10627     10627     10628     10627     10629     10629     10630
     10627     10631     10631     10632     10631     10633     10633     10634
     10631     10614     10614     10615     10614     10635     10635     10636
     10635     10637     10635     10638     10638     10639     10614     10616
     10619     10621     10621     10622     10621     10623     10623     10624
     10623     10625     10623     10626     10542     10552     10559     10573
     10580     10593     10600     10612     10640     10641     10640     10644
     10640     10645     10645     10646     10645     10647     10647     10648
     10645     10655     10655     10656     10655     10657     10655     10658
     10658     10659     10658     10660     10660     10661     10658     10642
     10642     10643     10642     10662     10662     10663     10662     10664
     10662     10665     10665     10666     10642     10644     10647     10649
     10649     10650     10649     10651     10651     10652     10651     10653
     10651     10654     10667     10668     10667     10671     10667     10672
     10672     10673     10672     10674     10672     10675     10675     10676
     10675     10677     10677     10678     10675     10679     10679     10680
     10679     10681     10681     10682     10679     10669     10669     10670
     10669     10683     10683     10684     10683     10685     10683     10686
     10686     10687     10669     10671     10688     10689     10688     10692
     10688     10693     10693     10694     10693     10695     10693     10696
     10696     10697     10696     10698     10698     10699     10696     10700
     10700     10701     10700     10702     10702     10703     10700     10690
     10690     10691     10690     10704     10704     10705     10704     10706
     10704     10707     10690     10692     10708     10709     10708     10712
     10708     10713     10713     10714     10713     10715     10713     10716
     10716     10717     10716     10718     10716     10719     10719     10720
     10719     10721     10721     10722     10719     10710     10710     10711
     10710     10723     10723     10724     10723     10725     10723     10726
     10710     10712     10727     10728     10727     10731     10727     10732
     10732     10733     10732     10734     10734     10735     10732     10742
     10742     10743     10742     10744     10744     10745     10742     10746
     10746     10747     10746     10748     10748     10749     10746     10729
     10729     10730     10729     10750     10750     10751     10750     10752
     10750     10753     10753     10754     10729     10731     10734     10736
     10736     10737     10736     10738     10738     10739     10738     10740
     10738     10741     10657     10667     10674     10688     10695     10708
     10715     10727     10603     10640     10755     10756     10755     10759
     10755     10760     10760     10761     10760     10762     10762     10763
     10760     10770     10770     10771     10770     10772     10770     10773
     10773     10774     10773     10775     10775     10776     10773     10757
     10757     10758     10757     10777     10777     10778     10777     10779
     10777     10780     10780     10781     10757     10759     10762     10764
     10764     10765     10764     10766     10766     10767     10766     10768
     10766     10769     10782     10783     10782     10786     10782     10787
     10787     10788     10787     10789     10787     10790     10790     10791
     10790     10792     10792     10793     10790     10794     10794     10795
     10794     10796     10796     10797     10794     10784     10784     10785
     10784     10798     10798     10799     10798     10800     10798     10801
     10801     10802     10784     10786     10803     10804     10803     10807
     10803     10808     10808     10809     10808     10810     10808     10811
     10811     10812     10811     10813     10813     10814     10811     10815
     10815     10816     10815     10817     10817     10818     10815     10805
     10805     10806     10805     10819     10819     10820     10819     10821
     10819     10822     10805     10807     10823     10824     10823     10827
     10823     10828     10828     10829     10828     10830     10828     10831
     10831     10832     10831     10833     10831     10834     10834     10835
     10834     10836     10836     10837     10834     10825     10825     10826
     10825     10838     10838     10839     10838     10840     10838     10841
     10825     10827     10842     10843     10842     10846     10842     10847
     10847     10848     10847     10849     10849     10850     10847     10857
     10857     10858     10857     10859     10859     10860     10857     10861
     10861     10862     10861     10863     10863     10864     10861     10844
     10844     10845     10844     10865     10865     10866     10865     10867
     10865     10868     10868     10869     10844     10846     10849     10851
     10851     10852     10851     10853     10853     10854     10853     10855
     10853     10856     10772     10782     10789     10803     10810     10823
     10830     10842     10718     10755     10870     10871     10870     10874
     10870     10875     10875     10876     10875     10877     10877     10878
     10875     10885     10885     10886     10885     10887     10885     10888
     10888     10889     10888     10890     10890     10891     10888     10872
     10872     10873     10872     10892     10892     10893     10892     10894
     10892     10895     10895     10896     10872     10874     10877     10879
     10879     10880     10879     10881     10881     10882     10881     10883
     10881     10884     10897     10898     10897     10901     10897     10902
     10902     10903     10902     10904     10902     10905     10905     10906
     10905     10907     10907     10908     10905     10909     10909     10910
     10909     10911     10911     10912     10909     10899     10899     10900
     10899     10913     10913     10914     10913     10915     10913     10916
     10916     10917     10899     10901     10918     10919     10918     10922
     10918     10923     10923     10924     10923     10925     10923     10926
     10926     10927     10926     10928     10928     10929     10926     10930
     10930     10931     10930     10932     10932     10933     10930     10920
     10920     10921     10920     10934     10934     10935     10934     10936
     10934     10937     10920     10922     10938     10939     10938     10942
     10938     10943     10943     10944     10943     10945     10943     10946
     10946     10947     10946     10948     10946     10949     10949     10950
     10949     10951     10951     10952     10949     10940     10940     10941
     10940     10953     10953     10954     10953     10955     10953     10956
     10940     10942     10957     10958     10957     10961     10957     10962
     10962     10963     10962     10964     10964     10965     10962     10972
     10972     10973     10972     10974     10974     10975     10972     10976
     10976     10977     10976     10978     10978     10979     10976     10959
     10959     10960     10959     10980     10980     10981     10980     10982
     10980     10983     10983     10984     10959     10961     10964     10966
     10966     10967     10966     10968     10968     10969     10968     10970
     10968     10971     10887     10897     10904     10918     10925     10938
     10945     10957     10833     10870     10985     10986     10985     10989
     10985     10990     10990     10991     10990     10992     10992     10993
     10990     11000     11000     11001     11000     11002     11000     11003
     11003     11004     11003     11005     11005     11006     11003     10987
     10987     10988     10987     11007     11007     11008     11007     11009
     11007     11010     11010     11011     10987     10989     10992     10994
     10994     10995     10994     10996     10996     10997     10996     10998
     10996     10999     11012     11013     11012     11016     11012     11017
     11017     11018     11017     11019     11017     11020     11020     11021
     11020     11022     11022     11023     11020     11024     11024     11025
     11024     11026     11026     11027     11024     11014     11014     11015
     11014     11028     11028     11029     11028     11030     11028     11031
     11031     11032     11014     11016     11033     11034     11033     11037
     11033     11038     11038     11039     11038     11040     11038     11041
     11041     11042     11041     11043     11043     11044     11041     11045
     11045     11046     11045     11047     11047     11048     11045     11035
     11035     11036     11035     11049     11049     11050     11049     11051
     11049     11052     11035     11037     11053     11054     11053     11057
     11053     11058     11058     11059     11058     11060     11058     11061
     11061     11062     11061     11063     11063     11064     11061     11065
     11065     11066     11065     11067     11067     11068     11065     11055
     11055     11056     11055     11069     11069     11070     11069     11071
     11069     11072     11055     11057     11073     11074     11073     11077
     11073     11078     11078     11079     11078     11080     11080     11081
     11078     11088     11088     11089     11088     11090     11090     11091
     11088     11092     11092     11093     11092     11094     11094     11095
     11092     11075     11075     11076     11075     11096     11096     11097
     11096     11098     11096     11099     11099     11100     11075     11077
     11080     11082     11082     11083     11082     11084     11084     11085
     11084     11086     11084     11087     11002     11012     11019     11033
     11040     11053     11060     11073     10948     10985     10515     10525
     11126     11127     11126     11128     11126     11159     11159     11160
     11159     11161     11162     11161     11162     11164     11164     11165
     11164     11166     11163     11162     11164     11167     11167     11168
     11167     11169     11167     11170     11170     11171     11170     11173
     11173     11174     11173     11175     11173     11176     11176     11177
     11170     11172     11176     11178     11176     11179     11179     11180
     11179     11181     11179     11182     11182     11183     11182     11184
     11182     11185     11185     11186     11185     11187     11185     11188
     11188     11189     11188     11190     11188     11191     11191     11192
     11191     11193     11191     11194     11194     11195     11194     11196
     11194     11197     11197     11198     11197     11199     11197     11200
     11200     11201     11200     11202     11200     11203     11159     11204
     11204     11205     11204     11206     11204     11207     11207     11208
     11207     11209     11207     11210     11210     11211     11210     11212
     11210     11213     11213     11214     11213     11215     11213     11216
     11216     11217     11216     11218     11216     11219     11219     11220
     11219     11221     11219     11222     11222     11223     11222     11224
     11222     11225     11225     11226     11225     11227     11225     11228
     11228     11229     11228     11230     11228     11231     11231     11232
     11231     11233     11231     11234     11234     11235     11234     11236
     11234     11237     11240     11241     11240     11242     11240     11243
     11243     11244     11243     11245     11247     11246     11245     11246
     11246     11248     11248     11249     11248     11250     11248     11251
     11251     11252     11251     11253     11251     11254     11254     11255
     11254     11256     11254     11257     11257     11258     11257     11259
     11257     11260     11260     11261     11260     11262     11260     11263
     11263     11264     11263     11265     11263     11266     11266     11267
     11266     11268     11266     11269     11269     11270     11269     11271
     11269     11272     11272     11273     11272     11274     11272     11275
     11275     11276     11275     11277     11275     11278     11278     11279
     11278     11280     11278     11281     11243     11282     11282     11283
     11282     11284     11282     11285     11285     11286     11285     11287
     11285     11288     11288     11289     11288     11290     11288     11291
     11291     11292     11291     11293     11291     11294     11294     11295
     11294     11296     11294     11297     11297     11298     11297     11299
     11297     11300     11300     11301     11300     11302     11300     11303
     11303     11304     11303     11305     11303     11306     11306     11307
     11306     11308     11306     11309     11309     11310     11309     11311
     11309     11312     11312     11313     11312     11314     11312     11315
     11150     11151     11150     11152     11152     11153     11152     11154
     11152     11316     11316     11317     11316     11318     11318     11319
     11316     11320     11320     11321     11320     11322     11320     11323
     11323     11324     11323     11325     11323     11326     11326     11327
     11326     11328     11326     11329     11329     11330     11329     11331
     11329     11332     11332     11333     11332     11334     11332     11335
     11335     11336     11335     11337     11335     11338     11338     11339
     11338     11340     11338     11341     11341     11342     11341     11343
     11341     11344     11344     11345     11344     11346     11344     11347
     11347     11348     11347     11349     11347     11350     11350     11351
     11350     11352     11350     11353     11359     11361     11361     11362
     11359     11363     11363     11364     11363     11365     11363     11366
     11366     11367     11366     11368     11366     11369     11369     11370
     11369     11371     11369     11372     11372     11373     11372     11374
     11372     11375     11375     11376     11375     11377     11375     11378
     11378     11379     11378     11380     11378     11381     11381     11382
     11381     11383     11381     11384     11384     11385     11384     11386
     11384     11387     11387     11388     11387     11389     11387     11390
     11390     11391     11390     11392     11390     11393     11393     11394
     11393     11395     11393     11396     11117     11118     11117     11119
     11117     11120     11117     11116     11116     11114     11114     11115
     11114     11105     11105     11107     11105     11103     11103     11104
     11103     11101     11103     11102     11105     11106     11106     11108
     11108     11109     11108     11129     11129     11130     11129     11131
     11131     11132     11131     11238     11238     11240     11129     11121
     11121     11123     11121     11114     11238     11239     11124     11125
     11121     11122     11122     11124     11124     11126     11108     11110
     11111     11110     11111     11112     11111     11113     11111     11137
     11137     11138     11137     11133     11133     11134     11133     11135
     11135     11136     11133     11147     11147     11148     11147     11149
     11149     11150     11147     11155     11155     11156     11155     11157
     11157     11158     11157     11354     11354     11356     11356     11357
     11356     11358     11356     11359     11155     11140     11140     11141
     11140     11139     11140     11142     11142     11146     11146     11143
     11146     11144     11146     11145     11139     11137     11359     11360
     11354     11355     11397     11399     11397     11400     11400     11404
     11397     11398     11404     11405     11404     11406     11404     11407
     11407     11408     11407     11409     11407     11410     11410     11411
     11410     11412     11410     11401     11401     11402     11401     11403
     11401     11413     11413     11414     11413     11415     11415     11416
     11413     11417     11417     11420     11420     11421     11417     11418
     11417     11419     11400     11403     11422     11424     11422     11425
     11425     11429     11422     11423     11429     11430     11429     11431
     11429     11432     11432     11433     11432     11434     11434     11435
     11432     11436     11436     11437     11436     11438     11438     11439
     11436     11426     11426     11427     11426     11428     11426     11440
     11440     11441     11440     11442     11442     11443     11440     11444
     11444     11447     11447     11448     11444     11445     11444     11446
     11425     11428     11449     11450     11449     11453     11449     11454
     11454     11455     11454     11456     11456     11457     11454     11458
     11458     11459     11458     11460     11458     11461     11461     11462
     11461     11463     11461     11451     11451     11452     11451     11468
     11468     11469     11468     11472     11468     11470     11470     11471
     11451     11453     11472     11473     11472     11474     11472     11475
     11475     11476     11477     11478     11477     11481     11477     11482
     11482     11483     11482     11484     11484     11485     11482     11486
     11486     11487     11486     11488     11486     11489     11489     11490
     11489     11491     11489     11479     11479     11480     11479     11496
     11496     11497     11496     11500     11496     11498     11498     11499
     11479     11481     11500     11501     11500     11502     11500     11503
     11504     11505     11504     11508     11504     11509     11509     11510
     11509     11511     11511     11512     11509     11513     11513     11514
     11513     11515     11515     11516     11513     11517     11517     11518
     11517     11519     11519     11520     11517     11506     11506     11507
     11506     11521     11521     11522     11521     11525     11521     11523
     11523     11524     11506     11508     11525     11526     11525     11527
     11525     11528     11528     11529     11530     11531     11530     11534
     11530     11535     11535     11536     11535     11537     11537     11538
     11535     11539     11539     11540     11539     11541     11539     11542
     11542     11543     11542     11544     11544     11545     11542     11532
     11532     11533     11532     11546     11546     11547     11546     11548
     11546     11549     11549     11550     11532     11534     11551     11552
     11551     11555     11551     11556     11556     11557     11556     11558
     11556     11559     11559     11560     11559     11561     11559     11562
     11562     11563     11562     11564     11564     11565     11562     11553
     11553     11554     11553     11566     11566     11567     11566     11568
     11566     11569     11569     11570     11553     11555     11571     11572
     11571     11575     11571     11576     11576     11577     11576     11578
     11576     11579     11579     11580     11579     11581     11581     11582
     11579     11583     11583     11584     11583     11585     11585     11586
     11583     11573     11573     11574     11573     11587     11587     11588
     11587     11589     11587     11590     11590     11591     11573     11575
     11592     11593     11592     11596     11592     11597     11597     11598
     11597     11599     11599     11600     11597     11601     11601     11602
     11601     11603     11603     11604     11601     11605     11605     11606
     11605     11607     11607     11608     11605     11594     11594     11595
     11594     11609     11609     11610     11609     11611     11609     11612
     11612     11613     11594     11596     11614     11615     11614     11618
     11614     11619     11619     11620     11619     11621     11621     11622
     11619     11623     11623     11624     11623     11625     11623     11626
     11626     11627     11626     11628     11628     11629     11626     11616
     11616     11617     11616     11630     11630     11631     11630     11632
     11630     11633     11633     11634     11616     11618     11409     11425
     11412     11449     11460     11477     11503     11504     11488     11530
     11541     11551     11558     11571     11578     11592     11561     11614
     11463     11464     11465     11464     11466     11464     11467     11464
     11491     11492     11493     11492     11494     11492     11495     11492
     11102     11400     11635     11636     11635     11639     11635     11640
     11640     11641     11640     11642     11642     11643     11640     11650
     11650     11651     11650     11652     11650     11653     11653     11654
     11653     11655     11655     11656     11653     11637     11637     11638
     11637     11657     11657     11658     11657     11659     11657     11660
     11660     11661     11637     11639     11642     11644     11644     11645
     11644     11646     11646     11647     11646     11648     11646     11649
     11662     11663     11662     11666     11662     11667     11667     11668
     11667     11669     11667     11670     11670     11671     11670     11672
     11672     11673     11670     11674     11674     11675     11674     11676
     11676     11677     11674     11664     11664     11665     11664     11678
     11678     11679     11678     11680     11678     11681     11681     11682
     11664     11666     11683     11684     11683     11687     11683     11688
     11688     11689     11688     11690     11688     11691     11691     11692
     11691     11693     11693     11694     11691     11695     11695     11696
     11695     11697     11697     11698     11695     11685     11685     11686
     11685     11699     11699     11700     11699     11701     11699     11702
     11685     11687     11703     11704     11703     11707     11703     11708
     11708     11709     11708     11710     11708     11711     11711     11712
     11711     11713     11711     11714     11714     11715     11714     11716
     11716     11717     11714     11705     11705     11706     11705     11718
     11718     11719     11718     11720     11718     11721     11705     11707
     11722     11723     11722     11726     11722     11727     11727     11728
     11727     11729     11729     11730     11727     11737     11737     11738
     11737     11739     11739     11740     11737     11741     11741     11742
     11741     11743     11743     11744     11741     11724     11724     11725
     11724     11745     11745     11746     11745     11747     11745     11748
     11748     11749     11724     11726     11729     11731     11731     11732
     11731     11733     11733     11734     11733     11735     11733     11736
     11652     11662     11669     11683     11690     11703     11710     11722
     11750     11751     11750     11754     11750     11755     11755     11756
     11755     11757     11757     11758     11755     11765     11765     11766
     11765     11767     11765     11768     11768     11769     11768     11770
     11770     11771     11768     11752     11752     11753     11752     11772
     11772     11773     11772     11774     11772     11775     11775     11776
     11752     11754     11757     11759     11759     11760     11759     11761
     11761     11762     11761     11763     11761     11764     11777     11778
     11777     11781     11777     11782     11782     11783     11782     11784
     11782     11785     11785     11786     11785     11787     11787     11788
     11785     11789     11789     11790     11789     11791     11791     11792
     11789     11779     11779     11780     11779     11793     11793     11794
     11793     11795     11793     11796     11796     11797     11779     11781
     11798     11799     11798     11802     11798     11803     11803     11804
     11803     11805     11803     11806     11806     11807     11806     11808
     11808     11809     11806     11810     11810     11811     11810     11812
     11812     11813     11810     11800     11800     11801     11800     11814
     11814     11815     11814     11816     11814     11817     11800     11802
     11818     11819     11818     11822     11818     11823     11823     11824
     11823     11825     11823     11826     11826     11827     11826     11828
     11826     11829     11829     11830     11829     11831     11831     11832
     11829     11820     11820     11821     11820     11833     11833     11834
     11833     11835     11833     11836     11820     11822     11837     11838
     11837     11841     11837     11842     11842     11843     11842     11844
     11844     11845     11842     11852     11852     11853     11852     11854
     11854     11855     11852     11856     11856     11857     11856     11858
     11858     11859     11856     11839     11839     11840     11839     11860
     11860     11861     11860     11862     11860     11863     11863     11864
     11839     11841     11844     11846     11846     11847     11846     11848
     11848     11849     11848     11850     11848     11851     11767     11777
     11784     11798     11805     11818     11825     11837     11713     11750
     11865     11866     11865     11869     11865     11870     11870     11871
     11870     11872     11872     11873     11870     11880     11880     11881
     11880     11882     11880     11883     11883     11884     11883     11885
     11885     11886     11883     11867     11867     11868     11867     11887
     11887     11888     11887     11889     11887     11890     11890     11891
     11867     11869     11872     11874     11874     11875     11874     11876
     11876     11877     11876     11878     11876     11879     11892     11893
     11892     11896     11892     11897     11897     11898     11897     11899
     11897     11900     11900     11901     11900     11902     11902     11903
     11900     11904     11904     11905     11904     11906     11906     11907
     11904     11894     11894     11895     11894     11908     11908     11909
     11908     11910     11908     11911     11911     11912     11894     11896
     11913     11914     11913     11917     11913     11918     11918     11919
     11918     11920     11918     11921     11921     11922     11921     11923
     11923     11924     11921     11925     11925     11926     11925     11927
     11927     11928     11925     11915     11915     11916     11915     11929
     11929     11930     11929     11931     11929     11932     11915     11917
     11933     11934     11933     11937     11933     11938     11938     11939
     11938     11940     11938     11941     11941     11942     11941     11943
     11941     11944     11944     11945     11944     11946     11946     11947
     11944     11935     11935     11936     11935     11948     11948     11949
     11948     11950     11948     11951     11935     11937     11952     11953
     11952     11956     11952     11957     11957     11958     11957     11959
     11959     11960     11957     11967     11967     11968     11967     11969
     11969     11970     11967     11971     11971     11972     11971     11973
     11973     11974     11971     11954     11954     11955     11954     11975
     11975     11976     11975     11977     11975     11978     11978     11979
     11954     11956     11959     11961     11961     11962     11961     11963
     11963     11964     11963     11965     11963     11966     11882     11892
     11899     11913     11920     11933     11940     11952     11828     11865
     11980     11981     11980     11984     11980     11985     11985     11986
     11985     11987     11987     11988     11985     11995     11995     11996
     11995     11997     11995     11998     11998     11999     11998     12000
     12000     12001     11998     11982     11982     11983     11982     12002
     12002     12003     12002     12004     12002     12005     12005     12006
     11982     11984     11987     11989     11989     11990     11989     11991
     11991     11992     11991     11993     11991     11994     12007     12008
     12007     12011     12007     12012     12012     12013     12012     12014
     12012     12015     12015     12016     12015     12017     12017     12018
     12015     12019     12019     12020     12019     12021     12021     12022
     12019     12009     12009     12010     12009     12023     12023     12024
     12023     12025     12023     12026     12026     12027     12009     12011
     12028     12029     12028     12032     12028     12033     12033     12034
     12033     12035     12033     12036     12036     12037     12036     12038
     12038     12039     12036     12040     12040     12041     12040     12042
     12042     12043     12040     12030     12030     12031     12030     12044
     12044     12045     12044     12046     12044     12047     12030     12032
     12048     12049     12048     12052     12048     12053     12053     12054
     12053     12055     12053     12056     12056     12057     12056     12058
     12056     12059     12059     12060     12059     12061     12061     12062
     12059     12050     12050     12051     12050     12063     12063     12064
     12063     12065     12063     12066     12050     12052     12067     12068
     12067     12071     12067     12072     12072     12073     12072     12074
     12074     12075     12072     12082     12082     12083     12082     12084
     12084     12085     12082     12086     12086     12087     12086     12088
     12088     12089     12086     12069     12069     12070     12069     12090
     12090     12091     12090     12092     12090     12093     12093     12094
     12069     12071     12074     12076     12076     12077     12076     12078
     12078     12079     12078     12080     12078     12081     11997     12007
     12014     12028     12035     12048     12055     12067     11943     11980
     12095     12096     12095     12099     12095     12100     12100     12101
     12100     12102     12102     12103     12100     12110     12110     12111
     12110     12112     12110     12113     12113     12114     12113     12115
     12115     12116     12113     12097     12097     12098     12097     12117
     12117     12118     12117     12119     12117     12120     12120     12121
     12097     12099     12102     12104     12104     12105     12104     12106
     12106     12107     12106     12108     12106     12109     12122     12123
     12122     12126     12122     12127     12127     12128     12127     12129
     12127     12130     12130     12131     12130     12132     12132     12133
     12130     12134     12134     12135     12134     12136     12136     12137
     12134     12124     12124     12125     12124     12138     12138     12139
     12138     12140     12138     12141     12141     12142     12124     12126
     12143     12144     12143     12147     12143     12148     12148     12149
     12148     12150     12148     12151     12151     12152     12151     12153
     12153     12154     12151     12155     12155     12156     12155     12157
     12157     12158     12155     12145     12145     12146     12145     12159
     12159     12160     12159     12161     12159     12162     12145     12147
     12163     12164     12163     12167     12163     12168     12168     12169
     12168     12170     12168     12171     12171     12172     12171     12173
     12173     12174     12171     12175     12175     12176     12175     12177
     12177     12178     12175     12165     12165     12166     12165     12179
     12179     12180     12179     12181     12179     12182     12165     12167
     12183     12184     12183     12187     12183     12188     12188     12189
     12188     12190     12190     12191     12188     12198     12198     12199
     12198     12200     12200     12201     12198     12202     12202     12203
     12202     12204     12204     12205     12202     12185     12185     12186
     12185     12206     12206     12207     12206     12208     12206     12209
     12209     12210     12185     12187     12190     12192     12192     12193
     12192     12194     12194     12195     12194     12196     12194     12197
     12112     12122     12129     12143     12150     12163     12170     12183
     12058     12095     11625     11635     12236     12237     12236     12238
     12236     12269     12269     12270     12269     12271     12272     12271
     12272     12274     12274     12275     12274     12276     12273     12272
     12274     12277     12277     12278     12277     12279     12277     12280
     12280     12281     12280     12283     12283     12284     12283     12285
     12283     12286     12286     12287     12280     12282     12286     12288
     12286     12289     12289     12290     12289     12291     12289     12292
     12292     12293     12292     12294     12292     12295     12295     12296
     12295     12297     12295     12298     12298     12299     12298     12300
     12298     12301     12301     12302     12301     12303     12301     12304
     12304     12305     12304     12306     12304     12307     12307     12308
     12307     12309     12307     12310     12310     12311     12310     12312
     12310     12313     12269     12314     12314     12315     12314     12316
     12314     12317     12317     12318     12317     12319     12317     12320
     12320     12321     12320     12322     12320     12323     12323     12324
     12323     12325     12323     12326     12326     12327     12326     12328
     12326     12329     12329     12330     12329     12331     12329     12332
     12332     12333     12332     12334     12332     12335     12335     12336
     12335     12337     12335     12338     12338     12339     12338     12340
     12338     12341     12341     12342     12341     12343     12341     12344
     12344     12345     12344     12346     12344     12347     12350     12351
     12350     12352     12350     12353     12353     12354     12353     12355
     12357     12356     12355     12356     12356     12358     12358     12359
     12358     12360     12358     12361     12361     12362     12361     12363
     12361     12364     12364     12365     12364     12366     12364     12367
     12367     12368     12367     12369     12367     12370     12370     12371
     12370     12372     12370     12373     12373     12374     12373     12375
     12373     12376     12376     12377     12376     12378     12376     12379
     12379     12380     12379     12381     12379     12382     12382     12383
     12382     12384     12382     12385     12385     12386     12385     12387
     12385     12388     12388     12389     12388     12390     12388     12391
     12353     12392     12392     12393     12392     12394     12392     12395
     12395     12396     12395     12397     12395     12398     12398     12399
     12398     12400     12398     12401     12401     12402     12401     12403
     12401     12404     12404     12405     12404     12406     12404     12407
     12407     12408     12407     12409     12407     12410     12410     12411
     12410     12412     12410     12413     12413     12414     12413     12415
     12413     12416     12416     12417     12416     12418     12416     12419
     12419     12420     12419     12421     12419     12422     12422     12423
     12422     12424     12422     12425     12260     12261     12260     12262
     12262     12263     12262     12264     12262     12426     12426     12427
     12426     12428     12428     12429     12426     12430     12430     12431
     12430     12432     12430     12433     12433     12434     12433     12435
     12433     12436     12436     12437     12436     12438     12436     12439
     12439     12440     12439     12441     12439     12442     12442     12443
     12442     12444     12442     12445     12445     12446     12445     12447
     12445     12448     12448     12449     12448     12450     12448     12451
     12451     12452     12451     12453     12451     12454     12454     12455
     12454     12456     12454     12457     12457     12458     12457     12459
     12457     12460     12460     12461     12460     12462     12460     12463
     12469     12471     12471     12472     12469     12473     12473     12474
     12473     12475     12473     12476     12476     12477     12476     12478
     12476     12479     12479     12480     12479     12481     12479     12482
     12482     12483     12482     12484     12482     12485     12485     12486
     12485     12487     12485     12488     12488     12489     12488     12490
     12488     12491     12491     12492     12491     12493     12491     12494
     12494     12495     12494     12496     12494     12497     12497     12498
     12497     12499     12497     12500     12500     12501     12500     12502
     12500     12503     12503     12504     12503     12505     12503     12506
     12227     12228     12227     12229     12227     12230     12227     12226
     12226     12224     12224     12225     12224     12215     12215     12217
     12215     12213     12213     12214     12213     12211     12213     12212
     12215     12216     12216     12218     12218     12219     12218     12239
     12239     12240     12239     12241     12241     12242     12241     12348
     12348     12350     12239     12231     12231     12233     12231     12224
     12348     12349     12234     12235     12231     12232     12232     12234
     12234     12236     12218     12220     12221     12220     12221     12222
     12221     12223     12221     12247     12247     12248     12247     12243
     12243     12244     12243     12245     12245     12246     12243     12257
     12257     12258     12257     12259     12259     12260     12257     12265
     12265     12266     12265     12267     12267     12268     12267     12464
     12464     12466     12466     12467     12466     12468     12466     12469
     12265     12250     12250     12251     12250     12249     12250     12252
     12252     12256     12256     12253     12256     12254     12256     12255
     12249     12247     12469     12470     12464     12465     12507     12509
     12507     12510     12510     12514     12507     12508     12514     12515
     12514     12516     12514     12517     12517     12518     12517     12519
     12517     12520     12520     12521     12520     12522     12520     12511
     12511     12512     12511     12513     12511     12523     12523     12524
     12523     12525     12525     12526     12523     12527     12527     12530
     12530     12531     12527     12528     12527     12529     12510     12513
     12532     12534     12532     12535     12535     12539     12532     12533
     12539     12540     12539     12541     12539     12542     12542     12543
     12542     12544     12544     12545     12542     12546     12546     12547
     12546     12548     12548     12549     12546     12536     12536     12537
     12536     12538     12536     12550     12550     12551     12550     12552
     12552     12553     12550     12554     12554     12557     12557     12558
     12554     12555     12554     12556     12535     12538     12559     12560
     12559     12563     12559     12564     12564     12565     12564     12566
     12566     12567     12564     12568     12568     12569     12568     12570
     12568     12571     12571     12572     12571     12573     12571     12561
     12561     12562     12561     12578     12578     12579     12578     12582
     12578     12580     12580     12581     12561     12563     12582     12583
     12582     12584     12582     12585     12585     12586     12587     12588
     12587     12591     12587     12592     12592     12593     12592     12594
     12594     12595     12592     12596     12596     12597     12596     12598
     12596     12599     12599     12600     12599     12601     12599     12589
     12589     12590     12589     12606     12606     12607     12606     12610
     12606     12608     12608     12609     12589     12591     12610     12611
     12610     12612     12610     12613     12614     12615     12614     12618
     12614     12619     12619     12620     12619     12621     12621     12622
     12619     12623     12623     12624     12623     12625     12625     12626
     12623     12627     12627     12628     12627     12629     12629     12630
     12627     12616     12616     12617     12616     12631     12631     12632
     12631     12635     12631     12633     12633     12634     12616     12618
     12635     12636     12635     12637     12635     12638     12638     12639
     12640     12641     12640     12644     12640     12645     12645     12646
     12645     12647     12647     12648     12645     12649     12649     12650
     12649     12651     12649     12652     12652     12653     12652     12654
     12654     12655     12652     12642     12642     12643     12642     12656
     12656     12657     12656     12658     12656     12659     12659     12660
     12642     12644     12661     12662     12661     12665     12661     12666
     12666     12667     12666     12668     12666     12669     12669     12670
     12669     12671     12669     12672     12672     12673     12672     12674
     12674     12675     12672     12663     12663     12664     12663     12676
     12676     12677     12676     12678     12676     12679     12679     12680
     12663     12665     12681     12682     12681     12685     12681     12686
     12686     12687     12686     12688     12686     12689     12689     12690
     12689     12691     12691     12692     12689     12693     12693     12694
     12693     12695     12695     12696     12693     12683     12683     12684
     12683     12697     12697     12698     12697     12699     12697     12700
     12700     12701     12683     12685     12702     12703     12702     12706
     12702     12707     12707     12708     12707     12709     12709     12710
     12707     12711     12711     12712     12711     12713     12713     12714
     12711     12715     12715     12716     12715     12717     12717     12718
     12715     12704     12704     12705     12704     12719     12719     12720
     12719     12721     12719     12722     12722     12723     12704     12706
     12724     12725     12724     12728     12724     12729     12729     12730
     12729     12731     12731     12732     12729     12733     12733     12734
     12733     12735     12733     12736     12736     12737     12736     12738
     12738     12739     12736     12726     12726     12727     12726     12740
     12740     12741     12740     12742     12740     12743     12743     12744
     12726     12728     12519     12535     12522     12559     12570     12587
     12613     12614     12598     12640     12651     12661     12668     12681
     12688     12702     12671     12724     12573     12574     12575     12574
     12576     12574     12577     12574     12601     12602     12603     12602
     12604     12602     12605     12602     12212     12510     12745     12746
     12745     12749     12745     12750     12750     12751     12750     12752
     12752     12753     12750     12760     12760     12761     12760     12762
     12760     12763     12763     12764     12763     12765     12765     12766
     12763     12747     12747     12748     12747     12767     12767     12768
     12767     12769     12767     12770     12770     12771     12747     12749
     12752     12754     12754     12755     12754     12756     12756     12757
     12756     12758     12756     12759     12772     12773     12772     12776
     12772     12777     12777     12778     12777     12779     12777     12780
     12780     12781     12780     12782     12782     12783     12780     12784
     12784     12785     12784     12786     12786     12787     12784     12774
     12774     12775     12774     12788     12788     12789     12788     12790
     12788     12791     12791     12792     12774     12776     12793     12794
     12793     12797     12793     12798     12798     12799     12798     12800
     12798     12801     12801     12802     12801     12803     12803     12804
     12801     12805     12805     12806     12805     12807     12807     12808
     12805     12795     12795     12796     12795     12809     12809     12810
     12809     12811     12809     12812     12795     12797     12813     12814
     12813     12817     12813     12818     12818     12819     12818     12820
     12818     12821     12821     12822     12821     12823     12821     12824
     12824     12825     12824     12826     12826     12827     12824     12815
     12815     12816     12815     12828     12828     12829     12828     12830
     12828     12831     12815     12817     12832     12833     12832     12836
     12832     12837     12837     12838     12837     12839     12839     12840
     12837     12847     12847     12848     12847     12849     12849     12850
     12847     12851     12851     12852     12851     12853     12853     12854
     12851     12834     12834     12835     12834     12855     12855     12856
     12855     12857     12855     12858     12858     12859     12834     12836
     12839     12841     12841     12842     12841     12843     12843     12844
     12843     12845     12843     12846     12762     12772     12779     12793
     12800     12813     12820     12832     12860     12861     12860     12864
     12860     12865     12865     12866     12865     12867     12867     12868
     12865     12875     12875     12876     12875     12877     12875     12878
     12878     12879     12878     12880     12880     12881     12878     12862
     12862     12863     12862     12882     12882     12883     12882     12884
     12882     12885     12885     12886     12862     12864     12867     12869
     12869     12870     12869     12871     12871     12872     12871     12873
     12871     12874     12887     12888     12887     12891     12887     12892
     12892     12893     12892     12894     12892     12895     12895     12896
     12895     12897     12897     12898     12895     12899     12899     12900
     12899     12901     12901     12902     12899     12889     12889     12890
     12889     12903     12903     12904     12903     12905     12903     12906
     12906     12907     12889     12891     12908     12909     12908     12912
     12908     12913     12913     12914     12913     12915     12913     12916
     12916     12917     12916     12918     12918     12919     12916     12920
     12920     12921     12920     12922     12922     12923     12920     12910
     12910     12911     12910     12924     12924     12925     12924     12926
     12924     12927     12910     12912     12928     12929     12928     12932
     12928     12933     12933     12934     12933     12935     12933     12936
     12936     12937     12936     12938     12936     12939     12939     12940
     12939     12941     12941     12942     12939     12930     12930     12931
     12930     12943     12943     12944     12943     12945     12943     12946
     12930     12932     12947     12948     12947     12951     12947     12952
     12952     12953     12952     12954     12954     12955     12952     12962
     12962     12963     12962     12964     12964     12965     12962     12966
     12966     12967     12966     12968     12968     12969     12966     12949
     12949     12950     12949     12970     12970     12971     12970     12972
     12970     12973     12973     12974     12949     12951     12954     12956
     12956     12957     12956     12958     12958     12959     12958     12960
     12958     12961     12877     12887     12894     12908     12915     12928
     12935     12947     12823     12860     12975     12976     12975     12979
     12975     12980     12980     12981     12980     12982     12982     12983
     12980     12990     12990     12991     12990     12992     12990     12993
     12993     12994     12993     12995     12995     12996     12993     12977
     12977     12978     12977     12997     12997     12998     12997     12999
     12997     13000     13000     13001     12977     12979     12982     12984
     12984     12985     12984     12986     12986     12987     12986     12988
     12986     12989     13002     13003     13002     13006     13002     13007
     13007     13008     13007     13009     13007     13010     13010     13011
     13010     13012     13012     13013     13010     13014     13014     13015
     13014     13016     13016     13017     13014     13004     13004     13005
     13004     13018     13018     13019     13018     13020     13018     13021
     13021     13022     13004     13006     13023     13024     13023     13027
     13023     13028     13028     13029     13028     13030     13028     13031
     13031     13032     13031     13033     13033     13034     13031     13035
     13035     13036     13035     13037     13037     13038     13035     13025
     13025     13026     13025     13039     13039     13040     13039     13041
     13039     13042     13025     13027     13043     13044     13043     13047
     13043     13048     13048     13049     13048     13050     13048     13051
     13051     13052     13051     13053     13051     13054     13054     13055
     13054     13056     13056     13057     13054     13045     13045     13046
     13045     13058     13058     13059     13058     13060     13058     13061
     13045     13047     13062     13063     13062     13066     13062     13067
     13067     13068     13067     13069     13069     13070     13067     13077
     13077     13078     13077     13079     13079     13080     13077     13081
     13081     13082     13081     13083     13083     13084     13081     13064
     13064     13065     13064     13085     13085     13086     13085     13087
     13085     13088     13088     13089     13064     13066     13069     13071
     13071     13072     13071     13073     13073     13074     13073     13075
     13073     13076     12992     13002     13009     13023     13030     13043
     13050     13062     12938     12975     13090     13091     13090     13094
     13090     13095     13095     13096     13095     13097     13097     13098
     13095     13105     13105     13106     13105     13107     13105     13108
     13108     13109     13108     13110     13110     13111     13108     13092
     13092     13093     13092     13112     13112     13113     13112     13114
     13112     13115     13115     13116     13092     13094     13097     13099
     13099     13100     13099     13101     13101     13102     13101     13103
     13101     13104     13117     13118     13117     13121     13117     13122
     13122     13123     13122     13124     13122     13125     13125     13126
     13125     13127     13127     13128     13125     13129     13129     13130
     13129     13131     13131     13132     13129     13119     13119     13120
     13119     13133     13133     13134     13133     13135     13133     13136
     13136     13137     13119     13121     13138     13139     13138     13142
     13138     13143     13143     13144     13143     13145     13143     13146
     13146     13147     13146     13148     13148     13149     13146     13150
     13150     13151     13150     13152     13152     13153     13150     13140
     13140     13141     13140     13154     13154     13155     13154     13156
     13154     13157     13140     13142     13158     13159     13158     13162
     13158     13163     13163     13164     13163     13165     13163     13166
     13166     13167     13166     13168     13166     13169     13169     13170
     13169     13171     13171     13172     13169     13160     13160     13161
     13160     13173     13173     13174     13173     13175     13173     13176
     13160     13162     13177     13178     13177     13181     13177     13182
     13182     13183     13182     13184     13184     13185     13182     13192
     13192     13193     13192     13194     13194     13195     13192     13196
     13196     13197     13196     13198     13198     13199     13196     13179
     13179     13180     13179     13200     13200     13201     13200     13202
     13200     13203     13203     13204     13179     13181     13184     13186
     13186     13187     13186     13188     13188     13189     13188     13190
     13188     13191     13107     13117     13124     13138     13145     13158
     13165     13177     13053     13090     13205     13206     13205     13209
     13205     13210     13210     13211     13210     13212     13212     13213
     13210     13220     13220     13221     13220     13222     13220     13223
     13223     13224     13223     13225     13225     13226     13223     13207
     13207     13208     13207     13227     13227     13228     13227     13229
     13227     13230     13230     13231     13207     13209     13212     13214
     13214     13215     13214     13216     13216     13217     13216     13218
     13216     13219     13232     13233     13232     13236     13232     13237
     13237     13238     13237     13239     13237     13240     13240     13241
     13240     13242     13242     13243     13240     13244     13244     13245
     13244     13246     13246     13247     13244     13234     13234     13235
     13234     13248     13248     13249     13248     13250     13248     13251
     13251     13252     13234     13236     13253     13254     13253     13257
     13253     13258     13258     13259     13258     13260     13258     13261
     13261     13262     13261     13263     13263     13264     13261     13265
     13265     13266     13265     13267     13267     13268     13265     13255
     13255     13256     13255     13269     13269     13270     13269     13271
     13269     13272     13255     13257     13273     13274     13273     13277
     13273     13278     13278     13279     13278     13280     13278     13281
     13281     13282     13281     13283     13283     13284     13281     13285
     13285     13286     13285     13287     13287     13288     13285     13275
     13275     13276     13275     13289     13289     13290     13289     13291
     13289     13292     13275     13277     13293     13294     13293     13297
     13293     13298     13298     13299     13298     13300     13300     13301
     13298     13308     13308     13309     13308     13310     13310     13311
     13308     13312     13312     13313     13312     13314     13314     13315
     13312     13295     13295     13296     13295     13316     13316     13317
     13316     13318     13316     13319     13319     13320     13295     13297
     13300     13302     13302     13303     13302     13304     13304     13305
     13304     13306     13304     13307     13222     13232     13239     13253
     13260     13273     13280     13293     13168     13205     12735     12745
     13346     13347     13346     13348     13346     13379     13379     13380
     13379     13381     13382     13381     13382     13384     13384     13385
     13384     13386     13383     13382     13384     13387     13387     13388
     13387     13389     13387     13390     13390     13391     13390     13393
     13393     13394     13393     13395     13393     13396     13396     13397
     13390     13392     13396     13398     13396     13399     13399     13400
     13399     13401     13399     13402     13402     13403     13402     13404
     13402     13405     13405     13406     13405     13407     13405     13408
     13408     13409     13408     13410     13408     13411     13411     13412
     13411     13413     13411     13414     13414     13415     13414     13416
     13414     13417     13417     13418     13417     13419     13417     13420
     13420     13421     13420     13422     13420     13423     13379     13424
     13424     13425     13424     13426     13424     13427     13427     13428
     13427     13429     13427     13430     13430     13431     13430     13432
     13430     13433     13433     13434     13433     13435     13433     13436
     13436     13437     13436     13438     13436     13439     13439     13440
     13439     13441     13439     13442     13442     13443     13442     13444
     13442     13445     13445     13446     13445     13447     13445     13448
     13448     13449     13448     13450     13448     13451     13451     13452
     13451     13453     13451     13454     13454     13455     13454     13456
     13454     13457     13460     13461     13460     13462     13460     13463
     13463     13464     13463     13465     13467     13466     13465     13466
     13466     13468     13468     13469     13468     13470     13468     13471
     13471     13472     13471     13473     13471     13474     13474     13475
     13474     13476     13474     13477     13477     13478     13477     13479
     13477     13480     13480     13481     13480     13482     13480     13483
     13483     13484     13483     13485     13483     13486     13486     13487
     13486     13488     13486     13489     13489     13490     13489     13491
     13489     13492     13492     13493     13492     13494     13492     13495
     13495     13496     13495     13497     13495     13498     13498     13499
     13498     13500     13498     13501     13463     13502     13502     13503
     13502     13504     13502     13505     13505     13506     13505     13507
     13505     13508     13508     13509     13508     13510     13508     13511
     13511     13512     13511     13513     13511     13514     13514     13515
     13514     13516     13514     13517     13517     13518     13517     13519
     13517     13520     13520     13521     13520     13522     13520     13523
     13523     13524     13523     13525     13523     13526     13526     13527
     13526     13528     13526     13529     13529     13530     13529     13531
     13529     13532     13532     13533     13532     13534     13532     13535
     13370     13371     13370     13372     13372     13373     13372     13374
     13372     13536     13536     13537     13536     13538     13538     13539
     13536     13540     13540     13541     13540     13542     13540     13543
     13543     13544     13543     13545     13543     13546     13546     13547
     13546     13548     13546     13549     13549     13550     13549     13551
     13549     13552     13552     13553     13552     13554     13552     13555
     13555     13556     13555     13557     13555     13558     13558     13559
     13558     13560     13558     13561     13561     13562     13561     13563
     13561     13564     13564     13565     13564     13566     13564     13567
     13567     13568     13567     13569     13567     13570     13570     13571
     13570     13572     13570     13573     13579     13581     13581     13582
     13579     13583     13583     13584     13583     13585     13583     13586
     13586     13587     13586     13588     13586     13589     13589     13590
     13589     13591     13589     13592     13592     13593     13592     13594
     13592     13595     13595     13596     13595     13597     13595     13598
     13598     13599     13598     13600     13598     13601     13601     13602
     13601     13603     13601     13604     13604     13605     13604     13606
     13604     13607     13607     13608     13607     13609     13607     13610
     13610     13611     13610     13612     13610     13613     13613     13614
     13613     13615     13613     13616     13337     13338     13337     13339
     13337     13340     13337     13336     13336     13334     13334     13335
     13334     13325     13325     13327     13325     13323     13323     13324
     13323     13321     13323     13322     13325     13326     13326     13328
     13328     13329     13328     13349     13349     13350     13349     13351
     13351     13352     13351     13458     13458     13460     13349     13341
     13341     13343     13341     13334     13458     13459     13344     13345
     13341     13342     13342     13344     13344     13346     13328     13330
     13331     13330     13331     13332     13331     13333     13331     13357
     13357     13358     13357     13353     13353     13354     13353     13355
     13355     13356     13353     13367     13367     13368     13367     13369
     13369     13370     13367     13375     13375     13376     13375     13377
     13377     13378     13377     13574     13574     13576     13576     13577
     13576     13578     13576     13579     13375     13360     13360     13361
     13360     13359     13360     13362     13362     13366     13366     13363
     13366     13364     13366     13365     13359     13357     13579     13580
     13574     13575     13617     13619     13617     13620     13620     13624
     13617     13618     13624     13625     13624     13626     13624     13627
     13627     13628     13627     13629     13627     13630     13630     13631
     13630     13632     13630     13621     13621     13622     13621     13623
     13621     13633     13633     13634     13633     13635     13635     13636
     13633     13637     13637     13640     13640     13641     13637     13638
     13637     13639     13620     13623     13642     13644     13642     13645
     13645     13649     13642     13643     13649     13650     13649     13651
     13649     13652     13652     13653     13652     13654     13654     13655
     13652     13656     13656     13657     13656     13658     13658     13659
     13656     13646     13646     13647     13646     13648     13646     13660
     13660     13661     13660     13662     13662     13663     13660     13664
     13664     13667     13667     13668     13664     13665     13664     13666
     13645     13648     13669     13670     13669     13673     13669     13674
     13674     13675     13674     13676     13676     13677     13674     13678
     13678     13679     13678     13680     13678     13681     13681     13682
     13681     13683     13681     13671     13671     13672     13671     13688
     13688     13689     13688     13692     13688     13690     13690     13691
     13671     13673     13692     13693     13692     13694     13692     13695
     13695     13696     13697     13698     13697     13701     13697     13702
     13702     13703     13702     13704     13704     13705     13702     13706
     13706     13707     13706     13708     13706     13709     13709     13710
     13709     13711     13709     13699     13699     13700     13699     13716
     13716     13717     13716     13720     13716     13718     13718     13719
     13699     13701     13720     13721     13720     13722     13720     13723
     13724     13725     13724     13728     13724     13729     13729     13730
     13729     13731     13731     13732     13729     13733     13733     13734
     13733     13735     13735     13736     13733     13737     13737     13738
     13737     13739     13739     13740     13737     13726     13726     13727
     13726     13741     13741     13742     13741     13745     13741     13743
     13743     13744     13726     13728     13745     13746     13745     13747
     13745     13748     13748     13749     13750     13751     13750     13754
     13750     13755     13755     13756     13755     13757     13757     13758
     13755     13759     13759     13760     13759     13761     13759     13762
     13762     13763     13762     13764     13764     13765     13762     13752
     13752     13753     13752     13766     13766     13767     13766     13768
     13766     13769     13769     13770     13752     13754     13771     13772
     13771     13775     13771     13776     13776     13777     13776     13778
     13776     13779     13779     13780     13779     13781     13779     13782
     13782     13783     13782     13784     13784     13785     13782     13773
     13773     13774     13773     13786     13786     13787     13786     13788
     13786     13789     13789     13790     13773     13775     13791     13792
     13791     13795     13791     13796     13796     13797     13796     13798
     13796     13799     13799     13800     13799     13801     13801     13802
     13799     13803     13803     13804     13803     13805     13805     13806
     13803     13793     13793     13794     13793     13807     13807     13808
     13807     13809     13807     13810     13810     13811     13793     13795
     13812     13813     13812     13816     13812     13817     13817     13818
     13817     13819     13819     13820     13817     13821     13821     13822
     13821     13823     13823     13824     13821     13825     13825     13826
     13825     13827     13827     13828     13825     13814     13814     13815
     13814     13829     13829     13830     13829     13831     13829     13832
     13832     13833     13814     13816     13834     13835     13834     13838
     13834     13839     13839     13840     13839     13841     13841     13842
     13839     13843     13843     13844     13843     13845     13843     13846
     13846     13847     13846     13848     13848     13849     13846     13836
     13836     13837     13836     13850     13850     13851     13850     13852
     13850     13853     13853     13854     13836     13838     13629     13645
     13632     13669     13680     13697     13723     13724     13708     13750
     13761     13771     13778     13791     13798     13812     13781     13834
     13683     13684     13685     13684     13686     13684     13687     13684
     13711     13712     13713     13712     13714     13712     13715     13712
     13322     13620     13855     13856     13855     13859     13855     13860
     13860     13861     13860     13862     13862     13863     13860     13870
     13870     13871     13870     13872     13870     13873     13873     13874
     13873     13875     13875     13876     13873     13857     13857     13858
     13857     13877     13877     13878     13877     13879     13877     13880
     13880     13881     13857     13859     13862     13864     13864     13865
     13864     13866     13866     13867     13866     13868     13866     13869
     13882     13883     13882     13886     13882     13887     13887     13888
     13887     13889     13887     13890     13890     13891     13890     13892
     13892     13893     13890     13894     13894     13895     13894     13896
     13896     13897     13894     13884     13884     13885     13884     13898
     13898     13899     13898     13900     13898     13901     13901     13902
     13884     13886     13903     13904     13903     13907     13903     13908
     13908     13909     13908     13910     13908     13911     13911     13912
     13911     13913     13913     13914     13911     13915     13915     13916
     13915     13917     13917     13918     13915     13905     13905     13906
     13905     13919     13919     13920     13919     13921     13919     13922
     13905     13907     13923     13924     13923     13927     13923     13928
     13928     13929     13928     13930     13928     13931     13931     13932
     13931     13933     13931     13934     13934     13935     13934     13936
     13936     13937     13934     13925     13925     13926     13925     13938
     13938     13939     13938     13940     13938     13941     13925     13927
     13942     13943     13942     13946     13942     13947     13947     13948
     13947     13949     13949     13950     13947     13957     13957     13958
     13957     13959     13959     13960     13957     13961     13961     13962
     13961     13963     13963     13964     13961     13944     13944     13945
     13944     13965     13965     13966     13965     13967     13965     13968
     13968     13969     13944     13946     13949     13951     13951     13952
     13951     13953     13953     13954     13953     13955     13953     13956
     13872     13882     13889     13903     13910     13923     13930     13942
     13970     13971     13970     13974     13970     13975     13975     13976
     13975     13977     13977     13978     13975     13985     13985     13986
     13985     13987     13985     13988     13988     13989     13988     13990
     13990     13991     13988     13972     13972     13973     13972     13992
     13992     13993     13992     13994     13992     13995     13995     13996
     13972     13974     13977     13979     13979     13980     13979     13981
     13981     13982     13981     13983     13981     13984     13997     13998
     13997     14001     13997     14002     14002     14003     14002     14004
     14002     14005     14005     14006     14005     14007     14007     14008
     14005     14009     14009     14010     14009     14011     14011     14012
     14009     13999     13999     14000     13999     14013     14013     14014
     14013     14015     14013     14016     14016     14017     13999     14001
     14018     14019     14018     14022     14018     14023     14023     14024
     14023     14025     14023     14026     14026     14027     14026     14028
     14028     14029     14026     14030     14030     14031     14030     14032
     14032     14033     14030     14020     14020     14021     14020     14034
     14034     14035     14034     14036     14034     14037     14020     14022
     14038     14039     14038     14042     14038     14043     14043     14044
     14043     14045     14043     14046     14046     14047     14046     14048
     14046     14049     14049     14050     14049     14051     14051     14052
     14049     14040     14040     14041     14040     14053     14053     14054
     14053     14055     14053     14056     14040     14042     14057     14058
     14057     14061     14057     14062     14062     14063     14062     14064
     14064     14065     14062     14072     14072     14073     14072     14074
     14074     14075     14072     14076     14076     14077     14076     14078
     14078     14079     14076     14059     14059     14060     14059     14080
     14080     14081     14080     14082     14080     14083     14083     14084
     14059     14061     14064     14066     14066     14067     14066     14068
     14068     14069     14068     14070     14068     14071     13987     13997
     14004     14018     14025     14038     14045     14057     13933     13970
     14085     14086     14085     14089     14085     14090     14090     14091
     14090     14092     14092     14093     14090     14100     14100     14101
     14100     14102     14100     14103     14103     14104     14103     14105
     14105     14106     14103     14087     14087     14088     14087     14107
     14107     14108     14107     14109     14107     14110     14110     14111
     14087     14089     14092     14094     14094     14095     14094     14096
     14096     14097     14096     14098     14096     14099     14112     14113
     14112     14116     14112     14117     14117     14118     14117     14119
     14117     14120     14120     14121     14120     14122     14122     14123
     14120     14124     14124     14125     14124     14126     14126     14127
     14124     14114     14114     14115     14114     14128     14128     14129
     14128     14130     14128     14131     14131     14132     14114     14116
     14133     14134     14133     14137     14133     14138     14138     14139
     14138     14140     14138     14141     14141     14142     14141     14143
     14143     14144     14141     14145     14145     14146     14145     14147
     14147     14148     14145     14135     14135     14136     14135     14149
     14149     14150     14149     14151     14149     14152     14135     14137
     14153     14154     14153     14157     14153     14158     14158     14159
     14158     14160     14158     14161     14161     14162     14161     14163
     14161     14164     14164     14165     14164     14166     14166     14167
     14164     14155     14155     14156     14155     14168     14168     14169
     14168     14170     14168     14171     14155     14157     14172     14173
     14172     14176     14172     14177     14177     14178     14177     14179
     14179     14180     14177     14187     14187     14188     14187     14189
     14189     14190     14187     14191     14191     14192     14191     14193
     14193     14194     14191     14174     14174     14175     14174     14195
     14195     14196     14195     14197     14195     14198     14198     14199
     14174     14176     14179     14181     14181     14182     14181     14183
     14183     14184     14183     14185     14183     14186     14102     14112
     14119     14133     14140     14153     14160     14172     14048     14085
     14200     14201     14200     14204     14200     14205     14205     14206
     14205     14207     14207     14208     14205     14215     14215     14216
     14215     14217     14215     14218     14218     14219     14218     14220
     14220     14221     14218     14202     14202     14203     14202     14222
     14222     14223     14222     14224     14222     14225     14225     14226
     14202     14204     14207     14209     14209     14210     14209     14211
     14211     14212     14211     14213     14211     14214     14227     14228
     14227     14231     14227     14232     14232     14233     14232     14234
     14232     14235     14235     14236     14235     14237     14237     14238
     14235     14239     14239     14240     14239     14241     14241     14242
     14239     14229     14229     14230     14229     14243     14243     14244
     14243     14245     14243     14246     14246     14247     14229     14231
     14248     14249     14248     14252     14248     14253     14253     14254
     14253     14255     14253     14256     14256     14257     14256     14258
     14258     14259     14256     14260     14260     14261     14260     14262
     14262     14263     14260     14250     14250     14251     14250     14264
     14264     14265     14264     14266     14264     14267     14250     14252
     14268     14269     14268     14272     14268     14273     14273     14274
     14273     14275     14273     14276     14276     14277     14276     14278
     14276     14279     14279     14280     14279     14281     14281     14282
     14279     14270     14270     14271     14270     14283     14283     14284
     14283     14285     14283     14286     14270     14272     14287     14288
     14287     14291     14287     14292     14292     14293     14292     14294
     14294     14295     14292     14302     14302     14303     14302     14304
     14304     14305     14302     14306     14306     14307     14306     14308
     14308     14309     14306     14289     14289     14290     14289     14310
     14310     14311     14310     14312     14310     14313     14313     14314
     14289     14291     14294     14296     14296     14297     14296     14298
     14298     14299     14298     14300     14298     14301     14217     14227
     14234     14248     14255     14268     14275     14287     14163     14200
     14315     14316     14315     14319     14315     14320     14320     14321
     14320     14322     14322     14323     14320     14330     14330     14331
     14330     14332     14330     14333     14333     14334     14333     14335
     14335     14336     14333     14317     14317     14318     14317     14337
     14337     14338     14337     14339     14337     14340     14340     14341
     14317     14319     14322     14324     14324     14325     14324     14326
     14326     14327     14326     14328     14326     14329     14342     14343
     14342     14346     14342     14347     14347     14348     14347     14349
     14347     14350     14350     14351     14350     14352     14352     14353
     14350     14354     14354     14355     14354     14356     14356     14357
     14354     14344     14344     14345     14344     14358     14358     14359
     14358     14360     14358     14361     14361     14362     14344     14346
     14363     14364     14363     14367     14363     14368     14368     14369
     14368     14370     14368     14371     14371     14372     14371     14373
     14373     14374     14371     14375     14375     14376     14375     14377
     14377     14378     14375     14365     14365     14366     14365     14379
     14379     14380     14379     14381     14379     14382     14365     14367
     14383     14384     14383     14387     14383     14388     14388     14389
     14388     14390     14388     14391     14391     14392     14391     14393
     14393     14394     14391     14395     14395     14396     14395     14397
     14397     14398     14395     14385     14385     14386     14385     14399
     14399     14400     14399     14401     14399     14402     14385     14387
     14403     14404     14403     14407     14403     14408     14408     14409
     14408     14410     14410     14411     14408     14418     14418     14419
     14418     14420     14420     14421     14418     14422     14422     14423
     14422     14424     14424     14425     14422     14405     14405     14406
     14405     14426     14426     14427     14426     14428     14426     14429
     14429     14430     14405     14407     14410     14412     14412     14413
     14412     14414     14414     14415     14414     14416     14414     14417
     14332     14342     14349     14363     14370     14383     14390     14403
     14278     14315     13845     13855     14456     14457     14456     14458
     14456     14489     14489     14490     14489     14491     14492     14491
     14492     14494     14494     14495     14494     14496     14493     14492
     14494     14497     14497     14498     14497     14499     14497     14500
     14500     14501     14500     14503     14503     14504     14503     14505
     14503     14506     14506     14507     14500     14502     14506     14508
     14506     14509     14509     14510     14509     14511     14509     14512
     14512     14513     14512     14514     14512     14515     14515     14516
     14515     14517     14515     14518     14518     14519     14518     14520
     14518     14521     14521     14522     14521     14523     14521     14524
     14524     14525     14524     14526     14524     14527     14527     14528
     14527     14529     14527     14530     14530     14531     14530     14532
     14530     14533     14489     14534     14534     14535     14534     14536
     14534     14537     14537     14538     14537     14539     14537     14540
     14540     14541     14540     14542     14540     14543     14543     14544
     14543     14545     14543     14546     14546     14547     14546     14548
     14546     14549     14549     14550     14549     14551     14549     14552
     14552     14553     14552     14554     14552     14555     14555     14556
     14555     14557     14555     14558     14558     14559     14558     14560
     14558     14561     14561     14562     14561     14563     14561     14564
     14564     14565     14564     14566     14564     14567     14570     14571
     14570     14572     14570     14573     14573     14574     14573     14575
     14577     14576     14575     14576     14576     14578     14578     14579
     14578     14580     14578     14581     14581     14582     14581     14583
     14581     14584     14584     14585     14584     14586     14584     14587
     14587     14588     14587     14589     14587     14590     14590     14591
     14590     14592     14590     14593     14593     14594     14593     14595
     14593     14596     14596     14597     14596     14598     14596     14599
     14599     14600     14599     14601     14599     14602     14602     14603
     14602     14604     14602     14605     14605     14606     14605     14607
     14605     14608     14608     14609     14608     14610     14608     14611
     14573     14612     14612     14613     14612     14614     14612     14615
     14615     14616     14615     14617     14615     14618     14618     14619
     14618     14620     14618     14621     14621     14622     14621     14623
     14621     14624     14624     14625     14624     14626     14624     14627
     14627     14628     14627     14629     14627     14630     14630     14631
     14630     14632     14630     14633     14633     14634     14633     14635
     14633     14636     14636     14637     14636     14638     14636     14639
     14639     14640     14639     14641     14639     14642     14642     14643
     14642     14644     14642     14645     14480     14481     14480     14482
     14482     14483     14482     14484     14482     14646     14646     14647
     14646     14648     14648     14649     14646     14650     14650     14651
     14650     14652     14650     14653     14653     14654     14653     14655
     14653     14656     14656     14657     14656     14658     14656     14659
     14659     14660     14659     14661     14659     14662     14662     14663
     14662     14664     14662     14665     14665     14666     14665     14667
     14665     14668     14668     14669     14668     14670     14668     14671
     14671     14672     14671     14673     14671     14674     14674     14675
     14674     14676     14674     14677     14677     14678     14677     14679
     14677     14680     14680     14681     14680     14682     14680     14683
     14689     14691     14691     14692     14689     14693     14693     14694
     14693     14695     14693     14696     14696     14697     14696     14698
     14696     14699     14699     14700     14699     14701     14699     14702
     14702     14703     14702     14704     14702     14705     14705     14706
     14705     14707     14705     14708     14708     14709     14708     14710
     14708     14711     14711     14712     14711     14713     14711     14714
     14714     14715     14714     14716     14714     14717     14717     14718
     14717     14719     14717     14720     14720     14721     14720     14722
     14720     14723     14723     14724     14723     14725     14723     14726
     14447     14448     14447     14449     14447     14450     14447     14446
     14446     14444     14444     14445     14444     14435     14435     14437
     14435     14433     14433     14434     14433     14431     14433     14432
     14435     14436     14436     14438     14438     14439     14438     14459
     14459     14460     14459     14461     14461     14462     14461     14568
     14568     14570     14459     14451     14451     14453     14451     14444
     14568     14569     14454     14455     14451     14452     14452     14454
     14454     14456     14438     14440     14441     14440     14441     14442
     14441     14443     14441     14467     14467     14468     14467     14463
     14463     14464     14463     14465     14465     14466     14463     14477
     14477     14478     14477     14479     14479     14480     14477     14485
     14485     14486     14485     14487     14487     14488     14487     14684
     14684     14686     14686     14687     14686     14688     14686     14689
     14485     14470     14470     14471     14470     14469     14470     14472
     14472     14476     14476     14473     14476     14474     14476     14475
     14469     14467     14689     14690     14684     14685     14727     14729
     14727     14730     14730     14734     14727     14728     14734     14735
     14734     14736     14734     14737     14737     14738     14737     14739
     14737     14740     14740     14741     14740     14742     14740     14731
     14731     14732     14731     14733     14731     14743     14743     14744
     14743     14745     14745     14746     14743     14747     14747     14750
     14750     14751     14747     14748     14747     14749     14730     14733
     14752     14754     14752     14755     14755     14759     14752     14753
     14759     14760     14759     14761     14759     14762     14762     14763
     14762     14764     14764     14765     14762     14766     14766     14767
     14766     14768     14768     14769     14766     14756     14756     14757
     14756     14758     14756     14770     14770     14771     14770     14772
     14772     14773     14770     14774     14774     14777     14777     14778
     14774     14775     14774     14776     14755     14758     14779     14780
     14779     14783     14779     14784     14784     14785     14784     14786
     14786     14787     14784     14788     14788     14789     14788     14790
     14788     14791     14791     14792     14791     14793     14791     14781
     14781     14782     14781     14798     14798     14799     14798     14802
     14798     14800     14800     14801     14781     14783     14802     14803
     14802     14804     14802     14805     14805     14806     14807     14808
     14807     14811     14807     14812     14812     14813     14812     14814
     14814     14815     14812     14816     14816     14817     14816     14818
     14816     14819     14819     14820     14819     14821     14819     14809
     14809     14810     14809     14826     14826     14827     14826     14830
     14826     14828     14828     14829     14809     14811     14830     14831
     14830     14832     14830     14833     14834     14835     14834     14838
     14834     14839     14839     14840     14839     14841     14841     14842
     14839     14843     14843     14844     14843     14845     14845     14846
     14843     14847     14847     14848     14847     14849     14849     14850
     14847     14836     14836     14837     14836     14851     14851     14852
     14851     14855     14851     14853     14853     14854     14836     14838
     14855     14856     14855     14857     14855     14858     14858     14859
     14860     14861     14860     14864     14860     14865     14865     14866
     14865     14867     14867     14868     14865     14869     14869     14870
     14869     14871     14869     14872     14872     14873     14872     14874
     14874     14875     14872     14862     14862     14863     14862     14876
     14876     14877     14876     14878     14876     14879     14879     14880
     14862     14864     14881     14882     14881     14885     14881     14886
     14886     14887     14886     14888     14886     14889     14889     14890
     14889     14891     14889     14892     14892     14893     14892     14894
     14894     14895     14892     14883     14883     14884     14883     14896
     14896     14897     14896     14898     14896     14899     14899     14900
     14883     14885     14901     14902     14901     14905     14901     14906
     14906     14907     14906     14908     14906     14909     14909     14910
     14909     14911     14911     14912     14909     14913     14913     14914
     14913     14915     14915     14916     14913     14903     14903     14904
     14903     14917     14917     14918     14917     14919     14917     14920
     14920     14921     14903     14905     14922     14923     14922     14926
     14922     14927     14927     14928     14927     14929     14929     14930
     14927     14931     14931     14932     14931     14933     14933     14934
     14931     14935     14935     14936     14935     14937     14937     14938
     14935     14924     14924     14925     14924     14939     14939     14940
     14939     14941     14939     14942     14942     14943     14924     14926
     14944     14945     14944     14948     14944     14949     14949     14950
     14949     14951     14951     14952     14949     14953     14953     14954
     14953     14955     14953     14956     14956     14957     14956     14958
     14958     14959     14956     14946     14946     14947     14946     14960
     14960     14961     14960     14962     14960     14963     14963     14964
     14946     14948     14739     14755     14742     14779     14790     14807
     14833     14834     14818     14860     14871     14881     14888     14901
     14908     14922     14891     14944     14793     14794     14795     14794
     14796     14794     14797     14794     14821     14822     14823     14822
     14824     14822     14825     14822     14432     14730     14965     14966
     14965     14969     14965     14970     14970     14971     14970     14972
     14972     14973     14970     14980     14980     14981     14980     14982
     14980     14983     14983     14984     14983     14985     14985     14986
     14983     14967     14967     14968     14967     14987     14987     14988
     14987     14989     14987     14990     14990     14991     14967     14969
     14972     14974     14974     14975     14974     14976     14976     14977
     14976     14978     14976     14979     14992     14993     14992     14996
     14992     14997     14997     14998     14997     14999     14997     15000
     15000     15001     15000     15002     15002     15003     15000     15004
     15004     15005     15004     15006     15006     15007     15004     14994
     14994     14995     14994     15008     15008     15009     15008     15010
     15008     15011     15011     15012     14994     14996     15013     15014
     15013     15017     15013     15018     15018     15019     15018     15020
     15018     15021     15021     15022     15021     15023     15023     15024
     15021     15025     15025     15026     15025     15027     15027     15028
     15025     15015     15015     15016     15015     15029     15029     15030
     15029     15031     15029     15032     15015     15017     15033     15034
     15033     15037     15033     15038     15038     15039     15038     15040
     15038     15041     15041     15042     15041     15043     15041     15044
     15044     15045     15044     15046     15046     15047     15044     15035
     15035     15036     15035     15048     15048     15049     15048     15050
     15048     15051     15035     15037     15052     15053     15052     15056
     15052     15057     15057     15058     15057     15059     15059     15060
     15057     15067     15067     15068     15067     15069     15069     15070
     15067     15071     15071     15072     15071     15073     15073     15074
     15071     15054     15054     15055     15054     15075     15075     15076
     15075     15077     15075     15078     15078     15079     15054     15056
     15059     15061     15061     15062     15061     15063     15063     15064
     15063     15065     15063     15066     14982     14992     14999     15013
     15020     15033     15040     15052     15080     15081     15080     15084
     15080     15085     15085     15086     15085     15087     15087     15088
     15085     15095     15095     15096     15095     15097     15095     15098
     15098     15099     15098     15100     15100     15101     15098     15082
     15082     15083     15082     15102     15102     15103     15102     15104
     15102     15105     15105     15106     15082     15084     15087     15089
     15089     15090     15089     15091     15091     15092     15091     15093
     15091     15094     15107     15108     15107     15111     15107     15112
     15112     15113     15112     15114     15112     15115     15115     15116
     15115     15117     15117     15118     15115     15119     15119     15120
     15119     15121     15121     15122     15119     15109     15109     15110
     15109     15123     15123     15124     15123     15125     15123     15126
     15126     15127     15109     15111     15128     15129     15128     15132
     15128     15133     15133     15134     15133     15135     15133     15136
     15136     15137     15136     15138     15138     15139     15136     15140
     15140     15141     15140     15142     15142     15143     15140     15130
     15130     15131     15130     15144     15144     15145     15144     15146
     15144     15147     15130     15132     15148     15149     15148     15152
     15148     15153     15153     15154     15153     15155     15153     15156
     15156     15157     15156     15158     15156     15159     15159     15160
     15159     15161     15161     15162     15159     15150     15150     15151
     15150     15163     15163     15164     15163     15165     15163     15166
     15150     15152     15167     15168     15167     15171     15167     15172
     15172     15173     15172     15174     15174     15175     15172     15182
     15182     15183     15182     15184     15184     15185     15182     15186
     15186     15187     15186     15188     15188     15189     15186     15169
     15169     15170     15169     15190     15190     15191     15190     15192
     15190     15193     15193     15194     15169     15171     15174     15176
     15176     15177     15176     15178     15178     15179     15178     15180
     15178     15181     15097     15107     15114     15128     15135     15148
     15155     15167     15043     15080     15195     15196     15195     15199
     15195     15200     15200     15201     15200     15202     15202     15203
     15200     15210     15210     15211     15210     15212     15210     15213
     15213     15214     15213     15215     15215     15216     15213     15197
     15197     15198     15197     15217     15217     15218     15217     15219
     15217     15220     15220     15221     15197     15199     15202     15204
     15204     15205     15204     15206     15206     15207     15206     15208
     15206     15209     15222     15223     15222     15226     15222     15227
     15227     15228     15227     15229     15227     15230     15230     15231
     15230     15232     15232     15233     15230     15234     15234     15235
     15234     15236     15236     15237     15234     15224     15224     15225
     15224     15238     15238     15239     15238     15240     15238     15241
     15241     15242     15224     15226     15243     15244     15243     15247
     15243     15248     15248     15249     15248     15250     15248     15251
     15251     15252     15251     15253     15253     15254     15251     15255
     15255     15256     15255     15257     15257     15258     15255     15245
     15245     15246     15245     15259     15259     15260     15259     15261
     15259     15262     15245     15247     15263     15264     15263     15267
     15263     15268     15268     15269     15268     15270     15268     15271
     15271     15272     15271     15273     15271     15274     15274     15275
     15274     15276     15276     15277     15274     15265     15265     15266
     15265     15278     15278     15279     15278     15280     15278     15281
     15265     15267     15282     15283     15282     15286     15282     15287
     15287     15288     15287     15289     15289     15290     15287     15297
     15297     15298     15297     15299     15299     15300     15297     15301
     15301     15302     15301     15303     15303     15304     15301     15284
     15284     15285     15284     15305     15305     15306     15305     15307
     15305     15308     15308     15309     15284     15286     15289     15291
     15291     15292     15291     15293     15293     15294     15293     15295
     15293     15296     15212     15222     15229     15243     15250     15263
     15270     15282     15158     15195     15310     15311     15310     15314
     15310     15315     15315     15316     15315     15317     15317     15318
     15315     15325     15325     15326     15325     15327     15325     15328
     15328     15329     15328     15330     15330     15331     15328     15312
     15312     15313     15312     15332     15332     15333     15332     15334
     15332     15335     15335     15336     15312     15314     15317     15319
     15319     15320     15319     15321     15321     15322     15321     15323
     15321     15324     15337     15338     15337     15341     15337     15342
     15342     15343     15342     15344     15342     15345     15345     15346
     15345     15347     15347     15348     15345     15349     15349     15350
     15349     15351     15351     15352     15349     15339     15339     15340
     15339     15353     15353     15354     15353     15355     15353     15356
     15356     15357     15339     15341     15358     15359     15358     15362
     15358     15363     15363     15364     15363     15365     15363     15366
     15366     15367     15366     15368     15368     15369     15366     15370
     15370     15371     15370     15372     15372     15373     15370     15360
     15360     15361     15360     15374     15374     15375     15374     15376
     15374     15377     15360     15362     15378     15379     15378     15382
     15378     15383     15383     15384     15383     15385     15383     15386
     15386     15387     15386     15388     15386     15389     15389     15390
     15389     15391     15391     15392     15389     15380     15380     15381
     15380     15393     15393     15394     15393     15395     15393     15396
     15380     15382     15397     15398     15397     15401     15397     15402
     15402     15403     15402     15404     15404     15405     15402     15412
     15412     15413     15412     15414     15414     15415     15412     15416
     15416     15417     15416     15418     15418     15419     15416     15399
     15399     15400     15399     15420     15420     15421     15420     15422
     15420     15423     15423     15424     15399     15401     15404     15406
     15406     15407     15406     15408     15408     15409     15408     15410
     15408     15411     15327     15337     15344     15358     15365     15378
     15385     15397     15273     15310     15425     15426     15425     15429
     15425     15430     15430     15431     15430     15432     15432     15433
     15430     15440     15440     15441     15440     15442     15440     15443
     15443     15444     15443     15445     15445     15446     15443     15427
     15427     15428     15427     15447     15447     15448     15447     15449
     15447     15450     15450     15451     15427     15429     15432     15434
     15434     15435     15434     15436     15436     15437     15436     15438
     15436     15439     15452     15453     15452     15456     15452     15457
     15457     15458     15457     15459     15457     15460     15460     15461
     15460     15462     15462     15463     15460     15464     15464     15465
     15464     15466     15466     15467     15464     15454     15454     15455
     15454     15468     15468     15469     15468     15470     15468     15471
     15471     15472     15454     15456     15473     15474     15473     15477
     15473     15478     15478     15479     15478     15480     15478     15481
     15481     15482     15481     15483     15483     15484     15481     15485
     15485     15486     15485     15487     15487     15488     15485     15475
     15475     15476     15475     15489     15489     15490     15489     15491
     15489     15492     15475     15477     15493     15494     15493     15497
     15493     15498     15498     15499     15498     15500     15498     15501
     15501     15502     15501     15503     15503     15504     15501     15505
     15505     15506     15505     15507     15507     15508     15505     15495
     15495     15496     15495     15509     15509     15510     15509     15511
     15509     15512     15495     15497     15513     15514     15513     15517
     15513     15518     15518     15519     15518     15520     15520     15521
     15518     15528     15528     15529     15528     15530     15530     15531
     15528     15532     15532     15533     15532     15534     15534     15535
     15532     15515     15515     15516     15515     15536     15536     15537
     15536     15538     15536     15539     15539     15540     15515     15517
     15520     15522     15522     15523     15522     15524     15524     15525
     15524     15526     15524     15527     15442     15452     15459     15473
     15480     15493     15500     15513     15388     15425     14955     14965
     15566     15567     15566     15568     15566     15599     15599     15600
     15599     15601     15602     15601     15602     15604     15604     15605
     15604     15606     15603     15602     15604     15607     15607     15608
     15607     15609     15607     15610     15610     15611     15610     15613
     15613     15614     15613     15615     15613     15616     15616     15617
     15610     15612     15616     15618     15616     15619     15619     15620
     15619     15621     15619     15622     15622     15623     15622     15624
     15622     15625     15625     15626     15625     15627     15625     15628
     15628     15629     15628     15630     15628     15631     15631     15632
     15631     15633     15631     15634     15634     15635     15634     15636
     15634     15637     15637     15638     15637     15639     15637     15640
     15640     15641     15640     15642     15640     15643     15599     15644
     15644     15645     15644     15646     15644     15647     15647     15648
     15647     15649     15647     15650     15650     15651     15650     15652
     15650     15653     15653     15654     15653     15655     15653     15656
     15656     15657     15656     15658     15656     15659     15659     15660
     15659     15661     15659     15662     15662     15663     15662     15664
     15662     15665     15665     15666     15665     15667     15665     15668
     15668     15669     15668     15670     15668     15671     15671     15672
     15671     15673     15671     15674     15674     15675     15674     15676
     15674     15677     15680     15681     15680     15682     15680     15683
     15683     15684     15683     15685     15687     15686     15685     15686
     15686     15688     15688     15689     15688     15690     15688     15691
     15691     15692     15691     15693     15691     15694     15694     15695
     15694     15696     15694     15697     15697     15698     15697     15699
     15697     15700     15700     15701     15700     15702     15700     15703
     15703     15704     15703     15705     15703     15706     15706     15707
     15706     15708     15706     15709     15709     15710     15709     15711
     15709     15712     15712     15713     15712     15714     15712     15715
     15715     15716     15715     15717     15715     15718     15718     15719
     15718     15720     15718     15721     15683     15722     15722     15723
     15722     15724     15722     15725     15725     15726     15725     15727
     15725     15728     15728     15729     15728     15730     15728     15731
     15731     15732     15731     15733     15731     15734     15734     15735
     15734     15736     15734     15737     15737     15738     15737     15739
     15737     15740     15740     15741     15740     15742     15740     15743
     15743     15744     15743     15745     15743     15746     15746     15747
     15746     15748     15746     15749     15749     15750     15749     15751
     15749     15752     15752     15753     15752     15754     15752     15755
     15590     15591     15590     15592     15592     15593     15592     15594
     15592     15756     15756     15757     15756     15758     15758     15759
     15756     15760     15760     15761     15760     15762     15760     15763
     15763     15764     15763     15765     15763     15766     15766     15767
     15766     15768     15766     15769     15769     15770     15769     15771
     15769     15772     15772     15773     15772     15774     15772     15775
     15775     15776     15775     15777     15775     15778     15778     15779
     15778     15780     15778     15781     15781     15782     15781     15783
     15781     15784     15784     15785     15784     15786     15784     15787
     15787     15788     15787     15789     15787     15790     15790     15791
     15790     15792     15790     15793     15799     15801     15801     15802
     15799     15803     15803     15804     15803     15805     15803     15806
     15806     15807     15806     15808     15806     15809     15809     15810
     15809     15811     15809     15812     15812     15813     15812     15814
     15812     15815     15815     15816     15815     15817     15815     15818
     15818     15819     15818     15820     15818     15821     15821     15822
     15821     15823     15821     15824     15824     15825     15824     15826
     15824     15827     15827     15828     15827     15829     15827     15830
     15830     15831     15830     15832     15830     15833     15833     15834
     15833     15835     15833     15836     15557     15558     15557     15559
     15557     15560     15557     15556     15556     15554     15554     15555
     15554     15545     15545     15547     15545     15543     15543     15544
     15543     15541     15543     15542     15545     15546     15546     15548
     15548     15549     15548     15569     15569     15570     15569     15571
     15571     15572     15571     15678     15678     15680     15569     15561
     15561     15563     15561     15554     15678     15679     15564     15565
     15561     15562     15562     15564     15564     15566     15548     15550
     15551     15550     15551     15552     15551     15553     15551     15577
     15577     15578     15577     15573     15573     15574     15573     15575
     15575     15576     15573     15587     15587     15588     15587     15589
     15589     15590     15587     15595     15595     15596     15595     15597
     15597     15598     15597     15794     15794     15796     15796     15797
     15796     15798     15796     15799     15595     15580     15580     15581
     15580     15579     15580     15582     15582     15586     15586     15583
     15586     15584     15586     15585     15579     15577     15799     15800
     15794     15795     15837     15839     15837     15840     15840     15844
     15837     15838     15844     15845     15844     15846     15844     15847
     15847     15848     15847     15849     15847     15850     15850     15851
     15850     15852     15850     15841     15841     15842     15841     15843
     15841     15853     15853     15854     15853     15855     15855     15856
     15853     15857     15857     15860     15860     15861     15857     15858
     15857     15859     15840     15843     15862     15864     15862     15865
     15865     15869     15862     15863     15869     15870     15869     15871
     15869     15872     15872     15873     15872     15874     15874     15875
     15872     15876     15876     15877     15876     15878     15878     15879
     15876     15866     15866     15867     15866     15868     15866     15880
     15880     15881     15880     15882     15882     15883     15880     15884
     15884     15887     15887     15888     15884     15885     15884     15886
     15865     15868     15889     15890     15889     15893     15889     15894
     15894     15895     15894     15896     15896     15897     15894     15898
     15898     15899     15898     15900     15898     15901     15901     15902
     15901     15903     15901     15891     15891     15892     15891     15908
     15908     15909     15908     15912     15908     15910     15910     15911
     15891     15893     15912     15913     15912     15914     15912     15915
     15915     15916     15917     15918     15917     15921     15917     15922
     15922     15923     15922     15924     15924     15925     15922     15926
     15926     15927     15926     15928     15926     15929     15929     15930
     15929     15931     15929     15919     15919     15920     15919     15936
     15936     15937     15936     15940     15936     15938     15938     15939
     15919     15921     15940     15941     15940     15942     15940     15943
     15944     15945     15944     15948     15944     15949     15949     15950
     15949     15951     15951     15952     15949     15953     15953     15954
     15953     15955     15955     15956     15953     15957     15957     15958
     15957     15959     15959     15960     15957     15946     15946     15947
     15946     15961     15961     15962     15961     15965     15961     15963
     15963     15964     15946     15948     15965     15966     15965     15967
     15965     15968     15968     15969     15970     15971     15970     15974
     15970     15975     15975     15976     15975     15977     15977     15978
     15975     15979     15979     15980     15979     15981     15979     15982
     15982     15983     15982     15984     15984     15985     15982     15972
     15972     15973     15972     15986     15986     15987     15986     15988
     15986     15989     15989     15990     15972     15974     15991     15992
     15991     15995     15991     15996     15996     15997     15996     15998
     15996     15999     15999     16000     15999     16001     15999     16002
     16002     16003     16002     16004     16004     16005     16002     15993
     15993     15994     15993     16006     16006     16007     16006     16008
     16006     16009     16009     16010     15993     15995     16011     16012
     16011     16015     16011     16016     16016     16017     16016     16018
     16016     16019     16019     16020     16019     16021     16021     16022
     16019     16023     16023     16024     16023     16025     16025     16026
     16023     16013     16013     16014     16013     16027     16027     16028
     16027     16029     16027     16030     16030     16031     16013     16015
     16032     16033     16032     16036     16032     16037     16037     16038
     16037     16039     16039     16040     16037     16041     16041     16042
     16041     16043     16043     16044     16041     16045     16045     16046
     16045     16047     16047     16048     16045     16034     16034     16035
     16034     16049     16049     16050     16049     16051     16049     16052
     16052     16053     16034     16036     16054     16055     16054     16058
     16054     16059     16059     16060     16059     16061     16061     16062
     16059     16063     16063     16064     16063     16065     16063     16066
     16066     16067     16066     16068     16068     16069     16066     16056
     16056     16057     16056     16070     16070     16071     16070     16072
     16070     16073     16073     16074     16056     16058     15849     15865
     15852     15889     15900     15917     15943     15944     15928     15970
     15981     15991     15998     16011     16018     16032     16001     16054
     15903     15904     15905     15904     15906     15904     15907     15904
     15931     15932     15933     15932     15934     15932     15935     15932
     15542     15840     16075     16076     16075     16079     16075     16080
     16080     16081     16080     16082     16082     16083     16080     16090
     16090     16091     16090     16092     16090     16093     16093     16094
     16093     16095     16095     16096     16093     16077     16077     16078
     16077     16097     16097     16098     16097     16099     16097     16100
     16100     16101     16077     16079     16082     16084     16084     16085
     16084     16086     16086     16087     16086     16088     16086     16089
     16102     16103     16102     16106     16102     16107     16107     16108
     16107     16109     16107     16110     16110     16111     16110     16112
     16112     16113     16110     16114     16114     16115     16114     16116
     16116     16117     16114     16104     16104     16105     16104     16118
     16118     16119     16118     16120     16118     16121     16121     16122
     16104     16106     16123     16124     16123     16127     16123     16128
     16128     16129     16128     16130     16128     16131     16131     16132
     16131     16133     16133     16134     16131     16135     16135     16136
     16135     16137     16137     16138     16135     16125     16125     16126
     16125     16139     16139     16140     16139     16141     16139     16142
     16125     16127     16143     16144     16143     16147     16143     16148
     16148     16149     16148     16150     16148     16151     16151     16152
     16151     16153     16151     16154     16154     16155     16154     16156
     16156     16157     16154     16145     16145     16146     16145     16158
     16158     16159     16158     16160     16158     16161     16145     16147
     16162     16163     16162     16166     16162     16167     16167     16168
     16167     16169     16169     16170     16167     16177     16177     16178
     16177     16179     16179     16180     16177     16181     16181     16182
     16181     16183     16183     16184     16181     16164     16164     16165
     16164     16185     16185     16186     16185     16187     16185     16188
     16188     16189     16164     16166     16169     16171     16171     16172
     16171     16173     16173     16174     16173     16175     16173     16176
     16092     16102     16109     16123     16130     16143     16150     16162
     16190     16191     16190     16194     16190     16195     16195     16196
     16195     16197     16197     16198     16195     16205     16205     16206
     16205     16207     16205     16208     16208     16209     16208     16210
     16210     16211     16208     16192     16192     16193     16192     16212
     16212     16213     16212     16214     16212     16215     16215     16216
     16192     16194     16197     16199     16199     16200     16199     16201
     16201     16202     16201     16203     16201     16204     16217     16218
     16217     16221     16217     16222     16222     16223     16222     16224
     16222     16225     16225     16226     16225     16227     16227     16228
     16225     16229     16229     16230     16229     16231     16231     16232
     16229     16219     16219     16220     16219     16233     16233     16234
     16233     16235     16233     16236     16236     16237     16219     16221
     16238     16239     16238     16242     16238     16243     16243     16244
     16243     16245     16243     16246     16246     16247     16246     16248
     16248     16249     16246     16250     16250     16251     16250     16252
     16252     16253     16250     16240     16240     16241     16240     16254
     16254     16255     16254     16256     16254     16257     16240     16242
     16258     16259     16258     16262     16258     16263     16263     16264
     16263     16265     16263     16266     16266     16267     16266     16268
     16266     16269     16269     16270     16269     16271     16271     16272
     16269     16260     16260     16261     16260     16273     16273     16274
     16273     16275     16273     16276     16260     16262     16277     16278
     16277     16281     16277     16282     16282     16283     16282     16284
     16284     16285     16282     16292     16292     16293     16292     16294
     16294     16295     16292     16296     16296     16297     16296     16298
     16298     16299     16296     16279     16279     16280     16279     16300
     16300     16301     16300     16302     16300     16303     16303     16304
     16279     16281     16284     16286     16286     16287     16286     16288
     16288     16289     16288     16290     16288     16291     16207     16217
     16224     16238     16245     16258     16265     16277     16153     16190
     16305     16306     16305     16309     16305     16310     16310     16311
     16310     16312     16312     16313     16310     16320     16320     16321
     16320     16322     16320     16323     16323     16324     16323     16325
     16325     16326     16323     16307     16307     16308     16307     16327
     16327     16328     16327     16329     16327     16330     16330     16331
     16307     16309     16312     16314     16314     16315     16314     16316
     16316     16317     16316     16318     16316     16319     16332     16333
     16332     16336     16332     16337     16337     16338     16337     16339
     16337     16340     16340     16341     16340     16342     16342     16343
     16340     16344     16344     16345     16344     16346     16346     16347
     16344     16334     16334     16335     16334     16348     16348     16349
     16348     16350     16348     16351     16351     16352     16334     16336
     16353     16354     16353     16357     16353     16358     16358     16359
     16358     16360     16358     16361     16361     16362     16361     16363
     16363     16364     16361     16365     16365     16366     16365     16367
     16367     16368     16365     16355     16355     16356     16355     16369
     16369     16370     16369     16371     16369     16372     16355     16357
     16373     16374     16373     16377     16373     16378     16378     16379
     16378     16380     16378     16381     16381     16382     16381     16383
     16381     16384     16384     16385     16384     16386     16386     16387
     16384     16375     16375     16376     16375     16388     16388     16389
     16388     16390     16388     16391     16375     16377     16392     16393
     16392     16396     16392     16397     16397     16398     16397     16399
     16399     16400     16397     16407     16407     16408     16407     16409
     16409     16410     16407     16411     16411     16412     16411     16413
     16413     16414     16411     16394     16394     16395     16394     16415
     16415     16416     16415     16417     16415     16418     16418     16419
     16394     16396     16399     16401     16401     16402     16401     16403
     16403     16404     16403     16405     16403     16406     16322     16332
     16339     16353     16360     16373     16380     16392     16268     16305
     16420     16421     16420     16424     16420     16425     16425     16426
     16425     16427     16427     16428     16425     16435     16435     16436
     16435     16437     16435     16438     16438     16439     16438     16440
     16440     16441     16438     16422     16422     16423     16422     16442
     16442     16443     16442     16444     16442     16445     16445     16446
     16422     16424     16427     16429     16429     16430     16429     16431
     16431     16432     16431     16433     16431     16434     16447     16448
     16447     16451     16447     16452     16452     16453     16452     16454
     16452     16455     16455     16456     16455     16457     16457     16458
     16455     16459     16459     16460     16459     16461     16461     16462
     16459     16449     16449     16450     16449     16463     16463     16464
     16463     16465     16463     16466     16466     16467     16449     16451
     16468     16469     16468     16472     16468     16473     16473     16474
     16473     16475     16473     16476     16476     16477     16476     16478
     16478     16479     16476     16480     16480     16481     16480     16482
     16482     16483     16480     16470     16470     16471     16470     16484
     16484     16485     16484     16486     16484     16487     16470     16472
     16488     16489     16488     16492     16488     16493     16493     16494
     16493     16495     16493     16496     16496     16497     16496     16498
     16496     16499     16499     16500     16499     16501     16501     16502
     16499     16490     16490     16491     16490     16503     16503     16504
     16503     16505     16503     16506     16490     16492     16507     16508
     16507     16511     16507     16512     16512     16513     16512     16514
     16514     16515     16512     16522     16522     16523     16522     16524
     16524     16525     16522     16526     16526     16527     16526     16528
     16528     16529     16526     16509     16509     16510     16509     16530
     16530     16531     16530     16532     16530     16533     16533     16534
     16509     16511     16514     16516     16516     16517     16516     16518
     16518     16519     16518     16520     16518     16521     16437     16447
     16454     16468     16475     16488     16495     16507     16383     16420
     16535     16536     16535     16539     16535     16540     16540     16541
     16540     16542     16542     16543     16540     16550     16550     16551
     16550     16552     16550     16553     16553     16554     16553     16555
     16555     16556     16553     16537     16537     16538     16537     16557
     16557     16558     16557     16559     16557     16560     16560     16561
     16537     16539     16542     16544     16544     16545     16544     16546
     16546     16547     16546     16548     16546     16549     16562     16563
     16562     16566     16562     16567     16567     16568     16567     16569
     16567     16570     16570     16571     16570     16572     16572     16573
     16570     16574     16574     16575     16574     16576     16576     16577
     16574     16564     16564     16565     16564     16578     16578     16579
     16578     16580     16578     16581     16581     16582     16564     16566
     16583     16584     16583     16587     16583     16588     16588     16589
     16588     16590     16588     16591     16591     16592     16591     16593
     16593     16594     16591     16595     16595     16596     16595     16597
     16597     16598     16595     16585     16585     16586     16585     16599
     16599     16600     16599     16601     16599     16602     16585     16587
     16603     16604     16603     16607     16603     16608     16608     16609
     16608     16610     16608     16611     16611     16612     16611     16613
     16613     16614     16611     16615     16615     16616     16615     16617
     16617     16618     16615     16605     16605     16606     16605     16619
     16619     16620     16619     16621     16619     16622     16605     16607
     16623     16624     16623     16627     16623     16628     16628     16629
     16628     16630     16630     16631     16628     16638     16638     16639
     16638     16640     16640     16641     16638     16642     16642     16643
     16642     16644     16644     16645     16642     16625     16625     16626
     16625     16646     16646     16647     16646     16648     16646     16649
     16649     16650     16625     16627     16630     16632     16632     16633
     16632     16634     16634     16635     16634     16636     16634     16637
     16552     16562     16569     16583     16590     16603     16610     16623
     16498     16535     16065     16075     16676     16677     16676     16678
     16676     16709     16709     16710     16709     16711     16712     16711
     16712     16714     16714     16715     16714     16716     16713     16712
     16714     16717     16717     16718     16717     16719     16717     16720
     16720     16721     16720     16723     16723     16724     16723     16725
     16723     16726     16726     16727     16720     16722     16726     16728
     16726     16729     16729     16730     16729     16731     16729     16732
     16732     16733     16732     16734     16732     16735     16735     16736
     16735     16737     16735     16738     16738     16739     16738     16740
     16738     16741     16741     16742     16741     16743     16741     16744
     16744     16745     16744     16746     16744     16747     16747     16748
     16747     16749     16747     16750     16750     16751     16750     16752
     16750     16753     16709     16754     16754     16755     16754     16756
     16754     16757     16757     16758     16757     16759     16757     16760
     16760     16761     16760     16762     16760     16763     16763     16764
     16763     16765     16763     16766     16766     16767     16766     16768
     16766     16769     16769     16770     16769     16771     16769     16772
     16772     16773     16772     16774     16772     16775     16775     16776
     16775     16777     16775     16778     16778     16779     16778     16780
     16778     16781     16781     16782     16781     16783     16781     16784
     16784     16785     16784     16786     16784     16787     16790     16791
     16790     16792     16790     16793     16793     16794     16793     16795
     16797     16796     16795     16796     16796     16798     16798     16799
     16798     16800     16798     16801     16801     16802     16801     16803
     16801     16804     16804     16805     16804     16806     16804     16807
     16807     16808     16807     16809     16807     16810     16810     16811
     16810     16812     16810     16813     16813     16814     16813     16815
     16813     16816     16816     16817     16816     16818     16816     16819
     16819     16820     16819     16821     16819     16822     16822     16823
     16822     16824     16822     16825     16825     16826     16825     16827
     16825     16828     16828     16829     16828     16830     16828     16831
     16793     16832     16832     16833     16832     16834     16832     16835
     16835     16836     16835     16837     16835     16838     16838     16839
     16838     16840     16838     16841     16841     16842     16841     16843
     16841     16844     16844     16845     16844     16846     16844     16847
     16847     16848     16847     16849     16847     16850     16850     16851
     16850     16852     16850     16853     16853     16854     16853     16855
     16853     16856     16856     16857     16856     16858     16856     16859
     16859     16860     16859     16861     16859     16862     16862     16863
     16862     16864     16862     16865     16700     16701     16700     16702
     16702     16703     16702     16704     16702     16866     16866     16867
     16866     16868     16868     16869     16866     16870     16870     16871
     16870     16872     16870     16873     16873     16874     16873     16875
     16873     16876     16876     16877     16876     16878     16876     16879
     16879     16880     16879     16881     16879     16882     16882     16883
     16882     16884     16882     16885     16885     16886     16885     16887
     16885     16888     16888     16889     16888     16890     16888     16891
     16891     16892     16891     16893     16891     16894     16894     16895
     16894     16896     16894     16897     16897     16898     16897     16899
     16897     16900     16900     16901     16900     16902     16900     16903
     16909     16911     16911     16912     16909     16913     16913     16914
     16913     16915     16913     16916     16916     16917     16916     16918
     16916     16919     16919     16920     16919     16921     16919     16922
     16922     16923     16922     16924     16922     16925     16925     16926
     16925     16927     16925     16928     16928     16929     16928     16930
     16928     16931     16931     16932     16931     16933     16931     16934
     16934     16935     16934     16936     16934     16937     16937     16938
     16937     16939     16937     16940     16940     16941     16940     16942
     16940     16943     16943     16944     16943     16945     16943     16946
     16667     16668     16667     16669     16667     16670     16667     16666
     16666     16664     16664     16665     16664     16655     16655     16657
     16655     16653     16653     16654     16653     16651     16653     16652
     16655     16656     16656     16658     16658     16659     16658     16679
     16679     16680     16679     16681     16681     16682     16681     16788
     16788     16790     16679     16671     16671     16673     16671     16664
     16788     16789     16674     16675     16671     16672     16672     16674
     16674     16676     16658     16660     16661     16660     16661     16662
     16661     16663     16661     16687     16687     16688     16687     16683
     16683     16684     16683     16685     16685     16686     16683     16697
     16697     16698     16697     16699     16699     16700     16697     16705
     16705     16706     16705     16707     16707     16708     16707     16904
     16904     16906     16906     16907     16906     16908     16906     16909
     16705     16690     16690     16691     16690     16689     16690     16692
     16692     16696     16696     16693     16696     16694     16696     16695
     16689     16687     16909     16910     16904     16905     16947     16949
     16947     16950     16950     16954     16947     16948     16954     16955
     16954     16956     16954     16957     16957     16958     16957     16959
     16957     16960     16960     16961     16960     16962     16960     16951
     16951     16952     16951     16953     16951     16963     16963     16964
     16963     16965     16965     16966     16963     16967     16967     16970
     16970     16971     16967     16968     16967     16969     16950     16953
     16972     16974     16972     16975     16975     16979     16972     16973
     16979     16980     16979     16981     16979     16982     16982     16983
     16982     16984     16984     16985     16982     16986     16986     16987
     16986     16988     16988     16989     16986     16976     16976     16977
     16976     16978     16976     16990     16990     16991     16990     16992
     16992     16993     16990     16994     16994     16997     16997     16998
     16994     16995     16994     16996     16975     16978     16999     17000
     16999     17003     16999     17004     17004     17005     17004     17006
     17006     17007     17004     17008     17008     17009     17008     17010
     17008     17011     17011     17012     17011     17013     17011     17001
     17001     17002     17001     17018     17018     17019     17018     17022
     17018     17020     17020     17021     17001     17003     17022     17023
     17022     17024     17022     17025     17025     17026     17027     17028
     17027     17031     17027     17032     17032     17033     17032     17034
     17034     17035     17032     17036     17036     17037     17036     17038
     17036     17039     17039     17040     17039     17041     17039     17029
     17029     17030     17029     17046     17046     17047     17046     17050
     17046     17048     17048     17049     17029     17031     17050     17051
     17050     17052     17050     17053     17054     17055     17054     17058
     17054     17059     17059     17060     17059     17061     17061     17062
     17059     17063     17063     17064     17063     17065     17065     17066
     17063     17067     17067     17068     17067     17069     17069     17070
     17067     17056     17056     17057     17056     17071     17071     17072
     17071     17075     17071     17073     17073     17074     17056     17058
     17075     17076     17075     17077     17075     17078     17078     17079
     17080     17081     17080     17084     17080     17085     17085     17086
     17085     17087     17087     17088     17085     17089     17089     17090
     17089     17091     17089     17092     17092     17093     17092     17094
     17094     17095     17092     17082     17082     17083     17082     17096
     17096     17097     17096     17098     17096     17099     17099     17100
     17082     17084     17101     17102     17101     17105     17101     17106
     17106     17107     17106     17108     17106     17109     17109     17110
     17109     17111     17109     17112     17112     17113     17112     17114
     17114     17115     17112     17103     17103     17104     17103     17116
     17116     17117     17116     17118     17116     17119     17119     17120
     17103     17105     17121     17122     17121     17125     17121     17126
     17126     17127     17126     17128     17126     17129     17129     17130
     17129     17131     17131     17132     17129     17133     17133     17134
     17133     17135     17135     17136     17133     17123     17123     17124
     17123     17137     17137     17138     17137     17139     17137     17140
     17140     17141     17123     17125     17142     17143     17142     17146
     17142     17147     17147     17148     17147     17149     17149     17150
     17147     17151     17151     17152     17151     17153     17153     17154
     17151     17155     17155     17156     17155     17157     17157     17158
     17155     17144     17144     17145     17144     17159     17159     17160
     17159     17161     17159     17162     17162     17163     17144     17146
     17164     17165     17164     17168     17164     17169     17169     17170
     17169     17171     17171     17172     17169     17173     17173     17174
     17173     17175     17173     17176     17176     17177     17176     17178
     17178     17179     17176     17166     17166     17167     17166     17180
     17180     17181     17180     17182     17180     17183     17183     17184
     17166     17168     16959     16975     16962     16999     17010     17027
     17053     17054     17038     17080     17091     17101     17108     17121
     17128     17142     17111     17164     17013     17014     17015     17014
     17016     17014     17017     17014     17041     17042     17043     17042
     17044     17042     17045     17042     16652     16950     17185     17186
     17185     17189     17185     17190     17190     17191     17190     17192
     17192     17193     17190     17200     17200     17201     17200     17202
     17200     17203     17203     17204     17203     17205     17205     17206
     17203     17187     17187     17188     17187     17207     17207     17208
     17207     17209     17207     17210     17210     17211     17187     17189
     17192     17194     17194     17195     17194     17196     17196     17197
     17196     17198     17196     17199     17212     17213     17212     17216
     17212     17217     17217     17218     17217     17219     17217     17220
     17220     17221     17220     17222     17222     17223     17220     17224
     17224     17225     17224     17226     17226     17227     17224     17214
     17214     17215     17214     17228     17228     17229     17228     17230
     17228     17231     17231     17232     17214     17216     17233     17234
     17233     17237     17233     17238     17238     17239     17238     17240
     17238     17241     17241     17242     17241     17243     17243     17244
     17241     17245     17245     17246     17245     17247     17247     17248
     17245     17235     17235     17236     17235     17249     17249     17250
     17249     17251     17249     17252     17235     17237     17253     17254
     17253     17257     17253     17258     17258     17259     17258     17260
     17258     17261     17261     17262     17261     17263     17261     17264
     17264     17265     17264     17266     17266     17267     17264     17255
     17255     17256     17255     17268     17268     17269     17268     17270
     17268     17271     17255     17257     17272     17273     17272     17276
     17272     17277     17277     17278     17277     17279     17279     17280
     17277     17287     17287     17288     17287     17289     17289     17290
     17287     17291     17291     17292     17291     17293     17293     17294
     17291     17274     17274     17275     17274     17295     17295     17296
     17295     17297     17295     17298     17298     17299     17274     17276
     17279     17281     17281     17282     17281     17283     17283     17284
     17283     17285     17283     17286     17202     17212     17219     17233
     17240     17253     17260     17272     17300     17301     17300     17304
     17300     17305     17305     17306     17305     17307     17307     17308
     17305     17315     17315     17316     17315     17317     17315     17318
     17318     17319     17318     17320     17320     17321     17318     17302
     17302     17303     17302     17322     17322     17323     17322     17324
     17322     17325     17325     17326     17302     17304     17307     17309
     17309     17310     17309     17311     17311     17312     17311     17313
     17311     17314     17327     17328     17327     17331     17327     17332
     17332     17333     17332     17334     17332     17335     17335     17336
     17335     17337     17337     17338     17335     17339     17339     17340
     17339     17341     17341     17342     17339     17329     17329     17330
     17329     17343     17343     17344     17343     17345     17343     17346
     17346     17347     17329     17331     17348     17349     17348     17352
     17348     17353     17353     17354     17353     17355     17353     17356
     17356     17357     17356     17358     17358     17359     17356     17360
     17360     17361     17360     17362     17362     17363     17360     17350
     17350     17351     17350     17364     17364     17365     17364     17366
     17364     17367     17350     17352     17368     17369     17368     17372
     17368     17373     17373     17374     17373     17375     17373     17376
     17376     17377     17376     17378     17376     17379     17379     17380
     17379     17381     17381     17382     17379     17370     17370     17371
     17370     17383     17383     17384     17383     17385     17383     17386
     17370     17372     17387     17388     17387     17391     17387     17392
     17392     17393     17392     17394     17394     17395     17392     17402
     17402     17403     17402     17404     17404     17405     17402     17406
     17406     17407     17406     17408     17408     17409     17406     17389
     17389     17390     17389     17410     17410     17411     17410     17412
     17410     17413     17413     17414     17389     17391     17394     17396
     17396     17397     17396     17398     17398     17399     17398     17400
     17398     17401     17317     17327     17334     17348     17355     17368
     17375     17387     17263     17300     17415     17416     17415     17419
     17415     17420     17420     17421     17420     17422     17422     17423
     17420     17430     17430     17431     17430     17432     17430     17433
     17433     17434     17433     17435     17435     17436     17433     17417
     17417     17418     17417     17437     17437     17438     17437     17439
     17437     17440     17440     17441     17417     17419     17422     17424
     17424     17425     17424     17426     17426     17427     17426     17428
     17426     17429     17442     17443     17442     17446     17442     17447
     17447     17448     17447     17449     17447     17450     17450     17451
     17450     17452     17452     17453     17450     17454     17454     17455
     17454     17456     17456     17457     17454     17444     17444     17445
     17444     17458     17458     17459     17458     17460     17458     17461
     17461     17462     17444     17446     17463     17464     17463     17467
     17463     17468     17468     17469     17468     17470     17468     17471
     17471     17472     17471     17473     17473     17474     17471     17475
     17475     17476     17475     17477     17477     17478     17475     17465
     17465     17466     17465     17479     17479     17480     17479     17481
     17479     17482     17465     17467     17483     17484     17483     17487
     17483     17488     17488     17489     17488     17490     17488     17491
     17491     17492     17491     17493     17491     17494     17494     17495
     17494     17496     17496     17497     17494     17485     17485     17486
     17485     17498     17498     17499     17498     17500     17498     17501
     17485     17487     17502     17503     17502     17506     17502     17507
     17507     17508     17507     17509     17509     17510     17507     17517
     17517     17518     17517     17519     17519     17520     17517     17521
     17521     17522     17521     17523     17523     17524     17521     17504
     17504     17505     17504     17525     17525     17526     17525     17527
     17525     17528     17528     17529     17504     17506     17509     17511
     17511     17512     17511     17513     17513     17514     17513     17515
     17513     17516     17432     17442     17449     17463     17470     17483
     17490     17502     17378     17415     17530     17531     17530     17534
     17530     17535     17535     17536     17535     17537     17537     17538
     17535     17545     17545     17546     17545     17547     17545     17548
     17548     17549     17548     17550     17550     17551     17548     17532
     17532     17533     17532     17552     17552     17553     17552     17554
     17552     17555     17555     17556     17532     17534     17537     17539
     17539     17540     17539     17541     17541     17542     17541     17543
     17541     17544     17557     17558     17557     17561     17557     17562
     17562     17563     17562     17564     17562     17565     17565     17566
     17565     17567     17567     17568     17565     17569     17569     17570
     17569     17571     17571     17572     17569     17559     17559     17560
     17559     17573     17573     17574     17573     17575     17573     17576
     17576     17577     17559     17561     17578     17579     17578     17582
     17578     17583     17583     17584     17583     17585     17583     17586
     17586     17587     17586     17588     17588     17589     17586     17590
     17590     17591     17590     17592     17592     17593     17590     17580
     17580     17581     17580     17594     17594     17595     17594     17596
     17594     17597     17580     17582     17598     17599     17598     17602
     17598     17603     17603     17604     17603     17605     17603     17606
     17606     17607     17606     17608     17606     17609     17609     17610
     17609     17611     17611     17612     17609     17600     17600     17601
     17600     17613     17613     17614     17613     17615     17613     17616
     17600     17602     17617     17618     17617     17621     17617     17622
     17622     17623     17622     17624     17624     17625     17622     17632
     17632     17633     17632     17634     17634     17635     17632     17636
     17636     17637     17636     17638     17638     17639     17636     17619
     17619     17620     17619     17640     17640     17641     17640     17642
     17640     17643     17643     17644     17619     17621     17624     17626
     17626     17627     17626     17628     17628     17629     17628     17630
     17628     17631     17547     17557     17564     17578     17585     17598
     17605     17617     17493     17530     17645     17646     17645     17649
     17645     17650     17650     17651     17650     17652     17652     17653
     17650     17660     17660     17661     17660     17662     17660     17663
     17663     17664     17663     17665     17665     17666     17663     17647
     17647     17648     17647     17667     17667     17668     17667     17669
     17667     17670     17670     17671     17647     17649     17652     17654
     17654     17655     17654     17656     17656     17657     17656     17658
     17656     17659     17672     17673     17672     17676     17672     17677
     17677     17678     17677     17679     17677     17680     17680     17681
     17680     17682     17682     17683     17680     17684     17684     17685
     17684     17686     17686     17687     17684     17674     17674     17675
     17674     17688     17688     17689     17688     17690     17688     17691
     17691     17692     17674     17676     17693     17694     17693     17697
     17693     17698     17698     17699     17698     17700     17698     17701
     17701     17702     17701     17703     17703     17704     17701     17705
     17705     17706     17705     17707     17707     17708     17705     17695
     17695     17696     17695     17709     17709     17710     17709     17711
     17709     17712     17695     17697     17713     17714     17713     17717
     17713     17718     17718     17719     17718     17720     17718     17721
     17721     17722     17721     17723     17723     17724     17721     17725
     17725     17726     17725     17727     17727     17728     17725     17715
     17715     17716     17715     17729     17729     17730     17729     17731
     17729     17732     17715     17717     17733     17734     17733     17737
     17733     17738     17738     17739     17738     17740     17740     17741
     17738     17748     17748     17749     17748     17750     17750     17751
     17748     17752     17752     17753     17752     17754     17754     17755
     17752     17735     17735     17736     17735     17756     17756     17757
     17756     17758     17756     17759     17759     17760     17735     17737
     17740     17742     17742     17743     17742     17744     17744     17745
     17744     17746     17744     17747     17662     17672     17679     17693
     17700     17713     17720     17733     17608     17645     17175     17185
     17786     17787     17786     17788     17786     17819     17819     17820
     17819     17821     17822     17821     17822     17824     17824     17825
     17824     17826     17823     17822     17824     17827     17827     17828
     17827     17829     17827     17830     17830     17831     17830     17833
     17833     17834     17833     17835     17833     17836     17836     17837
     17830     17832     17836     17838     17836     17839     17839     17840
     17839     17841     17839     17842     17842     17843     17842     17844
     17842     17845     17845     17846     17845     17847     17845     17848
     17848     17849     17848     17850     17848     17851     17851     17852
     17851     17853     17851     17854     17854     17855     17854     17856
     17854     17857     17857     17858     17857     17859     17857     17860
     17860     17861     17860     17862     17860     17863     17819     17864
     17864     17865     17864     17866     17864     17867     17867     17868
     17867     17869     17867     17870     17870     17871     17870     17872
     17870     17873     17873     17874     17873     17875     17873     17876
     17876     17877     17876     17878     17876     17879     17879     17880
     17879     17881     17879     17882     17882     17883     17882     17884
     17882     17885     17885     17886     17885     17887     17885     17888
     17888     17889     17888     17890     17888     17891     17891     17892
     17891     17893     17891     17894     17894     17895     17894     17896
     17894     17897     17900     17901     17900     17902     17900     17903
     17903     17904     17903     17905     17907     17906     17905     17906
     17906     17908     17908     17909     17908     17910     17908     17911
     17911     17912     17911     17913     17911     17914     17914     17915
     17914     17916     17914     17917     17917     17918     17917     17919
     17917     17920     17920     17921     17920     17922     17920     17923
     17923     17924     17923     17925     17923     17926     17926     17927
     17926     17928     17926     17929     17929     17930     17929     17931
     17929     17932     17932     17933     17932     17934     17932     17935
     17935     17936     17935     17937     17935     17938     17938     17939
     17938     17940     17938     17941     17903     17942     17942     17943
     17942     17944     17942     17945     17945     17946     17945     17947
     17945     17948     17948     17949     17948     17950     17948     17951
     17951     17952     17951     17953     17951     17954     17954     17955
     17954     17956     17954     17957     17957     17958     17957     17959
     17957     17960     17960     17961     17960     17962     17960     17963
     17963     17964     17963     17965     17963     17966     17966     17967
     17966     17968     17966     17969     17969     17970     17969     17971
     17969     17972     17972     17973     17972     17974     17972     17975
     17810     17811     17810     17812     17812     17813     17812     17814
     17812     17976     17976     17977     17976     17978     17978     17979
     17976     17980     17980     17981     17980     17982     17980     17983
     17983     17984     17983     17985     17983     17986     17986     17987
     17986     17988     17986     17989     17989     17990     17989     17991
     17989     17992     17992     17993     17992     17994     17992     17995
     17995     17996     17995     17997     17995     17998     17998     17999
     17998     18000     17998     18001     18001     18002     18001     18003
     18001     18004     18004     18005     18004     18006     18004     18007
     18007     18008     18007     18009     18007     18010     18010     18011
     18010     18012     18010     18013     18019     18021     18021     18022
     18019     18023     18023     18024     18023     18025     18023     18026
     18026     18027     18026     18028     18026     18029     18029     18030
     18029     18031     18029     18032     18032     18033     18032     18034
     18032     18035     18035     18036     18035     18037     18035     18038
     18038     18039     18038     18040     18038     18041     18041     18042
     18041     18043     18041     18044     18044     18045     18044     18046
     18044     18047     18047     18048     18047     18049     18047     18050
     18050     18051     18050     18052     18050     18053     18053     18054
     18053     18055     18053     18056     17777     17778     17777     17779
     17777     17780     17777     17776     17776     17774     17774     17775
     17774     17765     17765     17767     17765     17763     17763     17764
     17763     17761     17763     17762     17765     17766     17766     17768
     17768     17769     17768     17789     17789     17790     17789     17791
     17791     17792     17791     17898     17898     17900     17789     17781
     17781     17783     17781     17774     17898     17899     17784     17785
     17781     17782     17782     17784     17784     17786     17768     17770
     17771     17770     17771     17772     17771     17773     17771     17797
     17797     17798     17797     17793     17793     17794     17793     17795
     17795     17796     17793     17807     17807     17808     17807     17809
     17809     17810     17807     17815     17815     17816     17815     17817
     17817     17818     17817     18014     18014     18016     18016     18017
     18016     18018     18016     18019     17815     17800     17800     17801
     17800     17799     17800     17802     17802     17806     17806     17803
     17806     17804     17806     17805     17799     17797     18019     18020
     18014     18015     18057     18059     18057     18060     18060     18064
     18057     18058     18064     18065     18064     18066     18064     18067
     18067     18068     18067     18069     18067     18070     18070     18071
     18070     18072     18070     18061     18061     18062     18061     18063
     18061     18073     18073     18074     18073     18075     18075     18076
     18073     18077     18077     18080     18080     18081     18077     18078
     18077     18079     18060     18063     18082     18084     18082     18085
     18085     18089     18082     18083     18089     18090     18089     18091
     18089     18092     18092     18093     18092     18094     18094     18095
     18092     18096     18096     18097     18096     18098     18098     18099
     18096     18086     18086     18087     18086     18088     18086     18100
     18100     18101     18100     18102     18102     18103     18100     18104
     18104     18107     18107     18108     18104     18105     18104     18106
     18085     18088     18109     18110     18109     18113     18109     18114
     18114     18115     18114     18116     18116     18117     18114     18118
     18118     18119     18118     18120     18118     18121     18121     18122
     18121     18123     18121     18111     18111     18112     18111     18128
     18128     18129     18128     18132     18128     18130     18130     18131
     18111     18113     18132     18133     18132     18134     18132     18135
     18135     18136     18137     18138     18137     18141     18137     18142
     18142     18143     18142     18144     18144     18145     18142     18146
     18146     18147     18146     18148     18146     18149     18149     18150
     18149     18151     18149     18139     18139     18140     18139     18156
     18156     18157     18156     18160     18156     18158     18158     18159
     18139     18141     18160     18161     18160     18162     18160     18163
     18164     18165     18164     18168     18164     18169     18169     18170
     18169     18171     18171     18172     18169     18173     18173     18174
     18173     18175     18175     18176     18173     18177     18177     18178
     18177     18179     18179     18180     18177     18166     18166     18167
     18166     18181     18181     18182     18181     18185     18181     18183
     18183     18184     18166     18168     18185     18186     18185     18187
     18185     18188     18188     18189     18190     18191     18190     18194
     18190     18195     18195     18196     18195     18197     18197     18198
     18195     18199     18199     18200     18199     18201     18199     18202
     18202     18203     18202     18204     18204     18205     18202     18192
     18192     18193     18192     18206     18206     18207     18206     18208
     18206     18209     18209     18210     18192     18194     18211     18212
     18211     18215     18211     18216     18216     18217     18216     18218
     18216     18219     18219     18220     18219     18221     18219     18222
     18222     18223     18222     18224     18224     18225     18222     18213
     18213     18214     18213     18226     18226     18227     18226     18228
     18226     18229     18229     18230     18213     18215     18231     18232
     18231     18235     18231     18236     18236     18237     18236     18238
     18236     18239     18239     18240     18239     18241     18241     18242
     18239     18243     18243     18244     18243     18245     18245     18246
     18243     18233     18233     18234     18233     18247     18247     18248
     18247     18249     18247     18250     18250     18251     18233     18235
     18252     18253     18252     18256     18252     18257     18257     18258
     18257     18259     18259     18260     18257     18261     18261     18262
     18261     18263     18263     18264     18261     18265     18265     18266
     18265     18267     18267     18268     18265     18254     18254     18255
     18254     18269     18269     18270     18269     18271     18269     18272
     18272     18273     18254     18256     18274     18275     18274     18278
     18274     18279     18279     18280     18279     18281     18281     18282
     18279     18283     18283     18284     18283     18285     18283     18286
     18286     18287     18286     18288     18288     18289     18286     18276
     18276     18277     18276     18290     18290     18291     18290     18292
     18290     18293     18293     18294     18276     18278     18069     18085
     18072     18109     18120     18137     18163     18164     18148     18190
     18201     18211     18218     18231     18238     18252     18221     18274
     18123     18124     18125     18124     18126     18124     18127     18124
     18151     18152     18153     18152     18154     18152     18155     18152
     17762     18060     18295     18296     18295     18299     18295     18300
     18300     18301     18300     18302     18302     18303     18300     18310
     18310     18311     18310     18312     18310     18313     18313     18314
     18313     18315     18315     18316     18313     18297     18297     18298
     18297     18317     18317     18318     18317     18319     18317     18320
     18320     18321     18297     18299     18302     18304     18304     18305
     18304     18306     18306     18307     18306     18308     18306     18309
     18322     18323     18322     18326     18322     18327     18327     18328
     18327     18329     18327     18330     18330     18331     18330     18332
     18332     18333     18330     18334     18334     18335     18334     18336
     18336     18337     18334     18324     18324     18325     18324     18338
     18338     18339     18338     18340     18338     18341     18341     18342
     18324     18326     18343     18344     18343     18347     18343     18348
     18348     18349     18348     18350     18348     18351     18351     18352
     18351     18353     18353     18354     18351     18355     18355     18356
     18355     18357     18357     18358     18355     18345     18345     18346
     18345     18359     18359     18360     18359     18361     18359     18362
     18345     18347     18363     18364     18363     18367     18363     18368
     18368     18369     18368     18370     18368     18371     18371     18372
     18371     18373     18371     18374     18374     18375     18374     18376
     18376     18377     18374     18365     18365     18366     18365     18378
     18378     18379     18378     18380     18378     18381     18365     18367
     18382     18383     18382     18386     18382     18387     18387     18388
     18387     18389     18389     18390     18387     18397     18397     18398
     18397     18399     18399     18400     18397     18401     18401     18402
     18401     18403     18403     18404     18401     18384     18384     18385
     18384     18405     18405     18406     18405     18407     18405     18408
     18408     18409     18384     18386     18389     18391     18391     18392
     18391     18393     18393     18394     18393     18395     18393     18396
     18312     18322     18329     18343     18350     18363     18370     18382
     18410     18411     18410     18414     18410     18415     18415     18416
     18415     18417     18417     18418     18415     18425     18425     18426
     18425     18427     18425     18428     18428     18429     18428     18430
     18430     18431     18428     18412     18412     18413     18412     18432
     18432     18433     18432     18434     18432     18435     18435     18436
     18412     18414     18417     18419     18419     18420     18419     18421
     18421     18422     18421     18423     18421     18424     18437     18438
     18437     18441     18437     18442     18442     18443     18442     18444
     18442     18445     18445     18446     18445     18447     18447     18448
     18445     18449     18449     18450     18449     18451     18451     18452
     18449     18439     18439     18440     18439     18453     18453     18454
     18453     18455     18453     18456     18456     18457     18439     18441
     18458     18459     18458     18462     18458     18463     18463     18464
     18463     18465     18463     18466     18466     18467     18466     18468
     18468     18469     18466     18470     18470     18471     18470     18472
     18472     18473     18470     18460     18460     18461     18460     18474
     18474     18475     18474     18476     18474     18477     18460     18462
     18478     18479     18478     18482     18478     18483     18483     18484
     18483     18485     18483     18486     18486     18487     18486     18488
     18486     18489     18489     18490     18489     18491     18491     18492
     18489     18480     18480     18481     18480     18493     18493     18494
     18493     18495     18493     18496     18480     18482     18497     18498
     18497     18501     18497     18502     18502     18503     18502     18504
     18504     18505     18502     18512     18512     18513     18512     18514
     18514     18515     18512     18516     18516     18517     18516     18518
     18518     18519     18516     18499     18499     18500     18499     18520
     18520     18521     18520     18522     18520     18523     18523     18524
     18499     18501     18504     18506     18506     18507     18506     18508
     18508     18509     18508     18510     18508     18511     18427     18437
     18444     18458     18465     18478     18485     18497     18373     18410
     18525     18526     18525     18529     18525     18530     18530     18531
     18530     18532     18532     18533     18530     18540     18540     18541
     18540     18542     18540     18543     18543     18544     18543     18545
     18545     18546     18543     18527     18527     18528     18527     18547
     18547     18548     18547     18549     18547     18550     18550     18551
     18527     18529     18532     18534     18534     18535     18534     18536
     18536     18537     18536     18538     18536     18539     18552     18553
     18552     18556     18552     18557     18557     18558     18557     18559
     18557     18560     18560     18561     18560     18562     18562     18563
     18560     18564     18564     18565     18564     18566     18566     18567
     18564     18554     18554     18555     18554     18568     18568     18569
     18568     18570     18568     18571     18571     18572     18554     18556
     18573     18574     18573     18577     18573     18578     18578     18579
     18578     18580     18578     18581     18581     18582     18581     18583
     18583     18584     18581     18585     18585     18586     18585     18587
     18587     18588     18585     18575     18575     18576     18575     18589
     18589     18590     18589     18591     18589     18592     18575     18577
     18593     18594     18593     18597     18593     18598     18598     18599
     18598     18600     18598     18601     18601     18602     18601     18603
     18601     18604     18604     18605     18604     18606     18606     18607
     18604     18595     18595     18596     18595     18608     18608     18609
     18608     18610     18608     18611     18595     18597     18612     18613
     18612     18616     18612     18617     18617     18618     18617     18619
     18619     18620     18617     18627     18627     18628     18627     18629
     18629     18630     18627     18631     18631     18632     18631     18633
     18633     18634     18631     18614     18614     18615     18614     18635
     18635     18636     18635     18637     18635     18638     18638     18639
     18614     18616     18619     18621     18621     18622     18621     18623
     18623     18624     18623     18625     18623     18626     18542     18552
     18559     18573     18580     18593     18600     18612     18488     18525
     18640     18641     18640     18644     18640     18645     18645     18646
     18645     18647     18647     18648     18645     18655     18655     18656
     18655     18657     18655     18658     18658     18659     18658     18660
     18660     18661     18658     18642     18642     18643     18642     18662
     18662     18663     18662     18664     18662     18665     18665     18666
     18642     18644     18647     18649     18649     18650     18649     18651
     18651     18652     18651     18653     18651     18654     18667     18668
     18667     18671     18667     18672     18672     18673     18672     18674
     18672     18675     18675     18676     18675     18677     18677     18678
     18675     18679     18679     18680     18679     18681     18681     18682
     18679     18669     18669     18670     18669     18683     18683     18684
     18683     18685     18683     18686     18686     18687     18669     18671
     18688     18689     18688     18692     18688     18693     18693     18694
     18693     18695     18693     18696     18696     18697     18696     18698
     18698     18699     18696     18700     18700     18701     18700     18702
     18702     18703     18700     18690     18690     18691     18690     18704
     18704     18705     18704     18706     18704     18707     18690     18692
     18708     18709     18708     18712     18708     18713     18713     18714
     18713     18715     18713     18716     18716     18717     18716     18718
     18716     18719     18719     18720     18719     18721     18721     18722
     18719     18710     18710     18711     18710     18723     18723     18724
     18723     18725     18723     18726     18710     18712     18727     18728
     18727     18731     18727     18732     18732     18733     18732     18734
     18734     18735     18732     18742     18742     18743     18742     18744
     18744     18745     18742     18746     18746     18747     18746     18748
     18748     18749     18746     18729     18729     18730     18729     18750
     18750     18751     18750     18752     18750     18753     18753     18754
     18729     18731     18734     18736     18736     18737     18736     18738
     18738     18739     18738     18740     18738     18741     18657     18667
     18674     18688     18695     18708     18715     18727     18603     18640
     18755     18756     18755     18759     18755     18760     18760     18761
     18760     18762     18762     18763     18760     18770     18770     18771
     18770     18772     18770     18773     18773     18774     18773     18775
     18775     18776     18773     18757     18757     18758     18757     18777
     18777     18778     18777     18779     18777     18780     18780     18781
     18757     18759     18762     18764     18764     18765     18764     18766
     18766     18767     18766     18768     18766     18769     18782     18783
     18782     18786     18782     18787     18787     18788     18787     18789
     18787     18790     18790     18791     18790     18792     18792     18793
     18790     18794     18794     18795     18794     18796     18796     18797
     18794     18784     18784     18785     18784     18798     18798     18799
     18798     18800     18798     18801     18801     18802     18784     18786
     18803     18804     18803     18807     18803     18808     18808     18809
     18808     18810     18808     18811     18811     18812     18811     18813
     18813     18814     18811     18815     18815     18816     18815     18817
     18817     18818     18815     18805     18805     18806     18805     18819
     18819     18820     18819     18821     18819     18822     18805     18807
     18823     18824     18823     18827     18823     18828     18828     18829
     18828     18830     18828     18831     18831     18832     18831     18833
     18833     18834     18831     18835     18835     18836     18835     18837
     18837     18838     18835     18825     18825     18826     18825     18839
     18839     18840     18839     18841     18839     18842     18825     18827
     18843     18844     18843     18847     18843     18848     18848     18849
     18848     18850     18850     18851     18848     18858     18858     18859
     18858     18860     18860     18861     18858     18862     18862     18863
     18862     18864     18864     18865     18862     18845     18845     18846
     18845     18866     18866     18867     18866     18868     18866     18869
     18869     18870     18845     18847     18850     18852     18852     18853
     18852     18854     18854     18855     18854     18856     18854     18857
     18772     18782     18789     18803     18810     18823     18830     18843
     18718     18755     18285     18295     18896     18897     18896     18898
     18896     18929     18929     18930     18929     18931     18932     18931
     18932     18934     18934     18935     18934     18936     18933     18932
     18934     18937     18937     18938     18937     18939     18937     18940
     18940     18941     18940     18943     18943     18944     18943     18945
     18943     18946     18946     18947     18940     18942     18946     18948
     18946     18949     18949     18950     18949     18951     18949     18952
     18952     18953     18952     18954     18952     18955     18955     18956
     18955     18957     18955     18958     18958     18959     18958     18960
     18958     18961     18961     18962     18961     18963     18961     18964
     18964     18965     18964     18966     18964     18967     18967     18968
     18967     18969     18967     18970     18970     18971     18970     18972
     18970     18973     18929     18974     18974     18975     18974     18976
     18974     18977     18977     18978     18977     18979     18977     18980
     18980     18981     18980     18982     18980     18983     18983     18984
     18983     18985     18983     18986     18986     18987     18986     18988
     18986     18989     18989     18990     18989     18991     18989     18992
     18992     18993     18992     18994     18992     18995     18995     18996
     18995     18997     18995     18998     18998     18999     18998     19000
     18998     19001     19001     19002     19001     19003     19001     19004
     19004     19005     19004     19006     19004     19007     19010     19011
     19010     19012     19010     19013     19013     19014     19013     19015
     19017     19016     19015     19016     19016     19018     19018     19019
     19018     19020     19018     19021     19021     19022     19021     19023
     19021     19024     19024     19025     19024     19026     19024     19027
     19027     19028     19027     19029     19027     19030     19030     19031
     19030     19032     19030     19033     19033     19034     19033     19035
     19033     19036     19036     19037     19036     19038     19036     19039
     19039     19040     19039     19041     19039     19042     19042     19043
     19042     19044     19042     19045     19045     19046     19045     19047
     19045     19048     19048     19049     19048     19050     19048     19051
     19013     19052     19052     19053     19052     19054     19052     19055
     19055     19056     19055     19057     19055     19058     19058     19059
     19058     19060     19058     19061     19061     19062     19061     19063
     19061     19064     19064     19065     19064     19066     19064     19067
     19067     19068     19067     19069     19067     19070     19070     19071
     19070     19072     19070     19073     19073     19074     19073     19075
     19073     19076     19076     19077     19076     19078     19076     19079
     19079     19080     19079     19081     19079     19082     19082     19083
     19082     19084     19082     19085     18920     18921     18920     18922
     18922     18923     18922     18924     18922     19086     19086     19087
     19086     19088     19088     19089     19086     19090     19090     19091
     19090     19092     19090     19093     19093     19094     19093     19095
     19093     19096     19096     19097     19096     19098     19096     19099
     19099     19100     19099     19101     19099     19102     19102     19103
     19102     19104     19102     19105     19105     19106     19105     19107
     19105     19108     19108     19109     19108     19110     19108     19111
     19111     19112     19111     19113     19111     19114     19114     19115
     19114     19116     19114     19117     19117     19118     19117     19119
     19117     19120     19120     19121     19120     19122     19120     19123
     19129     19131     19131     19132     19129     19133     19133     19134
     19133     19135     19133     19136     19136     19137     19136     19138
     19136     19139     19139     19140     19139     19141     19139     19142
     19142     19143     19142     19144     19142     19145     19145     19146
     19145     19147     19145     19148     19148     19149     19148     19150
     19148     19151     19151     19152     19151     19153     19151     19154
     19154     19155     19154     19156     19154     19157     19157     19158
     19157     19159     19157     19160     19160     19161     19160     19162
     19160     19163     19163     19164     19163     19165     19163     19166
     18887     18888     18887     18889     18887     18890     18887     18886
     18886     18884     18884     18885     18884     18875     18875     18877
     18875     18873     18873     18874     18873     18871     18873     18872
     18875     18876     18876     18878     18878     18879     18878     18899
     18899     18900     18899     18901     18901     18902     18901     19008
     19008     19010     18899     18891     18891     18893     18891     18884
     19008     19009     18894     18895     18891     18892     18892     18894
     18894     18896     18878     18880     18881     18880     18881     18882
     18881     18883     18881     18907     18907     18908     18907     18903
     18903     18904     18903     18905     18905     18906     18903     18917
     18917     18918     18917     18919     18919     18920     18917     18925
     18925     18926     18925     18927     18927     18928     18927     19124
     19124     19126     19126     19127     19126     19128     19126     19129
     18925     18910     18910     18911     18910     18909     18910     18912
     18912     18916     18916     18913     18916     18914     18916     18915
     18909     18907     19129     19130     19124     19125     19167     19169
     19167     19170     19170     19174     19167     19168     19174     19175
     19174     19176     19174     19177     19177     19178     19177     19179
     19177     19180     19180     19181     19180     19182     19180     19171
     19171     19172     19171     19173     19171     19183     19183     19184
     19183     19185     19185     19186     19183     19187     19187     19190
     19190     19191     19187     19188     19187     19189     19170     19173
     19192     19194     19192     19195     19195     19199     19192     19193
     19199     19200     19199     19201     19199     19202     19202     19203
     19202     19204     19204     19205     19202     19206     19206     19207
     19206     19208     19208     19209     19206     19196     19196     19197
     19196     19198     19196     19210     19210     19211     19210     19212
     19212     19213     19210     19214     19214     19217     19217     19218
     19214     19215     19214     19216     19195     19198     19219     19220
     19219     19223     19219     19224     19224     19225     19224     19226
     19226     19227     19224     19228     19228     19229     19228     19230
     19228     19231     19231     19232     19231     19233     19231     19221
     19221     19222     19221     19238     19238     19239     19238     19242
     19238     19240     19240     19241     19221     19223     19242     19243
     19242     19244     19242     19245     19245     19246     19247     19248
     19247     19251     19247     19252     19252     19253     19252     19254
     19254     19255     19252     19256     19256     19257     19256     19258
     19256     19259     19259     19260     19259     19261     19259     19249
     19249     19250     19249     19266     19266     19267     19266     19270
     19266     19268     19268     19269     19249     19251     19270     19271
     19270     19272     19270     19273     19274     19275     19274     19278
     19274     19279     19279     19280     19279     19281     19281     19282
     19279     19283     19283     19284     19283     19285     19285     19286
     19283     19287     19287     19288     19287     19289     19289     19290
     19287     19276     19276     19277     19276     19291     19291     19292
     19291     19295     19291     19293     19293     19294     19276     19278
     19295     19296     19295     19297     19295     19298     19298     19299
     19300     19301     19300     19304     19300     19305     19305     19306
     19305     19307     19307     19308     19305     19309     19309     19310
     19309     19311     19309     19312     19312     19313     19312     19314
     19314     19315     19312     19302     19302     19303     19302     19316
     19316     19317     19316     19318     19316     19319     19319     19320
     19302     19304     19321     19322     19321     19325     19321     19326
     19326     19327     19326     19328     19326     19329     19329     19330
     19329     19331     19329     19332     19332     19333     19332     19334
     19334     19335     19332     19323     19323     19324     19323     19336
     19336     19337     19336     19338     19336     19339     19339     19340
     19323     19325     19341     19342     19341     19345     19341     19346
     19346     19347     19346     19348     19346     19349     19349     19350
     19349     19351     19351     19352     19349     19353     19353     19354
     19353     19355     19355     19356     19353     19343     19343     19344
     19343     19357     19357     19358     19357     19359     19357     19360
     19360     19361     19343     19345     19362     19363     19362     19366
     19362     19367     19367     19368     19367     19369     19369     19370
     19367     19371     19371     19372     19371     19373     19373     19374
     19371     19375     19375     19376     19375     19377     19377     19378
     19375     19364     19364     19365     19364     19379     19379     19380
     19379     19381     19379     19382     19382     19383     19364     19366
     19384     19385     19384     19388     19384     19389     19389     19390
     19389     19391     19391     19392     19389     19393     19393     19394
     19393     19395     19393     19396     19396     19397     19396     19398
     19398     19399     19396     19386     19386     19387     19386     19400
     19400     19401     19400     19402     19400     19403     19403     19404
     19386     19388     19179     19195     19182     19219     19230     19247
     19273     19274     19258     19300     19311     19321     19328     19341
     19348     19362     19331     19384     19233     19234     19235     19234
     19236     19234     19237     19234     19261     19262     19263     19262
     19264     19262     19265     19262     18872     19170     19405     19406
     19405     19409     19405     19410     19410     19411     19410     19412
     19412     19413     19410     19420     19420     19421     19420     19422
     19420     19423     19423     19424     19423     19425     19425     19426
     19423     19407     19407     19408     19407     19427     19427     19428
     19427     19429     19427     19430     19430     19431     19407     19409
     19412     19414     19414     19415     19414     19416     19416     19417
     19416     19418     19416     19419     19432     19433     19432     19436
     19432     19437     19437     19438     19437     19439     19437     19440
     19440     19441     19440     19442     19442     19443     19440     19444
     19444     19445     19444     19446     19446     19447     19444     19434
     19434     19435     19434     19448     19448     19449     19448     19450
     19448     19451     19451     19452     19434     19436     19453     19454
     19453     19457     19453     19458     19458     19459     19458     19460
     19458     19461     19461     19462     19461     19463     19463     19464
     19461     19465     19465     19466     19465     19467     19467     19468
     19465     19455     19455     19456     19455     19469     19469     19470
     19469     19471     19469     19472     19455     19457     19473     19474
     19473     19477     19473     19478     19478     19479     19478     19480
     19478     19481     19481     19482     19481     19483     19481     19484
     19484     19485     19484     19486     19486     19487     19484     19475
     19475     19476     19475     19488     19488     19489     19488     19490
     19488     19491     19475     19477     19492     19493     19492     19496
     19492     19497     19497     19498     19497     19499     19499     19500
     19497     19507     19507     19508     19507     19509     19509     19510
     19507     19511     19511     19512     19511     19513     19513     19514
     19511     19494     19494     19495     19494     19515     19515     19516
     19515     19517     19515     19518     19518     19519     19494     19496
     19499     19501     19501     19502     19501     19503     19503     19504
     19503     19505     19503     19506     19422     19432     19439     19453
     19460     19473     19480     19492     19520     19521     19520     19524
     19520     19525     19525     19526     19525     19527     19527     19528
     19525     19535     19535     19536     19535     19537     19535     19538
     19538     19539     19538     19540     19540     19541     19538     19522
     19522     19523     19522     19542     19542     19543     19542     19544
     19542     19545     19545     19546     19522     19524     19527     19529
     19529     19530     19529     19531     19531     19532     19531     19533
     19531     19534     19547     19548     19547     19551     19547     19552
     19552     19553     19552     19554     19552     19555     19555     19556
     19555     19557     19557     19558     19555     19559     19559     19560
     19559     19561     19561     19562     19559     19549     19549     19550
     19549     19563     19563     19564     19563     19565     19563     19566
     19566     19567     19549     19551     19568     19569     19568     19572
     19568     19573     19573     19574     19573     19575     19573     19576
     19576     19577     19576     19578     19578     19579     19576     19580
     19580     19581     19580     19582     19582     19583     19580     19570
     19570     19571     19570     19584     19584     19585     19584     19586
     19584     19587     19570     19572     19588     19589     19588     19592
     19588     19593     19593     19594     19593     19595     19593     19596
     19596     19597     19596     19598     19596     19599     19599     19600
     19599     19601     19601     19602     19599     19590     19590     19591
     19590     19603     19603     19604     19603     19605     19603     19606
     19590     19592     19607     19608     19607     19611     19607     19612
     19612     19613     19612     19614     19614     19615     19612     19622
     19622     19623     19622     19624     19624     19625     19622     19626
     19626     19627     19626     19628     19628     19629     19626     19609
     19609     19610     19609     19630     19630     19631     19630     19632
     19630     19633     19633     19634     19609     19611     19614     19616
     19616     19617     19616     19618     19618     19619     19618     19620
     19618     19621     19537     19547     19554     19568     19575     19588
     19595     19607     19483     19520     19635     19636     19635     19639
     19635     19640     19640     19641     19640     19642     19642     19643
     19640     19650     19650     19651     19650     19652     19650     19653
     19653     19654     19653     19655     19655     19656     19653     19637
     19637     19638     19637     19657     19657     19658     19657     19659
     19657     19660     19660     19661     19637     19639     19642     19644
     19644     19645     19644     19646     19646     19647     19646     19648
     19646     19649     19662     19663     19662     19666     19662     19667
     19667     19668     19667     19669     19667     19670     19670     19671
     19670     19672     19672     19673     19670     19674     19674     19675
     19674     19676     19676     19677     19674     19664     19664     19665
     19664     19678     19678     19679     19678     19680     19678     19681
     19681     19682     19664     19666     19683     19684     19683     19687
     19683     19688     19688     19689     19688     19690     19688     19691
     19691     19692     19691     19693     19693     19694     19691     19695
     19695     19696     19695     19697     19697     19698     19695     19685
     19685     19686     19685     19699     19699     19700     19699     19701
     19699     19702     19685     19687     19703     19704     19703     19707
     19703     19708     19708     19709     19708     19710     19708     19711
     19711     19712     19711     19713     19711     19714     19714     19715
     19714     19716     19716     19717     19714     19705     19705     19706
     19705     19718     19718     19719     19718     19720     19718     19721
     19705     19707     19722     19723     19722     19726     19722     19727
     19727     19728     19727     19729     19729     19730     19727     19737
     19737     19738     19737     19739     19739     19740     19737     19741
     19741     19742     19741     19743     19743     19744     19741     19724
     19724     19725     19724     19745     19745     19746     19745     19747
     19745     19748     19748     19749     19724     19726     19729     19731
     19731     19732     19731     19733     19733     19734     19733     19735
     19733     19736     19652     19662     19669     19683     19690     19703
     19710     19722     19598     19635     19750     19751     19750     19754
     19750     19755     19755     19756     19755     19757     19757     19758
     19755     19765     19765     19766     19765     19767     19765     19768
     19768     19769     19768     19770     19770     19771     19768     19752
     19752     19753     19752     19772     19772     19773     19772     19774
     19772     19775     19775     19776     19752     19754     19757     19759
     19759     19760     19759     19761     19761     19762     19761     19763
     19761     19764     19777     19778     19777     19781     19777     19782
     19782     19783     19782     19784     19782     19785     19785     19786
     19785     19787     19787     19788     19785     19789     19789     19790
     19789     19791     19791     19792     19789     19779     19779     19780
     19779     19793     19793     19794     19793     19795     19793     19796
     19796     19797     19779     19781     19798     19799     19798     19802
     19798     19803     19803     19804     19803     19805     19803     19806
     19806     19807     19806     19808     19808     19809     19806     19810
     19810     19811     19810     19812     19812     19813     19810     19800
     19800     19801     19800     19814     19814     19815     19814     19816
     19814     19817     19800     19802     19818     19819     19818     19822
     19818     19823     19823     19824     19823     19825     19823     19826
     19826     19827     19826     19828     19826     19829     19829     19830
     19829     19831     19831     19832     19829     19820     19820     19821
     19820     19833     19833     19834     19833     19835     19833     19836
     19820     19822     19837     19838     19837     19841     19837     19842
     19842     19843     19842     19844     19844     19845     19842     19852
     19852     19853     19852     19854     19854     19855     19852     19856
     19856     19857     19856     19858     19858     19859     19856     19839
     19839     19840     19839     19860     19860     19861     19860     19862
     19860     19863     19863     19864     19839     19841     19844     19846
     19846     19847     19846     19848     19848     19849     19848     19850
     19848     19851     19767     19777     19784     19798     19805     19818
     19825     19837     19713     19750     19865     19866     19865     19869
     19865     19870     19870     19871     19870     19872     19872     19873
     19870     19880     19880     19881     19880     19882     19880     19883
     19883     19884     19883     19885     19885     19886     19883     19867
     19867     19868     19867     19887     19887     19888     19887     19889
     19887     19890     19890     19891     19867     19869     19872     19874
     19874     19875     19874     19876     19876     19877     19876     19878
     19876     19879     19892     19893     19892     19896     19892     19897
     19897     19898     19897     19899     19897     19900     19900     19901
     19900     19902     19902     19903     19900     19904     19904     19905
     19904     19906     19906     19907     19904     19894     19894     19895
     19894     19908     19908     19909     19908     19910     19908     19911
     19911     19912     19894     19896     19913     19914     19913     19917
     19913     19918     19918     19919     19918     19920     19918     19921
     19921     19922     19921     19923     19923     19924     19921     19925
     19925     19926     19925     19927     19927     19928     19925     19915
     19915     19916     19915     19929     19929     19930     19929     19931
     19929     19932     19915     19917     19933     19934     19933     19937
     19933     19938     19938     19939     19938     19940     19938     19941
     19941     19942     19941     19943     19943     19944     19941     19945
     19945     19946     19945     19947     19947     19948     19945     19935
     19935     19936     19935     19949     19949     19950     19949     19951
     19949     19952     19935     19937     19953     19954     19953     19957
     19953     19958     19958     19959     19958     19960     19960     19961
     19958     19968     19968     19969     19968     19970     19970     19971
     19968     19972     19972     19973     19972     19974     19974     19975
     19972     19955     19955     19956     19955     19976     19976     19977
     19976     19978     19976     19979     19979     19980     19955     19957
     19960     19962     19962     19963     19962     19964     19964     19965
     19964     19966     19964     19967     19882     19892     19899     19913
     19920     19933     19940     19953     19828     19865     19395     19405
     20006     20007     20006     20008     20006     20039     20039     20040
     20039     20041     20042     20041     20042     20044     20044     20045
     20044     20046     20043     20042     20044     20047     20047     20048
     20047     20049     20047     20050     20050     20051     20050     20053
     20053     20054     20053     20055     20053     20056     20056     20057
     20050     20052     20056     20058     20056     20059     20059     20060
     20059     20061     20059     20062     20062     20063     20062     20064
     20062     20065     20065     20066     20065     20067     20065     20068
     20068     20069     20068     20070     20068     20071     20071     20072
     20071     20073     20071     20074     20074     20075     20074     20076
     20074     20077     20077     20078     20077     20079     20077     20080
     20080     20081     20080     20082     20080     20083     20039     20084
     20084     20085     20084     20086     20084     20087     20087     20088
     20087     20089     20087     20090     20090     20091     20090     20092
     20090     20093     20093     20094     20093     20095     20093     20096
     20096     20097     20096     20098     20096     20099     20099     20100
     20099     20101     20099     20102     20102     20103     20102     20104
     20102     20105     20105     20106     20105     20107     20105     20108
     20108     20109     20108     20110     20108     20111     20111     20112
     20111     20113     20111     20114     20114     20115     20114     20116
     20114     20117     20120     20121     20120     20122     20120     20123
     20123     20124     20123     20125     20127     20126     20125     20126
     20126     20128     20128     20129     20128     20130     20128     20131
     20131     20132     20131     20133     20131     20134     20134     20135
     20134     20136     20134     20137     20137     20138     20137     20139
     20137     20140     20140     20141     20140     20142     20140     20143
     20143     20144     20143     20145     20143     20146     20146     20147
     20146     20148     20146     20149     20149     20150     20149     20151
     20149     20152     20152     20153     20152     20154     20152     20155
     20155     20156     20155     20157     20155     20158     20158     20159
     20158     20160     20158     20161     20123     20162     20162     20163
     20162     20164     20162     20165     20165     20166     20165     20167
     20165     20168     20168     20169     20168     20170     20168     20171
     20171     20172     20171     20173     20171     20174     20174     20175
     20174     20176     20174     20177     20177     20178     20177     20179
     20177     20180     20180     20181     20180     20182     20180     20183
     20183     20184     20183     20185     20183     20186     20186     20187
     20186     20188     20186     20189     20189     20190     20189     20191
     20189     20192     20192     20193     20192     20194     20192     20195
     20030     20031     20030     20032     20032     20033     20032     20034
     20032     20196     20196     20197     20196     20198     20198     20199
     20196     20200     20200     20201     20200     20202     20200     20203
     20203     20204     20203     20205     20203     20206     20206     20207
     20206     20208     20206     20209     20209     20210     20209     20211
     20209     20212     20212     20213     20212     20214     20212     20215
     20215     20216     20215     20217     20215     20218     20218     20219
     20218     20220     20218     20221     20221     20222     20221     20223
     20221     20224     20224     20225     20224     20226     20224     20227
     20227     20228     20227     20229     20227     20230     20230     20231
     20230     20232     20230     20233     20239     20241     20241     20242
     20239     20243     20243     20244     20243     20245     20243     20246
     20246     20247     20246     20248     20246     20249     20249     20250
     20249     20251     20249     20252     20252     20253     20252     20254
     20252     20255     20255     20256     20255     20257     20255     20258
     20258     20259     20258     20260     20258     20261     20261     20262
     20261     20263     20261     20264     20264     20265     20264     20266
     20264     20267     20267     20268     20267     20269     20267     20270
     20270     20271     20270     20272     20270     20273     20273     20274
     20273     20275     20273     20276     19997     19998     19997     19999
     19997     20000     19997     19996     19996     19994     19994     19995
     19994     19985     19985     19987     19985     19983     19983     19984
     19983     19981     19983     19982     19985     19986     19986     19988
     19988     19989     19988     20009     20009     20010     20009     20011
     20011     20012     20011     20118     20118     20120     20009     20001
     20001     20003     20001     19994     20118     20119     20004     20005
     20001     20002     20002     20004     20004     20006     19988     19990
     19991     19990     19991     19992     19991     19993     19991     20017
     20017     20018     20017     20013     20013     20014     20013     20015
     20015     20016     20013     20027     20027     20028     20027     20029
     20029     20030     20027     20035     20035     20036     20035     20037
     20037     20038     20037     20234     20234     20236     20236     20237
     20236     20238     20236     20239     20035     20020     20020     20021
     20020     20019     20020     20022     20022     20026     20026     20023
     20026     20024     20026     20025     20019     20017     20239     20240
     20234     20235     20277     20279     20277     20280     20280     20284
     20277     20278     20284     20285     20284     20286     20284     20287
     20287     20288     20287     20289     20287     20290     20290     20291
     20290     20292     20290     20281     20281     20282     20281     20283
     20281     20293     20293     20294     20293     20295     20295     20296
     20293     20297     20297     20300     20300     20301     20297     20298
     20297     20299     20280     20283     20302     20304     20302     20305
     20305     20309     20302     20303     20309     20310     20309     20311
     20309     20312     20312     20313     20312     20314     20314     20315
     20312     20316     20316     20317     20316     20318     20318     20319
     20316     20306     20306     20307     20306     20308     20306     20320
     20320     20321     20320     20322     20322     20323     20320     20324
     20324     20327     20327     20328     20324     20325     20324     20326
     20305     20308     20329     20330     20329     20333     20329     20334
     20334     20335     20334     20336     20336     20337     20334     20338
     20338     20339     20338     20340     20338     20341     20341     20342
     20341     20343     20341     20331     20331     20332     20331     20348
     20348     20349     20348     20352     20348     20350     20350     20351
     20331     20333     20352     20353     20352     20354     20352     20355
     20355     20356     20357     20358     20357     20361     20357     20362
     20362     20363     20362     20364     20364     20365     20362     20366
     20366     20367     20366     20368     20366     20369     20369     20370
     20369     20371     20369     20359     20359     20360     20359     20376
     20376     20377     20376     20380     20376     20378     20378     20379
     20359     20361     20380     20381     20380     20382     20380     20383
     20384     20385     20384     20388     20384     20389     20389     20390
     20389     20391     20391     20392     20389     20393     20393     20394
     20393     20395     20395     20396     20393     20397     20397     20398
     20397     20399     20399     20400     20397     20386     20386     20387
     20386     20401     20401     20402     20401     20405     20401     20403
     20403     20404     20386     20388     20405     20406     20405     20407
     20405     20408     20408     20409     20410     20411     20410     20414
     20410     20415     20415     20416     20415     20417     20417     20418
     20415     20419     20419     20420     20419     20421     20419     20422
     20422     20423     20422     20424     20424     20425     20422     20412
     20412     20413     20412     20426     20426     20427     20426     20428
     20426     20429     20429     20430     20412     20414     20431     20432
     20431     20435     20431     20436     20436     20437     20436     20438
     20436     20439     20439     20440     20439     20441     20439     20442
     20442     20443     20442     20444     20444     20445     20442     20433
     20433     20434     20433     20446     20446     20447     20446     20448
     20446     20449     20449     20450     20433     20435     20451     20452
     20451     20455     20451     20456     20456     20457     20456     20458
     20456     20459     20459     20460     20459     20461     20461     20462
     20459     20463     20463     20464     20463     20465     20465     20466
     20463     20453     20453     20454     20453     20467     20467     20468
     20467     20469     20467     20470     20470     20471     20453     20455
     20472     20473     20472     20476     20472     20477     20477     20478
     20477     20479     20479     20480     20477     20481     20481     20482
     20481     20483     20483     20484     20481     20485     20485     20486
     20485     20487     20487     20488     20485     20474     20474     20475
     20474     20489     20489     20490     20489     20491     20489     20492
     20492     20493     20474     20476     20494     20495     20494     20498
     20494     20499     20499     20500     20499     20501     20501     20502
     20499     20503     20503     20504     20503     20505     20503     20506
     20506     20507     20506     20508     20508     20509     20506     20496
     20496     20497     20496     20510     20510     20511     20510     20512
     20510     20513     20513     20514     20496     20498     20289     20305
     20292     20329     20340     20357     20383     20384     20368     20410
     20421     20431     20438     20451     20458     20472     20441     20494
     20343     20344     20345     20344     20346     20344     20347     20344
     20371     20372     20373     20372     20374     20372     20375     20372
     19982     20280     20515     20516     20515     20519     20515     20520
     20520     20521     20520     20522     20522     20523     20520     20530
     20530     20531     20530     20532     20530     20533     20533     20534
     20533     20535     20535     20536     20533     20517     20517     20518
     20517     20537     20537     20538     20537     20539     20537     20540
     20540     20541     20517     20519     20522     20524     20524     20525
     20524     20526     20526     20527     20526     20528     20526     20529
     20542     20543     20542     20546     20542     20547     20547     20548
     20547     20549     20547     20550     20550     20551     20550     20552
     20552     20553     20550     20554     20554     20555     20554     20556
     20556     20557     20554     20544     20544     20545     20544     20558
     20558     20559     20558     20560     20558     20561     20561     20562
     20544     20546     20563     20564     20563     20567     20563     20568
     20568     20569     20568     20570     20568     20571     20571     20572
     20571     20573     20573     20574     20571     20575     20575     20576
     20575     20577     20577     20578     20575     20565     20565     20566
     20565     20579     20579     20580     20579     20581     20579     20582
     20565     20567     20583     20584     20583     20587     20583     20588
     20588     20589     20588     20590     20588     20591     20591     20592
     20591     20593     20591     20594     20594     20595     20594     20596
     20596     20597     20594     20585     20585     20586     20585     20598
     20598     20599     20598     20600     20598     20601     20585     20587
     20602     20603     20602     20606     20602     20607     20607     20608
     20607     20609     20609     20610     20607     20617     20617     20618
     20617     20619     20619     20620     20617     20621     20621     20622
     20621     20623     20623     20624     20621     20604     20604     20605
     20604     20625     20625     20626     20625     20627     20625     20628
     20628     20629     20604     20606     20609     20611     20611     20612
     20611     20613     20613     20614     20613     20615     20613     20616
     20532     20542     20549     20563     20570     20583     20590     20602
     20630     20631     20630     20634     20630     20635     20635     20636
     20635     20637     20637     20638     20635     20645     20645     20646
     20645     20647     20645     20648     20648     20649     20648     20650
     20650     20651     20648     20632     20632     20633     20632     20652
     20652     20653     20652     20654     20652     20655     20655     20656
     20632     20634     20637     20639     20639     20640     20639     20641
     20641     20642     20641     20643     20641     20644     20657     20658
     20657     20661     20657     20662     20662     20663     20662     20664
     20662     20665     20665     20666     20665     20667     20667     20668
     20665     20669     20669     20670     20669     20671     20671     20672
     20669     20659     20659     20660     20659     20673     20673     20674
     20673     20675     20673     20676     20676     20677     20659     20661
     20678     20679     20678     20682     20678     20683     20683     20684
     20683     20685     20683     20686     20686     20687     20686     20688
     20688     20689     20686     20690     20690     20691     20690     20692
     20692     20693     20690     20680     20680     20681     20680     20694
     20694     20695     20694     20696     20694     20697     20680     20682
     20698     20699     20698     20702     20698     20703     20703     20704
     20703     20705     20703     20706     20706     20707     20706     20708
     20706     20709     20709     20710     20709     20711     20711     20712
     20709     20700     20700     20701     20700     20713     20713     20714
     20713     20715     20713     20716     20700     20702     20717     20718
     20717     20721     20717     20722     20722     20723     20722     20724
     20724     20725     20722     20732     20732     20733     20732     20734
     20734     20735     20732     20736     20736     20737     20736     20738
     20738     20739     20736     20719     20719     20720     20719     20740
     20740     20741     20740     20742     20740     20743     20743     20744
     20719     20721     20724     20726     20726     20727     20726     20728
     20728     20729     20728     20730     20728     20731     20647     20657
     20664     20678     20685     20698     20705     20717     20593     20630
     20745     20746     20745     20749     20745     20750     20750     20751
     20750     20752     20752     20753     20750     20760     20760     20761
     20760     20762     20760     20763     20763     20764     20763     20765
     20765     20766     20763     20747     20747     20748     20747     20767
     20767     20768     20767     20769     20767     20770     20770     20771
     20747     20749     20752     20754     20754     20755     20754     20756
     20756     20757     20756     20758     20756     20759     20772     20773
     20772     20776     20772     20777     20777     20778     20777     20779
     20777     20780     20780     20781     20780     20782     20782     20783
     20780     20784     20784     20785     20784     20786     20786     20787
     20784     20774     20774     20775     20774     20788     20788     20789
     20788     20790     20788     20791     20791     20792     20774     20776
     20793     20794     20793     20797     20793     20798     20798     20799
     20798     20800     20798     20801     20801     20802     20801     20803
     20803     20804     20801     20805     20805     20806     20805     20807
     20807     20808     20805     20795     20795     20796     20795     20809
     20809     20810     20809     20811     20809     20812     20795     20797
     20813     20814     20813     20817     20813     20818     20818     20819
     20818     20820     20818     20821     20821     20822     20821     20823
     20821     20824     20824     20825     20824     20826     20826     20827
     20824     20815     20815     20816     20815     20828     20828     20829
     20828     20830     20828     20831     20815     20817     20832     20833
     20832     20836     20832     20837     20837     20838     20837     20839
     20839     20840     20837     20847     20847     20848     20847     20849
     20849     20850     20847     20851     20851     20852     20851     20853
     20853     20854     20851     20834     20834     20835     20834     20855
     20855     20856     20855     20857     20855     20858     20858     20859
     20834     20836     20839     20841     20841     20842     20841     20843
     20843     20844     20843     20845     20843     20846     20762     20772
     20779     20793     20800     20813     20820     20832     20708     20745
     20860     20861     20860     20864     20860     20865     20865     20866
     20865     20867     20867     20868     20865     20875     20875     20876
     20875     20877     20875     20878     20878     20879     20878     20880
     20880     20881     20878     20862     20862     20863     20862     20882
     20882     20883     20882     20884     20882     20885     20885     20886
     20862     20864     20867     20869     20869     20870     20869     20871
     20871     20872     20871     20873     20871     20874     20887     20888
     20887     20891     20887     20892     20892     20893     20892     20894
     20892     20895     20895     20896     20895     20897     20897     20898
     20895     20899     20899     20900     20899     20901     20901     20902
     20899     20889     20889     20890     20889     20903     20903     20904
     20903     20905     20903     20906     20906     20907     20889     20891
     20908     20909     20908     20912     20908     20913     20913     20914
     20913     20915     20913     20916     20916     20917     20916     20918
     20918     20919     20916     20920     20920     20921     20920     20922
     20922     20923     20920     20910     20910     20911     20910     20924
     20924     20925     20924     20926     20924     20927     20910     20912
     20928     20929     20928     20932     20928     20933     20933     20934
     20933     20935     20933     20936     20936     20937     20936     20938
     20936     20939     20939     20940     20939     20941     20941     20942
     20939     20930     20930     20931     20930     20943     20943     20944
     20943     20945     20943     20946     20930     20932     20947     20948
     20947     20951     20947     20952     20952     20953     20952     20954
     20954     20955     20952     20962     20962     20963     20962     20964
     20964     20965     20962     20966     20966     20967     20966     20968
     20968     20969     20966     20949     20949     20950     20949     20970
     20970     20971     20970     20972     20970     20973     20973     20974
     20949     20951     20954     20956     20956     20957     20956     20958
     20958     20959     20958     20960     20958     20961     20877     20887
     20894     20908     20915     20928     20935     20947     20823     20860
     20975     20976     20975     20979     20975     20980     20980     20981
     20980     20982     20982     20983     20980     20990     20990     20991
     20990     20992     20990     20993     20993     20994     20993     20995
     20995     20996     20993     20977     20977     20978     20977     20997
     20997     20998     20997     20999     20997     21000     21000     21001
     20977     20979     20982     20984     20984     20985     20984     20986
     20986     20987     20986     20988     20986     20989     21002     21003
     21002     21006     21002     21007     21007     21008     21007     21009
     21007     21010     21010     21011     21010     21012     21012     21013
     21010     21014     21014     21015     21014     21016     21016     21017
     21014     21004     21004     21005     21004     21018     21018     21019
     21018     21020     21018     21021     21021     21022     21004     21006
     21023     21024     21023     21027     21023     21028     21028     21029
     21028     21030     21028     21031     21031     21032     21031     21033
     21033     21034     21031     21035     21035     21036     21035     21037
     21037     21038     21035     21025     21025     21026     21025     21039
     21039     21040     21039     21041     21039     21042     21025     21027
     21043     21044     21043     21047     21043     21048     21048     21049
     21048     21050     21048     21051     21051     21052     21051     21053
     21053     21054     21051     21055     21055     21056     21055     21057
     21057     21058     21055     21045     21045     21046     21045     21059
     21059     21060     21059     21061     21059     21062     21045     21047
     21063     21064     21063     21067     21063     21068     21068     21069
     21068     21070     21070     21071     21068     21078     21078     21079
     21078     21080     21080     21081     21078     21082     21082     21083
     21082     21084     21084     21085     21082     21065     21065     21066
     21065     21086     21086     21087     21086     21088     21086     21089
     21089     21090     21065     21067     21070     21072     21072     21073
     21072     21074     21074     21075     21074     21076     21074     21077
     20992     21002     21009     21023     21030     21043     21050     21063
     20938     20975     20505     20515     21116     21117     21116     21118
     21116     21149     21149     21150     21149     21151     21152     21151
     21152     21154     21154     21155     21154     21156     21153     21152
     21154     21157     21157     21158     21157     21159     21157     21160
     21160     21161     21160     21163     21163     21164     21163     21165
     21163     21166     21166     21167     21160     21162     21166     21168
     21166     21169     21169     21170     21169     21171     21169     21172
     21172     21173     21172     21174     21172     21175     21175     21176
     21175     21177     21175     21178     21178     21179     21178     21180
     21178     21181     21181     21182     21181     21183     21181     21184
     21184     21185     21184     21186     21184     21187     21187     21188
     21187     21189     21187     21190     21190     21191     21190     21192
     21190     21193     21149     21194     21194     21195     21194     21196
     21194     21197     21197     21198     21197     21199     21197     21200
     21200     21201     21200     21202     21200     21203     21203     21204
     21203     21205     21203     21206     21206     21207     21206     21208
     21206     21209     21209     21210     21209     21211     21209     21212
     21212     21213     21212     21214     21212     21215     21215     21216
     21215     21217     21215     21218     21218     21219     21218     21220
     21218     21221     21221     21222     21221     21223     21221     21224
     21224     21225     21224     21226     21224     21227     21230     21231
     21230     21232     21230     21233     21233     21234     21233     21235
     21237     21236     21235     21236     21236     21238     21238     21239
     21238     21240     21238     21241     21241     21242     21241     21243
     21241     21244     21244     21245     21244     21246     21244     21247
     21247     21248     21247     21249     21247     21250     21250     21251
     21250     21252     21250     21253     21253     21254     21253     21255
     21253     21256     21256     21257     21256     21258     21256     21259
     21259     21260     21259     21261     21259     21262     21262     21263
     21262     21264     21262     21265     21265     21266     21265     21267
     21265     21268     21268     21269     21268     21270     21268     21271
     21233     21272     21272     21273     21272     21274     21272     21275
     21275     21276     21275     21277     21275     21278     21278     21279
     21278     21280     21278     21281     21281     21282     21281     21283
     21281     21284     21284     21285     21284     21286     21284     21287
     21287     21288     21287     21289     21287     21290     21290     21291
     21290     21292     21290     21293     21293     21294     21293     21295
     21293     21296     21296     21297     21296     21298     21296     21299
     21299     21300     21299     21301     21299     21302     21302     21303
     21302     21304     21302     21305     21140     21141     21140     21142
     21142     21143     21142     21144     21142     21306     21306     21307
     21306     21308     21308     21309     21306     21310     21310     21311
     21310     21312     21310     21313     21313     21314     21313     21315
     21313     21316     21316     21317     21316     21318     21316     21319
     21319     21320     21319     21321     21319     21322     21322     21323
     21322     21324     21322     21325     21325     21326     21325     21327
     21325     21328     21328     21329     21328     21330     21328     21331
     21331     21332     21331     21333     21331     21334     21334     21335
     21334     21336     21334     21337     21337     21338     21337     21339
     21337     21340     21340     21341     21340     21342     21340     21343
     21349     21351     21351     21352     21349     21353     21353     21354
     21353     21355     21353     21356     21356     21357     21356     21358
     21356     21359     21359     21360     21359     21361     21359     21362
     21362     21363     21362     21364     21362     21365     21365     21366
     21365     21367     21365     21368     21368     21369     21368     21370
     21368     21371     21371     21372     21371     21373     21371     21374
     21374     21375     21374     21376     21374     21377     21377     21378
     21377     21379     21377     21380     21380     21381     21380     21382
     21380     21383     21383     21384     21383     21385     21383     21386
     21107     21108     21107     21109     21107     21110     21107     21106
     21106     21104     21104     21105     21104     21095     21095     21097
     21095     21093     21093     21094     21093     21091     21093     21092
     21095     21096     21096     21098     21098     21099     21098     21119
     21119     21120     21119     21121     21121     21122     21121     21228
     21228     21230     21119     21111     21111     21113     21111     21104
     21228     21229     21114     21115     21111     21112     21112     21114
     21114     21116     21098     21100     21101     21100     21101     21102
     21101     21103     21101     21127     21127     21128     21127     21123
     21123     21124     21123     21125     21125     21126     21123     21137
     21137     21138     21137     21139     21139     21140     21137     21145
     21145     21146     21145     21147     21147     21148     21147     21344
     21344     21346     21346     21347     21346     21348     21346     21349
     21145     21130     21130     21131     21130     21129     21130     21132
     21132     21136     21136     21133     21136     21134     21136     21135
     21129     21127     21349     21350     21344     21345     21387     21389
     21387     21390     21390     21394     21387     21388     21394     21395
     21394     21396     21394     21397     21397     21398     21397     21399
     21397     21400     21400     21401     21400     21402     21400     21391
     21391     21392     21391     21393     21391     21403     21403     21404
     21403     21405     21405     21406     21403     21407     21407     21410
     21410     21411     21407     21408     21407     21409     21390     21393
     21412     21414     21412     21415     21415     21419     21412     21413
     21419     21420     21419     21421     21419     21422     21422     21423
     21422     21424     21424     21425     21422     21426     21426     21427
     21426     21428     21428     21429     21426     21416     21416     21417
     21416     21418     21416     21430     21430     21431     21430     21432
     21432     21433     21430     21434     21434     21437     21437     21438
     21434     21435     21434     21436     21415     21418     21439     21440
     21439     21443     21439     21444     21444     21445     21444     21446
     21446     21447     21444     21448     21448     21449     21448     21450
     21448     21451     21451     21452     21451     21453     21451     21441
     21441     21442     21441     21458     21458     21459     21458     21462
     21458     21460     21460     21461     21441     21443     21462     21463
     21462     21464     21462     21465     21465     21466     21467     21468
     21467     21471     21467     21472     21472     21473     21472     21474
     21474     21475     21472     21476     21476     21477     21476     21478
     21476     21479     21479     21480     21479     21481     21479     21469
     21469     21470     21469     21486     21486     21487     21486     21490
     21486     21488     21488     21489     21469     21471     21490     21491
     21490     21492     21490     21493     21494     21495     21494     21498
     21494     21499     21499     21500     21499     21501     21501     21502
     21499     21503     21503     21504     21503     21505     21505     21506
     21503     21507     21507     21508     21507     21509     21509     21510
     21507     21496     21496     21497     21496     21511     21511     21512
     21511     21515     21511     21513     21513     21514     21496     21498
     21515     21516     21515     21517     21515     21518     21518     21519
     21520     21521     21520     21524     21520     21525     21525     21526
     21525     21527     21527     21528     21525     21529     21529     21530
     21529     21531     21529     21532     21532     21533     21532     21534
     21534     21535     21532     21522     21522     21523     21522     21536
     21536     21537     21536     21538     21536     21539     21539     21540
     21522     21524     21541     21542     21541     21545     21541     21546
     21546     21547     21546     21548     21546     21549     21549     21550
     21549     21551     21549     21552     21552     21553     21552     21554
     21554     21555     21552     21543     21543     21544     21543     21556
     21556     21557     21556     21558     21556     21559     21559     21560
     21543     21545     21561     21562     21561     21565     21561     21566
     21566     21567     21566     21568     21566     21569     21569     21570
     21569     21571     21571     21572     21569     21573     21573     21574
     21573     21575     21575     21576     21573     21563     21563     21564
     21563     21577     21577     21578     21577     21579     21577     21580
     21580     21581     21563     21565     21582     21583     21582     21586
     21582     21587     21587     21588     21587     21589     21589     21590
     21587     21591     21591     21592     21591     21593     21593     21594
     21591     21595     21595     21596     21595     21597     21597     21598
     21595     21584     21584     21585     21584     21599     21599     21600
     21599     21601     21599     21602     21602     21603     21584     21586
     21604     21605     21604     21608     21604     21609     21609     21610
     21609     21611     21611     21612     21609     21613     21613     21614
     21613     21615     21613     21616     21616     21617     21616     21618
     21618     21619     21616     21606     21606     21607     21606     21620
     21620     21621     21620     21622     21620     21623     21623     21624
     21606     21608     21399     21415     21402     21439     21450     21467
     21493     21494     21478     21520     21531     21541     21548     21561
     21568     21582     21551     21604     21453     21454     21455     21454
     21456     21454     21457     21454     21481     21482     21483     21482
     21484     21482     21485     21482     21092     21390     21625     21626
     21625     21629     21625     21630     21630     21631     21630     21632
     21632     21633     21630     21640     21640     21641     21640     21642
     21640     21643     21643     21644     21643     21645     21645     21646
     21643     21627     21627     21628     21627     21647     21647     21648
     21647     21649     21647     21650     21650     21651     21627     21629
     21632     21634     21634     21635     21634     21636     21636     21637
     21636     21638     21636     21639     21652     21653     21652     21656
     21652     21657     21657     21658     21657     21659     21657     21660
     21660     21661     21660     21662     21662     21663     21660     21664
     21664     21665     21664     21666     21666     21667     21664     21654
     21654     21655     21654     21668     21668     21669     21668     21670
     21668     21671     21671     21672     21654     21656     21673     21674
     21673     21677     21673     21678     21678     21679     21678     21680
     21678     21681     21681     21682     21681     21683     21683     21684
     21681     21685     21685     21686     21685     21687     21687     21688
     21685     21675     21675     21676     21675     21689     21689     21690
     21689     21691     21689     21692     21675     21677     21693     21694
     21693     21697     21693     21698     21698     21699     21698     21700
     21698     21701     21701     21702     21701     21703     21701     21704
     21704     21705     21704     21706     21706     21707     21704     21695
     21695     21696     21695     21708     21708     21709     21708     21710
     21708     21711     21695     21697     21712     21713     21712     21716
     21712     21717     21717     21718     21717     21719     21719     21720
     21717     21727     21727     21728     21727     21729     21729     21730
     21727     21731     21731     21732     21731     21733     21733     21734
     21731     21714     21714     21715     21714     21735     21735     21736
     21735     21737     21735     21738     21738     21739     21714     21716
     21719     21721     21721     21722     21721     21723     21723     21724
     21723     21725     21723     21726     21642     21652     21659     21673
     21680     21693     21700     21712     21740     21741     21740     21744
     21740     21745     21745     21746     21745     21747     21747     21748
     21745     21755     21755     21756     21755     21757     21755     21758
     21758     21759     21758     21760     21760     21761     21758     21742
     21742     21743     21742     21762     21762     21763     21762     21764
     21762     21765     21765     21766     21742     21744     21747     21749
     21749     21750     21749     21751     21751     21752     21751     21753
     21751     21754     21767     21768     21767     21771     21767     21772
     21772     21773     21772     21774     21772     21775     21775     21776
     21775     21777     21777     21778     21775     21779     21779     21780
     21779     21781     21781     21782     21779     21769     21769     21770
     21769     21783     21783     21784     21783     21785     21783     21786
     21786     21787     21769     21771     21788     21789     21788     21792
     21788     21793     21793     21794     21793     21795     21793     21796
     21796     21797     21796     21798     21798     21799     21796     21800
     21800     21801     21800     21802     21802     21803     21800     21790
     21790     21791     21790     21804     21804     21805     21804     21806
     21804     21807     21790     21792     21808     21809     21808     21812
     21808     21813     21813     21814     21813     21815     21813     21816
     21816     21817     21816     21818     21816     21819     21819     21820
     21819     21821     21821     21822     21819     21810     21810     21811
     21810     21823     21823     21824     21823     21825     21823     21826
     21810     21812     21827     21828     21827     21831     21827     21832
     21832     21833     21832     21834     21834     21835     21832     21842
     21842     21843     21842     21844     21844     21845     21842     21846
     21846     21847     21846     21848     21848     21849     21846     21829
     21829     21830     21829     21850     21850     21851     21850     21852
     21850     21853     21853     21854     21829     21831     21834     21836
     21836     21837     21836     21838     21838     21839     21838     21840
     21838     21841     21757     21767     21774     21788     21795     21808
     21815     21827     21703     21740     21855     21856     21855     21859
     21855     21860     21860     21861     21860     21862     21862     21863
     21860     21870     21870     21871     21870     21872     21870     21873
     21873     21874     21873     21875     21875     21876     21873     21857
     21857     21858     21857     21877     21877     21878     21877     21879
     21877     21880     21880     21881     21857     21859     21862     21864
     21864     21865     21864     21866     21866     21867     21866     21868
     21866     21869     21882     21883     21882     21886     21882     21887
     21887     21888     21887     21889     21887     21890     21890     21891
     21890     21892     21892     21893     21890     21894     21894     21895
     21894     21896     21896     21897     21894     21884     21884     21885
     21884     21898     21898     21899     21898     21900     21898     21901
     21901     21902     21884     21886     21903     21904     21903     21907
     21903     21908     21908     21909     21908     21910     21908     21911
     21911     21912     21911     21913     21913     21914     21911     21915
     21915     21916     21915     21917     21917     21918     21915     21905
     21905     21906     21905     21919     21919     21920     21919     21921
     21919     21922     21905     21907     21923     21924     21923     21927
     21923     21928     21928     21929     21928     21930     21928     21931
     21931     21932     21931     21933     21931     21934     21934     21935
     21934     21936     21936     21937     21934     21925     21925     21926
     21925     21938     21938     21939     21938     21940     21938     21941
     21925     21927     21942     21943     21942     21946     21942     21947
     21947     21948     21947     21949     21949     21950     21947     21957
     21957     21958     21957     21959     21959     21960     21957     21961
     21961     21962     21961     21963     21963     21964     21961     21944
     21944     21945     21944     21965     21965     21966     21965     21967
     21965     21968     21968     21969     21944     21946     21949     21951
     21951     21952     21951     21953     21953     21954     21953     21955
     21953     21956     21872     21882     21889     21903     21910     21923
     21930     21942     21818     21855     21970     21971     21970     21974
     21970     21975     21975     21976     21975     21977     21977     21978
     21975     21985     21985     21986     21985     21987     21985     21988
     21988     21989     21988     21990     21990     21991     21988     21972
     21972     21973     21972     21992     21992     21993     21992     21994
     21992     21995     21995     21996     21972     21974     21977     21979
     21979     21980     21979     21981     21981     21982     21981     21983
     21981     21984     21997     21998     21997     22001     21997     22002
     22002     22003     22002     22004     22002     22005     22005     22006
     22005     22007     22007     22008     22005     22009     22009     22010
     22009     22011     22011     22012     22009     21999     21999     22000
     21999     22013     22013     22014     22013     22015     22013     22016
     22016     22017     21999     22001     22018     22019     22018     22022
     22018     22023     22023     22024     22023     22025     22023     22026
     22026     22027     22026     22028     22028     22029     22026     22030
     22030     22031     22030     22032     22032     22033     22030     22020
     22020     22021     22020     22034     22034     22035     22034     22036
     22034     22037     22020     22022     22038     22039     22038     22042
     22038     22043     22043     22044     22043     22045     22043     22046
     22046     22047     22046     22048     22046     22049     22049     22050
     22049     22051     22051     22052     22049     22040     22040     22041
     22040     22053     22053     22054     22053     22055     22053     22056
     22040     22042     22057     22058     22057     22061     22057     22062
     22062     22063     22062     22064     22064     22065     22062     22072
     22072     22073     22072     22074     22074     22075     22072     22076
     22076     22077     22076     22078     22078     22079     22076     22059
     22059     22060     22059     22080     22080     22081     22080     22082
     22080     22083     22083     22084     22059     22061     22064     22066
     22066     22067     22066     22068     22068     22069     22068     22070
     22068     22071     21987     21997     22004     22018     22025     22038
     22045     22057     21933     21970     22085     22086     22085     22089
     22085     22090     22090     22091     22090     22092     22092     22093
     22090     22100     22100     22101     22100     22102     22100     22103
     22103     22104     22103     22105     22105     22106     22103     22087
     22087     22088     22087     22107     22107     22108     22107     22109
     22107     22110     22110     22111     22087     22089     22092     22094
     22094     22095     22094     22096     22096     22097     22096     22098
     22096     22099     22112     22113     22112     22116     22112     22117
     22117     22118     22117     22119     22117     22120     22120     22121
     22120     22122     22122     22123     22120     22124     22124     22125
     22124     22126     22126     22127     22124     22114     22114     22115
     22114     22128     22128     22129     22128     22130     22128     22131
     22131     22132     22114     22116     22133     22134     22133     22137
     22133     22138     22138     22139     22138     22140     22138     22141
     22141     22142     22141     22143     22143     22144     22141     22145
     22145     22146     22145     22147     22147     22148     22145     22135
     22135     22136     22135     22149     22149     22150     22149     22151
     22149     22152     22135     22137     22153     22154     22153     22157
     22153     22158     22158     22159     22158     22160     22158     22161
     22161     22162     22161     22163     22163     22164     22161     22165
     22165     22166     22165     22167     22167     22168     22165     22155
     22155     22156     22155     22169     22169     22170     22169     22171
     22169     22172     22155     22157     22173     22174     22173     22177
     22173     22178     22178     22179     22178     22180     22180     22181
     22178     22188     22188     22189     22188     22190     22190     22191
     22188     22192     22192     22193     22192     22194     22194     22195
     22192     22175     22175     22176     22175     22196     22196     22197
     22196     22198     22196     22199     22199     22200     22175     22177
     22180     22182     22182     22183     22182     22184     22184     22185
     22184     22186     22184     22187     22102     22112     22119     22133
     22140     22153     22160     22173     22048     22085     21615     21625
     22226     22227     22226     22228     22226     22259     22259     22260
     22259     22261     22262     22261     22262     22264     22264     22265
     22264     22266     22263     22262     22264     22267     22267     22268
     22267     22269     22267     22270     22270     22271     22270     22273
     22273     22274     22273     22275     22273     22276     22276     22277
     22270     22272     22276     22278     22276     22279     22279     22280
     22279     22281     22279     22282     22282     22283     22282     22284
     22282     22285     22285     22286     22285     22287     22285     22288
     22288     22289     22288     22290     22288     22291     22291     22292
     22291     22293     22291     22294     22294     22295     22294     22296
     22294     22297     22297     22298     22297     22299     22297     22300
     22300     22301     22300     22302     22300     22303     22259     22304
     22304     22305     22304     22306     22304     22307     22307     22308
     22307     22309     22307     22310     22310     22311     22310     22312
     22310     22313     22313     22314     22313     22315     22313     22316
     22316     22317     22316     22318     22316     22319     22319     22320
     22319     22321     22319     22322     22322     22323     22322     22324
     22322     22325     22325     22326     22325     22327     22325     22328
     22328     22329     22328     22330     22328     22331     22331     22332
     22331     22333     22331     22334     22334     22335     22334     22336
     22334     22337     22340     22341     22340     22342     22340     22343
     22343     22344     22343     22345     22347     22346     22345     22346
     22346     22348     22348     22349     22348     22350     22348     22351
     22351     22352     22351     22353     22351     22354     22354     22355
     22354     22356     22354     22357     22357     22358     22357     22359
     22357     22360     22360     22361     22360     22362     22360     22363
     22363     22364     22363     22365     22363     22366     22366     22367
     22366     22368     22366     22369     22369     22370     22369     22371
     22369     22372     22372     22373     22372     22374     22372     22375
     22375     22376     22375     22377     22375     22378     22378     22379
     22378     22380     22378     22381     22343     22382     22382     22383
     22382     22384     22382     22385     22385     22386     22385     22387
     22385     22388     22388     22389     22388     22390     22388     22391
     22391     22392     22391     22393     22391     22394     22394     22395
     22394     22396     22394     22397     22397     22398     22397     22399
     22397     22400     22400     22401     22400     22402     22400     22403
     22403     22404     22403     22405     22403     22406     22406     22407
     22406     22408     22406     22409     22409     22410     22409     22411
     22409     22412     22412     22413     22412     22414     22412     22415
     22250     22251     22250     22252     22252     22253     22252     22254
     22252     22416     22416     22417     22416     22418     22418     22419
     22416     22420     22420     22421     22420     22422     22420     22423
     22423     22424     22423     22425     22423     22426     22426     22427
     22426     22428     22426     22429     22429     22430     22429     22431
     22429     22432     22432     22433     22432     22434     22432     22435
     22435     22436     22435     22437     22435     22438     22438     22439
     22438     22440     22438     22441     22441     22442     22441     22443
     22441     22444     22444     22445     22444     22446     22444     22447
     22447     22448     22447     22449     22447     22450     22450     22451
     22450     22452     22450     22453     22459     22461     22461     22462
     22459     22463     22463     22464     22463     22465     22463     22466
     22466     22467     22466     22468     22466     22469     22469     22470
     22469     22471     22469     22472     22472     22473     22472     22474
     22472     22475     22475     22476     22475     22477     22475     22478
     22478     22479     22478     22480     22478     22481     22481     22482
     22481     22483     22481     22484     22484     22485     22484     22486
     22484     22487     22487     22488     22487     22489     22487     22490
     22490     22491     22490     22492     22490     22493     22493     22494
     22493     22495     22493     22496     22217     22218     22217     22219
     22217     22220     22217     22216     22216     22214     22214     22215
     22214     22205     22205     22207     22205     22203     22203     22204
     22203     22201     22203     22202     22205     22206     22206     22208
     22208     22209     22208     22229     22229     22230     22229     22231
     22231     22232     22231     22338     22338     22340     22229     22221
     22221     22223     22221     22214     22338     22339     22224     22225
     22221     22222     22222     22224     22224     22226     22208     22210
     22211     22210     22211     22212     22211     22213     22211     22237
     22237     22238     22237     22233     22233     22234     22233     22235
     22235     22236     22233     22247     22247     22248     22247     22249
     22249     22250     22247     22255     22255     22256     22255     22257
     22257     22258     22257     22454     22454     22456     22456     22457
     22456     22458     22456     22459     22255     22240     22240     22241
     22240     22239     22240     22242     22242     22246     22246     22243
     22246     22244     22246     22245     22239     22237     22459     22460
     22454     22455     22497     22499     22497     22500     22500     22504
     22497     22498     22504     22505     22504     22506     22504     22507
     22507     22508     22507     22509     22507     22510     22510     22511
     22510     22512     22510     22501     22501     22502     22501     22503
     22501     22513     22513     22514     22513     22515     22515     22516
     22513     22517     22517     22520     22520     22521     22517     22518
     22517     22519     22500     22503     22522     22524     22522     22525
     22525     22529     22522     22523     22529     22530     22529     22531
     22529     22532     22532     22533     22532     22534     22534     22535
     22532     22536     22536     22537     22536     22538     22538     22539
     22536     22526     22526     22527     22526     22528     22526     22540
     22540     22541     22540     22542     22542     22543     22540     22544
     22544     22547     22547     22548     22544     22545     22544     22546
     22525     22528     22549     22550     22549     22553     22549     22554
     22554     22555     22554     22556     22556     22557     22554     22558
     22558     22559     22558     22560     22558     22561     22561     22562
     22561     22563     22561     22551     22551     22552     22551     22568
     22568     22569     22568     22572     22568     22570     22570     22571
     22551     22553     22572     22573     22572     22574     22572     22575
     22575     22576     22577     22578     22577     22581     22577     22582
     22582     22583     22582     22584     22584     22585     22582     22586
     22586     22587     22586     22588     22586     22589     22589     22590
     22589     22591     22589     22579     22579     22580     22579     22596
     22596     22597     22596     22600     22596     22598     22598     22599
     22579     22581     22600     22601     22600     22602     22600     22603
     22604     22605     22604     22608     22604     22609     22609     22610
     22609     22611     22611     22612     22609     22613     22613     22614
     22613     22615     22615     22616     22613     22617     22617     22618
     22617     22619     22619     22620     22617     22606     22606     22607
     22606     22621     22621     22622     22621     22625     22621     22623
     22623     22624     22606     22608     22625     22626     22625     22627
     22625     22628     22628     22629     22630     22631     22630     22634
     22630     22635     22635     22636     22635     22637     22637     22638
     22635     22639     22639     22640     22639     22641     22639     22642
     22642     22643     22642     22644     22644     22645     22642     22632
     22632     22633     22632     22646     22646     22647     22646     22648
     22646     22649     22649     22650     22632     22634     22651     22652
     22651     22655     22651     22656     22656     22657     22656     22658
     22656     22659     22659     22660     22659     22661     22659     22662
     22662     22663     22662     22664     22664     22665     22662     22653
     22653     22654     22653     22666     22666     22667     22666     22668
     22666     22669     22669     22670     22653     22655     22671     22672
     22671     22675     22671     22676     22676     22677     22676     22678
     22676     22679     22679     22680     22679     22681     22681     22682
     22679     22683     22683     22684     22683     22685     22685     22686
     22683     22673     22673     22674     22673     22687     22687     22688
     22687     22689     22687     22690     22690     22691     22673     22675
     22692     22693     22692     22696     22692     22697     22697     22698
     22697     22699     22699     22700     22697     22701     22701     22702
     22701     22703     22703     22704     22701     22705     22705     22706
     22705     22707     22707     22708     22705     22694     22694     22695
     22694     22709     22709     22710     22709     22711     22709     22712
     22712     22713     22694     22696     22714     22715     22714     22718
     22714     22719     22719     22720     22719     22721     22721     22722
     22719     22723     22723     22724     22723     22725     22723     22726
     22726     22727     22726     22728     22728     22729     22726     22716
     22716     22717     22716     22730     22730     22731     22730     22732
     22730     22733     22733     22734     22716     22718     22509     22525
     22512     22549     22560     22577     22603     22604     22588     22630
     22641     22651     22658     22671     22678     22692     22661     22714
     22563     22564     22565     22564     22566     22564     22567     22564
     22591     22592     22593     22592     22594     22592     22595     22592
     22202     22500     22735     22736     22735     22739     22735     22740
     22740     22741     22740     22742     22742     22743     22740     22750
     22750     22751     22750     22752     22750     22753     22753     22754
     22753     22755     22755     22756     22753     22737     22737     22738
     22737     22757     22757     22758     22757     22759     22757     22760
     22760     22761     22737     22739     22742     22744     22744     22745
     22744     22746     22746     22747     22746     22748     22746     22749
     22762     22763     22762     22766     22762     22767     22767     22768
     22767     22769     22767     22770     22770     22771     22770     22772
     22772     22773     22770     22774     22774     22775     22774     22776
     22776     22777     22774     22764     22764     22765     22764     22778
     22778     22779     22778     22780     22778     22781     22781     22782
     22764     22766     22783     22784     22783     22787     22783     22788
     22788     22789     22788     22790     22788     22791     22791     22792
     22791     22793     22793     22794     22791     22795     22795     22796
     22795     22797     22797     22798     22795     22785     22785     22786
     22785     22799     22799     22800     22799     22801     22799     22802
     22785     22787     22803     22804     22803     22807     22803     22808
     22808     22809     22808     22810     22808     22811     22811     22812
     22811     22813     22811     22814     22814     22815     22814     22816
     22816     22817     22814     22805     22805     22806     22805     22818
     22818     22819     22818     22820     22818     22821     22805     22807
     22822     22823     22822     22826     22822     22827     22827     22828
     22827     22829     22829     22830     22827     22837     22837     22838
     22837     22839     22839     22840     22837     22841     22841     22842
     22841     22843     22843     22844     22841     22824     22824     22825
     22824     22845     22845     22846     22845     22847     22845     22848
     22848     22849     22824     22826     22829     22831     22831     22832
     22831     22833     22833     22834     22833     22835     22833     22836
     22752     22762     22769     22783     22790     22803     22810     22822
     22850     22851     22850     22854     22850     22855     22855     22856
     22855     22857     22857     22858     22855     22865     22865     22866
     22865     22867     22865     22868     22868     22869     22868     22870
     22870     22871     22868     22852     22852     22853     22852     22872
     22872     22873     22872     22874     22872     22875     22875     22876
     22852     22854     22857     22859     22859     22860     22859     22861
     22861     22862     22861     22863     22861     22864     22877     22878
     22877     22881     22877     22882     22882     22883     22882     22884
     22882     22885     22885     22886     22885     22887     22887     22888
     22885     22889     22889     22890     22889     22891     22891     22892
     22889     22879     22879     22880     22879     22893     22893     22894
     22893     22895     22893     22896     22896     22897     22879     22881
     22898     22899     22898     22902     22898     22903     22903     22904
     22903     22905     22903     22906     22906     22907     22906     22908
     22908     22909     22906     22910     22910     22911     22910     22912
     22912     22913     22910     22900     22900     22901     22900     22914
     22914     22915     22914     22916     22914     22917     22900     22902
     22918     22919     22918     22922     22918     22923     22923     22924
     22923     22925     22923     22926     22926     22927     22926     22928
     22926     22929     22929     22930     22929     22931     22931     22932
     22929     22920     22920     22921     22920     22933     22933     22934
     22933     22935     22933     22936     22920     22922     22937     22938
     22937     22941     22937     22942     22942     22943     22942     22944
     22944     22945     22942     22952     22952     22953     22952     22954
     22954     22955     22952     22956     22956     22957     22956     22958
     22958     22959     22956     22939     22939     22940     22939     22960
     22960     22961     22960     22962     22960     22963     22963     22964
     22939     22941     22944     22946     22946     22947     22946     22948
     22948     22949     22948     22950     22948     22951     22867     22877
     22884     22898     22905     22918     22925     22937     22813     22850
     22965     22966     22965     22969     22965     22970     22970     22971
     22970     22972     22972     22973     22970     22980     22980     22981
     22980     22982     22980     22983     22983     22984     22983     22985
     22985     22986     22983     22967     22967     22968     22967     22987
     22987     22988     22987     22989     22987     22990     22990     22991
     22967     22969     22972     22974     22974     22975     22974     22976
     22976     22977     22976     22978     22976     22979     22992     22993
     22992     22996     22992     22997     22997     22998     22997     22999
     22997     23000     23000     23001     23000     23002     23002     23003
     23000     23004     23004     23005     23004     23006     23006     23007
     23004     22994     22994     22995     22994     23008     23008     23009
     23008     23010     23008     23011     23011     23012     22994     22996
     23013     23014     23013     23017     23013     23018     23018     23019
     23018     23020     23018     23021     23021     23022     23021     23023
     23023     23024     23021     23025     23025     23026     23025     23027
     23027     23028     23025     23015     23015     23016     23015     23029
     23029     23030     23029     23031     23029     23032     23015     23017
     23033     23034     23033     23037     23033     23038     23038     23039
     23038     23040     23038     23041     23041     23042     23041     23043
     23041     23044     23044     23045     23044     23046     23046     23047
     23044     23035     23035     23036     23035     23048     23048     23049
     23048     23050     23048     23051     23035     23037     23052     23053
     23052     23056     23052     23057     23057     23058     23057     23059
     23059     23060     23057     23067     23067     23068     23067     23069
     23069     23070     23067     23071     23071     23072     23071     23073
     23073     23074     23071     23054     23054     23055     23054     23075
     23075     23076     23075     23077     23075     23078     23078     23079
     23054     23056     23059     23061     23061     23062     23061     23063
     23063     23064     23063     23065     23063     23066     22982     22992
     22999     23013     23020     23033     23040     23052     22928     22965
     23080     23081     23080     23084     23080     23085     23085     23086
     23085     23087     23087     23088     23085     23095     23095     23096
     23095     23097     23095     23098     23098     23099     23098     23100
     23100     23101     23098     23082     23082     23083     23082     23102
     23102     23103     23102     23104     23102     23105     23105     23106
     23082     23084     23087     23089     23089     23090     23089     23091
     23091     23092     23091     23093     23091     23094     23107     23108
     23107     23111     23107     23112     23112     23113     23112     23114
     23112     23115     23115     23116     23115     23117     23117     23118
     23115     23119     23119     23120     23119     23121     23121     23122
     23119     23109     23109     23110     23109     23123     23123     23124
     23123     23125     23123     23126     23126     23127     23109     23111
     23128     23129     23128     23132     23128     23133     23133     23134
     23133     23135     23133     23136     23136     23137     23136     23138
     23138     23139     23136     23140     23140     23141     23140     23142
     23142     23143     23140     23130     23130     23131     23130     23144
     23144     23145     23144     23146     23144     23147     23130     23132
     23148     23149     23148     23152     23148     23153     23153     23154
     23153     23155     23153     23156     23156     23157     23156     23158
     23156     23159     23159     23160     23159     23161     23161     23162
     23159     23150     23150     23151     23150     23163     23163     23164
     23163     23165     23163     23166     23150     23152     23167     23168
     23167     23171     23167     23172     23172     23173     23172     23174
     23174     23175     23172     23182     23182     23183     23182     23184
     23184     23185     23182     23186     23186     23187     23186     23188
     23188     23189     23186     23169     23169     23170     23169     23190
     23190     23191     23190     23192     23190     23193     23193     23194
     23169     23171     23174     23176     23176     23177     23176     23178
     23178     23179     23178     23180     23178     23181     23097     23107
     23114     23128     23135     23148     23155     23167     23043     23080
     23195     23196     23195     23199     23195     23200     23200     23201
     23200     23202     23202     23203     23200     23210     23210     23211
     23210     23212     23210     23213     23213     23214     23213     23215
     23215     23216     23213     23197     23197     23198     23197     23217
     23217     23218     23217     23219     23217     23220     23220     23221
     23197     23199     23202     23204     23204     23205     23204     23206
     23206     23207     23206     23208     23206     23209     23222     23223
     23222     23226     23222     23227     23227     23228     23227     23229
     23227     23230     23230     23231     23230     23232     23232     23233
     23230     23234     23234     23235     23234     23236     23236     23237
     23234     23224     23224     23225     23224     23238     23238     23239
     23238     23240     23238     23241     23241     23242     23224     23226
     23243     23244     23243     23247     23243     23248     23248     23249
     23248     23250     23248     23251     23251     23252     23251     23253
     23253     23254     23251     23255     23255     23256     23255     23257
     23257     23258     23255     23245     23245     23246     23245     23259
     23259     23260     23259     23261     23259     23262     23245     23247
     23263     23264     23263     23267     23263     23268     23268     23269
     23268     23270     23268     23271     23271     23272     23271     23273
     23273     23274     23271     23275     23275     23276     23275     23277
     23277     23278     23275     23265     23265     23266     23265     23279
     23279     23280     23279     23281     23279     23282     23265     23267
     23283     23284     23283     23287     23283     23288     23288     23289
     23288     23290     23290     23291     23288     23298     23298     23299
     23298     23300     23300     23301     23298     23302     23302     23303
     23302     23304     23304     23305     23302     23285     23285     23286
     23285     23306     23306     23307     23306     23308     23306     23309
     23309     23310     23285     23287     23290     23292     23292     23293
     23292     23294     23294     23295     23294     23296     23294     23297
     23212     23222     23229     23243     23250     23263     23270     23283
     23158     23195     22725     22735     23336     23337     23336     23338
     23336     23369     23369     23370     23369     23371     23372     23371
     23372     23374     23374     23375     23374     23376     23373     23372
     23374     23377     23377     23378     23377     23379     23377     23380
     23380     23381     23380     23383     23383     23384     23383     23385
     23383     23386     23386     23387     23380     23382     23386     23388
     23386     23389     23389     23390     23389     23391     23389     23392
     23392     23393     23392     23394     23392     23395     23395     23396
     23395     23397     23395     23398     23398     23399     23398     23400
     23398     23401     23401     23402     23401     23403     23401     23404
     23404     23405     23404     23406     23404     23407     23407     23408
     23407     23409     23407     23410     23410     23411     23410     23412
     23410     23413     23369     23414     23414     23415     23414     23416
     23414     23417     23417     23418     23417     23419     23417     23420
     23420     23421     23420     23422     23420     23423     23423     23424
     23423     23425     23423     23426     23426     23427     23426     23428
     23426     23429     23429     23430     23429     23431     23429     23432
     23432     23433     23432     23434     23432     23435     23435     23436
     23435     23437     23435     23438     23438     23439     23438     23440
     23438     23441     23441     23442     23441     23443     23441     23444
     23444     23445     23444     23446     23444     23447     23450     23451
     23450     23452     23450     23453     23453     23454     23453     23455
     23457     23456     23455     23456     23456     23458     23458     23459
     23458     23460     23458     23461     23461     23462     23461     23463
     23461     23464     23464     23465     23464     23466     23464     23467
     23467     23468     23467     23469     23467     23470     23470     23471
     23470     23472     23470     23473     23473     23474     23473     23475
     23473     23476     23476     23477     23476     23478     23476     23479
     23479     23480     23479     23481     23479     23482     23482     23483
     23482     23484     23482     23485     23485     23486     23485     23487
     23485     23488     23488     23489     23488     23490     23488     23491
     23453     23492     23492     23493     23492     23494     23492     23495
     23495     23496     23495     23497     23495     23498     23498     23499
     23498     23500     23498     23501     23501     23502     23501     23503
     23501     23504     23504     23505     23504     23506     23504     23507
     23507     23508     23507     23509     23507     23510     23510     23511
     23510     23512     23510     23513     23513     23514     23513     23515
     23513     23516     23516     23517     23516     23518     23516     23519
     23519     23520     23519     23521     23519     23522     23522     23523
     23522     23524     23522     23525     23360     23361     23360     23362
     23362     23363     23362     23364     23362     23526     23526     23527
     23526     23528     23528     23529     23526     23530     23530     23531
     23530     23532     23530     23533     23533     23534     23533     23535
     23533     23536     23536     23537     23536     23538     23536     23539
     23539     23540     23539     23541     23539     23542     23542     23543
     23542     23544     23542     23545     23545     23546     23545     23547
     23545     23548     23548     23549     23548     23550     23548     23551
     23551     23552     23551     23553     23551     23554     23554     23555
     23554     23556     23554     23557     23557     23558     23557     23559
     23557     23560     23560     23561     23560     23562     23560     23563
     23569     23571     23571     23572     23569     23573     23573     23574
     23573     23575     23573     23576     23576     23577     23576     23578
     23576     23579     23579     23580     23579     23581     23579     23582
     23582     23583     23582     23584     23582     23585     23585     23586
     23585     23587     23585     23588     23588     23589     23588     23590
     23588     23591     23591     23592     23591     23593     23591     23594
     23594     23595     23594     23596     23594     23597     23597     23598
     23597     23599     23597     23600     23600     23601     23600     23602
     23600     23603     23603     23604     23603     23605     23603     23606
     23327     23328     23327     23329     23327     23330     23327     23326
     23326     23324     23324     23325     23324     23315     23315     23317
     23315     23313     23313     23314     23313     23311     23313     23312
     23315     23316     23316     23318     23318     23319     23318     23339
     23339     23340     23339     23341     23341     23342     23341     23448
     23448     23450     23339     23331     23331     23333     23331     23324
     23448     23449     23334     23335     23331     23332     23332     23334
     23334     23336     23318     23320     23321     23320     23321     23322
     23321     23323     23321     23347     23347     23348     23347     23343
     23343     23344     23343     23345     23345     23346     23343     23357
     23357     23358     23357     23359     23359     23360     23357     23365
     23365     23366     23365     23367     23367     23368     23367     23564
     23564     23566     23566     23567     23566     23568     23566     23569
     23365     23350     23350     23351     23350     23349     23350     23352
     23352     23356     23356     23353     23356     23354     23356     23355
     23349     23347     23569     23570     23564     23565     23607     23609
     23607     23610     23610     23614     23607     23608     23614     23615
     23614     23616     23614     23617     23617     23618     23617     23619
     23617     23620     23620     23621     23620     23622     23620     23611
     23611     23612     23611     23613     23611     23623     23623     23624
     23623     23625     23625     23626     23623     23627     23627     23630
     23630     23631     23627     23628     23627     23629     23610     23613
     23632     23634     23632     23635     23635     23639     23632     23633
     23639     23640     23639     23641     23639     23642     23642     23643
     23642     23644     23644     23645     23642     23646     23646     23647
     23646     23648     23648     23649     23646     23636     23636     23637
     23636     23638     23636     23650     23650     23651     23650     23652
     23652     23653     23650     23654     23654     23657     23657     23658
     23654     23655     23654     23656     23635     23638     23659     23660
     23659     23663     23659     23664     23664     23665     23664     23666
     23666     23667     23664     23668     23668     23669     23668     23670
     23668     23671     23671     23672     23671     23673     23671     23661
     23661     23662     23661     23678     23678     23679     23678     23682
     23678     23680     23680     23681     23661     23663     23682     23683
     23682     23684     23682     23685     23685     23686     23687     23688
     23687     23691     23687     23692     23692     23693     23692     23694
     23694     23695     23692     23696     23696     23697     23696     23698
     23696     23699     23699     23700     23699     23701     23699     23689
     23689     23690     23689     23706     23706     23707     23706     23710
     23706     23708     23708     23709     23689     23691     23710     23711
     23710     23712     23710     23713     23714     23715     23714     23718
     23714     23719     23719     23720     23719     23721     23721     23722
     23719     23723     23723     23724     23723     23725     23725     23726
     23723     23727     23727     23728     23727     23729     23729     23730
     23727     23716     23716     23717     23716     23731     23731     23732
     23731     23735     23731     23733     23733     23734     23716     23718
     23735     23736     23735     23737     23735     23738     23738     23739
     23740     23741     23740     23744     23740     23745     23745     23746
     23745     23747     23747     23748     23745     23749     23749     23750
     23749     23751     23749     23752     23752     23753     23752     23754
     23754     23755     23752     23742     23742     23743     23742     23756
     23756     23757     23756     23758     23756     23759     23759     23760
     23742     23744     23761     23762     23761     23765     23761     23766
     23766     23767     23766     23768     23766     23769     23769     23770
     23769     23771     23769     23772     23772     23773     23772     23774
     23774     23775     23772     23763     23763     23764     23763     23776
     23776     23777     23776     23778     23776     23779     23779     23780
     23763     23765     23781     23782     23781     23785     23781     23786
     23786     23787     23786     23788     23786     23789     23789     23790
     23789     23791     23791     23792     23789     23793     23793     23794
     23793     23795     23795     23796     23793     23783     23783     23784
     23783     23797     23797     23798     23797     23799     23797     23800
     23800     23801     23783     23785     23802     23803     23802     23806
     23802     23807     23807     23808     23807     23809     23809     23810
     23807     23811     23811     23812     23811     23813     23813     23814
     23811     23815     23815     23816     23815     23817     23817     23818
     23815     23804     23804     23805     23804     23819     23819     23820
     23819     23821     23819     23822     23822     23823     23804     23806
     23824     23825     23824     23828     23824     23829     23829     23830
     23829     23831     23831     23832     23829     23833     23833     23834
     23833     23835     23833     23836     23836     23837     23836     23838
     23838     23839     23836     23826     23826     23827     23826     23840
     23840     23841     23840     23842     23840     23843     23843     23844
     23826     23828     23619     23635     23622     23659     23670     23687
     23713     23714     23698     23740     23751     23761     23768     23781
     23788     23802     23771     23824     23673     23674     23675     23674
     23676     23674     23677     23674     23701     23702     23703     23702
     23704     23702     23705     23702     23312     23610     23845     23846
     23845     23849     23845     23850     23850     23851     23850     23852
     23852     23853     23850     23860     23860     23861     23860     23862
     23860     23863     23863     23864     23863     23865     23865     23866
     23863     23847     23847     23848     23847     23867     23867     23868
     23867     23869     23867     23870     23870     23871     23847     23849
     23852     23854     23854     23855     23854     23856     23856     23857
     23856     23858     23856     23859     23872     23873     23872     23876
     23872     23877     23877     23878     23877     23879     23877     23880
     23880     23881     23880     23882     23882     23883     23880     23884
     23884     23885     23884     23886     23886     23887     23884     23874
     23874     23875     23874     23888     23888     23889     23888     23890
     23888     23891     23891     23892     23874     23876     23893     23894
     23893     23897     23893     23898     23898     23899     23898     23900
     23898     23901     23901     23902     23901     23903     23903     23904
     23901     23905     23905     23906     23905     23907     23907     23908
     23905     23895     23895     23896     23895     23909     23909     23910
     23909     23911     23909     23912     23895     23897     23913     23914
     23913     23917     23913     23918     23918     23919     23918     23920
     23918     23921     23921     23922     23921     23923     23921     23924
     23924     23925     23924     23926     23926     23927     23924     23915
     23915     23916     23915     23928     23928     23929     23928     23930
     23928     23931     23915     23917     23932     23933     23932     23936
     23932     23937     23937     23938     23937     23939     23939     23940
     23937     23947     23947     23948     23947     23949     23949     23950
     23947     23951     23951     23952     23951     23953     23953     23954
     23951     23934     23934     23935     23934     23955     23955     23956
     23955     23957     23955     23958     23958     23959     23934     23936
     23939     23941     23941     23942     23941     23943     23943     23944
     23943     23945     23943     23946     23862     23872     23879     23893
     23900     23913     23920     23932     23960     23961     23960     23964
     23960     23965     23965     23966     23965     23967     23967     23968
     23965     23975     23975     23976     23975     23977     23975     23978
     23978     23979     23978     23980     23980     23981     23978     23962
     23962     23963     23962     23982     23982     23983     23982     23984
     23982     23985     23985     23986     23962     23964     23967     23969
     23969     23970     23969     23971     23971     23972     23971     23973
     23971     23974     23987     23988     23987     23991     23987     23992
     23992     23993     23992     23994     23992     23995     23995     23996
     23995     23997     23997     23998     23995     23999     23999     24000
     23999     24001     24001     24002     23999     23989     23989     23990
     23989     24003     24003     24004     24003     24005     24003     24006
     24006     24007     23989     23991     24008     24009     24008     24012
     24008     24013     24013     24014     24013     24015     24013     24016
     24016     24017     24016     24018     24018     24019     24016     24020
     24020     24021     24020     24022     24022     24023     24020     24010
     24010     24011     24010     24024     24024     24025     24024     24026
     24024     24027     24010     24012     24028     24029     24028     24032
     24028     24033     24033     24034     24033     24035     24033     24036
     24036     24037     24036     24038     24036     24039     24039     24040
     24039     24041     24041     24042     24039     24030     24030     24031
     24030     24043     24043     24044     24043     24045     24043     24046
     24030     24032     24047     24048     24047     24051     24047     24052
     24052     24053     24052     24054     24054     24055     24052     24062
     24062     24063     24062     24064     24064     24065     24062     24066
     24066     24067     24066     24068     24068     24069     24066     24049
     24049     24050     24049     24070     24070     24071     24070     24072
     24070     24073     24073     24074     24049     24051     24054     24056
     24056     24057     24056     24058     24058     24059     24058     24060
     24058     24061     23977     23987     23994     24008     24015     24028
     24035     24047     23923     23960     24075     24076     24075     24079
     24075     24080     24080     24081     24080     24082     24082     24083
     24080     24090     24090     24091     24090     24092     24090     24093
     24093     24094     24093     24095     24095     24096     24093     24077
     24077     24078     24077     24097     24097     24098     24097     24099
     24097     24100     24100     24101     24077     24079     24082     24084
     24084     24085     24084     24086     24086     24087     24086     24088
     24086     24089     24102     24103     24102     24106     24102     24107
     24107     24108     24107     24109     24107     24110     24110     24111
     24110     24112     24112     24113     24110     24114     24114     24115
     24114     24116     24116     24117     24114     24104     24104     24105
     24104     24118     24118     24119     24118     24120     24118     24121
     24121     24122     24104     24106     24123     24124     24123     24127
     24123     24128     24128     24129     24128     24130     24128     24131
     24131     24132     24131     24133     24133     24134     24131     24135
     24135     24136     24135     24137     24137     24138     24135     24125
     24125     24126     24125     24139     24139     24140     24139     24141
     24139     24142     24125     24127     24143     24144     24143     24147
     24143     24148     24148     24149     24148     24150     24148     24151
     24151     24152     24151     24153     24151     24154     24154     24155
     24154     24156     24156     24157     24154     24145     24145     24146
     24145     24158     24158     24159     24158     24160     24158     24161
     24145     24147     24162     24163     24162     24166     24162     24167
     24167     24168     24167     24169     24169     24170     24167     24177
     24177     24178     24177     24179     24179     24180     24177     24181
     24181     24182     24181     24183     24183     24184     24181     24164
     24164     24165     24164     24185     24185     24186     24185     24187
     24185     24188     24188     24189     24164     24166     24169     24171
     24171     24172     24171     24173     24173     24174     24173     24175
     24173     24176     24092     24102     24109     24123     24130     24143
     24150     24162     24038     24075     24190     24191     24190     24194
     24190     24195     24195     24196     24195     24197     24197     24198
     24195     24205     24205     24206     24205     24207     24205     24208
     24208     24209     24208     24210     24210     24211     24208     24192
     24192     24193     24192     24212     24212     24213     24212     24214
     24212     24215     24215     24216     24192     24194     24197     24199
     24199     24200     24199     24201     24201     24202     24201     24203
     24201     24204     24217     24218     24217     24221     24217     24222
     24222     24223     24222     24224     24222     24225     24225     24226
     24225     24227     24227     24228     24225     24229     24229     24230
     24229     24231     24231     24232     24229     24219     24219     24220
     24219     24233     24233     24234     24233     24235     24233     24236
     24236     24237     24219     24221     24238     24239     24238     24242
     24238     24243     24243     24244     24243     24245     24243     24246
     24246     24247     24246     24248     24248     24249     24246     24250
     24250     24251     24250     24252     24252     24253     24250     24240
     24240     24241     24240     24254     24254     24255     24254     24256
     24254     24257     24240     24242     24258     24259     24258     24262
     24258     24263     24263     24264     24263     24265     24263     24266
     24266     24267     24266     24268     24266     24269     24269     24270
     24269     24271     24271     24272     24269     24260     24260     24261
     24260     24273     24273     24274     24273     24275     24273     24276
     24260     24262     24277     24278     24277     24281     24277     24282
     24282     24283     24282     24284     24284     24285     24282     24292
     24292     24293     24292     24294     24294     24295     24292     24296
     24296     24297     24296     24298     24298     24299     24296     24279
     24279     24280     24279     24300     24300     24301     24300     24302
     24300     24303     24303     24304     24279     24281     24284     24286
     24286     24287     24286     24288     24288     24289     24288     24290
     24288     24291     24207     24217     24224     24238     24245     24258
     24265     24277     24153     24190     24305     24306     24305     24309
     24305     24310     24310     24311     24310     24312     24312     24313
     24310     24320     24320     24321     24320     24322     24320     24323
     24323     24324     24323     24325     24325     24326     24323     24307
     24307     24308     24307     24327     24327     24328     24327     24329
     24327     24330     24330     24331     24307     24309     24312     24314
     24314     24315     24314     24316     24316     24317     24316     24318
     24316     24319     24332     24333     24332     24336     24332     24337
     24337     24338     24337     24339     24337     24340     24340     24341
     24340     24342     24342     24343     24340     24344     24344     24345
     24344     24346     24346     24347     24344     24334     24334     24335
     24334     24348     24348     24349     24348     24350     24348     24351
     24351     24352     24334     24336     24353     24354     24353     24357
     24353     24358     24358     24359     24358     24360     24358     24361
     24361     24362     24361     24363     24363     24364     24361     24365
     24365     24366     24365     24367     24367     24368     24365     24355
     24355     24356     24355     24369     24369     24370     24369     24371
     24369     24372     24355     24357     24373     24374     24373     24377
     24373     24378     24378     24379     24378     24380     24378     24381
     24381     24382     24381     24383     24383     24384     24381     24385
     24385     24386     24385     24387     24387     24388     24385     24375
     24375     24376     24375     24389     24389     24390     24389     24391
     24389     24392     24375     24377     24393     24394     24393     24397
     24393     24398     24398     24399     24398     24400     24400     24401
     24398     24408     24408     24409     24408     24410     24410     24411
     24408     24412     24412     24413     24412     24414     24414     24415
     24412     24395     24395     24396     24395     24416     24416     24417
     24416     24418     24416     24419     24419     24420     24395     24397
     24400     24402     24402     24403     24402     24404     24404     24405
     24404     24406     24404     24407     24322     24332     24339     24353
     24360     24373     24380     24393     24268     24305     23835     23845
     24446     24447     24446     24448     24446     24479     24479     24480
     24479     24481     24482     24481     24482     24484     24484     24485
     24484     24486     24483     24482     24484     24487     24487     24488
     24487     24489     24487     24490     24490     24491     24490     24493
     24493     24494     24493     24495     24493     24496     24496     24497
     24490     24492     24496     24498     24496     24499     24499     24500
     24499     24501     24499     24502     24502     24503     24502     24504
     24502     24505     24505     24506     24505     24507     24505     24508
     24508     24509     24508     24510     24508     24511     24511     24512
     24511     24513     24511     24514     24514     24515     24514     24516
     24514     24517     24517     24518     24517     24519     24517     24520
     24520     24521     24520     24522     24520     24523     24479     24524
     24524     24525     24524     24526     24524     24527     24527     24528
     24527     24529     24527     24530     24530     24531     24530     24532
     24530     24533     24533     24534     24533     24535     24533     24536
     24536     24537     24536     24538     24536     24539     24539     24540
     24539     24541     24539     24542     24542     24543     24542     24544
     24542     24545     24545     24546     24545     24547     24545     24548
     24548     24549     24548     24550     24548     24551     24551     24552
     24551     24553     24551     24554     24554     24555     24554     24556
     24554     24557     24560     24561     24560     24562     24560     24563
     24563     24564     24563     24565     24567     24566     24565     24566
     24566     24568     24568     24569     24568     24570     24568     24571
     24571     24572     24571     24573     24571     24574     24574     24575
     24574     24576     24574     24577     24577     24578     24577     24579
     24577     24580     24580     24581     24580     24582     24580     24583
     24583     24584     24583     24585     24583     24586     24586     24587
     24586     24588     24586     24589     24589     24590     24589     24591
     24589     24592     24592     24593     24592     24594     24592     24595
     24595     24596     24595     24597     24595     24598     24598     24599
     24598     24600     24598     24601     24563     24602     24602     24603
     24602     24604     24602     24605     24605     24606     24605     24607
     24605     24608     24608     24609     24608     24610     24608     24611
     24611     24612     24611     24613     24611     24614     24614     24615
     24614     24616     24614     24617     24617     24618     24617     24619
     24617     24620     24620     24621     24620     24622     24620     24623
     24623     24624     24623     24625     24623     24626     24626     24627
     24626     24628     24626     24629     24629     24630     24629     24631
     24629     24632     24632     24633     24632     24634     24632     24635
     24470     24471     24470     24472     24472     24473     24472     24474
     24472     24636     24636     24637     24636     24638     24638     24639
     24636     24640     24640     24641     24640     24642     24640     24643
     24643     24644     24643     24645     24643     24646     24646     24647
     24646     24648     24646     24649     24649     24650     24649     24651
     24649     24652     24652     24653     24652     24654     24652     24655
     24655     24656     24655     24657     24655     24658     24658     24659
     24658     24660     24658     24661     24661     24662     24661     24663
     24661     24664     24664     24665     24664     24666     24664     24667
     24667     24668     24667     24669     24667     24670     24670     24671
     24670     24672     24670     24673     24679     24681     24681     24682
     24679     24683     24683     24684     24683     24685     24683     24686
     24686     24687     24686     24688     24686     24689     24689     24690
     24689     24691     24689     24692     24692     24693     24692     24694
     24692     24695     24695     24696     24695     24697     24695     24698
     24698     24699     24698     24700     24698     24701     24701     24702
     24701     24703     24701     24704     24704     24705     24704     24706
     24704     24707     24707     24708     24707     24709     24707     24710
     24710     24711     24710     24712     24710     24713     24713     24714
     24713     24715     24713     24716     24437     24438     24437     24439
     24437     24440     24437     24436     24436     24434     24434     24435
     24434     24425     24425     24427     24425     24423     24423     24424
     24423     24421     24423     24422     24425     24426     24426     24428
     24428     24429     24428     24449     24449     24450     24449     24451
     24451     24452     24451     24558     24558     24560     24449     24441
     24441     24443     24441     24434     24558     24559     24444     24445
     24441     24442     24442     24444     24444     24446     24428     24430
     24431     24430     24431     24432     24431     24433     24431     24457
     24457     24458     24457     24453     24453     24454     24453     24455
     24455     24456     24453     24467     24467     24468     24467     24469
     24469     24470     24467     24475     24475     24476     24475     24477
     24477     24478     24477     24674     24674     24676     24676     24677
     24676     24678     24676     24679     24475     24460     24460     24461
     24460     24459     24460     24462     24462     24466     24466     24463
     24466     24464     24466     24465     24459     24457     24679     24680
     24674     24675     24717     24719     24717     24720     24720     24724
     24717     24718     24724     24725     24724     24726     24724     24727
     24727     24728     24727     24729     24727     24730     24730     24731
     24730     24732     24730     24721     24721     24722     24721     24723
     24721     24733     24733     24734     24733     24735     24735     24736
     24733     24737     24737     24740     24740     24741     24737     24738
     24737     24739     24720     24723     24742     24744     24742     24745
     24745     24749     24742     24743     24749     24750     24749     24751
     24749     24752     24752     24753     24752     24754     24754     24755
     24752     24756     24756     24757     24756     24758     24758     24759
     24756     24746     24746     24747     24746     24748     24746     24760
     24760     24761     24760     24762     24762     24763     24760     24764
     24764     24767     24767     24768     24764     24765     24764     24766
     24745     24748     24769     24770     24769     24773     24769     24774
     24774     24775     24774     24776     24776     24777     24774     24778
     24778     24779     24778     24780     24778     24781     24781     24782
     24781     24783     24781     24771     24771     24772     24771     24788
     24788     24789     24788     24792     24788     24790     24790     24791
     24771     24773     24792     24793     24792     24794     24792     24795
     24795     24796     24797     24798     24797     24801     24797     24802
     24802     24803     24802     24804     24804     24805     24802     24806
     24806     24807     24806     24808     24806     24809     24809     24810
     24809     24811     24809     24799     24799     24800     24799     24816
     24816     24817     24816     24820     24816     24818     24818     24819
     24799     24801     24820     24821     24820     24822     24820     24823
     24824     24825     24824     24828     24824     24829     24829     24830
     24829     24831     24831     24832     24829     24833     24833     24834
     24833     24835     24835     24836     24833     24837     24837     24838
     24837     24839     24839     24840     24837     24826     24826     24827
     24826     24841     24841     24842     24841     24845     24841     24843
     24843     24844     24826     24828     24845     24846     24845     24847
     24845     24848     24848     24849     24850     24851     24850     24854
     24850     24855     24855     24856     24855     24857     24857     24858
     24855     24859     24859     24860     24859     24861     24859     24862
     24862     24863     24862     24864     24864     24865     24862     24852
     24852     24853     24852     24866     24866     24867     24866     24868
     24866     24869     24869     24870     24852     24854     24871     24872
     24871     24875     24871     24876     24876     24877     24876     24878
     24876     24879     24879     24880     24879     24881     24879     24882
     24882     24883     24882     24884     24884     24885     24882     24873
     24873     24874     24873     24886     24886     24887     24886     24888
     24886     24889     24889     24890     24873     24875     24891     24892
     24891     24895     24891     24896     24896     24897     24896     24898
     24896     24899     24899     24900     24899     24901     24901     24902
     24899     24903     24903     24904     24903     24905     24905     24906
     24903     24893     24893     24894     24893     24907     24907     24908
     24907     24909     24907     24910     24910     24911     24893     24895
     24912     24913     24912     24916     24912     24917     24917     24918
     24917     24919     24919     24920     24917     24921     24921     24922
     24921     24923     24923     24924     24921     24925     24925     24926
     24925     24927     24927     24928     24925     24914     24914     24915
     24914     24929     24929     24930     24929     24931     24929     24932
     24932     24933     24914     24916     24934     24935     24934     24938
     24934     24939     24939     24940     24939     24941     24941     24942
     24939     24943     24943     24944     24943     24945     24943     24946
     24946     24947     24946     24948     24948     24949     24946     24936
     24936     24937     24936     24950     24950     24951     24950     24952
     24950     24953     24953     24954     24936     24938     24729     24745
     24732     24769     24780     24797     24823     24824     24808     24850
     24861     24871     24878     24891     24898     24912     24881     24934
     24783     24784     24785     24784     24786     24784     24787     24784
     24811     24812     24813     24812     24814     24812     24815     24812
     24422     24720     24955     24956     24955     24959     24955     24960
     24960     24961     24960     24962     24962     24963     24960     24970
     24970     24971     24970     24972     24970     24973     24973     24974
     24973     24975     24975     24976     24973     24957     24957     24958
     24957     24977     24977     24978     24977     24979     24977     24980
     24980     24981     24957     24959     24962     24964     24964     24965
     24964     24966     24966     24967     24966     24968     24966     24969
     24982     24983     24982     24986     24982     24987     24987     24988
     24987     24989     24987     24990     24990     24991     24990     24992
     24992     24993     24990     24994     24994     24995     24994     24996
     24996     24997     24994     24984     24984     24985     24984     24998
     24998     24999     24998     25000     24998     25001     25001     25002
     24984     24986     25003     25004     25003     25007     25003     25008
     25008     25009     25008     25010     25008     25011     25011     25012
     25011     25013     25013     25014     25011     25015     25015     25016
     25015     25017     25017     25018     25015     25005     25005     25006
     25005     25019     25019     25020     25019     25021     25019     25022
     25005     25007     25023     25024     25023     25027     25023     25028
     25028     25029     25028     25030     25028     25031     25031     25032
     25031     25033     25031     25034     25034     25035     25034     25036
     25036     25037     25034     25025     25025     25026     25025     25038
     25038     25039     25038     25040     25038     25041     25025     25027
     25042     25043     25042     25046     25042     25047     25047     25048
     25047     25049     25049     25050     25047     25057     25057     25058
     25057     25059     25059     25060     25057     25061     25061     25062
     25061     25063     25063     25064     25061     25044     25044     25045
     25044     25065     25065     25066     25065     25067     25065     25068
     25068     25069     25044     25046     25049     25051     25051     25052
     25051     25053     25053     25054     25053     25055     25053     25056
     24972     24982     24989     25003     25010     25023     25030     25042
     25070     25071     25070     25074     25070     25075     25075     25076
     25075     25077     25077     25078     25075     25085     25085     25086
     25085     25087     25085     25088     25088     25089     25088     25090
     25090     25091     25088     25072     25072     25073     25072     25092
     25092     25093     25092     25094     25092     25095     25095     25096
     25072     25074     25077     25079     25079     25080     25079     25081
     25081     25082     25081     25083     25081     25084     25097     25098
     25097     25101     25097     25102     25102     25103     25102     25104
     25102     25105     25105     25106     25105     25107     25107     25108
     25105     25109     25109     25110     25109     25111     25111     25112
     25109     25099     25099     25100     25099     25113     25113     25114
     25113     25115     25113     25116     25116     25117     25099     25101
     25118     25119     25118     25122     25118     25123     25123     25124
     25123     25125     25123     25126     25126     25127     25126     25128
     25128     25129     25126     25130     25130     25131     25130     25132
     25132     25133     25130     25120     25120     25121     25120     25134
     25134     25135     25134     25136     25134     25137     25120     25122
     25138     25139     25138     25142     25138     25143     25143     25144
     25143     25145     25143     25146     25146     25147     25146     25148
     25146     25149     25149     25150     25149     25151     25151     25152
     25149     25140     25140     25141     25140     25153     25153     25154
     25153     25155     25153     25156     25140     25142     25157     25158
     25157     25161     25157     25162     25162     25163     25162     25164
     25164     25165     25162     25172     25172     25173     25172     25174
     25174     25175     25172     25176     25176     25177     25176     25178
     25178     25179     25176     25159     25159     25160     25159     25180
     25180     25181     25180     25182     25180     25183     25183     25184
     25159     25161     25164     25166     25166     25167     25166     25168
     25168     25169     25168     25170     25168     25171     25087     25097
     25104     25118     25125     25138     25145     25157     25033     25070
     25185     25186     25185     25189     25185     25190     25190     25191
     25190     25192     25192     25193     25190     25200     25200     25201
     25200     25202     25200     25203     25203     25204     25203     25205
     25205     25206     25203     25187     25187     25188     25187     25207
     25207     25208     25207     25209     25207     25210     25210     25211
     25187     25189     25192     25194     25194     25195     25194     25196
     25196     25197     25196     25198     25196     25199     25212     25213
     25212     25216     25212     25217     25217     25218     25217     25219
     25217     25220     25220     25221     25220     25222     25222     25223
     25220     25224     25224     25225     25224     25226     25226     25227
     25224     25214     25214     25215     25214     25228     25228     25229
     25228     25230     25228     25231     25231     25232     25214     25216
     25233     25234     25233     25237     25233     25238     25238     25239
     25238     25240     25238     25241     25241     25242     25241     25243
     25243     25244     25241     25245     25245     25246     25245     25247
     25247     25248     25245     25235     25235     25236     25235     25249
     25249     25250     25249     25251     25249     25252     25235     25237
     25253     25254     25253     25257     25253     25258     25258     25259
     25258     25260     25258     25261     25261     25262     25261     25263
     25261     25264     25264     25265     25264     25266     25266     25267
     25264     25255     25255     25256     25255     25268     25268     25269
     25268     25270     25268     25271     25255     25257     25272     25273
     25272     25276     25272     25277     25277     25278     25277     25279
     25279     25280     25277     25287     25287     25288     25287     25289
     25289     25290     25287     25291     25291     25292     25291     25293
     25293     25294     25291     25274     25274     25275     25274     25295
     25295     25296     25295     25297     25295     25298     25298     25299
     25274     25276     25279     25281     25281     25282     25281     25283
     25283     25284     25283     25285     25283     25286     25202     25212
     25219     25233     25240     25253     25260     25272     25148     25185
     25300     25301     25300     25304     25300     25305     25305     25306
     25305     25307     25307     25308     25305     25315     25315     25316
     25315     25317     25315     25318     25318     25319     25318     25320
     25320     25321     25318     25302     25302     25303     25302     25322
     25322     25323     25322     25324     25322     25325     25325     25326
     25302     25304     25307     25309     25309     25310     25309     25311
     25311     25312     25311     25313     25311     25314     25327     25328
     25327     25331     25327     25332     25332     25333     25332     25334
     25332     25335     25335     25336     25335     25337     25337     25338
     25335     25339     25339     25340     25339     25341     25341     25342
     25339     25329     25329     25330     25329     25343     25343     25344
     25343     25345     25343     25346     25346     25347     25329     25331
     25348     25349     25348     25352     25348     25353     25353     25354
     25353     25355     25353     25356     25356     25357     25356     25358
     25358     25359     25356     25360     25360     25361     25360     25362
     25362     25363     25360     25350     25350     25351     25350     25364
     25364     25365     25364     25366     25364     25367     25350     25352
     25368     25369     25368     25372     25368     25373     25373     25374
     25373     25375     25373     25376     25376     25377     25376     25378
     25376     25379     25379     25380     25379     25381     25381     25382
     25379     25370     25370     25371     25370     25383     25383     25384
     25383     25385     25383     25386     25370     25372     25387     25388
     25387     25391     25387     25392     25392     25393     25392     25394
     25394     25395     25392     25402     25402     25403     25402     25404
     25404     25405     25402     25406     25406     25407     25406     25408
     25408     25409     25406     25389     25389     25390     25389     25410
     25410     25411     25410     25412     25410     25413     25413     25414
     25389     25391     25394     25396     25396     25397     25396     25398
     25398     25399     25398     25400     25398     25401     25317     25327
     25334     25348     25355     25368     25375     25387     25263     25300
     25415     25416     25415     25419     25415     25420     25420     25421
     25420     25422     25422     25423     25420     25430     25430     25431
     25430     25432     25430     25433     25433     25434     25433     25435
     25435     25436     25433     25417     25417     25418     25417     25437
     25437     25438     25437     25439     25437     25440     25440     25441
     25417     25419     25422     25424     25424     25425     25424     25426
     25426     25427     25426     25428     25426     25429     25442     25443
     25442     25446     25442     25447     25447     25448     25447     25449
     25447     25450     25450     25451     25450     25452     25452     25453
     25450     25454     25454     25455     25454     25456     25456     25457
     25454     25444     25444     25445     25444     25458     25458     25459
     25458     25460     25458     25461     25461     25462     25444     25446
     25463     25464     25463     25467     25463     25468     25468     25469
     25468     25470     25468     25471     25471     25472     25471     25473
     25473     25474     25471     25475     25475     25476     25475     25477
     25477     25478     25475     25465     25465     25466     25465     25479
     25479     25480     25479     25481     25479     25482     25465     25467
     25483     25484     25483     25487     25483     25488     25488     25489
     25488     25490     25488     25491     25491     25492     25491     25493
     25493     25494     25491     25495     25495     25496     25495     25497
     25497     25498     25495     25485     25485     25486     25485     25499
     25499     25500     25499     25501     25499     25502     25485     25487
     25503     25504     25503     25507     25503     25508     25508     25509
     25508     25510     25510     25511     25508     25518     25518     25519
     25518     25520     25520     25521     25518     25522     25522     25523
     25522     25524     25524     25525     25522     25505     25505     25506
     25505     25526     25526     25527     25526     25528     25526     25529
     25529     25530     25505     25507     25510     25512     25512     25513
     25512     25514     25514     25515     25514     25516     25514     25517
     25432     25442     25449     25463     25470     25483     25490     25503
     25378     25415     24945     24955     25556     25557     25556     25558
     25556     25589     25589     25590     25589     25591     25592     25591
     25592     25594     25594     25595     25594     25596     25593     25592
     25594     25597     25597     25598     25597     25599     25597     25600
     25600     25601     25600     25603     25603     25604     25603     25605
     25603     25606     25606     25607     25600     25602     25606     25608
     25606     25609     25609     25610     25609     25611     25609     25612
     25612     25613     25612     25614     25612     25615     25615     25616
     25615     25617     25615     25618     25618     25619     25618     25620
     25618     25621     25621     25622     25621     25623     25621     25624
     25624     25625     25624     25626     25624     25627     25627     25628
     25627     25629     25627     25630     25630     25631     25630     25632
     25630     25633     25589     25634     25634     25635     25634     25636
     25634     25637     25637     25638     25637     25639     25637     25640
     25640     25641     25640     25642     25640     25643     25643     25644
     25643     25645     25643     25646     25646     25647     25646     25648
     25646     25649     25649     25650     25649     25651     25649     25652
     25652     25653     25652     25654     25652     25655     25655     25656
     25655     25657     25655     25658     25658     25659     25658     25660
     25658     25661     25661     25662     25661     25663     25661     25664
     25664     25665     25664     25666     25664     25667     25670     25671
     25670     25672     25670     25673     25673     25674     25673     25675
     25677     25676     25675     25676     25676     25678     25678     25679
     25678     25680     25678     25681     25681     25682     25681     25683
     25681     25684     25684     25685     25684     25686     25684     25687
     25687     25688     25687     25689     25687     25690     25690     25691
     25690     25692     25690     25693     25693     25694     25693     25695
     25693     25696     25696     25697     25696     25698     25696     25699
     25699     25700     25699     25701     25699     25702     25702     25703
     25702     25704     25702     25705     25705     25706     25705     25707
     25705     25708     25708     25709     25708     25710     25708     25711
     25673     25712     25712     25713     25712     25714     25712     25715
     25715     25716     25715     25717     25715     25718     25718     25719
     25718     25720     25718     25721     25721     25722     25721     25723
     25721     25724     25724     25725     25724     25726     25724     25727
     25727     25728     25727     25729     25727     25730     25730     25731
     25730     25732     25730     25733     25733     25734     25733     25735
     25733     25736     25736     25737     25736     25738     25736     25739
     25739     25740     25739     25741     25739     25742     25742     25743
     25742     25744     25742     25745     25580     25581     25580     25582
     25582     25583     25582     25584     25582     25746     25746     25747
     25746     25748     25748     25749     25746     25750     25750     25751
     25750     25752     25750     25753     25753     25754     25753     25755
     25753     25756     25756     25757     25756     25758     25756     25759
     25759     25760     25759     25761     25759     25762     25762     25763
     25762     25764     25762     25765     25765     25766     25765     25767
     25765     25768     25768     25769     25768     25770     25768     25771
     25771     25772     25771     25773     25771     25774     25774     25775
     25774     25776     25774     25777     25777     25778     25777     25779
     25777     25780     25780     25781     25780     25782     25780     25783
     25789     25791     25791     25792     25789     25793     25793     25794
     25793     25795     25793     25796     25796     25797     25796     25798
     25796     25799     25799     25800     25799     25801     25799     25802
     25802     25803     25802     25804     25802     25805     25805     25806
     25805     25807     25805     25808     25808     25809     25808     25810
     25808     25811     25811     25812     25811     25813     25811     25814
     25814     25815     25814     25816     25814     25817     25817     25818
     25817     25819     25817     25820     25820     25821     25820     25822
     25820     25823     25823     25824     25823     25825     25823     25826
     25547     25548     25547     25549     25547     25550     25547     25546
     25546     25544     25544     25545     25544     25535     25535     25537
     25535     25533     25533     25534     25533     25531     25533     25532
     25535     25536     25536     25538     25538     25539     25538     25559
     25559     25560     25559     25561     25561     25562     25561     25668
     25668     25670     25559     25551     25551     25553     25551     25544
     25668     25669     25554     25555     25551     25552     25552     25554
     25554     25556     25538     25540     25541     25540     25541     25542
     25541     25543     25541     25567     25567     25568     25567     25563
     25563     25564     25563     25565     25565     25566     25563     25577
     25577     25578     25577     25579     25579     25580     25577     25585
     25585     25586     25585     25587     25587     25588     25587     25784
     25784     25786     25786     25787     25786     25788     25786     25789
     25585     25570     25570     25571     25570     25569     25570     25572
     25572     25576     25576     25573     25576     25574     25576     25575
     25569     25567     25789     25790     25784     25785     25827     25829
     25827     25830     25830     25834     25827     25828     25834     25835
     25834     25836     25834     25837     25837     25838     25837     25839
     25837     25840     25840     25841     25840     25842     25840     25831
     25831     25832     25831     25833     25831     25843     25843     25844
     25843     25845     25845     25846     25843     25847     25847     25850
     25850     25851     25847     25848     25847     25849     25830     25833
     25852     25854     25852     25855     25855     25859     25852     25853
     25859     25860     25859     25861     25859     25862     25862     25863
     25862     25864     25864     25865     25862     25866     25866     25867
     25866     25868     25868     25869     25866     25856     25856     25857
     25856     25858     25856     25870     25870     25871     25870     25872
     25872     25873     25870     25874     25874     25877     25877     25878
     25874     25875     25874     25876     25855     25858     25879     25880
     25879     25883     25879     25884     25884     25885     25884     25886
     25886     25887     25884     25888     25888     25889     25888     25890
     25888     25891     25891     25892     25891     25893     25891     25881
     25881     25882     25881     25898     25898     25899     25898     25902
     25898     25900     25900     25901     25881     25883     25902     25903
     25902     25904     25902     25905     25905     25906     25907     25908
     25907     25911     25907     25912     25912     25913     25912     25914
     25914     25915     25912     25916     25916     25917     25916     25918
     25916     25919     25919     25920     25919     25921     25919     25909
     25909     25910     25909     25926     25926     25927     25926     25930
     25926     25928     25928     25929     25909     25911     25930     25931
     25930     25932     25930     25933     25934     25935     25934     25938
     25934     25939     25939     25940     25939     25941     25941     25942
     25939     25943     25943     25944     25943     25945     25945     25946
     25943     25947     25947     25948     25947     25949     25949     25950
     25947     25936     25936     25937     25936     25951     25951     25952
     25951     25955     25951     25953     25953     25954     25936     25938
     25955     25956     25955     25957     25955     25958     25958     25959
     25960     25961     25960     25964     25960     25965     25965     25966
     25965     25967     25967     25968     25965     25969     25969     25970
     25969     25971     25969     25972     25972     25973     25972     25974
     25974     25975     25972     25962     25962     25963     25962     25976
     25976     25977     25976     25978     25976     25979     25979     25980
     25962     25964     25981     25982     25981     25985     25981     25986
     25986     25987     25986     25988     25986     25989     25989     25990
     25989     25991     25989     25992     25992     25993     25992     25994
     25994     25995     25992     25983     25983     25984     25983     25996
     25996     25997     25996     25998     25996     25999     25999     26000
     25983     25985     26001     26002     26001     26005     26001     26006
     26006     26007     26006     26008     26006     26009     26009     26010
     26009     26011     26011     26012     26009     26013     26013     26014
     26013     26015     26015     26016     26013     26003     26003     26004
     26003     26017     26017     26018     26017     26019     26017     26020
     26020     26021     26003     26005     26022     26023     26022     26026
     26022     26027     26027     26028     26027     26029     26029     26030
     26027     26031     26031     26032     26031     26033     26033     26034
     26031     26035     26035     26036     26035     26037     26037     26038
     26035     26024     26024     26025     26024     26039     26039     26040
     26039     26041     26039     26042     26042     26043     26024     26026
     26044     26045     26044     26048     26044     26049     26049     26050
     26049     26051     26051     26052     26049     26053     26053     26054
     26053     26055     26053     26056     26056     26057     26056     26058
     26058     26059     26056     26046     26046     26047     26046     26060
     26060     26061     26060     26062     26060     26063     26063     26064
     26046     26048     25839     25855     25842     25879     25890     25907
     25933     25934     25918     25960     25971     25981     25988     26001
     26008     26022     25991     26044     25893     25894     25895     25894
     25896     25894     25897     25894     25921     25922     25923     25922
     25924     25922     25925     25922     25532     25830     26065     26066
     26065     26069     26065     26070     26070     26071     26070     26072
     26072     26073     26070     26080     26080     26081     26080     26082
     26080     26083     26083     26084     26083     26085     26085     26086
     26083     26067     26067     26068     26067     26087     26087     26088
     26087     26089     26087     26090     26090     26091     26067     26069
     26072     26074     26074     26075     26074     26076     26076     26077
     26076     26078     26076     26079     26092     26093     26092     26096
     26092     26097     26097     26098     26097     26099     26097     26100
     26100     26101     26100     26102     26102     26103     26100     26104
     26104     26105     26104     26106     26106     26107     26104     26094
     26094     26095     26094     26108     26108     26109     26108     26110
     26108     26111     26111     26112     26094     26096     26113     26114
     26113     26117     26113     26118     26118     26119     26118     26120
     26118     26121     26121     26122     26121     26123     26123     26124
     26121     26125     26125     26126     26125     26127     26127     26128
     26125     26115     26115     26116     26115     26129     26129     26130
     26129     26131     26129     26132     26115     26117     26133     26134
     26133     26137     26133     26138     26138     26139     26138     26140
     26138     26141     26141     26142     26141     26143     26141     26144
     26144     26145     26144     26146     26146     26147     26144     26135
     26135     26136     26135     26148     26148     26149     26148     26150
     26148     26151     26135     26137     26152     26153     26152     26156
     26152     26157     26157     26158     26157     26159     26159     26160
     26157     26167     26167     26168     26167     26169     26169     26170
     26167     26171     26171     26172     26171     26173     26173     26174
     26171     26154     26154     26155     26154     26175     26175     26176
     26175     26177     26175     26178     26178     26179     26154     26156
     26159     26161     26161     26162     26161     26163     26163     26164
     26163     26165     26163     26166     26082     26092     26099     26113
     26120     26133     26140     26152     26180     26181     26180     26184
     26180     26185     26185     26186     26185     26187     26187     26188
     26185     26195     26195     26196     26195     26197     26195     26198
     26198     26199     26198     26200     26200     26201     26198     26182
     26182     26183     26182     26202     26202     26203     26202     26204
     26202     26205     26205     26206     26182     26184     26187     26189
     26189     26190     26189     26191     26191     26192     26191     26193
     26191     26194     26207     26208     26207     26211     26207     26212
     26212     26213     26212     26214     26212     26215     26215     26216
     26215     26217     26217     26218     26215     26219     26219     26220
     26219     26221     26221     26222     26219     26209     26209     26210
     26209     26223     26223     26224     26223     26225     26223     26226
     26226     26227     26209     26211     26228     26229     26228     26232
     26228     26233     26233     26234     26233     26235     26233     26236
     26236     26237     26236     26238     26238     26239     26236     26240
     26240     26241     26240     26242     26242     26243     26240     26230
     26230     26231     26230     26244     26244     26245     26244     26246
     26244     26247     26230     26232     26248     26249     26248     26252
     26248     26253     26253     26254     26253     26255     26253     26256
     26256     26257     26256     26258     26256     26259     26259     26260
     26259     26261     26261     26262     26259     26250     26250     26251
     26250     26263     26263     26264     26263     26265     26263     26266
     26250     26252     26267     26268     26267     26271     26267     26272
     26272     26273     26272     26274     26274     26275     26272     26282
     26282     26283     26282     26284     26284     26285     26282     26286
     26286     26287     26286     26288     26288     26289     26286     26269
     26269     26270     26269     26290     26290     26291     26290     26292
     26290     26293     26293     26294     26269     26271     26274     26276
     26276     26277     26276     26278     26278     26279     26278     26280
     26278     26281     26197     26207     26214     26228     26235     26248
     26255     26267     26143     26180     26295     26296     26295     26299
     26295     26300     26300     26301     26300     26302     26302     26303
     26300     26310     26310     26311     26310     26312     26310     26313
     26313     26314     26313     26315     26315     26316     26313     26297
     26297     26298     26297     26317     26317     26318     26317     26319
     26317     26320     26320     26321     26297     26299     26302     26304
     26304     26305     26304     26306     26306     26307     26306     26308
     26306     26309     26322     26323     26322     26326     26322     26327
     26327     26328     26327     26329     26327     26330     26330     26331
     26330     26332     26332     26333     26330     26334     26334     26335
     26334     26336     26336     26337     26334     26324     26324     26325
     26324     26338     26338     26339     26338     26340     26338     26341
     26341     26342     26324     26326     26343     26344     26343     26347
     26343     26348     26348     26349     26348     26350     26348     26351
     26351     26352     26351     26353     26353     26354     26351     26355
     26355     26356     26355     26357     26357     26358     26355     26345
     26345     26346     26345     26359     26359     26360     26359     26361
     26359     26362     26345     26347     26363     26364     26363     26367
     26363     26368     26368     26369     26368     26370     26368     26371
     26371     26372     26371     26373     26371     26374     26374     26375
     26374     26376     26376     26377     26374     26365     26365     26366
     26365     26378     26378     26379     26378     26380     26378     26381
     26365     26367     26382     26383     26382     26386     26382     26387
     26387     26388     26387     26389     26389     26390     26387     26397
     26397     26398     26397     26399     26399     26400     26397     26401
     26401     26402     26401     26403     26403     26404     26401     26384
     26384     26385     26384     26405     26405     26406     26405     26407
     26405     26408     26408     26409     26384     26386     26389     26391
     26391     26392     26391     26393     26393     26394     26393     26395
     26393     26396     26312     26322     26329     26343     26350     26363
     26370     26382     26258     26295     26410     26411     26410     26414
     26410     26415     26415     26416     26415     26417     26417     26418
     26415     26425     26425     26426     26425     26427     26425     26428
     26428     26429     26428     26430     26430     26431     26428     26412
     26412     26413     26412     26432     26432     26433     26432     26434
     26432     26435     26435     26436     26412     26414     26417     26419
     26419     26420     26419     26421     26421     26422     26421     26423
     26421     26424     26437     26438     26437     26441     26437     26442
     26442     26443     26442     26444     26442     26445     26445     26446
     26445     26447     26447     26448     26445     26449     26449     26450
     26449     26451     26451     26452     26449     26439     26439     26440
     26439     26453     26453     26454     26453     26455     26453     26456
     26456     26457     26439     26441     26458     26459     26458     26462
     26458     26463     26463     26464     26463     26465     26463     26466
     26466     26467     26466     26468     26468     26469     26466     26470
     26470     26471     26470     26472     26472     26473     26470     26460
     26460     26461     26460     26474     26474     26475     26474     26476
     26474     26477     26460     26462     26478     26479     26478     26482
     26478     26483     26483     26484     26483     26485     26483     26486
     26486     26487     26486     26488     26486     26489     26489     26490
     26489     26491     26491     26492     26489     26480     26480     26481
     26480     26493     26493     26494     26493     26495     26493     26496
     26480     26482     26497     26498     26497     26501     26497     26502
     26502     26503     26502     26504     26504     26505     26502     26512
     26512     26513     26512     26514     26514     26515     26512     26516
     26516     26517     26516     26518     26518     26519     26516     26499
     26499     26500     26499     26520     26520     26521     26520     26522
     26520     26523     26523     26524     26499     26501     26504     26506
     26506     26507     26506     26508     26508     26509     26508     26510
     26508     26511     26427     26437     26444     26458     26465     26478
     26485     26497     26373     26410     26525     26526     26525     26529
     26525     26530     26530     26531     26530     26532     26532     26533
     26530     26540     26540     26541     26540     26542     26540     26543
     26543     26544     26543     26545     26545     26546     26543     26527
     26527     26528     26527     26547     26547     26548     26547     26549
     26547     26550     26550     26551     26527     26529     26532     26534
     26534     26535     26534     26536     26536     26537     26536     26538
     26536     26539     26552     26553     26552     26556     26552     26557
     26557     26558     26557     26559     26557     26560     26560     26561
     26560     26562     26562     26563     26560     26564     26564     26565
     26564     26566     26566     26567     26564     26554     26554     26555
     26554     26568     26568     26569     26568     26570     26568     26571
     26571     26572     26554     26556     26573     26574     26573     26577
     26573     26578     26578     26579     26578     26580     26578     26581
     26581     26582     26581     26583     26583     26584     26581     26585
     26585     26586     26585     26587     26587     26588     26585     26575
     26575     26576     26575     26589     26589     26590     26589     26591
     26589     26592     26575     26577     26593     26594     26593     26597
     26593     26598     26598     26599     26598     26600     26598     26601
     26601     26602     26601     26603     26603     26604     26601     26605
     26605     26606     26605     26607     26607     26608     26605     26595
     26595     26596     26595     26609     26609     26610     26609     26611
     26609     26612     26595     26597     26613     26614     26613     26617
     26613     26618     26618     26619     26618     26620     26620     26621
     26618     26628     26628     26629     26628     26630     26630     26631
     26628     26632     26632     26633     26632     26634     26634     26635
     26632     26615     26615     26616     26615     26636     26636     26637
     26636     26638     26636     26639     26639     26640     26615     26617
     26620     26622     26622     26623     26622     26624     26624     26625
     26624     26626     26624     26627     26542     26552     26559     26573
     26580     26593     26600     26613     26488     26525     26055     26065
     26666     26667     26666     26668     26666     26699     26699     26700
     26699     26701     26702     26701     26702     26704     26704     26705
     26704     26706     26703     26702     26704     26707     26707     26708
     26707     26709     26707     26710     26710     26711     26710     26713
     26713     26714     26713     26715     26713     26716     26716     26717
     26710     26712     26716     26718     26716     26719     26719     26720
     26719     26721     26719     26722     26722     26723     26722     26724
     26722     26725     26725     26726     26725     26727     26725     26728
     26728     26729     26728     26730     26728     26731     26731     26732
     26731     26733     26731     26734     26734     26735     26734     26736
     26734     26737     26737     26738     26737     26739     26737     26740
     26740     26741     26740     26742     26740     26743     26699     26744
     26744     26745     26744     26746     26744     26747     26747     26748
     26747     26749     26747     26750     26750     26751     26750     26752
     26750     26753     26753     26754     26753     26755     26753     26756
     26756     26757     26756     26758     26756     26759     26759     26760
     26759     26761     26759     26762     26762     26763     26762     26764
     26762     26765     26765     26766     26765     26767     26765     26768
     26768     26769     26768     26770     26768     26771     26771     26772
     26771     26773     26771     26774     26774     26775     26774     26776
     26774     26777     26780     26781     26780     26782     26780     26783
     26783     26784     26783     26785     26787     26786     26785     26786
     26786     26788     26788     26789     26788     26790     26788     26791
     26791     26792     26791     26793     26791     26794     26794     26795
     26794     26796     26794     26797     26797     26798     26797     26799
     26797     26800     26800     26801     26800     26802     26800     26803
     26803     26804     26803     26805     26803     26806     26806     26807
     26806     26808     26806     26809     26809     26810     26809     26811
     26809     26812     26812     26813     26812     26814     26812     26815
     26815     26816     26815     26817     26815     26818     26818     26819
     26818     26820     26818     26821     26783     26822     26822     26823
     26822     26824     26822     26825     26825     26826     26825     26827
     26825     26828     26828     26829     26828     26830     26828     26831
     26831     26832     26831     26833     26831     26834     26834     26835
     26834     26836     26834     26837     26837     26838     26837     26839
     26837     26840     26840     26841     26840     26842     26840     26843
     26843     26844     26843     26845     26843     26846     26846     26847
     26846     26848     26846     26849     26849     26850     26849     26851
     26849     26852     26852     26853     26852     26854     26852     26855
     26690     26691     26690     26692     26692     26693     26692     26694
     26692     26856     26856     26857     26856     26858     26858     26859
     26856     26860     26860     26861     26860     26862     26860     26863
     26863     26864     26863     26865     26863     26866     26866     26867
     26866     26868     26866     26869     26869     26870     26869     26871
     26869     26872     26872     26873     26872     26874     26872     26875
     26875     26876     26875     26877     26875     26878     26878     26879
     26878     26880     26878     26881     26881     26882     26881     26883
     26881     26884     26884     26885     26884     26886     26884     26887
     26887     26888     26887     26889     26887     26890     26890     26891
     26890     26892     26890     26893     26899     26901     26901     26902
     26899     26903     26903     26904     26903     26905     26903     26906
     26906     26907     26906     26908     26906     26909     26909     26910
     26909     26911     26909     26912     26912     26913     26912     26914
     26912     26915     26915     26916     26915     26917     26915     26918
     26918     26919     26918     26920     26918     26921     26921     26922
     26921     26923     26921     26924     26924     26925     26924     26926
     26924     26927     26927     26928     26927     26929     26927     26930
     26930     26931     26930     26932     26930     26933     26933     26934
     26933     26935     26933     26936     26657     26658     26657     26659
     26657     26660     26657     26656     26656     26654     26654     26655
     26654     26645     26645     26647     26645     26643     26643     26644
     26643     26641     26643     26642     26645     26646     26646     26648
     26648     26649     26648     26669     26669     26670     26669     26671
     26671     26672     26671     26778     26778     26780     26669     26661
     26661     26663     26661     26654     26778     26779     26664     26665
     26661     26662     26662     26664     26664     26666     26648     26650
     26651     26650     26651     26652     26651     26653     26651     26677
     26677     26678     26677     26673     26673     26674     26673     26675
     26675     26676     26673     26687     26687     26688     26687     26689
     26689     26690     26687     26695     26695     26696     26695     26697
     26697     26698     26697     26894     26894     26896     26896     26897
     26896     26898     26896     26899     26695     26680     26680     26681
     26680     26679     26680     26682     26682     26686     26686     26683
     26686     26684     26686     26685     26679     26677     26899     26900
     26894     26895     26937     26939     26937     26940     26940     26944
     26937     26938     26944     26945     26944     26946     26944     26947
     26947     26948     26947     26949     26947     26950     26950     26951
     26950     26952     26950     26941     26941     26942     26941     26943
     26941     26953     26953     26954     26953     26955     26955     26956
     26953     26957     26957     26960     26960     26961     26957     26958
     26957     26959     26940     26943     26962     26964     26962     26965
     26965     26969     26962     26963     26969     26970     26969     26971
     26969     26972     26972     26973     26972     26974     26974     26975
     26972     26976     26976     26977     26976     26978     26978     26979
     26976     26966     26966     26967     26966     26968     26966     26980
     26980     26981     26980     26982     26982     26983     26980     26984
     26984     26987     26987     26988     26984     26985     26984     26986
     26965     26968     26989     26990     26989     26993     26989     26994
     26994     26995     26994     26996     26996     26997     26994     26998
     26998     26999     26998     27000     26998     27001     27001     27002
     27001     27003     27001     26991     26991     26992     26991     27008
     27008     27009     27008     27012     27008     27010     27010     27011
     26991     26993     27012     27013     27012     27014     27012     27015
     27015     27016     27017     27018     27017     27021     27017     27022
     27022     27023     27022     27024     27024     27025     27022     27026
     27026     27027     27026     27028     27026     27029     27029     27030
     27029     27031     27029     27019     27019     27020     27019     27036
     27036     27037     27036     27040     27036     27038     27038     27039
     27019     27021     27040     27041     27040     27042     27040     27043
     27044     27045     27044     27048     27044     27049     27049     27050
     27049     27051     27051     27052     27049     27053     27053     27054
     27053     27055     27055     27056     27053     27057     27057     27058
     27057     27059     27059     27060     27057     27046     27046     27047
     27046     27061     27061     27062     27061     27065     27061     27063
     27063     27064     27046     27048     27065     27066     27065     27067
     27065     27068     27068     27069     27070     27071     27070     27074
     27070     27075     27075     27076     27075     27077     27077     27078
     27075     27079     27079     27080     27079     27081     27079     27082
     27082     27083     27082     27084     27084     27085     27082     27072
     27072     27073     27072     27086     27086     27087     27086     27088
     27086     27089     27089     27090     27072     27074     27091     27092
     27091     27095     27091     27096     27096     27097     27096     27098
     27096     27099     27099     27100     27099     27101     27099     27102
     27102     27103     27102     27104     27104     27105     27102     27093
     27093     27094     27093     27106     27106     27107     27106     27108
     27106     27109     27109     27110     27093     27095     27111     27112
     27111     27115     27111     27116     27116     27117     27116     27118
     27116     27119     27119     27120     27119     27121     27121     27122
     27119     27123     27123     27124     27123     27125     27125     27126
     27123     27113     27113     27114     27113     27127     27127     27128
     27127     27129     27127     27130     27130     27131     27113     27115
     27132     27133     27132     27136     27132     27137     27137     27138
     27137     27139     27139     27140     27137     27141     27141     27142
     27141     27143     27143     27144     27141     27145     27145     27146
     27145     27147     27147     27148     27145     27134     27134     27135
     27134     27149     27149     27150     27149     27151     27149     27152
     27152     27153     27134     27136     27154     27155     27154     27158
     27154     27159     27159     27160     27159     27161     27161     27162
     27159     27163     27163     27164     27163     27165     27163     27166
     27166     27167     27166     27168     27168     27169     27166     27156
     27156     27157     27156     27170     27170     27171     27170     27172
     27170     27173     27173     27174     27156     27158     26949     26965
     26952     26989     27000     27017     27043     27044     27028     27070
     27081     27091     27098     27111     27118     27132     27101     27154
     27003     27004     27005     27004     27006     27004     27007     27004
     27031     27032     27033     27032     27034     27032     27035     27032
     26642     26940     27175     27176     27175     27179     27175     27180
     27180     27181     27180     27182     27182     27183     27180     27190
     27190     27191     27190     27192     27190     27193     27193     27194
     27193     27195     27195     27196     27193     27177     27177     27178
     27177     27197     27197     27198     27197     27199     27197     27200
     27200     27201     27177     27179     27182     27184     27184     27185
     27184     27186     27186     27187     27186     27188     27186     27189
     27202     27203     27202     27206     27202     27207     27207     27208
     27207     27209     27207     27210     27210     27211     27210     27212
     27212     27213     27210     27214     27214     27215     27214     27216
     27216     27217     27214     27204     27204     27205     27204     27218
     27218     27219     27218     27220     27218     27221     27221     27222
     27204     27206     27223     27224     27223     27227     27223     27228
     27228     27229     27228     27230     27228     27231     27231     27232
     27231     27233     27233     27234     27231     27235     27235     27236
     27235     27237     27237     27238     27235     27225     27225     27226
     27225     27239     27239     27240     27239     27241     27239     27242
     27225     27227     27243     27244     27243     27247     27243     27248
     27248     27249     27248     27250     27248     27251     27251     27252
     27251     27253     27251     27254     27254     27255     27254     27256
     27256     27257     27254     27245     27245     27246     27245     27258
     27258     27259     27258     27260     27258     27261     27245     27247
     27262     27263     27262     27266     27262     27267     27267     27268
     27267     27269     27269     27270     27267     27277     27277     27278
     27277     27279     27279     27280     27277     27281     27281     27282
     27281     27283     27283     27284     27281     27264     27264     27265
     27264     27285     27285     27286     27285     27287     27285     27288
     27288     27289     27264     27266     27269     27271     27271     27272
     27271     27273     27273     27274     27273     27275     27273     27276
     27192     27202     27209     27223     27230     27243     27250     27262
     27290     27291     27290     27294     27290     27295     27295     27296
     27295     27297     27297     27298     27295     27305     27305     27306
     27305     27307     27305     27308     27308     27309     27308     27310
     27310     27311     27308     27292     27292     27293     27292     27312
     27312     27313     27312     27314     27312     27315     27315     27316
     27292     27294     27297     27299     27299     27300     27299     27301
     27301     27302     27301     27303     27301     27304     27317     27318
     27317     27321     27317     27322     27322     27323     27322     27324
     27322     27325     27325     27326     27325     27327     27327     27328
     27325     27329     27329     27330     27329     27331     27331     27332
     27329     27319     27319     27320     27319     27333     27333     27334
     27333     27335     27333     27336     27336     27337     27319     27321
     27338     27339     27338     27342     27338     27343     27343     27344
     27343     27345     27343     27346     27346     27347     27346     27348
     27348     27349     27346     27350     27350     27351     27350     27352
     27352     27353     27350     27340     27340     27341     27340     27354
     27354     27355     27354     27356     27354     27357     27340     27342
     27358     27359     27358     27362     27358     27363     27363     27364
     27363     27365     27363     27366     27366     27367     27366     27368
     27366     27369     27369     27370     27369     27371     27371     27372
     27369     27360     27360     27361     27360     27373     27373     27374
     27373     27375     27373     27376     27360     27362     27377     27378
     27377     27381     27377     27382     27382     27383     27382     27384
     27384     27385     27382     27392     27392     27393     27392     27394
     27394     27395     27392     27396     27396     27397     27396     27398
     27398     27399     27396     27379     27379     27380     27379     27400
     27400     27401     27400     27402     27400     27403     27403     27404
     27379     27381     27384     27386     27386     27387     27386     27388
     27388     27389     27388     27390     27388     27391     27307     27317
     27324     27338     27345     27358     27365     27377     27253     27290
     27405     27406     27405     27409     27405     27410     27410     27411
     27410     27412     27412     27413     27410     27420     27420     27421
     27420     27422     27420     27423     27423     27424     27423     27425
     27425     27426     27423     27407     27407     27408     27407     27427
     27427     27428     27427     27429     27427     27430     27430     27431
     27407     27409     27412     27414     27414     27415     27414     27416
     27416     27417     27416     27418     27416     27419     27432     27433
     27432     27436     27432     27437     27437     27438     27437     27439
     27437     27440     27440     27441     27440     27442     27442     27443
     27440     27444     27444     27445     27444     27446     27446     27447
     27444     27434     27434     27435     27434     27448     27448     27449
     27448     27450     27448     27451     27451     27452     27434     27436
     27453     27454     27453     27457     27453     27458     27458     27459
     27458     27460     27458     27461     27461     27462     27461     27463
     27463     27464     27461     27465     27465     27466     27465     27467
     27467     27468     27465     27455     27455     27456     27455     27469
     27469     27470     27469     27471     27469     27472     27455     27457
     27473     27474     27473     27477     27473     27478     27478     27479
     27478     27480     27478     27481     27481     27482     27481     27483
     27481     27484     27484     27485     27484     27486     27486     27487
     27484     27475     27475     27476     27475     27488     27488     27489
     27488     27490     27488     27491     27475     27477     27492     27493
     27492     27496     27492     27497     27497     27498     27497     27499
     27499     27500     27497     27507     27507     27508     27507     27509
     27509     27510     27507     27511     27511     27512     27511     27513
     27513     27514     27511     27494     27494     27495     27494     27515
     27515     27516     27515     27517     27515     27518     27518     27519
     27494     27496     27499     27501     27501     27502     27501     27503
     27503     27504     27503     27505     27503     27506     27422     27432
     27439     27453     27460     27473     27480     27492     27368     27405
     27520     27521     27520     27524     27520     27525     27525     27526
     27525     27527     27527     27528     27525     27535     27535     27536
     27535     27537     27535     27538     27538     27539     27538     27540
     27540     27541     27538     27522     27522     27523     27522     27542
     27542     27543     27542     27544     27542     27545     27545     27546
     27522     27524     27527     27529     27529     27530     27529     27531
     27531     27532     27531     27533     27531     27534     27547     27548
     27547     27551     27547     27552     27552     27553     27552     27554
     27552     27555     27555     27556     27555     27557     27557     27558
     27555     27559     27559     27560     27559     27561     27561     27562
     27559     27549     27549     27550     27549     27563     27563     27564
     27563     27565     27563     27566     27566     27567     27549     27551
     27568     27569     27568     27572     27568     27573     27573     27574
     27573     27575     27573     27576     27576     27577     27576     27578
     27578     27579     27576     27580     27580     27581     27580     27582
     27582     27583     27580     27570     27570     27571     27570     27584
     27584     27585     27584     27586     27584     27587     27570     27572
     27588     27589     27588     27592     27588     27593     27593     27594
     27593     27595     27593     27596     27596     27597     27596     27598
     27596     27599     27599     27600     27599     27601     27601     27602
     27599     27590     27590     27591     27590     27603     27603     27604
     27603     27605     27603     27606     27590     27592     27607     27608
     27607     27611     27607     27612     27612     27613     27612     27614
     27614     27615     27612     27622     27622     27623     27622     27624
     27624     27625     27622     27626     27626     27627     27626     27628
     27628     27629     27626     27609     27609     27610     27609     27630
     27630     27631     27630     27632     27630     27633     27633     27634
     27609     27611     27614     27616     27616     27617     27616     27618
     27618     27619     27618     27620     27618     27621     27537     27547
     27554     27568     27575     27588     27595     27607     27483     27520
     27635     27636     27635     27639     27635     27640     27640     27641
     27640     27642     27642     27643     27640     27650     27650     27651
     27650     27652     27650     27653     27653     27654     27653     27655
     27655     27656     27653     27637     27637     27638     27637     27657
     27657     27658     27657     27659     27657     27660     27660     27661
     27637     27639     27642     27644     27644     27645     27644     27646
     27646     27647     27646     27648     27646     27649     27662     27663
     27662     27666     27662     27667     27667     27668     27667     27669
     27667     27670     27670     27671     27670     27672     27672     27673
     27670     27674     27674     27675     27674     27676     27676     27677
     27674     27664     27664     27665     27664     27678     27678     27679
     27678     27680     27678     27681     27681     27682     27664     27666
     27683     27684     27683     27687     27683     27688     27688     27689
     27688     27690     27688     27691     27691     27692     27691     27693
     27693     27694     27691     27695     27695     27696     27695     27697
     27697     27698     27695     27685     27685     27686     27685     27699
     27699     27700     27699     27701     27699     27702     27685     27687
     27703     27704     27703     27707     27703     27708     27708     27709
     27708     27710     27708     27711     27711     27712     27711     27713
     27713     27714     27711     27715     27715     27716     27715     27717
     27717     27718     27715     27705     27705     27706     27705     27719
     27719     27720     27719     27721     27719     27722     27705     27707
     27723     27724     27723     27727     27723     27728     27728     27729
     27728     27730     27730     27731     27728     27738     27738     27739
     27738     27740     27740     27741     27738     27742     27742     27743
     27742     27744     27744     27745     27742     27725     27725     27726
     27725     27746     27746     27747     27746     27748     27746     27749
     27749     27750     27725     27727     27730     27732     27732     27733
     27732     27734     27734     27735     27734     27736     27734     27737
     27652     27662     27669     27683     27690     27703     27710     27723
     27598     27635     27165     27175     27776     27777     27776     27778
     27776     27809     27809     27810     27809     27811     27812     27811
     27812     27814     27814     27815     27814     27816     27813     27812
     27814     27817     27817     27818     27817     27819     27817     27820
     27820     27821     27820     27823     27823     27824     27823     27825
     27823     27826     27826     27827     27820     27822     27826     27828
     27826     27829     27829     27830     27829     27831     27829     27832
     27832     27833     27832     27834     27832     27835     27835     27836
     27835     27837     27835     27838     27838     27839     27838     27840
     27838     27841     27841     27842     27841     27843     27841     27844
     27844     27845     27844     27846     27844     27847     27847     27848
     27847     27849     27847     27850     27850     27851     27850     27852
     27850     27853     27809     27854     27854     27855     27854     27856
     27854     27857     27857     27858     27857     27859     27857     27860
     27860     27861     27860     27862     27860     27863     27863     27864
     27863     27865     27863     27866     27866     27867     27866     27868
     27866     27869     27869     27870     27869     27871     27869     27872
     27872     27873     27872     27874     27872     27875     27875     27876
     27875     27877     27875     27878     27878     27879     27878     27880
     27878     27881     27881     27882     27881     27883     27881     27884
     27884     27885     27884     27886     27884     27887     27890     27891
     27890     27892     27890     27893     27893     27894     27893     27895
     27897     27896     27895     27896     27896     27898     27898     27899
     27898     27900     27898     27901     27901     27902     27901     27903
     27901     27904     27904     27905     27904     27906     27904     27907
     27907     27908     27907     27909     27907     27910     27910     27911
     27910     27912     27910     27913     27913     27914     27913     27915
     27913     27916     27916     27917     27916     27918     27916     27919
     27919     27920     27919     27921     27919     27922     27922     27923
     27922     27924     27922     27925     27925     27926     27925     27927
     27925     27928     27928     27929     27928     27930     27928     27931
     27893     27932     27932     27933     27932     27934     27932     27935
     27935     27936     27935     27937     27935     27938     27938     27939
     27938     27940     27938     27941     27941     27942     27941     27943
     27941     27944     27944     27945     27944     27946     27944     27947
     27947     27948     27947     27949     27947     27950     27950     27951
     27950     27952     27950     27953     27953     27954     27953     27955
     27953     27956     27956     27957     27956     27958     27956     27959
     27959     27960     27959     27961     27959     27962     27962     27963
     27962     27964     27962     27965     27800     27801     27800     27802
     27802     27803     27802     27804     27802     27966     27966     27967
     27966     27968     27968     27969     27966     27970     27970     27971
     27970     27972     27970     27973     27973     27974     27973     27975
     27973     27976     27976     27977     27976     27978     27976     27979
     27979     27980     27979     27981     27979     27982     27982     27983
     27982     27984     27982     27985     27985     27986     27985     27987
     27985     27988     27988     27989     27988     27990     27988     27991
     27991     27992     27991     27993     27991     27994     27994     27995
     27994     27996     27994     27997     27997     27998     27997     27999
     27997     28000     28000     28001     28000     28002     28000     28003
     28009     28011     28011     28012     28009     28013     28013     28014
     28013     28015     28013     28016     28016     28017     28016     28018
     28016     28019     28019     28020     28019     28021     28019     28022
     28022     28023     28022     28024     28022     28025     28025     28026
     28025     28027     28025     28028     28028     28029     28028     28030
     28028     28031     28031     28032     28031     28033     28031     28034
     28034     28035     28034     28036     28034     28037     28037     28038
     28037     28039     28037     28040     28040     28041     28040     28042
     28040     28043     28043     28044     28043     28045     28043     28046
     27767     27768     27767     27769     27767     27770     27767     27766
     27766     27764     27764     27765     27764     27755     27755     27757
     27755     27753     27753     27754     27753     27751     27753     27752
     27755     27756     27756     27758     27758     27759     27758     27779
     27779     27780     27779     27781     27781     27782     27781     27888
     27888     27890     27779     27771     27771     27773     27771     27764
     27888     27889     27774     27775     27771     27772     27772     27774
     27774     27776     27758     27760     27761     27760     27761     27762
     27761     27763     27761     27787     27787     27788     27787     27783
     27783     27784     27783     27785     27785     27786     27783     27797
     27797     27798     27797     27799     27799     27800     27797     27805
     27805     27806     27805     27807     27807     27808     27807     28004
     28004     28006     28006     28007     28006     28008     28006     28009
     27805     27790     27790     27791     27790     27789     27790     27792
     27792     27796     27796     27793     27796     27794     27796     27795
     27789     27787     28009     28010     28004     28005     28047     28049
     28047     28050     28050     28054     28047     28048     28054     28055
     28054     28056     28054     28057     28057     28058     28057     28059
     28057     28060     28060     28061     28060     28062     28060     28051
     28051     28052     28051     28053     28051     28063     28063     28064
     28063     28065     28065     28066     28063     28067     28067     28070
     28070     28071     28067     28068     28067     28069     28050     28053
     28072     28074     28072     28075     28075     28079     28072     28073
     28079     28080     28079     28081     28079     28082     28082     28083
     28082     28084     28084     28085     28082     28086     28086     28087
     28086     28088     28088     28089     28086     28076     28076     28077
     28076     28078     28076     28090     28090     28091     28090     28092
     28092     28093     28090     28094     28094     28097     28097     28098
     28094     28095     28094     28096     28075     28078     28099     28100
     28099     28103     28099     28104     28104     28105     28104     28106
     28106     28107     28104     28108     28108     28109     28108     28110
     28108     28111     28111     28112     28111     28113     28111     28101
     28101     28102     28101     28118     28118     28119     28118     28122
     28118     28120     28120     28121     28101     28103     28122     28123
     28122     28124     28122     28125     28125     28126     28127     28128
     28127     28131     28127     28132     28132     28133     28132     28134
     28134     28135     28132     28136     28136     28137     28136     28138
     28136     28139     28139     28140     28139     28141     28139     28129
     28129     28130     28129     28146     28146     28147     28146     28150
     28146     28148     28148     28149     28129     28131     28150     28151
     28150     28152     28150     28153     28154     28155     28154     28158
     28154     28159     28159     28160     28159     28161     28161     28162
     28159     28163     28163     28164     28163     28165     28165     28166
     28163     28167     28167     28168     28167     28169     28169     28170
     28167     28156     28156     28157     28156     28171     28171     28172
     28171     28175     28171     28173     28173     28174     28156     28158
     28175     28176     28175     28177     28175     28178     28178     28179
     28180     28181     28180     28184     28180     28185     28185     28186
     28185     28187     28187     28188     28185     28189     28189     28190
     28189     28191     28189     28192     28192     28193     28192     28194
     28194     28195     28192     28182     28182     28183     28182     28196
     28196     28197     28196     28198     28196     28199     28199     28200
     28182     28184     28201     28202     28201     28205     28201     28206
     28206     28207     28206     28208     28206     28209     28209     28210
     28209     28211     28209     28212     28212     28213     28212     28214
     28214     28215     28212     28203     28203     28204     28203     28216
     28216     28217     28216     28218     28216     28219     28219     28220
     28203     28205     28221     28222     28221     28225     28221     28226
     28226     28227     28226     28228     28226     28229     28229     28230
     28229     28231     28231     28232     28229     28233     28233     28234
     28233     28235     28235     28236     28233     28223     28223     28224
     28223     28237     28237     28238     28237     28239     28237     28240
     28240     28241     28223     28225     28242     28243     28242     28246
     28242     28247     28247     28248     28247     28249     28249     28250
     28247     28251     28251     28252     28251     28253     28253     28254
     28251     28255     28255     28256     28255     28257     28257     28258
     28255     28244     28244     28245     28244     28259     28259     28260
     28259     28261     28259     28262     28262     28263     28244     28246
     28264     28265     28264     28268     28264     28269     28269     28270
     28269     28271     28271     28272     28269     28273     28273     28274
     28273     28275     28273     28276     28276     28277     28276     28278
     28278     28279     28276     28266     28266     28267     28266     28280
     28280     28281     28280     28282     28280     28283     28283     28284
     28266     28268     28059     28075     28062     28099     28110     28127
     28153     28154     28138     28180     28191     28201     28208     28221
     28228     28242     28211     28264     28113     28114     28115     28114
     28116     28114     28117     28114     28141     28142     28143     28142
     28144     28142     28145     28142     27752     28050     28285     28286
     28285     28289     28285     28290     28290     28291     28290     28292
     28292     28293     28290     28300     28300     28301     28300     28302
     28300     28303     28303     28304     28303     28305     28305     28306
     28303     28287     28287     28288     28287     28307     28307     28308
     28307     28309     28307     28310     28310     28311     28287     28289
     28292     28294     28294     28295     28294     28296     28296     28297
     28296     28298     28296     28299     28312     28313     28312     28316
     28312     28317     28317     28318     28317     28319     28317     28320
     28320     28321     28320     28322     28322     28323     28320     28324
     28324     28325     28324     28326     28326     28327     28324     28314
     28314     28315     28314     28328     28328     28329     28328     28330
     28328     28331     28331     28332     28314     28316     28333     28334
     28333     28337     28333     28338     28338     28339     28338     28340
     28338     28341     28341     28342     28341     28343     28343     28344
     28341     28345     28345     28346     28345     28347     28347     28348
     28345     28335     28335     28336     28335     28349     28349     28350
     28349     28351     28349     28352     28335     28337     28353     28354
     28353     28357     28353     28358     28358     28359     28358     28360
     28358     28361     28361     28362     28361     28363     28361     28364
     28364     28365     28364     28366     28366     28367     28364     28355
     28355     28356     28355     28368     28368     28369     28368     28370
     28368     28371     28355     28357     28372     28373     28372     28376
     28372     28377     28377     28378     28377     28379     28379     28380
     28377     28387     28387     28388     28387     28389     28389     28390
     28387     28391     28391     28392     28391     28393     28393     28394
     28391     28374     28374     28375     28374     28395     28395     28396
     28395     28397     28395     28398     28398     28399     28374     28376
     28379     28381     28381     28382     28381     28383     28383     28384
     28383     28385     28383     28386     28302     28312     28319     28333
     28340     28353     28360     28372     28400     28401     28400     28404
     28400     28405     28405     28406     28405     28407     28407     28408
     28405     28415     28415     28416     28415     28417     28415     28418
     28418     28419     28418     28420     28420     28421     28418     28402
     28402     28403     28402     28422     28422     28423     28422     28424
     28422     28425     28425     28426     28402     28404     28407     28409
     28409     28410     28409     28411     28411     28412     28411     28413
     28411     28414     28427     28428     28427     28431     28427     28432
     28432     28433     28432     28434     28432     28435     28435     28436
     28435     28437     28437     28438     28435     28439     28439     28440
     28439     28441     28441     28442     28439     28429     28429     28430
     28429     28443     28443     28444     28443     28445     28443     28446
     28446     28447     28429     28431     28448     28449     28448     28452
     28448     28453     28453     28454     28453     28455     28453     28456
     28456     28457     28456     28458     28458     28459     28456     28460
     28460     28461     28460     28462     28462     28463     28460     28450
     28450     28451     28450     28464     28464     28465     28464     28466
     28464     28467     28450     28452     28468     28469     28468     28472
     28468     28473     28473     28474     28473     28475     28473     28476
     28476     28477     28476     28478     28476     28479     28479     28480
     28479     28481     28481     28482     28479     28470     28470     28471
     28470     28483     28483     28484     28483     28485     28483     28486
     28470     28472     28487     28488     28487     28491     28487     28492
     28492     28493     28492     28494     28494     28495     28492     28502
     28502     28503     28502     28504     28504     28505     28502     28506
     28506     28507     28506     28508     28508     28509     28506     28489
     28489     28490     28489     28510     28510     28511     28510     28512
     28510     28513     28513     28514     28489     28491     28494     28496
     28496     28497     28496     28498     28498     28499     28498     28500
     28498     28501     28417     28427     28434     28448     28455     28468
     28475     28487     28363     28400     28515     28516     28515     28519
     28515     28520     28520     28521     28520     28522     28522     28523
     28520     28530     28530     28531     28530     28532     28530     28533
     28533     28534     28533     28535     28535     28536     28533     28517
     28517     28518     28517     28537     28537     28538     28537     28539
     28537     28540     28540     28541     28517     28519     28522     28524
     28524     28525     28524     28526     28526     28527     28526     28528
     28526     28529     28542     28543     28542     28546     28542     28547
     28547     28548     28547     28549     28547     28550     28550     28551
     28550     28552     28552     28553     28550     28554     28554     28555
     28554     28556     28556     28557     28554     28544     28544     28545
     28544     28558     28558     28559     28558     28560     28558     28561
     28561     28562     28544     28546     28563     28564     28563     28567
     28563     28568     28568     28569     28568     28570     28568     28571
     28571     28572     28571     28573     28573     28574     28571     28575
     28575     28576     28575     28577     28577     28578     28575     28565
     28565     28566     28565     28579     28579     28580     28579     28581
     28579     28582     28565     28567     28583     28584     28583     28587
     28583     28588     28588     28589     28588     28590     28588     28591
     28591     28592     28591     28593     28591     28594     28594     28595
     28594     28596     28596     28597     28594     28585     28585     28586
     28585     28598     28598     28599     28598     28600     28598     28601
     28585     28587     28602     28603     28602     28606     28602     28607
     28607     28608     28607     28609     28609     28610     28607     28617
     28617     28618     28617     28619     28619     28620     28617     28621
     28621     28622     28621     28623     28623     28624     28621     28604
     28604     28605     28604     28625     28625     28626     28625     28627
     28625     28628     28628     28629     28604     28606     28609     28611
     28611     28612     28611     28613     28613     28614     28613     28615
     28613     28616     28532     28542     28549     28563     28570     28583
     28590     28602     28478     28515     28630     28631     28630     28634
     28630     28635     28635     28636     28635     28637     28637     28638
     28635     28645     28645     28646     28645     28647     28645     28648
     28648     28649     28648     28650     28650     28651     28648     28632
     28632     28633     28632     28652     28652     28653     28652     28654
     28652     28655     28655     28656     28632     28634     28637     28639
     28639     28640     28639     28641     28641     28642     28641     28643
     28641     28644     28657     28658     28657     28661     28657     28662
     28662     28663     28662     28664     28662     28665     28665     28666
     28665     28667     28667     28668     28665     28669     28669     28670
     28669     28671     28671     28672     28669     28659     28659     28660
     28659     28673     28673     28674     28673     28675     28673     28676
     28676     28677     28659     28661     28678     28679     28678     28682
     28678     28683     28683     28684     28683     28685     28683     28686
     28686     28687     28686     28688     28688     28689     28686     28690
     28690     28691     28690     28692     28692     28693     28690     28680
     28680     28681     28680     28694     28694     28695     28694     28696
     28694     28697     28680     28682     28698     28699     28698     28702
     28698     28703     28703     28704     28703     28705     28703     28706
     28706     28707     28706     28708     28706     28709     28709     28710
     28709     28711     28711     28712     28709     28700     28700     28701
     28700     28713     28713     28714     28713     28715     28713     28716
     28700     28702     28717     28718     28717     28721     28717     28722
     28722     28723     28722     28724     28724     28725     28722     28732
     28732     28733     28732     28734     28734     28735     28732     28736
     28736     28737     28736     28738     28738     28739     28736     28719
     28719     28720     28719     28740     28740     28741     28740     28742
     28740     28743     28743     28744     28719     28721     28724     28726
     28726     28727     28726     28728     28728     28729     28728     28730
     28728     28731     28647     28657     28664     28678     28685     28698
     28705     28717     28593     28630     28745     28746     28745     28749
     28745     28750     28750     28751     28750     28752     28752     28753
     28750     28760     28760     28761     28760     28762     28760     28763
     28763     28764     28763     28765     28765     28766     28763     28747
     28747     28748     28747     28767     28767     28768     28767     28769
     28767     28770     28770     28771     28747     28749     28752     28754
     28754     28755     28754     28756     28756     28757     28756     28758
     28756     28759     28772     28773     28772     28776     28772     28777
     28777     28778     28777     28779     28777     28780     28780     28781
     28780     28782     28782     28783     28780     28784     28784     28785
     28784     28786     28786     28787     28784     28774     28774     28775
     28774     28788     28788     28789     28788     28790     28788     28791
     28791     28792     28774     28776     28793     28794     28793     28797
     28793     28798     28798     28799     28798     28800     28798     28801
     28801     28802     28801     28803     28803     28804     28801     28805
     28805     28806     28805     28807     28807     28808     28805     28795
     28795     28796     28795     28809     28809     28810     28809     28811
     28809     28812     28795     28797     28813     28814     28813     28817
     28813     28818     28818     28819     28818     28820     28818     28821
     28821     28822     28821     28823     28823     28824     28821     28825
     28825     28826     28825     28827     28827     28828     28825     28815
     28815     28816     28815     28829     28829     28830     28829     28831
     28829     28832     28815     28817     28833     28834     28833     28837
     28833     28838     28838     28839     28838     28840     28840     28841
     28838     28848     28848     28849     28848     28850     28850     28851
     28848     28852     28852     28853     28852     28854     28854     28855
     28852     28835     28835     28836     28835     28856     28856     28857
     28856     28858     28856     28859     28859     28860     28835     28837
     28840     28842     28842     28843     28842     28844     28844     28845
     28844     28846     28844     28847     28762     28772     28779     28793
     28800     28813     28820     28833     28708     28745     28275     28285
     28886     28887     28886     28888     28886     28919     28919     28920
     28919     28921     28922     28921     28922     28924     28924     28925
     28924     28926     28923     28922     28924     28927     28927     28928
     28927     28929     28927     28930     28930     28931     28930     28933
     28933     28934     28933     28935     28933     28936     28936     28937
     28930     28932     28936     28938     28936     28939     28939     28940
     28939     28941     28939     28942     28942     28943     28942     28944
     28942     28945     28945     28946     28945     28947     28945     28948
     28948     28949     28948     28950     28948     28951     28951     28952
     28951     28953     28951     28954     28954     28955     28954     28956
     28954     28957     28957     28958     28957     28959     28957     28960
     28960     28961     28960     28962     28960     28963     28919     28964
     28964     28965     28964     28966     28964     28967     28967     28968
     28967     28969     28967     28970     28970     28971     28970     28972
     28970     28973     28973     28974     28973     28975     28973     28976
     28976     28977     28976     28978     28976     28979     28979     28980
     28979     28981     28979     28982     28982     28983     28982     28984
     28982     28985     28985     28986     28985     28987     28985     28988
     28988     28989     28988     28990     28988     28991     28991     28992
     28991     28993     28991     28994     28994     28995     28994     28996
     28994     28997     29000     29001     29000     29002     29000     29003
     29003     29004     29003     29005     29007     29006     29005     29006
     29006     29008     29008     29009     29008     29010     29008     29011
     29011     29012     29011     29013     29011     29014     29014     29015
     29014     29016     29014     29017     29017     29018     29017     29019
     29017     29020     29020     29021     29020     29022     29020     29023
     29023     29024     29023     29025     29023     29026     29026     29027
     29026     29028     29026     29029     29029     29030     29029     29031
     29029     29032     29032     29033     29032     29034     29032     29035
     29035     29036     29035     29037     29035     29038     29038     29039
     29038     29040     29038     29041     29003     29042     29042     29043
     29042     29044     29042     29045     29045     29046     29045     29047
     29045     29048     29048     29049     29048     29050     29048     29051
     29051     29052     29051     29053     29051     29054     29054     29055
     29054     29056     29054     29057     29057     29058     29057     29059
     29057     29060     29060     29061     29060     29062     29060     29063
     29063     29064     29063     29065     29063     29066     29066     29067
     29066     29068     29066     29069     29069     29070     29069     29071
     29069     29072     29072     29073     29072     29074     29072     29075
     28910     28911     28910     28912     28912     28913     28912     28914
     28912     29076     29076     29077     29076     29078     29078     29079
     29076     29080     29080     29081     29080     29082     29080     29083
     29083     29084     29083     29085     29083     29086     29086     29087
     29086     29088     29086     29089     29089     29090     29089     29091
     29089     29092     29092     29093     29092     29094     29092     29095
     29095     29096     29095     29097     29095     29098     29098     29099
     29098     29100     29098     29101     29101     29102     29101     29103
     29101     29104     29104     29105     29104     29106     29104     29107
     29107     29108     29107     29109     29107     29110     29110     29111
     29110     29112     29110     29113     29119     29121     29121     29122
     29119     29123     29123     29124     29123     29125     29123     29126
     29126     29127     29126     29128     29126     29129     29129     29130
     29129     29131     29129     29132     29132     29133     29132     29134
     29132     29135     29135     29136     29135     29137     29135     29138
     29138     29139     29138     29140     29138     29141     29141     29142
     29141     29143     29141     29144     29144     29145     29144     29146
     29144     29147     29147     29148     29147     29149     29147     29150
     29150     29151     29150     29152     29150     29153     29153     29154
     29153     29155     29153     29156     28877     28878     28877     28879
     28877     28880     28877     28876     28876     28874     28874     28875
     28874     28865     28865     28867     28865     28863     28863     28864
     28863     28861     28863     28862     28865     28866     28866     28868
     28868     28869     28868     28889     28889     28890     28889     28891
     28891     28892     28891     28998     28998     29000     28889     28881
     28881     28883     28881     28874     28998     28999     28884     28885
     28881     28882     28882     28884     28884     28886     28868     28870
     28871     28870     28871     28872     28871     28873     28871     28897
     28897     28898     28897     28893     28893     28894     28893     28895
     28895     28896     28893     28907     28907     28908     28907     28909
     28909     28910     28907     28915     28915     28916     28915     28917
     28917     28918     28917     29114     29114     29116     29116     29117
     29116     29118     29116     29119     28915     28900     28900     28901
     28900     28899     28900     28902     28902     28906     28906     28903
     28906     28904     28906     28905     28899     28897     29119     29120
     29114     29115     29157     29159     29157     29160     29160     29164
     29157     29158     29164     29165     29164     29166     29164     29167
     29167     29168     29167     29169     29167     29170     29170     29171
     29170     29172     29170     29161     29161     29162     29161     29163
     29161     29173     29173     29174     29173     29175     29175     29176
     29173     29177     29177     29180     29180     29181     29177     29178
     29177     29179     29160     29163     29182     29184     29182     29185
     29185     29189     29182     29183     29189     29190     29189     29191
     29189     29192     29192     29193     29192     29194     29194     29195
     29192     29196     29196     29197     29196     29198     29198     29199
     29196     29186     29186     29187     29186     29188     29186     29200
     29200     29201     29200     29202     29202     29203     29200     29204
     29204     29207     29207     29208     29204     29205     29204     29206
     29185     29188     29209     29210     29209     29213     29209     29214
     29214     29215     29214     29216     29216     29217     29214     29218
     29218     29219     29218     29220     29218     29221     29221     29222
     29221     29223     29221     29211     29211     29212     29211     29228
     29228     29229     29228     29232     29228     29230     29230     29231
     29211     29213     29232     29233     29232     29234     29232     29235
     29235     29236     29237     29238     29237     29241     29237     29242
     29242     29243     29242     29244     29244     29245     29242     29246
     29246     29247     29246     29248     29246     29249     29249     29250
     29249     29251     29249     29239     29239     29240     29239     29256
     29256     29257     29256     29260     29256     29258     29258     29259
     29239     29241     29260     29261     29260     29262     29260     29263
     29264     29265     29264     29268     29264     29269     29269     29270
     29269     29271     29271     29272     29269     29273     29273     29274
     29273     29275     29275     29276     29273     29277     29277     29278
     29277     29279     29279     29280     29277     29266     29266     29267
     29266     29281     29281     29282     29281     29285     29281     29283
     29283     29284     29266     29268     29285     29286     29285     29287
     29285     29288     29288     29289     29290     29291     29290     29294
     29290     29295     29295     29296     29295     29297     29297     29298
     29295     29299     29299     29300     29299     29301     29299     29302
     29302     29303     29302     29304     29304     29305     29302     29292
     29292     29293     29292     29306     29306     29307     29306     29308
     29306     29309     29309     29310     29292     29294     29311     29312
     29311     29315     29311     29316     29316     29317     29316     29318
     29316     29319     29319     29320     29319     29321     29319     29322
     29322     29323     29322     29324     29324     29325     29322     29313
     29313     29314     29313     29326     29326     29327     29326     29328
     29326     29329     29329     29330     29313     29315     29331     29332
     29331     29335     29331     29336     29336     29337     29336     29338
     29336     29339     29339     29340     29339     29341     29341     29342
     29339     29343     29343     29344     29343     29345     29345     29346
     29343     29333     29333     29334     29333     29347     29347     29348
     29347     29349     29347     29350     29350     29351     29333     29335
     29352     29353     29352     29356     29352     29357     29357     29358
     29357     29359     29359     29360     29357     29361     29361     29362
     29361     29363     29363     29364     29361     29365     29365     29366
     29365     29367     29367     29368     29365     29354     29354     29355
     29354     29369     29369     29370     29369     29371     29369     29372
     29372     29373     29354     29356     29374     29375     29374     29378
     29374     29379     29379     29380     29379     29381     29381     29382
     29379     29383     29383     29384     29383     29385     29383     29386
     29386     29387     29386     29388     29388     29389     29386     29376
     29376     29377     29376     29390     29390     29391     29390     29392
     29390     29393     29393     29394     29376     29378     29169     29185
     29172     29209     29220     29237     29263     29264     29248     29290
     29301     29311     29318     29331     29338     29352     29321     29374
     29223     29224     29225     29224     29226     29224     29227     29224
     29251     29252     29253     29252     29254     29252     29255     29252
     28862     29160     29395     29396     29395     29399     29395     29400
     29400     29401     29400     29402     29402     29403     29400     29410
     29410     29411     29410     29412     29410     29413     29413     29414
     29413     29415     29415     29416     29413     29397     29397     29398
     29397     29417     29417     29418     29417     29419     29417     29420
     29420     29421     29397     29399     29402     29404     29404     29405
     29404     29406     29406     29407     29406     29408     29406     29409
     29422     29423     29422     29426     29422     29427     29427     29428
     29427     29429     29427     29430     29430     29431     29430     29432
     29432     29433     29430     29434     29434     29435     29434     29436
     29436     29437     29434     29424     29424     29425     29424     29438
     29438     29439     29438     29440     29438     29441     29441     29442
     29424     29426     29443     29444     29443     29447     29443     29448
     29448     29449     29448     29450     29448     29451     29451     29452
     29451     29453     29453     29454     29451     29455     29455     29456
     29455     29457     29457     29458     29455     29445     29445     29446
     29445     29459     29459     29460     29459     29461     29459     29462
     29445     29447     29463     29464     29463     29467     29463     29468
     29468     29469     29468     29470     29468     29471     29471     29472
     29471     29473     29471     29474     29474     29475     29474     29476
     29476     29477     29474     29465     29465     29466     29465     29478
     29478     29479     29478     29480     29478     29481     29465     29467
     29482     29483     29482     29486     29482     29487     29487     29488
     29487     29489     29489     29490     29487     29497     29497     29498
     29497     29499     29499     29500     29497     29501     29501     29502
     29501     29503     29503     29504     29501     29484     29484     29485
     29484     29505     29505     29506     29505     29507     29505     29508
     29508     29509     29484     29486     29489     29491     29491     29492
     29491     29493     29493     29494     29493     29495     29493     29496
     29412     29422     29429     29443     29450     29463     29470     29482
     29510     29511     29510     29514     29510     29515     29515     29516
     29515     29517     29517     29518     29515     29525     29525     29526
     29525     29527     29525     29528     29528     29529     29528     29530
     29530     29531     29528     29512     29512     29513     29512     29532
     29532     29533     29532     29534     29532     29535     29535     29536
     29512     29514     29517     29519     29519     29520     29519     29521
     29521     29522     29521     29523     29521     29524     29537     29538
     29537     29541     29537     29542     29542     29543     29542     29544
     29542     29545     29545     29546     29545     29547     29547     29548
     29545     29549     29549     29550     29549     29551     29551     29552
     29549     29539     29539     29540     29539     29553     29553     29554
     29553     29555     29553     29556     29556     29557     29539     29541
     29558     29559     29558     29562     29558     29563     29563     29564
     29563     29565     29563     29566     29566     29567     29566     29568
     29568     29569     29566     29570     29570     29571     29570     29572
     29572     29573     29570     29560     29560     29561     29560     29574
     29574     29575     29574     29576     29574     29577     29560     29562
     29578     29579     29578     29582     29578     29583     29583     29584
     29583     29585     29583     29586     29586     29587     29586     29588
     29586     29589     29589     29590     29589     29591     29591     29592
     29589     29580     29580     29581     29580     29593     29593     29594
     29593     29595     29593     29596     29580     29582     29597     29598
     29597     29601     29597     29602     29602     29603     29602     29604
     29604     29605     29602     29612     29612     29613     29612     29614
     29614     29615     29612     29616     29616     29617     29616     29618
     29618     29619     29616     29599     29599     29600     29599     29620
     29620     29621     29620     29622     29620     29623     29623     29624
     29599     29601     29604     29606     29606     29607     29606     29608
     29608     29609     29608     29610     29608     29611     29527     29537
     29544     29558     29565     29578     29585     29597     29473     29510
     29625     29626     29625     29629     29625     29630     29630     29631
     29630     29632     29632     29633     29630     29640     29640     29641
     29640     29642     29640     29643     29643     29644     29643     29645
     29645     29646     29643     29627     29627     29628     29627     29647
     29647     29648     29647     29649     29647     29650     29650     29651
     29627     29629     29632     29634     29634     29635     29634     29636
     29636     29637     29636     29638     29636     29639     29652     29653
     29652     29656     29652     29657     29657     29658     29657     29659
     29657     29660     29660     29661     29660     29662     29662     29663
     29660     29664     29664     29665     29664     29666     29666     29667
     29664     29654     29654     29655     29654     29668     29668     29669
     29668     29670     29668     29671     29671     29672     29654     29656
     29673     29674     29673     29677     29673     29678     29678     29679
     29678     29680     29678     29681     29681     29682     29681     29683
     29683     29684     29681     29685     29685     29686     29685     29687
     29687     29688     29685     29675     29675     29676     29675     29689
     29689     29690     29689     29691     29689     29692     29675     29677
     29693     29694     29693     29697     29693     29698     29698     29699
     29698     29700     29698     29701     29701     29702     29701     29703
     29701     29704     29704     29705     29704     29706     29706     29707
     29704     29695     29695     29696     29695     29708     29708     29709
     29708     29710     29708     29711     29695     29697     29712     29713
     29712     29716     29712     29717     29717     29718     29717     29719
     29719     29720     29717     29727     29727     29728     29727     29729
     29729     29730     29727     29731     29731     29732     29731     29733
     29733     29734     29731     29714     29714     29715     29714     29735
     29735     29736     29735     29737     29735     29738     29738     29739
     29714     29716     29719     29721     29721     29722     29721     29723
     29723     29724     29723     29725     29723     29726     29642     29652
     29659     29673     29680     29693     29700     29712     29588     29625
     29740     29741     29740     29744     29740     29745     29745     29746
     29745     29747     29747     29748     29745     29755     29755     29756
     29755     29757     29755     29758     29758     29759     29758     29760
     29760     29761     29758     29742     29742     29743     29742     29762
     29762     29763     29762     29764     29762     29765     29765     29766
     29742     29744     29747     29749     29749     29750     29749     29751
     29751     29752     29751     29753     29751     29754     29767     29768
     29767     29771     29767     29772     29772     29773     29772     29774
     29772     29775     29775     29776     29775     29777     29777     29778
     29775     29779     29779     29780     29779     29781     29781     29782
     29779     29769     29769     29770     29769     29783     29783     29784
     29783     29785     29783     29786     29786     29787     29769     29771
     29788     29789     29788     29792     29788     29793     29793     29794
     29793     29795     29793     29796     29796     29797     29796     29798
     29798     29799     29796     29800     29800     29801     29800     29802
     29802     29803     29800     29790     29790     29791     29790     29804
     29804     29805     29804     29806     29804     29807     29790     29792
     29808     29809     29808     29812     29808     29813     29813     29814
     29813     29815     29813     29816     29816     29817     29816     29818
     29816     29819     29819     29820     29819     29821     29821     29822
     29819     29810     29810     29811     29810     29823     29823     29824
     29823     29825     29823     29826     29810     29812     29827     29828
     29827     29831     29827     29832     29832     29833     29832     29834
     29834     29835     29832     29842     29842     29843     29842     29844
     29844     29845     29842     29846     29846     29847     29846     29848
     29848     29849     29846     29829     29829     29830     29829     29850
     29850     29851     29850     29852     29850     29853     29853     29854
     29829     29831     29834     29836     29836     29837     29836     29838
     29838     29839     29838     29840     29838     29841     29757     29767
     29774     29788     29795     29808     29815     29827     29703     29740
     29855     29856     29855     29859     29855     29860     29860     29861
     29860     29862     29862     29863     29860     29870     29870     29871
     29870     29872     29870     29873     29873     29874     29873     29875
     29875     29876     29873     29857     29857     29858     29857     29877
     29877     29878     29877     29879     29877     29880     29880     29881
     29857     29859     29862     29864     29864     29865     29864     29866
     29866     29867     29866     29868     29866     29869     29882     29883
     29882     29886     29882     29887     29887     29888     29887     29889
     29887     29890     29890     29891     29890     29892     29892     29893
     29890     29894     29894     29895     29894     29896     29896     29897
     29894     29884     29884     29885     29884     29898     29898     29899
     29898     29900     29898     29901     29901     29902     29884     29886
     29903     29904     29903     29907     29903     29908     29908     29909
     29908     29910     29908     29911     29911     29912     29911     29913
     29913     29914     29911     29915     29915     29916     29915     29917
     29917     29918     29915     29905     29905     29906     29905     29919
     29919     29920     29919     29921     29919     29922     29905     29907
     29923     29924     29923     29927     29923     29928     29928     29929
     29928     29930     29928     29931     29931     29932     29931     29933
     29933     29934     29931     29935     29935     29936     29935     29937
     29937     29938     29935     29925     29925     29926     29925     29939
     29939     29940     29939     29941     29939     29942     29925     29927
     29943     29944     29943     29947     29943     29948     29948     29949
     29948     29950     29950     29951     29948     29958     29958     29959
     29958     29960     29960     29961     29958     29962     29962     29963
     29962     29964     29964     29965     29962     29945     29945     29946
     29945     29966     29966     29967     29966     29968     29966     29969
     29969     29970     29945     29947     29950     29952     29952     29953
     29952     29954     29954     29955     29954     29956     29954     29957
     29872     29882     29889     29903     29910     29923     29930     29943
     29818     29855     29385     29395     29996     29997     29996     29998
     29996     30029     30029     30030     30029     30031     30032     30031
     30032     30034     30034     30035     30034     30036     30033     30032
     30034     30037     30037     30038     30037     30039     30037     30040
     30040     30041     30040     30043     30043     30044     30043     30045
     30043     30046     30046     30047     30040     30042     30046     30048
     30046     30049     30049     30050     30049     30051     30049     30052
     30052     30053     30052     30054     30052     30055     30055     30056
     30055     30057     30055     30058     30058     30059     30058     30060
     30058     30061     30061     30062     30061     30063     30061     30064
     30064     30065     30064     30066     30064     30067     30067     30068
     30067     30069     30067     30070     30070     30071     30070     30072
     30070     30073     30029     30074     30074     30075     30074     30076
     30074     30077     30077     30078     30077     30079     30077     30080
     30080     30081     30080     30082     30080     30083     30083     30084
     30083     30085     30083     30086     30086     30087     30086     30088
     30086     30089     30089     30090     30089     30091     30089     30092
     30092     30093     30092     30094     30092     30095     30095     30096
     30095     30097     30095     30098     30098     30099     30098     30100
     30098     30101     30101     30102     30101     30103     30101     30104
     30104     30105     30104     30106     30104     30107     30110     30111
     30110     30112     30110     30113     30113     30114     30113     30115
     30117     30116     30115     30116     30116     30118     30118     30119
     30118     30120     30118     30121     30121     30122     30121     30123
     30121     30124     30124     30125     30124     30126     30124     30127
     30127     30128     30127     30129     30127     30130     30130     30131
     30130     30132     30130     30133     30133     30134     30133     30135
     30133     30136     30136     30137     30136     30138     30136     30139
     30139     30140     30139     30141     30139     30142     30142     30143
     30142     30144     30142     30145     30145     30146     30145     30147
     30145     30148     30148     30149     30148     30150     30148     30151
     30113     30152     30152     30153     30152     30154     30152     30155
     30155     30156     30155     30157     30155     30158     30158     30159
     30158     30160     30158     30161     30161     30162     30161     30163
     30161     30164     30164     30165     30164     30166     30164     30167
     30167     30168     30167     30169     30167     30170     30170     30171
     30170     30172     30170     30173     30173     30174     30173     30175
     30173     30176     30176     30177     30176     30178     30176     30179
     30179     30180     30179     30181     30179     30182     30182     30183
     30182     30184     30182     30185     30020     30021     30020     30022
     30022     30023     30022     30024     30022     30186     30186     30187
     30186     30188     30188     30189     30186     30190     30190     30191
     30190     30192     30190     30193     30193     30194     30193     30195
     30193     30196     30196     30197     30196     30198     30196     30199
     30199     30200     30199     30201     30199     30202     30202     30203
     30202     30204     30202     30205     30205     30206     30205     30207
     30205     30208     30208     30209     30208     30210     30208     30211
     30211     30212     30211     30213     30211     30214     30214     30215
     30214     30216     30214     30217     30217     30218     30217     30219
     30217     30220     30220     30221     30220     30222     30220     30223
     30229     30231     30231     30232     30229     30233     30233     30234
     30233     30235     30233     30236     30236     30237     30236     30238
     30236     30239     30239     30240     30239     30241     30239     30242
     30242     30243     30242     30244     30242     30245     30245     30246
     30245     30247     30245     30248     30248     30249     30248     30250
     30248     30251     30251     30252     30251     30253     30251     30254
     30254     30255     30254     30256     30254     30257     30257     30258
     30257     30259     30257     30260     30260     30261     30260     30262
     30260     30263     30263     30264     30263     30265     30263     30266
     29987     29988     29987     29989     29987     29990     29987     29986
     29986     29984     29984     29985     29984     29975     29975     29977
     29975     29973     29973     29974     29973     29971     29973     29972
     29975     29976     29976     29978     29978     29979     29978     29999
     29999     30000     29999     30001     30001     30002     30001     30108
     30108     30110     29999     29991     29991     29993     29991     29984
     30108     30109     29994     29995     29991     29992     29992     29994
     29994     29996     29978     29980     29981     29980     29981     29982
     29981     29983     29981     30007     30007     30008     30007     30003
     30003     30004     30003     30005     30005     30006     30003     30017
     30017     30018     30017     30019     30019     30020     30017     30025
     30025     30026     30025     30027     30027     30028     30027     30224
     30224     30226     30226     30227     30226     30228     30226     30229
     30025     30010     30010     30011     30010     30009     30010     30012
     30012     30016     30016     30013     30016     30014     30016     30015
     30009     30007     30229     30230     30224     30225     30267     30269
     30267     30270     30270     30274     30267     30268     30274     30275
     30274     30276     30274     30277     30277     30278     30277     30279
     30277     30280     30280     30281     30280     30282     30280     30271
     30271     30272     30271     30273     30271     30283     30283     30284
     30283     30285     30285     30286     30283     30287     30287     30290
     30290     30291     30287     30288     30287     30289     30270     30273
     30292     30294     30292     30295     30295     30299     30292     30293
     30299     30300     30299     30301     30299     30302     30302     30303
     30302     30304     30304     30305     30302     30306     30306     30307
     30306     30308     30308     30309     30306     30296     30296     30297
     30296     30298     30296     30310     30310     30311     30310     30312
     30312     30313     30310     30314     30314     30317     30317     30318
     30314     30315     30314     30316     30295     30298     30319     30320
     30319     30323     30319     30324     30324     30325     30324     30326
     30326     30327     30324     30328     30328     30329     30328     30330
     30328     30331     30331     30332     30331     30333     30331     30321
     30321     30322     30321     30338     30338     30339     30338     30342
     30338     30340     30340     30341     30321     30323     30342     30343
     30342     30344     30342     30345     30345     30346     30347     30348
     30347     30351     30347     30352     30352     30353     30352     30354
     30354     30355     30352     30356     30356     30357     30356     30358
     30356     30359     30359     30360     30359     30361     30359     30349
     30349     30350     30349     30366     30366     30367     30366     30370
     30366     30368     30368     30369     30349     30351     30370     30371
     30370     30372     30370     30373     30374     30375     30374     30378
     30374     30379     30379     30380     30379     30381     30381     30382
     30379     30383     30383     30384     30383     30385     30385     30386
     30383     30387     30387     30388     30387     30389     30389     30390
     30387     30376     30376     30377     30376     30391     30391     30392
     30391     30395     30391     30393     30393     30394     30376     30378
     30395     30396     30395     30397     30395     30398     30398     30399
     30400     30401     30400     30404     30400     30405     30405     30406
     30405     30407     30407     30408     30405     30409     30409     30410
     30409     30411     30409     30412     30412     30413     30412     30414
     30414     30415     30412     30402     30402     30403     30402     30416
     30416     30417     30416     30418     30416     30419     30419     30420
     30402     30404     30421     30422     30421     30425     30421     30426
     30426     30427     30426     30428     30426     30429     30429     30430
     30429     30431     30429     30432     30432     30433     30432     30434
     30434     30435     30432     30423     30423     30424     30423     30436
     30436     30437     30436     30438     30436     30439     30439     30440
     30423     30425     30441     30442     30441     30445     30441     30446
     30446     30447     30446     30448     30446     30449     30449     30450
     30449     30451     30451     30452     30449     30453     30453     30454
     30453     30455     30455     30456     30453     30443     30443     30444
     30443     30457     30457     30458     30457     30459     30457     30460
     30460     30461     30443     30445     30462     30463     30462     30466
     30462     30467     30467     30468     30467     30469     30469     30470
     30467     30471     30471     30472     30471     30473     30473     30474
     30471     30475     30475     30476     30475     30477     30477     30478
     30475     30464     30464     30465     30464     30479     30479     30480
     30479     30481     30479     30482     30482     30483     30464     30466
     30484     30485     30484     30488     30484     30489     30489     30490
     30489     30491     30491     30492     30489     30493     30493     30494
     30493     30495     30493     30496     30496     30497     30496     30498
     30498     30499     30496     30486     30486     30487     30486     30500
     30500     30501     30500     30502     30500     30503     30503     30504
     30486     30488     30279     30295     30282     30319     30330     30347
     30373     30374     30358     30400     30411     30421     30428     30441
     30448     30462     30431     30484     30333     30334     30335     30334
     30336     30334     30337     30334     30361     30362     30363     30362
     30364     30362     30365     30362     29972     30270     30505     30506
     30505     30509     30505     30510     30510     30511     30510     30512
     30512     30513     30510     30520     30520     30521     30520     30522
     30520     30523     30523     30524     30523     30525     30525     30526
     30523     30507     30507     30508     30507     30527     30527     30528
     30527     30529     30527     30530     30530     30531     30507     30509
     30512     30514     30514     30515     30514     30516     30516     30517
     30516     30518     30516     30519     30532     30533     30532     30536
     30532     30537     30537     30538     30537     30539     30537     30540
     30540     30541     30540     30542     30542     30543     30540     30544
     30544     30545     30544     30546     30546     30547     30544     30534
     30534     30535     30534     30548     30548     30549     30548     30550
     30548     30551     30551     30552     30534     30536     30553     30554
     30553     30557     30553     30558     30558     30559     30558     30560
     30558     30561     30561     30562     30561     30563     30563     30564
     30561     30565     30565     30566     30565     30567     30567     30568
     30565     30555     30555     30556     30555     30569     30569     30570
     30569     30571     30569     30572     30555     30557     30573     30574
     30573     30577     30573     30578     30578     30579     30578     30580
     30578     30581     30581     30582     30581     30583     30581     30584
     30584     30585     30584     30586     30586     30587     30584     30575
     30575     30576     30575     30588     30588     30589     30588     30590
     30588     30591     30575     30577     30592     30593     30592     30596
     30592     30597     30597     30598     30597     30599     30599     30600
     30597     30607     30607     30608     30607     30609     30609     30610
     30607     30611     30611     30612     30611     30613     30613     30614
     30611     30594     30594     30595     30594     30615     30615     30616
     30615     30617     30615     30618     30618     30619     30594     30596
     30599     30601     30601     30602     30601     30603     30603     30604
     30603     30605     30603     30606     30522     30532     30539     30553
     30560     30573     30580     30592     30620     30621     30620     30624
     30620     30625     30625     30626     30625     30627     30627     30628
     30625     30635     30635     30636     30635     30637     30635     30638
     30638     30639     30638     30640     30640     30641     30638     30622
     30622     30623     30622     30642     30642     30643     30642     30644
     30642     30645     30645     30646     30622     30624     30627     30629
     30629     30630     30629     30631     30631     30632     30631     30633
     30631     30634     30647     30648     30647     30651     30647     30652
     30652     30653     30652     30654     30652     30655     30655     30656
     30655     30657     30657     30658     30655     30659     30659     30660
     30659     30661     30661     30662     30659     30649     30649     30650
     30649     30663     30663     30664     30663     30665     30663     30666
     30666     30667     30649     30651     30668     30669     30668     30672
     30668     30673     30673     30674     30673     30675     30673     30676
     30676     30677     30676     30678     30678     30679     30676     30680
     30680     30681     30680     30682     30682     30683     30680     30670
     30670     30671     30670     30684     30684     30685     30684     30686
     30684     30687     30670     30672     30688     30689     30688     30692
     30688     30693     30693     30694     30693     30695     30693     30696
     30696     30697     30696     30698     30696     30699     30699     30700
     30699     30701     30701     30702     30699     30690     30690     30691
     30690     30703     30703     30704     30703     30705     30703     30706
     30690     30692     30707     30708     30707     30711     30707     30712
     30712     30713     30712     30714     30714     30715     30712     30722
     30722     30723     30722     30724     30724     30725     30722     30726
     30726     30727     30726     30728     30728     30729     30726     30709
     30709     30710     30709     30730     30730     30731     30730     30732
     30730     30733     30733     30734     30709     30711     30714     30716
     30716     30717     30716     30718     30718     30719     30718     30720
     30718     30721     30637     30647     30654     30668     30675     30688
     30695     30707     30583     30620     30735     30736     30735     30739
     30735     30740     30740     30741     30740     30742     30742     30743
     30740     30750     30750     30751     30750     30752     30750     30753
     30753     30754     30753     30755     30755     30756     30753     30737
     30737     30738     30737     30757     30757     30758     30757     30759
     30757     30760     30760     30761     30737     30739     30742     30744
     30744     30745     30744     30746     30746     30747     30746     30748
     30746     30749     30762     30763     30762     30766     30762     30767
     30767     30768     30767     30769     30767     30770     30770     30771
     30770     30772     30772     30773     30770     30774     30774     30775
     30774     30776     30776     30777     30774     30764     30764     30765
     30764     30778     30778     30779     30778     30780     30778     30781
     30781     30782     30764     30766     30783     30784     30783     30787
     30783     30788     30788     30789     30788     30790     30788     30791
     30791     30792     30791     30793     30793     30794     30791     30795
     30795     30796     30795     30797     30797     30798     30795     30785
     30785     30786     30785     30799     30799     30800     30799     30801
     30799     30802     30785     30787     30803     30804     30803     30807
     30803     30808     30808     30809     30808     30810     30808     30811
     30811     30812     30811     30813     30811     30814     30814     30815
     30814     30816     30816     30817     30814     30805     30805     30806
     30805     30818     30818     30819     30818     30820     30818     30821
     30805     30807     30822     30823     30822     30826     30822     30827
     30827     30828     30827     30829     30829     30830     30827     30837
     30837     30838     30837     30839     30839     30840     30837     30841
     30841     30842     30841     30843     30843     30844     30841     30824
     30824     30825     30824     30845     30845     30846     30845     30847
     30845     30848     30848     30849     30824     30826     30829     30831
     30831     30832     30831     30833     30833     30834     30833     30835
     30833     30836     30752     30762     30769     30783     30790     30803
     30810     30822     30698     30735     30850     30851     30850     30854
     30850     30855     30855     30856     30855     30857     30857     30858
     30855     30865     30865     30866     30865     30867     30865     30868
     30868     30869     30868     30870     30870     30871     30868     30852
     30852     30853     30852     30872     30872     30873     30872     30874
     30872     30875     30875     30876     30852     30854     30857     30859
     30859     30860     30859     30861     30861     30862     30861     30863
     30861     30864     30877     30878     30877     30881     30877     30882
     30882     30883     30882     30884     30882     30885     30885     30886
     30885     30887     30887     30888     30885     30889     30889     30890
     30889     30891     30891     30892     30889     30879     30879     30880
     30879     30893     30893     30894     30893     30895     30893     30896
     30896     30897     30879     30881     30898     30899     30898     30902
     30898     30903     30903     30904     30903     30905     30903     30906
     30906     30907     30906     30908     30908     30909     30906     30910
     30910     30911     30910     30912     30912     30913     30910     30900
     30900     30901     30900     30914     30914     30915     30914     30916
     30914     30917     30900     30902     30918     30919     30918     30922
     30918     30923     30923     30924     30923     30925     30923     30926
     30926     30927     30926     30928     30926     30929     30929     30930
     30929     30931     30931     30932     30929     30920     30920     30921
     30920     30933     30933     30934     30933     30935     30933     30936
     30920     30922     30937     30938     30937     30941     30937     30942
     30942     30943     30942     30944     30944     30945     30942     30952
     30952     30953     30952     30954     30954     30955     30952     30956
     30956     30957     30956     30958     30958     30959     30956     30939
     30939     30940     30939     30960     30960     30961     30960     30962
     30960     30963     30963     30964     30939     30941     30944     30946
     30946     30947     30946     30948     30948     30949     30948     30950
     30948     30951     30867     30877     30884     30898     30905     30918
     30925     30937     30813     30850     30965     30966     30965     30969
     30965     30970     30970     30971     30970     30972     30972     30973
     30970     30980     30980     30981     30980     30982     30980     30983
     30983     30984     30983     30985     30985     30986     30983     30967
     30967     30968     30967     30987     30987     30988     30987     30989
     30987     30990     30990     30991     30967     30969     30972     30974
     30974     30975     30974     30976     30976     30977     30976     30978
     30976     30979     30992     30993     30992     30996     30992     30997
     30997     30998     30997     30999     30997     31000     31000     31001
     31000     31002     31002     31003     31000     31004     31004     31005
     31004     31006     31006     31007     31004     30994     30994     30995
     30994     31008     31008     31009     31008     31010     31008     31011
     31011     31012     30994     30996     31013     31014     31013     31017
     31013     31018     31018     31019     31018     31020     31018     31021
     31021     31022     31021     31023     31023     31024     31021     31025
     31025     31026     31025     31027     31027     31028     31025     31015
     31015     31016     31015     31029     31029     31030     31029     31031
     31029     31032     31015     31017     31033     31034     31033     31037
     31033     31038     31038     31039     31038     31040     31038     31041
     31041     31042     31041     31043     31043     31044     31041     31045
     31045     31046     31045     31047     31047     31048     31045     31035
     31035     31036     31035     31049     31049     31050     31049     31051
     31049     31052     31035     31037     31053     31054     31053     31057
     31053     31058     31058     31059     31058     31060     31060     31061
     31058     31068     31068     31069     31068     31070     31070     31071
     31068     31072     31072     31073     31072     31074     31074     31075
     31072     31055     31055     31056     31055     31076     31076     31077
     31076     31078     31076     31079     31079     31080     31055     31057
     31060     31062     31062     31063     31062     31064     31064     31065
     31064     31066     31064     31067     30982     30992     30999     31013
     31020     31033     31040     31053     30928     30965     30495     30505
     31106     31107     31106     31108     31106     31139     31139     31140
     31139     31141     31142     31141     31142     31144     31144     31145
     31144     31146     31143     31142     31144     31147     31147     31148
     31147     31149     31147     31150     31150     31151     31150     31153
     31153     31154     31153     31155     31153     31156     31156     31157
     31150     31152     31156     31158     31156     31159     31159     31160
     31159     31161     31159     31162     31162     31163     31162     31164
     31162     31165     31165     31166     31165     31167     31165     31168
     31168     31169     31168     31170     31168     31171     31171     31172
     31171     31173     31171     31174     31174     31175     31174     31176
     31174     31177     31177     31178     31177     31179     31177     31180
     31180     31181     31180     31182     31180     31183     31139     31184
     31184     31185     31184     31186     31184     31187     31187     31188
     31187     31189     31187     31190     31190     31191     31190     31192
     31190     31193     31193     31194     31193     31195     31193     31196
     31196     31197     31196     31198     31196     31199     31199     31200
     31199     31201     31199     31202     31202     31203     31202     31204
     31202     31205     31205     31206     31205     31207     31205     31208
     31208     31209     31208     31210     31208     31211     31211     31212
     31211     31213     31211     31214     31214     31215     31214     31216
     31214     31217     31220     31221     31220     31222     31220     31223
     31223     31224     31223     31225     31227     31226     31225     31226
     31226     31228     31228     31229     31228     31230     31228     31231
     31231     31232     31231     31233     31231     31234     31234     31235
     31234     31236     31234     31237     31237     31238     31237     31239
     31237     31240     31240     31241     31240     31242     31240     31243
     31243     31244     31243     31245     31243     31246     31246     31247
     31246     31248     31246     31249     31249     31250     31249     31251
     31249     31252     31252     31253     31252     31254     31252     31255
     31255     31256     31255     31257     31255     31258     31258     31259
     31258     31260     31258     31261     31223     31262     31262     31263
     31262     31264     31262     31265     31265     31266     31265     31267
     31265     31268     31268     31269     31268     31270     31268     31271
     31271     31272     31271     31273     31271     31274     31274     31275
     31274     31276     31274     31277     31277     31278     31277     31279
     31277     31280     31280     31281     31280     31282     31280     31283
     31283     31284     31283     31285     31283     31286     31286     31287
     31286     31288     31286     31289     31289     31290     31289     31291
     31289     31292     31292     31293     31292     31294     31292     31295
     31130     31131     31130     31132     31132     31133     31132     31134
     31132     31296     31296     31297     31296     31298     31298     31299
     31296     31300     31300     31301     31300     31302     31300     31303
     31303     31304     31303     31305     31303     31306     31306     31307
     31306     31308     31306     31309     31309     31310     31309     31311
     31309     31312     31312     31313     31312     31314     31312     31315
     31315     31316     31315     31317     31315     31318     31318     31319
     31318     31320     31318     31321     31321     31322     31321     31323
     31321     31324     31324     31325     31324     31326     31324     31327
     31327     31328     31327     31329     31327     31330     31330     31331
     31330     31332     31330     31333     31339     31341     31341     31342
     31339     31343     31343     31344     31343     31345     31343     31346
     31346     31347     31346     31348     31346     31349     31349     31350
     31349     31351     31349     31352     31352     31353     31352     31354
     31352     31355     31355     31356     31355     31357     31355     31358
     31358     31359     31358     31360     31358     31361     31361     31362
     31361     31363     31361     31364     31364     31365     31364     31366
     31364     31367     31367     31368     31367     31369     31367     31370
     31370     31371     31370     31372     31370     31373     31373     31374
     31373     31375     31373     31376     31097     31098     31097     31099
     31097     31100     31097     31096     31096     31094     31094     31095
     31094     31085     31085     31087     31085     31083     31083     31084
     31083     31081     31083     31082     31085     31086     31086     31088
     31088     31089     31088     31109     31109     31110     31109     31111
     31111     31112     31111     31218     31218     31220     31109     31101
     31101     31103     31101     31094     31218     31219     31104     31105
     31101     31102     31102     31104     31104     31106     31088     31090
     31091     31090     31091     31092     31091     31093     31091     31117
     31117     31118     31117     31113     31113     31114     31113     31115
     31115     31116     31113     31127     31127     31128     31127     31129
     31129     31130     31127     31135     31135     31136     31135     31137
     31137     31138     31137     31334     31334     31336     31336     31337
     31336     31338     31336     31339     31135     31120     31120     31121
     31120     31119     31120     31122     31122     31126     31126     31123
     31126     31124     31126     31125     31119     31117     31339     31340
     31334     31335     31377     31379     31377     31380     31380     31384
     31377     31378     31384     31385     31384     31386     31384     31387
     31387     31388     31387     31389     31387     31390     31390     31391
     31390     31392     31390     31381     31381     31382     31381     31383
     31381     31393     31393     31394     31393     31395     31395     31396
     31393     31397     31397     31400     31400     31401     31397     31398
     31397     31399     31380     31383     31402     31404     31402     31405
     31405     31409     31402     31403     31409     31410     31409     31411
     31409     31412     31412     31413     31412     31414     31414     31415
     31412     31416     31416     31417     31416     31418     31418     31419
     31416     31406     31406     31407     31406     31408     31406     31420
     31420     31421     31420     31422     31422     31423     31420     31424
     31424     31427     31427     31428     31424     31425     31424     31426
     31405     31408     31429     31430     31429     31433     31429     31434
     31434     31435     31434     31436     31436     31437     31434     31438
     31438     31439     31438     31440     31438     31441     31441     31442
     31441     31443     31441     31431     31431     31432     31431     31448
     31448     31449     31448     31452     31448     31450     31450     31451
     31431     31433     31452     31453     31452     31454     31452     31455
     31455     31456     31457     31458     31457     31461     31457     31462
     31462     31463     31462     31464     31464     31465     31462     31466
     31466     31467     31466     31468     31466     31469     31469     31470
     31469     31471     31469     31459     31459     31460     31459     31476
     31476     31477     31476     31480     31476     31478     31478     31479
     31459     31461     31480     31481     31480     31482     31480     31483
     31484     31485     31484     31488     31484     31489     31489     31490
     31489     31491     31491     31492     31489     31493     31493     31494
     31493     31495     31495     31496     31493     31497     31497     31498
     31497     31499     31499     31500     31497     31486     31486     31487
     31486     31501     31501     31502     31501     31505     31501     31503
     31503     31504     31486     31488     31505     31506     31505     31507
     31505     31508     31508     31509     31510     31511     31510     31514
     31510     31515     31515     31516     31515     31517     31517     31518
     31515     31519     31519     31520     31519     31521     31519     31522
     31522     31523     31522     31524     31524     31525     31522     31512
     31512     31513     31512     31526     31526     31527     31526     31528
     31526     31529     31529     31530     31512     31514     31531     31532
     31531     31535     31531     31536     31536     31537     31536     31538
     31536     31539     31539     31540     31539     31541     31539     31542
     31542     31543     31542     31544     31544     31545     31542     31533
     31533     31534     31533     31546     31546     31547     31546     31548
     31546     31549     31549     31550     31533     31535     31551     31552
     31551     31555     31551     31556     31556     31557     31556     31558
     31556     31559     31559     31560     31559     31561     31561     31562
     31559     31563     31563     31564     31563     31565     31565     31566
     31563     31553     31553     31554     31553     31567     31567     31568
     31567     31569     31567     31570     31570     31571     31553     31555
     31572     31573     31572     31576     31572     31577     31577     31578
     31577     31579     31579     31580     31577     31581     31581     31582
     31581     31583     31583     31584     31581     31585     31585     31586
     31585     31587     31587     31588     31585     31574     31574     31575
     31574     31589     31589     31590     31589     31591     31589     31592
     31592     31593     31574     31576     31594     31595     31594     31598
     31594     31599     31599     31600     31599     31601     31601     31602
     31599     31603     31603     31604     31603     31605     31603     31606
     31606     31607     31606     31608     31608     31609     31606     31596
     31596     31597     31596     31610     31610     31611     31610     31612
     31610     31613     31613     31614     31596     31598     31389     31405
     31392     31429     31440     31457     31483     31484     31468     31510
     31521     31531     31538     31551     31558     31572     31541     31594
     31443     31444     31445     31444     31446     31444     31447     31444
     31471     31472     31473     31472     31474     31472     31475     31472
     31082     31380     31615     31616     31615     31619     31615     31620
     31620     31621     31620     31622     31622     31623     31620     31630
     31630     31631     31630     31632     31630     31633     31633     31634
     31633     31635     31635     31636     31633     31617     31617     31618
     31617     31637     31637     31638     31637     31639     31637     31640
     31640     31641     31617     31619     31622     31624     31624     31625
     31624     31626     31626     31627     31626     31628     31626     31629
     31642     31643     31642     31646     31642     31647     31647     31648
     31647     31649     31647     31650     31650     31651     31650     31652
     31652     31653     31650     31654     31654     31655     31654     31656
     31656     31657     31654     31644     31644     31645     31644     31658
     31658     31659     31658     31660     31658     31661     31661     31662
     31644     31646     31663     31664     31663     31667     31663     31668
     31668     31669     31668     31670     31668     31671     31671     31672
     31671     31673     31673     31674     31671     31675     31675     31676
     31675     31677     31677     31678     31675     31665     31665     31666
     31665     31679     31679     31680     31679     31681     31679     31682
     31665     31667     31683     31684     31683     31687     31683     31688
     31688     31689     31688     31690     31688     31691     31691     31692
     31691     31693     31691     31694     31694     31695     31694     31696
     31696     31697     31694     31685     31685     31686     31685     31698
     31698     31699     31698     31700     31698     31701     31685     31687
     31702     31703     31702     31706     31702     31707     31707     31708
     31707     31709     31709     31710     31707     31717     31717     31718
     31717     31719     31719     31720     31717     31721     31721     31722
     31721     31723     31723     31724     31721     31704     31704     31705
     31704     31725     31725     31726     31725     31727     31725     31728
     31728     31729     31704     31706     31709     31711     31711     31712
     31711     31713     31713     31714     31713     31715     31713     31716
     31632     31642     31649     31663     31670     31683     31690     31702
     31730     31731     31730     31734     31730     31735     31735     31736
     31735     31737     31737     31738     31735     31745     31745     31746
     31745     31747     31745     31748     31748     31749     31748     31750
     31750     31751     31748     31732     31732     31733     31732     31752
     31752     31753     31752     31754     31752     31755     31755     31756
     31732     31734     31737     31739     31739     31740     31739     31741
     31741     31742     31741     31743     31741     31744     31757     31758
     31757     31761     31757     31762     31762     31763     31762     31764
     31762     31765     31765     31766     31765     31767     31767     31768
     31765     31769     31769     31770     31769     31771     31771     31772
     31769     31759     31759     31760     31759     31773     31773     31774
     31773     31775     31773     31776     31776     31777     31759     31761
     31778     31779     31778     31782     31778     31783     31783     31784
     31783     31785     31783     31786     31786     31787     31786     31788
     31788     31789     31786     31790     31790     31791     31790     31792
     31792     31793     31790     31780     31780     31781     31780     31794
     31794     31795     31794     31796     31794     31797     31780     31782
     31798     31799     31798     31802     31798     31803     31803     31804
     31803     31805     31803     31806     31806     31807     31806     31808
     31806     31809     31809     31810     31809     31811     31811     31812
     31809     31800     31800     31801     31800     31813     31813     31814
     31813     31815     31813     31816     31800     31802     31817     31818
     31817     31821     31817     31822     31822     31823     31822     31824
     31824     31825     31822     31832     31832     31833     31832     31834
     31834     31835     31832     31836     31836     31837     31836     31838
     31838     31839     31836     31819     31819     31820     31819     31840
     31840     31841     31840     31842     31840     31843     31843     31844
     31819     31821     31824     31826     31826     31827     31826     31828
     31828     31829     31828     31830     31828     31831     31747     31757
     31764     31778     31785     31798     31805     31817     31693     31730
     31845     31846     31845     31849     31845     31850     31850     31851
     31850     31852     31852     31853     31850     31860     31860     31861
     31860     31862     31860     31863     31863     31864     31863     31865
     31865     31866     31863     31847     31847     31848     31847     31867
     31867     31868     31867     31869     31867     31870     31870     31871
     31847     31849     31852     31854     31854     31855     31854     31856
     31856     31857     31856     31858     31856     31859     31872     31873
     31872     31876     31872     31877     31877     31878     31877     31879
     31877     31880     31880     31881     31880     31882     31882     31883
     31880     31884     31884     31885     31884     31886     31886     31887
     31884     31874     31874     31875     31874     31888     31888     31889
     31888     31890     31888     31891     31891     31892     31874     31876
     31893     31894     31893     31897     31893     31898     31898     31899
     31898     31900     31898     31901     31901     31902     31901     31903
     31903     31904     31901     31905     31905     31906     31905     31907
     31907     31908     31905     31895     31895     31896     31895     31909
     31909     31910     31909     31911     31909     31912     31895     31897
     31913     31914     31913     31917     31913     31918     31918     31919
     31918     31920     31918     31921     31921     31922     31921     31923
     31921     31924     31924     31925     31924     31926     31926     31927
     31924     31915     31915     31916     31915     31928     31928     31929
     31928     31930     31928     31931     31915     31917     31932     31933
     31932     31936     31932     31937     31937     31938     31937     31939
     31939     31940     31937     31947     31947     31948     31947     31949
     31949     31950     31947     31951     31951     31952     31951     31953
     31953     31954     31951     31934     31934     31935     31934     31955
     31955     31956     31955     31957     31955     31958     31958     31959
     31934     31936     31939     31941     31941     31942     31941     31943
     31943     31944     31943     31945     31943     31946     31862     31872
     31879     31893     31900     31913     31920     31932     31808     31845
     31960     31961     31960     31964     31960     31965     31965     31966
     31965     31967     31967     31968     31965     31975     31975     31976
     31975     31977     31975     31978     31978     31979     31978     31980
     31980     31981     31978     31962     31962     31963     31962     31982
     31982     31983     31982     31984     31982     31985     31985     31986
     31962     31964     31967     31969     31969     31970     31969     31971
     31971     31972     31971     31973     31971     31974     31987     31988
     31987     31991     31987     31992     31992     31993     31992     31994
     31992     31995     31995     31996     31995     31997     31997     31998
     31995     31999     31999     32000     31999     32001     32001     32002
     31999     31989     31989     31990     31989     32003     32003     32004
     32003     32005     32003     32006     32006     32007     31989     31991
     32008     32009     32008     32012     32008     32013     32013     32014
     32013     32015     32013     32016     32016     32017     32016     32018
     32018     32019     32016     32020     32020     32021     32020     32022
     32022     32023     32020     32010     32010     32011     32010     32024
     32024     32025     32024     32026     32024     32027     32010     32012
     32028     32029     32028     32032     32028     32033     32033     32034
     32033     32035     32033     32036     32036     32037     32036     32038
     32036     32039     32039     32040     32039     32041     32041     32042
     32039     32030     32030     32031     32030     32043     32043     32044
     32043     32045     32043     32046     32030     32032     32047     32048
     32047     32051     32047     32052     32052     32053     32052     32054
     32054     32055     32052     32062     32062     32063     32062     32064
     32064     32065     32062     32066     32066     32067     32066     32068
     32068     32069     32066     32049     32049     32050     32049     32070
     32070     32071     32070     32072     32070     32073     32073     32074
     32049     32051     32054     32056     32056     32057     32056     32058
     32058     32059     32058     32060     32058     32061     31977     31987
     31994     32008     32015     32028     32035     32047     31923     31960
     32075     32076     32075     32079     32075     32080     32080     32081
     32080     32082     32082     32083     32080     32090     32090     32091
     32090     32092     32090     32093     32093     32094     32093     32095
     32095     32096     32093     32077     32077     32078     32077     32097
     32097     32098     32097     32099     32097     32100     32100     32101
     32077     32079     32082     32084     32084     32085     32084     32086
     32086     32087     32086     32088     32086     32089     32102     32103
     32102     32106     32102     32107     32107     32108     32107     32109
     32107     32110     32110     32111     32110     32112     32112     32113
     32110     32114     32114     32115     32114     32116     32116     32117
     32114     32104     32104     32105     32104     32118     32118     32119
     32118     32120     32118     32121     32121     32122     32104     32106
     32123     32124     32123     32127     32123     32128     32128     32129
     32128     32130     32128     32131     32131     32132     32131     32133
     32133     32134     32131     32135     32135     32136     32135     32137
     32137     32138     32135     32125     32125     32126     32125     32139
     32139     32140     32139     32141     32139     32142     32125     32127
     32143     32144     32143     32147     32143     32148     32148     32149
     32148     32150     32148     32151     32151     32152     32151     32153
     32153     32154     32151     32155     32155     32156     32155     32157
     32157     32158     32155     32145     32145     32146     32145     32159
     32159     32160     32159     32161     32159     32162     32145     32147
     32163     32164     32163     32167     32163     32168     32168     32169
     32168     32170     32170     32171     32168     32178     32178     32179
     32178     32180     32180     32181     32178     32182     32182     32183
     32182     32184     32184     32185     32182     32165     32165     32166
     32165     32186     32186     32187     32186     32188     32186     32189
     32189     32190     32165     32167     32170     32172     32172     32173
     32172     32174     32174     32175     32174     32176     32174     32177
     32092     32102     32109     32123     32130     32143     32150     32163
     32038     32075     31605     31615     32216     32217     32216     32218
     32216     32249     32249     32250     32249     32251     32252     32251
     32252     32254     32254     32255     32254     32256     32253     32252
     32254     32257     32257     32258     32257     32259     32257     32260
     32260     32261     32260     32263     32263     32264     32263     32265
     32263     32266     32266     32267     32260     32262     32266     32268
     32266     32269     32269     32270     32269     32271     32269     32272
     32272     32273     32272     32274     32272     32275     32275     32276
     32275     32277     32275     32278     32278     32279     32278     32280
     32278     32281     32281     32282     32281     32283     32281     32284
     32284     32285     32284     32286     32284     32287     32287     32288
     32287     32289     32287     32290     32290     32291     32290     32292
     32290     32293     32249     32294     32294     32295     32294     32296
     32294     32297     32297     32298     32297     32299     32297     32300
     32300     32301     32300     32302     32300     32303     32303     32304
     32303     32305     32303     32306     32306     32307     32306     32308
     32306     32309     32309     32310     32309     32311     32309     32312
     32312     32313     32312     32314     32312     32315     32315     32316
     32315     32317     32315     32318     32318     32319     32318     32320
     32318     32321     32321     32322     32321     32323     32321     32324
     32324     32325     32324     32326     32324     32327     32330     32331
     32330     32332     32330     32333     32333     32334     32333     32335
     32337     32336     32335     32336     32336     32338     32338     32339
     32338     32340     32338     32341     32341     32342     32341     32343
     32341     32344     32344     32345     32344     32346     32344     32347
     32347     32348     32347     32349     32347     32350     32350     32351
     32350     32352     32350     32353     32353     32354     32353     32355
     32353     32356     32356     32357     32356     32358     32356     32359
     32359     32360     32359     32361     32359     32362     32362     32363
     32362     32364     32362     32365     32365     32366     32365     32367
     32365     32368     32368     32369     32368     32370     32368     32371
     32333     32372     32372     32373     32372     32374     32372     32375
     32375     32376     32375     32377     32375     32378     32378     32379
     32378     32380     32378     32381     32381     32382     32381     32383
     32381     32384     32384     32385     32384     32386     32384     32387
     32387     32388     32387     32389     32387     32390     32390     32391
     32390     32392     32390     32393     32393     32394     32393     32395
     32393     32396     32396     32397     32396     32398     32396     32399
     32399     32400     32399     32401     32399     32402     32402     32403
     32402     32404     32402     32405     32240     32241     32240     32242
     32242     32243     32242     32244     32242     32406     32406     32407
     32406     32408     32408     32409     32406     32410     32410     32411
     32410     32412     32410     32413     32413     32414     32413     32415
     32413     32416     32416     32417     32416     32418     32416     32419
     32419     32420     32419     32421     32419     32422     32422     32423
     32422     32424     32422     32425     32425     32426     32425     32427
     32425     32428     32428     32429     32428     32430     32428     32431
     32431     32432     32431     32433     32431     32434     32434     32435
     32434     32436     32434     32437     32437     32438     32437     32439
     32437     32440     32440     32441     32440     32442     32440     32443
     32449     32451     32451     32452     32449     32453     32453     32454
     32453     32455     32453     32456     32456     32457     32456     32458
     32456     32459     32459     32460     32459     32461     32459     32462
     32462     32463     32462     32464     32462     32465     32465     32466
     32465     32467     32465     32468     32468     32469     32468     32470
     32468     32471     32471     32472     32471     32473     32471     32474
     32474     32475     32474     32476     32474     32477     32477     32478
     32477     32479     32477     32480     32480     32481     32480     32482
     32480     32483     32483     32484     32483     32485     32483     32486
     32207     32208     32207     32209     32207     32210     32207     32206
     32206     32204     32204     32205     32204     32195     32195     32197
     32195     32193     32193     32194     32193     32191     32193     32192
     32195     32196     32196     32198     32198     32199     32198     32219
     32219     32220     32219     32221     32221     32222     32221     32328
     32328     32330     32219     32211     32211     32213     32211     32204
     32328     32329     32214     32215     32211     32212     32212     32214
     32214     32216     32198     32200     32201     32200     32201     32202
     32201     32203     32201     32227     32227     32228     32227     32223
     32223     32224     32223     32225     32225     32226     32223     32237
     32237     32238     32237     32239     32239     32240     32237     32245
     32245     32246     32245     32247     32247     32248     32247     32444
     32444     32446     32446     32447     32446     32448     32446     32449
     32245     32230     32230     32231     32230     32229     32230     32232
     32232     32236     32236     32233     32236     32234     32236     32235
     32229     32227     32449     32450     32444     32445     32487     32489
     32487     32490     32490     32494     32487     32488     32494     32495
     32494     32496     32494     32497     32497     32498     32497     32499
     32497     32500     32500     32501     32500     32502     32500     32491
     32491     32492     32491     32493     32491     32503     32503     32504
     32503     32505     32505     32506     32503     32507     32507     32510
     32510     32511     32507     32508     32507     32509     32490     32493
     32512     32514     32512     32515     32515     32519     32512     32513
     32519     32520     32519     32521     32519     32522     32522     32523
     32522     32524     32524     32525     32522     32526     32526     32527
     32526     32528     32528     32529     32526     32516     32516     32517
     32516     32518     32516     32530     32530     32531     32530     32532
     32532     32533     32530     32534     32534     32537     32537     32538
     32534     32535     32534     32536     32515     32518     32539     32540
     32539     32543     32539     32544     32544     32545     32544     32546
     32546     32547     32544     32548     32548     32549     32548     32550
     32548     32551     32551     32552     32551     32553     32551     32541
     32541     32542     32541     32558     32558     32559     32558     32562
     32558     32560     32560     32561     32541     32543     32562     32563
     32562     32564     32562     32565     32565     32566     32567     32568
     32567     32571     32567     32572     32572     32573     32572     32574
     32574     32575     32572     32576     32576     32577     32576     32578
     32576     32579     32579     32580     32579     32581     32579     32569
     32569     32570     32569     32586     32586     32587     32586     32590
     32586     32588     32588     32589     32569     32571     32590     32591
     32590     32592     32590     32593     32594     32595     32594     32598
     32594     32599     32599     32600     32599     32601     32601     32602
     32599     32603     32603     32604     32603     32605     32605     32606
     32603     32607     32607     32608     32607     32609     32609     32610
     32607     32596     32596     32597     32596     32611     32611     32612
     32611     32615     32611     32613     32613     32614     32596     32598
     32615     32616     32615     32617     32615     32618     32618     32619
     32620     32621     32620     32624     32620     32625     32625     32626
     32625     32627     32627     32628     32625     32629     32629     32630
     32629     32631     32629     32632     32632     32633     32632     32634
     32634     32635     32632     32622     32622     32623     32622     32636
     32636     32637     32636     32638     32636     32639     32639     32640
     32622     32624     32641     32642     32641     32645     32641     32646
     32646     32647     32646     32648     32646     32649     32649     32650
     32649     32651     32649     32652     32652     32653     32652     32654
     32654     32655     32652     32643     32643     32644     32643     32656
     32656     32657     32656     32658     32656     32659     32659     32660
     32643     32645     32661     32662     32661     32665     32661     32666
     32666     32667     32666     32668     32666     32669     32669     32670
     32669     32671     32671     32672     32669     32673     32673     32674
     32673     32675     32675     32676     32673     32663     32663     32664
     32663     32677     32677     32678     32677     32679     32677     32680
     32680     32681     32663     32665     32682     32683     32682     32686
     32682     32687     32687     32688     32687     32689     32689     32690
     32687     32691     32691     32692     32691     32693     32693     32694
     32691     32695     32695     32696     32695     32697     32697     32698
     32695     32684     32684     32685     32684     32699     32699     32700
     32699     32701     32699     32702     32702     32703     32684     32686
     32704     32705     32704     32708     32704     32709     32709     32710
     32709     32711     32711     32712     32709     32713     32713     32714
     32713     32715     32713     32716     32716     32717     32716     32718
     32718     32719     32716     32706     32706     32707     32706     32720
     32720     32721     32720     32722     32720     32723     32723     32724
     32706     32708     32499     32515     32502     32539     32550     32567
     32593     32594     32578     32620     32631     32641     32648     32661
     32668     32682     32651     32704     32553     32554     32555     32554
     32556     32554     32557     32554     32581     32582     32583     32582
     32584     32582     32585     32582     32192     32490     32725     32726
     32725     32729     32725     32730     32730     32731     32730     32732
     32732     32733     32730     32740     32740     32741     32740     32742
     32740     32743     32743     32744     32743     32745     32745     32746
     32743     32727     32727     32728     32727     32747     32747     32748
     32747     32749     32747     32750     32750     32751     32727     32729
     32732     32734     32734     32735     32734     32736     32736     32737
     32736     32738     32736     32739     32752     32753     32752     32756
     32752     32757     32757     32758     32757     32759     32757     32760
     32760     32761     32760     32762     32762     32763     32760     32764
     32764     32765     32764     32766     32766     32767     32764     32754
     32754     32755     32754     32768     32768     32769     32768     32770
     32768     32771     32771     32772     32754     32756     32773     32774
     32773     32777     32773     32778     32778     32779     32778     32780
     32778     32781     32781     32782     32781     32783     32783     32784
     32781     32785     32785     32786     32785     32787     32787     32788
     32785     32775     32775     32776     32775     32789     32789     32790
     32789     32791     32789     32792     32775     32777     32793     32794
     32793     32797     32793     32798     32798     32799     32798     32800
     32798     32801     32801     32802     32801     32803     32801     32804
     32804     32805     32804     32806     32806     32807     32804     32795
     32795     32796     32795     32808     32808     32809     32808     32810
     32808     32811     32795     32797     32812     32813     32812     32816
     32812     32817     32817     32818     32817     32819     32819     32820
     32817     32827     32827     32828     32827     32829     32829     32830
     32827     32831     32831     32832     32831     32833     32833     32834
     32831     32814     32814     32815     32814     32835     32835     32836
     32835     32837     32835     32838     32838     32839     32814     32816
     32819     32821     32821     32822     32821     32823     32823     32824
     32823     32825     32823     32826     32742     32752     32759     32773
     32780     32793     32800     32812     32840     32841     32840     32844
     32840     32845     32845     32846     32845     32847     32847     32848
     32845     32855     32855     32856     32855     32857     32855     32858
     32858     32859     32858     32860     32860     32861     32858     32842
     32842     32843     32842     32862     32862     32863     32862     32864
     32862     32865     32865     32866     32842     32844     32847     32849
     32849     32850     32849     32851     32851     32852     32851     32853
     32851     32854     32867     32868     32867     32871     32867     32872
     32872     32873     32872     32874     32872     32875     32875     32876
     32875     32877     32877     32878     32875     32879     32879     32880
     32879     32881     32881     32882     32879     32869     32869     32870
     32869     32883     32883     32884     32883     32885     32883     32886
     32886     32887     32869     32871     32888     32889     32888     32892
     32888     32893     32893     32894     32893     32895     32893     32896
     32896     32897     32896     32898     32898     32899     32896     32900
     32900     32901     32900     32902     32902     32903     32900     32890
     32890     32891     32890     32904     32904     32905     32904     32906
     32904     32907     32890     32892     32908     32909     32908     32912
     32908     32913     32913     32914     32913     32915     32913     32916
     32916     32917     32916     32918     32916     32919     32919     32920
     32919     32921     32921     32922     32919     32910     32910     32911
     32910     32923     32923     32924     32923     32925     32923     32926
     32910     32912     32927     32928     32927     32931     32927     32932
     32932     32933     32932     32934     32934     32935     32932     32942
     32942     32943     32942     32944     32944     32945     32942     32946
     32946     32947     32946     32948     32948     32949     32946     32929
     32929     32930     32929     32950     32950     32951     32950     32952
     32950     32953     32953     32954     32929     32931     32934     32936
     32936     32937     32936     32938     32938     32939     32938     32940
     32938     32941     32857     32867     32874     32888     32895     32908
     32915     32927     32803     32840     32955     32956     32955     32959
     32955     32960     32960     32961     32960     32962     32962     32963
     32960     32970     32970     32971     32970     32972     32970     32973
     32973     32974     32973     32975     32975     32976     32973     32957
     32957     32958     32957     32977     32977     32978     32977     32979
     32977     32980     32980     32981     32957     32959     32962     32964
     32964     32965     32964     32966     32966     32967     32966     32968
     32966     32969     32982     32983     32982     32986     32982     32987
     32987     32988     32987     32989     32987     32990     32990     32991
     32990     32992     32992     32993     32990     32994     32994     32995
     32994     32996     32996     32997     32994     32984     32984     32985
     32984     32998     32998     32999     32998     33000     32998     33001
     33001     33002     32984     32986     33003     33004     33003     33007
     33003     33008     33008     33009     33008     33010     33008     33011
     33011     33012     33011     33013     33013     33014     33011     33015
     33015     33016     33015     33017     33017     33018     33015     33005
     33005     33006     33005     33019     33019     33020     33019     33021
     33019     33022     33005     33007     33023     33024     33023     33027
     33023     33028     33028     33029     33028     33030     33028     33031
     33031     33032     33031     33033     33031     33034     33034     33035
     33034     33036     33036     33037     33034     33025     33025     33026
     33025     33038     33038     33039     33038     33040     33038     33041
     33025     33027     33042     33043     33042     33046     33042     33047
     33047     33048     33047     33049     33049     33050     33047     33057
     33057     33058     33057     33059     33059     33060     33057     33061
     33061     33062     33061     33063     33063     33064     33061     33044
     33044     33045     33044     33065     33065     33066     33065     33067
     33065     33068     33068     33069     33044     33046     33049     33051
     33051     33052     33051     33053     33053     33054     33053     33055
     33053     33056     32972     32982     32989     33003     33010     33023
     33030     33042     32918     32955     33070     33071     33070     33074
     33070     33075     33075     33076     33075     33077     33077     33078
     33075     33085     33085     33086     33085     33087     33085     33088
     33088     33089     33088     33090     33090     33091     33088     33072
     33072     33073     33072     33092     33092     33093     33092     33094
     33092     33095     33095     33096     33072     33074     33077     33079
     33079     33080     33079     33081     33081     33082     33081     33083
     33081     33084     33097     33098     33097     33101     33097     33102
     33102     33103     33102     33104     33102     33105     33105     33106
     33105     33107     33107     33108     33105     33109     33109     33110
     33109     33111     33111     33112     33109     33099     33099     33100
     33099     33113     33113     33114     33113     33115     33113     33116
     33116     33117     33099     33101     33118     33119     33118     33122
     33118     33123     33123     33124     33123     33125     33123     33126
     33126     33127     33126     33128     33128     33129     33126     33130
     33130     33131     33130     33132     33132     33133     33130     33120
     33120     33121     33120     33134     33134     33135     33134     33136
     33134     33137     33120     33122     33138     33139     33138     33142
     33138     33143     33143     33144     33143     33145     33143     33146
     33146     33147     33146     33148     33146     33149     33149     33150
     33149     33151     33151     33152     33149     33140     33140     33141
     33140     33153     33153     33154     33153     33155     33153     33156
     33140     33142     33157     33158     33157     33161     33157     33162
     33162     33163     33162     33164     33164     33165     33162     33172
     33172     33173     33172     33174     33174     33175     33172     33176
     33176     33177     33176     33178     33178     33179     33176     33159
     33159     33160     33159     33180     33180     33181     33180     33182
     33180     33183     33183     33184     33159     33161     33164     33166
     33166     33167     33166     33168     33168     33169     33168     33170
     33168     33171     33087     33097     33104     33118     33125     33138
     33145     33157     33033     33070     33185     33186     33185     33189
     33185     33190     33190     33191     33190     33192     33192     33193
     33190     33200     33200     33201     33200     33202     33200     33203
     33203     33204     33203     33205     33205     33206     33203     33187
     33187     33188     33187     33207     33207     33208     33207     33209
     33207     33210     33210     33211     33187     33189     33192     33194
     33194     33195     33194     33196     33196     33197     33196     33198
     33196     33199     33212     33213     33212     33216     33212     33217
     33217     33218     33217     33219     33217     33220     33220     33221
     33220     33222     33222     33223     33220     33224     33224     33225
     33224     33226     33226     33227     33224     33214     33214     33215
     33214     33228     33228     33229     33228     33230     33228     33231
     33231     33232     33214     33216     33233     33234     33233     33237
     33233     33238     33238     33239     33238     33240     33238     33241
     33241     33242     33241     33243     33243     33244     33241     33245
     33245     33246     33245     33247     33247     33248     33245     33235
     33235     33236     33235     33249     33249     33250     33249     33251
     33249     33252     33235     33237     33253     33254     33253     33257
     33253     33258     33258     33259     33258     33260     33258     33261
     33261     33262     33261     33263     33263     33264     33261     33265
     33265     33266     33265     33267     33267     33268     33265     33255
     33255     33256     33255     33269     33269     33270     33269     33271
     33269     33272     33255     33257     33273     33274     33273     33277
     33273     33278     33278     33279     33278     33280     33280     33281
     33278     33288     33288     33289     33288     33290     33290     33291
     33288     33292     33292     33293     33292     33294     33294     33295
     33292     33275     33275     33276     33275     33296     33296     33297
     33296     33298     33296     33299     33299     33300     33275     33277
     33280     33282     33282     33283     33282     33284     33284     33285
     33284     33286     33284     33287     33202     33212     33219     33233
     33240     33253     33260     33273     33148     33185     32715     32725
     33326     33327     33326     33328     33326     33359     33359     33360
     33359     33361     33362     33361     33362     33364     33364     33365
     33364     33366     33363     33362     33364     33367     33367     33368
     33367     33369     33367     33370     33370     33371     33370     33373
     33373     33374     33373     33375     33373     33376     33376     33377
     33370     33372     33376     33378     33376     33379     33379     33380
     33379     33381     33379     33382     33382     33383     33382     33384
     33382     33385     33385     33386     33385     33387     33385     33388
     33388     33389     33388     33390     33388     33391     33391     33392
     33391     33393     33391     33394     33394     33395     33394     33396
     33394     33397     33397     33398     33397     33399     33397     33400
     33400     33401     33400     33402     33400     33403     33359     33404
     33404     33405     33404     33406     33404     33407     33407     33408
     33407     33409     33407     33410     33410     33411     33410     33412
     33410     33413     33413     33414     33413     33415     33413     33416
     33416     33417     33416     33418     33416     33419     33419     33420
     33419     33421     33419     33422     33422     33423     33422     33424
     33422     33425     33425     33426     33425     33427     33425     33428
     33428     33429     33428     33430     33428     33431     33431     33432
     33431     33433     33431     33434     33434     33435     33434     33436
     33434     33437     33440     33441     33440     33442     33440     33443
     33443     33444     33443     33445     33447     33446     33445     33446
     33446     33448     33448     33449     33448     33450     33448     33451
     33451     33452     33451     33453     33451     33454     33454     33455
     33454     33456     33454     33457     33457     33458     33457     33459
     33457     33460     33460     33461     33460     33462     33460     33463
     33463     33464     33463     33465     33463     33466     33466     33467
     33466     33468     33466     33469     33469     33470     33469     33471
     33469     33472     33472     33473     33472     33474     33472     33475
     33475     33476     33475     33477     33475     33478     33478     33479
     33478     33480     33478     33481     33443     33482     33482     33483
     33482     33484     33482     33485     33485     33486     33485     33487
     33485     33488     33488     33489     33488     33490     33488     33491
     33491     33492     33491     33493     33491     33494     33494     33495
     33494     33496     33494     33497     33497     33498     33497     33499
     33497     33500     33500     33501     33500     33502     33500     33503
     33503     33504     33503     33505     33503     33506     33506     33507
     33506     33508     33506     33509     33509     33510     33509     33511
     33509     33512     33512     33513     33512     33514     33512     33515
     33350     33351     33350     33352     33352     33353     33352     33354
     33352     33516     33516     33517     33516     33518     33518     33519
     33516     33520     33520     33521     33520     33522     33520     33523
     33523     33524     33523     33525     33523     33526     33526     33527
     33526     33528     33526     33529     33529     33530     33529     33531
     33529     33532     33532     33533     33532     33534     33532     33535
     33535     33536     33535     33537     33535     33538     33538     33539
     33538     33540     33538     33541     33541     33542     33541     33543
     33541     33544     33544     33545     33544     33546     33544     33547
     33547     33548     33547     33549     33547     33550     33550     33551
     33550     33552     33550     33553     33559     33561     33561     33562
     33559     33563     33563     33564     33563     33565     33563     33566
     33566     33567     33566     33568     33566     33569     33569     33570
     33569     33571     33569     33572     33572     33573     33572     33574
     33572     33575     33575     33576     33575     33577     33575     33578
     33578     33579     33578     33580     33578     33581     33581     33582
     33581     33583     33581     33584     33584     33585     33584     33586
     33584     33587     33587     33588     33587     33589     33587     33590
     33590     33591     33590     33592     33590     33593     33593     33594
     33593     33595     33593     33596     33317     33318     33317     33319
     33317     33320     33317     33316     33316     33314     33314     33315
     33314     33305     33305     33307     33305     33303     33303     33304
     33303     33301     33303     33302     33305     33306     33306     33308
     33308     33309     33308     33329     33329     33330     33329     33331
     33331     33332     33331     33438     33438     33440     33329     33321
     33321     33323     33321     33314     33438     33439     33324     33325
     33321     33322     33322     33324     33324     33326     33308     33310
     33311     33310     33311     33312     33311     33313     33311     33337
     33337     33338     33337     33333     33333     33334     33333     33335
     33335     33336     33333     33347     33347     33348     33347     33349
     33349     33350     33347     33355     33355     33356     33355     33357
     33357     33358     33357     33554     33554     33556     33556     33557
     33556     33558     33556     33559     33355     33340     33340     33341
     33340     33339     33340     33342     33342     33346     33346     33343
     33346     33344     33346     33345     33339     33337     33559     33560
     33554     33555     33597     33599     33597     33600     33600     33604
     33597     33598     33604     33605     33604     33606     33604     33607
     33607     33608     33607     33609     33607     33610     33610     33611
     33610     33612     33610     33601     33601     33602     33601     33603
     33601     33613     33613     33614     33613     33615     33615     33616
     33613     33617     33617     33620     33620     33621     33617     33618
     33617     33619     33600     33603     33622     33624     33622     33625
     33625     33629     33622     33623     33629     33630     33629     33631
     33629     33632     33632     33633     33632     33634     33634     33635
     33632     33636     33636     33637     33636     33638     33638     33639
     33636     33626     33626     33627     33626     33628     33626     33640
     33640     33641     33640     33642     33642     33643     33640     33644
     33644     33647     33647     33648     33644     33645     33644     33646
     33625     33628     33649     33650     33649     33653     33649     33654
     33654     33655     33654     33656     33656     33657     33654     33658
     33658     33659     33658     33660     33658     33661     33661     33662
     33661     33663     33661     33651     33651     33652     33651     33668
     33668     33669     33668     33672     33668     33670     33670     33671
     33651     33653     33672     33673     33672     33674     33672     33675
     33675     33676     33677     33678     33677     33681     33677     33682
     33682     33683     33682     33684     33684     33685     33682     33686
     33686     33687     33686     33688     33686     33689     33689     33690
     33689     33691     33689     33679     33679     33680     33679     33696
     33696     33697     33696     33700     33696     33698     33698     33699
     33679     33681     33700     33701     33700     33702     33700     33703
     33704     33705     33704     33708     33704     33709     33709     33710
     33709     33711     33711     33712     33709     33713     33713     33714
     33713     33715     33715     33716     33713     33717     33717     33718
     33717     33719     33719     33720     33717     33706     33706     33707
     33706     33721     33721     33722     33721     33725     33721     33723
     33723     33724     33706     33708     33725     33726     33725     33727
     33725     33728     33728     33729     33730     33731     33730     33734
     33730     33735     33735     33736     33735     33737     33737     33738
     33735     33739     33739     33740     33739     33741     33739     33742
     33742     33743     33742     33744     33744     33745     33742     33732
     33732     33733     33732     33746     33746     33747     33746     33748
     33746     33749     33749     33750     33732     33734     33751     33752
     33751     33755     33751     33756     33756     33757     33756     33758
     33756     33759     33759     33760     33759     33761     33759     33762
     33762     33763     33762     33764     33764     33765     33762     33753
     33753     33754     33753     33766     33766     33767     33766     33768
     33766     33769     33769     33770     33753     33755     33771     33772
     33771     33775     33771     33776     33776     33777     33776     33778
     33776     33779     33779     33780     33779     33781     33781     33782
     33779     33783     33783     33784     33783     33785     33785     33786
     33783     33773     33773     33774     33773     33787     33787     33788
     33787     33789     33787     33790     33790     33791     33773     33775
     33792     33793     33792     33796     33792     33797     33797     33798
     33797     33799     33799     33800     33797     33801     33801     33802
     33801     33803     33803     33804     33801     33805     33805     33806
     33805     33807     33807     33808     33805     33794     33794     33795
     33794     33809     33809     33810     33809     33811     33809     33812
     33812     33813     33794     33796     33814     33815     33814     33818
     33814     33819     33819     33820     33819     33821     33821     33822
     33819     33823     33823     33824     33823     33825     33823     33826
     33826     33827     33826     33828     33828     33829     33826     33816
     33816     33817     33816     33830     33830     33831     33830     33832
     33830     33833     33833     33834     33816     33818     33609     33625
     33612     33649     33660     33677     33703     33704     33688     33730
     33741     33751     33758     33771     33778     33792     33761     33814
     33663     33664     33665     33664     33666     33664     33667     33664
     33691     33692     33693     33692     33694     33692     33695     33692
     33302     33600     33835     33836     33835     33839     33835     33840
     33840     33841     33840     33842     33842     33843     33840     33850
     33850     33851     33850     33852     33850     33853     33853     33854
     33853     33855     33855     33856     33853     33837     33837     33838
     33837     33857     33857     33858     33857     33859     33857     33860
     33860     33861     33837     33839     33842     33844     33844     33845
     33844     33846     33846     33847     33846     33848     33846     33849
     33862     33863     33862     33866     33862     33867     33867     33868
     33867     33869     33867     33870     33870     33871     33870     33872
     33872     33873     33870     33874     33874     33875     33874     33876
     33876     33877     33874     33864     33864     33865     33864     33878
     33878     33879     33878     33880     33878     33881     33881     33882
     33864     33866     33883     33884     33883     33887     33883     33888
     33888     33889     33888     33890     33888     33891     33891     33892
     33891     33893     33893     33894     33891     33895     33895     33896
     33895     33897     33897     33898     33895     33885     33885     33886
     33885     33899     33899     33900     33899     33901     33899     33902
     33885     33887     33903     33904     33903     33907     33903     33908
     33908     33909     33908     33910     33908     33911     33911     33912
     33911     33913     33911     33914     33914     33915     33914     33916
     33916     33917     33914     33905     33905     33906     33905     33918
     33918     33919     33918     33920     33918     33921     33905     33907
     33922     33923     33922     33926     33922     33927     33927     33928
     33927     33929     33929     33930     33927     33937     33937     33938
     33937     33939     33939     33940     33937     33941     33941     33942
     33941     33943     33943     33944     33941     33924     33924     33925
     33924     33945     33945     33946     33945     33947     33945     33948
     33948     33949     33924     33926     33929     33931     33931     33932
     33931     33933     33933     33934     33933     33935     33933     33936
     33852     33862     33869     33883     33890     33903     33910     33922
     33950     33951     33950     33954     33950     33955     33955     33956
     33955     33957     33957     33958     33955     33965     33965     33966
     33965     33967     33965     33968     33968     33969     33968     33970
     33970     33971     33968     33952     33952     33953     33952     33972
     33972     33973     33972     33974     33972     33975     33975     33976
     33952     33954     33957     33959     33959     33960     33959     33961
     33961     33962     33961     33963     33961     33964     33977     33978
     33977     33981     33977     33982     33982     33983     33982     33984
     33982     33985     33985     33986     33985     33987     33987     33988
     33985     33989     33989     33990     33989     33991     33991     33992
     33989     33979     33979     33980     33979     33993     33993     33994
     33993     33995     33993     33996     33996     33997     33979     33981
     33998     33999     33998     34002     33998     34003     34003     34004
     34003     34005     34003     34006     34006     34007     34006     34008
     34008     34009     34006     34010     34010     34011     34010     34012
     34012     34013     34010     34000     34000     34001     34000     34014
     34014     34015     34014     34016     34014     34017     34000     34002
     34018     34019     34018     34022     34018     34023     34023     34024
     34023     34025     34023     34026     34026     34027     34026     34028
     34026     34029     34029     34030     34029     34031     34031     34032
     34029     34020     34020     34021     34020     34033     34033     34034
     34033     34035     34033     34036     34020     34022     34037     34038
     34037     34041     34037     34042     34042     34043     34042     34044
     34044     34045     34042     34052     34052     34053     34052     34054
     34054     34055     34052     34056     34056     34057     34056     34058
     34058     34059     34056     34039     34039     34040     34039     34060
     34060     34061     34060     34062     34060     34063     34063     34064
     34039     34041     34044     34046     34046     34047     34046     34048
     34048     34049     34048     34050     34048     34051     33967     33977
     33984     33998     34005     34018     34025     34037     33913     33950
     34065     34066     34065     34069     34065     34070     34070     34071
     34070     34072     34072     34073     34070     34080     34080     34081
     34080     34082     34080     34083     34083     34084     34083     34085
     34085     34086     34083     34067     34067     34068     34067     34087
     34087     34088     34087     34089     34087     34090     34090     34091
     34067     34069     34072     34074     34074     34075     34074     34076
     34076     34077     34076     34078     34076     34079     34092     34093
     34092     34096     34092     34097     34097     34098     34097     34099
     34097     34100     34100     34101     34100     34102     34102     34103
     34100     34104     34104     34105     34104     34106     34106     34107
     34104     34094     34094     34095     34094     34108     34108     34109
     34108     34110     34108     34111     34111     34112     34094     34096
     34113     34114     34113     34117     34113     34118     34118     34119
     34118     34120     34118     34121     34121     34122     34121     34123
     34123     34124     34121     34125     34125     34126     34125     34127
     34127     34128     34125     34115     34115     34116     34115     34129
     34129     34130     34129     34131     34129     34132     34115     34117
     34133     34134     34133     34137     34133     34138     34138     34139
     34138     34140     34138     34141     34141     34142     34141     34143
     34141     34144     34144     34145     34144     34146     34146     34147
     34144     34135     34135     34136     34135     34148     34148     34149
     34148     34150     34148     34151     34135     34137     34152     34153
     34152     34156     34152     34157     34157     34158     34157     34159
     34159     34160     34157     34167     34167     34168     34167     34169
     34169     34170     34167     34171     34171     34172     34171     34173
     34173     34174     34171     34154     34154     34155     34154     34175
     34175     34176     34175     34177     34175     34178     34178     34179
     34154     34156     34159     34161     34161     34162     34161     34163
     34163     34164     34163     34165     34163     34166     34082     34092
     34099     34113     34120     34133     34140     34152     34028     34065
     34180     34181     34180     34184     34180     34185     34185     34186
     34185     34187     34187     34188     34185     34195     34195     34196
     34195     34197     34195     34198     34198     34199     34198     34200
     34200     34201     34198     34182     34182     34183     34182     34202
     34202     34203     34202     34204     34202     34205     34205     34206
     34182     34184     34187     34189     34189     34190     34189     34191
     34191     34192     34191     34193     34191     34194     34207     34208
     34207     34211     34207     34212     34212     34213     34212     34214
     34212     34215     34215     34216     34215     34217     34217     34218
     34215     34219     34219     34220     34219     34221     34221     34222
     34219     34209     34209     34210     34209     34223     34223     34224
     34223     34225     34223     34226     34226     34227     34209     34211
     34228     34229     34228     34232     34228     34233     34233     34234
     34233     34235     34233     34236     34236     34237     34236     34238
     34238     34239     34236     34240     34240     34241     34240     34242
     34242     34243     34240     34230     34230     34231     34230     34244
     34244     34245     34244     34246     34244     34247     34230     34232
     34248     34249     34248     34252     34248     34253     34253     34254
     34253     34255     34253     34256     34256     34257     34256     34258
     34256     34259     34259     34260     34259     34261     34261     34262
     34259     34250     34250     34251     34250     34263     34263     34264
     34263     34265     34263     34266     34250     34252     34267     34268
     34267     34271     34267     34272     34272     34273     34272     34274
     34274     34275     34272     34282     34282     34283     34282     34284
     34284     34285     34282     34286     34286     34287     34286     34288
     34288     34289     34286     34269     34269     34270     34269     34290
     34290     34291     34290     34292     34290     34293     34293     34294
     34269     34271     34274     34276     34276     34277     34276     34278
     34278     34279     34278     34280     34278     34281     34197     34207
     34214     34228     34235     34248     34255     34267     34143     34180
     34295     34296     34295     34299     34295     34300     34300     34301
     34300     34302     34302     34303     34300     34310     34310     34311
     34310     34312     34310     34313     34313     34314     34313     34315
     34315     34316     34313     34297     34297     34298     34297     34317
     34317     34318     34317     34319     34317     34320     34320     34321
     34297     34299     34302     34304     34304     34305     34304     34306
     34306     34307     34306     34308     34306     34309     34322     34323
     34322     34326     34322     34327     34327     34328     34327     34329
     34327     34330     34330     34331     34330     34332     34332     34333
     34330     34334     34334     34335     34334     34336     34336     34337
     34334     34324     34324     34325     34324     34338     34338     34339
     34338     34340     34338     34341     34341     34342     34324     34326
     34343     34344     34343     34347     34343     34348     34348     34349
     34348     34350     34348     34351     34351     34352     34351     34353
     34353     34354     34351     34355     34355     34356     34355     34357
     34357     34358     34355     34345     34345     34346     34345     34359
     34359     34360     34359     34361     34359     34362     34345     34347
     34363     34364     34363     34367     34363     34368     34368     34369
     34368     34370     34368     34371     34371     34372     34371     34373
     34373     34374     34371     34375     34375     34376     34375     34377
     34377     34378     34375     34365     34365     34366     34365     34379
     34379     34380     34379     34381     34379     34382     34365     34367
     34383     34384     34383     34387     34383     34388     34388     34389
     34388     34390     34390     34391     34388     34398     34398     34399
     34398     34400     34400     34401     34398     34402     34402     34403
     34402     34404     34404     34405     34402     34385     34385     34386
     34385     34406     34406     34407     34406     34408     34406     34409
     34409     34410     34385     34387     34390     34392     34392     34393
     34392     34394     34394     34395     34394     34396     34394     34397
     34312     34322     34329     34343     34350     34363     34370     34383
     34258     34295     33825     33835     34436     34437     34436     34438
     34436     34469     34469     34470     34469     34471     34472     34471
     34472     34474     34474     34475     34474     34476     34473     34472
     34474     34477     34477     34478     34477     34479     34477     34480
     34480     34481     34480     34483     34483     34484     34483     34485
     34483     34486     34486     34487     34480     34482     34486     34488
     34486     34489     34489     34490     34489     34491     34489     34492
     34492     34493     34492     34494     34492     34495     34495     34496
     34495     34497     34495     34498     34498     34499     34498     34500
     34498     34501     34501     34502     34501     34503     34501     34504
     34504     34505     34504     34506     34504     34507     34507     34508
     34507     34509     34507     34510     34510     34511     34510     34512
     34510     34513     34469     34514     34514     34515     34514     34516
     34514     34517     34517     34518     34517     34519     34517     34520
     34520     34521     34520     34522     34520     34523     34523     34524
     34523     34525     34523     34526     34526     34527     34526     34528
     34526     34529     34529     34530     34529     34531     34529     34532
     34532     34533     34532     34534     34532     34535     34535     34536
     34535     34537     34535     34538     34538     34539     34538     34540
     34538     34541     34541     34542     34541     34543     34541     34544
     34544     34545     34544     34546     34544     34547     34550     34551
     34550     34552     34550     34553     34553     34554     34553     34555
     34557     34556     34555     34556     34556     34558     34558     34559
     34558     34560     34558     34561     34561     34562     34561     34563
     34561     34564     34564     34565     34564     34566     34564     34567
     34567     34568     34567     34569     34567     34570     34570     34571
     34570     34572     34570     34573     34573     34574     34573     34575
     34573     34576     34576     34577     34576     34578     34576     34579
     34579     34580     34579     34581     34579     34582     34582     34583
     34582     34584     34582     34585     34585     34586     34585     34587
     34585     34588     34588     34589     34588     34590     34588     34591
     34553     34592     34592     34593     34592     34594     34592     34595
     34595     34596     34595     34597     34595     34598     34598     34599
     34598     34600     34598     34601     34601     34602     34601     34603
     34601     34604     34604     34605     34604     34606     34604     34607
     34607     34608     34607     34609     34607     34610     34610     34611
     34610     34612     34610     34613     34613     34614     34613     34615
     34613     34616     34616     34617     34616     34618     34616     34619
     34619     34620     34619     34621     34619     34622     34622     34623
     34622     34624     34622     34625     34460     34461     34460     34462
     34462     34463     34462     34464     34462     34626     34626     34627
     34626     34628     34628     34629     34626     34630     34630     34631
     34630     34632     34630     34633     34633     34634     34633     34635
     34633     34636     34636     34637     34636     34638     34636     34639
     34639     34640     34639     34641     34639     34642     34642     34643
     34642     34644     34642     34645     34645     34646     34645     34647
     34645     34648     34648     34649     34648     34650     34648     34651
     34651     34652     34651     34653     34651     34654     34654     34655
     34654     34656     34654     34657     34657     34658     34657     34659
     34657     34660     34660     34661     34660     34662     34660     34663
     34669     34671     34671     34672     34669     34673     34673     34674
     34673     34675     34673     34676     34676     34677     34676     34678
     34676     34679     34679     34680     34679     34681     34679     34682
     34682     34683     34682     34684     34682     34685     34685     34686
     34685     34687     34685     34688     34688     34689     34688     34690
     34688     34691     34691     34692     34691     34693     34691     34694
     34694     34695     34694     34696     34694     34697     34697     34698
     34697     34699     34697     34700     34700     34701     34700     34702
     34700     34703     34703     34704     34703     34705     34703     34706
     34427     34428     34427     34429     34427     34430     34427     34426
     34426     34424     34424     34425     34424     34415     34415     34417
     34415     34413     34413     34414     34413     34411     34413     34412
     34415     34416     34416     34418     34418     34419     34418     34439
     34439     34440     34439     34441     34441     34442     34441     34548
     34548     34550     34439     34431     34431     34433     34431     34424
     34548     34549     34434     34435     34431     34432     34432     34434
     34434     34436     34418     34420     34421     34420     34421     34422
     34421     34423     34421     34447     34447     34448     34447     34443
     34443     34444     34443     34445     34445     34446     34443     34457
     34457     34458     34457     34459     34459     34460     34457     34465
     34465     34466     34465     34467     34467     34468     34467     34664
     34664     34666     34666     34667     34666     34668     34666     34669
     34465     34450     34450     34451     34450     34449     34450     34452
     34452     34456     34456     34453     34456     34454     34456     34455
     34449     34447     34669     34670     34664     34665     34707     34709
     34707     34710     34710     34714     34707     34708     34714     34715
     34714     34716     34714     34717     34717     34718     34717     34719
     34717     34720     34720     34721     34720     34722     34720     34711
     34711     34712     34711     34713     34711     34723     34723     34724
     34723     34725     34725     34726     34723     34727     34727     34730
     34730     34731     34727     34728     34727     34729     34710     34713
     34732     34734     34732     34735     34735     34739     34732     34733
     34739     34740     34739     34741     34739     34742     34742     34743
     34742     34744     34744     34745     34742     34746     34746     34747
     34746     34748     34748     34749     34746     34736     34736     34737
     34736     34738     34736     34750     34750     34751     34750     34752
     34752     34753     34750     34754     34754     34757     34757     34758
     34754     34755     34754     34756     34735     34738     34759     34760
     34759     34763     34759     34764     34764     34765     34764     34766
     34766     34767     34764     34768     34768     34769     34768     34770
     34768     34771     34771     34772     34771     34773     34771     34761
     34761     34762     34761     34778     34778     34779     34778     34782
     34778     34780     34780     34781     34761     34763     34782     34783
     34782     34784     34782     34785     34785     34786     34787     34788
     34787     34791     34787     34792     34792     34793     34792     34794
     34794     34795     34792     34796     34796     34797     34796     34798
     34796     34799     34799     34800     34799     34801     34799     34789
     34789     34790     34789     34806     34806     34807     34806     34810
     34806     34808     34808     34809     34789     34791     34810     34811
     34810     34812     34810     34813     34814     34815     34814     34818
     34814     34819     34819     34820     34819     34821     34821     34822
     34819     34823     34823     34824     34823     34825     34825     34826
     34823     34827     34827     34828     34827     34829     34829     34830
     34827     34816     34816     34817     34816     34831     34831     34832
     34831     34835     34831     34833     34833     34834     34816     34818
     34835     34836     34835     34837     34835     34838     34838     34839
     34840     34841     34840     34844     34840     34845     34845     34846
     34845     34847     34847     34848     34845     34849     34849     34850
     34849     34851     34849     34852     34852     34853     34852     34854
     34854     34855     34852     34842     34842     34843     34842     34856
     34856     34857     34856     34858     34856     34859     34859     34860
     34842     34844     34861     34862     34861     34865     34861     34866
     34866     34867     34866     34868     34866     34869     34869     34870
     34869     34871     34869     34872     34872     34873     34872     34874
     34874     34875     34872     34863     34863     34864     34863     34876
     34876     34877     34876     34878     34876     34879     34879     34880
     34863     34865     34881     34882     34881     34885     34881     34886
     34886     34887     34886     34888     34886     34889     34889     34890
     34889     34891     34891     34892     34889     34893     34893     34894
     34893     34895     34895     34896     34893     34883     34883     34884
     34883     34897     34897     34898     34897     34899     34897     34900
     34900     34901     34883     34885     34902     34903     34902     34906
     34902     34907     34907     34908     34907     34909     34909     34910
     34907     34911     34911     34912     34911     34913     34913     34914
     34911     34915     34915     34916     34915     34917     34917     34918
     34915     34904     34904     34905     34904     34919     34919     34920
     34919     34921     34919     34922     34922     34923     34904     34906
     34924     34925     34924     34928     34924     34929     34929     34930
     34929     34931     34931     34932     34929     34933     34933     34934
     34933     34935     34933     34936     34936     34937     34936     34938
     34938     34939     34936     34926     34926     34927     34926     34940
     34940     34941     34940     34942     34940     34943     34943     34944
     34926     34928     34719     34735     34722     34759     34770     34787
     34813     34814     34798     34840     34851     34861     34868     34881
     34888     34902     34871     34924     34773     34774     34775     34774
     34776     34774     34777     34774     34801     34802     34803     34802
     34804     34802     34805     34802     34412     34710     34945     34946
     34945     34949     34945     34950     34950     34951     34950     34952
     34952     34953     34950     34960     34960     34961     34960     34962
     34960     34963     34963     34964     34963     34965     34965     34966
     34963     34947     34947     34948     34947     34967     34967     34968
     34967     34969     34967     34970     34970     34971     34947     34949
     34952     34954     34954     34955     34954     34956     34956     34957
     34956     34958     34956     34959     34972     34973     34972     34976
     34972     34977     34977     34978     34977     34979     34977     34980
     34980     34981     34980     34982     34982     34983     34980     34984
     34984     34985     34984     34986     34986     34987     34984     34974
     34974     34975     34974     34988     34988     34989     34988     34990
     34988     34991     34991     34992     34974     34976     34993     34994
     34993     34997     34993     34998     34998     34999     34998     35000
     34998     35001     35001     35002     35001     35003     35003     35004
     35001     35005     35005     35006     35005     35007     35007     35008
     35005     34995     34995     34996     34995     35009     35009     35010
     35009     35011     35009     35012     34995     34997     35013     35014
     35013     35017     35013     35018     35018     35019     35018     35020
     35018     35021     35021     35022     35021     35023     35021     35024
     35024     35025     35024     35026     35026     35027     35024     35015
     35015     35016     35015     35028     35028     35029     35028     35030
     35028     35031     35015     35017     35032     35033     35032     35036
     35032     35037     35037     35038     35037     35039     35039     35040
     35037     35047     35047     35048     35047     35049     35049     35050
     35047     35051     35051     35052     35051     35053     35053     35054
     35051     35034     35034     35035     35034     35055     35055     35056
     35055     35057     35055     35058     35058     35059     35034     35036
     35039     35041     35041     35042     35041     35043     35043     35044
     35043     35045     35043     35046     34962     34972     34979     34993
     35000     35013     35020     35032     35060     35061     35060     35064
     35060     35065     35065     35066     35065     35067     35067     35068
     35065     35075     35075     35076     35075     35077     35075     35078
     35078     35079     35078     35080     35080     35081     35078     35062
     35062     35063     35062     35082     35082     35083     35082     35084
     35082     35085     35085     35086     35062     35064     35067     35069
     35069     35070     35069     35071     35071     35072     35071     35073
     35071     35074     35087     35088     35087     35091     35087     35092
     35092     35093     35092     35094     35092     35095     35095     35096
     35095     35097     35097     35098     35095     35099     35099     35100
     35099     35101     35101     35102     35099     35089     35089     35090
     35089     35103     35103     35104     35103     35105     35103     35106
     35106     35107     35089     35091     35108     35109     35108     35112
     35108     35113     35113     35114     35113     35115     35113     35116
     35116     35117     35116     35118     35118     35119     35116     35120
     35120     35121     35120     35122     35122     35123     35120     35110
     35110     35111     35110     35124     35124     35125     35124     35126
     35124     35127     35110     35112     35128     35129     35128     35132
     35128     35133     35133     35134     35133     35135     35133     35136
     35136     35137     35136     35138     35136     35139     35139     35140
     35139     35141     35141     35142     35139     35130     35130     35131
     35130     35143     35143     35144     35143     35145     35143     35146
     35130     35132     35147     35148     35147     35151     35147     35152
     35152     35153     35152     35154     35154     35155     35152     35162
     35162     35163     35162     35164     35164     35165     35162     35166
     35166     35167     35166     35168     35168     35169     35166     35149
     35149     35150     35149     35170     35170     35171     35170     35172
     35170     35173     35173     35174     35149     35151     35154     35156
     35156     35157     35156     35158     35158     35159     35158     35160
     35158     35161     35077     35087     35094     35108     35115     35128
     35135     35147     35023     35060     35175     35176     35175     35179
     35175     35180     35180     35181     35180     35182     35182     35183
     35180     35190     35190     35191     35190     35192     35190     35193
     35193     35194     35193     35195     35195     35196     35193     35177
     35177     35178     35177     35197     35197     35198     35197     35199
     35197     35200     35200     35201     35177     35179     35182     35184
     35184     35185     35184     35186     35186     35187     35186     35188
     35186     35189     35202     35203     35202     35206     35202     35207
     35207     35208     35207     35209     35207     35210     35210     35211
     35210     35212     35212     35213     35210     35214     35214     35215
     35214     35216     35216     35217     35214     35204     35204     35205
     35204     35218     35218     35219     35218     35220     35218     35221
     35221     35222     35204     35206     35223     35224     35223     35227
     35223     35228     35228     35229     35228     35230     35228     35231
     35231     35232     35231     35233     35233     35234     35231     35235
     35235     35236     35235     35237     35237     35238     35235     35225
     35225     35226     35225     35239     35239     35240     35239     35241
     35239     35242     35225     35227     35243     35244     35243     35247
     35243     35248     35248     35249     35248     35250     35248     35251
     35251     35252     35251     35253     35251     35254     35254     35255
     35254     35256     35256     35257     35254     35245     35245     35246
     35245     35258     35258     35259     35258     35260     35258     35261
     35245     35247     35262     35263     35262     35266     35262     35267
     35267     35268     35267     35269     35269     35270     35267     35277
     35277     35278     35277     35279     35279     35280     35277     35281
     35281     35282     35281     35283     35283     35284     35281     35264
     35264     35265     35264     35285     35285     35286     35285     35287
     35285     35288     35288     35289     35264     35266     35269     35271
     35271     35272     35271     35273     35273     35274     35273     35275
     35273     35276     35192     35202     35209     35223     35230     35243
     35250     35262     35138     35175     35290     35291     35290     35294
     35290     35295     35295     35296     35295     35297     35297     35298
     35295     35305     35305     35306     35305     35307     35305     35308
     35308     35309     35308     35310     35310     35311     35308     35292
     35292     35293     35292     35312     35312     35313     35312     35314
     35312     35315     35315     35316     35292     35294     35297     35299
     35299     35300     35299     35301     35301     35302     35301     35303
     35301     35304     35317     35318     35317     35321     35317     35322
     35322     35323     35322     35324     35322     35325     35325     35326
     35325     35327     35327     35328     35325     35329     35329     35330
     35329     35331     35331     35332     35329     35319     35319     35320
     35319     35333     35333     35334     35333     35335     35333     35336
     35336     35337     35319     35321     35338     35339     35338     35342
     35338     35343     35343     35344     35343     35345     35343     35346
     35346     35347     35346     35348     35348     35349     35346     35350
     35350     35351     35350     35352     35352     35353     35350     35340
     35340     35341     35340     35354     35354     35355     35354     35356
     35354     35357     35340     35342     35358     35359     35358     35362
     35358     35363     35363     35364     35363     35365     35363     35366
     35366     35367     35366     35368     35366     35369     35369     35370
     35369     35371     35371     35372     35369     35360     35360     35361
     35360     35373     35373     35374     35373     35375     35373     35376
     35360     35362     35377     35378     35377     35381     35377     35382
     35382     35383     35382     35384     35384     35385     35382     35392
     35392     35393     35392     35394     35394     35395     35392     35396
     35396     35397     35396     35398     35398     35399     35396     35379
     35379     35380     35379     35400     35400     35401     35400     35402
     35400     35403     35403     35404     35379     35381     35384     35386
     35386     35387     35386     35388     35388     35389     35388     35390
     35388     35391     35307     35317     35324     35338     35345     35358
     35365     35377     35253     35290     35405     35406     35405     35409
     35405     35410     35410     35411     35410     35412     35412     35413
     35410     35420     35420     35421     35420     35422     35420     35423
     35423     35424     35423     35425     35425     35426     35423     35407
     35407     35408     35407     35427     35427     35428     35427     35429
     35427     35430     35430     35431     35407     35409     35412     35414
     35414     35415     35414     35416     35416     35417     35416     35418
     35416     35419     35432     35433     35432     35436     35432     35437
     35437     35438     35437     35439     35437     35440     35440     35441
     35440     35442     35442     35443     35440     35444     35444     35445
     35444     35446     35446     35447     35444     35434     35434     35435
     35434     35448     35448     35449     35448     35450     35448     35451
     35451     35452     35434     35436     35453     35454     35453     35457
     35453     35458     35458     35459     35458     35460     35458     35461
     35461     35462     35461     35463     35463     35464     35461     35465
     35465     35466     35465     35467     35467     35468     35465     35455
     35455     35456     35455     35469     35469     35470     35469     35471
     35469     35472     35455     35457     35473     35474     35473     35477
     35473     35478     35478     35479     35478     35480     35478     35481
     35481     35482     35481     35483     35483     35484     35481     35485
     35485     35486     35485     35487     35487     35488     35485     35475
     35475     35476     35475     35489     35489     35490     35489     35491
     35489     35492     35475     35477     35493     35494     35493     35497
     35493     35498     35498     35499     35498     35500     35500     35501
     35498     35508     35508     35509     35508     35510     35510     35511
     35508     35512     35512     35513     35512     35514     35514     35515
     35512     35495     35495     35496     35495     35516     35516     35517
     35516     35518     35516     35519     35519     35520     35495     35497
     35500     35502     35502     35503     35502     35504     35504     35505
     35504     35506     35504     35507     35422     35432     35439     35453
     35460     35473     35480     35493     35368     35405     34935     34945
     35546     35547     35546     35548     35546     35579     35579     35580
     35579     35581     35582     35581     35582     35584     35584     35585
     35584     35586     35583     35582     35584     35587     35587     35588
     35587     35589     35587     35590     35590     35591     35590     35593
     35593     35594     35593     35595     35593     35596     35596     35597
     35590     35592     35596     35598     35596     35599     35599     35600
     35599     35601     35599     35602     35602     35603     35602     35604
     35602     35605     35605     35606     35605     35607     35605     35608
     35608     35609     35608     35610     35608     35611     35611     35612
     35611     35613     35611     35614     35614     35615     35614     35616
     35614     35617     35617     35618     35617     35619     35617     35620
     35620     35621     35620     35622     35620     35623     35579     35624
     35624     35625     35624     35626     35624     35627     35627     35628
     35627     35629     35627     35630     35630     35631     35630     35632
     35630     35633     35633     35634     35633     35635     35633     35636
     35636     35637     35636     35638     35636     35639     35639     35640
     35639     35641     35639     35642     35642     35643     35642     35644
     35642     35645     35645     35646     35645     35647     35645     35648
     35648     35649     35648     35650     35648     35651     35651     35652
     35651     35653     35651     35654     35654     35655     35654     35656
     35654     35657     35660     35661     35660     35662     35660     35663
     35663     35664     35663     35665     35667     35666     35665     35666
     35666     35668     35668     35669     35668     35670     35668     35671
     35671     35672     35671     35673     35671     35674     35674     35675
     35674     35676     35674     35677     35677     35678     35677     35679
     35677     35680     35680     35681     35680     35682     35680     35683
     35683     35684     35683     35685     35683     35686     35686     35687
     35686     35688     35686     35689     35689     35690     35689     35691
     35689     35692     35692     35693     35692     35694     35692     35695
     35695     35696     35695     35697     35695     35698     35698     35699
     35698     35700     35698     35701     35663     35702     35702     35703
     35702     35704     35702     35705     35705     35706     35705     35707
     35705     35708     35708     35709     35708     35710     35708     35711
     35711     35712     35711     35713     35711     35714     35714     35715
     35714     35716     35714     35717     35717     35718     35717     35719
     35717     35720     35720     35721     35720     35722     35720     35723
     35723     35724     35723     35725     35723     35726     35726     35727
     35726     35728     35726     35729     35729     35730     35729     35731
     35729     35732     35732     35733     35732     35734     35732     35735
     35570     35571     35570     35572     35572     35573     35572     35574
     35572     35736     35736     35737     35736     35738     35738     35739
     35736     35740     35740     35741     35740     35742     35740     35743
     35743     35744     35743     35745     35743     35746     35746     35747
     35746     35748     35746     35749     35749     35750     35749     35751
     35749     35752     35752     35753     35752     35754     35752     35755
     35755     35756     35755     35757     35755     35758     35758     35759
     35758     35760     35758     35761     35761     35762     35761     35763
     35761     35764     35764     35765     35764     35766     35764     35767
     35767     35768     35767     35769     35767     35770     35770     35771
     35770     35772     35770     35773     35779     35781     35781     35782
     35779     35783     35783     35784     35783     35785     35783     35786
     35786     35787     35786     35788     35786     35789     35789     35790
     35789     35791     35789     35792     35792     35793     35792     35794
     35792     35795     35795     35796     35795     35797     35795     35798
     35798     35799     35798     35800     35798     35801     35801     35802
     35801     35803     35801     35804     35804     35805     35804     35806
     35804     35807     35807     35808     35807     35809     35807     35810
     35810     35811     35810     35812     35810     35813     35813     35814
     35813     35815     35813     35816     35537     35538     35537     35539
     35537     35540     35537     35536     35536     35534     35534     35535
     35534     35525     35525     35527     35525     35523     35523     35524
     35523     35521     35523     35522     35525     35526     35526     35528
     35528     35529     35528     35549     35549     35550     35549     35551
     35551     35552     35551     35658     35658     35660     35549     35541
     35541     35543     35541     35534     35658     35659     35544     35545
     35541     35542     35542     35544     35544     35546     35528     35530
     35531     35530     35531     35532     35531     35533     35531     35557
     35557     35558     35557     35553     35553     35554     35553     35555
     35555     35556     35553     35567     35567     35568     35567     35569
     35569     35570     35567     35575     35575     35576     35575     35577
     35577     35578     35577     35774     35774     35776     35776     35777
     35776     35778     35776     35779     35575     35560     35560     35561
     35560     35559     35560     35562     35562     35566     35566     35563
     35566     35564     35566     35565     35559     35557     35779     35780
     35774     35775     35817     35819     35817     35820     35820     35824
     35817     35818     35824     35825     35824     35826     35824     35827
     35827     35828     35827     35829     35827     35830     35830     35831
     35830     35832     35830     35821     35821     35822     35821     35823
     35821     35833     35833     35834     35833     35835     35835     35836
     35833     35837     35837     35840     35840     35841     35837     35838
     35837     35839     35820     35823     35842     35844     35842     35845
     35845     35849     35842     35843     35849     35850     35849     35851
     35849     35852     35852     35853     35852     35854     35854     35855
     35852     35856     35856     35857     35856     35858     35858     35859
     35856     35846     35846     35847     35846     35848     35846     35860
     35860     35861     35860     35862     35862     35863     35860     35864
     35864     35867     35867     35868     35864     35865     35864     35866
     35845     35848     35869     35870     35869     35873     35869     35874
     35874     35875     35874     35876     35876     35877     35874     35878
     35878     35879     35878     35880     35878     35881     35881     35882
     35881     35883     35881     35871     35871     35872     35871     35888
     35888     35889     35888     35892     35888     35890     35890     35891
     35871     35873     35892     35893     35892     35894     35892     35895
     35895     35896     35897     35898     35897     35901     35897     35902
     35902     35903     35902     35904     35904     35905     35902     35906
     35906     35907     35906     35908     35906     35909     35909     35910
     35909     35911     35909     35899     35899     35900     35899     35916
     35916     35917     35916     35920     35916     35918     35918     35919
     35899     35901     35920     35921     35920     35922     35920     35923
     35924     35925     35924     35928     35924     35929     35929     35930
     35929     35931     35931     35932     35929     35933     35933     35934
     35933     35935     35935     35936     35933     35937     35937     35938
     35937     35939     35939     35940     35937     35926     35926     35927
     35926     35941     35941     35942     35941     35945     35941     35943
     35943     35944     35926     35928     35945     35946     35945     35947
     35945     35948     35948     35949     35950     35951     35950     35954
     35950     35955     35955     35956     35955     35957     35957     35958
     35955     35959     35959     35960     35959     35961     35959     35962
     35962     35963     35962     35964     35964     35965     35962     35952
     35952     35953     35952     35966     35966     35967     35966     35968
     35966     35969     35969     35970     35952     35954     35971     35972
     35971     35975     35971     35976     35976     35977     35976     35978
     35976     35979     35979     35980     35979     35981     35979     35982
     35982     35983     35982     35984     35984     35985     35982     35973
     35973     35974     35973     35986     35986     35987     35986     35988
     35986     35989     35989     35990     35973     35975     35991     35992
     35991     35995     35991     35996     35996     35997     35996     35998
     35996     35999     35999     36000     35999     36001     36001     36002
     35999     36003     36003     36004     36003     36005     36005     36006
     36003     35993     35993     35994     35993     36007     36007     36008
     36007     36009     36007     36010     36010     36011     35993     35995
     36012     36013     36012     36016     36012     36017     36017     36018
     36017     36019     36019     36020     36017     36021     36021     36022
     36021     36023     36023     36024     36021     36025     36025     36026
     36025     36027     36027     36028     36025     36014     36014     36015
     36014     36029     36029     36030     36029     36031     36029     36032
     36032     36033     36014     36016     36034     36035     36034     36038
     36034     36039     36039     36040     36039     36041     36041     36042
     36039     36043     36043     36044     36043     36045     36043     36046
     36046     36047     36046     36048     36048     36049     36046     36036
     36036     36037     36036     36050     36050     36051     36050     36052
     36050     36053     36053     36054     36036     36038     35829     35845
     35832     35869     35880     35897     35923     35924     35908     35950
     35961     35971     35978     35991     35998     36012     35981     36034
     35883     35884     35885     35884     35886     35884     35887     35884
     35911     35912     35913     35912     35914     35912     35915     35912
     35522     35820     36055     36056     36055     36059     36055     36060
     36060     36061     36060     36062     36062     36063     36060     36070
     36070     36071     36070     36072     36070     36073     36073     36074
     36073     36075     36075     36076     36073     36057     36057     36058
     36057     36077     36077     36078     36077     36079     36077     36080
     36080     36081     36057     36059     36062     36064     36064     36065
     36064     36066     36066     36067     36066     36068     36066     36069
     36082     36083     36082     36086     36082     36087     36087     36088
     36087     36089     36087     36090     36090     36091     36090     36092
     36092     36093     36090     36094     36094     36095     36094     36096
     36096     36097     36094     36084     36084     36085     36084     36098
     36098     36099     36098     36100     36098     36101     36101     36102
     36084     36086     36103     36104     36103     36107     36103     36108
     36108     36109     36108     36110     36108     36111     36111     36112
     36111     36113     36113     36114     36111     36115     36115     36116
     36115     36117     36117     36118     36115     36105     36105     36106
     36105     36119     36119     36120     36119     36121     36119     36122
     36105     36107     36123     36124     36123     36127     36123     36128
     36128     36129     36128     36130     36128     36131     36131     36132
     36131     36133     36131     36134     36134     36135     36134     36136
     36136     36137     36134     36125     36125     36126     36125     36138
     36138     36139     36138     36140     36138     36141     36125     36127
     36142     36143     36142     36146     36142     36147     36147     36148
     36147     36149     36149     36150     36147     36157     36157     36158
     36157     36159     36159     36160     36157     36161     36161     36162
     36161     36163     36163     36164     36161     36144     36144     36145
     36144     36165     36165     36166     36165     36167     36165     36168
     36168     36169     36144     36146     36149     36151     36151     36152
     36151     36153     36153     36154     36153     36155     36153     36156
     36072     36082     36089     36103     36110     36123     36130     36142
     36170     36171     36170     36174     36170     36175     36175     36176
     36175     36177     36177     36178     36175     36185     36185     36186
     36185     36187     36185     36188     36188     36189     36188     36190
     36190     36191     36188     36172     36172     36173     36172     36192
     36192     36193     36192     36194     36192     36195     36195     36196
     36172     36174     36177     36179     36179     36180     36179     36181
     36181     36182     36181     36183     36181     36184     36197     36198
     36197     36201     36197     36202     36202     36203     36202     36204
     36202     36205     36205     36206     36205     36207     36207     36208
     36205     36209     36209     36210     36209     36211     36211     36212
     36209     36199     36199     36200     36199     36213     36213     36214
     36213     36215     36213     36216     36216     36217     36199     36201
     36218     36219     36218     36222     36218     36223     36223     36224
     36223     36225     36223     36226     36226     36227     36226     36228
     36228     36229     36226     36230     36230     36231     36230     36232
     36232     36233     36230     36220     36220     36221     36220     36234
     36234     36235     36234     36236     36234     36237     36220     36222
     36238     36239     36238     36242     36238     36243     36243     36244
     36243     36245     36243     36246     36246     36247     36246     36248
     36246     36249     36249     36250     36249     36251     36251     36252
     36249     36240     36240     36241     36240     36253     36253     36254
     36253     36255     36253     36256     36240     36242     36257     36258
     36257     36261     36257     36262     36262     36263     36262     36264
     36264     36265     36262     36272     36272     36273     36272     36274
     36274     36275     36272     36276     36276     36277     36276     36278
     36278     36279     36276     36259     36259     36260     36259     36280
     36280     36281     36280     36282     36280     36283     36283     36284
     36259     36261     36264     36266     36266     36267     36266     36268
     36268     36269     36268     36270     36268     36271     36187     36197
     36204     36218     36225     36238     36245     36257     36133     36170
     36285     36286     36285     36289     36285     36290     36290     36291
     36290     36292     36292     36293     36290     36300     36300     36301
     36300     36302     36300     36303     36303     36304     36303     36305
     36305     36306     36303     36287     36287     36288     36287     36307
     36307     36308     36307     36309     36307     36310     36310     36311
     36287     36289     36292     36294     36294     36295     36294     36296
     36296     36297     36296     36298     36296     36299     36312     36313
     36312     36316     36312     36317     36317     36318     36317     36319
     36317     36320     36320     36321     36320     36322     36322     36323
     36320     36324     36324     36325     36324     36326     36326     36327
     36324     36314     36314     36315     36314     36328     36328     36329
     36328     36330     36328     36331     36331     36332     36314     36316
     36333     36334     36333     36337     36333     36338     36338     36339
     36338     36340     36338     36341     36341     36342     36341     36343
     36343     36344     36341     36345     36345     36346     36345     36347
     36347     36348     36345     36335     36335     36336     36335     36349
     36349     36350     36349     36351     36349     36352     36335     36337
     36353     36354     36353     36357     36353     36358     36358     36359
     36358     36360     36358     36361     36361     36362     36361     36363
     36361     36364     36364     36365     36364     36366     36366     36367
     36364     36355     36355     36356     36355     36368     36368     36369
     36368     36370     36368     36371     36355     36357     36372     36373
     36372     36376     36372     36377     36377     36378     36377     36379
     36379     36380     36377     36387     36387     36388     36387     36389
     36389     36390     36387     36391     36391     36392     36391     36393
     36393     36394     36391     36374     36374     36375     36374     36395
     36395     36396     36395     36397     36395     36398     36398     36399
     36374     36376     36379     36381     36381     36382     36381     36383
     36383     36384     36383     36385     36383     36386     36302     36312
     36319     36333     36340     36353     36360     36372     36248     36285
     36400     36401     36400     36404     36400     36405     36405     36406
     36405     36407     36407     36408     36405     36415     36415     36416
     36415     36417     36415     36418     36418     36419     36418     36420
     36420     36421     36418     36402     36402     36403     36402     36422
     36422     36423     36422     36424     36422     36425     36425     36426
     36402     36404     36407     36409     36409     36410     36409     36411
     36411     36412     36411     36413     36411     36414     36427     36428
     36427     36431     36427     36432     36432     36433     36432     36434
     36432     36435     36435     36436     36435     36437     36437     36438
     36435     36439     36439     36440     36439     36441     36441     36442
     36439     36429     36429     36430     36429     36443     36443     36444
     36443     36445     36443     36446     36446     36447     36429     36431
     36448     36449     36448     36452     36448     36453     36453     36454
     36453     36455     36453     36456     36456     36457     36456     36458
     36458     36459     36456     36460     36460     36461     36460     36462
     36462     36463     36460     36450     36450     36451     36450     36464
     36464     36465     36464     36466     36464     36467     36450     36452
     36468     36469     36468     36472     36468     36473     36473     36474
     36473     36475     36473     36476     36476     36477     36476     36478
     36476     36479     36479     36480     36479     36481     36481     36482
     36479     36470     36470     36471     36470     36483     36483     36484
     36483     36485     36483     36486     36470     36472     36487     36488
     36487     36491     36487     36492     36492     36493     36492     36494
     36494     36495     36492     36502     36502     36503     36502     36504
     36504     36505     36502     36506     36506     36507     36506     36508
     36508     36509     36506     36489     36489     36490     36489     36510
     36510     36511     36510     36512     36510     36513     36513     36514
     36489     36491     36494     36496     36496     36497     36496     36498
     36498     36499     36498     36500     36498     36501     36417     36427
     36434     36448     36455     36468     36475     36487     36363     36400
     36515     36516     36515     36519     36515     36520     36520     36521
     36520     36522     36522     36523     36520     36530     36530     36531
     36530     36532     36530     36533     36533     36534     36533     36535
     36535     36536     36533     36517     36517     36518     36517     36537
     36537     36538     36537     36539     36537     36540     36540     36541
     36517     36519     36522     36524     36524     36525     36524     36526
     36526     36527     36526     36528     36526     36529     36542     36543
     36542     36546     36542     36547     36547     36548     36547     36549
     36547     36550     36550     36551     36550     36552     36552     36553
     36550     36554     36554     36555     36554     36556     36556     36557
     36554     36544     36544     36545     36544     36558     36558     36559
     36558     36560     36558     36561     36561     36562     36544     36546
     36563     36564     36563     36567     36563     36568     36568     36569
     36568     36570     36568     36571     36571     36572     36571     36573
     36573     36574     36571     36575     36575     36576     36575     36577
     36577     36578     36575     36565     36565     36566     36565     36579
     36579     36580     36579     36581     36579     36582     36565     36567
     36583     36584     36583     36587     36583     36588     36588     36589
     36588     36590     36588     36591     36591     36592     36591     36593
     36593     36594     36591     36595     36595     36596     36595     36597
     36597     36598     36595     36585     36585     36586     36585     36599
     36599     36600     36599     36601     36599     36602     36585     36587
     36603     36604     36603     36607     36603     36608     36608     36609
     36608     36610     36610     36611     36608     36618     36618     36619
     36618     36620     36620     36621     36618     36622     36622     36623
     36622     36624     36624     36625     36622     36605     36605     36606
     36605     36626     36626     36627     36626     36628     36626     36629
     36629     36630     36605     36607     36610     36612     36612     36613
     36612     36614     36614     36615     36614     36616     36614     36617
     36532     36542     36549     36563     36570     36583     36590     36603
     36478     36515     36045     36055     36656     36657     36656     36658
     36656     36689     36689     36690     36689     36691     36692     36691
     36692     36694     36694     36695     36694     36696     36693     36692
     36694     36697     36697     36698     36697     36699     36697     36700
     36700     36701     36700     36703     36703     36704     36703     36705
     36703     36706     36706     36707     36700     36702     36706     36708
     36706     36709     36709     36710     36709     36711     36709     36712
     36712     36713     36712     36714     36712     36715     36715     36716
     36715     36717     36715     36718     36718     36719     36718     36720
     36718     36721     36721     36722     36721     36723     36721     36724
     36724     36725     36724     36726     36724     36727     36727     36728
     36727     36729     36727     36730     36730     36731     36730     36732
     36730     36733     36689     36734     36734     36735     36734     36736
     36734     36737     36737     36738     36737     36739     36737     36740
     36740     36741     36740     36742     36740     36743     36743     36744
     36743     36745     36743     36746     36746     36747     36746     36748
     36746     36749     36749     36750     36749     36751     36749     36752
     36752     36753     36752     36754     36752     36755     36755     36756
     36755     36757     36755     36758     36758     36759     36758     36760
     36758     36761     36761     36762     36761     36763     36761     36764
     36764     36765     36764     36766     36764     36767     36770     36771
     36770     36772     36770     36773     36773     36774     36773     36775
     36777     36776     36775     36776     36776     36778     36778     36779
     36778     36780     36778     36781     36781     36782     36781     36783
     36781     36784     36784     36785     36784     36786     36784     36787
     36787     36788     36787     36789     36787     36790     36790     36791
     36790     36792     36790     36793     36793     36794     36793     36795
     36793     36796     36796     36797     36796     36798     36796     36799
     36799     36800     36799     36801     36799     36802     36802     36803
     36802     36804     36802     36805     36805     36806     36805     36807
     36805     36808     36808     36809     36808     36810     36808     36811
     36773     36812     36812     36813     36812     36814     36812     36815
     36815     36816     36815     36817     36815     36818     36818     36819
     36818     36820     36818     36821     36821     36822     36821     36823
     36821     36824     36824     36825     36824     36826     36824     36827
     36827     36828     36827     36829     36827     36830     36830     36831
     36830     36832     36830     36833     36833     36834     36833     36835
     36833     36836     36836     36837     36836     36838     36836     36839
     36839     36840     36839     36841     36839     36842     36842     36843
     36842     36844     36842     36845     36680     36681     36680     36682
     36682     36683     36682     36684     36682     36846     36846     36847
     36846     36848     36848     36849     36846     36850     36850     36851
     36850     36852     36850     36853     36853     36854     36853     36855
     36853     36856     36856     36857     36856     36858     36856     36859
     36859     36860     36859     36861     36859     36862     36862     36863
     36862     36864     36862     36865     36865     36866     36865     36867
     36865     36868     36868     36869     36868     36870     36868     36871
     36871     36872     36871     36873     36871     36874     36874     36875
     36874     36876     36874     36877     36877     36878     36877     36879
     36877     36880     36880     36881     36880     36882     36880     36883
     36889     36891     36891     36892     36889     36893     36893     36894
     36893     36895     36893     36896     36896     36897     36896     36898
     36896     36899     36899     36900     36899     36901     36899     36902
     36902     36903     36902     36904     36902     36905     36905     36906
     36905     36907     36905     36908     36908     36909     36908     36910
     36908     36911     36911     36912     36911     36913     36911     36914
     36914     36915     36914     36916     36914     36917     36917     36918
     36917     36919     36917     36920     36920     36921     36920     36922
     36920     36923     36923     36924     36923     36925     36923     36926
     36647     36648     36647     36649     36647     36650     36647     36646
     36646     36644     36644     36645     36644     36635     36635     36637
     36635     36633     36633     36634     36633     36631     36633     36632
     36635     36636     36636     36638     36638     36639     36638     36659
     36659     36660     36659     36661     36661     36662     36661     36768
     36768     36770     36659     36651     36651     36653     36651     36644
     36768     36769     36654     36655     36651     36652     36652     36654
     36654     36656     36638     36640     36641     36640     36641     36642
     36641     36643     36641     36667     36667     36668     36667     36663
     36663     36664     36663     36665     36665     36666     36663     36677
     36677     36678     36677     36679     36679     36680     36677     36685
     36685     36686     36685     36687     36687     36688     36687     36884
     36884     36886     36886     36887     36886     36888     36886     36889
     36685     36670     36670     36671     36670     36669     36670     36672
     36672     36676     36676     36673     36676     36674     36676     36675
     36669     36667     36889     36890     36884     36885     36927     36929
     36927     36930     36930     36934     36927     36928     36934     36935
     36934     36936     36934     36937     36937     36938     36937     36939
     36937     36940     36940     36941     36940     36942     36940     36931
     36931     36932     36931     36933     36931     36943     36943     36944
     36943     36945     36945     36946     36943     36947     36947     36950
     36950     36951     36947     36948     36947     36949     36930     36933
     36952     36954     36952     36955     36955     36959     36952     36953
     36959     36960     36959     36961     36959     36962     36962     36963
     36962     36964     36964     36965     36962     36966     36966     36967
     36966     36968     36968     36969     36966     36956     36956     36957
     36956     36958     36956     36970     36970     36971     36970     36972
     36972     36973     36970     36974     36974     36977     36977     36978
     36974     36975     36974     36976     36955     36958     36979     36980
     36979     36983     36979     36984     36984     36985     36984     36986
     36986     36987     36984     36988     36988     36989     36988     36990
     36988     36991     36991     36992     36991     36993     36991     36981
     36981     36982     36981     36998     36998     36999     36998     37002
     36998     37000     37000     37001     36981     36983     37002     37003
     37002     37004     37002     37005     37005     37006     37007     37008
     37007     37011     37007     37012     37012     37013     37012     37014
     37014     37015     37012     37016     37016     37017     37016     37018
     37016     37019     37019     37020     37019     37021     37019     37009
     37009     37010     37009     37026     37026     37027     37026     37030
     37026     37028     37028     37029     37009     37011     37030     37031
     37030     37032     37030     37033     37034     37035     37034     37038
     37034     37039     37039     37040     37039     37041     37041     37042
     37039     37043     37043     37044     37043     37045     37045     37046
     37043     37047     37047     37048     37047     37049     37049     37050
     37047     37036     37036     37037     37036     37051     37051     37052
     37051     37055     37051     37053     37053     37054     37036     37038
     37055     37056     37055     37057     37055     37058     37058     37059
     37060     37061     37060     37064     37060     37065     37065     37066
     37065     37067     37067     37068     37065     37069     37069     37070
     37069     37071     37069     37072     37072     37073     37072     37074
     37074     37075     37072     37062     37062     37063     37062     37076
     37076     37077     37076     37078     37076     37079     37079     37080
     37062     37064     37081     37082     37081     37085     37081     37086
     37086     37087     37086     37088     37086     37089     37089     37090
     37089     37091     37089     37092     37092     37093     37092     37094
     37094     37095     37092     37083     37083     37084     37083     37096
     37096     37097     37096     37098     37096     37099     37099     37100
     37083     37085     37101     37102     37101     37105     37101     37106
     37106     37107     37106     37108     37106     37109     37109     37110
     37109     37111     37111     37112     37109     37113     37113     37114
     37113     37115     37115     37116     37113     37103     37103     37104
     37103     37117     37117     37118     37117     37119     37117     37120
     37120     37121     37103     37105     37122     37123     37122     37126
     37122     37127     37127     37128     37127     37129     37129     37130
     37127     37131     37131     37132     37131     37133     37133     37134
     37131     37135     37135     37136     37135     37137     37137     37138
     37135     37124     37124     37125     37124     37139     37139     37140
     37139     37141     37139     37142     37142     37143     37124     37126
     37144     37145     37144     37148     37144     37149     37149     37150
     37149     37151     37151     37152     37149     37153     37153     37154
     37153     37155     37153     37156     37156     37157     37156     37158
     37158     37159     37156     37146     37146     37147     37146     37160
     37160     37161     37160     37162     37160     37163     37163     37164
     37146     37148     36939     36955     36942     36979     36990     37007
     37033     37034     37018     37060     37071     37081     37088     37101
     37108     37122     37091     37144     36993     36994     36995     36994
     36996     36994     36997     36994     37021     37022     37023     37022
     37024     37022     37025     37022     36632     36930     37165     37166
     37165     37169     37165     37170     37170     37171     37170     37172
     37172     37173     37170     37180     37180     37181     37180     37182
     37180     37183     37183     37184     37183     37185     37185     37186
     37183     37167     37167     37168     37167     37187     37187     37188
     37187     37189     37187     37190     37190     37191     37167     37169
     37172     37174     37174     37175     37174     37176     37176     37177
     37176     37178     37176     37179     37192     37193     37192     37196
     37192     37197     37197     37198     37197     37199     37197     37200
     37200     37201     37200     37202     37202     37203     37200     37204
     37204     37205     37204     37206     37206     37207     37204     37194
     37194     37195     37194     37208     37208     37209     37208     37210
     37208     37211     37211     37212     37194     37196     37213     37214
     37213     37217     37213     37218     37218     37219     37218     37220
     37218     37221     37221     37222     37221     37223     37223     37224
     37221     37225     37225     37226     37225     37227     37227     37228
     37225     37215     37215     37216     37215     37229     37229     37230
     37229     37231     37229     37232     37215     37217     37233     37234
     37233     37237     37233     37238     37238     37239     37238     37240
     37238     37241     37241     37242     37241     37243     37241     37244
     37244     37245     37244     37246     37246     37247     37244     37235
     37235     37236     37235     37248     37248     37249     37248     37250
     37248     37251     37235     37237     37252     37253     37252     37256
     37252     37257     37257     37258     37257     37259     37259     37260
     37257     37267     37267     37268     37267     37269     37269     37270
     37267     37271     37271     37272     37271     37273     37273     37274
     37271     37254     37254     37255     37254     37275     37275     37276
     37275     37277     37275     37278     37278     37279     37254     37256
     37259     37261     37261     37262     37261     37263     37263     37264
     37263     37265     37263     37266     37182     37192     37199     37213
     37220     37233     37240     37252     37280     37281     37280     37284
     37280     37285     37285     37286     37285     37287     37287     37288
     37285     37295     37295     37296     37295     37297     37295     37298
     37298     37299     37298     37300     37300     37301     37298     37282
     37282     37283     37282     37302     37302     37303     37302     37304
     37302     37305     37305     37306     37282     37284     37287     37289
     37289     37290     37289     37291     37291     37292     37291     37293
     37291     37294     37307     37308     37307     37311     37307     37312
     37312     37313     37312     37314     37312     37315     37315     37316
     37315     37317     37317     37318     37315     37319     37319     37320
     37319     37321     37321     37322     37319     37309     37309     37310
     37309     37323     37323     37324     37323     37325     37323     37326
     37326     37327     37309     37311     37328     37329     37328     37332
     37328     37333     37333     37334     37333     37335     37333     37336
     37336     37337     37336     37338     37338     37339     37336     37340
     37340     37341     37340     37342     37342     37343     37340     37330
     37330     37331     37330     37344     37344     37345     37344     37346
     37344     37347     37330     37332     37348     37349     37348     37352
     37348     37353     37353     37354     37353     37355     37353     37356
     37356     37357     37356     37358     37356     37359     37359     37360
     37359     37361     37361     37362     37359     37350     37350     37351
     37350     37363     37363     37364     37363     37365     37363     37366
     37350     37352     37367     37368     37367     37371     37367     37372
     37372     37373     37372     37374     37374     37375     37372     37382
     37382     37383     37382     37384     37384     37385     37382     37386
     37386     37387     37386     37388     37388     37389     37386     37369
     37369     37370     37369     37390     37390     37391     37390     37392
     37390     37393     37393     37394     37369     37371     37374     37376
     37376     37377     37376     37378     37378     37379     37378     37380
     37378     37381     37297     37307     37314     37328     37335     37348
     37355     37367     37243     37280     37395     37396     37395     37399
     37395     37400     37400     37401     37400     37402     37402     37403
     37400     37410     37410     37411     37410     37412     37410     37413
     37413     37414     37413     37415     37415     37416     37413     37397
     37397     37398     37397     37417     37417     37418     37417     37419
     37417     37420     37420     37421     37397     37399     37402     37404
     37404     37405     37404     37406     37406     37407     37406     37408
     37406     37409     37422     37423     37422     37426     37422     37427
     37427     37428     37427     37429     37427     37430     37430     37431
     37430     37432     37432     37433     37430     37434     37434     37435
     37434     37436     37436     37437     37434     37424     37424     37425
     37424     37438     37438     37439     37438     37440     37438     37441
     37441     37442     37424     37426     37443     37444     37443     37447
     37443     37448     37448     37449     37448     37450     37448     37451
     37451     37452     37451     37453     37453     37454     37451     37455
     37455     37456     37455     37457     37457     37458     37455     37445
     37445     37446     37445     37459     37459     37460     37459     37461
     37459     37462     37445     37447     37463     37464     37463     37467
     37463     37468     37468     37469     37468     37470     37468     37471
     37471     37472     37471     37473     37471     37474     37474     37475
     37474     37476     37476     37477     37474     37465     37465     37466
     37465     37478     37478     37479     37478     37480     37478     37481
     37465     37467     37482     37483     37482     37486     37482     37487
     37487     37488     37487     37489     37489     37490     37487     37497
     37497     37498     37497     37499     37499     37500     37497     37501
     37501     37502     37501     37503     37503     37504     37501     37484
     37484     37485     37484     37505     37505     37506     37505     37507
     37505     37508     37508     37509     37484     37486     37489     37491
     37491     37492     37491     37493     37493     37494     37493     37495
     37493     37496     37412     37422     37429     37443     37450     37463
     37470     37482     37358     37395     37510     37511     37510     37514
     37510     37515     37515     37516     37515     37517     37517     37518
     37515     37525     37525     37526     37525     37527     37525     37528
     37528     37529     37528     37530     37530     37531     37528     37512
     37512     37513     37512     37532     37532     37533     37532     37534
     37532     37535     37535     37536     37512     37514     37517     37519
     37519     37520     37519     37521     37521     37522     37521     37523
     37521     37524     37537     37538     37537     37541     37537     37542
     37542     37543     37542     37544     37542     37545     37545     37546
     37545     37547     37547     37548     37545     37549     37549     37550
     37549     37551     37551     37552     37549     37539     37539     37540
     37539     37553     37553     37554     37553     37555     37553     37556
     37556     37557     37539     37541     37558     37559     37558     37562
     37558     37563     37563     37564     37563     37565     37563     37566
     37566     37567     37566     37568     37568     37569     37566     37570
     37570     37571     37570     37572     37572     37573     37570     37560
     37560     37561     37560     37574     37574     37575     37574     37576
     37574     37577     37560     37562     37578     37579     37578     37582
     37578     37583     37583     37584     37583     37585     37583     37586
     37586     37587     37586     37588     37586     37589     37589     37590
     37589     37591     37591     37592     37589     37580     37580     37581
     37580     37593     37593     37594     37593     37595     37593     37596
     37580     37582     37597     37598     37597     37601     37597     37602
     37602     37603     37602     37604     37604     37605     37602     37612
     37612     37613     37612     37614     37614     37615     37612     37616
     37616     37617     37616     37618     37618     37619     37616     37599
     37599     37600     37599     37620     37620     37621     37620     37622
     37620     37623     37623     37624     37599     37601     37604     37606
     37606     37607     37606     37608     37608     37609     37608     37610
     37608     37611     37527     37537     37544     37558     37565     37578
     37585     37597     37473     37510     37625     37626     37625     37629
     37625     37630     37630     37631     37630     37632     37632     37633
     37630     37640     37640     37641     37640     37642     37640     37643
     37643     37644     37643     37645     37645     37646     37643     37627
     37627     37628     37627     37647     37647     37648     37647     37649
     37647     37650     37650     37651     37627     37629     37632     37634
     37634     37635     37634     37636     37636     37637     37636     37638
     37636     37639     37652     37653     37652     37656     37652     37657
     37657     37658     37657     37659     37657     37660     37660     37661
     37660     37662     37662     37663     37660     37664     37664     37665
     37664     37666     37666     37667     37664     37654     37654     37655
     37654     37668     37668     37669     37668     37670     37668     37671
     37671     37672     37654     37656     37673     37674     37673     37677
     37673     37678     37678     37679     37678     37680     37678     37681
     37681     37682     37681     37683     37683     37684     37681     37685
     37685     37686     37685     37687     37687     37688     37685     37675
     37675     37676     37675     37689     37689     37690     37689     37691
     37689     37692     37675     37677     37693     37694     37693     37697
     37693     37698     37698     37699     37698     37700     37698     37701
     37701     37702     37701     37703     37703     37704     37701     37705
     37705     37706     37705     37707     37707     37708     37705     37695
     37695     37696     37695     37709     37709     37710     37709     37711
     37709     37712     37695     37697     37713     37714     37713     37717
     37713     37718     37718     37719     37718     37720     37720     37721
     37718     37728     37728     37729     37728     37730     37730     37731
     37728     37732     37732     37733     37732     37734     37734     37735
     37732     37715     37715     37716     37715     37736     37736     37737
     37736     37738     37736     37739     37739     37740     37715     37717
     37720     37722     37722     37723     37722     37724     37724     37725
     37724     37726     37724     37727     37642     37652     37659     37673
     37680     37693     37700     37713     37588     37625     37155     37165
     37766     37767     37766     37768     37766     37799     37799     37800
     37799     37801     37802     37801     37802     37804     37804     37805
     37804     37806     37803     37802     37804     37807     37807     37808
     37807     37809     37807     37810     37810     37811     37810     37813
     37813     37814     37813     37815     37813     37816     37816     37817
     37810     37812     37816     37818     37816     37819     37819     37820
     37819     37821     37819     37822     37822     37823     37822     37824
     37822     37825     37825     37826     37825     37827     37825     37828
     37828     37829     37828     37830     37828     37831     37831     37832
     37831     37833     37831     37834     37834     37835     37834     37836
     37834     37837     37837     37838     37837     37839     37837     37840
     37840     37841     37840     37842     37840     37843     37799     37844
     37844     37845     37844     37846     37844     37847     37847     37848
     37847     37849     37847     37850     37850     37851     37850     37852
     37850     37853     37853     37854     37853     37855     37853     37856
     37856     37857     37856     37858     37856     37859     37859     37860
     37859     37861     37859     37862     37862     37863     37862     37864
     37862     37865     37865     37866     37865     37867     37865     37868
     37868     37869     37868     37870     37868     37871     37871     37872
     37871     37873     37871     37874     37874     37875     37874     37876
     37874     37877     37880     37881     37880     37882     37880     37883
     37883     37884     37883     37885     37887     37886     37885     37886
     37886     37888     37888     37889     37888     37890     37888     37891
     37891     37892     37891     37893     37891     37894     37894     37895
     37894     37896     37894     37897     37897     37898     37897     37899
     37897     37900     37900     37901     37900     37902     37900     37903
     37903     37904     37903     37905     37903     37906     37906     37907
     37906     37908     37906     37909     37909     37910     37909     37911
     37909     37912     37912     37913     37912     37914     37912     37915
     37915     37916     37915     37917     37915     37918     37918     37919
     37918     37920     37918     37921     37883     37922     37922     37923
     37922     37924     37922     37925     37925     37926     37925     37927
     37925     37928     37928     37929     37928     37930     37928     37931
     37931     37932     37931     37933     37931     37934     37934     37935
     37934     37936     37934     37937     37937     37938     37937     37939
     37937     37940     37940     37941     37940     37942     37940     37943
     37943     37944     37943     37945     37943     37946     37946     37947
     37946     37948     37946     37949     37949     37950     37949     37951
     37949     37952     37952     37953     37952     37954     37952     37955
     37790     37791     37790     37792     37792     37793     37792     37794
     37792     37956     37956     37957     37956     37958     37958     37959
     37956     37960     37960     37961     37960     37962     37960     37963
     37963     37964     37963     37965     37963     37966     37966     37967
     37966     37968     37966     37969     37969     37970     37969     37971
     37969     37972     37972     37973     37972     37974     37972     37975
     37975     37976     37975     37977     37975     37978     37978     37979
     37978     37980     37978     37981     37981     37982     37981     37983
     37981     37984     37984     37985     37984     37986     37984     37987
     37987     37988     37987     37989     37987     37990     37990     37991
     37990     37992     37990     37993     37999     38001     38001     38002
     37999     38003     38003     38004     38003     38005     38003     38006
     38006     38007     38006     38008     38006     38009     38009     38010
     38009     38011     38009     38012     38012     38013     38012     38014
     38012     38015     38015     38016     38015     38017     38015     38018
     38018     38019     38018     38020     38018     38021     38021     38022
     38021     38023     38021     38024     38024     38025     38024     38026
     38024     38027     38027     38028     38027     38029     38027     38030
     38030     38031     38030     38032     38030     38033     38033     38034
     38033     38035     38033     38036     37757     37758     37757     37759
     37757     37760     37757     37756     37756     37754     37754     37755
     37754     37745     37745     37747     37745     37743     37743     37744
     37743     37741     37743     37742     37745     37746     37746     37748
     37748     37749     37748     37769     37769     37770     37769     37771
     37771     37772     37771     37878     37878     37880     37769     37761
     37761     37763     37761     37754     37878     37879     37764     37765
     37761     37762     37762     37764     37764     37766     37748     37750
     37751     37750     37751     37752     37751     37753     37751     37777
     37777     37778     37777     37773     37773     37774     37773     37775
     37775     37776     37773     37787     37787     37788     37787     37789
     37789     37790     37787     37795     37795     37796     37795     37797
     37797     37798     37797     37994     37994     37996     37996     37997
     37996     37998     37996     37999     37795     37780     37780     37781
     37780     37779     37780     37782     37782     37786     37786     37783
     37786     37784     37786     37785     37779     37777     37999     38000
     37994     37995     38037     38039     38037     38040     38040     38044
     38037     38038     38044     38045     38044     38046     38044     38047
     38047     38048     38047     38049     38047     38050     38050     38051
     38050     38052     38050     38041     38041     38042     38041     38043
     38041     38053     38053     38054     38053     38055     38055     38056
     38053     38057     38057     38060     38060     38061     38057     38058
     38057     38059     38040     38043     38062     38064     38062     38065
     38065     38069     38062     38063     38069     38070     38069     38071
     38069     38072     38072     38073     38072     38074     38074     38075
     38072     38076     38076     38077     38076     38078     38078     38079
     38076     38066     38066     38067     38066     38068     38066     38080
     38080     38081     38080     38082     38082     38083     38080     38084
     38084     38087     38087     38088     38084     38085     38084     38086
     38065     38068     38089     38090     38089     38093     38089     38094
     38094     38095     38094     38096     38096     38097     38094     38098
     38098     38099     38098     38100     38098     38101     38101     38102
     38101     38103     38101     38091     38091     38092     38091     38108
     38108     38109     38108     38112     38108     38110     38110     38111
     38091     38093     38112     38113     38112     38114     38112     38115
     38115     38116     38117     38118     38117     38121     38117     38122
     38122     38123     38122     38124     38124     38125     38122     38126
     38126     38127     38126     38128     38126     38129     38129     38130
     38129     38131     38129     38119     38119     38120     38119     38136
     38136     38137     38136     38140     38136     38138     38138     38139
     38119     38121     38140     38141     38140     38142     38140     38143
     38144     38145     38144     38148     38144     38149     38149     38150
     38149     38151     38151     38152     38149     38153     38153     38154
     38153     38155     38155     38156     38153     38157     38157     38158
     38157     38159     38159     38160     38157     38146     38146     38147
     38146     38161     38161     38162     38161     38165     38161     38163
     38163     38164     38146     38148     38165     38166     38165     38167
     38165     38168     38168     38169     38170     38171     38170     38174
     38170     38175     38175     38176     38175     38177     38177     38178
     38175     38179     38179     38180     38179     38181     38179     38182
     38182     38183     38182     38184     38184     38185     38182     38172
     38172     38173     38172     38186     38186     38187     38186     38188
     38186     38189     38189     38190     38172     38174     38191     38192
     38191     38195     38191     38196     38196     38197     38196     38198
     38196     38199     38199     38200     38199     38201     38199     38202
     38202     38203     38202     38204     38204     38205     38202     38193
     38193     38194     38193     38206     38206     38207     38206     38208
     38206     38209     38209     38210     38193     38195     38211     38212
     38211     38215     38211     38216     38216     38217     38216     38218
     38216     38219     38219     38220     38219     38221     38221     38222
     38219     38223     38223     38224     38223     38225     38225     38226
     38223     38213     38213     38214     38213     38227     38227     38228
     38227     38229     38227     38230     38230     38231     38213     38215
     38232     38233     38232     38236     38232     38237     38237     38238
     38237     38239     38239     38240     38237     38241     38241     38242
     38241     38243     38243     38244     38241     38245     38245     38246
     38245     38247     38247     38248     38245     38234     38234     38235
     38234     38249     38249     38250     38249     38251     38249     38252
     38252     38253     38234     38236     38254     38255     38254     38258
     38254     38259     38259     38260     38259     38261     38261     38262
     38259     38263     38263     38264     38263     38265     38263     38266
     38266     38267     38266     38268     38268     38269     38266     38256
     38256     38257     38256     38270     38270     38271     38270     38272
     38270     38273     38273     38274     38256     38258     38049     38065
     38052     38089     38100     38117     38143     38144     38128     38170
     38181     38191     38198     38211     38218     38232     38201     38254
     38103     38104     38105     38104     38106     38104     38107     38104
     38131     38132     38133     38132     38134     38132     38135     38132
     37742     38040     38275     38276     38275     38279     38275     38280
     38280     38281     38280     38282     38282     38283     38280     38290
     38290     38291     38290     38292     38290     38293     38293     38294
     38293     38295     38295     38296     38293     38277     38277     38278
     38277     38297     38297     38298     38297     38299     38297     38300
     38300     38301     38277     38279     38282     38284     38284     38285
     38284     38286     38286     38287     38286     38288     38286     38289
     38302     38303     38302     38306     38302     38307     38307     38308
     38307     38309     38307     38310     38310     38311     38310     38312
     38312     38313     38310     38314     38314     38315     38314     38316
     38316     38317     38314     38304     38304     38305     38304     38318
     38318     38319     38318     38320     38318     38321     38321     38322
     38304     38306     38323     38324     38323     38327     38323     38328
     38328     38329     38328     38330     38328     38331     38331     38332
     38331     38333     38333     38334     38331     38335     38335     38336
     38335     38337     38337     38338     38335     38325     38325     38326
     38325     38339     38339     38340     38339     38341     38339     38342
     38325     38327     38343     38344     38343     38347     38343     38348
     38348     38349     38348     38350     38348     38351     38351     38352
     38351     38353     38351     38354     38354     38355     38354     38356
     38356     38357     38354     38345     38345     38346     38345     38358
     38358     38359     38358     38360     38358     38361     38345     38347
     38362     38363     38362     38366     38362     38367     38367     38368
     38367     38369     38369     38370     38367     38377     38377     38378
     38377     38379     38379     38380     38377     38381     38381     38382
     38381     38383     38383     38384     38381     38364     38364     38365
     38364     38385     38385     38386     38385     38387     38385     38388
     38388     38389     38364     38366     38369     38371     38371     38372
     38371     38373     38373     38374     38373     38375     38373     38376
     38292     38302     38309     38323     38330     38343     38350     38362
     38390     38391     38390     38394     38390     38395     38395     38396
     38395     38397     38397     38398     38395     38405     38405     38406
     38405     38407     38405     38408     38408     38409     38408     38410
     38410     38411     38408     38392     38392     38393     38392     38412
     38412     38413     38412     38414     38412     38415     38415     38416
     38392     38394     38397     38399     38399     38400     38399     38401
     38401     38402     38401     38403     38401     38404     38417     38418
     38417     38421     38417     38422     38422     38423     38422     38424
     38422     38425     38425     38426     38425     38427     38427     38428
     38425     38429     38429     38430     38429     38431     38431     38432
     38429     38419     38419     38420     38419     38433     38433     38434
     38433     38435     38433     38436     38436     38437     38419     38421
     38438     38439     38438     38442     38438     38443     38443     38444
     38443     38445     38443     38446     38446     38447     38446     38448
     38448     38449     38446     38450     38450     38451     38450     38452
     38452     38453     38450     38440     38440     38441     38440     38454
     38454     38455     38454     38456     38454     38457     38440     38442
     38458     38459     38458     38462     38458     38463     38463     38464
     38463     38465     38463     38466     38466     38467     38466     38468
     38466     38469     38469     38470     38469     38471     38471     38472
     38469     38460     38460     38461     38460     38473     38473     38474
     38473     38475     38473     38476     38460     38462     38477     38478
     38477     38481     38477     38482     38482     38483     38482     38484
     38484     38485     38482     38492     38492     38493     38492     38494
     38494     38495     38492     38496     38496     38497     38496     38498
     38498     38499     38496     38479     38479     38480     38479     38500
     38500     38501     38500     38502     38500     38503     38503     38504
     38479     38481     38484     38486     38486     38487     38486     38488
     38488     38489     38488     38490     38488     38491     38407     38417
     38424     38438     38445     38458     38465     38477     38353     38390
     38505     38506     38505     38509     38505     38510     38510     38511
     38510     38512     38512     38513     38510     38520     38520     38521
     38520     38522     38520     38523     38523     38524     38523     38525
     38525     38526     38523     38507     38507     38508     38507     38527
     38527     38528     38527     38529     38527     38530     38530     38531
     38507     38509     38512     38514     38514     38515     38514     38516
     38516     38517     38516     38518     38516     38519     38532     38533
     38532     38536     38532     38537     38537     38538     38537     38539
     38537     38540     38540     38541     38540     38542     38542     38543
     38540     38544     38544     38545     38544     38546     38546     38547
     38544     38534     38534     38535     38534     38548     38548     38549
     38548     38550     38548     38551     38551     38552     38534     38536
     38553     38554     38553     38557     38553     38558     38558     38559
     38558     38560     38558     38561     38561     38562     38561     38563
     38563     38564     38561     38565     38565     38566     38565     38567
     38567     38568     38565     38555     38555     38556     38555     38569
     38569     38570     38569     38571     38569     38572     38555     38557
     38573     38574     38573     38577     38573     38578     38578     38579
     38578     38580     38578     38581     38581     38582     38581     38583
     38581     38584     38584     38585     38584     38586     38586     38587
     38584     38575     38575     38576     38575     38588     38588     38589
     38588     38590     38588     38591     38575     38577     38592     38593
     38592     38596     38592     38597     38597     38598     38597     38599
     38599     38600     38597     38607     38607     38608     38607     38609
     38609     38610     38607     38611     38611     38612     38611     38613
     38613     38614     38611     38594     38594     38595     38594     38615
     38615     38616     38615     38617     38615     38618     38618     38619
     38594     38596     38599     38601     38601     38602     38601     38603
     38603     38604     38603     38605     38603     38606     38522     38532
     38539     38553     38560     38573     38580     38592     38468     38505
     38620     38621     38620     38624     38620     38625     38625     38626
     38625     38627     38627     38628     38625     38635     38635     38636
     38635     38637     38635     38638     38638     38639     38638     38640
     38640     38641     38638     38622     38622     38623     38622     38642
     38642     38643     38642     38644     38642     38645     38645     38646
     38622     38624     38627     38629     38629     38630     38629     38631
     38631     38632     38631     38633     38631     38634     38647     38648
     38647     38651     38647     38652     38652     38653     38652     38654
     38652     38655     38655     38656     38655     38657     38657     38658
     38655     38659     38659     38660     38659     38661     38661     38662
     38659     38649     38649     38650     38649     38663     38663     38664
     38663     38665     38663     38666     38666     38667     38649     38651
     38668     38669     38668     38672     38668     38673     38673     38674
     38673     38675     38673     38676     38676     38677     38676     38678
     38678     38679     38676     38680     38680     38681     38680     38682
     38682     38683     38680     38670     38670     38671     38670     38684
     38684     38685     38684     38686     38684     38687     38670     38672
     38688     38689     38688     38692     38688     38693     38693     38694
     38693     38695     38693     38696     38696     38697     38696     38698
     38696     38699     38699     38700     38699     38701     38701     38702
     38699     38690     38690     38691     38690     38703     38703     38704
     38703     38705     38703     38706     38690     38692     38707     38708
     38707     38711     38707     38712     38712     38713     38712     38714
     38714     38715     38712     38722     38722     38723     38722     38724
     38724     38725     38722     38726     38726     38727     38726     38728
     38728     38729     38726     38709     38709     38710     38709     38730
     38730     38731     38730     38732     38730     38733     38733     38734
     38709     38711     38714     38716     38716     38717     38716     38718
     38718     38719     38718     38720     38718     38721     38637     38647
     38654     38668     38675     38688     38695     38707     38583     38620
     38735     38736     38735     38739     38735     38740     38740     38741
     38740     38742     38742     38743     38740     38750     38750     38751
     38750     38752     38750     38753     38753     38754     38753     38755
     38755     38756     38753     38737     38737     38738     38737     38757
     38757     38758     38757     38759     38757     38760     38760     38761
     38737     38739     38742     38744     38744     38745     38744     38746
     38746     38747     38746     38748     38746     38749     38762     38763
     38762     38766     38762     38767     38767     38768     38767     38769
     38767     38770     38770     38771     38770     38772     38772     38773
     38770     38774     38774     38775     38774     38776     38776     38777
     38774     38764     38764     38765     38764     38778     38778     38779
     38778     38780     38778     38781     38781     38782     38764     38766
     38783     38784     38783     38787     38783     38788     38788     38789
     38788     38790     38788     38791     38791     38792     38791     38793
     38793     38794     38791     38795     38795     38796     38795     38797
     38797     38798     38795     38785     38785     38786     38785     38799
     38799     38800     38799     38801     38799     38802     38785     38787
     38803     38804     38803     38807     38803     38808     38808     38809
     38808     38810     38808     38811     38811     38812     38811     38813
     38813     38814     38811     38815     38815     38816     38815     38817
     38817     38818     38815     38805     38805     38806     38805     38819
     38819     38820     38819     38821     38819     38822     38805     38807
     38823     38824     38823     38827     38823     38828     38828     38829
     38828     38830     38830     38831     38828     38838     38838     38839
     38838     38840     38840     38841     38838     38842     38842     38843
     38842     38844     38844     38845     38842     38825     38825     38826
     38825     38846     38846     38847     38846     38848     38846     38849
     38849     38850     38825     38827     38830     38832     38832     38833
     38832     38834     38834     38835     38834     38836     38834     38837
     38752     38762     38769     38783     38790     38803     38810     38823
     38698     38735     38265     38275     38855     38854     38854     38851
     38851     38852     38851     38853     38851     38856     38859     38858
     38858     38856     38856     38857     38856     38860     38860     38861
     38860     38862     38860     38866     38867     38868     38866     38863
     38863     38867     38863     38864     38863     38865     38868     38869
     38868     38870     38868     38871     38871     38872     38871     38879
     38871     38873     38879     38880     38879     38881     38879     38882
     38873     38874     38874     38876     38874     38875     38876     38877
     38876     38878     38876     38888     38888     38889     38888     38890
     38888     38891     38891     38892     38891     38893     38891     38894
     38894     38895     38894     38896     38894     38897     38897     38898
     38897     38899     38897     38900     38900     38901     38900     38902
     38900     38903     38903     38904     38903     38905     38903     38906
     38906     38907     38906     38908     38906     38909     38909     38910
     38909     38911     38909     38912     38912     38913     38912     38914
     38914     38915     38914     38916     38916     38917     38916     38918
     38916     38919     38919     38920     38919     38921     38919     38922
     38922     38923     38922     38924     38922     38925     38925     38926
     38925     38927     38925     38928     38928     38929     38928     38930
     38928     38931     38931     38932     38931     38933     38931     38934
     38882     38883     38883     38885     38883     38884     38885     38886
     38885     38887     38885     38935     38935     38936     38935     38937
     38935     38938     38938     38939     38938     38940     38938     38941
     38941     38942     38941     38943     38941     38944     38944     38945
     38944     38946     38944     38947     38947     38948     38947     38949
     38947     38950     38950     38951     38950     38952     38950     38953
     38953     38954     38953     38955     38953     38956     38956     38957
     38956     38958     38956     38959     38959     38960     38959     38961
     38959     38962     38962     38963     38962     38964     38962     38965
     38965     38966     38965     38967     38965     38968     38968     38969
     38968     38970     38968     38971     38971     38972     38971     38973
     38971     38974     38974     38975     38974     38976     38974     38977
     38978     38979     38978     38980     38978     38981     38978     38982
     38982     38983     38982     38984     38982     38985     38985     38986
     38985     38987     38985     38992     38992     38988     38988     38991
     38988     38989     38988     38990     38993     38994     38993     38995
     38993     38996     38993     38991     38996     38997     38996     39004
     38996     38998     39004     39005     39004     39006     39004     39007
     38998     38999     38999     39001     38999     39000     39001     39002
     39001     39003     39001     39013     39013     39014     39013     39015
     39013     39016     39016     39017     39016     39018     39016     39019
     39019     39020     39019     39021     39019     39022     39022     39023
     39022     39024     39022     39025     39025     39026     39025     39027
     39025     39028     39028     39029     39028     39030     39028     39031
     39031     39032     39031     39033     39033     39034     39033     39035
     39035     39036     39035     39037     39035     39038     39038     39039
     39038     39040     39038     39041     39041     39042     39041     39043
     39041     39044     39044     39045     39044     39046     39044     39047
     39047     39048     39047     39049     39047     39050     39050     39051
     39050     39052     39050     39053     39007     39008     39008     39010
     39008     39009     39010     39011     39010     39012     39010     39054
     39054     39055     39054     39056     39054     39057     39057     39058
     39057     39059     39057     39060     39060     39061     39060     39062
     39060     39063     39063     39064     39063     39065     39063     39066
     39066     39067     39066     39068     39066     39069     39069     39070
     39069     39071     39069     39072     39072     39073     39072     39074
     39072     39075     39075     39076     39075     39077     39075     39078
     39078     39079     39078     39080     39078     39081     39081     39082
     39081     39083     39081     39084     39084     39085     39084     39086
     39084     39087     39087     39088     39087     39089     39087     39090
     39090     39091     39090     39092     39090     39093     39093     39094
     39093     39095     39093     39096     39097     39098     39097     39099
     39097     39100     39097     39101     39101     39102     39101     39103
     39101     39104     39104     39105     39104     39106     39104     39111
     39111     39107     39107     39110     39107     39108     39107     39109
     39112     39113     39112     39114     39112     39115     39112     39110
     39115     39116     39115     39123     39115     39117     39123     39124
     39123     39125     39123     39126     39117     39118     39118     39120
     39118     39119     39120     39121     39120     39122     39120     39132
     39132     39133     39132     39134     39132     39135     39135     39136
     39135     39137     39135     39138     39138     39139     39138     39140
     39138     39141     39141     39142     39141     39143     39141     39144
     39144     39145     39144     39146     39144     39147     39147     39148
     39147     39149     39147     39150     39150     39151     39150     39152
     39152     39153     39152     39154     39154     39155     39154     39156
     39154     39157     39157     39158     39157     39159     39157     39160
     39160     39161     39160     39162     39160     39163     39163     39164
     39163     39165     39163     39166     39166     39167     39166     39168
     39166     39169     39169     39170     39169     39171     39169     39172
     39126     39127     39127     39129     39127     39128     39129     39130
     39129     39131     39129     39173     39173     39174     39173     39175
     39173     39176     39176     39177     39176     39178     39176     39179
     39179     39180     39179     39181     39179     39182     39182     39183
     39182     39184     39182     39185     39185     39186     39185     39187
     39185     39188     39188     39189     39188     39190     39188     39191
     39191     39192     39191     39193     39191     39194     39194     39195
     39194     39196     39194     39197     39197     39198     39197     39199
     39197     39200     39200     39201     39200     39202     39200     39203
     39203     39204     39203     39205     39203     39206     39206     39207
     39206     39208     39206     39209     39209     39210     39209     39211
     39209     39212     39212     39213     39212     39214     39212     39215
     39220     39219     39219     39216     39216     39217     39216     39218
     39216     39221     39224     39223     39223     39221     39221     39222
     39221     39225     39225     39226     39225     39227     39225     39231
     39232     39233     39231     39228     39228     39232     39228     39229
     39228     39230     39233     39234     39233     39235     39233     39236
     39236     39237     39236     39244     39236     39238     39244     39245
     39244     39246     39244     39247     39238     39239     39239     39241
     39239     39240     39241     39242     39241     39243     39241     39253
     39253     39254     39253     39255     39253     39256     39256     39257
     39256     39258     39256     39259     39259     39260     39259     39261
     39259     39262     39262     39263     39262     39264     39262     39265
     39265     39266     39265     39267     39265     39268     39268     39269
     39268     39270     39268     39271     39271     39272     39271     39273
     39271     39274     39274     39275     39274     39276     39274     39277
     39277     39278     39277     39279     39279     39280     39279     39281
     39281     39282     39281     39283     39281     39284     39284     39285
     39284     39286     39284     39287     39287     39288     39287     39289
     39287     39290     39290     39291     39290     39292     39290     39293
     39293     39294     39293     39295     39293     39296     39296     39297
     39296     39298     39296     39299     39247     39248     39248     39250
     39248     39249     39250     39251     39250     39252     39250     39300
     39300     39301     39300     39302     39300     39303     39303     39304
     39303     39305     39303     39306     39306     39307     39306     39308
     39306     39309     39309     39310     39309     39311     39309     39312
     39312     39313     39312     39314     39312     39315     39315     39316
     39315     39317     39315     39318     39318     39319     39318     39320
     39318     39321     39321     39322     39321     39323     39321     39324
     39324     39325     39324     39326     39324     39327     39327     39328
     39327     39329     39327     39330     39330     39331     39330     39332
     39330     39333     39333     39334     39333     39335     39333     39336
     39336     39337     39336     39338     39336     39339     39339     39340
     39339     39341     39339     39342     39343     39344     39343     39345
     39343     39346     39343     39347     39347     39348     39347     39349
     39347     39350     39350     39351     39350     39352     39350     39357
     39357     39353     39353     39356     39353     39354     39353     39355
     39358     39359     39358     39360     39358     39361     39358     39356
     39361     39362     39361     39369     39361     39363     39369     39370
     39369     39371     39369     39372     39363     39364     39364     39366
     39364     39365     39366     39367     39366     39368     39366     39378
     39378     39379     39378     39380     39378     39381     39381     39382
     39381     39383     39381     39384     39384     39385     39384     39386
     39384     39387     39387     39388     39387     39389     39387     39390
     39390     39391     39390     39392     39390     39393     39393     39394
     39393     39395     39393     39396     39396     39397     39396     39398
     39398     39399     39398     39400     39400     39401     39400     39402
     39400     39403     39403     39404     39403     39405     39403     39406
     39406     39407     39406     39408     39406     39409     39409     39410
     39409     39411     39409     39412     39412     39413     39412     39414
     39412     39415     39415     39416     39415     39417     39415     39418
     39372     39373     39373     39375     39373     39374     39375     39376
     39375     39377     39375     39419     39419     39420     39419     39421
     39419     39422     39422     39423     39422     39424     39422     39425
     39425     39426     39425     39427     39425     39428     39428     39429
     39428     39430     39428     39431     39431     39432     39431     39433
     39431     39434     39434     39435     39434     39436     39434     39437
     39437     39438     39437     39439     39437     39440     39440     39441
     39440     39442     39440     39443     39443     39444     39443     39445
     39443     39446     39446     39447     39446     39448     39446     39449
     39449     39450     39449     39451     39449     39452     39452     39453
     39452     39454     39452     39455     39455     39456     39455     39457
     39455     39458     39458     39459     39458     39460     39458     39461
     39462     39463     39462     39464     39462     39465     39462     39466
     39466     39467     39466     39468     39466     39469     39469     39470
     39469     39471     39469     39476     39476     39472     39472     39475
     39472     39473     39472     39474     39477     39478     39477     39479
     39477     39480     39477     39475     39480     39481     39480     39488
     39480     39482     39488     39489     39488     39490     39488     39491
     39482     39483     39483     39485     39483     39484     39485     39486
     39485     39487     39485     39497     39497     39498     39497     39499
     39497     39500     39500     39501     39500     39502     39500     39503
     39503     39504     39503     39505     39503     39506     39506     39507
     39506     39508     39506     39509     39509     39510     39509     39511
     39509     39512     39512     39513     39512     39514     39512     39515
     39515     39516     39515     39517     39517     39518     39517     39519
     39519     39520     39519     39521     39519     39522     39522     39523
     39522     39524     39522     39525     39525     39526     39525     39527
     39525     39528     39528     39529     39528     39530     39528     39531
     39531     39532     39531     39533     39531     39534     39534     39535
     39534     39536     39534     39537     39491     39492     39492     39494
     39492     39493     39494     39495     39494     39496     39494     39538
     39538     39539     39538     39540     39538     39541     39541     39542
     39541     39543     39541     39544     39544     39545     39544     39546
     39544     39547     39547     39548     39547     39549     39547     39550
     39550     39551     39550     39552     39550     39553     39553     39554
     39553     39555     39553     39556     39556     39557     39556     39558
     39556     39559     39559     39560     39559     39561     39559     39562
     39562     39563     39562     39564     39562     39565     39565     39566
     39565     39567     39565     39568     39568     39569     39568     39570
     39568     39571     39571     39572     39571     39573     39571     39574
     39574     39575     39574     39576     39574     39577     39577     39578
     39577     39579     39577     39580     39581     39582     39581     39583
     39581     39584     39581     39585     39585     39586     39585     39587
     39585     39588     39588     39589     39588     39590     39588     39595
     39595     39591     39591     39594     39591     39592     39591     39593
     39596     39597     39596     39598     39596     39599     39596     39594
     39599     39600     39599     39607     39599     39601     39607     39608
     39607     39609     39607     39610     39601     39602     39602     39604
     39602     39603     39604     39605     39604     39606     39604     39616
     39616     39617     39616     39618     39616     39619     39619     39620
     39619     39621     39619     39622     39622     39623     39622     39624
     39622     39625     39625     39626     39625     39627     39625     39628
     39628     39629     39628     39630     39628     39631     39631     39632
     39631     39633     39631     39634     39634     39635     39634     39636
     39636     39637     39636     39638     39638     39639     39638     39640
     39638     39641     39641     39642     39641     39643     39641     39644
     39644     39645     39644     39646     39644     39647     39647     39648
     39647     39649     39647     39650     39650     39651     39650     39652
     39650     39653     39653     39654     39653     39655     39653     39656
     39610     39611     39611     39613     39611     39612     39613     39614
     39613     39615     39613     39657     39657     39658     39657     39659
     39657     39660     39660     39661     39660     39662     39660     39663
     39663     39664     39663     39665     39663     39666     39666     39667
     39666     39668     39666     39669     39669     39670     39669     39671
     39669     39672     39672     39673     39672     39674     39672     39675
     39675     39676     39675     39677     39675     39678     39678     39679
     39678     39680     39678     39681     39681     39682     39681     39683
     39681     39684     39684     39685     39684     39686     39684     39687
     39687     39688     39687     39689     39687     39690     39690     39691
     39690     39692     39690     39693     39693     39694     39693     39695
     39693     39696     39696     39697     39696     39698     39696     39699
     39700     39701     39700     39702     39700     39703     39700     39704
     39704     39705     39704     39706     39704     39707     39707     39708
     39707     39709     39707     39714     39714     39710     39710     39713
     39710     39711     39710     39712     39715     39716     39715     39717
     39715     39718     39715     39713     39718     39719     39718     39726
     39718     39720     39726     39727     39726     39728     39726     39729
     39720     39721     39721     39723     39721     39722     39723     39724
     39723     39725     39723     39735     39735     39736     39735     39737
     39735     39738     39738     39739     39738     39740     39738     39741
     39741     39742     39741     39743     39741     39744     39744     39745
     39744     39746     39744     39747     39747     39748     39747     39749
     39747     39750     39750     39751     39750     39752     39750     39753
     39753     39754     39753     39755     39755     39756     39755     39757
     39757     39758     39757     39759     39757     39760     39760     39761
     39760     39762     39760     39763     39763     39764     39763     39765
     39763     39766     39766     39767     39766     39768     39766     39769
     39769     39770     39769     39771     39769     39772     39772     39773
     39772     39774     39772     39775     39729     39730     39730     39732
     39730     39731     39732     39733     39732     39734     39732     39776
     39776     39777     39776     39778     39776     39779     39779     39780
     39779     39781     39779     39782     39782     39783     39782     39784
     39782     39785     39785     39786     39785     39787     39785     39788
     39788     39789     39788     39790     39788     39791     39791     39792
     39791     39793     39791     39794     39794     39795     39794     39796
     39794     39797     39797     39798     39797     39799     39797     39800
     39800     39801     39800     39802     39800     39803     39803     39804
     39803     39805     39803     39806     39806     39807     39806     39808
     39806     39809     39809     39810     39809     39811     39809     39812
     39812     39813     39812     39814     39812     39815     39815     39816
     39815     39817     39815     39818     39819     39820     39819     39821
     39819     39822     39819     39823     39823     39824     39823     39825
     39823     39826     39826     39827     39826     39828     39826     39833
     39833     39829     39829     39832     39829     39830     39829     39831
     39834     39835     39834     39836     39834     39837     39834     39832
     39837     39838     39837     39845     39837     39839     39845     39846
     39845     39847     39845     39848     39839     39840     39840     39842
     39840     39841     39842     39843     39842     39844     39842     39854
     39854     39855     39854     39856     39854     39857     39857     39858
     39857     39859     39857     39860     39860     39861     39860     39862
     39860     39863     39863     39864     39863     39865     39863     39866
     39866     39867     39866     39868     39866     39869     39869     39870
     39869     39871     39869     39872     39872     39873     39872     39874
     39874     39875     39874     39876     39876     39877     39876     39878
     39876     39879     39879     39880     39879     39881     39879     39882
     39882     39883     39882     39884     39882     39885     39885     39886
     39885     39887     39885     39888     39888     39889     39888     39890
     39888     39891     39891     39892     39891     39893     39891     39894
     39848     39849     39849     39851     39849     39850     39851     39852
     39851     39853     39851     39895     39895     39896     39895     39897
     39895     39898     39898     39899     39898     39900     39898     39901
     39901     39902     39901     39903     39901     39904     39904     39905
     39904     39906     39904     39907     39907     39908     39907     39909
     39907     39910     39910     39911     39910     39912     39910     39913
     39913     39914     39913     39915     39913     39916     39916     39917
     39916     39918     39916     39919     39919     39920     39919     39921
     39919     39922     39922     39923     39922     39924     39922     39925
     39925     39926     39925     39927     39925     39928     39928     39929
     39928     39930     39928     39931     39931     39932     39931     39933
     39931     39934     39934     39935     39934     39936     39934     39937
     39942     39941     39941     39938     39938     39939     39938     39940
     39938     39943     39946     39945     39945     39943     39943     39944
     39943     39947     39947     39948     39947     39949     39947     39953
     39954     39955     39953     39950     39950     39954     39950     39951
     39950     39952     39955     39956     39955     39957     39955     39958
     39958     39959     39958     39966     39958     39960     39966     39967
     39966     39968     39966     39969     39960     39961     39961     39963
     39961     39962     39963     39964     39963     39965     39963     39975
     39975     39976     39975     39977     39975     39978     39978     39979
     39978     39980     39978     39981     39981     39982     39981     39983
     39981     39984     39984     39985     39984     39986     39984     39987
     39987     39988     39987     39989     39987     39990     39990     39991
     39990     39992     39990     39993     39993     39994     39993     39995
     39993     39996     39996     39997     39996     39998     39996     39999
     39999     40000     39999     40001     40001     40002     40001     40003
     40003     40004     40003     40005     40003     40006     40006     40007
     40006     40008     40006     40009     40009     40010     40009     40011
     40009     40012     40012     40013     40012     40014     40012     40015
     40015     40016     40015     40017     40015     40018     40018     40019
     40018     40020     40018     40021     39969     39970     39970     39972
     39970     39971     39972     39973     39972     39974     39972     40022
     40022     40023     40022     40024     40022     40025     40025     40026
     40025     40027     40025     40028     40028     40029     40028     40030
     40028     40031     40031     40032     40031     40033     40031     40034
     40034     40035     40034     40036     40034     40037     40037     40038
     40037     40039     40037     40040     40040     40041     40040     40042
     40040     40043     40043     40044     40043     40045     40043     40046
     40046     40047     40046     40048     40046     40049     40049     40050
     40049     40051     40049     40052     40052     40053     40052     40054
     40052     40055     40055     40056     40055     40057     40055     40058
     40058     40059     40058     40060     40058     40061     40061     40062
     40061     40063     40061     40064     40065     40066     40065     40067
     40065     40068     40065     40069     40069     40070     40069     40071
     40069     40072     40072     40073     40072     40074     40072     40079
     40079     40075     40075     40078     40075     40076     40075     40077
     40080     40081     40080     40082     40080     40083     40080     40078
     40083     40084     40083     40091     40083     40085     40091     40092
     40091     40093     40091     40094     40085     40086     40086     40088
     40086     40087     40088     40089     40088     40090     40088     40100
     40100     40101     40100     40102     40100     40103     40103     40104
     40103     40105     40103     40106     40106     40107     40106     40108
     40106     40109     40109     40110     40109     40111     40109     40112
     40112     40113     40112     40114     40112     40115     40115     40116
     40115     40117     40115     40118     40118     40119     40118     40120
     40120     40121     40120     40122     40122     40123     40122     40124
     40122     40125     40125     40126     40125     40127     40125     40128
     40128     40129     40128     40130     40128     40131     40131     40132
     40131     40133     40131     40134     40134     40135     40134     40136
     40134     40137     40137     40138     40137     40139     40137     40140
     40094     40095     40095     40097     40095     40096     40097     40098
     40097     40099     40097     40141     40141     40142     40141     40143
     40141     40144     40144     40145     40144     40146     40144     40147
     40147     40148     40147     40149     40147     40150     40150     40151
     40150     40152     40150     40153     40153     40154     40153     40155
     40153     40156     40156     40157     40156     40158     40156     40159
     40159     40160     40159     40161     40159     40162     40162     40163
     40162     40164     40162     40165     40165     40166     40165     40167
     40165     40168     40168     40169     40168     40170     40168     40171
     40171     40172     40171     40173     40171     40174     40174     40175
     40174     40176     40174     40177     40177     40178     40177     40179
     40177     40180     40180     40181     40180     40182     40180     40183
     40184     40185     40184     40186     40184     40187     40184     40188
     40188     40189     40188     40190     40188     40191     40191     40192
     40191     40193     40191     40198     40198     40194     40194     40197
     40194     40195     40194     40196     40199     40200     40199     40201
     40199     40202     40199     40197     40202     40203     40202     40210
     40202     40204     40210     40211     40210     40212     40210     40213
     40204     40205     40205     40207     40205     40206     40207     40208
     40207     40209     40207     40219     40219     40220     40219     40221
     40219     40222     40222     40223     40222     40224     40222     40225
     40225     40226     40225     40227     40225     40228     40228     40229
     40228     40230     40228     40231     40231     40232     40231     40233
     40231     40234     40234     40235     40234     40236     40234     40237
     40237     40238     40237     40239     40239     40240     40239     40241
     40241     40242     40241     40243     40241     40244     40244     40245
     40244     40246     40244     40247     40247     40248     40247     40249
     40247     40250     40250     40251     40250     40252     40250     40253
     40253     40254     40253     40255     40253     40256     40256     40257
     40256     40258     40256     40259     40213     40214     40214     40216
     40214     40215     40216     40217     40216     40218     40216     40260
     40260     40261     40260     40262     40260     40263     40263     40264
     40263     40265     40263     40266     40266     40267     40266     40268
     40266     40269     40269     40270     40269     40271     40269     40272
     40272     40273     40272     40274     40272     40275     40275     40276
     40275     40277     40275     40278     40278     40279     40278     40280
     40278     40281     40281     40282     40281     40283     40281     40284
     40284     40285     40284     40286     40284     40287     40287     40288
     40287     40289     40287     40290     40290     40291     40290     40292
     40290     40293     40293     40294     40293     40295     40293     40296
     40296     40297     40296     40298     40296     40299     40299     40300
     40299     40301     40299     40302     40303     40304     40303     40305
     40303     40306     40303     40307     40307     40308     40307     40309
     40307     40310     40310     40311     40310     40312     40310     40317
     40317     40313     40313     40316     40313     40314     40313     40315
     40318     40319     40318     40320     40318     40321     40318     40316
     40321     40322     40321     40329     40321     40323     40329     40330
     40329     40331     40329     40332     40323     40324     40324     40326
     40324     40325     40326     40327     40326     40328     40326     40338
     40338     40339     40338     40340     40338     40341     40341     40342
     40341     40343     40341     40344     40344     40345     40344     40346
     40344     40347     40347     40348     40347     40349     40347     40350
     40350     40351     40350     40352     40350     40353     40353     40354
     40353     40355     40353     40356     40356     40357     40356     40358
     40358     40359     40358     40360     40360     40361     40360     40362
     40360     40363     40363     40364     40363     40365     40363     40366
     40366     40367     40366     40368     40366     40369     40369     40370
     40369     40371     40369     40372     40372     40373     40372     40374
     40372     40375     40375     40376     40375     40377     40375     40378
     40332     40333     40333     40335     40333     40334     40335     40336
     40335     40337     40335     40379     40379     40380     40379     40381
     40379     40382     40382     40383     40382     40384     40382     40385
     40385     40386     40385     40387     40385     40388     40388     40389
     40388     40390     40388     40391     40391     40392     40391     40393
     40391     40394     40394     40395     40394     40396     40394     40397
     40397     40398     40397     40399     40397     40400     40400     40401
     40400     40402     40400     40403     40403     40404     40403     40405
     40403     40406     40406     40407     40406     40408     40406     40409
     40409     40410     40409     40411     40409     40412     40412     40413
     40412     40414     40412     40415     40415     40416     40415     40417
     40415     40418     40418     40419     40418     40420     40418     40421
     40422     40423     40422     40424     40422     40425     40422     40426
     40426     40427     40426     40428     40426     40429     40429     40430
     40429     40431     40429     40436     40436     40432     40432     40435
     40432     40433     40432     40434     40437     40438     40437     40439
     40437     40440     40437     40435     40440     40441     40440     40448
     40440     40442     40448     40449     40448     40450     40448     40451
     40442     40443     40443     40445     40443     40444     40445     40446
     40445     40447     40445     40457     40457     40458     40457     40459
     40457     40460     40460     40461     40460     40462     40460     40463
     40463     40464     40463     40465     40463     40466     40466     40467
     40466     40468     40466     40469     40469     40470     40469     40471
     40469     40472     40472     40473     40472     40474     40472     40475
     40475     40476     40475     40477     40477     40478     40477     40479
     40479     40480     40479     40481     40479     40482     40482     40483
     40482     40484     40482     40485     40485     40486     40485     40487
     40485     40488     40488     40489     40488     40490     40488     40491
     40491     40492     40491     40493     40491     40494     40494     40495
     40494     40496     40494     40497     40451     40452     40452     40454
     40452     40453     40454     40455     40454     40456     40454     40498
     40498     40499     40498     40500     40498     40501     40501     40502
     40501     40503     40501     40504     40504     40505     40504     40506
     40504     40507     40507     40508     40507     40509     40507     40510
     40510     40511     40510     40512     40510     40513     40513     40514
     40513     40515     40513     40516     40516     40517     40516     40518
     40516     40519     40519     40520     40519     40521     40519     40522
     40522     40523     40522     40524     40522     40525     40525     40526
     40525     40527     40525     40528     40528     40529     40528     40530
     40528     40531     40531     40532     40531     40533     40531     40534
     40534     40535     40534     40536     40534     40537     40537     40538
     40537     40539     40537     40540     40541     40542     40541     40543
     40541     40544     40541     40545     40545     40546     40545     40547
     40545     40548     40548     40549     40548     40550     40548     40555
     40555     40551     40551     40554     40551     40552     40551     40553
     40556     40557     40556     40558     40556     40559     40556     40554
     40559     40560     40559     40567     40559     40561     40567     40568
     40567     40569     40567     40570     40561     40562     40562     40564
     40562     40563     40564     40565     40564     40566     40564     40576
     40576     40577     40576     40578     40576     40579     40579     40580
     40579     40581     40579     40582     40582     40583     40582     40584
     40582     40585     40585     40586     40585     40587     40585     40588
     40588     40589     40588     40590     40588     40591     40591     40592
     40591     40593     40591     40594     40594     40595     40594     40596
     40596     40597     40596     40598     40598     40599     40598     40600
     40598     40601     40601     40602     40601     40603     40601     40604
     40604     40605     40604     40606     40604     40607     40607     40608
     40607     40609     40607     40610     40610     40611     40610     40612
     40610     40613     40613     40614     40613     40615     40613     40616
     40570     40571     40571     40573     40571     40572     40573     40574
     40573     40575     40573     40617     40617     40618     40617     40619
     40617     40620     40620     40621     40620     40622     40620     40623
     40623     40624     40623     40625     40623     40626     40626     40627
     40626     40628     40626     40629     40629     40630     40629     40631
     40629     40632     40632     40633     40632     40634     40632     40635
     40635     40636     40635     40637     40635     40638     40638     40639
     40638     40640     40638     40641     40641     40642     40641     40643
     40641     40644     40644     40645     40644     40646     40644     40647
     40647     40648     40647     40649     40647     40650     40650     40651
     40650     40652     40650     40653     40653     40654     40653     40655
     40653     40656     40656     40657     40656     40658     40656     40659
     40660     40661     40660     40662     40660     40663     40660     40664
     40664     40665     40664     40666     40664     40667     40667     40668
     40667     40669     40667     40674     40674     40670     40670     40673
     40670     40671     40670     40672     40675     40676     40675     40677
     40675     40678     40675     40673     40678     40679     40678     40686
     40678     40680     40686     40687     40686     40688     40686     40689
     40680     40681     40681     40683     40681     40682     40683     40684
     40683     40685     40683     40695     40695     40696     40695     40697
     40695     40698     40698     40699     40698     40700     40698     40701
     40701     40702     40701     40703     40701     40704     40704     40705
     40704     40706     40704     40707     40707     40708     40707     40709
     40707     40710     40710     40711     40710     40712     40710     40713
     40713     40714     40713     40715     40715     40716     40715     40717
     40717     40718     40717     40719     40717     40720     40720     40721
     40720     40722     40720     40723     40723     40724     40723     40725
     40723     40726     40726     40727     40726     40728     40726     40729
     40729     40730     40729     40731     40729     40732     40732     40733
     40732     40734     40732     40735     40689     40690     40690     40692
     40690     40691     40692     40693     40692     40694     40692     40736
     40736     40737     40736     40738     40736     40739     40739     40740
     40739     40741     40739     40742     40742     40743     40742     40744
     40742     40745     40745     40746     40745     40747     40745     40748
     40748     40749     40748     40750     40748     40751     40751     40752
     40751     40753     40751     40754     40754     40755     40754     40756
     40754     40757     40757     40758     40757     40759     40757     40760
     40760     40761     40760     40762     40760     40763     40763     40764
     40763     40765     40763     40766     40766     40767     40766     40768
     40766     40769     40769     40770     40769     40771     40769     40772
     40772     40773     40772     40774     40772     40775     40775     40776
     40775     40777     40775     40778     40783     40782     40782     40779
     40779     40780     40779     40781     40779     40784     40787     40786
     40786     40784     40784     40785     40784     40788     40788     40789
     40788     40790     40788     40794     40795     40796     40794     40791
     40791     40795     40791     40792     40791     40793     40796     40797
     40796     40798     40796     40799     40799     40800     40799     40807
     40799     40801     40807     40808     40807     40809     40807     40810
     40801     40802     40802     40804     40802     40803     40804     40805
     40804     40806     40804     40816     40816     40817     40816     40818
     40816     40819     40819     40820     40819     40821     40819     40822
     40822     40823     40822     40824     40822     40825     40825     40826
     40825     40827     40825     40828     40828     40829     40828     40830
     40828     40831     40831     40832     40831     40833     40831     40834
     40834     40835     40834     40836     40834     40837     40837     40838
     40837     40839     40837     40840     40840     40841     40840     40842
     40842     40843     40842     40844     40844     40845     40844     40846
     40844     40847     40847     40848     40847     40849     40847     40850
     40850     40851     40850     40852     40850     40853     40853     40854
     40853     40855     40853     40856     40856     40857     40856     40858
     40856     40859     40859     40860     40859     40861     40859     40862
     40810     40811     40811     40813     40811     40812     40813     40814
     40813     40815     40813     40863     40863     40864     40863     40865
     40863     40866     40866     40867     40866     40868     40866     40869
     40869     40870     40869     40871     40869     40872     40872     40873
     40872     40874     40872     40875     40875     40876     40875     40877
     40875     40878     40878     40879     40878     40880     40878     40881
     40881     40882     40881     40883     40881     40884     40884     40885
     40884     40886     40884     40887     40887     40888     40887     40889
     40887     40890     40890     40891     40890     40892     40890     40893
     40893     40894     40893     40895     40893     40896     40896     40897
     40896     40898     40896     40899     40899     40900     40899     40901
     40899     40902     40902     40903     40902     40904     40902     40905
     40910     40909     40909     40906     40906     40907     40906     40908
     40906     40911     40914     40913     40913     40911     40911     40912
     40911     40915     40915     40916     40915     40917     40915     40921
     40922     40923     40921     40918     40918     40922     40918     40919
     40918     40920     40923     40924     40923     40925     40923     40926
     40926     40927     40926     40934     40926     40928     40934     40935
     40934     40936     40934     40937     40928     40929     40929     40931
     40929     40930     40931     40932     40931     40933     40931     40943
     40943     40944     40943     40945     40943     40946     40946     40947
     40946     40948     40946     40949     40949     40950     40949     40951
     40949     40952     40952     40953     40952     40954     40952     40955
     40955     40956     40955     40957     40955     40958     40958     40959
     40958     40960     40958     40961     40961     40962     40961     40963
     40961     40964     40964     40965     40964     40966     40964     40967
     40967     40968     40967     40969     40969     40970     40969     40971
     40971     40972     40971     40973     40971     40974     40974     40975
     40974     40976     40974     40977     40977     40978     40977     40979
     40977     40980     40980     40981     40980     40982     40980     40983
     40983     40984     40983     40985     40983     40986     40986     40987
     40986     40988     40986     40989     40937     40938     40938     40940
     40938     40939     40940     40941     40940     40942     40940     40990
     40990     40991     40990     40992     40990     40993     40993     40994
     40993     40995     40993     40996     40996     40997     40996     40998
     40996     40999     40999     41000     40999     41001     40999     41002
     41002     41003     41002     41004     41002     41005     41005     41006
     41005     41007     41005     41008     41008     41009     41008     41010
     41008     41011     41011     41012     41011     41013     41011     41014
     41014     41015     41014     41016     41014     41017     41017     41018
     41017     41019     41017     41020     41020     41021     41020     41022
     41020     41023     41023     41024     41023     41025     41023     41026
     41026     41027     41026     41028     41026     41029     41029     41030
     41029     41031     41029     41032     41033     41034     41033     41035
     41033     41036     41033     41037     41037     41038     41037     41039
     41037     41040     41040     41041     41040     41042     41040     41047
     41047     41043     41043     41046     41043     41044     41043     41045
     41048     41049     41048     41050     41048     41051     41048     41046
     41051     41052     41051     41059     41051     41053     41059     41060
     41059     41061     41059     41062     41053     41054     41054     41056
     41054     41055     41056     41057     41056     41058     41056     41068
     41068     41069     41068     41070     41068     41071     41071     41072
     41071     41073     41071     41074     41074     41075     41074     41076
     41074     41077     41077     41078     41077     41079     41077     41080
     41080     41081     41080     41082     41080     41083     41083     41084
     41083     41085     41083     41086     41086     41087     41086     41088
     41088     41089     41088     41090     41090     41091     41090     41092
     41090     41093     41093     41094     41093     41095     41093     41096
     41096     41097     41096     41098     41096     41099     41099     41100
     41099     41101     41099     41102     41102     41103     41102     41104
     41102     41105     41105     41106     41105     41107     41105     41108
     41062     41063     41063     41065     41063     41064     41065     41066
     41065     41067     41065     41109     41109     41110     41109     41111
     41109     41112     41112     41113     41112     41114     41112     41115
     41115     41116     41115     41117     41115     41118     41118     41119
     41118     41120     41118     41121     41121     41122     41121     41123
     41121     41124     41124     41125     41124     41126     41124     41127
     41127     41128     41127     41129     41127     41130     41130     41131
     41130     41132     41130     41133     41133     41134     41133     41135
     41133     41136     41136     41137     41136     41138     41136     41139
     41139     41140     41139     41141     41139     41142     41142     41143
     41142     41144     41142     41145     41145     41146     41145     41147
     41145     41148     41148     41149     41148     41150     41148     41151
     41152     41153     41152     41154     41152     41155     41152     41156
     41156     41157     41156     41158     41156     41159     41159     41160
     41159     41161     41159     41166     41166     41162     41162     41165
     41162     41163     41162     41164     41167     41168     41167     41169
     41167     41170     41167     41165     41170     41171     41170     41178
     41170     41172     41178     41179     41178     41180     41178     41181
     41172     41173     41173     41175     41173     41174     41175     41176
     41175     41177     41175     41187     41187     41188     41187     41189
     41187     41190     41190     41191     41190     41192     41190     41193
     41193     41194     41193     41195     41193     41196     41196     41197
     41196     41198     41196     41199     41199     41200     41199     41201
     41199     41202     41202     41203     41202     41204     41202     41205
     41205     41206     41205     41207     41207     41208     41207     41209
     41209     41210     41209     41211     41209     41212     41212     41213
     41212     41214     41212     41215     41215     41216     41215     41217
     41215     41218     41218     41219     41218     41220     41218     41221
     41221     41222     41221     41223     41221     41224     41224     41225
     41224     41226     41224     41227     41181     41182     41182     41184
     41182     41183     41184     41185     41184     41186     41184     41228
     41228     41229     41228     41230     41228     41231     41231     41232
     41231     41233     41231     41234     41234     41235     41234     41236
     41234     41237     41237     41238     41237     41239     41237     41240
     41240     41241     41240     41242     41240     41243     41243     41244
     41243     41245     41243     41246     41246     41247     41246     41248
     41246     41249     41249     41250     41249     41251     41249     41252
     41252     41253     41252     41254     41252     41255     41255     41256
     41255     41257     41255     41258     41258     41259     41258     41260
     41258     41261     41261     41262     41261     41263     41261     41264
     41264     41265     41264     41266     41264     41267     41267     41268
     41267     41269     41267     41270     41286     41282     41286     41287
     41286     41288     41282     41284     41282     41283     41284     41285
     41282     41271     41271     41272     41271     41273     41286     41292
     41271     41277     41289     41292     41289     41293     41289     41290
     41289     41291     41274     41277     41274     41278     41274     41275
     41274     41276     41293     41294     41294     41295     41294     41296
     41294     41297     41297     41298     41297     41299     41297     41305
     41305     41306     41305     41307     41305     41308     41278     41279
     41279     41280     41279     41281     41279     41314     41314     41315
     41314     41316     41314     41322     41322     41323     41322     41324
     41322     41325     41299     41300     41308     41309     41316     41317
     41325     41326     41300     41301     41300     41302     41302     41303
     41302     41304     41302     41331     41331     41332     41331     41333
     41331     41334     41334     41335     41334     41336     41334     41337
     41337     41338     41337     41339     41337     41340     41340     41341
     41340     41342     41340     41343     41343     41344     41343     41345
     41343     41346     41346     41347     41346     41348     41346     41349
     41349     41350     41349     41351     41349     41352     41352     41353
     41352     41354     41352     41355     41355     41356     41355     41357
     41357     41358     41357     41359     41359     41360     41359     41361
     41359     41362     41362     41363     41362     41364     41362     41365
     41365     41366     41365     41367     41365     41368     41368     41369
     41368     41370     41368     41371     41371     41372     41371     41373
     41371     41374     41374     41375     41374     41376     41374     41377
     41309     41310     41309     41311     41311     41312     41311     41313
     41311     41378     41378     41379     41378     41380     41378     41381
     41381     41382     41381     41383     41381     41384     41384     41385
     41384     41386     41384     41387     41387     41388     41387     41389
     41387     41390     41390     41391     41390     41392     41390     41393
     41393     41394     41393     41395     41393     41396     41396     41397
     41396     41398     41396     41399     41399     41400     41399     41401
     41399     41402     41402     41403     41402     41404     41402     41405
     41405     41406     41405     41407     41405     41408     41408     41409
     41408     41410     41408     41411     41411     41412     41411     41413
     41411     41414     41414     41415     41414     41416     41414     41417
     41417     41418     41417     41419     41417     41420     41317     41318
     41317     41319     41319     41320     41319     41321     41319     41421
     41421     41422     41421     41423     41421     41424     41424     41425
     41424     41426     41424     41427     41427     41428     41427     41429
     41427     41430     41430     41431     41430     41432     41430     41433
     41433     41434     41433     41435     41433     41436     41436     41437
     41436     41438     41436     41439     41439     41440     41439     41441
     41439     41442     41442     41443     41442     41444     41442     41445
     41445     41446     41445     41447     41447     41448     41447     41449
     41449     41450     41449     41451     41449     41452     41452     41453
     41452     41454     41452     41455     41455     41456     41455     41457
     41455     41458     41458     41459     41458     41460     41458     41461
     41461     41462     41461     41463     41461     41464     41464     41465
     41464     41466     41464     41467     41326     41327     41326     41328
     41328     41329     41328     41330     41328     41468     41468     41469
     41468     41470     41468     41471     41471     41472     41471     41473
     41471     41474     41474     41475     41474     41476     41474     41477
     41477     41478     41477     41479     41477     41480     41480     41481
     41480     41482     41480     41483     41483     41484     41483     41485
     41483     41486     41486     41487     41486     41488     41486     41489
     41489     41490     41489     41491     41489     41492     41492     41493
     41492     41494     41492     41495     41495     41496     41495     41497
     41495     41498     41498     41499     41498     41500     41498     41501
     41501     41502     41501     41503     41501     41504     41504     41505
     41504     41506     41504     41507     41507     41508     41507     41509
     41507     41510     41511     41512     41511     41513     41511     41514
     41511     41515     41515     41516     41515     41517     41515     41518
     41518     41519     41518     41520     41518     41525     41525     41521
     41521     41524     41521     41522     41521     41523     41526     41527
     41526     41528     41526     41529     41526     41524     41529     41530
     41529     41537     41529     41531     41537     41538     41537     41539
     41537     41540     41531     41532     41532     41534     41532     41533
     41534     41535     41534     41536     41534     41546     41546     41547
     41546     41548     41546     41549     41549     41550     41549     41551
     41549     41552     41552     41553     41552     41554     41552     41555
     41555     41556     41555     41557     41555     41558     41558     41559
     41558     41560     41558     41561     41561     41562     41561     41563
     41561     41564     41564     41565     41564     41566     41566     41567
     41566     41568     41568     41569     41568     41570     41568     41571
     41571     41572     41571     41573     41571     41574     41574     41575
     41574     41576     41574     41577     41577     41578     41577     41579
     41577     41580     41580     41581     41580     41582     41580     41583
     41583     41584     41583     41585     41583     41586     41540     41541
     41541     41543     41541     41542     41543     41544     41543     41545
     41543     41587     41587     41588     41587     41589     41587     41590
     41590     41591     41590     41592     41590     41593     41593     41594
     41593     41595     41593     41596     41596     41597     41596     41598
     41596     41599     41599     41600     41599     41601     41599     41602
     41602     41603     41602     41604     41602     41605     41605     41606
     41605     41607     41605     41608     41608     41609     41608     41610
     41608     41611     41611     41612     41611     41613     41611     41614
     41614     41615     41614     41616     41614     41617     41617     41618
     41617     41619     41617     41620     41620     41621     41620     41622
     41620     41623     41623     41624     41623     41625     41623     41626
     41626     41627     41626     41628     41626     41629     41634     41633
     41633     41630     41630     41631     41630     41632     41630     41635
     41638     41637     41637     41635     41635     41636     41635     41639
     41639     41640     41639     41641     41639     41645     41646     41647
     41645     41642     41642     41646     41642     41643     41642     41644
     41647     41648     41647     41649     41647     41650     41650     41651
     41650     41658     41650     41652     41658     41659     41658     41660
     41658     41661     41652     41653     41653     41655     41653     41654
     41655     41656     41655     41657     41655     41667     41667     41668
     41667     41669     41667     41670     41670     41671     41670     41672
     41670     41673     41673     41674     41673     41675     41673     41676
     41676     41677     41676     41678     41676     41679     41679     41680
     41679     41681     41679     41682     41682     41683     41682     41684
     41682     41685     41685     41686     41685     41687     41685     41688
     41688     41689     41688     41690     41688     41691     41691     41692
     41691     41693     41693     41694     41693     41695     41695     41696
     41695     41697     41695     41698     41698     41699     41698     41700
     41698     41701     41701     41702     41701     41703     41701     41704
     41704     41705     41704     41706     41704     41707     41707     41708
     41707     41709     41707     41710     41710     41711     41710     41712
     41710     41713     41661     41662     41662     41664     41662     41663
     41664     41665     41664     41666     41664     41714     41714     41715
     41714     41716     41714     41717     41717     41718     41717     41719
     41717     41720     41720     41721     41720     41722     41720     41723
     41723     41724     41723     41725     41723     41726     41726     41727
     41726     41728     41726     41729     41729     41730     41729     41731
     41729     41732     41732     41733     41732     41734     41732     41735
     41735     41736     41735     41737     41735     41738     41738     41739
     41738     41740     41738     41741     41741     41742     41741     41743
     41741     41744     41744     41745     41744     41746     41744     41747
     41747     41748     41747     41749     41747     41750     41750     41751
     41750     41752     41750     41753     41753     41754     41753     41755
     41753     41756     41757     41758     41757     41759     41757     41760
     41757     41761     41761     41762     41761     41763     41761     41764
     41764     41765     41764     41766     41764     41771     41771     41767
     41767     41770     41767     41768     41767     41769     41772     41773
     41772     41774     41772     41775     41772     41770     41775     41776
     41775     41783     41775     41777     41783     41784     41783     41785
     41783     41786     41777     41778     41778     41780     41778     41779
     41780     41781     41780     41782     41780     41792     41792     41793
     41792     41794     41792     41795     41795     41796     41795     41797
     41795     41798     41798     41799     41798     41800     41798     41801
     41801     41802     41801     41803     41801     41804     41804     41805
     41804     41806     41804     41807     41807     41808     41807     41809
     41807     41810     41810     41811     41810     41812     41812     41813
     41812     41814     41814     41815     41814     41816     41814     41817
     41817     41818     41817     41819     41817     41820     41820     41821
     41820     41822     41820     41823     41823     41824     41823     41825
     41823     41826     41826     41827     41826     41828     41826     41829
     41829     41830     41829     41831     41829     41832     41786     41787
     41787     41789     41787     41788     41789     41790     41789     41791
     41789     41833     41833     41834     41833     41835     41833     41836
     41836     41837     41836     41838     41836     41839     41839     41840
     41839     41841     41839     41842     41842     41843     41842     41844
     41842     41845     41845     41846     41845     41847     41845     41848
     41848     41849     41848     41850     41848     41851     41851     41852
     41851     41853     41851     41854     41854     41855     41854     41856
     41854     41857     41857     41858     41857     41859     41857     41860
     41860     41861     41860     41862     41860     41863     41863     41864
     41863     41865     41863     41866     41866     41867     41866     41868
     41866     41869     41869     41870     41869     41871     41869     41872
     41872     41873     41872     41874     41872     41875     41876     41877
     41876     41878     41876     41879     41876     41880     41880     41881
     41880     41882     41880     41883     41883     41884     41883     41885
     41883     41890     41890     41886     41886     41889     41886     41887
     41886     41888     41891     41892     41891     41893     41891     41894
     41891     41889     41894     41895     41894     41902     41894     41896
     41902     41903     41902     41904     41902     41905     41896     41897
     41897     41899     41897     41898     41899     41900     41899     41901
     41899     41911     41911     41912     41911     41913     41911     41914
     41914     41915     41914     41916     41914     41917     41917     41918
     41917     41919     41917     41920     41920     41921     41920     41922
     41920     41923     41923     41924     41923     41925     41923     41926
     41926     41927     41926     41928     41926     41929     41929     41930
     41929     41931     41931     41932     41931     41933     41933     41934
     41933     41935     41933     41936     41936     41937     41936     41938
     41936     41939     41939     41940     41939     41941     41939     41942
     41942     41943     41942     41944     41942     41945     41945     41946
     41945     41947     41945     41948     41948     41949     41948     41950
     41948     41951     41905     41906     41906     41908     41906     41907
     41908     41909     41908     41910     41908     41952     41952     41953
     41952     41954     41952     41955     41955     41956     41955     41957
     41955     41958     41958     41959     41958     41960     41958     41961
     41961     41962     41961     41963     41961     41964     41964     41965
     41964     41966     41964     41967     41967     41968     41967     41969
     41967     41970     41970     41971     41970     41972     41970     41973
     41973     41974     41973     41975     41973     41976     41976     41977
     41976     41978     41976     41979     41979     41980     41979     41981
     41979     41982     41982     41983     41982     41984     41982     41985
     41985     41986     41985     41987     41985     41988     41988     41989
     41988     41990     41988     41991     41991     41992     41991     41993
     41991     41994     41995     41996     41995     41997     41995     41998
     41995     41999     41999     42000     41999     42001     41999     42002
     42002     42003     42002     42004     42002     42009     42009     42005
     42005     42008     42005     42006     42005     42007     42010     42011
     42010     42012     42010     42013     42010     42008     42013     42014
     42013     42021     42013     42015     42021     42022     42021     42023
     42021     42024     42015     42016     42016     42018     42016     42017
     42018     42019     42018     42020     42018     42030     42030     42031
     42030     42032     42030     42033     42033     42034     42033     42035
     42033     42036     42036     42037     42036     42038     42036     42039
     42039     42040     42039     42041     42039     42042     42042     42043
     42042     42044     42042     42045     42045     42046     42045     42047
     42045     42048     42048     42049     42048     42050     42050     42051
     42050     42052     42052     42053     42052     42054     42052     42055
     42055     42056     42055     42057     42055     42058     42058     42059
     42058     42060     42058     42061     42061     42062     42061     42063
     42061     42064     42064     42065     42064     42066     42064     42067
     42067     42068     42067     42069     42067     42070     42024     42025
     42025     42027     42025     42026     42027     42028     42027     42029
     42027     42071     42071     42072     42071     42073     42071     42074
     42074     42075     42074     42076     42074     42077     42077     42078
     42077     42079     42077     42080     42080     42081     42080     42082
     42080     42083     42083     42084     42083     42085     42083     42086
     42086     42087     42086     42088     42086     42089     42089     42090
     42089     42091     42089     42092     42092     42093     42092     42094
     42092     42095     42095     42096     42095     42097     42095     42098
     42098     42099     42098     42100     42098     42101     42101     42102
     42101     42103     42101     42104     42104     42105     42104     42106
     42104     42107     42107     42108     42107     42109     42107     42110
     42110     42111     42110     42112     42110     42113     42114     42115
     42114     42116     42114     42117     42114     42118     42118     42119
     42118     42120     42118     42121     42121     42122     42121     42123
     42121     42128     42128     42124     42124     42127     42124     42125
     42124     42126     42129     42130     42129     42131     42129     42132
     42129     42127     42132     42133     42132     42140     42132     42134
     42140     42141     42140     42142     42140     42143     42134     42135
     42135     42137     42135     42136     42137     42138     42137     42139
     42137     42149     42149     42150     42149     42151     42149     42152
     42152     42153     42152     42154     42152     42155     42155     42156
     42155     42157     42155     42158     42158     42159     42158     42160
     42158     42161     42161     42162     42161     42163     42161     42164
     42164     42165     42164     42166     42164     42167     42167     42168
     42167     42169     42169     42170     42169     42171     42171     42172
     42171     42173     42171     42174     42174     42175     42174     42176
     42174     42177     42177     42178     42177     42179     42177     42180
     42180     42181     42180     42182     42180     42183     42183     42184
     42183     42185     42183     42186     42186     42187     42186     42188
     42186     42189     42143     42144     42144     42146     42144     42145
     42146     42147     42146     42148     42146     42190     42190     42191
     42190     42192     42190     42193     42193     42194     42193     42195
     42193     42196     42196     42197     42196     42198     42196     42199
     42199     42200     42199     42201     42199     42202     42202     42203
     42202     42204     42202     42205     42205     42206     42205     42207
     42205     42208     42208     42209     42208     42210     42208     42211
     42211     42212     42211     42213     42211     42214     42214     42215
     42214     42216     42214     42217     42217     42218     42217     42219
     42217     42220     42220     42221     42220     42222     42220     42223
     42223     42224     42223     42225     42223     42226     42226     42227
     42226     42228     42226     42229     42229     42230     42229     42231
     42229     42232     42233     42234     42233     42235     42233     42236
     42233     42237     42237     42238     42237     42239     42237     42240
     42240     42241     42240     42242     42240     42247     42247     42243
     42243     42246     42243     42244     42243     42245     42248     42249
     42248     42250     42248     42251     42248     42246     42251     42252
     42251     42259     42251     42253     42259     42260     42259     42261
     42259     42262     42253     42254     42254     42256     42254     42255
     42256     42257     42256     42258     42256     42268     42268     42269
     42268     42270     42268     42271     42271     42272     42271     42273
     42271     42274     42274     42275     42274     42276     42274     42277
     42277     42278     42277     42279     42277     42280     42280     42281
     42280     42282     42280     42283     42283     42284     42283     42285
     42283     42286     42286     42287     42286     42288     42288     42289
     42288     42290     42290     42291     42290     42292     42290     42293
     42293     42294     42293     42295     42293     42296     42296     42297
     42296     42298     42296     42299     42299     42300     42299     42301
     42299     42302     42302     42303     42302     42304     42302     42305
     42305     42306     42305     42307     42305     42308     42262     42263
     42263     42265     42263     42264     42265     42266     42265     42267
     42265     42309     42309     42310     42309     42311     42309     42312
     42312     42313     42312     42314     42312     42315     42315     42316
     42315     42317     42315     42318     42318     42319     42318     42320
     42318     42321     42321     42322     42321     42323     42321     42324
     42324     42325     42324     42326     42324     42327     42327     42328
     42327     42329     42327     42330     42330     42331     42330     42332
     42330     42333     42333     42334     42333     42335     42333     42336
     42336     42337     42336     42338     42336     42339     42339     42340
     42339     42341     42339     42342     42342     42343     42342     42344
     42342     42345     42345     42346     42345     42347     42345     42348
     42348     42349     42348     42350     42348     42351     42352     42353
     42352     42354     42352     42355     42352     42356     42356     42357
     42356     42358     42356     42359     42359     42360     42359     42361
     42359     42366     42366     42362     42362     42365     42362     42363
     42362     42364     42367     42368     42367     42369     42367     42370
     42367     42365     42370     42371     42370     42378     42370     42372
     42378     42379     42378     42380     42378     42381     42372     42373
     42373     42375     42373     42374     42375     42376     42375     42377
     42375     42387     42387     42388     42387     42389     42387     42390
     42390     42391     42390     42392     42390     42393     42393     42394
     42393     42395     42393     42396     42396     42397     42396     42398
     42396     42399     42399     42400     42399     42401     42399     42402
     42402     42403     42402     42404     42402     42405     42405     42406
     42405     42407     42407     42408     42407     42409     42409     42410
     42409     42411     42409     42412     42412     42413     42412     42414
     42412     42415     42415     42416     42415     42417     42415     42418
     42418     42419     42418     42420     42418     42421     42421     42422
     42421     42423     42421     42424     42424     42425     42424     42426
     42424     42427     42381     42382     42382     42384     42382     42383
     42384     42385     42384     42386     42384     42428     42428     42429
     42428     42430     42428     42431     42431     42432     42431     42433
     42431     42434     42434     42435     42434     42436     42434     42437
     42437     42438     42437     42439     42437     42440     42440     42441
     42440     42442     42440     42443     42443     42444     42443     42445
     42443     42446     42446     42447     42446     42448     42446     42449
     42449     42450     42449     42451     42449     42452     42452     42453
     42452     42454     42452     42455     42455     42456     42455     42457
     42455     42458     42458     42459     42458     42460     42458     42461
     42461     42462     42461     42463     42461     42464     42464     42465
     42464     42466     42464     42467     42467     42468     42467     42469
     42467     42470     42475     42474     42474     42471     42471     42472
     42471     42473     42471     42476     42479     42478     42478     42476
     42476     42477     42476     42480     42480     42481     42480     42482
     42480     42486     42487     42488     42486     42483     42483     42487
     42483     42484     42483     42485     42488     42489     42488     42490
     42488     42491     42491     42492     42491     42499     42491     42493
     42499     42500     42499     42501     42499     42502     42493     42494
     42494     42496     42494     42495     42496     42497     42496     42498
     42496     42508     42508     42509     42508     42510     42508     42511
     42511     42512     42511     42513     42511     42514     42514     42515
     42514     42516     42514     42517     42517     42518     42517     42519
     42517     42520     42520     42521     42520     42522     42520     42523
     42523     42524     42523     42525     42523     42526     42526     42527
     42526     42528     42526     42529     42529     42530     42529     42531
     42529     42532     42532     42533     42532     42534     42534     42535
     42534     42536     42536     42537     42536     42538     42536     42539
     42539     42540     42539     42541     42539     42542     42542     42543
     42542     42544     42542     42545     42545     42546     42545     42547
     42545     42548     42548     42549     42548     42550     42548     42551
     42551     42552     42551     42553     42551     42554     42502     42503
     42503     42505     42503     42504     42505     42506     42505     42507
     42505     42555     42555     42556     42555     42557     42555     42558
     42558     42559     42558     42560     42558     42561     42561     42562
     42561     42563     42561     42564     42564     42565     42564     42566
     42564     42567     42567     42568     42567     42569     42567     42570
     42570     42571     42570     42572     42570     42573     42573     42574
     42573     42575     42573     42576     42576     42577     42576     42578
     42576     42579     42579     42580     42579     42581     42579     42582
     42582     42583     42582     42584     42582     42585     42585     42586
     42585     42587     42585     42588     42588     42589     42588     42590
     42588     42591     42591     42592     42591     42593     42591     42594
     42594     42595     42594     42596     42594     42597     42598     42599
     42598     42600     42598     42601     42598     42602     42602     42603
     42602     42604     42602     42605     42605     42606     42605     42607
     42605     42612     42612     42608     42608     42611     42608     42609
     42608     42610     42613     42614     42613     42615     42613     42616
     42613     42611     42616     42617     42616     42624     42616     42618
     42624     42625     42624     42626     42624     42627     42618     42619
     42619     42621     42619     42620     42621     42622     42621     42623
     42621     42633     42633     42634     42633     42635     42633     42636
     42636     42637     42636     42638     42636     42639     42639     42640
     42639     42641     42639     42642     42642     42643     42642     42644
     42642     42645     42645     42646     42645     42647     42645     42648
     42648     42649     42648     42650     42648     42651     42651     42652
     42651     42653     42653     42654     42653     42655     42655     42656
     42655     42657     42655     42658     42658     42659     42658     42660
     42658     42661     42661     42662     42661     42663     42661     42664
     42664     42665     42664     42666     42664     42667     42667     42668
     42667     42669     42667     42670     42670     42671     42670     42672
     42670     42673     42627     42628     42628     42630     42628     42629
     42630     42631     42630     42632     42630     42674     42674     42675
     42674     42676     42674     42677     42677     42678     42677     42679
     42677     42680     42680     42681     42680     42682     42680     42683
     42683     42684     42683     42685     42683     42686     42686     42687
     42686     42688     42686     42689     42689     42690     42689     42691
     42689     42692     42692     42693     42692     42694     42692     42695
     42695     42696     42695     42697     42695     42698     42698     42699
     42698     42700     42698     42701     42701     42702     42701     42703
     42701     42704     42704     42705     42704     42706     42704     42707
     42707     42708     42707     42709     42707     42710     42710     42711
     42710     42712     42710     42713     42713     42714     42713     42715
     42713     42716     42717     42718     42717     42719     42717     42720
     42717     42721     42721     42722     42721     42723     42721     42724
     42724     42725     42724     42726     42724     42731     42731     42727
     42727     42730     42727     42728     42727     42729     42732     42733
     42732     42734     42732     42735     42732     42730     42735     42736
     42735     42743     42735     42737     42743     42744     42743     42745
     42743     42746     42737     42738     42738     42740     42738     42739
     42740     42741     42740     42742     42740     42752     42752     42753
     42752     42754     42752     42755     42755     42756     42755     42757
     42755     42758     42758     42759     42758     42760     42758     42761
     42761     42762     42761     42763     42761     42764     42764     42765
     42764     42766     42764     42767     42767     42768     42767     42769
     42767     42770     42770     42771     42770     42772     42772     42773
     42772     42774     42774     42775     42774     42776     42774     42777
     42777     42778     42777     42779     42777     42780     42780     42781
     42780     42782     42780     42783     42783     42784     42783     42785
     42783     42786     42786     42787     42786     42788     42786     42789
     42789     42790     42789     42791     42789     42792     42746     42747
     42747     42749     42747     42748     42749     42750     42749     42751
     42749     42793     42793     42794     42793     42795     42793     42796
     42796     42797     42796     42798     42796     42799     42799     42800
     42799     42801     42799     42802     42802     42803     42802     42804
     42802     42805     42805     42806     42805     42807     42805     42808
     42808     42809     42808     42810     42808     42811     42811     42812
     42811     42813     42811     42814     42814     42815     42814     42816
     42814     42817     42817     42818     42817     42819     42817     42820
     42820     42821     42820     42822     42820     42823     42823     42824
     42823     42825     42823     42826     42826     42827     42826     42828
     42826     42829     42829     42830     42829     42831     42829     42832
     42832     42833     42832     42834     42832     42835     42836     42837
     42836     42838     42836     42839     42836     42840     42840     42841
     42840     42842     42840     42843     42843     42844     42843     42845
     42843     42850     42850     42846     42846     42849     42846     42847
     42846     42848     42851     42852     42851     42853     42851     42854
     42851     42849     42854     42855     42854     42862     42854     42856
     42862     42863     42862     42864     42862     42865     42856     42857
     42857     42859     42857     42858     42859     42860     42859     42861
     42859     42871     42871     42872     42871     42873     42871     42874
     42874     42875     42874     42876     42874     42877     42877     42878
     42877     42879     42877     42880     42880     42881     42880     42882
     42880     42883     42883     42884     42883     42885     42883     42886
     42886     42887     42886     42888     42886     42889     42889     42890
     42889     42891     42891     42892     42891     42893     42893     42894
     42893     42895     42893     42896     42896     42897     42896     42898
     42896     42899     42899     42900     42899     42901     42899     42902
     42902     42903     42902     42904     42902     42905     42905     42906
     42905     42907     42905     42908     42908     42909     42908     42910
     42908     42911     42865     42866     42866     42868     42866     42867
     42868     42869     42868     42870     42868     42912     42912     42913
     42912     42914     42912     42915     42915     42916     42915     42917
     42915     42918     42918     42919     42918     42920     42918     42921
     42921     42922     42921     42923     42921     42924     42924     42925
     42924     42926     42924     42927     42927     42928     42927     42929
     42927     42930     42930     42931     42930     42932     42930     42933
     42933     42934     42933     42935     42933     42936     42936     42937
     42936     42938     42936     42939     42939     42940     42939     42941
     42939     42942     42942     42943     42942     42944     42942     42945
     42945     42946     42945     42947     42945     42948     42948     42949
     42948     42950     42948     42951     42951     42952     42951     42953
     42951     42954     42955     42956     42955     42957     42955     42958
     42955     42959     42959     42960     42959     42961     42959     42962
     42962     42963     42962     42964     42962     42969     42969     42965
     42965     42968     42965     42966     42965     42967     42970     42971
     42970     42972     42970     42973     42970     42968     42973     42974
     42973     42981     42973     42975     42981     42982     42981     42983
     42981     42984     42975     42976     42976     42978     42976     42977
     42978     42979     42978     42980     42978     42990     42990     42991
     42990     42992     42990     42993     42993     42994     42993     42995
     42993     42996     42996     42997     42996     42998     42996     42999
     42999     43000     42999     43001     42999     43002     43002     43003
     43002     43004     43002     43005     43005     43006     43005     43007
     43005     43008     43008     43009     43008     43010     43010     43011
     43010     43012     43012     43013     43012     43014     43012     43015
     43015     43016     43015     43017     43015     43018     43018     43019
     43018     43020     43018     43021     43021     43022     43021     43023
     43021     43024     43024     43025     43024     43026     43024     43027
     43027     43028     43027     43029     43027     43030     42984     42985
     42985     42987     42985     42986     42987     42988     42987     42989
     42987     43031     43031     43032     43031     43033     43031     43034
     43034     43035     43034     43036     43034     43037     43037     43038
     43037     43039     43037     43040     43040     43041     43040     43042
     43040     43043     43043     43044     43043     43045     43043     43046
     43046     43047     43046     43048     43046     43049     43049     43050
     43049     43051     43049     43052     43052     43053     43052     43054
     43052     43055     43055     43056     43055     43057     43055     43058
     43058     43059     43058     43060     43058     43061     43061     43062
     43061     43063     43061     43064     43064     43065     43064     43066
     43064     43067     43067     43068     43067     43069     43067     43070
     43070     43071     43070     43072     43070     43073     43074     43075
     43074     43076     43074     43077     43074     43078     43078     43079
     43078     43080     43078     43081     43081     43082     43081     43083
     43081     43088     43088     43084     43084     43087     43084     43085
     43084     43086     43089     43090     43089     43091     43089     43092
     43089     43087     43092     43093     43092     43100     43092     43094
     43100     43101     43100     43102     43100     43103     43094     43095
     43095     43097     43095     43096     43097     43098     43097     43099
     43097     43109     43109     43110     43109     43111     43109     43112
     43112     43113     43112     43114     43112     43115     43115     43116
     43115     43117     43115     43118     43118     43119     43118     43120
     43118     43121     43121     43122     43121     43123     43121     43124
     43124     43125     43124     43126     43124     43127     43127     43128
     43127     43129     43129     43130     43129     43131     43131     43132
     43131     43133     43131     43134     43134     43135     43134     43136
     43134     43137     43137     43138     43137     43139     43137     43140
     43140     43141     43140     43142     43140     43143     43143     43144
     43143     43145     43143     43146     43146     43147     43146     43148
     43146     43149     43103     43104     43104     43106     43104     43105
     43106     43107     43106     43108     43106     43150     43150     43151
     43150     43152     43150     43153     43153     43154     43153     43155
     43153     43156     43156     43157     43156     43158     43156     43159
     43159     43160     43159     43161     43159     43162     43162     43163
     43162     43164     43162     43165     43165     43166     43165     43167
     43165     43168     43168     43169     43168     43170     43168     43171
     43171     43172     43171     43173     43171     43174     43174     43175
     43174     43176     43174     43177     43177     43178     43177     43179
     43177     43180     43180     43181     43180     43182     43180     43183
     43183     43184     43183     43185     43183     43186     43186     43187
     43186     43188     43186     43189     43189     43190     43189     43191
     43189     43192     43197     43196     43196     43193     43193     43194
     43193     43195     43193     43198     43201     43200     43200     43198
     43198     43199     43198     43202     43202     43203     43202     43204
     43202     43208     43209     43210     43208     43205     43205     43209
     43205     43206     43205     43207     43210     43211     43210     43212
     43210     43213     43213     43214     43213     43221     43213     43215
     43221     43222     43221     43223     43221     43224     43215     43216
     43216     43218     43216     43217     43218     43219     43218     43220
     43218     43230     43230     43231     43230     43232     43230     43233
     43233     43234     43233     43235     43233     43236     43236     43237
     43236     43238     43236     43239     43239     43240     43239     43241
     43239     43242     43242     43243     43242     43244     43242     43245
     43245     43246     43245     43247     43245     43248     43248     43249
     43248     43250     43248     43251     43251     43252     43251     43253
     43251     43254     43254     43255     43254     43256     43256     43257
     43256     43258     43258     43259     43258     43260     43258     43261
     43261     43262     43261     43263     43261     43264     43264     43265
     43264     43266     43264     43267     43267     43268     43267     43269
     43267     43270     43270     43271     43270     43272     43270     43273
     43273     43274     43273     43275     43273     43276     43224     43225
     43225     43227     43225     43226     43227     43228     43227     43229
     43227     43277     43277     43278     43277     43279     43277     43280
     43280     43281     43280     43282     43280     43283     43283     43284
     43283     43285     43283     43286     43286     43287     43286     43288
     43286     43289     43289     43290     43289     43291     43289     43292
     43292     43293     43292     43294     43292     43295     43295     43296
     43295     43297     43295     43298     43298     43299     43298     43300
     43298     43301     43301     43302     43301     43303     43301     43304
     43304     43305     43304     43306     43304     43307     43307     43308
     43307     43309     43307     43310     43310     43311     43310     43312
     43310     43313     43313     43314     43313     43315     43313     43316
     43316     43317     43316     43318     43316     43319     43324     43323
     43323     43320     43320     43321     43320     43322     43320     43325
     43328     43327     43327     43325     43325     43326     43325     43329
     43329     43330     43329     43331     43329     43335     43336     43337
     43335     43332     43332     43336     43332     43333     43332     43334
     43337     43338     43337     43339     43337     43340     43340     43341
     43340     43348     43340     43342     43348     43349     43348     43350
     43348     43351     43342     43343     43343     43345     43343     43344
     43345     43346     43345     43347     43345     43357     43357     43358
     43357     43359     43357     43360     43360     43361     43360     43362
     43360     43363     43363     43364     43363     43365     43363     43366
     43366     43367     43366     43368     43366     43369     43369     43370
     43369     43371     43369     43372     43372     43373     43372     43374
     43372     43375     43375     43376     43375     43377     43375     43378
     43378     43379     43378     43380     43378     43381     43381     43382
     43381     43383     43383     43384     43383     43385     43385     43386
     43385     43387     43385     43388     43388     43389     43388     43390
     43388     43391     43391     43392     43391     43393     43391     43394
     43394     43395     43394     43396     43394     43397     43397     43398
     43397     43399     43397     43400     43400     43401     43400     43402
     43400     43403     43351     43352     43352     43354     43352     43353
     43354     43355     43354     43356     43354     43404     43404     43405
     43404     43406     43404     43407     43407     43408     43407     43409
     43407     43410     43410     43411     43410     43412     43410     43413
     43413     43414     43413     43415     43413     43416     43416     43417
     43416     43418     43416     43419     43419     43420     43419     43421
     43419     43422     43422     43423     43422     43424     43422     43425
     43425     43426     43425     43427     43425     43428     43428     43429
     43428     43430     43428     43431     43431     43432     43431     43433
     43431     43434     43434     43435     43434     43436     43434     43437
     43437     43438     43437     43439     43437     43440     43440     43441
     43440     43442     43440     43443     43443     43444     43443     43445
     43443     43446     43447     43448     43447     43449     43447     43450
     43447     43451     43451     43452     43451     43453     43451     43454
     43454     43455     43454     43456     43454     43461     43461     43457
     43457     43460     43457     43458     43457     43459     43462     43463
     43462     43464     43462     43465     43462     43460     43465     43466
     43465     43473     43465     43467     43473     43474     43473     43475
     43473     43476     43467     43468     43468     43470     43468     43469
     43470     43471     43470     43472     43470     43482     43482     43483
     43482     43484     43482     43485     43485     43486     43485     43487
     43485     43488     43488     43489     43488     43490     43488     43491
     43491     43492     43491     43493     43491     43494     43494     43495
     43494     43496     43494     43497     43497     43498     43497     43499
     43497     43500     43500     43501     43500     43502     43502     43503
     43502     43504     43504     43505     43504     43506     43504     43507
     43507     43508     43507     43509     43507     43510     43510     43511
     43510     43512     43510     43513     43513     43514     43513     43515
     43513     43516     43516     43517     43516     43518     43516     43519
     43519     43520     43519     43521     43519     43522     43476     43477
     43477     43479     43477     43478     43479     43480     43479     43481
     43479     43523     43523     43524     43523     43525     43523     43526
     43526     43527     43526     43528     43526     43529     43529     43530
     43529     43531     43529     43532     43532     43533     43532     43534
     43532     43535     43535     43536     43535     43537     43535     43538
     43538     43539     43538     43540     43538     43541     43541     43542
     43541     43543     43541     43544     43544     43545     43544     43546
     43544     43547     43547     43548     43547     43549     43547     43550
     43550     43551     43550     43552     43550     43553     43553     43554
     43553     43555     43553     43556     43556     43557     43556     43558
     43556     43559     43559     43560     43559     43561     43559     43562
     43562     43563     43562     43564     43562     43565     43570     43569
     43569     43566     43566     43567     43566     43568     43566     43571
     43574     43573     43573     43571     43571     43572     43571     43575
     43575     43576     43575     43577     43575     43581     43582     43583
     43581     43578     43578     43582     43578     43579     43578     43580
     43583     43584     43583     43585     43583     43586     43586     43587
     43586     43594     43586     43588     43594     43595     43594     43596
     43594     43597     43588     43589     43589     43591     43589     43590
     43591     43592     43591     43593     43591     43603     43603     43604
     43603     43605     43603     43606     43606     43607     43606     43608
     43606     43609     43609     43610     43609     43611     43609     43612
     43612     43613     43612     43614     43612     43615     43615     43616
     43615     43617     43615     43618     43618     43619     43618     43620
     43618     43621     43621     43622     43621     43623     43621     43624
     43624     43625     43624     43626     43624     43627     43627     43628
     43627     43629     43629     43630     43629     43631     43631     43632
     43631     43633     43631     43634     43634     43635     43634     43636
     43634     43637     43637     43638     43637     43639     43637     43640
     43640     43641     43640     43642     43640     43643     43643     43644
     43643     43645     43643     43646     43646     43647     43646     43648
     43646     43649     43597     43598     43598     43600     43598     43599
     43600     43601     43600     43602     43600     43650     43650     43651
     43650     43652     43650     43653     43653     43654     43653     43655
     43653     43656     43656     43657     43656     43658     43656     43659
     43659     43660     43659     43661     43659     43662     43662     43663
     43662     43664     43662     43665     43665     43666     43665     43667
     43665     43668     43668     43669     43668     43670     43668     43671
     43671     43672     43671     43673     43671     43674     43674     43675
     43674     43676     43674     43677     43677     43678     43677     43679
     43677     43680     43680     43681     43680     43682     43680     43683
     43683     43684     43683     43685     43683     43686     43686     43687
     43686     43688     43686     43689     43689     43690     43689     43691
     43689     43692     43693     43694     43693     43695     43693     43696
     43693     43697     43697     43698     43697     43699     43697     43700
     43700     43701     43700     43702     43700     43707     43707     43703
     43703     43706     43703     43704     43703     43705     43708     43709
     43708     43710     43708     43711     43708     43706     43711     43712
     43711     43719     43711     43713     43719     43720     43719     43721
     43719     43722     43713     43714     43714     43716     43714     43715
     43716     43717     43716     43718     43716     43728     43728     43729
     43728     43730     43728     43731     43731     43732     43731     43733
     43731     43734     43734     43735     43734     43736     43734     43737
     43737     43738     43737     43739     43737     43740     43740     43741
     43740     43742     43740     43743     43743     43744     43743     43745
     43743     43746     43746     43747     43746     43748     43748     43749
     43748     43750     43750     43751     43750     43752     43750     43753
     43753     43754     43753     43755     43753     43756     43756     43757
     43756     43758     43756     43759     43759     43760     43759     43761
     43759     43762     43762     43763     43762     43764     43762     43765
     43765     43766     43765     43767     43765     43768     43722     43723
     43723     43725     43723     43724     43725     43726     43725     43727
     43725     43769     43769     43770     43769     43771     43769     43772
     43772     43773     43772     43774     43772     43775     43775     43776
     43775     43777     43775     43778     43778     43779     43778     43780
     43778     43781     43781     43782     43781     43783     43781     43784
     43784     43785     43784     43786     43784     43787     43787     43788
     43787     43789     43787     43790     43790     43791     43790     43792
     43790     43793     43793     43794     43793     43795     43793     43796
     43796     43797     43796     43798     43796     43799     43799     43800
     43799     43801     43799     43802     43802     43803     43802     43804
     43802     43805     43805     43806     43805     43807     43805     43808
     43808     43809     43808     43810     43808     43811     43812     43813
     43812     43814     43812     43815     43812     43816     43816     43817
     43816     43818     43816     43819     43819     43820     43819     43821
     43819     43826     43826     43822     43822     43825     43822     43823
     43822     43824     43827     43828     43827     43829     43827     43830
     43827     43825     43830     43831     43830     43838     43830     43832
     43838     43839     43838     43840     43838     43841     43832     43833
     43833     43835     43833     43834     43835     43836     43835     43837
     43835     43847     43847     43848     43847     43849     43847     43850
     43850     43851     43850     43852     43850     43853     43853     43854
     43853     43855     43853     43856     43856     43857     43856     43858
     43856     43859     43859     43860     43859     43861     43859     43862
     43862     43863     43862     43864     43862     43865     43865     43866
     43865     43867     43867     43868     43867     43869     43869     43870
     43869     43871     43869     43872     43872     43873     43872     43874
     43872     43875     43875     43876     43875     43877     43875     43878
     43878     43879     43878     43880     43878     43881     43881     43882
     43881     43883     43881     43884     43884     43885     43884     43886
     43884     43887     43841     43842     43842     43844     43842     43843
     43844     43845     43844     43846     43844     43888     43888     43889
     43888     43890     43888     43891     43891     43892     43891     43893
     43891     43894     43894     43895     43894     43896     43894     43897
     43897     43898     43897     43899     43897     43900     43900     43901
     43900     43902     43900     43903     43903     43904     43903     43905
     43903     43906     43906     43907     43906     43908     43906     43909
     43909     43910     43909     43911     43909     43912     43912     43913
     43912     43914     43912     43915     43915     43916     43915     43917
     43915     43918     43918     43919     43918     43920     43918     43921
     43921     43922     43921     43923     43921     43924     43924     43925
     43924     43926     43924     43927     43927     43928     43927     43929
     43927     43930     43946     43942     43946     43947     43946     43948
     43942     43944     43942     43943     43944     43945     43942     43931
     43931     43932     43931     43933     43946     43952     43931     43937
     43949     43952     43949     43953     43949     43950     43949     43951
     43934     43937     43934     43938     43934     43935     43934     43936
     43953     43954     43954     43955     43954     43956     43954     43957
     43957     43958     43957     43959     43957     43965     43965     43966
     43965     43967     43965     43968     43938     43939     43939     43940
     43939     43941     43939     43974     43974     43975     43974     43976
     43974     43982     43982     43983     43982     43984     43982     43985
     43959     43960     43968     43969     43976     43977     43985     43986
     43960     43961     43960     43962     43962     43963     43962     43964
     43962     43991     43991     43992     43991     43993     43991     43994
     43994     43995     43994     43996     43994     43997     43997     43998
     43997     43999     43997     44000     44000     44001     44000     44002
     44000     44003     44003     44004     44003     44005     44003     44006
     44006     44007     44006     44008     44006     44009     44009     44010
     44009     44011     44009     44012     44012     44013     44012     44014
     44012     44015     44015     44016     44015     44017     44017     44018
     44017     44019     44019     44020     44019     44021     44019     44022
     44022     44023     44022     44024     44022     44025     44025     44026
     44025     44027     44025     44028     44028     44029     44028     44030
     44028     44031     44031     44032     44031     44033     44031     44034
     44034     44035     44034     44036     44034     44037     43969     43970
     43969     43971     43971     43972     43971     43973     43971     44038
     44038     44039     44038     44040     44038     44041     44041     44042
     44041     44043     44041     44044     44044     44045     44044     44046
     44044     44047     44047     44048     44047     44049     44047     44050
     44050     44051     44050     44052     44050     44053     44053     44054
     44053     44055     44053     44056     44056     44057     44056     44058
     44056     44059     44059     44060     44059     44061     44059     44062
     44062     44063     44062     44064     44062     44065     44065     44066
     44065     44067     44065     44068     44068     44069     44068     44070
     44068     44071     44071     44072     44071     44073     44071     44074
     44074     44075     44074     44076     44074     44077     44077     44078
     44077     44079     44077     44080     43977     43978     43977     43979
     43979     43980     43979     43981     43979     44081     44081     44082
     44081     44083     44081     44084     44084     44085     44084     44086
     44084     44087     44087     44088     44087     44089     44087     44090
     44090     44091     44090     44092     44090     44093     44093     44094
     44093     44095     44093     44096     44096     44097     44096     44098
     44096     44099     44099     44100     44099     44101     44099     44102
     44102     44103     44102     44104     44102     44105     44105     44106
     44105     44107     44107     44108     44107     44109     44109     44110
     44109     44111     44109     44112     44112     44113     44112     44114
     44112     44115     44115     44116     44115     44117     44115     44118
     44118     44119     44118     44120     44118     44121     44121     44122
     44121     44123     44121     44124     44124     44125     44124     44126
     44124     44127     43986     43987     43986     43988     43988     43989
     43988     43990     43988     44128     44128     44129     44128     44130
     44128     44131     44131     44132     44131     44133     44131     44134
     44134     44135     44134     44136     44134     44137     44137     44138
     44137     44139     44137     44140     44140     44141     44140     44142
     44140     44143     44143     44144     44143     44145     44143     44146
     44146     44147     44146     44148     44146     44149     44149     44150
     44149     44151     44149     44152     44152     44153     44152     44154
     44152     44155     44155     44156     44155     44157     44155     44158
     44158     44159     44158     44160     44158     44161     44161     44162
     44161     44163     44161     44164     44164     44165     44164     44166
     44164     44167     44167     44168     44167     44169     44167     44170
     44171     44172     44171     44173     44171     44174     44171     44175
     44175     44176     44175     44177     44175     44178     44178     44179
     44178     44180     44178     44185     44185     44181     44181     44184
     44181     44182     44181     44183     44186     44187     44186     44188
     44186     44189     44186     44184     44189     44190     44189     44197
     44189     44191     44197     44198     44197     44199     44197     44200
     44191     44192     44192     44194     44192     44193     44194     44195
     44194     44196     44194     44206     44206     44207     44206     44208
     44206     44209     44209     44210     44209     44211     44209     44212
     44212     44213     44212     44214     44212     44215     44215     44216
     44215     44217     44215     44218     44218     44219     44218     44220
     44218     44221     44221     44222     44221     44223     44221     44224
     44224     44225     44224     44226     44226     44227     44226     44228
     44228     44229     44228     44230     44228     44231     44231     44232
     44231     44233     44231     44234     44234     44235     44234     44236
     44234     44237     44237     44238     44237     44239     44237     44240
     44240     44241     44240     44242     44240     44243     44243     44244
     44243     44245     44243     44246     44200     44201     44201     44203
     44201     44202     44203     44204     44203     44205     44203     44247
     44247     44248     44247     44249     44247     44250     44250     44251
     44250     44252     44250     44253     44253     44254     44253     44255
     44253     44256     44256     44257     44256     44258     44256     44259
     44259     44260     44259     44261     44259     44262     44262     44263
     44262     44264     44262     44265     44265     44266     44265     44267
     44265     44268     44268     44269     44268     44270     44268     44271
     44271     44272     44271     44273     44271     44274     44274     44275
     44274     44276     44274     44277     44277     44278     44277     44279
     44277     44280     44280     44281     44280     44282     44280     44283
     44283     44284     44283     44285     44283     44286     44286     44287
     44286     44288     44286     44289     44290     44291     44290     44292
     44290     44293     44290     44294     44294     44295     44294     44296
     44294     44297     44297     44298     44297     44299     44297     44304
     44304     44300     44300     44303     44300     44301     44300     44302
     44305     44306     44305     44307     44305     44308     44305     44303
     44308     44309     44308     44316     44308     44310     44316     44317
     44316     44318     44316     44319     44310     44311     44311     44313
     44311     44312     44313     44314     44313     44315     44313     44325
     44325     44326     44325     44327     44325     44328     44328     44329
     44328     44330     44328     44331     44331     44332     44331     44333
     44331     44334     44334     44335     44334     44336     44334     44337
     44337     44338     44337     44339     44337     44340     44340     44341
     44340     44342     44340     44343     44343     44344     44343     44345
     44345     44346     44345     44347     44347     44348     44347     44349
     44347     44350     44350     44351     44350     44352     44350     44353
     44353     44354     44353     44355     44353     44356     44356     44357
     44356     44358     44356     44359     44359     44360     44359     44361
     44359     44362     44362     44363     44362     44364     44362     44365
     44319     44320     44320     44322     44320     44321     44322     44323
     44322     44324     44322     44366     44366     44367     44366     44368
     44366     44369     44369     44370     44369     44371     44369     44372
     44372     44373     44372     44374     44372     44375     44375     44376
     44375     44377     44375     44378     44378     44379     44378     44380
     44378     44381     44381     44382     44381     44383     44381     44384
     44384     44385     44384     44386     44384     44387     44387     44388
     44387     44389     44387     44390     44390     44391     44390     44392
     44390     44393     44393     44394     44393     44395     44393     44396
     44396     44397     44396     44398     44396     44399     44399     44400
     44399     44401     44399     44402     44402     44403     44402     44404
     44402     44405     44405     44406     44405     44407     44405     44408
     44409     44410     44409     44411     44409     44412     44409     44413
     44413     44414     44413     44415     44413     44416     44416     44417
     44416     44418     44416     44423     44423     44419     44419     44422
     44419     44420     44419     44421     44424     44425     44424     44426
     44424     44427     44424     44422     44427     44428     44427     44435
     44427     44429     44435     44436     44435     44437     44435     44438
     44429     44430     44430     44432     44430     44431     44432     44433
     44432     44434     44432     44444     44444     44445     44444     44446
     44444     44447     44447     44448     44447     44449     44447     44450
     44450     44451     44450     44452     44450     44453     44453     44454
     44453     44455     44453     44456     44456     44457     44456     44458
     44456     44459     44459     44460     44459     44461     44459     44462
     44462     44463     44462     44464     44464     44465     44464     44466
     44466     44467     44466     44468     44466     44469     44469     44470
     44469     44471     44469     44472     44472     44473     44472     44474
     44472     44475     44475     44476     44475     44477     44475     44478
     44478     44479     44478     44480     44478     44481     44481     44482
     44481     44483     44481     44484     44438     44439     44439     44441
     44439     44440     44441     44442     44441     44443     44441     44485
     44485     44486     44485     44487     44485     44488     44488     44489
     44488     44490     44488     44491     44491     44492     44491     44493
     44491     44494     44494     44495     44494     44496     44494     44497
     44497     44498     44497     44499     44497     44500     44500     44501
     44500     44502     44500     44503     44503     44504     44503     44505
     44503     44506     44506     44507     44506     44508     44506     44509
     44509     44510     44509     44511     44509     44512     44512     44513
     44512     44514     44512     44515     44515     44516     44515     44517
     44515     44518     44518     44519     44518     44520     44518     44521
     44521     44522     44521     44523     44521     44524     44524     44525
     44524     44526     44524     44527     44528     44529     44528     44530
     44528     44531     44528     44532     44532     44533     44532     44534
     44532     44535     44535     44536     44535     44537     44535     44542
     44542     44538     44538     44541     44538     44539     44538     44540
     44543     44544     44543     44545     44543     44546     44543     44541
     44546     44547     44546     44554     44546     44548     44554     44555
     44554     44556     44554     44557     44548     44549     44549     44551
     44549     44550     44551     44552     44551     44553     44551     44563
     44563     44564     44563     44565     44563     44566     44566     44567
     44566     44568     44566     44569     44569     44570     44569     44571
     44569     44572     44572     44573     44572     44574     44572     44575
     44575     44576     44575     44577     44575     44578     44578     44579
     44578     44580     44578     44581     44581     44582     44581     44583
     44583     44584     44583     44585     44585     44586     44585     44587
     44585     44588     44588     44589     44588     44590     44588     44591
     44591     44592     44591     44593     44591     44594     44594     44595
     44594     44596     44594     44597     44597     44598     44597     44599
     44597     44600     44600     44601     44600     44602     44600     44603
     44557     44558     44558     44560     44558     44559     44560     44561
     44560     44562     44560     44604     44604     44605     44604     44606
     44604     44607     44607     44608     44607     44609     44607     44610
     44610     44611     44610     44612     44610     44613     44613     44614
     44613     44615     44613     44616     44616     44617     44616     44618
     44616     44619     44619     44620     44619     44621     44619     44622
     44622     44623     44622     44624     44622     44625     44625     44626
     44625     44627     44625     44628     44628     44629     44628     44630
     44628     44631     44631     44632     44631     44633     44631     44634
     44634     44635     44634     44636     44634     44637     44637     44638
     44637     44639     44637     44640     44640     44641     44640     44642
     44640     44643     44643     44644     44643     44645     44643     44646
     44647     44648     44647     44649     44647     44650     44647     44651
     44651     44652     44651     44653     44651     44654     44654     44655
     44654     44656     44654     44661     44661     44657     44657     44660
     44657     44658     44657     44659     44662     44663     44662     44664
     44662     44665     44662     44660     44665     44666     44665     44673
     44665     44667     44673     44674     44673     44675     44673     44676
     44667     44668     44668     44670     44668     44669     44670     44671
     44670     44672     44670     44682     44682     44683     44682     44684
     44682     44685     44685     44686     44685     44687     44685     44688
     44688     44689     44688     44690     44688     44691     44691     44692
     44691     44693     44691     44694     44694     44695     44694     44696
     44694     44697     44697     44698     44697     44699     44697     44700
     44700     44701     44700     44702     44702     44703     44702     44704
     44704     44705     44704     44706     44704     44707     44707     44708
     44707     44709     44707     44710     44710     44711     44710     44712
     44710     44713     44713     44714     44713     44715     44713     44716
     44716     44717     44716     44718     44716     44719     44719     44720
     44719     44721     44719     44722     44676     44677     44677     44679
     44677     44678     44679     44680     44679     44681     44679     44723
     44723     44724     44723     44725     44723     44726     44726     44727
     44726     44728     44726     44729     44729     44730     44729     44731
     44729     44732     44732     44733     44732     44734     44732     44735
     44735     44736     44735     44737     44735     44738     44738     44739
     44738     44740     44738     44741     44741     44742     44741     44743
     44741     44744     44744     44745     44744     44746     44744     44747
     44747     44748     44747     44749     44747     44750     44750     44751
     44750     44752     44750     44753     44753     44754     44753     44755
     44753     44756     44756     44757     44756     44758     44756     44759
     44759     44760     44759     44761     44759     44762     44762     44763
     44762     44764     44762     44765     44781     44777     44781     44782
     44781     44783     44777     44779     44777     44778     44779     44780
     44777     44766     44766     44767     44766     44768     44781     44787
     44766     44772     44784     44787     44784     44788     44784     44785
     44784     44786     44769     44772     44769     44773     44769     44770
     44769     44771     44788     44789     44789     44790     44789     44791
     44789     44792     44792     44793     44792     44794     44792     44800
     44800     44801     44800     44802     44800     44803     44773     44774
     44774     44775     44774     44776     44774     44809     44809     44810
     44809     44811     44809     44817     44817     44818     44817     44819
     44817     44820     44794     44795     44803     44804     44811     44812
     44820     44821     44795     44796     44795     44797     44797     44798
     44797     44799     44797     44826     44826     44827     44826     44828
     44826     44829     44829     44830     44829     44831     44829     44832
     44832     44833     44832     44834     44832     44835     44835     44836
     44835     44837     44835     44838     44838     44839     44838     44840
     44838     44841     44841     44842     44841     44843     44841     44844
     44844     44845     44844     44846     44844     44847     44847     44848
     44847     44849     44847     44850     44850     44851     44850     44852
     44852     44853     44852     44854     44854     44855     44854     44856
     44854     44857     44857     44858     44857     44859     44857     44860
     44860     44861     44860     44862     44860     44863     44863     44864
     44863     44865     44863     44866     44866     44867     44866     44868
     44866     44869     44869     44870     44869     44871     44869     44872
     44804     44805     44804     44806     44806     44807     44806     44808
     44806     44873     44873     44874     44873     44875     44873     44876
     44876     44877     44876     44878     44876     44879     44879     44880
     44879     44881     44879     44882     44882     44883     44882     44884
     44882     44885     44885     44886     44885     44887     44885     44888
     44888     44889     44888     44890     44888     44891     44891     44892
     44891     44893     44891     44894     44894     44895     44894     44896
     44894     44897     44897     44898     44897     44899     44897     44900
     44900     44901     44900     44902     44900     44903     44903     44904
     44903     44905     44903     44906     44906     44907     44906     44908
     44906     44909     44909     44910     44909     44911     44909     44912
     44912     44913     44912     44914     44912     44915     44812     44813
     44812     44814     44814     44815     44814     44816     44814     44916
     44916     44917     44916     44918     44916     44919     44919     44920
     44919     44921     44919     44922     44922     44923     44922     44924
     44922     44925     44925     44926     44925     44927     44925     44928
     44928     44929     44928     44930     44928     44931     44931     44932
     44931     44933     44931     44934     44934     44935     44934     44936
     44934     44937     44937     44938     44937     44939     44937     44940
     44940     44941     44940     44942     44942     44943     44942     44944
     44944     44945     44944     44946     44944     44947     44947     44948
     44947     44949     44947     44950     44950     44951     44950     44952
     44950     44953     44953     44954     44953     44955     44953     44956
     44956     44957     44956     44958     44956     44959     44959     44960
     44959     44961     44959     44962     44821     44822     44821     44823
     44823     44824     44823     44825     44823     44963     44963     44964
     44963     44965     44963     44966     44966     44967     44966     44968
     44966     44969     44969     44970     44969     44971     44969     44972
     44972     44973     44972     44974     44972     44975     44975     44976
     44975     44977     44975     44978     44978     44979     44978     44980
     44978     44981     44981     44982     44981     44983     44981     44984
     44984     44985     44984     44986     44984     44987     44987     44988
     44987     44989     44987     44990     44990     44991     44990     44992
     44990     44993     44993     44994     44993     44995     44993     44996
     44996     44997     44996     44998     44996     44999     44999     45000
     44999     45001     44999     45002     45002     45003     45002     45004
     45002     45005     45006     45007     45006     45008     45006     45009
     45006     45010     45010     45011     45010     45012     45010     45013
     45013     45014     45013     45015     45013     45020     45020     45016
     45016     45019     45016     45017     45016     45018     45021     45022
     45021     45023     45021     45024     45021     45019     45024     45025
     45024     45032     45024     45026     45032     45033     45032     45034
     45032     45035     45026     45027     45027     45029     45027     45028
     45029     45030     45029     45031     45029     45041     45041     45042
     45041     45043     45041     45044     45044     45045     45044     45046
     45044     45047     45047     45048     45047     45049     45047     45050
     45050     45051     45050     45052     45050     45053     45053     45054
     45053     45055     45053     45056     45056     45057     45056     45058
     45056     45059     45059     45060     45059     45061     45061     45062
     45061     45063     45063     45064     45063     45065     45063     45066
     45066     45067     45066     45068     45066     45069     45069     45070
     45069     45071     45069     45072     45072     45073     45072     45074
     45072     45075     45075     45076     45075     45077     45075     45078
     45078     45079     45078     45080     45078     45081     45035     45036
     45036     45038     45036     45037     45038     45039     45038     45040
     45038     45082     45082     45083     45082     45084     45082     45085
     45085     45086     45085     45087     45085     45088     45088     45089
     45088     45090     45088     45091     45091     45092     45091     45093
     45091     45094     45094     45095     45094     45096     45094     45097
     45097     45098     45097     45099     45097     45100     45100     45101
     45100     45102     45100     45103     45103     45104     45103     45105
     45103     45106     45106     45107     45106     45108     45106     45109
     45109     45110     45109     45111     45109     45112     45112     45113
     45112     45114     45112     45115     45115     45116     45115     45117
     45115     45118     45118     45119     45118     45120     45118     45121
     45121     45122     45121     45123     45121     45124     45125     45126
     45125     45127     45125     45128     45125     45129     45129     45130
     45129     45131     45129     45132     45132     45133     45132     45134
     45132     45139     45139     45135     45135     45138     45135     45136
     45135     45137     45140     45141     45140     45142     45140     45143
     45140     45138     45143     45144     45143     45151     45143     45145
     45151     45152     45151     45153     45151     45154     45145     45146
     45146     45148     45146     45147     45148     45149     45148     45150
     45148     45160     45160     45161     45160     45162     45160     45163
     45163     45164     45163     45165     45163     45166     45166     45167
     45166     45168     45166     45169     45169     45170     45169     45171
     45169     45172     45172     45173     45172     45174     45172     45175
     45175     45176     45175     45177     45175     45178     45178     45179
     45178     45180     45180     45181     45180     45182     45182     45183
     45182     45184     45182     45185     45185     45186     45185     45187
     45185     45188     45188     45189     45188     45190     45188     45191
     45191     45192     45191     45193     45191     45194     45194     45195
     45194     45196     45194     45197     45197     45198     45197     45199
     45197     45200     45154     45155     45155     45157     45155     45156
     45157     45158     45157     45159     45157     45201     45201     45202
     45201     45203     45201     45204     45204     45205     45204     45206
     45204     45207     45207     45208     45207     45209     45207     45210
     45210     45211     45210     45212     45210     45213     45213     45214
     45213     45215     45213     45216     45216     45217     45216     45218
     45216     45219     45219     45220     45219     45221     45219     45222
     45222     45223     45222     45224     45222     45225     45225     45226
     45225     45227     45225     45228     45228     45229     45228     45230
     45228     45231     45231     45232     45231     45233     45231     45234
     45234     45235     45234     45236     45234     45237     45237     45238
     45237     45239     45237     45240     45240     45241     45240     45242
     45240     45243     45244     45245     45244     45246     45244     45247
     45244     45248     45248     45249     45248     45250     45248     45251
     45251     45252     45251     45253     45251     45258     45258     45254
     45254     45257     45254     45255     45254     45256     45259     45260
     45259     45261     45259     45262     45259     45257     45262     45263
     45262     45270     45262     45264     45270     45271     45270     45272
     45270     45273     45264     45265     45265     45267     45265     45266
     45267     45268     45267     45269     45267     45279     45279     45280
     45279     45281     45279     45282     45282     45283     45282     45284
     45282     45285     45285     45286     45285     45287     45285     45288
     45288     45289     45288     45290     45288     45291     45291     45292
     45291     45293     45291     45294     45294     45295     45294     45296
     45294     45297     45297     45298     45297     45299     45299     45300
     45299     45301     45301     45302     45301     45303     45301     45304
     45304     45305     45304     45306     45304     45307     45307     45308
     45307     45309     45307     45310     45310     45311     45310     45312
     45310     45313     45313     45314     45313     45315     45313     45316
     45316     45317     45316     45318     45316     45319     45273     45274
     45274     45276     45274     45275     45276     45277     45276     45278
     45276     45320     45320     45321     45320     45322     45320     45323
     45323     45324     45323     45325     45323     45326     45326     45327
     45326     45328     45326     45329     45329     45330     45329     45331
     45329     45332     45332     45333     45332     45334     45332     45335
     45335     45336     45335     45337     45335     45338     45338     45339
     45338     45340     45338     45341     45341     45342     45341     45343
     45341     45344     45344     45345     45344     45346     45344     45347
     45347     45348     45347     45349     45347     45350     45350     45351
     45350     45352     45350     45353     45353     45354     45353     45355
     45353     45356     45356     45357     45356     45358     45356     45359
     45359     45360     45359     45361     45359     45362     45363     45364
     45363     45365     45363     45366     45363     45367     45367     45368
     45367     45369     45367     45370     45370     45371     45370     45372
     45370     45377     45377     45373     45373     45376     45373     45374
     45373     45375     45378     45379     45378     45380     45378     45381
     45378     45376     45381     45382     45381     45389     45381     45383
     45389     45390     45389     45391     45389     45392     45383     45384
     45384     45386     45384     45385     45386     45387     45386     45388
     45386     45398     45398     45399     45398     45400     45398     45401
     45401     45402     45401     45403     45401     45404     45404     45405
     45404     45406     45404     45407     45407     45408     45407     45409
     45407     45410     45410     45411     45410     45412     45410     45413
     45413     45414     45413     45415     45413     45416     45416     45417
     45416     45418     45418     45419     45418     45420     45420     45421
     45420     45422     45420     45423     45423     45424     45423     45425
     45423     45426     45426     45427     45426     45428     45426     45429
     45429     45430     45429     45431     45429     45432     45432     45433
     45432     45434     45432     45435     45435     45436     45435     45437
     45435     45438     45392     45393     45393     45395     45393     45394
     45395     45396     45395     45397     45395     45439     45439     45440
     45439     45441     45439     45442     45442     45443     45442     45444
     45442     45445     45445     45446     45445     45447     45445     45448
     45448     45449     45448     45450     45448     45451     45451     45452
     45451     45453     45451     45454     45454     45455     45454     45456
     45454     45457     45457     45458     45457     45459     45457     45460
     45460     45461     45460     45462     45460     45463     45463     45464
     45463     45465     45463     45466     45466     45467     45466     45468
     45466     45469     45469     45470     45469     45471     45469     45472
     45472     45473     45472     45474     45472     45475     45475     45476
     45475     45477     45475     45478     45478     45479     45478     45480
     45478     45481     45482     45483     45482     45484     45482     45485
     45482     45486     45486     45487     45486     45488     45486     45489
     45489     45490     45489     45491     45489     45496     45496     45492
     45492     45495     45492     45493     45492     45494     45497     45498
     45497     45499     45497     45500     45497     45495     45500     45501
     45500     45508     45500     45502     45508     45509     45508     45510
     45508     45511     45502     45503     45503     45505     45503     45504
     45505     45506     45505     45507     45505     45517     45517     45518
     45517     45519     45517     45520     45520     45521     45520     45522
     45520     45523     45523     45524     45523     45525     45523     45526
     45526     45527     45526     45528     45526     45529     45529     45530
     45529     45531     45529     45532     45532     45533     45532     45534
     45532     45535     45535     45536     45535     45537     45537     45538
     45537     45539     45539     45540     45539     45541     45539     45542
     45542     45543     45542     45544     45542     45545     45545     45546
     45545     45547     45545     45548     45548     45549     45548     45550
     45548     45551     45551     45552     45551     45553     45551     45554
     45554     45555     45554     45556     45554     45557     45511     45512
     45512     45514     45512     45513     45514     45515     45514     45516
     45514     45558     45558     45559     45558     45560     45558     45561
     45561     45562     45561     45563     45561     45564     45564     45565
     45564     45566     45564     45567     45567     45568     45567     45569
     45567     45570     45570     45571     45570     45572     45570     45573
     45573     45574     45573     45575     45573     45576     45576     45577
     45576     45578     45576     45579     45579     45580     45579     45581
     45579     45582     45582     45583     45582     45584     45582     45585
     45585     45586     45585     45587     45585     45588     45588     45589
     45588     45590     45588     45591     45591     45592     45591     45593
     45591     45594     45594     45595     45594     45596     45594     45597
     45597     45598     45597     45599     45597     45600     45601     45602
     45601     45603     45601     45604     45601     45605     45605     45606
     45605     45607     45605     45608     45608     45609     45608     45610
     45608     45615     45615     45611     45611     45614     45611     45612
     45611     45613     45616     45617     45616     45618     45616     45619
     45616     45614     45619     45620     45619     45627     45619     45621
     45627     45628     45627     45629     45627     45630     45621     45622
     45622     45624     45622     45623     45624     45625     45624     45626
     45624     45636     45636     45637     45636     45638     45636     45639
     45639     45640     45639     45641     45639     45642     45642     45643
     45642     45644     45642     45645     45645     45646     45645     45647
     45645     45648     45648     45649     45648     45650     45648     45651
     45651     45652     45651     45653     45651     45654     45654     45655
     45654     45656     45656     45657     45656     45658     45658     45659
     45658     45660     45658     45661     45661     45662     45661     45663
     45661     45664     45664     45665     45664     45666     45664     45667
     45667     45668     45667     45669     45667     45670     45670     45671
     45670     45672     45670     45673     45673     45674     45673     45675
     45673     45676     45630     45631     45631     45633     45631     45632
     45633     45634     45633     45635     45633     45677     45677     45678
     45677     45679     45677     45680     45680     45681     45680     45682
     45680     45683     45683     45684     45683     45685     45683     45686
     45686     45687     45686     45688     45686     45689     45689     45690
     45689     45691     45689     45692     45692     45693     45692     45694
     45692     45695     45695     45696     45695     45697     45695     45698
     45698     45699     45698     45700     45698     45701     45701     45702
     45701     45703     45701     45704     45704     45705     45704     45706
     45704     45707     45707     45708     45707     45709     45707     45710
     45710     45711     45710     45712     45710     45713     45713     45714
     45713     45715     45713     45716     45716     45717     45716     45718
     45716     45719     45720     45721     45720     45722     45720     45723
     45720     45724     45724     45725     45724     45726     45724     45727
     45727     45728     45727     45729     45727     45734     45734     45730
     45730     45733     45730     45731     45730     45732     45735     45736
     45735     45737     45735     45738     45735     45733     45738     45739
     45738     45746     45738     45740     45746     45747     45746     45748
     45746     45749     45740     45741     45741     45743     45741     45742
     45743     45744     45743     45745     45743     45755     45755     45756
     45755     45757     45755     45758     45758     45759     45758     45760
     45758     45761     45761     45762     45761     45763     45761     45764
     45764     45765     45764     45766     45764     45767     45767     45768
     45767     45769     45767     45770     45770     45771     45770     45772
     45770     45773     45773     45774     45773     45775     45775     45776
     45775     45777     45777     45778     45777     45779     45777     45780
     45780     45781     45780     45782     45780     45783     45783     45784
     45783     45785     45783     45786     45786     45787     45786     45788
     45786     45789     45789     45790     45789     45791     45789     45792
     45792     45793     45792     45794     45792     45795     45749     45750
     45750     45752     45750     45751     45752     45753     45752     45754
     45752     45796     45796     45797     45796     45798     45796     45799
     45799     45800     45799     45801     45799     45802     45802     45803
     45802     45804     45802     45805     45805     45806     45805     45807
     45805     45808     45808     45809     45808     45810     45808     45811
     45811     45812     45811     45813     45811     45814     45814     45815
     45814     45816     45814     45817     45817     45818     45817     45819
     45817     45820     45820     45821     45820     45822     45820     45823
     45823     45824     45823     45825     45823     45826     45826     45827
     45826     45828     45826     45829     45829     45830     45829     45831
     45829     45832     45832     45833     45832     45834     45832     45835
     45835     45836     45835     45837     45835     45838     45839     45840
     45839     45841     45839     45842     45839     45843     45843     45844
     45843     45845     45843     45846     45846     45847     45846     45848
     45846     45853     45853     45849     45849     45852     45849     45850
     45849     45851     45854     45855     45854     45856     45854     45857
     45854     45852     45857     45858     45857     45865     45857     45859
     45865     45866     45865     45867     45865     45868     45859     45860
     45860     45862     45860     45861     45862     45863     45862     45864
     45862     45874     45874     45875     45874     45876     45874     45877
     45877     45878     45877     45879     45877     45880     45880     45881
     45880     45882     45880     45883     45883     45884     45883     45885
     45883     45886     45886     45887     45886     45888     45886     45889
     45889     45890     45889     45891     45889     45892     45892     45893
     45892     45894     45894     45895     45894     45896     45896     45897
     45896     45898     45896     45899     45899     45900     45899     45901
     45899     45902     45902     45903     45902     45904     45902     45905
     45905     45906     45905     45907     45905     45908     45908     45909
     45908     45910     45908     45911     45911     45912     45911     45913
     45911     45914     45868     45869     45869     45871     45869     45870
     45871     45872     45871     45873     45871     45915     45915     45916
     45915     45917     45915     45918     45918     45919     45918     45920
     45918     45921     45921     45922     45921     45923     45921     45924
     45924     45925     45924     45926     45924     45927     45927     45928
     45927     45929     45927     45930     45930     45931     45930     45932
     45930     45933     45933     45934     45933     45935     45933     45936
     45936     45937     45936     45938     45936     45939     45939     45940
     45939     45941     45939     45942     45942     45943     45942     45944
     45942     45945     45945     45946     45945     45947     45945     45948
     45948     45949     45948     45950     45948     45951     45951     45952
     45951     45953     45951     45954     45954     45955     45954     45956
     45954     45957     45958     45959     45958     45960     45958     45961
     45958     45962     45962     45963     45962     45964     45962     45965
     45965     45966     45965     45967     45965     45972     45972     45968
     45968     45971     45968     45969     45968     45970     45973     45974
     45973     45975     45973     45976     45973     45971     45976     45977
     45976     45984     45976     45978     45984     45985     45984     45986
     45984     45987     45978     45979     45979     45981     45979     45980
     45981     45982     45981     45983     45981     45993     45993     45994
     45993     45995     45993     45996     45996     45997     45996     45998
     45996     45999     45999     46000     45999     46001     45999     46002
     46002     46003     46002     46004     46002     46005     46005     46006
     46005     46007     46005     46008     46008     46009     46008     46010
     46008     46011     46011     46012     46011     46013     46013     46014
     46013     46015     46015     46016     46015     46017     46015     46018
     46018     46019     46018     46020     46018     46021     46021     46022
     46021     46023     46021     46024     46024     46025     46024     46026
     46024     46027     46027     46028     46027     46029     46027     46030
     46030     46031     46030     46032     46030     46033     45987     45988
     45988     45990     45988     45989     45990     45991     45990     45992
     45990     46034     46034     46035     46034     46036     46034     46037
     46037     46038     46037     46039     46037     46040     46040     46041
     46040     46042     46040     46043     46043     46044     46043     46045
     46043     46046     46046     46047     46046     46048     46046     46049
     46049     46050     46049     46051     46049     46052     46052     46053
     46052     46054     46052     46055     46055     46056     46055     46057
     46055     46058     46058     46059     46058     46060     46058     46061
     46061     46062     46061     46063     46061     46064     46064     46065
     46064     46066     46064     46067     46067     46068     46067     46069
     46067     46070     46070     46071     46070     46072     46070     46073
     46073     46074     46073     46075     46073     46076     46077     46078
     46077     46079     46077     46080     46077     46081     46081     46082
     46081     46083     46081     46084     46084     46085     46084     46086
     46084     46091     46091     46087     46087     46090     46087     46088
     46087     46089     46092     46093     46092     46094     46092     46095
     46092     46090     46095     46096     46095     46103     46095     46097
     46103     46104     46103     46105     46103     46106     46097     46098
     46098     46100     46098     46099     46100     46101     46100     46102
     46100     46112     46112     46113     46112     46114     46112     46115
     46115     46116     46115     46117     46115     46118     46118     46119
     46118     46120     46118     46121     46121     46122     46121     46123
     46121     46124     46124     46125     46124     46126     46124     46127
     46127     46128     46127     46129     46127     46130     46130     46131
     46130     46132     46132     46133     46132     46134     46134     46135
     46134     46136     46134     46137     46137     46138     46137     46139
     46137     46140     46140     46141     46140     46142     46140     46143
     46143     46144     46143     46145     46143     46146     46146     46147
     46146     46148     46146     46149     46149     46150     46149     46151
     46149     46152     46106     46107     46107     46109     46107     46108
     46109     46110     46109     46111     46109     46153     46153     46154
     46153     46155     46153     46156     46156     46157     46156     46158
     46156     46159     46159     46160     46159     46161     46159     46162
     46162     46163     46162     46164     46162     46165     46165     46166
     46165     46167     46165     46168     46168     46169     46168     46170
     46168     46171     46171     46172     46171     46173     46171     46174
     46174     46175     46174     46176     46174     46177     46177     46178
     46177     46179     46177     46180     46180     46181     46180     46182
     46180     46183     46183     46184     46183     46185     46183     46186
     46186     46187     46186     46188     46186     46189     46189     46190
     46189     46191     46189     46192     46192     46193     46192     46194
     46192     46195     46200     46199     46199     46196     46196     46197
     46196     46198     46196     46201     46204     46203     46203     46201
     46201     46202     46201     46205     46205     46206     46205     46207
     46205     46211     46212     46213     46211     46208     46208     46212
     46208     46209     46208     46210     46213     46214     46213     46215
     46213     46216     46216     46217     46216     46224     46216     46218
     46224     46225     46224     46226     46224     46227     46218     46219
     46219     46221     46219     46220     46221     46222     46221     46223
     46221     46233     46233     46234     46233     46235     46233     46236
     46236     46237     46236     46238     46236     46239     46239     46240
     46239     46241     46239     46242     46242     46243     46242     46244
     46242     46245     46245     46246     46245     46247     46245     46248
     46248     46249     46248     46250     46248     46251     46251     46252
     46251     46253     46251     46254     46254     46255     46254     46256
     46254     46257     46257     46258     46257     46259     46259     46260
     46259     46261     46261     46262     46261     46263     46261     46264
     46264     46265     46264     46266     46264     46267     46267     46268
     46267     46269     46267     46270     46270     46271     46270     46272
     46270     46273     46273     46274     46273     46275     46273     46276
     46276     46277     46276     46278     46276     46279     46227     46228
     46228     46230     46228     46229     46230     46231     46230     46232
     46230     46280     46280     46281     46280     46282     46280     46283
     46283     46284     46283     46285     46283     46286     46286     46287
     46286     46288     46286     46289     46289     46290     46289     46291
     46289     46292     46292     46293     46292     46294     46292     46295
     46295     46296     46295     46297     46295     46298     46298     46299
     46298     46300     46298     46301     46301     46302     46301     46303
     46301     46304     46304     46305     46304     46306     46304     46307
     46307     46308     46307     46309     46307     46310     46310     46311
     46310     46312     46310     46313     46313     46314     46313     46315
     46313     46316     46316     46317     46316     46318     46316     46319
     46319     46320     46319     46321     46319     46322     46323     46324
     46323     46325     46323     46326     46323     46327     46327     46328
     46327     46329     46327     46330     46330     46331     46330     46332
     46330     46337     46337     46333     46333     46336     46333     46334
     46333     46335     46338     46339     46338     46340     46338     46341
     46338     46336     46341     46342     46341     46349     46341     46343
     46349     46350     46349     46351     46349     46352     46343     46344
     46344     46346     46344     46345     46346     46347     46346     46348
     46346     46358     46358     46359     46358     46360     46358     46361
     46361     46362     46361     46363     46361     46364     46364     46365
     46364     46366     46364     46367     46367     46368     46367     46369
     46367     46370     46370     46371     46370     46372     46370     46373
     46373     46374     46373     46375     46373     46376     46376     46377
     46376     46378     46378     46379     46378     46380     46380     46381
     46380     46382     46380     46383     46383     46384     46383     46385
     46383     46386     46386     46387     46386     46388     46386     46389
     46389     46390     46389     46391     46389     46392     46392     46393
     46392     46394     46392     46395     46395     46396     46395     46397
     46395     46398     46352     46353     46353     46355     46353     46354
     46355     46356     46355     46357     46355     46399     46399     46400
     46399     46401     46399     46402     46402     46403     46402     46404
     46402     46405     46405     46406     46405     46407     46405     46408
     46408     46409     46408     46410     46408     46411     46411     46412
     46411     46413     46411     46414     46414     46415     46414     46416
     46414     46417     46417     46418     46417     46419     46417     46420
     46420     46421     46420     46422     46420     46423     46423     46424
     46423     46425     46423     46426     46426     46427     46426     46428
     46426     46429     46429     46430     46429     46431     46429     46432
     46432     46433     46432     46434     46432     46435     46435     46436
     46435     46437     46435     46438     46438     46439     46438     46440
     46438     46441     46442     46443     46442     46444     46442     46445
     46442     46446     46446     46447     46446     46448     46446     46449
     46449     46450     46449     46451     46449     46456     46456     46452
     46452     46455     46452     46453     46452     46454     46457     46458
     46457     46459     46457     46460     46457     46455     46460     46461
     46460     46468     46460     46462     46468     46469     46468     46470
     46468     46471     46462     46463     46463     46465     46463     46464
     46465     46466     46465     46467     46465     46477     46477     46478
     46477     46479     46477     46480     46480     46481     46480     46482
     46480     46483     46483     46484     46483     46485     46483     46486
     46486     46487     46486     46488     46486     46489     46489     46490
     46489     46491     46489     46492     46492     46493     46492     46494
     46492     46495     46495     46496     46495     46497     46497     46498
     46497     46499     46499     46500     46499     46501     46499     46502
     46502     46503     46502     46504     46502     46505     46505     46506
     46505     46507     46505     46508     46508     46509     46508     46510
     46508     46511     46511     46512     46511     46513     46511     46514
     46514     46515     46514     46516     46514     46517     46471     46472
     46472     46474     46472     46473     46474     46475     46474     46476
     46474     46518     46518     46519     46518     46520     46518     46521
     46521     46522     46521     46523     46521     46524     46524     46525
     46524     46526     46524     46527     46527     46528     46527     46529
     46527     46530     46530     46531     46530     46532     46530     46533
     46533     46534     46533     46535     46533     46536     46536     46537
     46536     46538     46536     46539     46539     46540     46539     46541
     46539     46542     46542     46543     46542     46544     46542     46545
     46545     46546     46545     46547     46545     46548     46548     46549
     46548     46550     46548     46551     46551     46552     46551     46553
     46551     46554     46554     46555     46554     46556     46554     46557
     46557     46558     46557     46559     46557     46560     46561     46562
     46561     46563     46561     46564     46561     46565     46565     46566
     46565     46567     46565     46568     46568     46569     46568     46570
     46568     46575     46575     46571     46571     46574     46571     46572
     46571     46573     46576     46577     46576     46578     46576     46579
     46576     46574     46579     46580     46579     46587     46579     46581
     46587     46588     46587     46589     46587     46590     46581     46582
     46582     46584     46582     46583     46584     46585     46584     46586
     46584     46596     46596     46597     46596     46598     46596     46599
     46599     46600     46599     46601     46599     46602     46602     46603
     46602     46604     46602     46605     46605     46606     46605     46607
     46605     46608     46608     46609     46608     46610     46608     46611
     46611     46612     46611     46613     46611     46614     46614     46615
     46614     46616     46616     46617     46616     46618     46618     46619
     46618     46620     46618     46621     46621     46622     46621     46623
     46621     46624     46624     46625     46624     46626     46624     46627
     46627     46628     46627     46629     46627     46630     46630     46631
     46630     46632     46630     46633     46633     46634     46633     46635
     46633     46636     46590     46591     46591     46593     46591     46592
     46593     46594     46593     46595     46593     46637     46637     46638
     46637     46639     46637     46640     46640     46641     46640     46642
     46640     46643     46643     46644     46643     46645     46643     46646
     46646     46647     46646     46648     46646     46649     46649     46650
     46649     46651     46649     46652     46652     46653     46652     46654
     46652     46655     46655     46656     46655     46657     46655     46658
     46658     46659     46658     46660     46658     46661     46661     46662
     46661     46663     46661     46664     46664     46665     46664     46666
     46664     46667     46667     46668     46667     46669     46667     46670
     46670     46671     46670     46672     46670     46673     46673     46674
     46673     46675     46673     46676     46676     46677     46676     46678
     46676     46679     46680     46681     46680     46682     46680     46683
     46680     46684     46684     46685     46684     46686     46684     46687
     46687     46688     46687     46689     46687     46694     46694     46690
     46690     46693     46690     46691     46690     46692     46695     46696
     46695     46697     46695     46698     46695     46693     46698     46699
     46698     46706     46698     46700     46706     46707     46706     46708
     46706     46709     46700     46701     46701     46703     46701     46702
     46703     46704     46703     46705     46703     46715     46715     46716
     46715     46717     46715     46718     46718     46719     46718     46720
     46718     46721     46721     46722     46721     46723     46721     46724
     46724     46725     46724     46726     46724     46727     46727     46728
     46727     46729     46727     46730     46730     46731     46730     46732
     46730     46733     46733     46734     46733     46735     46735     46736
     46735     46737     46737     46738     46737     46739     46737     46740
     46740     46741     46740     46742     46740     46743     46743     46744
     46743     46745     46743     46746     46746     46747     46746     46748
     46746     46749     46749     46750     46749     46751     46749     46752
     46752     46753     46752     46754     46752     46755     46709     46710
     46710     46712     46710     46711     46712     46713     46712     46714
     46712     46756     46756     46757     46756     46758     46756     46759
     46759     46760     46759     46761     46759     46762     46762     46763
     46762     46764     46762     46765     46765     46766     46765     46767
     46765     46768     46768     46769     46768     46770     46768     46771
     46771     46772     46771     46773     46771     46774     46774     46775
     46774     46776     46774     46777     46777     46778     46777     46779
     46777     46780     46780     46781     46780     46782     46780     46783
     46783     46784     46783     46785     46783     46786     46786     46787
     46786     46788     46786     46789     46789     46790     46789     46791
     46789     46792     46792     46793     46792     46794     46792     46795
     46795     46796     46795     46797     46795     46798     46799     46800
     46799     46801     46799     46802     46799     46803     46803     46804
     46803     46805     46803     46806     46806     46807     46806     46808
     46806     46813     46813     46809     46809     46812     46809     46810
     46809     46811     46814     46815     46814     46816     46814     46817
     46814     46812     46817     46818     46817     46825     46817     46819
     46825     46826     46825     46827     46825     46828     46819     46820
     46820     46822     46820     46821     46822     46823     46822     46824
     46822     46834     46834     46835     46834     46836     46834     46837
     46837     46838     46837     46839     46837     46840     46840     46841
     46840     46842     46840     46843     46843     46844     46843     46845
     46843     46846     46846     46847     46846     46848     46846     46849
     46849     46850     46849     46851     46849     46852     46852     46853
     46852     46854     46854     46855     46854     46856     46856     46857
     46856     46858     46856     46859     46859     46860     46859     46861
     46859     46862     46862     46863     46862     46864     46862     46865
     46865     46866     46865     46867     46865     46868     46868     46869
     46868     46870     46868     46871     46871     46872     46871     46873
     46871     46874     46828     46829     46829     46831     46829     46830
     46831     46832     46831     46833     46831     46875     46875     46876
     46875     46877     46875     46878     46878     46879     46878     46880
     46878     46881     46881     46882     46881     46883     46881     46884
     46884     46885     46884     46886     46884     46887     46887     46888
     46887     46889     46887     46890     46890     46891     46890     46892
     46890     46893     46893     46894     46893     46895     46893     46896
     46896     46897     46896     46898     46896     46899     46899     46900
     46899     46901     46899     46902     46902     46903     46902     46904
     46902     46905     46905     46906     46905     46907     46905     46908
     46908     46909     46908     46910     46908     46911     46911     46912
     46911     46913     46911     46914     46914     46915     46914     46916
     46914     46917     46922     46921     46921     46918     46918     46919
     46918     46920     46918     46923     46926     46925     46925     46923
     46923     46924     46923     46927     46927     46928     46927     46929
     46927     46933     46934     46935     46933     46930     46930     46934
     46930     46931     46930     46932     46935     46936     46935     46937
     46935     46938     46938     46939     46938     46946     46938     46940
     46946     46947     46946     46948     46946     46949     46940     46941
     46941     46943     46941     46942     46943     46944     46943     46945
     46943     46955     46955     46956     46955     46957     46955     46958
     46958     46959     46958     46960     46958     46961     46961     46962
     46961     46963     46961     46964     46964     46965     46964     46966
     46964     46967     46967     46968     46967     46969     46967     46970
     46970     46971     46970     46972     46970     46973     46973     46974
     46973     46975     46973     46976     46976     46977     46976     46978
     46976     46979     46979     46980     46979     46981     46981     46982
     46981     46983     46983     46984     46983     46985     46983     46986
     46986     46987     46986     46988     46986     46989     46989     46990
     46989     46991     46989     46992     46992     46993     46992     46994
     46992     46995     46995     46996     46995     46997     46995     46998
     46998     46999     46998     47000     46998     47001     46949     46950
     46950     46952     46950     46951     46952     46953     46952     46954
     46952     47002     47002     47003     47002     47004     47002     47005
     47005     47006     47005     47007     47005     47008     47008     47009
     47008     47010     47008     47011     47011     47012     47011     47013
     47011     47014     47014     47015     47014     47016     47014     47017
     47017     47018     47017     47019     47017     47020     47020     47021
     47020     47022     47020     47023     47023     47024     47023     47025
     47023     47026     47026     47027     47026     47028     47026     47029
     47029     47030     47029     47031     47029     47032     47032     47033
     47032     47034     47032     47035     47035     47036     47035     47037
     47035     47038     47038     47039     47038     47040     47038     47041
     47041     47042     47041     47043     47041     47044     47049     47048
     47048     47045     47045     47046     47045     47047     47045     47050
     47053     47052     47052     47050     47050     47051     47050     47054
     47054     47055     47054     47056     47054     47060     47061     47062
     47060     47057     47057     47061     47057     47058     47057     47059
     47062     47063     47062     47064     47062     47065     47065     47066
     47065     47073     47065     47067     47073     47074     47073     47075
     47073     47076     47067     47068     47068     47070     47068     47069
     47070     47071     47070     47072     47070     47082     47082     47083
     47082     47084     47082     47085     47085     47086     47085     47087
     47085     47088     47088     47089     47088     47090     47088     47091
     47091     47092     47091     47093     47091     47094     47094     47095
     47094     47096     47094     47097     47097     47098     47097     47099
     47097     47100     47100     47101     47100     47102     47100     47103
     47103     47104     47103     47105     47103     47106     47106     47107
     47106     47108     47108     47109     47108     47110     47110     47111
     47110     47112     47110     47113     47113     47114     47113     47115
     47113     47116     47116     47117     47116     47118     47116     47119
     47119     47120     47119     47121     47119     47122     47122     47123
     47122     47124     47122     47125     47125     47126     47125     47127
     47125     47128     47076     47077     47077     47079     47077     47078
     47079     47080     47079     47081     47079     47129     47129     47130
     47129     47131     47129     47132     47132     47133     47132     47134
     47132     47135     47135     47136     47135     47137     47135     47138
     47138     47139     47138     47140     47138     47141     47141     47142
     47141     47143     47141     47144     47144     47145     47144     47146
     47144     47147     47147     47148     47147     47149     47147     47150
     47150     47151     47150     47152     47150     47153     47153     47154
     47153     47155     47153     47156     47156     47157     47156     47158
     47156     47159     47159     47160     47159     47161     47159     47162
     47162     47163     47162     47164     47162     47165     47165     47166
     47165     47167     47165     47168     47168     47169     47168     47170
     47168     47171     47172     47173     47172     47174     47172     47175
     47172     47176     47176     47177     47176     47178     47176     47179
     47179     47180     47179     47181     47179     47186     47186     47182
     47182     47185     47182     47183     47182     47184     47187     47188
     47187     47189     47187     47190     47187     47185     47190     47191
     47190     47198     47190     47192     47198     47199     47198     47200
     47198     47201     47192     47193     47193     47195     47193     47194
     47195     47196     47195     47197     47195     47207     47207     47208
     47207     47209     47207     47210     47210     47211     47210     47212
     47210     47213     47213     47214     47213     47215     47213     47216
     47216     47217     47216     47218     47216     47219     47219     47220
     47219     47221     47219     47222     47222     47223     47222     47224
     47222     47225     47225     47226     47225     47227     47227     47228
     47227     47229     47229     47230     47229     47231     47229     47232
     47232     47233     47232     47234     47232     47235     47235     47236
     47235     47237     47235     47238     47238     47239     47238     47240
     47238     47241     47241     47242     47241     47243     47241     47244
     47244     47245     47244     47246     47244     47247     47201     47202
     47202     47204     47202     47203     47204     47205     47204     47206
     47204     47248     47248     47249     47248     47250     47248     47251
     47251     47252     47251     47253     47251     47254     47254     47255
     47254     47256     47254     47257     47257     47258     47257     47259
     47257     47260     47260     47261     47260     47262     47260     47263
     47263     47264     47263     47265     47263     47266     47266     47267
     47266     47268     47266     47269     47269     47270     47269     47271
     47269     47272     47272     47273     47272     47274     47272     47275
     47275     47276     47275     47277     47275     47278     47278     47279
     47278     47280     47278     47281     47281     47282     47281     47283
     47281     47284     47284     47285     47284     47286     47284     47287
     47287     47288     47287     47289     47287     47290     47291     47292
     47291     47293     47291     47294     47291     47295     47295     47296
     47295     47297     47295     47298     47298     47299     47298     47300
     47298     47305     47305     47301     47301     47304     47301     47302
     47301     47303     47306     47307     47306     47308     47306     47309
     47306     47304     47309     47310     47309     47317     47309     47311
     47317     47318     47317     47319     47317     47320     47311     47312
     47312     47314     47312     47313     47314     47315     47314     47316
     47314     47326     47326     47327     47326     47328     47326     47329
     47329     47330     47329     47331     47329     47332     47332     47333
     47332     47334     47332     47335     47335     47336     47335     47337
     47335     47338     47338     47339     47338     47340     47338     47341
     47341     47342     47341     47343     47341     47344     47344     47345
     47344     47346     47346     47347     47346     47348     47348     47349
     47348     47350     47348     47351     47351     47352     47351     47353
     47351     47354     47354     47355     47354     47356     47354     47357
     47357     47358     47357     47359     47357     47360     47360     47361
     47360     47362     47360     47363     47363     47364     47363     47365
     47363     47366     47320     47321     47321     47323     47321     47322
     47323     47324     47323     47325     47323     47367     47367     47368
     47367     47369     47367     47370     47370     47371     47370     47372
     47370     47373     47373     47374     47373     47375     47373     47376
     47376     47377     47376     47378     47376     47379     47379     47380
     47379     47381     47379     47382     47382     47383     47382     47384
     47382     47385     47385     47386     47385     47387     47385     47388
     47388     47389     47388     47390     47388     47391     47391     47392
     47391     47393     47391     47394     47394     47395     47394     47396
     47394     47397     47397     47398     47397     47399     47397     47400
     47400     47401     47400     47402     47400     47403     47403     47404
     47403     47405     47403     47406     47406     47407     47406     47408
     47406     47409     47410     47411     47410     47412     47410     47413
     47410     47414     47414     47415     47414     47416     47414     47417
     47417     47418     47417     47419     47417     47424     47424     47420
     47420     47423     47420     47421     47420     47422     47425     47426
     47425     47427     47425     47428     47425     47423     47428     47429
     47428     47436     47428     47430     47436     47437     47436     47438
     47436     47439     47430     47431     47431     47433     47431     47432
     47433     47434     47433     47435     47433     47445     47445     47446
     47445     47447     47445     47448     47448     47449     47448     47450
     47448     47451     47451     47452     47451     47453     47451     47454
     47454     47455     47454     47456     47454     47457     47457     47458
     47457     47459     47457     47460     47460     47461     47460     47462
     47460     47463     47463     47464     47463     47465     47465     47466
     47465     47467     47467     47468     47467     47469     47467     47470
     47470     47471     47470     47472     47470     47473     47473     47474
     47473     47475     47473     47476     47476     47477     47476     47478
     47476     47479     47479     47480     47479     47481     47479     47482
     47482     47483     47482     47484     47482     47485     47439     47440
     47440     47442     47440     47441     47442     47443     47442     47444
     47442     47486     47486     47487     47486     47488     47486     47489
     47489     47490     47489     47491     47489     47492     47492     47493
     47492     47494     47492     47495     47495     47496     47495     47497
     47495     47498     47498     47499     47498     47500     47498     47501
     47501     47502     47501     47503     47501     47504     47504     47505
     47504     47506     47504     47507     47507     47508     47507     47509
     47507     47510     47510     47511     47510     47512     47510     47513
     47513     47514     47513     47515     47513     47516     47516     47517
     47516     47518     47516     47519     47519     47520     47519     47521
     47519     47522     47522     47523     47522     47524     47522     47525
     47525     47526     47525     47527     47525     47528     47533     47532
     47532     47529     47529     47530     47529     47531     47529     47534
     47537     47536     47536     47534     47534     47535     47534     47538
     47538     47539     47538     47540     47538     47544     47545     47546
     47544     47541     47541     47545     47541     47542     47541     47543
     47546     47547     47546     47548     47546     47549     47549     47550
     47549     47557     47549     47551     47557     47558     47557     47559
     47557     47560     47551     47552     47552     47554     47552     47553
     47554     47555     47554     47556     47554     47566     47566     47567
     47566     47568     47566     47569     47569     47570     47569     47571
     47569     47572     47572     47573     47572     47574     47572     47575
     47575     47576     47575     47577     47575     47578     47578     47579
     47578     47580     47578     47581     47581     47582     47581     47583
     47581     47584     47584     47585     47584     47586     47584     47587
     47587     47588     47587     47589     47587     47590     47590     47591
     47590     47592     47592     47593     47592     47594     47594     47595
     47594     47596     47594     47597     47597     47598     47597     47599
     47597     47600     47600     47601     47600     47602     47600     47603
     47603     47604     47603     47605     47603     47606     47606     47607
     47606     47608     47606     47609     47609     47610     47609     47611
     47609     47612     47560     47561     47561     47563     47561     47562
     47563     47564     47563     47565     47563     47613     47613     47614
     47613     47615     47613     47616     47616     47617     47616     47618
     47616     47619     47619     47620     47619     47621     47619     47622
     47622     47623     47622     47624     47622     47625     47625     47626
     47625     47627     47625     47628     47628     47629     47628     47630
     47628     47631     47631     47632     47631     47633     47631     47634
     47634     47635     47634     47636     47634     47637     47637     47638
     47637     47639     47637     47640     47640     47641     47640     47642
     47640     47643     47643     47644     47643     47645     47643     47646
     47646     47647     47646     47648     47646     47649     47649     47650
     47649     47651     47649     47652     47652     47653     47652     47654
     47652     47655     47656     47657     47656     47658     47656     47659
     47656     47660     47660     47661     47660     47662     47660     47663
     47663     47664     47663     47665     47663     47670     47670     47666
     47666     47669     47666     47667     47666     47668     47671     47672
     47671     47673     47671     47674     47671     47669     47674     47675
     47674     47682     47674     47676     47682     47683     47682     47684
     47682     47685     47676     47677     47677     47679     47677     47678
     47679     47680     47679     47681     47679     47691     47691     47692
     47691     47693     47691     47694     47694     47695     47694     47696
     47694     47697     47697     47698     47697     47699     47697     47700
     47700     47701     47700     47702     47700     47703     47703     47704
     47703     47705     47703     47706     47706     47707     47706     47708
     47706     47709     47709     47710     47709     47711     47711     47712
     47711     47713     47713     47714     47713     47715     47713     47716
     47716     47717     47716     47718     47716     47719     47719     47720
     47719     47721     47719     47722     47722     47723     47722     47724
     47722     47725     47725     47726     47725     47727     47725     47728
     47728     47729     47728     47730     47728     47731     47685     47686
     47686     47688     47686     47687     47688     47689     47688     47690
     47688     47732     47732     47733     47732     47734     47732     47735
     47735     47736     47735     47737     47735     47738     47738     47739
     47738     47740     47738     47741     47741     47742     47741     47743
     47741     47744     47744     47745     47744     47746     47744     47747
     47747     47748     47747     47749     47747     47750     47750     47751
     47750     47752     47750     47753     47753     47754     47753     47755
     47753     47756     47756     47757     47756     47758     47756     47759
     47759     47760     47759     47761     47759     47762     47762     47763
     47762     47764     47762     47765     47765     47766     47765     47767
     47765     47768     47768     47769     47768     47770     47768     47771
     47771     47772     47771     47773     47771     47774     47779     47778
     47778     47775     47775     47776     47775     47777     47775     47780
     47783     47782     47782     47780     47780     47781     47780     47784
     47784     47785     47784     47786     47784     47790     47791     47792
     47790     47787     47787     47791     47787     47788     47787     47789
     47792     47793     47792     47794     47792     47795     47795     47796
     47795     47803     47795     47797     47803     47804     47803     47805
     47803     47806     47797     47798     47798     47800     47798     47799
     47800     47801     47800     47802     47800     47812     47812     47813
     47812     47814     47812     47815     47815     47816     47815     47817
     47815     47818     47818     47819     47818     47820     47818     47821
     47821     47822     47821     47823     47821     47824     47824     47825
     47824     47826     47824     47827     47827     47828     47827     47829
     47827     47830     47830     47831     47830     47832     47830     47833
     47833     47834     47833     47835     47833     47836     47836     47837
     47836     47838     47838     47839     47838     47840     47840     47841
     47840     47842     47840     47843     47843     47844     47843     47845
     47843     47846     47846     47847     47846     47848     47846     47849
     47849     47850     47849     47851     47849     47852     47852     47853
     47852     47854     47852     47855     47855     47856     47855     47857
     47855     47858     47806     47807     47807     47809     47807     47808
     47809     47810     47809     47811     47809     47859     47859     47860
     47859     47861     47859     47862     47862     47863     47862     47864
     47862     47865     47865     47866     47865     47867     47865     47868
     47868     47869     47868     47870     47868     47871     47871     47872
     47871     47873     47871     47874     47874     47875     47874     47876
     47874     47877     47877     47878     47877     47879     47877     47880
     47880     47881     47880     47882     47880     47883     47883     47884
     47883     47885     47883     47886     47886     47887     47886     47888
     47886     47889     47889     47890     47889     47891     47889     47892
     47892     47893     47892     47894     47892     47895     47895     47896
     47895     47897     47895     47898     47898     47899     47898     47900
     47898     47901     47906     47905     47905     47902     47902     47903
     47902     47904     47902     47907     47910     47909     47909     47907
     47907     47908     47907     47911     47911     47912     47911     47913
     47911     47917     47918     47919     47917     47914     47914     47918
     47914     47915     47914     47916     47919     47920     47919     47921
     47919     47922     47922     47923     47922     47930     47922     47924
     47930     47931     47930     47932     47930     47933     47924     47925
     47925     47927     47925     47926     47927     47928     47927     47929
     47927     47939     47939     47940     47939     47941     47939     47942
     47942     47943     47942     47944     47942     47945     47945     47946
     47945     47947     47945     47948     47948     47949     47948     47950
     47948     47951     47951     47952     47951     47953     47951     47954
     47954     47955     47954     47956     47954     47957     47957     47958
     47957     47959     47957     47960     47960     47961     47960     47962
     47960     47963     47963     47964     47963     47965     47965     47966
     47965     47967     47967     47968     47967     47969     47967     47970
     47970     47971     47970     47972     47970     47973     47973     47974
     47973     47975     47973     47976     47976     47977     47976     47978
     47976     47979     47979     47980     47979     47981     47979     47982
     47982     47983     47982     47984     47982     47985     47933     47934
     47934     47936     47934     47935     47936     47937     47936     47938
     47936     47986     47986     47987     47986     47988     47986     47989
     47989     47990     47989     47991     47989     47992     47992     47993
     47992     47994     47992     47995     47995     47996     47995     47997
     47995     47998     47998     47999     47998     48000     47998     48001
     48001     48002     48001     48003     48001     48004     48004     48005
     48004     48006     48004     48007     48007     48008     48007     48009
     48007     48010     48010     48011     48010     48012     48010     48013
     48013     48014     48013     48015     48013     48016     48016     48017
     48016     48018     48016     48019     48019     48020     48019     48021
     48019     48022     48022     48023     48022     48024     48022     48025
     48025     48026     48025     48027     48025     48028     48029     48030
     48029     48031     48029     48032     48029     48033     48033     48034
     48033     48035     48033     48036     48036     48037     48036     48038
     48036     48043     48043     48039     48039     48042     48039     48040
     48039     48041     48044     48045     48044     48046     48044     48047
     48044     48042     48047     48048     48047     48055     48047     48049
     48055     48056     48055     48057     48055     48058     48049     48050
     48050     48052     48050     48051     48052     48053     48052     48054
     48052     48064     48064     48065     48064     48066     48064     48067
     48067     48068     48067     48069     48067     48070     48070     48071
     48070     48072     48070     48073     48073     48074     48073     48075
     48073     48076     48076     48077     48076     48078     48076     48079
     48079     48080     48079     48081     48079     48082     48082     48083
     48082     48084     48084     48085     48084     48086     48086     48087
     48086     48088     48086     48089     48089     48090     48089     48091
     48089     48092     48092     48093     48092     48094     48092     48095
     48095     48096     48095     48097     48095     48098     48098     48099
     48098     48100     48098     48101     48101     48102     48101     48103
     48101     48104     48058     48059     48059     48061     48059     48060
     48061     48062     48061     48063     48061     48105     48105     48106
     48105     48107     48105     48108     48108     48109     48108     48110
     48108     48111     48111     48112     48111     48113     48111     48114
     48114     48115     48114     48116     48114     48117     48117     48118
     48117     48119     48117     48120     48120     48121     48120     48122
     48120     48123     48123     48124     48123     48125     48123     48126
     48126     48127     48126     48128     48126     48129     48129     48130
     48129     48131     48129     48132     48132     48133     48132     48134
     48132     48135     48135     48136     48135     48137     48135     48138
     48138     48139     48138     48140     48138     48141     48141     48142
     48141     48143     48141     48144     48144     48145     48144     48146
     48144     48147     48148     48149     48148     48150     48148     48151
     48148     48152     48152     48153     48152     48154     48152     48155
     48155     48156     48155     48157     48155     48162     48162     48158
     48158     48161     48158     48159     48158     48160     48163     48164
     48163     48165     48163     48166     48163     48161     48166     48167
     48166     48174     48166     48168     48174     48175     48174     48176
     48174     48177     48168     48169     48169     48171     48169     48170
     48171     48172     48171     48173     48171     48183     48183     48184
     48183     48185     48183     48186     48186     48187     48186     48188
     48186     48189     48189     48190     48189     48191     48189     48192
     48192     48193     48192     48194     48192     48195     48195     48196
     48195     48197     48195     48198     48198     48199     48198     48200
     48198     48201     48201     48202     48201     48203     48203     48204
     48203     48205     48205     48206     48205     48207     48205     48208
     48208     48209     48208     48210     48208     48211     48211     48212
     48211     48213     48211     48214     48214     48215     48214     48216
     48214     48217     48217     48218     48217     48219     48217     48220
     48220     48221     48220     48222     48220     48223     48177     48178
     48178     48180     48178     48179     48180     48181     48180     48182
     48180     48224     48224     48225     48224     48226     48224     48227
     48227     48228     48227     48229     48227     48230     48230     48231
     48230     48232     48230     48233     48233     48234     48233     48235
     48233     48236     48236     48237     48236     48238     48236     48239
     48239     48240     48239     48241     48239     48242     48242     48243
     48242     48244     48242     48245     48245     48246     48245     48247
     48245     48248     48248     48249     48248     48250     48248     48251
     48251     48252     48251     48253     48251     48254     48254     48255
     48254     48256     48254     48257     48257     48258     48257     48259
     48257     48260     48260     48261     48260     48262     48260     48263
     48263     48264     48263     48265     48263     48266     48267     48268
     48267     48269     48267     48270     48267     48271     48271     48272
     48271     48273     48271     48274     48274     48275     48274     48276
     48274     48281     48281     48277     48277     48280     48277     48278
     48277     48279     48282     48283     48282     48284     48282     48285
     48282     48280     48285     48286     48285     48293     48285     48287
     48293     48294     48293     48295     48293     48296     48287     48288
     48288     48290     48288     48289     48290     48291     48290     48292
     48290     48302     48302     48303     48302     48304     48302     48305
     48305     48306     48305     48307     48305     48308     48308     48309
     48308     48310     48308     48311     48311     48312     48311     48313
     48311     48314     48314     48315     48314     48316     48314     48317
     48317     48318     48317     48319     48317     48320     48320     48321
     48320     48322     48322     48323     48322     48324     48324     48325
     48324     48326     48324     48327     48327     48328     48327     48329
     48327     48330     48330     48331     48330     48332     48330     48333
     48333     48334     48333     48335     48333     48336     48336     48337
     48336     48338     48336     48339     48339     48340     48339     48341
     48339     48342     48296     48297     48297     48299     48297     48298
     48299     48300     48299     48301     48299     48343     48343     48344
     48343     48345     48343     48346     48346     48347     48346     48348
     48346     48349     48349     48350     48349     48351     48349     48352
     48352     48353     48352     48354     48352     48355     48355     48356
     48355     48357     48355     48358     48358     48359     48358     48360
     48358     48361     48361     48362     48361     48363     48361     48364
     48364     48365     48364     48366     48364     48367     48367     48368
     48367     48369     48367     48370     48370     48371     48370     48372
     48370     48373     48373     48374     48373     48375     48373     48376
     48376     48377     48376     48378     48376     48379     48379     48380
     48379     48381     48379     48382     48382     48383     48382     48384
     48382     48385     48386     48387     48386     48388     48386     48389
     48386     48390     48390     48391     48390     48392     48390     48393
     48393     48394     48393     48395     48393     48400     48400     48396
     48396     48399     48396     48397     48396     48398     48401     48402
     48401     48403     48401     48404     48401     48399     48404     48405
     48404     48412     48404     48406     48412     48413     48412     48414
     48412     48415     48406     48407     48407     48409     48407     48408
     48409     48410     48409     48411     48409     48421     48421     48422
     48421     48423     48421     48424     48424     48425     48424     48426
     48424     48427     48427     48428     48427     48429     48427     48430
     48430     48431     48430     48432     48430     48433     48433     48434
     48433     48435     48433     48436     48436     48437     48436     48438
     48436     48439     48439     48440     48439     48441     48441     48442
     48441     48443     48443     48444     48443     48445     48443     48446
     48446     48447     48446     48448     48446     48449     48449     48450
     48449     48451     48449     48452     48452     48453     48452     48454
     48452     48455     48455     48456     48455     48457     48455     48458
     48458     48459     48458     48460     48458     48461     48415     48416
     48416     48418     48416     48417     48418     48419     48418     48420
     48418     48462     48462     48463     48462     48464     48462     48465
     48465     48466     48465     48467     48465     48468     48468     48469
     48468     48470     48468     48471     48471     48472     48471     48473
     48471     48474     48474     48475     48474     48476     48474     48477
     48477     48478     48477     48479     48477     48480     48480     48481
     48480     48482     48480     48483     48483     48484     48483     48485
     48483     48486     48486     48487     48486     48488     48486     48489
     48489     48490     48489     48491     48489     48492     48492     48493
     48492     48494     48492     48495     48495     48496     48495     48497
     48495     48498     48498     48499     48498     48500     48498     48501
     48501     48502     48501     48503     48501     48504     48505     48506
     48505     48507     48505     48508     48505     48509     48509     48510
     48509     48511     48509     48512     48512     48513     48512     48514
     48512     48519     48519     48515     48515     48518     48515     48516
     48515     48517     48520     48521     48520     48522     48520     48523
     48520     48518     48523     48524     48523     48531     48523     48525
     48531     48532     48531     48533     48531     48534     48525     48526
     48526     48528     48526     48527     48528     48529     48528     48530
     48528     48540     48540     48541     48540     48542     48540     48543
     48543     48544     48543     48545     48543     48546     48546     48547
     48546     48548     48546     48549     48549     48550     48549     48551
     48549     48552     48552     48553     48552     48554     48552     48555
     48555     48556     48555     48557     48555     48558     48558     48559
     48558     48560     48560     48561     48560     48562     48562     48563
     48562     48564     48562     48565     48565     48566     48565     48567
     48565     48568     48568     48569     48568     48570     48568     48571
     48571     48572     48571     48573     48571     48574     48574     48575
     48574     48576     48574     48577     48577     48578     48577     48579
     48577     48580     48534     48535     48535     48537     48535     48536
     48537     48538     48537     48539     48537     48581     48581     48582
     48581     48583     48581     48584     48584     48585     48584     48586
     48584     48587     48587     48588     48587     48589     48587     48590
     48590     48591     48590     48592     48590     48593     48593     48594
     48593     48595     48593     48596     48596     48597     48596     48598
     48596     48599     48599     48600     48599     48601     48599     48602
     48602     48603     48602     48604     48602     48605     48605     48606
     48605     48607     48605     48608     48608     48609     48608     48610
     48608     48611     48611     48612     48611     48613     48611     48614
     48614     48615     48614     48616     48614     48617     48617     48618
     48617     48619     48617     48620     48620     48621     48620     48622
     48620     48623     48624     48625     48624     48626     48624     48627
     48624     48628     48628     48629     48628     48630     48628     48631
     48631     48632     48631     48633     48631     48638     48638     48634
     48634     48637     48634     48635     48634     48636     48639     48640
     48639     48641     48639     48642     48639     48637     48642     48643
     48642     48650     48642     48644     48650     48651     48650     48652
     48650     48653     48644     48645     48645     48647     48645     48646
     48647     48648     48647     48649     48647     48659     48659     48660
     48659     48661     48659     48662     48662     48663     48662     48664
     48662     48665     48665     48666     48665     48667     48665     48668
     48668     48669     48668     48670     48668     48671     48671     48672
     48671     48673     48671     48674     48674     48675     48674     48676
     48674     48677     48677     48678     48677     48679     48679     48680
     48679     48681     48681     48682     48681     48683     48681     48684
     48684     48685     48684     48686     48684     48687     48687     48688
     48687     48689     48687     48690     48690     48691     48690     48692
     48690     48693     48693     48694     48693     48695     48693     48696
     48696     48697     48696     48698     48696     48699     48653     48654
     48654     48656     48654     48655     48656     48657     48656     48658
     48656     48700     48700     48701     48700     48702     48700     48703
     48703     48704     48703     48705     48703     48706     48706     48707
     48706     48708     48706     48709     48709     48710     48709     48711
     48709     48712     48712     48713     48712     48714     48712     48715
     48715     48716     48715     48717     48715     48718     48718     48719
     48718     48720     48718     48721     48721     48722     48721     48723
     48721     48724     48724     48725     48724     48726     48724     48727
     48727     48728     48727     48729     48727     48730     48730     48731
     48730     48732     48730     48733     48733     48734     48733     48735
     48733     48736     48736     48737     48736     48738     48736     48739
     48739     48740     48739     48741     48739     48742     48743     48744
     48743     48745     48743     48746     48743     48747     48747     48748
     48747     48749     48747     48750     48750     48751     48750     48752
     48750     48757     48757     48753     48753     48756     48753     48754
     48753     48755     48758     48759     48758     48760     48758     48761
     48758     48756     48761     48762     48761     48769     48761     48763
     48769     48770     48769     48771     48769     48772     48763     48764
     48764     48766     48764     48765     48766     48767     48766     48768
     48766     48778     48778     48779     48778     48780     48778     48781
     48781     48782     48781     48783     48781     48784     48784     48785
     48784     48786     48784     48787     48787     48788     48787     48789
     48787     48790     48790     48791     48790     48792     48790     48793
     48793     48794     48793     48795     48793     48796     48796     48797
     48796     48798     48798     48799     48798     48800     48800     48801
     48800     48802     48800     48803     48803     48804     48803     48805
     48803     48806     48806     48807     48806     48808     48806     48809
     48809     48810     48809     48811     48809     48812     48812     48813
     48812     48814     48812     48815     48815     48816     48815     48817
     48815     48818     48772     48773     48773     48775     48773     48774
     48775     48776     48775     48777     48775     48819     48819     48820
     48819     48821     48819     48822     48822     48823     48822     48824
     48822     48825     48825     48826     48825     48827     48825     48828
     48828     48829     48828     48830     48828     48831     48831     48832
     48831     48833     48831     48834     48834     48835     48834     48836
     48834     48837     48837     48838     48837     48839     48837     48840
     48840     48841     48840     48842     48840     48843     48843     48844
     48843     48845     48843     48846     48846     48847     48846     48848
     48846     48849     48849     48850     48849     48851     48849     48852
     48852     48853     48852     48854     48852     48855     48855     48856
     48855     48857     48855     48858     48858     48859     48858     48860
     48858     48861     48862     48863     48862     48864     48862     48865
     48862     48866     48866     48867     48866     48868     48866     48869
     48869     48870     48869     48871     48869     48876     48876     48872
     48872     48875     48872     48873     48872     48874     48877     48878
     48877     48879     48877     48880     48877     48875     48880     48881
     48880     48888     48880     48882     48888     48889     48888     48890
     48888     48891     48882     48883     48883     48885     48883     48884
     48885     48886     48885     48887     48885     48897     48897     48898
     48897     48899     48897     48900     48900     48901     48900     48902
     48900     48903     48903     48904     48903     48905     48903     48906
     48906     48907     48906     48908     48906     48909     48909     48910
     48909     48911     48909     48912     48912     48913     48912     48914
     48912     48915     48915     48916     48915     48917     48917     48918
     48917     48919     48919     48920     48919     48921     48919     48922
     48922     48923     48922     48924     48922     48925     48925     48926
     48925     48927     48925     48928     48928     48929     48928     48930
     48928     48931     48931     48932     48931     48933     48931     48934
     48934     48935     48934     48936     48934     48937     48891     48892
     48892     48894     48892     48893     48894     48895     48894     48896
     48894     48938     48938     48939     48938     48940     48938     48941
     48941     48942     48941     48943     48941     48944     48944     48945
     48944     48946     48944     48947     48947     48948     48947     48949
     48947     48950     48950     48951     48950     48952     48950     48953
     48953     48954     48953     48955     48953     48956     48956     48957
     48956     48958     48956     48959     48959     48960     48959     48961
     48959     48962     48962     48963     48962     48964     48962     48965
     48965     48966     48965     48967     48965     48968     48968     48969
     48968     48970     48968     48971     48971     48972     48971     48973
     48971     48974     48974     48975     48974     48976     48974     48977
     48977     48978     48977     48979     48977     48980     48981     48982
     48981     48983     48981     48984     48981     48985     48985     48986
     48985     48987     48985     48988     48988     48989     48988     48990
     48988     48995     48995     48991     48991     48994     48991     48992
     48991     48993     48996     48997     48996     48998     48996     48999
     48996     48994     48999     49000     48999     49007     48999     49001
     49007     49008     49007     49009     49007     49010     49001     49002
     49002     49004     49002     49003     49004     49005     49004     49006
     49004     49016     49016     49017     49016     49018     49016     49019
     49019     49020     49019     49021     49019     49022     49022     49023
     49022     49024     49022     49025     49025     49026     49025     49027
     49025     49028     49028     49029     49028     49030     49028     49031
     49031     49032     49031     49033     49031     49034     49034     49035
     49034     49036     49036     49037     49036     49038     49038     49039
     49038     49040     49038     49041     49041     49042     49041     49043
     49041     49044     49044     49045     49044     49046     49044     49047
     49047     49048     49047     49049     49047     49050     49050     49051
     49050     49052     49050     49053     49053     49054     49053     49055
     49053     49056     49010     49011     49011     49013     49011     49012
     49013     49014     49013     49015     49013     49057     49057     49058
     49057     49059     49057     49060     49060     49061     49060     49062
     49060     49063     49063     49064     49063     49065     49063     49066
     49066     49067     49066     49068     49066     49069     49069     49070
     49069     49071     49069     49072     49072     49073     49072     49074
     49072     49075     49075     49076     49075     49077     49075     49078
     49078     49079     49078     49080     49078     49081     49081     49082
     49081     49083     49081     49084     49084     49085     49084     49086
     49084     49087     49087     49088     49087     49089     49087     49090
     49090     49091     49090     49092     49090     49093     49093     49094
     49093     49095     49093     49096     49096     49097     49096     49098
     49096     49099     49100     49101     49100     49102     49100     49103
     49100     49104     49104     49105     49104     49106     49104     49107
     49107     49108     49107     49109     49107     49114     49114     49110
     49110     49113     49110     49111     49110     49112     49115     49116
     49115     49117     49115     49118     49115     49113     49118     49119
     49118     49126     49118     49120     49126     49127     49126     49128
     49126     49129     49120     49121     49121     49123     49121     49122
     49123     49124     49123     49125     49123     49135     49135     49136
     49135     49137     49135     49138     49138     49139     49138     49140
     49138     49141     49141     49142     49141     49143     49141     49144
     49144     49145     49144     49146     49144     49147     49147     49148
     49147     49149     49147     49150     49150     49151     49150     49152
     49150     49153     49153     49154     49153     49155     49155     49156
     49155     49157     49157     49158     49157     49159     49157     49160
     49160     49161     49160     49162     49160     49163     49163     49164
     49163     49165     49163     49166     49166     49167     49166     49168
     49166     49169     49169     49170     49169     49171     49169     49172
     49172     49173     49172     49174     49172     49175     49129     49130
     49130     49132     49130     49131     49132     49133     49132     49134
     49132     49176     49176     49177     49176     49178     49176     49179
     49179     49180     49179     49181     49179     49182     49182     49183
     49182     49184     49182     49185     49185     49186     49185     49187
     49185     49188     49188     49189     49188     49190     49188     49191
     49191     49192     49191     49193     49191     49194     49194     49195
     49194     49196     49194     49197     49197     49198     49197     49199
     49197     49200     49200     49201     49200     49202     49200     49203
     49203     49204     49203     49205     49203     49206     49206     49207
     49206     49208     49206     49209     49209     49210     49209     49211
     49209     49212     49212     49213     49212     49214     49212     49215
     49215     49216     49215     49217     49215     49218     49219     49220
     49219     49221     49219     49222     49219     49223     49223     49224
     49223     49225     49223     49226     49226     49227     49226     49228
     49226     49233     49233     49229     49229     49232     49229     49230
     49229     49231     49234     49235     49234     49236     49234     49237
     49234     49232     49237     49238     49237     49245     49237     49239
     49245     49246     49245     49247     49245     49248     49239     49240
     49240     49242     49240     49241     49242     49243     49242     49244
     49242     49254     49254     49255     49254     49256     49254     49257
     49257     49258     49257     49259     49257     49260     49260     49261
     49260     49262     49260     49263     49263     49264     49263     49265
     49263     49266     49266     49267     49266     49268     49266     49269
     49269     49270     49269     49271     49269     49272     49272     49273
     49272     49274     49274     49275     49274     49276     49276     49277
     49276     49278     49276     49279     49279     49280     49279     49281
     49279     49282     49282     49283     49282     49284     49282     49285
     49285     49286     49285     49287     49285     49288     49288     49289
     49288     49290     49288     49291     49291     49292     49291     49293
     49291     49294     49248     49249     49249     49251     49249     49250
     49251     49252     49251     49253     49251     49295     49295     49296
     49295     49297     49295     49298     49298     49299     49298     49300
     49298     49301     49301     49302     49301     49303     49301     49304
     49304     49305     49304     49306     49304     49307     49307     49308
     49307     49309     49307     49310     49310     49311     49310     49312
     49310     49313     49313     49314     49313     49315     49313     49316
     49316     49317     49316     49318     49316     49319     49319     49320
     49319     49321     49319     49322     49322     49323     49322     49324
     49322     49325     49325     49326     49325     49327     49325     49328
     49328     49329     49328     49330     49328     49331     49331     49332
     49331     49333     49331     49334     49334     49335     49334     49336
     49334     49337     49342     49341     49341     49338     49338     49339
     49338     49340     49338     49343     49346     49345     49345     49343
     49343     49344     49343     49347     49347     49348     49347     49349
     49347     49353     49354     49355     49353     49350     49350     49354
     49350     49351     49350     49352     49355     49356     49355     49357
     49355     49358     49358     49359     49358     49366     49358     49360
     49366     49367     49366     49368     49366     49369     49360     49361
     49361     49363     49361     49362     49363     49364     49363     49365
     49363     49375     49375     49376     49375     49377     49375     49378
     49378     49379     49378     49380     49378     49381     49381     49382
     49381     49383     49381     49384     49384     49385     49384     49386
     49384     49387     49387     49388     49387     49389     49387     49390
     49390     49391     49390     49392     49390     49393     49393     49394
     49393     49395     49393     49396     49396     49397     49396     49398
     49396     49399     49399     49400     49399     49401     49401     49402
     49401     49403     49403     49404     49403     49405     49403     49406
     49406     49407     49406     49408     49406     49409     49409     49410
     49409     49411     49409     49412     49412     49413     49412     49414
     49412     49415     49415     49416     49415     49417     49415     49418
     49418     49419     49418     49420     49418     49421     49369     49370
     49370     49372     49370     49371     49372     49373     49372     49374
     49372     49422     49422     49423     49422     49424     49422     49425
     49425     49426     49425     49427     49425     49428     49428     49429
     49428     49430     49428     49431     49431     49432     49431     49433
     49431     49434     49434     49435     49434     49436     49434     49437
     49437     49438     49437     49439     49437     49440     49440     49441
     49440     49442     49440     49443     49443     49444     49443     49445
     49443     49446     49446     49447     49446     49448     49446     49449
     49449     49450     49449     49451     49449     49452     49452     49453
     49452     49454     49452     49455     49455     49456     49455     49457
     49455     49458     49458     49459     49458     49460     49458     49461
     49461     49462     49461     49463     49461     49464     49465     49466
     49465     49467     49465     49468     49465     49469     49469     49470
     49469     49471     49469     49472     49472     49473     49472     49474
     49472     49479     49479     49475     49475     49478     49475     49476
     49475     49477     49480     49481     49480     49482     49480     49483
     49480     49478     49483     49484     49483     49491     49483     49485
     49491     49492     49491     49493     49491     49494     49485     49486
     49486     49488     49486     49487     49488     49489     49488     49490
     49488     49500     49500     49501     49500     49502     49500     49503
     49503     49504     49503     49505     49503     49506     49506     49507
     49506     49508     49506     49509     49509     49510     49509     49511
     49509     49512     49512     49513     49512     49514     49512     49515
     49515     49516     49515     49517     49515     49518     49518     49519
     49518     49520     49520     49521     49520     49522     49522     49523
     49522     49524     49522     49525     49525     49526     49525     49527
     49525     49528     49528     49529     49528     49530     49528     49531
     49531     49532     49531     49533     49531     49534     49534     49535
     49534     49536     49534     49537     49537     49538     49537     49539
     49537     49540     49494     49495     49495     49497     49495     49496
     49497     49498     49497     49499     49497     49541     49541     49542
     49541     49543     49541     49544     49544     49545     49544     49546
     49544     49547     49547     49548     49547     49549     49547     49550
     49550     49551     49550     49552     49550     49553     49553     49554
     49553     49555     49553     49556     49556     49557     49556     49558
     49556     49559     49559     49560     49559     49561     49559     49562
     49562     49563     49562     49564     49562     49565     49565     49566
     49565     49567     49565     49568     49568     49569     49568     49570
     49568     49571     49571     49572     49571     49573     49571     49574
     49574     49575     49574     49576     49574     49577     49577     49578
     49577     49579     49577     49580     49580     49581     49580     49582
     49580     49583     49584     49585     49584     49586     49584     49587
     49584     49588     49588     49589     49588     49590     49588     49591
     49591     49592     49591     49593     49591     49598     49598     49594
     49594     49597     49594     49595     49594     49596     49599     49600
     49599     49601     49599     49602     49599     49597     49602     49603
     49602     49610     49602     49604     49610     49611     49610     49612
     49610     49613     49604     49605     49605     49607     49605     49606
     49607     49608     49607     49609     49607     49619     49619     49620
     49619     49621     49619     49622     49622     49623     49622     49624
     49622     49625     49625     49626     49625     49627     49625     49628
     49628     49629     49628     49630     49628     49631     49631     49632
     49631     49633     49631     49634     49634     49635     49634     49636
     49634     49637     49637     49638     49637     49639     49639     49640
     49639     49641     49641     49642     49641     49643     49641     49644
     49644     49645     49644     49646     49644     49647     49647     49648
     49647     49649     49647     49650     49650     49651     49650     49652
     49650     49653     49653     49654     49653     49655     49653     49656
     49656     49657     49656     49658     49656     49659     49613     49614
     49614     49616     49614     49615     49616     49617     49616     49618
     49616     49660     49660     49661     49660     49662     49660     49663
     49663     49664     49663     49665     49663     49666     49666     49667
     49666     49668     49666     49669     49669     49670     49669     49671
     49669     49672     49672     49673     49672     49674     49672     49675
     49675     49676     49675     49677     49675     49678     49678     49679
     49678     49680     49678     49681     49681     49682     49681     49683
     49681     49684     49684     49685     49684     49686     49684     49687
     49687     49688     49687     49689     49687     49690     49690     49691
     49690     49692     49690     49693     49693     49694     49693     49695
     49693     49696     49696     49697     49696     49698     49696     49699
     49699     49700     49699     49701     49699     49702     49718     49714
     49718     49719     49718     49720     49714     49716     49714     49715
     49716     49717     49714     49703     49703     49704     49703     49705
     49718     49724     49703     49709     49721     49724     49721     49725
     49721     49722     49721     49723     49706     49709     49706     49710
     49706     49707     49706     49708     49725     49726     49726     49727
     49726     49728     49726     49729     49729     49730     49729     49731
     49729     49737     49737     49738     49737     49739     49737     49740
     49710     49711     49711     49712     49711     49713     49711     49746
     49746     49747     49746     49748     49746     49754     49754     49755
     49754     49756     49754     49757     49731     49732     49740     49741
     49748     49749     49757     49758     49732     49733     49732     49734
     49734     49735     49734     49736     49734     49763     49763     49764
     49763     49765     49763     49766     49766     49767     49766     49768
     49766     49769     49769     49770     49769     49771     49769     49772
     49772     49773     49772     49774     49772     49775     49775     49776
     49775     49777     49775     49778     49778     49779     49778     49780
     49778     49781     49781     49782     49781     49783     49781     49784
     49784     49785     49784     49786     49784     49787     49787     49788
     49787     49789     49789     49790     49789     49791     49791     49792
     49791     49793     49791     49794     49794     49795     49794     49796
     49794     49797     49797     49798     49797     49799     49797     49800
     49800     49801     49800     49802     49800     49803     49803     49804
     49803     49805     49803     49806     49806     49807     49806     49808
     49806     49809     49741     49742     49741     49743     49743     49744
     49743     49745     49743     49810     49810     49811     49810     49812
     49810     49813     49813     49814     49813     49815     49813     49816
     49816     49817     49816     49818     49816     49819     49819     49820
     49819     49821     49819     49822     49822     49823     49822     49824
     49822     49825     49825     49826     49825     49827     49825     49828
     49828     49829     49828     49830     49828     49831     49831     49832
     49831     49833     49831     49834     49834     49835     49834     49836
     49834     49837     49837     49838     49837     49839     49837     49840
     49840     49841     49840     49842     49840     49843     49843     49844
     49843     49845     49843     49846     49846     49847     49846     49848
     49846     49849     49849     49850     49849     49851     49849     49852
     49749     49750     49749     49751     49751     49752     49751     49753
     49751     49853     49853     49854     49853     49855     49853     49856
     49856     49857     49856     49858     49856     49859     49859     49860
     49859     49861     49859     49862     49862     49863     49862     49864
     49862     49865     49865     49866     49865     49867     49865     49868
     49868     49869     49868     49870     49868     49871     49871     49872
     49871     49873     49871     49874     49874     49875     49874     49876
     49874     49877     49877     49878     49877     49879     49879     49880
     49879     49881     49881     49882     49881     49883     49881     49884
     49884     49885     49884     49886     49884     49887     49887     49888
     49887     49889     49887     49890     49890     49891     49890     49892
     49890     49893     49893     49894     49893     49895     49893     49896
     49896     49897     49896     49898     49896     49899     49758     49759
     49758     49760     49760     49761     49760     49762     49760     49900
     49900     49901     49900     49902     49900     49903     49903     49904
     49903     49905     49903     49906     49906     49907     49906     49908
     49906     49909     49909     49910     49909     49911     49909     49912
     49912     49913     49912     49914     49912     49915     49915     49916
     49915     49917     49915     49918     49918     49919     49918     49920
     49918     49921     49921     49922     49921     49923     49921     49924
     49924     49925     49924     49926     49924     49927     49927     49928
     49927     49929     49927     49930     49930     49931     49930     49932
     49930     49933     49933     49934     49933     49935     49933     49936
     49936     49937     49936     49938     49936     49939     49939     49940
     49939     49941     49939     49942     49947     49946     49946     49943
     49943     49944     49943     49945     49943     49948     49951     49950
     49950     49948     49948     49949     49948     49952     49952     49953
     49952     49954     49952     49958     49959     49960     49958     49955
     49955     49959     49955     49956     49955     49957     49960     49961
     49960     49962     49960     49963     49963     49964     49963     49971
     49963     49965     49971     49972     49971     49973     49971     49974
     49965     49966     49966     49968     49966     49967     49968     49969
     49968     49970     49968     49980     49980     49981     49980     49982
     49980     49983     49983     49984     49983     49985     49983     49986
     49986     49987     49986     49988     49986     49989     49989     49990
     49989     49991     49989     49992     49992     49993     49992     49994
     49992     49995     49995     49996     49995     49997     49995     49998
     49998     49999     49998     50000     49998     50001     50001     50002
     50001     50003     50001     50004     50004     50005     50004     50006
     50006     50007     50006     50008     50008     50009     50008     50010
     50008     50011     50011     50012     50011     50013     50011     50014
     50014     50015     50014     50016     50014     50017     50017     50018
     50017     50019     50017     50020     50020     50021     50020     50022
     50020     50023     50023     50024     50023     50025     50023     50026
     49974     49975     49975     49977     49975     49976     49977     49978
     49977     49979     49977     50027     50027     50028     50027     50029
     50027     50030     50030     50031     50030     50032     50030     50033
     50033     50034     50033     50035     50033     50036     50036     50037
     50036     50038     50036     50039     50039     50040     50039     50041
     50039     50042     50042     50043     50042     50044     50042     50045
     50045     50046     50045     50047     50045     50048     50048     50049
     50048     50050     50048     50051     50051     50052     50051     50053
     50051     50054     50054     50055     50054     50056     50054     50057
     50057     50058     50057     50059     50057     50060     50060     50061
     50060     50062     50060     50063     50063     50064     50063     50065
     50063     50066     50066     50067     50066     50068     50066     50069
     50070     50071     50070     50072     50070     50073     50070     50074
     50074     50075     50074     50076     50074     50077     50077     50078
     50077     50079     50077     50084     50084     50080     50080     50083
     50080     50081     50080     50082     50085     50086     50085     50087
     50085     50088     50085     50083     50088     50089     50088     50096
     50088     50090     50096     50097     50096     50098     50096     50099
     50090     50091     50091     50093     50091     50092     50093     50094
     50093     50095     50093     50105     50105     50106     50105     50107
     50105     50108     50108     50109     50108     50110     50108     50111
     50111     50112     50111     50113     50111     50114     50114     50115
     50114     50116     50114     50117     50117     50118     50117     50119
     50117     50120     50120     50121     50120     50122     50120     50123
     50123     50124     50123     50125     50125     50126     50125     50127
     50127     50128     50127     50129     50127     50130     50130     50131
     50130     50132     50130     50133     50133     50134     50133     50135
     50133     50136     50136     50137     50136     50138     50136     50139
     50139     50140     50139     50141     50139     50142     50142     50143
     50142     50144     50142     50145     50099     50100     50100     50102
     50100     50101     50102     50103     50102     50104     50102     50146
     50146     50147     50146     50148     50146     50149     50149     50150
     50149     50151     50149     50152     50152     50153     50152     50154
     50152     50155     50155     50156     50155     50157     50155     50158
     50158     50159     50158     50160     50158     50161     50161     50162
     50161     50163     50161     50164     50164     50165     50164     50166
     50164     50167     50167     50168     50167     50169     50167     50170
     50170     50171     50170     50172     50170     50173     50173     50174
     50173     50175     50173     50176     50176     50177     50176     50178
     50176     50179     50179     50180     50179     50181     50179     50182
     50182     50183     50182     50184     50182     50185     50185     50186
     50185     50187     50185     50188     50189     50190     50189     50191
     50189     50192     50189     50193     50193     50194     50193     50195
     50193     50196     50196     50197     50196     50198     50196     50203
     50203     50199     50199     50202     50199     50200     50199     50201
     50204     50205     50204     50206     50204     50207     50204     50202
     50207     50208     50207     50215     50207     50209     50215     50216
     50215     50217     50215     50218     50209     50210     50210     50212
     50210     50211     50212     50213     50212     50214     50212     50224
     50224     50225     50224     50226     50224     50227     50227     50228
     50227     50229     50227     50230     50230     50231     50230     50232
     50230     50233     50233     50234     50233     50235     50233     50236
     50236     50237     50236     50238     50236     50239     50239     50240
     50239     50241     50239     50242     50242     50243     50242     50244
     50244     50245     50244     50246     50246     50247     50246     50248
     50246     50249     50249     50250     50249     50251     50249     50252
     50252     50253     50252     50254     50252     50255     50255     50256
     50255     50257     50255     50258     50258     50259     50258     50260
     50258     50261     50261     50262     50261     50263     50261     50264
     50218     50219     50219     50221     50219     50220     50221     50222
     50221     50223     50221     50265     50265     50266     50265     50267
     50265     50268     50268     50269     50268     50270     50268     50271
     50271     50272     50271     50273     50271     50274     50274     50275
     50274     50276     50274     50277     50277     50278     50277     50279
     50277     50280     50280     50281     50280     50282     50280     50283
     50283     50284     50283     50285     50283     50286     50286     50287
     50286     50288     50286     50289     50289     50290     50289     50291
     50289     50292     50292     50293     50292     50294     50292     50295
     50295     50296     50295     50297     50295     50298     50298     50299
     50298     50300     50298     50301     50301     50302     50301     50303
     50301     50304     50304     50305     50304     50306     50304     50307
     50308     50309     50308     50310     50308     50311     50308     50312
     50312     50313     50312     50314     50312     50315     50315     50316
     50315     50317     50315     50322     50322     50318     50318     50321
     50318     50319     50318     50320     50323     50324     50323     50325
     50323     50326     50323     50321     50326     50327     50326     50334
     50326     50328     50334     50335     50334     50336     50334     50337
     50328     50329     50329     50331     50329     50330     50331     50332
     50331     50333     50331     50343     50343     50344     50343     50345
     50343     50346     50346     50347     50346     50348     50346     50349
     50349     50350     50349     50351     50349     50352     50352     50353
     50352     50354     50352     50355     50355     50356     50355     50357
     50355     50358     50358     50359     50358     50360     50358     50361
     50361     50362     50361     50363     50363     50364     50363     50365
     50365     50366     50365     50367     50365     50368     50368     50369
     50368     50370     50368     50371     50371     50372     50371     50373
     50371     50374     50374     50375     50374     50376     50374     50377
     50377     50378     50377     50379     50377     50380     50380     50381
     50380     50382     50380     50383     50337     50338     50338     50340
     50338     50339     50340     50341     50340     50342     50340     50384
     50384     50385     50384     50386     50384     50387     50387     50388
     50387     50389     50387     50390     50390     50391     50390     50392
     50390     50393     50393     50394     50393     50395     50393     50396
     50396     50397     50396     50398     50396     50399     50399     50400
     50399     50401     50399     50402     50402     50403     50402     50404
     50402     50405     50405     50406     50405     50407     50405     50408
     50408     50409     50408     50410     50408     50411     50411     50412
     50411     50413     50411     50414     50414     50415     50414     50416
     50414     50417     50417     50418     50417     50419     50417     50420
     50420     50421     50420     50422     50420     50423     50423     50424
     50423     50425     50423     50426     50427     50428     50427     50429
     50427     50430     50427     50431     50431     50432     50431     50433
     50431     50434     50434     50435     50434     50436     50434     50441
     50441     50437     50437     50440     50437     50438     50437     50439
     50442     50443     50442     50444     50442     50445     50442     50440
     50445     50446     50445     50453     50445     50447     50453     50454
     50453     50455     50453     50456     50447     50448     50448     50450
     50448     50449     50450     50451     50450     50452     50450     50462
     50462     50463     50462     50464     50462     50465     50465     50466
     50465     50467     50465     50468     50468     50469     50468     50470
     50468     50471     50471     50472     50471     50473     50471     50474
     50474     50475     50474     50476     50474     50477     50477     50478
     50477     50479     50477     50480     50480     50481     50480     50482
     50482     50483     50482     50484     50484     50485     50484     50486
     50484     50487     50487     50488     50487     50489     50487     50490
     50490     50491     50490     50492     50490     50493     50493     50494
     50493     50495     50493     50496     50496     50497     50496     50498
     50496     50499     50499     50500     50499     50501     50499     50502
     50456     50457     50457     50459     50457     50458     50459     50460
     50459     50461     50459     50503     50503     50504     50503     50505
     50503     50506     50506     50507     50506     50508     50506     50509
     50509     50510     50509     50511     50509     50512     50512     50513
     50512     50514     50512     50515     50515     50516     50515     50517
     50515     50518     50518     50519     50518     50520     50518     50521
     50521     50522     50521     50523     50521     50524     50524     50525
     50524     50526     50524     50527     50527     50528     50527     50529
     50527     50530     50530     50531     50530     50532     50530     50533
     50533     50534     50533     50535     50533     50536     50536     50537
     50536     50538     50536     50539     50539     50540     50539     50541
     50539     50542     50542     50543     50542     50544     50542     50545
     50546     50547     50546     50548     50546     50549     50546     50550
     50550     50551     50550     50552     50550     50553     50553     50554
     50553     50555     50553     50560     50560     50556     50556     50559
     50556     50557     50556     50558     50561     50562     50561     50563
     50561     50564     50561     50559     50564     50565     50564     50572
     50564     50566     50572     50573     50572     50574     50572     50575
     50566     50567     50567     50569     50567     50568     50569     50570
     50569     50571     50569     50581     50581     50582     50581     50583
     50581     50584     50584     50585     50584     50586     50584     50587
     50587     50588     50587     50589     50587     50590     50590     50591
     50590     50592     50590     50593     50593     50594     50593     50595
     50593     50596     50596     50597     50596     50598     50596     50599
     50599     50600     50599     50601     50601     50602     50601     50603
     50603     50604     50603     50605     50603     50606     50606     50607
     50606     50608     50606     50609     50609     50610     50609     50611
     50609     50612     50612     50613     50612     50614     50612     50615
     50615     50616     50615     50617     50615     50618     50618     50619
     50618     50620     50618     50621     50575     50576     50576     50578
     50576     50577     50578     50579     50578     50580     50578     50622
     50622     50623     50622     50624     50622     50625     50625     50626
     50625     50627     50625     50628     50628     50629     50628     50630
     50628     50631     50631     50632     50631     50633     50631     50634
     50634     50635     50634     50636     50634     50637     50637     50638
     50637     50639     50637     50640     50640     50641     50640     50642
     50640     50643     50643     50644     50643     50645     50643     50646
     50646     50647     50646     50648     50646     50649     50649     50650
     50649     50651     50649     50652     50652     50653     50652     50654
     50652     50655     50655     50656     50655     50657     50655     50658
     50658     50659     50658     50660     50658     50661     50661     50662
     50661     50663     50661     50664     50665     50666     50665     50667
     50665     50668     50665     50669     50669     50670     50669     50671
     50669     50672     50672     50673     50672     50674     50672     50679
     50679     50675     50675     50678     50675     50676     50675     50677
     50680     50681     50680     50682     50680     50683     50680     50678
     50683     50684     50683     50691     50683     50685     50691     50692
     50691     50693     50691     50694     50685     50686     50686     50688
     50686     50687     50688     50689     50688     50690     50688     50700
     50700     50701     50700     50702     50700     50703     50703     50704
     50703     50705     50703     50706     50706     50707     50706     50708
     50706     50709     50709     50710     50709     50711     50709     50712
     50712     50713     50712     50714     50712     50715     50715     50716
     50715     50717     50715     50718     50718     50719     50718     50720
     50720     50721     50720     50722     50722     50723     50722     50724
     50722     50725     50725     50726     50725     50727     50725     50728
     50728     50729     50728     50730     50728     50731     50731     50732
     50731     50733     50731     50734     50734     50735     50734     50736
     50734     50737     50737     50738     50737     50739     50737     50740
     50694     50695     50695     50697     50695     50696     50697     50698
     50697     50699     50697     50741     50741     50742     50741     50743
     50741     50744     50744     50745     50744     50746     50744     50747
     50747     50748     50747     50749     50747     50750     50750     50751
     50750     50752     50750     50753     50753     50754     50753     50755
     50753     50756     50756     50757     50756     50758     50756     50759
     50759     50760     50759     50761     50759     50762     50762     50763
     50762     50764     50762     50765     50765     50766     50765     50767
     50765     50768     50768     50769     50768     50770     50768     50771
     50771     50772     50771     50773     50771     50774     50774     50775
     50774     50776     50774     50777     50777     50778     50777     50779
     50777     50780     50780     50781     50780     50782     50780     50783
     50784     50785     50784     50786     50784     50787     50784     50788
     50788     50789     50788     50790     50788     50791     50791     50792
     50791     50793     50791     50798     50798     50794     50794     50797
     50794     50795     50794     50796     50799     50800     50799     50801
     50799     50802     50799     50797     50802     50803     50802     50810
     50802     50804     50810     50811     50810     50812     50810     50813
     50804     50805     50805     50807     50805     50806     50807     50808
     50807     50809     50807     50819     50819     50820     50819     50821
     50819     50822     50822     50823     50822     50824     50822     50825
     50825     50826     50825     50827     50825     50828     50828     50829
     50828     50830     50828     50831     50831     50832     50831     50833
     50831     50834     50834     50835     50834     50836     50834     50837
     50837     50838     50837     50839     50839     50840     50839     50841
     50841     50842     50841     50843     50841     50844     50844     50845
     50844     50846     50844     50847     50847     50848     50847     50849
     50847     50850     50850     50851     50850     50852     50850     50853
     50853     50854     50853     50855     50853     50856     50856     50857
     50856     50858     50856     50859     50813     50814     50814     50816
     50814     50815     50816     50817     50816     50818     50816     50860
     50860     50861     50860     50862     50860     50863     50863     50864
     50863     50865     50863     50866     50866     50867     50866     50868
     50866     50869     50869     50870     50869     50871     50869     50872
     50872     50873     50872     50874     50872     50875     50875     50876
     50875     50877     50875     50878     50878     50879     50878     50880
     50878     50881     50881     50882     50881     50883     50881     50884
     50884     50885     50884     50886     50884     50887     50887     50888
     50887     50889     50887     50890     50890     50891     50890     50892
     50890     50893     50893     50894     50893     50895     50893     50896
     50896     50897     50896     50898     50896     50899     50899     50900
     50899     50901     50899     50902     50907     50906     50906     50903
     50903     50904     50903     50905     50903     50908     50911     50910
     50910     50908     50908     50909     50908     50912     50912     50913
     50912     50914     50912     50918     50919     50920     50918     50915
     50915     50919     50915     50916     50915     50917     50920     50921
     50920     50922     50920     50923     50923     50924     50923     50931
     50923     50925     50931     50932     50931     50933     50931     50934
     50925     50926     50926     50928     50926     50927     50928     50929
     50928     50930     50928     50940     50940     50941     50940     50942
     50940     50943     50943     50944     50943     50945     50943     50946
     50946     50947     50946     50948     50946     50949     50949     50950
     50949     50951     50949     50952     50952     50953     50952     50954
     50952     50955     50955     50956     50955     50957     50955     50958
     50958     50959     50958     50960     50958     50961     50961     50962
     50961     50963     50961     50964     50964     50965     50964     50966
     50966     50967     50966     50968     50968     50969     50968     50970
     50968     50971     50971     50972     50971     50973     50971     50974
     50974     50975     50974     50976     50974     50977     50977     50978
     50977     50979     50977     50980     50980     50981     50980     50982
     50980     50983     50983     50984     50983     50985     50983     50986
     50934     50935     50935     50937     50935     50936     50937     50938
     50937     50939     50937     50987     50987     50988     50987     50989
     50987     50990     50990     50991     50990     50992     50990     50993
     50993     50994     50993     50995     50993     50996     50996     50997
     50996     50998     50996     50999     50999     51000     50999     51001
     50999     51002     51002     51003     51002     51004     51002     51005
     51005     51006     51005     51007     51005     51008     51008     51009
     51008     51010     51008     51011     51011     51012     51011     51013
     51011     51014     51014     51015     51014     51016     51014     51017
     51017     51018     51017     51019     51017     51020     51020     51021
     51020     51022     51020     51023     51023     51024     51023     51025
     51023     51026     51026     51027     51026     51028     51026     51029
     51030     51031     51030     51032     51030     51033     51030     51034
     51034     51035     51034     51036     51034     51037     51037     51038
     51037     51039     51037     51044     51044     51040     51040     51043
     51040     51041     51040     51042     51045     51046     51045     51047
     51045     51048     51045     51043     51048     51049     51048     51056
     51048     51050     51056     51057     51056     51058     51056     51059
     51050     51051     51051     51053     51051     51052     51053     51054
     51053     51055     51053     51065     51065     51066     51065     51067
     51065     51068     51068     51069     51068     51070     51068     51071
     51071     51072     51071     51073     51071     51074     51074     51075
     51074     51076     51074     51077     51077     51078     51077     51079
     51077     51080     51080     51081     51080     51082     51080     51083
     51083     51084     51083     51085     51085     51086     51085     51087
     51087     51088     51087     51089     51087     51090     51090     51091
     51090     51092     51090     51093     51093     51094     51093     51095
     51093     51096     51096     51097     51096     51098     51096     51099
     51099     51100     51099     51101     51099     51102     51102     51103
     51102     51104     51102     51105     51059     51060     51060     51062
     51060     51061     51062     51063     51062     51064     51062     51106
     51106     51107     51106     51108     51106     51109     51109     51110
     51109     51111     51109     51112     51112     51113     51112     51114
     51112     51115     51115     51116     51115     51117     51115     51118
     51118     51119     51118     51120     51118     51121     51121     51122
     51121     51123     51121     51124     51124     51125     51124     51126
     51124     51127     51127     51128     51127     51129     51127     51130
     51130     51131     51130     51132     51130     51133     51133     51134
     51133     51135     51133     51136     51136     51137     51136     51138
     51136     51139     51139     51140     51139     51141     51139     51142
     51142     51143     51142     51144     51142     51145     51145     51146
     51145     51147     51145     51148     51153     51152     51152     51149
     51149     51150     51149     51151     51149     51154     51157     51156
     51156     51154     51154     51155     51154     51158     51158     51159
     51158     51160     51158     51164     51165     51166     51164     51161
     51161     51165     51161     51162     51161     51163     51166     51167
     51166     51168     51166     51169     51169     51170     51169     51177
     51169     51171     51177     51178     51177     51179     51177     51180
     51171     51172     51172     51174     51172     51173     51174     51175
     51174     51176     51174     51186     51186     51187     51186     51188
     51186     51189     51189     51190     51189     51191     51189     51192
     51192     51193     51192     51194     51192     51195     51195     51196
     51195     51197     51195     51198     51198     51199     51198     51200
     51198     51201     51201     51202     51201     51203     51201     51204
     51204     51205     51204     51206     51204     51207     51207     51208
     51207     51209     51207     51210     51210     51211     51210     51212
     51212     51213     51212     51214     51214     51215     51214     51216
     51214     51217     51217     51218     51217     51219     51217     51220
     51220     51221     51220     51222     51220     51223     51223     51224
     51223     51225     51223     51226     51226     51227     51226     51228
     51226     51229     51229     51230     51229     51231     51229     51232
     51180     51181     51181     51183     51181     51182     51183     51184
     51183     51185     51183     51233     51233     51234     51233     51235
     51233     51236     51236     51237     51236     51238     51236     51239
     51239     51240     51239     51241     51239     51242     51242     51243
     51242     51244     51242     51245     51245     51246     51245     51247
     51245     51248     51248     51249     51248     51250     51248     51251
     51251     51252     51251     51253     51251     51254     51254     51255
     51254     51256     51254     51257     51257     51258     51257     51259
     51257     51260     51260     51261     51260     51262     51260     51263
     51263     51264     51263     51265     51263     51266     51266     51267
     51266     51268     51266     51269     51269     51270     51269     51271
     51269     51272     51272     51273     51272     51274     51272     51275
     51291     51287     51291     51292     51291     51293     51287     51289
     51287     51288     51289     51290     51287     51276     51276     51277
     51276     51278     51291     51297     51276     51282     51294     51297
     51294     51298     51294     51295     51294     51296     51279     51282
     51279     51283     51279     51280     51279     51281     51298     51299
     51299     51300     51299     51301     51299     51302     51302     51303
     51302     51304     51302     51310     51310     51311     51310     51312
     51310     51313     51283     51284     51284     51285     51284     51286
     51284     51319     51319     51320     51319     51321     51319     51327
     51327     51328     51327     51329     51327     51330     51304     51305
     51313     51314     51321     51322     51330     51331     51305     51306
     51305     51307     51307     51308     51307     51309     51307     51336
     51336     51337     51336     51338     51336     51339     51339     51340
     51339     51341     51339     51342     51342     51343     51342     51344
     51342     51345     51345     51346     51345     51347     51345     51348
     51348     51349     51348     51350     51348     51351     51351     51352
     51351     51353     51351     51354     51354     51355     51354     51356
     51354     51357     51357     51358     51357     51359     51357     51360
     51360     51361     51360     51362     51362     51363     51362     51364
     51364     51365     51364     51366     51364     51367     51367     51368
     51367     51369     51367     51370     51370     51371     51370     51372
     51370     51373     51373     51374     51373     51375     51373     51376
     51376     51377     51376     51378     51376     51379     51379     51380
     51379     51381     51379     51382     51314     51315     51314     51316
     51316     51317     51316     51318     51316     51383     51383     51384
     51383     51385     51383     51386     51386     51387     51386     51388
     51386     51389     51389     51390     51389     51391     51389     51392
     51392     51393     51392     51394     51392     51395     51395     51396
     51395     51397     51395     51398     51398     51399     51398     51400
     51398     51401     51401     51402     51401     51403     51401     51404
     51404     51405     51404     51406     51404     51407     51407     51408
     51407     51409     51407     51410     51410     51411     51410     51412
     51410     51413     51413     51414     51413     51415     51413     51416
     51416     51417     51416     51418     51416     51419     51419     51420
     51419     51421     51419     51422     51422     51423     51422     51424
     51422     51425     51322     51323     51322     51324     51324     51325
     51324     51326     51324     51426     51426     51427     51426     51428
     51426     51429     51429     51430     51429     51431     51429     51432
     51432     51433     51432     51434     51432     51435     51435     51436
     51435     51437     51435     51438     51438     51439     51438     51440
     51438     51441     51441     51442     51441     51443     51441     51444
     51444     51445     51444     51446     51444     51447     51447     51448
     51447     51449     51447     51450     51450     51451     51450     51452
     51452     51453     51452     51454     51454     51455     51454     51456
     51454     51457     51457     51458     51457     51459     51457     51460
     51460     51461     51460     51462     51460     51463     51463     51464
     51463     51465     51463     51466     51466     51467     51466     51468
     51466     51469     51469     51470     51469     51471     51469     51472
     51331     51332     51331     51333     51333     51334     51333     51335
     51333     51473     51473     51474     51473     51475     51473     51476
     51476     51477     51476     51478     51476     51479     51479     51480
     51479     51481     51479     51482     51482     51483     51482     51484
     51482     51485     51485     51486     51485     51487     51485     51488
     51488     51489     51488     51490     51488     51491     51491     51492
     51491     51493     51491     51494     51494     51495     51494     51496
     51494     51497     51497     51498     51497     51499     51497     51500
     51500     51501     51500     51502     51500     51503     51503     51504
     51503     51505     51503     51506     51506     51507     51506     51508
     51506     51509     51509     51510     51509     51511     51509     51512
     51512     51513     51512     51514     51512     51515

     99750 !NTHETA: angles
         1         3         2         1         3         4         1         3         5
         2         3         4         2         3         5         2       300       297
         2       300       303         2       300       304         3         2       300
         3         5         6         3         5         7         3         5        14
         4         3         5         5         6         8         5        14        15
         5        14        16         5        14        21         6         5         7
         6         5        14         6         8         9         6         8        10
         6         8        29         7         5        14         8        10        11
         8        29        21         8        29        30         8        29        31
         9         8        10         9         8        29        10         8        29
        10        11        12        10        11        13        10        11        37
        11        37        33        11        37        38        11        37        39
        12        11        13        12        11        37        13        11        37
        14        16        17        14        21        22        14        21        23
        14        21        29        15        14        16        15        14        21
        16        14        21        16        17        18        16        17        19
        16        17        20        18        17        19        18        17        20
        19        17        20        21        22        24        21        29        30
        21        29        31        22        21        23        22        21        29
        22        24        25        22        24        26        23        21        29
        24        26        27        24        26        28        24        26        59
        25        24        26        26        59        60        26        59        61
        26        59       104        27        26        28        27        26        59
        28        26        59        29        31        32        29        31       138
        30        29        31        31       138       139        31       138       140
        32        31       138        33        35        36        33        37        38
        33        37        39        33        47        48        33        47        49
        33        47        55        34        33        35        34        33        37
        34        33        47        35        33        37        35        33        47
        37        33        47        37        39        40        38        37        39
        39        40        41        39        40        42        39        40        55
        40        42        46        40        55        47        40        55        56
        40        55        57        41        40        42        41        40        55
        42        40        55        42        46        43        42        46        44
        42        46        45        43        46        44        43        46        45
        44        46        45        47        49        50        47        55        56
        47        55        57        48        47        49        48        47        55
        49        47        55        49        50        51        49        50        52
        50        52        53        50        52        54        50        52       216
        51        50        52        52       216       217        52       216       218
        52       216       220        53        52        54        53        52       216
        54        52       216        55        57        58        55        57       254
        56        55        57        57       254       255        57       254       256
        58        57       254        59        61        62        59       104       105
        59       104       106        59       104       107        60        59        61
        60        59       104        61        59       104        61        62        63
        61        62        64        62        64        65        62        64        66
        62        64        67        63        62        64        64        67        68
        64        67        69        64        67        70        65        64        66
        65        64        67        66        64        67        67        70        71
        67        70        72        67        70        73        68        67        69
        68        67        70        69        67        70        70        73        74
        70        73        75        70        73        76        71        70        72
        71        70        73        72        70        73        73        76        77
        73        76        78        73        76        79        74        73        75
        74        73        76        75        73        76        76        79        80
        76        79        81        76        79        82        77        76        78
        77        76        79        78        76        79        79        82        83
        79        82        84        79        82        85        80        79        81
        80        79        82        81        79        82        82        85        86
        82        85        87        82        85        88        83        82        84
        83        82        85        84        82        85        85        88        89
        85        88        90        85        88        91        86        85        87
        86        85        88        87        85        88        88        91        92
        88        91        93        88        91        94        89        88        90
        89        88        91        90        88        91        91        94        95
        91        94        96        91        94        97        92        91        93
        92        91        94        93        91        94        94        97        98
        94        97        99        94        97       100        95        94        96
        95        94        97        96        94        97        97       100       101
        97       100       102        97       100       103        98        97        99
        98        97       100        99        97       100       101       100       102
       101       100       103       102       100       103       104       107       108
       104       107       109       104       107       110       105       104       106
       105       104       107       106       104       107       107       110       111
       107       110       112       107       110       113       108       107       109
       108       107       110       109       107       110       110       113       114
       110       113       115       110       113       116       111       110       112
       111       110       113       112       110       113       113       116       117
       113       116       118       113       116       119       114       113       115
       114       113       116       115       113       116       116       119       120
       116       119       121       116       119       122       117       116       118
       117       116       119       118       116       119       119       122       123
       119       122       124       119       122       125       120       119       121
       120       119       122       121       119       122       122       125       126
       122       125       127       122       125       128       123       122       124
       123       122       125       124       122       125       125       128       129
       125       128       130       125       128       131       126       125       127
       126       125       128       127       125       128       128       131       132
       128       131       133       128       131       134       129       128       130
       129       128       131       130       128       131       131       134       135
       131       134       136       131       134       137       132       131       133
       132       131       134       133       131       134       135       134       136
       135       134       137       136       134       137       138       140       141
       138       140       142       138       140       143       139       138       140
       140       143       144       140       143       145       140       143       182
       141       140       142       141       140       143       142       140       143
       143       145       146       143       182       183       143       182       184
       143       182       185       144       143       145       144       143       182
       145       143       182       145       146       147       145       146       148
       146       148       149       146       148       150       146       148       151
       147       146       148       148       151       152       148       151       153
       148       151       154       149       148       150       149       148       151
       150       148       151       151       154       155       151       154       156
       151       154       157       152       151       153       152       151       154
       153       151       154       154       157       158       154       157       159
       154       157       160       155       154       156       155       154       157
       156       154       157       157       160       161       157       160       162
       157       160       163       158       157       159       158       157       160
       159       157       160       160       163       164       160       163       165
       160       163       166       161       160       162       161       160       163
       162       160       163       163       166       167       163       166       168
       163       166       169       164       163       165       164       163       166
       165       163       166       166       169       170       166       169       171
       166       169       172       167       166       168       167       166       169
       168       166       169       169       172       173       169       172       174
       169       172       175       170       169       171       170       169       172
       171       169       172       172       175       176       172       175       177
       172       175       178       173       172       174       173       172       175
       174       172       175       175       178       179       175       178       180
       175       178       181       176       175       177       176       175       178
       177       175       178       179       178       180       179       178       181
       180       178       181       182       185       186       182       185       187
       182       185       188       183       182       184       183       182       185
       184       182       185       185       188       189       185       188       190
       185       188       191       186       185       187       186       185       188
       187       185       188       188       191       192       188       191       193
       188       191       194       189       188       190       189       188       191
       190       188       191       191       194       195       191       194       196
       191       194       197       192       191       193       192       191       194
       193       191       194       194       197       198       194       197       199
       194       197       200       195       194       196       195       194       197
       196       194       197       197       200       201       197       200       202
       197       200       203       198       197       199       198       197       200
       199       197       200       200       203       204       200       203       205
       200       203       206       201       200       202       201       200       203
       202       200       203       203       206       207       203       206       208
       203       206       209       204       203       205       204       203       206
       205       203       206       206       209       210       206       209       211
       206       209       212       207       206       208       207       206       209
       208       206       209       209       212       213       209       212       214
       209       212       215       210       209       211       210       209       212
       211       209       212       213       212       214       213       212       215
       214       212       215       216       218       219       216       220       221
       216       220       222       216       220       223       217       216       218
       217       216       220       218       216       220       220       223       224
       220       223       225       220       223       226       221       220       222
       221       220       223       222       220       223       223       226       227
       223       226       228       223       226       229       224       223       225
       224       223       226       225       223       226       226       229       230
       226       229       231       226       229       232       227       226       228
       227       226       229       228       226       229       229       232       233
       229       232       234       229       232       235       230       229       231
       230       229       232       231       229       232       232       235       236
       232       235       237       232       235       238       233       232       234
       233       232       235       234       232       235       235       238       239
       235       238       240       235       238       241       236       235       237
       236       235       238       237       235       238       238       241       242
       238       241       243       238       241       244       239       238       240
       239       238       241       240       238       241       241       244       245
       241       244       246       241       244       247       242       241       243
       242       241       244       243       241       244       244       247       248
       244       247       249       244       247       250       245       244       246
       245       244       247       246       244       247       247       250       251
       247       250       252       247       250       253       248       247       249
       248       247       250       249       247       250       251       250       252
       251       250       253       252       250       253       254       256       257
       254       256       258       254       256       259       255       254       256
       256       259       260       256       259       261       256       259       263
       257       256       258       257       256       259       258       256       259
       259       261       262       259       263       264       259       263       265
       259       263       266       260       259       261       260       259       263
       261       259       263       263       266       267       263       266       268
       263       266       269       264       263       265       264       263       266
       265       263       266       266       269       270       266       269       271
       266       269       272       267       266       268       267       266       269
       268       266       269       269       272       273       269       272       274
       269       272       275       270       269       271       270       269       272
       271       269       272       272       275       276       272       275       277
       272       275       278       273       272       274       273       272       275
       274       272       275       275       278       279       275       278       280
       275       278       281       276       275       277       276       275       278
       277       275       278       278       281       282       278       281       283
       278       281       284       279       278       280       279       278       281
       280       278       281       281       284       285       281       284       286
       281       284       287       282       281       283       282       281       284
       283       281       284       284       287       288       284       287       289
       284       287       290       285       284       286       285       284       287
       286       284       287       287       290       291       287       290       292
       287       290       293       288       287       289       288       287       290
       289       287       290       290       293       294       290       293       295
       290       293       296       291       290       292       291       290       293
       292       290       293       294       293       295       294       293       296
       295       293       296       297       300       303       297       300       304
       298       297       299       298       297       300       299       297       300
       300       303       301       300       304       305       300       304       306
       300       304       307       301       310       307       301       310       311
       301       310       312       301       313       314       301       313       315
       301       313       317       302       301       303       302       301       310
       302       301       313       303       300       304       303       301       310
       303       301       313       304       307       308       304       307       309
       304       307       310       305       304       306       305       304       307
       306       304       307       307       309       325       307       310       311
       307       310       312       308       307       309       308       307       310
       309       307       310       309       325       322       309       325       328
       309       325       329       310       301       313       310       312       349
       311       310       312       312       349       350       312       349       353
       312       349       354       313       315       316       313       317       318
       313       317       319       313       317       320       314       313       315
       314       313       317       315       313       317       317       320       321
       318       317       319       318       317       320       319       317       320
       322       325       328       322       325       329       323       322       324
       323       322       325       324       322       325       325       328       326
       325       329       330       325       329       331       325       329       332
       326       336       332       326       336       337       326       336       338
       326       340       341       326       340       342       326       340       344
       327       326       328       327       326       336       327       326       340
       328       325       329       328       326       336       328       326       340
       329       332       333       329       332       334       329       332       336
       330       329       331       330       329       332       331       329       332
       332       334       335       332       336       337       332       336       338
       333       332       334       333       332       336       334       332       336
       336       326       340       336       338       339       337       336       338
       340       342       343       340       344       345       340       344       346
       340       344       347       341       340       342       341       340       344
       342       340       344       344       347       348       345       344       346
       345       344       347       346       344       347       349       353       351
       349       354       355       349       354       356       349       354       358
       350       349       353       350       349       354       351       361       358
       351       361       362       351       361       363       351       368       369
       351       368       370       351       368       372       352       351       353
       352       351       361       352       351       368       353       349       354
       353       351       361       353       351       368       354       356       357
       354       358       359       354       358       360       354       358       361
       355       354       356       355       354       358       356       354       358
       358       360       377       358       361       362       358       361       363
       359       358       360       359       358       361       360       358       361
       360       377       378       360       377       381       360       377       382
       361       351       368       361       363       364       362       361       363
       363       364       365       363       364       366       363       364       367
       365       364       366       365       364       367       366       364       367
       368       370       371       368       372       373       368       372       374
       368       372       375       369       368       370       369       368       372
       370       368       372       372       375       376       373       372       374
       373       372       375       374       372       375       377       381       379
       377       382       383       377       382       384       377       382       386
       378       377       381       378       377       382       379       389       386
       379       389       390       379       389       391       379       396       397
       379       396       398       379       396       400       380       379       381
       380       379       389       380       379       396       381       377       382
       381       379       389       381       379       396       382       384       385
       382       386       387       382       386       388       382       386       389
       383       382       384       383       382       386       384       382       386
       386       388       430       386       389       390       386       389       391
       387       386       388       387       386       389       388       386       389
       388       430       431       388       430       434       388       430       435
       389       379       396       389       391       392       390       389       391
       391       392       393       391       392       394       391       392       395
       393       392       394       393       392       395       394       392       395
       396       398       399       396       400       401       396       400       402
       396       400       403       397       396       398       397       396       400
       398       396       400       400       403       404       401       400       402
       401       400       403       402       400       403       403       404       405
       403       404       408       403       404       409       404       408       406
       404       409       410       404       409       411       404       409       413
       405       404       408       405       404       409       406       417       413
       406       417       418       406       417       419       406       421       422
       406       421       423       406       421       425       407       406       408
       407       406       417       407       406       421       408       404       409
       408       406       417       408       406       421       409       411       412
       409       413       414       409       413       415       409       413       417
       410       409       411       410       409       413       411       409       413
       413       415       416       413       417       418       413       417       419
       414       413       415       414       413       417       415       413       417
       417       406       421       417       419       420       418       417       419
       421       423       424       421       425       426       421       425       427
       421       425       428       422       421       423       422       421       425
       423       421       425       425       428       429       426       425       427
       426       425       428       427       425       428       430       434       432
       430       435       436       430       435       437       430       435       439
       431       430       434       431       430       435       432       442       439
       432       442       443       432       442       444       432       446       447
       432       446       448       432       446       449       433       432       434
       433       432       442       433       432       446       434       430       435
       434       432       442       434       432       446       435       437       438
       435       439       440       435       439       441       435       439       442
       436       435       437       436       435       439       437       435       439
       439       441       451       439       442       443       439       442       444
       440       439       441       440       439       442       441       439       442
       441       451       452       441       451       455       441       451       456
       442       432       446       442       444       445       443       442       444
       446       449       450       447       446       448       447       446       449
       448       446       449       451       455       453       451       456       457
       451       456       458       451       456       459       452       451       455
       452       451       456       453       462       459       453       462       463
       453       462       464       453       466       467       453       466       468
       453       466       469       454       453       455       454       453       462
       454       453       466       455       451       456       455       453       462
       455       453       466       456       458       471       456       459       460
       456       459       461       456       459       462       457       456       458
       457       456       459       458       456       459       458       471       472
       458       471       475       458       471       476       459       461       514
       459       462       463       459       462       464       460       459       461
       460       459       462       461       459       462       461       514       515
       461       514       518       461       514       519       462       453       466
       462       464       465       463       462       464       466       469       470
       467       466       468       467       466       469       468       466       469
       471       475       473       471       476       477       471       476       478
       471       476       479       472       471       475       472       471       476
       473       483       479       473       483       484       473       483       485
       473       487       488       473       487       489       473       487       490
       474       473       475       474       473       483       474       473       487
       475       471       476       475       473       483       475       473       487
       476       478       492       476       479       480       476       479       481
       476       479       483       477       476       478       477       476       479
       478       476       479       478       492       493       478       492       496
       478       492       497       479       481       482       479       483       484
       479       483       485       480       479       481       480       479       483
       481       479       483       483       473       487       483       485       486
       484       483       485       487       490       491       488       487       489
       488       487       490       489       487       490       492       496       494
       492       497       498       492       497       499       492       497       501
       493       492       496       493       492       497       494       505       501
       494       505       506       494       505       507       494       509       510
       494       509       511       494       509       512       495       494       496
       495       494       505       495       494       509       496       492       497
       496       494       505       496       494       509       497       499       500
       497       501       502       497       501       503       497       501       505
       498       497       499       498       497       501       499       497       501
       501       503       504       501       505       506       501       505       507
       502       501       503       502       501       505       503       501       505
       505       494       509       505       507       508       506       505       507
       509       512       513       510       509       511       510       509       512
       511       509       512       514       518       516       514       519       520
       514       519       521       514       519       523       515       514       518
       515       514       519       516       526       523       516       526       527
       516       526       528       516       530       531       516       530       532
       516       530       533       517       516       518       517       516       526
       517       516       530       518       514       519       518       516       526
       518       516       530       519       521       522       519       523       524
       519       523       525       519       523       526       520       519       521
       520       519       523       521       519       523       523       525       535
       523       526       527       523       526       528       524       523       525
       524       523       526       525       523       526       525       535       536
       525       535       539       525       535       540       526       516       530
       526       528       529       527       526       528       530       533       534
       531       530       532       531       530       533       532       530       533
       535       539       537       535       540       541       535       540       542
       535       540       550       536       535       539       536       535       540
       537       553       550       537       553       554       537       553       555
       537       557       558       537       557       559       537       557       560
       538       537       539       538       537       553       538       537       557
       539       535       540       539       537       553       539       537       557
       540       542       543       540       542       544       540       550       551
       540       550       552       540       550       553       541       540       542
       541       540       550       542       540       550       542       544       545
       542       544       546       543       542       544       544       546       547
       544       546       548       544       546       549       545       544       546
       547       546       548       547       546       549       548       546       549
       550       552       562       550       553       554       550       553       555
       551       550       552       551       550       553       552       550       553
       552       562       563       552       562       566       552       562       567
       553       537       557       553       555       556       554       553       555
       557       560       561       558       557       559       558       557       560
       559       557       560       562       566       564       562       567       568
       562       567       569       562       567       570       563       562       566
       563       562       567       564       574       570       564       574       575
       564       574       576       564       578       579       564       578       580
       564       578       581       565       564       566       565       564       574
       565       564       578       566       562       567       566       564       574
       566       564       578       567       569       583       567       570       571
       567       570       572       567       570       574       568       567       569
       568       567       570       569       567       570       569       583       584
       569       583       587       569       583       588       570       572       573
       570       574       575       570       574       576       571       570       572
       571       570       574       572       570       574       574       564       578
       574       576       577       575       574       576       578       581       582
       579       578       580       579       578       581       580       578       581
       583       587       585       583       588       589       583       588       590
       583       588       591       584       583       587       584       583       588
       585       595       591       585       595       596       585       595       597
       585       599       600       585       599       601       585       599       602
       586       585       587       586       585       595       586       585       599
       587       583       588       587       585       595       587       585       599
       588       590       603       588       591       592       588       591       593
       588       591       595       589       588       590       589       588       591
       590       588       591       590       603       604       590       603       607
       590       603       608       591       593       594       591       595       596
       591       595       597       592       591       593       592       591       595
       593       591       595       595       585       599       595       597       598
       596       595       597       600       599       601       600       599       602
       601       599       602       603       607       605       603       608       609
       603       608       610       603       608       611       604       603       607
       604       603       608       605       614       611       605       614       615
       605       614       616       605       618       619       605       618       620
       605       618       621       606       605       607       606       605       614
       606       605       618       607       603       608       607       605       614
       607       605       618       608       610       622       608       611       612
       608       611       613       608       611       614       609       608       610
       609       608       611       610       608       611       610       622       623
       610       622       626       610       622       627       611       613       650
       611       614       615       611       614       616       612       611       613
       612       611       614       613       611       614       613       650       651
       613       650       654       613       650       655       614       605       618
       614       616       617       615       614       616       619       618       620
       619       618       621       620       618       621       622       626       624
       622       627       628       622       627       629       622       627       637
       623       622       626       623       622       627       624       641       637
       624       641       642       624       641       643       624       645       646
       624       645       647       624       645       648       625       624       626
       625       624       641       625       624       645       626       622       627
       626       624       641       626       624       645       627       629       630
       627       629       631       627       637       638       627       637       639
       627       637       641       628       627       629       628       627       637
       629       627       637       629       631       632       629       631       633
       630       629       631       631       633       634       631       633       635
       631       633       636       632       631       633       634       633       635
       634       633       636       635       633       636       637       639       640
       637       641       642       637       641       643       638       637       639
       638       637       641       639       637       641       641       624       645
       641       643       644       642       641       643       645       648       649
       646       645       647       646       645       648       647       645       648
       650       654       652       650       655       656       650       655       657
       650       655       665       651       650       654       651       650       655
       652       668       665       652       668       669       652       668       670
       652       672       673       652       672       674       652       672       675
       653       652       654       653       652       668       653       652       672
       654       650       655       654       652       668       654       652       672
       655       657       658       655       657       659       655       665       666
       655       665       667       655       665       668       656       655       657
       656       655       665       657       655       665       657       659       660
       657       659       661       658       657       659       659       661       662
       659       661       663       659       661       664       660       659       661
       662       661       663       662       661       664       663       661       664
       665       667       677       665       668       669       665       668       670
       666       665       667       666       665       668       667       665       668
       667       677       678       667       677       681       667       677       682
       668       652       672       668       670       671       669       668       670
       672       675       676       673       672       674       673       672       675
       674       672       675       677       681       679       677       682       683
       677       682       684       677       682       685       678       677       681
       678       677       682       679       689       685       679       689       690
       679       689       691       679       693       694       679       693       695
       679       693       696       680       679       681       680       679       689
       680       679       693       681       677       682       681       679       689
       681       679       693       682       684       698       682       685       686
       682       685       687       682       685       689       683       682       684
       683       682       685       684       682       685       684       698       699
       684       698       702       684       698       703       685       687       688
       685       689       690       685       689       691       686       685       687
       686       685       689       687       685       689       689       679       693
       689       691       692       690       689       691       693       696       697
       694       693       695       694       693       696       695       693       696
       698       702       700       698       703       704       698       703       705
       698       703       706       699       698       702       699       698       703
       700       710       706       700       710       711       700       710       712
       700       714       715       700       714       716       700       714       717
       701       700       702       701       700       710       701       700       714
       702       698       703       702       700       710       702       700       714
       703       705       718       703       706       707       703       706       708
       703       706       710       704       703       705       704       703       706
       705       703       706       705       718       719       705       718       722
       705       718       723       706       708       709       706       710       711
       706       710       712       707       706       708       707       706       710
       708       706       710       710       700       714       710       712       713
       711       710       712       715       714       716       715       714       717
       716       714       717       718       722       720       718       723       724
       718       723       725       718       723       726       719       718       722
       719       718       723       720       729       726       720       729       730
       720       729       731       720       733       734       720       733       735
       720       733       736       721       720       722       721       720       729
       721       720       733       722       718       723       722       720       729
       722       720       733       723       725       737       723       726       727
       723       726       728       723       726       729       724       723       725
       724       723       726       725       723       726       725       737       738
       725       737       741       725       737       742       726       728       765
       726       729       730       726       729       731       727       726       728
       727       726       729       728       726       729       728       765       766
       728       765       769       728       765       770       729       720       733
       729       731       732       730       729       731       734       733       735
       734       733       736       735       733       736       737       741       739
       737       742       743       737       742       744       737       742       752
       738       737       741       738       737       742       739       756       752
       739       756       757       739       756       758       739       760       761
       739       760       762       739       760       763       740       739       741
       740       739       756       740       739       760       741       737       742
       741       739       756       741       739       760       742       744       745
       742       744       746       742       752       753       742       752       754
       742       752       756       743       742       744       743       742       752
       744       742       752       744       746       747       744       746       748
       745       744       746       746       748       749       746       748       750
       746       748       751       747       746       748       749       748       750
       749       748       751       750       748       751       752       754       755
       752       756       757       752       756       758       753       752       754
       753       752       756       754       752       756       756       739       760
       756       758       759       757       756       758       760       763       764
       761       760       762       761       760       763       762       760       763
       765       769       767       765       770       771       765       770       772
       765       770       780       766       765       769       766       765       770
       767       783       780       767       783       784       767       783       785
       767       787       788       767       787       789       767       787       790
       768       767       769       768       767       783       768       767       787
       769       765       770       769       767       783       769       767       787
       770       772       773       770       772       774       770       780       781
       770       780       782       770       780       783       771       770       772
       771       770       780       772       770       780       772       774       775
       772       774       776       773       772       774       774       776       777
       774       776       778       774       776       779       775       774       776
       777       776       778       777       776       779       778       776       779
       780       782       792       780       783       784       780       783       785
       781       780       782       781       780       783       782       780       783
       782       792       793       782       792       796       782       792       797
       783       767       787       783       785       786       784       783       785
       787       790       791       788       787       789       788       787       790
       789       787       790       792       796       794       792       797       798
       792       797       799       792       797       800       793       792       796
       793       792       797       794       804       800       794       804       805
       794       804       806       794       808       809       794       808       810
       794       808       811       795       794       796       795       794       804
       795       794       808       796       792       797       796       794       804
       796       794       808       797       799       813       797       800       801
       797       800       802       797       800       804       798       797       799
       798       797       800       799       797       800       799       813       814
       799       813       817       799       813       818       800       802       803
       800       804       805       800       804       806       801       800       802
       801       800       804       802       800       804       804       794       808
       804       806       807       805       804       806       808       811       812
       809       808       810       809       808       811       810       808       811
       813       817       815       813       818       819       813       818       820
       813       818       821       814       813       817       814       813       818
       815       825       821       815       825       826       815       825       827
       815       829       830       815       829       831       815       829       832
       816       815       817       816       815       825       816       815       829
       817       813       818       817       815       825       817       815       829
       818       820       833       818       821       822       818       821       823
       818       821       825       819       818       820       819       818       821
       820       818       821       820       833       834       820       833       837
       820       833       838       821       823       824       821       825       826
       821       825       827       822       821       823       822       821       825
       823       821       825       825       815       829       825       827       828
       826       825       827       830       829       831       830       829       832
       831       829       832       833       837       835       833       838       839
       833       838       840       833       838       841       834       833       837
       834       833       838       835       844       841       835       844       845
       835       844       846       835       848       849       835       848       850
       835       848       851       836       835       837       836       835       844
       836       835       848       837       833       838       837       835       844
       837       835       848       838       840       852       838       841       842
       838       841       843       838       841       844       839       838       840
       839       838       841       840       838       841       840       852       853
       840       852       856       840       852       857       841       843       880
       841       844       845       841       844       846       842       841       843
       842       841       844       843       841       844       843       880       881
       843       880       884       843       880       885       844       835       848
       844       846       847       845       844       846       849       848       850
       849       848       851       850       848       851       852       856       854
       852       857       858       852       857       859       852       857       867
       853       852       856       853       852       857       854       871       867
       854       871       872       854       871       873       854       875       876
       854       875       877       854       875       878       855       854       856
       855       854       871       855       854       875       856       852       857
       856       854       871       856       854       875       857       859       860
       857       859       861       857       867       868       857       867       869
       857       867       871       858       857       859       858       857       867
       859       857       867       859       861       862       859       861       863
       860       859       861       861       863       864       861       863       865
       861       863       866       862       861       863       864       863       865
       864       863       866       865       863       866       867       869       870
       867       871       872       867       871       873       868       867       869
       868       867       871       869       867       871       871       854       875
       871       873       874       872       871       873       875       878       879
       876       875       877       876       875       878       877       875       878
       880       884       882       880       885       886       880       885       887
       880       885       895       881       880       884       881       880       885
       882       898       895       882       898       899       882       898       900
       882       902       903       882       902       904       882       902       905
       883       882       884       883       882       898       883       882       902
       884       880       885       884       882       898       884       882       902
       885       887       888       885       887       889       885       895       896
       885       895       897       885       895       898       886       885       887
       886       885       895       887       885       895       887       889       890
       887       889       891       888       887       889       889       891       892
       889       891       893       889       891       894       890       889       891
       892       891       893       892       891       894       893       891       894
       895       897       907       895       898       899       895       898       900
       896       895       897       896       895       898       897       895       898
       897       907       908       897       907       911       897       907       912
       898       882       902       898       900       901       899       898       900
       902       905       906       903       902       904       903       902       905
       904       902       905       907       911       909       907       912       913
       907       912       914       907       912       915       908       907       911
       908       907       912       909       919       915       909       919       920
       909       919       921       909       923       924       909       923       925
       909       923       926       910       909       911       910       909       919
       910       909       923       911       907       912       911       909       919
       911       909       923       912       914       928       912       915       916
       912       915       917       912       915       919       913       912       914
       913       912       915       914       912       915       914       928       929
       914       928       932       914       928       933       915       917       918
       915       919       920       915       919       921       916       915       917
       916       915       919       917       915       919       919       909       923
       919       921       922       920       919       921       923       926       927
       924       923       925       924       923       926       925       923       926
       928       932       930       928       933       934       928       933       935
       928       933       936       929       928       932       929       928       933
       930       940       936       930       940       941       930       940       942
       930       944       945       930       944       946       930       944       947
       931       930       932       931       930       940       931       930       944
       932       928       933       932       930       940       932       930       944
       933       935       948       933       936       937       933       936       938
       933       936       940       934       933       935       934       933       936
       935       933       936       935       948       949       935       948       952
       935       948       953       936       938       939       936       940       941
       936       940       942       937       936       938       937       936       940
       938       936       940       940       930       944       940       942       943
       941       940       942       945       944       946       945       944       947
       946       944       947       948       952       950       948       953       954
       948       953       955       948       953       956       949       948       952
       949       948       953       950       959       956       950       959       960
       950       959       961       950       963       964       950       963       965
       950       963       966       951       950       952       951       950       959
       951       950       963       952       948       953       952       950       959
       952       950       963       953       955       967       953       956       957
       953       956       958       953       956       959       954       953       955
       954       953       956       955       953       956       955       967       968
       955       967       971       955       967       972       956       958       995
       956       959       960       956       959       961       957       956       958
       957       956       959       958       956       959       958       995       996
       958       995       999       958       995      1000       959       950       963
       959       961       962       960       959       961       964       963       965
       964       963       966       965       963       966       967       971       969
       967       972       973       967       972       974       967       972       982
       968       967       971       968       967       972       969       986       982
       969       986       987       969       986       988       969       990       991
       969       990       992       969       990       993       970       969       971
       970       969       986       970       969       990       971       967       972
       971       969       986       971       969       990       972       974       975
       972       974       976       972       982       983       972       982       984
       972       982       986       973       972       974       973       972       982
       974       972       982       974       976       977       974       976       978
       975       974       976       976       978       979       976       978       980
       976       978       981       977       976       978       979       978       980
       979       978       981       980       978       981       982       984       985
       982       986       987       982       986       988       983       982       984
       983       982       986       984       982       986       986       969       990
       986       988       989       987       986       988       990       993       994
       991       990       992       991       990       993       992       990       993
       995       999       997       995      1000      1001       995      1000      1002
       995      1000      1010       996       995       999       996       995      1000
       997      1013      1010       997      1013      1014       997      1013      1015
       997      1017      1018       997      1017      1019       997      1017      1020
       998       997       999       998       997      1013       998       997      1017
       999       995      1000       999       997      1013       999       997      1017
      1000      1002      1003      1000      1002      1004      1000      1010      1011
      1000      1010      1012      1000      1010      1013      1001      1000      1002
      1001      1000      1010      1002      1000      1010      1002      1004      1005
      1002      1004      1006      1003      1002      1004      1004      1006      1007
      1004      1006      1008      1004      1006      1009      1005      1004      1006
      1007      1006      1008      1007      1006      1009      1008      1006      1009
      1010      1012      1022      1010      1013      1014      1010      1013      1015
      1011      1010      1012      1011      1010      1013      1012      1010      1013
      1012      1022      1023      1012      1022      1026      1012      1022      1027
      1013       997      1017      1013      1015      1016      1014      1013      1015
      1017      1020      1021      1018      1017      1019      1018      1017      1020
      1019      1017      1020      1022      1026      1024      1022      1027      1028
      1022      1027      1029      1022      1027      1030      1023      1022      1026
      1023      1022      1027      1024      1034      1030      1024      1034      1035
      1024      1034      1036      1024      1038      1039      1024      1038      1040
      1024      1038      1041      1025      1024      1026      1025      1024      1034
      1025      1024      1038      1026      1022      1027      1026      1024      1034
      1026      1024      1038      1027      1029      1043      1027      1030      1031
      1027      1030      1032      1027      1030      1034      1028      1027      1029
      1028      1027      1030      1029      1027      1030      1029      1043      1044
      1029      1043      1047      1029      1043      1048      1030      1032      1033
      1030      1034      1035      1030      1034      1036      1031      1030      1032
      1031      1030      1034      1032      1030      1034      1034      1024      1038
      1034      1036      1037      1035      1034      1036      1038      1041      1042
      1039      1038      1040      1039      1038      1041      1040      1038      1041
      1043      1047      1045      1043      1048      1049      1043      1048      1050
      1043      1048      1051      1044      1043      1047      1044      1043      1048
      1045      1055      1051      1045      1055      1056      1045      1055      1057
      1045      1059      1060      1045      1059      1061      1045      1059      1062
      1046      1045      1047      1046      1045      1055      1046      1045      1059
      1047      1043      1048      1047      1045      1055      1047      1045      1059
      1048      1050      1063      1048      1051      1052      1048      1051      1053
      1048      1051      1055      1049      1048      1050      1049      1048      1051
      1050      1048      1051      1050      1063      1064      1050      1063      1067
      1050      1063      1068      1051      1053      1054      1051      1055      1056
      1051      1055      1057      1052      1051      1053      1052      1051      1055
      1053      1051      1055      1055      1045      1059      1055      1057      1058
      1056      1055      1057      1060      1059      1061      1060      1059      1062
      1061      1059      1062      1063      1067      1065      1063      1068      1069
      1063      1068      1070      1063      1068      1071      1064      1063      1067
      1064      1063      1068      1065      1075      1071      1065      1075      1076
      1065      1075      1077      1065      1079      1080      1065      1079      1081
      1065      1079      1082      1066      1065      1067      1066      1065      1075
      1066      1065      1079      1067      1063      1068      1067      1065      1075
      1067      1065      1079      1068      1070      1083      1068      1071      1072
      1068      1071      1073      1068      1071      1075      1069      1068      1070
      1069      1068      1071      1070      1068      1071      1070      1083      1084
      1070      1083      1087      1070      1083      1088      1071      1073      1074
      1071      1075      1076      1071      1075      1077      1072      1071      1073
      1072      1071      1075      1073      1071      1075      1075      1065      1079
      1075      1077      1078      1076      1075      1077      1080      1079      1081
      1080      1079      1082      1081      1079      1082      1083      1087      1085
      1083      1088      1089      1083      1088      1090      1083      1088      1098
      1084      1083      1087      1084      1083      1088      1085      1102      1098
      1085      1102      1103      1085      1102      1104      1085      1106      1107
      1085      1106      1108      1085      1106      1109      1086      1085      1087
      1086      1085      1102      1086      1085      1106      1087      1083      1088
      1087      1085      1102      1087      1085      1106      1088      1090      1091
      1088      1090      1092      1088      1098      1099      1088      1098      1100
      1088      1098      1102      1089      1088      1090      1089      1088      1098
      1090      1088      1098      1090      1092      1093      1090      1092      1094
      1091      1090      1092      1092      1094      1095      1092      1094      1096
      1092      1094      1097      1093      1092      1094      1095      1094      1096
      1095      1094      1097      1096      1094      1097      1098      1100      1101
      1098      1102      1103      1098      1102      1104      1099      1098      1100
      1099      1098      1102      1100      1098      1102      1102      1085      1106
      1102      1104      1105      1103      1102      1104      1106      1109      1110
      1107      1106      1108      1107      1106      1109      1108      1106      1109
      1111      1113      1112      1111      1113      1114      1111      1113      1115
      1112      1113      1114      1112      1113      1115      1112      1410      1407
      1112      1410      1413      1112      1410      1414      1113      1112      1410
      1113      1115      1116      1113      1115      1117      1113      1115      1124
      1114      1113      1115      1115      1116      1118      1115      1124      1125
      1115      1124      1126      1115      1124      1131      1116      1115      1117
      1116      1115      1124      1116      1118      1119      1116      1118      1120
      1116      1118      1139      1117      1115      1124      1118      1120      1121
      1118      1139      1131      1118      1139      1140      1118      1139      1141
      1119      1118      1120      1119      1118      1139      1120      1118      1139
      1120      1121      1122      1120      1121      1123      1120      1121      1147
      1121      1147      1143      1121      1147      1148      1121      1147      1149
      1122      1121      1123      1122      1121      1147      1123      1121      1147
      1124      1126      1127      1124      1131      1132      1124      1131      1133
      1124      1131      1139      1125      1124      1126      1125      1124      1131
      1126      1124      1131      1126      1127      1128      1126      1127      1129
      1126      1127      1130      1128      1127      1129      1128      1127      1130
      1129      1127      1130      1131      1132      1134      1131      1139      1140
      1131      1139      1141      1132      1131      1133      1132      1131      1139
      1132      1134      1135      1132      1134      1136      1133      1131      1139
      1134      1136      1137      1134      1136      1138      1134      1136      1169
      1135      1134      1136      1136      1169      1170      1136      1169      1171
      1136      1169      1214      1137      1136      1138      1137      1136      1169
      1138      1136      1169      1139      1141      1142      1139      1141      1248
      1140      1139      1141      1141      1248      1249      1141      1248      1250
      1142      1141      1248      1143      1145      1146      1143      1147      1148
      1143      1147      1149      1143      1157      1158      1143      1157      1159
      1143      1157      1165      1144      1143      1145      1144      1143      1147
      1144      1143      1157      1145      1143      1147      1145      1143      1157
      1147      1143      1157      1147      1149      1150      1148      1147      1149
      1149      1150      1151      1149      1150      1152      1149      1150      1165
      1150      1152      1156      1150      1165      1157      1150      1165      1166
      1150      1165      1167      1151      1150      1152      1151      1150      1165
      1152      1150      1165      1152      1156      1153      1152      1156      1154
      1152      1156      1155      1153      1156      1154      1153      1156      1155
      1154      1156      1155      1157      1159      1160      1157      1165      1166
      1157      1165      1167      1158      1157      1159      1158      1157      1165
      1159      1157      1165      1159      1160      1161      1159      1160      1162
      1160      1162      1163      1160      1162      1164      1160      1162      1326
      1161      1160      1162      1162      1326      1327      1162      1326      1328
      1162      1326      1330      1163      1162      1164      1163      1162      1326
      1164      1162      1326      1165      1167      1168      1165      1167      1364
      1166      1165      1167      1167      1364      1365      1167      1364      1366
      1168      1167      1364      1169      1171      1172      1169      1214      1215
      1169      1214      1216      1169      1214      1217      1170      1169      1171
      1170      1169      1214      1171      1169      1214      1171      1172      1173
      1171      1172      1174      1172      1174      1175      1172      1174      1176
      1172      1174      1177      1173      1172      1174      1174      1177      1178
      1174      1177      1179      1174      1177      1180      1175      1174      1176
      1175      1174      1177      1176      1174      1177      1177      1180      1181
      1177      1180      1182      1177      1180      1183      1178      1177      1179
      1178      1177      1180      1179      1177      1180      1180      1183      1184
      1180      1183      1185      1180      1183      1186      1181      1180      1182
      1181      1180      1183      1182      1180      1183      1183      1186      1187
      1183      1186      1188      1183      1186      1189      1184      1183      1185
      1184      1183      1186      1185      1183      1186      1186      1189      1190
      1186      1189      1191      1186      1189      1192      1187      1186      1188
      1187      1186      1189      1188      1186      1189      1189      1192      1193
      1189      1192      1194      1189      1192      1195      1190      1189      1191
      1190      1189      1192      1191      1189      1192      1192      1195      1196
      1192      1195      1197      1192      1195      1198      1193      1192      1194
      1193      1192      1195      1194      1192      1195      1195      1198      1199
      1195      1198      1200      1195      1198      1201      1196      1195      1197
      1196      1195      1198      1197      1195      1198      1198      1201      1202
      1198      1201      1203      1198      1201      1204      1199      1198      1200
      1199      1198      1201      1200      1198      1201      1201      1204      1205
      1201      1204      1206      1201      1204      1207      1202      1201      1203
      1202      1201      1204      1203      1201      1204      1204      1207      1208
      1204      1207      1209      1204      1207      1210      1205      1204      1206
      1205      1204      1207      1206      1204      1207      1207      1210      1211
      1207      1210      1212      1207      1210      1213      1208      1207      1209
      1208      1207      1210      1209      1207      1210      1211      1210      1212
      1211      1210      1213      1212      1210      1213      1214      1217      1218
      1214      1217      1219      1214      1217      1220      1215      1214      1216
      1215      1214      1217      1216      1214      1217      1217      1220      1221
      1217      1220      1222      1217      1220      1223      1218      1217      1219
      1218      1217      1220      1219      1217      1220      1220      1223      1224
      1220      1223      1225      1220      1223      1226      1221      1220      1222
      1221      1220      1223      1222      1220      1223      1223      1226      1227
      1223      1226      1228      1223      1226      1229      1224      1223      1225
      1224      1223      1226      1225      1223      1226      1226      1229      1230
      1226      1229      1231      1226      1229      1232      1227      1226      1228
      1227      1226      1229      1228      1226      1229      1229      1232      1233
      1229      1232      1234      1229      1232      1235      1230      1229      1231
      1230      1229      1232      1231      1229      1232      1232      1235      1236
      1232      1235      1237      1232      1235      1238      1233      1232      1234
      1233      1232      1235      1234      1232      1235      1235      1238      1239
      1235      1238      1240      1235      1238      1241      1236      1235      1237
      1236      1235      1238      1237      1235      1238      1238      1241      1242
      1238      1241      1243      1238      1241      1244      1239      1238      1240
      1239      1238      1241      1240      1238      1241      1241      1244      1245
      1241      1244      1246      1241      1244      1247      1242      1241      1243
      1242      1241      1244      1243      1241      1244      1245      1244      1246
      1245      1244      1247      1246      1244      1247      1248      1250      1251
      1248      1250      1252      1248      1250      1253      1249      1248      1250
      1250      1253      1254      1250      1253      1255      1250      1253      1292
      1251      1250      1252      1251      1250      1253      1252      1250      1253
      1253      1255      1256      1253      1292      1293      1253      1292      1294
      1253      1292      1295      1254      1253      1255      1254      1253      1292
      1255      1253      1292      1255      1256      1257      1255      1256      1258
      1256      1258      1259      1256      1258      1260      1256      1258      1261
      1257      1256      1258      1258      1261      1262      1258      1261      1263
      1258      1261      1264      1259      1258      1260      1259      1258      1261
      1260      1258      1261      1261      1264      1265      1261      1264      1266
      1261      1264      1267      1262      1261      1263      1262      1261      1264
      1263      1261      1264      1264      1267      1268      1264      1267      1269
      1264      1267      1270      1265      1264      1266      1265      1264      1267
      1266      1264      1267      1267      1270      1271      1267      1270      1272
      1267      1270      1273      1268      1267      1269      1268      1267      1270
      1269      1267      1270      1270      1273      1274      1270      1273      1275
      1270      1273      1276      1271      1270      1272      1271      1270      1273
      1272      1270      1273      1273      1276      1277      1273      1276      1278
      1273      1276      1279      1274      1273      1275      1274      1273      1276
      1275      1273      1276      1276      1279      1280      1276      1279      1281
      1276      1279      1282      1277      1276      1278      1277      1276      1279
      1278      1276      1279      1279      1282      1283      1279      1282      1284
      1279      1282      1285      1280      1279      1281      1280      1279      1282
      1281      1279      1282      1282      1285      1286      1282      1285      1287
      1282      1285      1288      1283      1282      1284      1283      1282      1285
      1284      1282      1285      1285      1288      1289      1285      1288      1290
      1285      1288      1291      1286      1285      1287      1286      1285      1288
      1287      1285      1288      1289      1288      1290      1289      1288      1291
      1290      1288      1291      1292      1295      1296      1292      1295      1297
      1292      1295      1298      1293      1292      1294      1293      1292      1295
      1294      1292      1295      1295      1298      1299      1295      1298      1300
      1295      1298      1301      1296      1295      1297      1296      1295      1298
      1297      1295      1298      1298      1301      1302      1298      1301      1303
      1298      1301      1304      1299      1298      1300      1299      1298      1301
      1300      1298      1301      1301      1304      1305      1301      1304      1306
      1301      1304      1307      1302      1301      1303      1302      1301      1304
      1303      1301      1304      1304      1307      1308      1304      1307      1309
      1304      1307      1310      1305      1304      1306      1305      1304      1307
      1306      1304      1307      1307      1310      1311      1307      1310      1312
      1307      1310      1313      1308      1307      1309      1308      1307      1310
      1309      1307      1310      1310      1313      1314      1310      1313      1315
      1310      1313      1316      1311      1310      1312      1311      1310      1313
      1312      1310      1313      1313      1316      1317      1313      1316      1318
      1313      1316      1319      1314      1313      1315      1314      1313      1316
      1315      1313      1316      1316      1319      1320      1316      1319      1321
      1316      1319      1322      1317      1316      1318      1317      1316      1319
      1318      1316      1319      1319      1322      1323      1319      1322      1324
      1319      1322      1325      1320      1319      1321      1320      1319      1322
      1321      1319      1322      1323      1322      1324      1323      1322      1325
      1324      1322      1325      1326      1328      1329      1326      1330      1331
      1326      1330      1332      1326      1330      1333      1327      1326      1328
      1327      1326      1330      1328      1326      1330      1330      1333      1334
      1330      1333      1335      1330      1333      1336      1331      1330      1332
      1331      1330      1333      1332      1330      1333      1333      1336      1337
      1333      1336      1338      1333      1336      1339      1334      1333      1335
      1334      1333      1336      1335      1333      1336      1336      1339      1340
      1336      1339      1341      1336      1339      1342      1337      1336      1338
      1337      1336      1339      1338      1336      1339      1339      1342      1343
      1339      1342      1344      1339      1342      1345      1340      1339      1341
      1340      1339      1342      1341      1339      1342      1342      1345      1346
      1342      1345      1347      1342      1345      1348      1343      1342      1344
      1343      1342      1345      1344      1342      1345      1345      1348      1349
      1345      1348      1350      1345      1348      1351      1346      1345      1347
      1346      1345      1348      1347      1345      1348      1348      1351      1352
      1348      1351      1353      1348      1351      1354      1349      1348      1350
      1349      1348      1351      1350      1348      1351      1351      1354      1355
      1351      1354      1356      1351      1354      1357      1352      1351      1353
      1352      1351      1354      1353      1351      1354      1354      1357      1358
      1354      1357      1359      1354      1357      1360      1355      1354      1356
      1355      1354      1357      1356      1354      1357      1357      1360      1361
      1357      1360      1362      1357      1360      1363      1358      1357      1359
      1358      1357      1360      1359      1357      1360      1361      1360      1362
      1361      1360      1363      1362      1360      1363      1364      1366      1367
      1364      1366      1368      1364      1366      1369      1365      1364      1366
      1366      1369      1370      1366      1369      1371      1366      1369      1373
      1367      1366      1368      1367      1366      1369      1368      1366      1369
      1369      1371      1372      1369      1373      1374      1369      1373      1375
      1369      1373      1376      1370      1369      1371      1370      1369      1373
      1371      1369      1373      1373      1376      1377      1373      1376      1378
      1373      1376      1379      1374      1373      1375      1374      1373      1376
      1375      1373      1376      1376      1379      1380      1376      1379      1381
      1376      1379      1382      1377      1376      1378      1377      1376      1379
      1378      1376      1379      1379      1382      1383      1379      1382      1384
      1379      1382      1385      1380      1379      1381      1380      1379      1382
      1381      1379      1382      1382      1385      1386      1382      1385      1387
      1382      1385      1388      1383      1382      1384      1383      1382      1385
      1384      1382      1385      1385      1388      1389      1385      1388      1390
      1385      1388      1391      1386      1385      1387      1386      1385      1388
      1387      1385      1388      1388      1391      1392      1388      1391      1393
      1388      1391      1394      1389      1388      1390      1389      1388      1391
      1390      1388      1391      1391      1394      1395      1391      1394      1396
      1391      1394      1397      1392      1391      1393      1392      1391      1394
      1393      1391      1394      1394      1397      1398      1394      1397      1399
      1394      1397      1400      1395      1394      1396      1395      1394      1397
      1396      1394      1397      1397      1400      1401      1397      1400      1402
      1397      1400      1403      1398      1397      1399      1398      1397      1400
      1399      1397      1400      1400      1403      1404      1400      1403      1405
      1400      1403      1406      1401      1400      1402      1401      1400      1403
      1402      1400      1403      1404      1403      1405      1404      1403      1406
      1405      1403      1406      1407      1410      1413      1407      1410      1414
      1408      1407      1409      1408      1407      1410      1409      1407      1410
      1410      1413      1411      1410      1414      1415      1410      1414      1416
      1410      1414      1417      1411      1420      1417      1411      1420      1421
      1411      1420      1422      1411      1423      1424      1411      1423      1425
      1411      1423      1427      1412      1411      1413      1412      1411      1420
      1412      1411      1423      1413      1410      1414      1413      1411      1420
      1413      1411      1423      1414      1417      1418      1414      1417      1419
      1414      1417      1420      1415      1414      1416      1415      1414      1417
      1416      1414      1417      1417      1419      1435      1417      1420      1421
      1417      1420      1422      1418      1417      1419      1418      1417      1420
      1419      1417      1420      1419      1435      1432      1419      1435      1438
      1419      1435      1439      1420      1411      1423      1420      1422      1459
      1421      1420      1422      1422      1459      1460      1422      1459      1463
      1422      1459      1464      1423      1425      1426      1423      1427      1428
      1423      1427      1429      1423      1427      1430      1424      1423      1425
      1424      1423      1427      1425      1423      1427      1427      1430      1431
      1428      1427      1429      1428      1427      1430      1429      1427      1430
      1432      1435      1438      1432      1435      1439      1433      1432      1434
      1433      1432      1435      1434      1432      1435      1435      1438      1436
      1435      1439      1440      1435      1439      1441      1435      1439      1442
      1436      1446      1442      1436      1446      1447      1436      1446      1448
      1436      1450      1451      1436      1450      1452      1436      1450      1454
      1437      1436      1438      1437      1436      1446      1437      1436      1450
      1438      1435      1439      1438      1436      1446      1438      1436      1450
      1439      1442      1443      1439      1442      1444      1439      1442      1446
      1440      1439      1441      1440      1439      1442      1441      1439      1442
      1442      1444      1445      1442      1446      1447      1442      1446      1448
      1443      1442      1444      1443      1442      1446      1444      1442      1446
      1446      1436      1450      1446      1448      1449      1447      1446      1448
      1450      1452      1453      1450      1454      1455      1450      1454      1456
      1450      1454      1457      1451      1450      1452      1451      1450      1454
      1452      1450      1454      1454      1457      1458      1455      1454      1456
      1455      1454      1457      1456      1454      1457      1459      1463      1461
      1459      1464      1465      1459      1464      1466      1459      1464      1468
      1460      1459      1463      1460      1459      1464      1461      1471      1468
      1461      1471      1472      1461      1471      1473      1461      1478      1479
      1461      1478      1480      1461      1478      1482      1462      1461      1463
      1462      1461      1471      1462      1461      1478      1463      1459      1464
      1463      1461      1471      1463      1461      1478      1464      1466      1467
      1464      1468      1469      1464      1468      1470      1464      1468      1471
      1465      1464      1466      1465      1464      1468      1466      1464      1468
      1468      1470      1487      1468      1471      1472      1468      1471      1473
      1469      1468      1470      1469      1468      1471      1470      1468      1471
      1470      1487      1488      1470      1487      1491      1470      1487      1492
      1471      1461      1478      1471      1473      1474      1472      1471      1473
      1473      1474      1475      1473      1474      1476      1473      1474      1477
      1475      1474      1476      1475      1474      1477      1476      1474      1477
      1478      1480      1481      1478      1482      1483      1478      1482      1484
      1478      1482      1485      1479      1478      1480      1479      1478      1482
      1480      1478      1482      1482      1485      1486      1483      1482      1484
      1483      1482      1485      1484      1482      1485      1487      1491      1489
      1487      1492      1493      1487      1492      1494      1487      1492      1496
      1488      1487      1491      1488      1487      1492      1489      1499      1496
      1489      1499      1500      1489      1499      1501      1489      1506      1507
      1489      1506      1508      1489      1506      1510      1490      1489      1491
      1490      1489      1499      1490      1489      1506      1491      1487      1492
      1491      1489      1499      1491      1489      1506      1492      1494      1495
      1492      1496      1497      1492      1496      1498      1492      1496      1499
      1493      1492      1494      1493      1492      1496      1494      1492      1496
      1496      1498      1540      1496      1499      1500      1496      1499      1501
      1497      1496      1498      1497      1496      1499      1498      1496      1499
      1498      1540      1541      1498      1540      1544      1498      1540      1545
      1499      1489      1506      1499      1501      1502      1500      1499      1501
      1501      1502      1503      1501      1502      1504      1501      1502      1505
      1503      1502      1504      1503      1502      1505      1504      1502      1505
      1506      1508      1509      1506      1510      1511      1506      1510      1512
      1506      1510      1513      1507      1506      1508      1507      1506      1510
      1508      1506      1510      1510      1513      1514      1511      1510      1512
      1511      1510      1513      1512      1510      1513      1513      1514      1515
      1513      1514      1518      1513      1514      1519      1514      1518      1516
      1514      1519      1520      1514      1519      1521      1514      1519      1523
      1515      1514      1518      1515      1514      1519      1516      1527      1523
      1516      1527      1528      1516      1527      1529      1516      1531      1532
      1516      1531      1533      1516      1531      1535      1517      1516      1518
      1517      1516      1527      1517      1516      1531      1518      1514      1519
      1518      1516      1527      1518      1516      1531      1519      1521      1522
      1519      1523      1524      1519      1523      1525      1519      1523      1527
      1520      1519      1521      1520      1519      1523      1521      1519      1523
      1523      1525      1526      1523      1527      1528      1523      1527      1529
      1524      1523      1525      1524      1523      1527      1525      1523      1527
      1527      1516      1531      1527      1529      1530      1528      1527      1529
      1531      1533      1534      1531      1535      1536      1531      1535      1537
      1531      1535      1538      1532      1531      1533      1532      1531      1535
      1533      1531      1535      1535      1538      1539      1536      1535      1537
      1536      1535      1538      1537      1535      1538      1540      1544      1542
      1540      1545      1546      1540      1545      1547      1540      1545      1549
      1541      1540      1544      1541      1540      1545      1542      1552      1549
      1542      1552      1553      1542      1552      1554      1542      1556      1557
      1542      1556      1558      1542      1556      1559      1543      1542      1544
      1543      1542      1552      1543      1542      1556      1544      1540      1545
      1544      1542      1552      1544      1542      1556      1545      1547      1548
      1545      1549      1550      1545      1549      1551      1545      1549      1552
      1546      1545      1547      1546      1545      1549      1547      1545      1549
      1549      1551      1561      1549      1552      1553      1549      1552      1554
      1550      1549      1551      1550      1549      1552      1551      1549      1552
      1551      1561      1562      1551      1561      1565      1551      1561      1566
      1552      1542      1556      1552      1554      1555      1553      1552      1554
      1556      1559      1560      1557      1556      1558      1557      1556      1559
      1558      1556      1559      1561      1565      1563      1561      1566      1567
      1561      1566      1568      1561      1566      1569      1562      1561      1565
      1562      1561      1566      1563      1572      1569      1563      1572      1573
      1563      1572      1574      1563      1576      1577      1563      1576      1578
      1563      1576      1579      1564      1563      1565      1564      1563      1572
      1564      1563      1576      1565      1561      1566      1565      1563      1572
      1565      1563      1576      1566      1568      1581      1566      1569      1570
      1566      1569      1571      1566      1569      1572      1567      1566      1568
      1567      1566      1569      1568      1566      1569      1568      1581      1582
      1568      1581      1585      1568      1581      1586      1569      1571      1624
      1569      1572      1573      1569      1572      1574      1570      1569      1571
      1570      1569      1572      1571      1569      1572      1571      1624      1625
      1571      1624      1628      1571      1624      1629      1572      1563      1576
      1572      1574      1575      1573      1572      1574      1576      1579      1580
      1577      1576      1578      1577      1576      1579      1578      1576      1579
      1581      1585      1583      1581      1586      1587      1581      1586      1588
      1581      1586      1589      1582      1581      1585      1582      1581      1586
      1583      1593      1589      1583      1593      1594      1583      1593      1595
      1583      1597      1598      1583      1597      1599      1583      1597      1600
      1584      1583      1585      1584      1583      1593      1584      1583      1597
      1585      1581      1586      1585      1583      1593      1585      1583      1597
      1586      1588      1602      1586      1589      1590      1586      1589      1591
      1586      1589      1593      1587      1586      1588      1587      1586      1589
      1588      1586      1589      1588      1602      1603      1588      1602      1606
      1588      1602      1607      1589      1591      1592      1589      1593      1594
      1589      1593      1595      1590      1589      1591      1590      1589      1593
      1591      1589      1593      1593      1583      1597      1593      1595      1596
      1594      1593      1595      1597      1600      1601      1598      1597      1599
      1598      1597      1600      1599      1597      1600      1602      1606      1604
      1602      1607      1608      1602      1607      1609      1602      1607      1611
      1603      1602      1606      1603      1602      1607      1604      1615      1611
      1604      1615      1616      1604      1615      1617      1604      1619      1620
      1604      1619      1621      1604      1619      1622      1605      1604      1606
      1605      1604      1615      1605      1604      1619      1606      1602      1607
      1606      1604      1615      1606      1604      1619      1607      1609      1610
      1607      1611      1612      1607      1611      1613      1607      1611      1615
      1608      1607      1609      1608      1607      1611      1609      1607      1611
      1611      1613      1614      1611      1615      1616      1611      1615      1617
      1612      1611      1613      1612      1611      1615      1613      1611      1615
      1615      1604      1619      1615      1617      1618      1616      1615      1617
      1619      1622      1623      1620      1619      1621      1620      1619      1622
      1621      1619      1622      1624      1628      1626      1624      1629      1630
      1624      1629      1631      1624      1629      1633      1625      1624      1628
      1625      1624      1629      1626      1636      1633      1626      1636      1637
      1626      1636      1638      1626      1640      1641      1626      1640      1642
      1626      1640      1643      1627      1626      1628      1627      1626      1636
      1627      1626      1640      1628      1624      1629      1628      1626      1636
      1628      1626      1640      1629      1631      1632      1629      1633      1634
      1629      1633      1635      1629      1633      1636      1630      1629      1631
      1630      1629      1633      1631      1629      1633      1633      1635      1645
      1633      1636      1637      1633      1636      1638      1634      1633      1635
      1634      1633      1636      1635      1633      1636      1635      1645      1646
      1635      1645      1649      1635      1645      1650      1636      1626      1640
      1636      1638      1639      1637      1636      1638      1640      1643      1644
      1641      1640      1642      1641      1640      1643      1642      1640      1643
      1645      1649      1647      1645      1650      1651      1645      1650      1652
      1645      1650      1660      1646      1645      1649      1646      1645      1650
      1647      1663      1660      1647      1663      1664      1647      1663      1665
      1647      1667      1668      1647      1667      1669      1647      1667      1670
      1648      1647      1649      1648      1647      1663      1648      1647      1667
      1649      1645      1650      1649      1647      1663      1649      1647      1667
      1650      1652      1653      1650      1652      1654      1650      1660      1661
      1650      1660      1662      1650      1660      1663      1651      1650      1652
      1651      1650      1660      1652      1650      1660      1652      1654      1655
      1652      1654      1656      1653      1652      1654      1654      1656      1657
      1654      1656      1658      1654      1656      1659      1655      1654      1656
      1657      1656      1658      1657      1656      1659      1658      1656      1659
      1660      1662      1672      1660      1663      1664      1660      1663      1665
      1661      1660      1662      1661      1660      1663      1662      1660      1663
      1662      1672      1673      1662      1672      1676      1662      1672      1677
      1663      1647      1667      1663      1665      1666      1664      1663      1665
      1667      1670      1671      1668      1667      1669      1668      1667      1670
      1669      1667      1670      1672      1676      1674      1672      1677      1678
      1672      1677      1679      1672      1677      1680      1673      1672      1676
      1673      1672      1677      1674      1684      1680      1674      1684      1685
      1674      1684      1686      1674      1688      1689      1674      1688      1690
      1674      1688      1691      1675      1674      1676      1675      1674      1684
      1675      1674      1688      1676      1672      1677      1676      1674      1684
      1676      1674      1688      1677      1679      1693      1677      1680      1681
      1677      1680      1682      1677      1680      1684      1678      1677      1679
      1678      1677      1680      1679      1677      1680      1679      1693      1694
      1679      1693      1697      1679      1693      1698      1680      1682      1683
      1680      1684      1685      1680      1684      1686      1681      1680      1682
      1681      1680      1684      1682      1680      1684      1684      1674      1688
      1684      1686      1687      1685      1684      1686      1688      1691      1692
      1689      1688      1690      1689      1688      1691      1690      1688      1691
      1693      1697      1695      1693      1698      1699      1693      1698      1700
      1693      1698      1701      1694      1693      1697      1694      1693      1698
      1695      1705      1701      1695      1705      1706      1695      1705      1707
      1695      1709      1710      1695      1709      1711      1695      1709      1712
      1696      1695      1697      1696      1695      1705      1696      1695      1709
      1697      1693      1698      1697      1695      1705      1697      1695      1709
      1698      1700      1713      1698      1701      1702      1698      1701      1703
      1698      1701      1705      1699      1698      1700      1699      1698      1701
      1700      1698      1701      1700      1713      1714      1700      1713      1717
      1700      1713      1718      1701      1703      1704      1701      1705      1706
      1701      1705      1707      1702      1701      1703      1702      1701      1705
      1703      1701      1705      1705      1695      1709      1705      1707      1708
      1706      1705      1707      1710      1709      1711      1710      1709      1712
      1711      1709      1712      1713      1717      1715      1713      1718      1719
      1713      1718      1720      1713      1718      1721      1714      1713      1717
      1714      1713      1718      1715      1724      1721      1715      1724      1725
      1715      1724      1726      1715      1728      1729      1715      1728      1730
      1715      1728      1731      1716      1715      1717      1716      1715      1724
      1716      1715      1728      1717      1713      1718      1717      1715      1724
      1717      1715      1728      1718      1720      1732      1718      1721      1722
      1718      1721      1723      1718      1721      1724      1719      1718      1720
      1719      1718      1721      1720      1718      1721      1720      1732      1733
      1720      1732      1736      1720      1732      1737      1721      1723      1760
      1721      1724      1725      1721      1724      1726      1722      1721      1723
      1722      1721      1724      1723      1721      1724      1723      1760      1761
      1723      1760      1764      1723      1760      1765      1724      1715      1728
      1724      1726      1727      1725      1724      1726      1729      1728      1730
      1729      1728      1731      1730      1728      1731      1732      1736      1734
      1732      1737      1738      1732      1737      1739      1732      1737      1747
      1733      1732      1736      1733      1732      1737      1734      1751      1747
      1734      1751      1752      1734      1751      1753      1734      1755      1756
      1734      1755      1757      1734      1755      1758      1735      1734      1736
      1735      1734      1751      1735      1734      1755      1736      1732      1737
      1736      1734      1751      1736      1734      1755      1737      1739      1740
      1737      1739      1741      1737      1747      1748      1737      1747      1749
      1737      1747      1751      1738      1737      1739      1738      1737      1747
      1739      1737      1747      1739      1741      1742      1739      1741      1743
      1740      1739      1741      1741      1743      1744      1741      1743      1745
      1741      1743      1746      1742      1741      1743      1744      1743      1745
      1744      1743      1746      1745      1743      1746      1747      1749      1750
      1747      1751      1752      1747      1751      1753      1748      1747      1749
      1748      1747      1751      1749      1747      1751      1751      1734      1755
      1751      1753      1754      1752      1751      1753      1755      1758      1759
      1756      1755      1757      1756      1755      1758      1757      1755      1758
      1760      1764      1762      1760      1765      1766      1760      1765      1767
      1760      1765      1775      1761      1760      1764      1761      1760      1765
      1762      1778      1775      1762      1778      1779      1762      1778      1780
      1762      1782      1783      1762      1782      1784      1762      1782      1785
      1763      1762      1764      1763      1762      1778      1763      1762      1782
      1764      1760      1765      1764      1762      1778      1764      1762      1782
      1765      1767      1768      1765      1767      1769      1765      1775      1776
      1765      1775      1777      1765      1775      1778      1766      1765      1767
      1766      1765      1775      1767      1765      1775      1767      1769      1770
      1767      1769      1771      1768      1767      1769      1769      1771      1772
      1769      1771      1773      1769      1771      1774      1770      1769      1771
      1772      1771      1773      1772      1771      1774      1773      1771      1774
      1775      1777      1787      1775      1778      1779      1775      1778      1780
      1776      1775      1777      1776      1775      1778      1777      1775      1778
      1777      1787      1788      1777      1787      1791      1777      1787      1792
      1778      1762      1782      1778      1780      1781      1779      1778      1780
      1782      1785      1786      1783      1782      1784      1783      1782      1785
      1784      1782      1785      1787      1791      1789      1787      1792      1793
      1787      1792      1794      1787      1792      1795      1788      1787      1791
      1788      1787      1792      1789      1799      1795      1789      1799      1800
      1789      1799      1801      1789      1803      1804      1789      1803      1805
      1789      1803      1806      1790      1789      1791      1790      1789      1799
      1790      1789      1803      1791      1787      1792      1791      1789      1799
      1791      1789      1803      1792      1794      1808      1792      1795      1796
      1792      1795      1797      1792      1795      1799      1793      1792      1794
      1793      1792      1795      1794      1792      1795      1794      1808      1809
      1794      1808      1812      1794      1808      1813      1795      1797      1798
      1795      1799      1800      1795      1799      1801      1796      1795      1797
      1796      1795      1799      1797      1795      1799      1799      1789      1803
      1799      1801      1802      1800      1799      1801      1803      1806      1807
      1804      1803      1805      1804      1803      1806      1805      1803      1806
      1808      1812      1810      1808      1813      1814      1808      1813      1815
      1808      1813      1816      1809      1808      1812      1809      1808      1813
      1810      1820      1816      1810      1820      1821      1810      1820      1822
      1810      1824      1825      1810      1824      1826      1810      1824      1827
      1811      1810      1812      1811      1810      1820      1811      1810      1824
      1812      1808      1813      1812      1810      1820      1812      1810      1824
      1813      1815      1828      1813      1816      1817      1813      1816      1818
      1813      1816      1820      1814      1813      1815      1814      1813      1816
      1815      1813      1816      1815      1828      1829      1815      1828      1832
      1815      1828      1833      1816      1818      1819      1816      1820      1821
      1816      1820      1822      1817      1816      1818      1817      1816      1820
      1818      1816      1820      1820      1810      1824      1820      1822      1823
      1821      1820      1822      1825      1824      1826      1825      1824      1827
      1826      1824      1827      1828      1832      1830      1828      1833      1834
      1828      1833      1835      1828      1833      1836      1829      1828      1832
      1829      1828      1833      1830      1839      1836      1830      1839      1840
      1830      1839      1841      1830      1843      1844      1830      1843      1845
      1830      1843      1846      1831      1830      1832      1831      1830      1839
      1831      1830      1843      1832      1828      1833      1832      1830      1839
      1832      1830      1843      1833      1835      1847      1833      1836      1837
      1833      1836      1838      1833      1836      1839      1834      1833      1835
      1834      1833      1836      1835      1833      1836      1835      1847      1848
      1835      1847      1851      1835      1847      1852      1836      1838      1875
      1836      1839      1840      1836      1839      1841      1837      1836      1838
      1837      1836      1839      1838      1836      1839      1838      1875      1876
      1838      1875      1879      1838      1875      1880      1839      1830      1843
      1839      1841      1842      1840      1839      1841      1844      1843      1845
      1844      1843      1846      1845      1843      1846      1847      1851      1849
      1847      1852      1853      1847      1852      1854      1847      1852      1862
      1848      1847      1851      1848      1847      1852      1849      1866      1862
      1849      1866      1867      1849      1866      1868      1849      1870      1871
      1849      1870      1872      1849      1870      1873      1850      1849      1851
      1850      1849      1866      1850      1849      1870      1851      1847      1852
      1851      1849      1866      1851      1849      1870      1852      1854      1855
      1852      1854      1856      1852      1862      1863      1852      1862      1864
      1852      1862      1866      1853      1852      1854      1853      1852      1862
      1854      1852      1862      1854      1856      1857      1854      1856      1858
      1855      1854      1856      1856      1858      1859      1856      1858      1860
      1856      1858      1861      1857      1856      1858      1859      1858      1860
      1859      1858      1861      1860      1858      1861      1862      1864      1865
      1862      1866      1867      1862      1866      1868      1863      1862      1864
      1863      1862      1866      1864      1862      1866      1866      1849      1870
      1866      1868      1869      1867      1866      1868      1870      1873      1874
      1871      1870      1872      1871      1870      1873      1872      1870      1873
      1875      1879      1877      1875      1880      1881      1875      1880      1882
      1875      1880      1890      1876      1875      1879      1876      1875      1880
      1877      1893      1890      1877      1893      1894      1877      1893      1895
      1877      1897      1898      1877      1897      1899      1877      1897      1900
      1878      1877      1879      1878      1877      1893      1878      1877      1897
      1879      1875      1880      1879      1877      1893      1879      1877      1897
      1880      1882      1883      1880      1882      1884      1880      1890      1891
      1880      1890      1892      1880      1890      1893      1881      1880      1882
      1881      1880      1890      1882      1880      1890      1882      1884      1885
      1882      1884      1886      1883      1882      1884      1884      1886      1887
      1884      1886      1888      1884      1886      1889      1885      1884      1886
      1887      1886      1888      1887      1886      1889      1888      1886      1889
      1890      1892      1902      1890      1893      1894      1890      1893      1895
      1891      1890      1892      1891      1890      1893      1892      1890      1893
      1892      1902      1903      1892      1902      1906      1892      1902      1907
      1893      1877      1897      1893      1895      1896      1894      1893      1895
      1897      1900      1901      1898      1897      1899      1898      1897      1900
      1899      1897      1900      1902      1906      1904      1902      1907      1908
      1902      1907      1909      1902      1907      1910      1903      1902      1906
      1903      1902      1907      1904      1914      1910      1904      1914      1915
      1904      1914      1916      1904      1918      1919      1904      1918      1920
      1904      1918      1921      1905      1904      1906      1905      1904      1914
      1905      1904      1918      1906      1902      1907      1906      1904      1914
      1906      1904      1918      1907      1909      1923      1907      1910      1911
      1907      1910      1912      1907      1910      1914      1908      1907      1909
      1908      1907      1910      1909      1907      1910      1909      1923      1924
      1909      1923      1927      1909      1923      1928      1910      1912      1913
      1910      1914      1915      1910      1914      1916      1911      1910      1912
      1911      1910      1914      1912      1910      1914      1914      1904      1918
      1914      1916      1917      1915      1914      1916      1918      1921      1922
      1919      1918      1920      1919      1918      1921      1920      1918      1921
      1923      1927      1925      1923      1928      1929      1923      1928      1930
      1923      1928      1931      1924      1923      1927      1924      1923      1928
      1925      1935      1931      1925      1935      1936      1925      1935      1937
      1925      1939      1940      1925      1939      1941      1925      1939      1942
      1926      1925      1927      1926      1925      1935      1926      1925      1939
      1927      1923      1928      1927      1925      1935      1927      1925      1939
      1928      1930      1943      1928      1931      1932      1928      1931      1933
      1928      1931      1935      1929      1928      1930      1929      1928      1931
      1930      1928      1931      1930      1943      1944      1930      1943      1947
      1930      1943      1948      1931      1933      1934      1931      1935      1936
      1931      1935      1937      1932      1931      1933      1932      1931      1935
      1933      1931      1935      1935      1925      1939      1935      1937      1938
      1936      1935      1937      1940      1939      1941      1940      1939      1942
      1941      1939      1942      1943      1947      1945      1943      1948      1949
      1943      1948      1950      1943      1948      1951      1944      1943      1947
      1944      1943      1948      1945      1954      1951      1945      1954      1955
      1945      1954      1956      1945      1958      1959      1945      1958      1960
      1945      1958      1961      1946      1945      1947      1946      1945      1954
      1946      1945      1958      1947      1943      1948      1947      1945      1954
      1947      1945      1958      1948      1950      1962      1948      1951      1952
      1948      1951      1953      1948      1951      1954      1949      1948      1950
      1949      1948      1951      1950      1948      1951      1950      1962      1963
      1950      1962      1966      1950      1962      1967      1951      1953      1990
      1951      1954      1955      1951      1954      1956      1952      1951      1953
      1952      1951      1954      1953      1951      1954      1953      1990      1991
      1953      1990      1994      1953      1990      1995      1954      1945      1958
      1954      1956      1957      1955      1954      1956      1959      1958      1960
      1959      1958      1961      1960      1958      1961      1962      1966      1964
      1962      1967      1968      1962      1967      1969      1962      1967      1977
      1963      1962      1966      1963      1962      1967      1964      1981      1977
      1964      1981      1982      1964      1981      1983      1964      1985      1986
      1964      1985      1987      1964      1985      1988      1965      1964      1966
      1965      1964      1981      1965      1964      1985      1966      1962      1967
      1966      1964      1981      1966      1964      1985      1967      1969      1970
      1967      1969      1971      1967      1977      1978      1967      1977      1979
      1967      1977      1981      1968      1967      1969      1968      1967      1977
      1969      1967      1977      1969      1971      1972      1969      1971      1973
      1970      1969      1971      1971      1973      1974      1971      1973      1975
      1971      1973      1976      1972      1971      1973      1974      1973      1975
      1974      1973      1976      1975      1973      1976      1977      1979      1980
      1977      1981      1982      1977      1981      1983      1978      1977      1979
      1978      1977      1981      1979      1977      1981      1981      1964      1985
      1981      1983      1984      1982      1981      1983      1985      1988      1989
      1986      1985      1987      1986      1985      1988      1987      1985      1988
      1990      1994      1992      1990      1995      1996      1990      1995      1997
      1990      1995      2005      1991      1990      1994      1991      1990      1995
      1992      2008      2005      1992      2008      2009      1992      2008      2010
      1992      2012      2013      1992      2012      2014      1992      2012      2015
      1993      1992      1994      1993      1992      2008      1993      1992      2012
      1994      1990      1995      1994      1992      2008      1994      1992      2012
      1995      1997      1998      1995      1997      1999      1995      2005      2006
      1995      2005      2007      1995      2005      2008      1996      1995      1997
      1996      1995      2005      1997      1995      2005      1997      1999      2000
      1997      1999      2001      1998      1997      1999      1999      2001      2002
      1999      2001      2003      1999      2001      2004      2000      1999      2001
      2002      2001      2003      2002      2001      2004      2003      2001      2004
      2005      2007      2017      2005      2008      2009      2005      2008      2010
      2006      2005      2007      2006      2005      2008      2007      2005      2008
      2007      2017      2018      2007      2017      2021      2007      2017      2022
      2008      1992      2012      2008      2010      2011      2009      2008      2010
      2012      2015      2016      2013      2012      2014      2013      2012      2015
      2014      2012      2015      2017      2021      2019      2017      2022      2023
      2017      2022      2024      2017      2022      2025      2018      2017      2021
      2018      2017      2022      2019      2029      2025      2019      2029      2030
      2019      2029      2031      2019      2033      2034      2019      2033      2035
      2019      2033      2036      2020      2019      2021      2020      2019      2029
      2020      2019      2033      2021      2017      2022      2021      2019      2029
      2021      2019      2033      2022      2024      2038      2022      2025      2026
      2022      2025      2027      2022      2025      2029      2023      2022      2024
      2023      2022      2025      2024      2022      2025      2024      2038      2039
      2024      2038      2042      2024      2038      2043      2025      2027      2028
      2025      2029      2030      2025      2029      2031      2026      2025      2027
      2026      2025      2029      2027      2025      2029      2029      2019      2033
      2029      2031      2032      2030      2029      2031      2033      2036      2037
      2034      2033      2035      2034      2033      2036      2035      2033      2036
      2038      2042      2040      2038      2043      2044      2038      2043      2045
      2038      2043      2046      2039      2038      2042      2039      2038      2043
      2040      2050      2046      2040      2050      2051      2040      2050      2052
      2040      2054      2055      2040      2054      2056      2040      2054      2057
      2041      2040      2042      2041      2040      2050      2041      2040      2054
      2042      2038      2043      2042      2040      2050      2042      2040      2054
      2043      2045      2058      2043      2046      2047      2043      2046      2048
      2043      2046      2050      2044      2043      2045      2044      2043      2046
      2045      2043      2046      2045      2058      2059      2045      2058      2062
      2045      2058      2063      2046      2048      2049      2046      2050      2051
      2046      2050      2052      2047      2046      2048      2047      2046      2050
      2048      2046      2050      2050      2040      2054      2050      2052      2053
      2051      2050      2052      2055      2054      2056      2055      2054      2057
      2056      2054      2057      2058      2062      2060      2058      2063      2064
      2058      2063      2065      2058      2063      2066      2059      2058      2062
      2059      2058      2063      2060      2069      2066      2060      2069      2070
      2060      2069      2071      2060      2073      2074      2060      2073      2075
      2060      2073      2076      2061      2060      2062      2061      2060      2069
      2061      2060      2073      2062      2058      2063      2062      2060      2069
      2062      2060      2073      2063      2065      2077      2063      2066      2067
      2063      2066      2068      2063      2066      2069      2064      2063      2065
      2064      2063      2066      2065      2063      2066      2065      2077      2078
      2065      2077      2081      2065      2077      2082      2066      2068      2105
      2066      2069      2070      2066      2069      2071      2067      2066      2068
      2067      2066      2069      2068      2066      2069      2068      2105      2106
      2068      2105      2109      2068      2105      2110      2069      2060      2073
      2069      2071      2072      2070      2069      2071      2074      2073      2075
      2074      2073      2076      2075      2073      2076      2077      2081      2079
      2077      2082      2083      2077      2082      2084      2077      2082      2092
      2078      2077      2081      2078      2077      2082      2079      2096      2092
      2079      2096      2097      2079      2096      2098      2079      2100      2101
      2079      2100      2102      2079      2100      2103      2080      2079      2081
      2080      2079      2096      2080      2079      2100      2081      2077      2082
      2081      2079      2096      2081      2079      2100      2082      2084      2085
      2082      2084      2086      2082      2092      2093      2082      2092      2094
      2082      2092      2096      2083      2082      2084      2083      2082      2092
      2084      2082      2092      2084      2086      2087      2084      2086      2088
      2085      2084      2086      2086      2088      2089      2086      2088      2090
      2086      2088      2091      2087      2086      2088      2089      2088      2090
      2089      2088      2091      2090      2088      2091      2092      2094      2095
      2092      2096      2097      2092      2096      2098      2093      2092      2094
      2093      2092      2096      2094      2092      2096      2096      2079      2100
      2096      2098      2099      2097      2096      2098      2100      2103      2104
      2101      2100      2102      2101      2100      2103      2102      2100      2103
      2105      2109      2107      2105      2110      2111      2105      2110      2112
      2105      2110      2120      2106      2105      2109      2106      2105      2110
      2107      2123      2120      2107      2123      2124      2107      2123      2125
      2107      2127      2128      2107      2127      2129      2107      2127      2130
      2108      2107      2109      2108      2107      2123      2108      2107      2127
      2109      2105      2110      2109      2107      2123      2109      2107      2127
      2110      2112      2113      2110      2112      2114      2110      2120      2121
      2110      2120      2122      2110      2120      2123      2111      2110      2112
      2111      2110      2120      2112      2110      2120      2112      2114      2115
      2112      2114      2116      2113      2112      2114      2114      2116      2117
      2114      2116      2118      2114      2116      2119      2115      2114      2116
      2117      2116      2118      2117      2116      2119      2118      2116      2119
      2120      2122      2132      2120      2123      2124      2120      2123      2125
      2121      2120      2122      2121      2120      2123      2122      2120      2123
      2122      2132      2133      2122      2132      2136      2122      2132      2137
      2123      2107      2127      2123      2125      2126      2124      2123      2125
      2127      2130      2131      2128      2127      2129      2128      2127      2130
      2129      2127      2130      2132      2136      2134      2132      2137      2138
      2132      2137      2139      2132      2137      2140      2133      2132      2136
      2133      2132      2137      2134      2144      2140      2134      2144      2145
      2134      2144      2146      2134      2148      2149      2134      2148      2150
      2134      2148      2151      2135      2134      2136      2135      2134      2144
      2135      2134      2148      2136      2132      2137      2136      2134      2144
      2136      2134      2148      2137      2139      2153      2137      2140      2141
      2137      2140      2142      2137      2140      2144      2138      2137      2139
      2138      2137      2140      2139      2137      2140      2139      2153      2154
      2139      2153      2157      2139      2153      2158      2140      2142      2143
      2140      2144      2145      2140      2144      2146      2141      2140      2142
      2141      2140      2144      2142      2140      2144      2144      2134      2148
      2144      2146      2147      2145      2144      2146      2148      2151      2152
      2149      2148      2150      2149      2148      2151      2150      2148      2151
      2153      2157      2155      2153      2158      2159      2153      2158      2160
      2153      2158      2161      2154      2153      2157      2154      2153      2158
      2155      2165      2161      2155      2165      2166      2155      2165      2167
      2155      2169      2170      2155      2169      2171      2155      2169      2172
      2156      2155      2157      2156      2155      2165      2156      2155      2169
      2157      2153      2158      2157      2155      2165      2157      2155      2169
      2158      2160      2173      2158      2161      2162      2158      2161      2163
      2158      2161      2165      2159      2158      2160      2159      2158      2161
      2160      2158      2161      2160      2173      2174      2160      2173      2177
      2160      2173      2178      2161      2163      2164      2161      2165      2166
      2161      2165      2167      2162      2161      2163      2162      2161      2165
      2163      2161      2165      2165      2155      2169      2165      2167      2168
      2166      2165      2167      2170      2169      2171      2170      2169      2172
      2171      2169      2172      2173      2177      2175      2173      2178      2179
      2173      2178      2180      2173      2178      2181      2174      2173      2177
      2174      2173      2178      2175      2185      2181      2175      2185      2186
      2175      2185      2187      2175      2189      2190      2175      2189      2191
      2175      2189      2192      2176      2175      2177      2176      2175      2185
      2176      2175      2189      2177      2173      2178      2177      2175      2185
      2177      2175      2189      2178      2180      2193      2178      2181      2182
      2178      2181      2183      2178      2181      2185      2179      2178      2180
      2179      2178      2181      2180      2178      2181      2180      2193      2194
      2180      2193      2197      2180      2193      2198      2181      2183      2184
      2181      2185      2186      2181      2185      2187      2182      2181      2183
      2182      2181      2185      2183      2181      2185      2185      2175      2189
      2185      2187      2188      2186      2185      2187      2190      2189      2191
      2190      2189      2192      2191      2189      2192      2193      2197      2195
      2193      2198      2199      2193      2198      2200      2193      2198      2208
      2194      2193      2197      2194      2193      2198      2195      2212      2208
      2195      2212      2213      2195      2212      2214      2195      2216      2217
      2195      2216      2218      2195      2216      2219      2196      2195      2197
      2196      2195      2212      2196      2195      2216      2197      2193      2198
      2197      2195      2212      2197      2195      2216      2198      2200      2201
      2198      2200      2202      2198      2208      2209      2198      2208      2210
      2198      2208      2212      2199      2198      2200      2199      2198      2208
      2200      2198      2208      2200      2202      2203      2200      2202      2204
      2201      2200      2202      2202      2204      2205      2202      2204      2206
      2202      2204      2207      2203      2202      2204      2205      2204      2206
      2205      2204      2207      2206      2204      2207      2208      2210      2211
      2208      2212      2213      2208      2212      2214      2209      2208      2210
      2209      2208      2212      2210      2208      2212      2212      2195      2216
      2212      2214      2215      2213      2212      2214      2216      2219      2220
      2217      2216      2218      2217      2216      2219      2218      2216      2219
      2221      2223      2222      2221      2223      2224      2221      2223      2225
      2222      2223      2224      2222      2223      2225      2222      2520      2517
      2222      2520      2523      2222      2520      2524      2223      2222      2520
      2223      2225      2226      2223      2225      2227      2223      2225      2234
      2224      2223      2225      2225      2226      2228      2225      2234      2235
      2225      2234      2236      2225      2234      2241      2226      2225      2227
      2226      2225      2234      2226      2228      2229      2226      2228      2230
      2226      2228      2249      2227      2225      2234      2228      2230      2231
      2228      2249      2241      2228      2249      2250      2228      2249      2251
      2229      2228      2230      2229      2228      2249      2230      2228      2249
      2230      2231      2232      2230      2231      2233      2230      2231      2257
      2231      2257      2253      2231      2257      2258      2231      2257      2259
      2232      2231      2233      2232      2231      2257      2233      2231      2257
      2234      2236      2237      2234      2241      2242      2234      2241      2243
      2234      2241      2249      2235      2234      2236      2235      2234      2241
      2236      2234      2241      2236      2237      2238      2236      2237      2239
      2236      2237      2240      2238      2237      2239      2238      2237      2240
      2239      2237      2240      2241      2242      2244      2241      2249      2250
      2241      2249      2251      2242      2241      2243      2242      2241      2249
      2242      2244      2245      2242      2244      2246      2243      2241      2249
      2244      2246      2247      2244      2246      2248      2244      2246      2279
      2245      2244      2246      2246      2279      2280      2246      2279      2281
      2246      2279      2324      2247      2246      2248      2247      2246      2279
      2248      2246      2279      2249      2251      2252      2249      2251      2358
      2250      2249      2251      2251      2358      2359      2251      2358      2360
      2252      2251      2358      2253      2255      2256      2253      2257      2258
      2253      2257      2259      2253      2267      2268      2253      2267      2269
      2253      2267      2275      2254      2253      2255      2254      2253      2257
      2254      2253      2267      2255      2253      2257      2255      2253      2267
      2257      2253      2267      2257      2259      2260      2258      2257      2259
      2259      2260      2261      2259      2260      2262      2259      2260      2275
      2260      2262      2266      2260      2275      2267      2260      2275      2276
      2260      2275      2277      2261      2260      2262      2261      2260      2275
      2262      2260      2275      2262      2266      2263      2262      2266      2264
      2262      2266      2265      2263      2266      2264      2263      2266      2265
      2264      2266      2265      2267      2269      2270      2267      2275      2276
      2267      2275      2277      2268      2267      2269      2268      2267      2275
      2269      2267      2275      2269      2270      2271      2269      2270      2272
      2270      2272      2273      2270      2272      2274      2270      2272      2436
      2271      2270      2272      2272      2436      2437      2272      2436      2438
      2272      2436      2440      2273      2272      2274      2273      2272      2436
      2274      2272      2436      2275      2277      2278      2275      2277      2474
      2276      2275      2277      2277      2474      2475      2277      2474      2476
      2278      2277      2474      2279      2281      2282      2279      2324      2325
      2279      2324      2326      2279      2324      2327      2280      2279      2281
      2280      2279      2324      2281      2279      2324      2281      2282      2283
      2281      2282      2284      2282      2284      2285      2282      2284      2286
      2282      2284      2287      2283      2282      2284      2284      2287      2288
      2284      2287      2289      2284      2287      2290      2285      2284      2286
      2285      2284      2287      2286      2284      2287      2287      2290      2291
      2287      2290      2292      2287      2290      2293      2288      2287      2289
      2288      2287      2290      2289      2287      2290      2290      2293      2294
      2290      2293      2295      2290      2293      2296      2291      2290      2292
      2291      2290      2293      2292      2290      2293      2293      2296      2297
      2293      2296      2298      2293      2296      2299      2294      2293      2295
      2294      2293      2296      2295      2293      2296      2296      2299      2300
      2296      2299      2301      2296      2299      2302      2297      2296      2298
      2297      2296      2299      2298      2296      2299      2299      2302      2303
      2299      2302      2304      2299      2302      2305      2300      2299      2301
      2300      2299      2302      2301      2299      2302      2302      2305      2306
      2302      2305      2307      2302      2305      2308      2303      2302      2304
      2303      2302      2305      2304      2302      2305      2305      2308      2309
      2305      2308      2310      2305      2308      2311      2306      2305      2307
      2306      2305      2308      2307      2305      2308      2308      2311      2312
      2308      2311      2313      2308      2311      2314      2309      2308      2310
      2309      2308      2311      2310      2308      2311      2311      2314      2315
      2311      2314      2316      2311      2314      2317      2312      2311      2313
      2312      2311      2314      2313      2311      2314      2314      2317      2318
      2314      2317      2319      2314      2317      2320      2315      2314      2316
      2315      2314      2317      2316      2314      2317      2317      2320      2321
      2317      2320      2322      2317      2320      2323      2318      2317      2319
      2318      2317      2320      2319      2317      2320      2321      2320      2322
      2321      2320      2323      2322      2320      2323      2324      2327      2328
      2324      2327      2329      2324      2327      2330      2325      2324      2326
      2325      2324      2327      2326      2324      2327      2327      2330      2331
      2327      2330      2332      2327      2330      2333      2328      2327      2329
      2328      2327      2330      2329      2327      2330      2330      2333      2334
      2330      2333      2335      2330      2333      2336      2331      2330      2332
      2331      2330      2333      2332      2330      2333      2333      2336      2337
      2333      2336      2338      2333      2336      2339      2334      2333      2335
      2334      2333      2336      2335      2333      2336      2336      2339      2340
      2336      2339      2341      2336      2339      2342      2337      2336      2338
      2337      2336      2339      2338      2336      2339      2339      2342      2343
      2339      2342      2344      2339      2342      2345      2340      2339      2341
      2340      2339      2342      2341      2339      2342      2342      2345      2346
      2342      2345      2347      2342      2345      2348      2343      2342      2344
      2343      2342      2345      2344      2342      2345      2345      2348      2349
      2345      2348      2350      2345      2348      2351      2346      2345      2347
      2346      2345      2348      2347      2345      2348      2348      2351      2352
      2348      2351      2353      2348      2351      2354      2349      2348      2350
      2349      2348      2351      2350      2348      2351      2351      2354      2355
      2351      2354      2356      2351      2354      2357      2352      2351      2353
      2352      2351      2354      2353      2351      2354      2355      2354      2356
      2355      2354      2357      2356      2354      2357      2358      2360      2361
      2358      2360      2362      2358      2360      2363      2359      2358      2360
      2360      2363      2364      2360      2363      2365      2360      2363      2402
      2361      2360      2362      2361      2360      2363      2362      2360      2363
      2363      2365      2366      2363      2402      2403      2363      2402      2404
      2363      2402      2405      2364      2363      2365      2364      2363      2402
      2365      2363      2402      2365      2366      2367      2365      2366      2368
      2366      2368      2369      2366      2368      2370      2366      2368      2371
      2367      2366      2368      2368      2371      2372      2368      2371      2373
      2368      2371      2374      2369      2368      2370      2369      2368      2371
      2370      2368      2371      2371      2374      2375      2371      2374      2376
      2371      2374      2377      2372      2371      2373      2372      2371      2374
      2373      2371      2374      2374      2377      2378      2374      2377      2379
      2374      2377      2380      2375      2374      2376      2375      2374      2377
      2376      2374      2377      2377      2380      2381      2377      2380      2382
      2377      2380      2383      2378      2377      2379      2378      2377      2380
      2379      2377      2380      2380      2383      2384      2380      2383      2385
      2380      2383      2386      2381      2380      2382      2381      2380      2383
      2382      2380      2383      2383      2386      2387      2383      2386      2388
      2383      2386      2389      2384      2383      2385      2384      2383      2386
      2385      2383      2386      2386      2389      2390      2386      2389      2391
      2386      2389      2392      2387      2386      2388      2387      2386      2389
      2388      2386      2389      2389      2392      2393      2389      2392      2394
      2389      2392      2395      2390      2389      2391      2390      2389      2392
      2391      2389      2392      2392      2395      2396      2392      2395      2397
      2392      2395      2398      2393      2392      2394      2393      2392      2395
      2394      2392      2395      2395      2398      2399      2395      2398      2400
      2395      2398      2401      2396      2395      2397      2396      2395      2398
      2397      2395      2398      2399      2398      2400      2399      2398      2401
      2400      2398      2401      2402      2405      2406      2402      2405      2407
      2402      2405      2408      2403      2402      2404      2403      2402      2405
      2404      2402      2405      2405      2408      2409      2405      2408      2410
      2405      2408      2411      2406      2405      2407      2406      2405      2408
      2407      2405      2408      2408      2411      2412      2408      2411      2413
      2408      2411      2414      2409      2408      2410      2409      2408      2411
      2410      2408      2411      2411      2414      2415      2411      2414      2416
      2411      2414      2417      2412      2411      2413      2412      2411      2414
      2413      2411      2414      2414      2417      2418      2414      2417      2419
      2414      2417      2420      2415      2414      2416      2415      2414      2417
      2416      2414      2417      2417      2420      2421      2417      2420      2422
      2417      2420      2423      2418      2417      2419      2418      2417      2420
      2419      2417      2420      2420      2423      2424      2420      2423      2425
      2420      2423      2426      2421      2420      2422      2421      2420      2423
      2422      2420      2423      2423      2426      2427      2423      2426      2428
      2423      2426      2429      2424      2423      2425      2424      2423      2426
      2425      2423      2426      2426      2429      2430      2426      2429      2431
      2426      2429      2432      2427      2426      2428      2427      2426      2429
      2428      2426      2429      2429      2432      2433      2429      2432      2434
      2429      2432      2435      2430      2429      2431      2430      2429      2432
      2431      2429      2432      2433      2432      2434      2433      2432      2435
      2434      2432      2435      2436      2438      2439      2436      2440      2441
      2436      2440      2442      2436      2440      2443      2437      2436      2438
      2437      2436      2440      2438      2436      2440      2440      2443      2444
      2440      2443      2445      2440      2443      2446      2441      2440      2442
      2441      2440      2443      2442      2440      2443      2443      2446      2447
      2443      2446      2448      2443      2446      2449      2444      2443      2445
      2444      2443      2446      2445      2443      2446      2446      2449      2450
      2446      2449      2451      2446      2449      2452      2447      2446      2448
      2447      2446      2449      2448      2446      2449      2449      2452      2453
      2449      2452      2454      2449      2452      2455      2450      2449      2451
      2450      2449      2452      2451      2449      2452      2452      2455      2456
      2452      2455      2457      2452      2455      2458      2453      2452      2454
      2453      2452      2455      2454      2452      2455      2455      2458      2459
      2455      2458      2460      2455      2458      2461      2456      2455      2457
      2456      2455      2458      2457      2455      2458      2458      2461      2462
      2458      2461      2463      2458      2461      2464      2459      2458      2460
      2459      2458      2461      2460      2458      2461      2461      2464      2465
      2461      2464      2466      2461      2464      2467      2462      2461      2463
      2462      2461      2464      2463      2461      2464      2464      2467      2468
      2464      2467      2469      2464      2467      2470      2465      2464      2466
      2465      2464      2467      2466      2464      2467      2467      2470      2471
      2467      2470      2472      2467      2470      2473      2468      2467      2469
      2468      2467      2470      2469      2467      2470      2471      2470      2472
      2471      2470      2473      2472      2470      2473      2474      2476      2477
      2474      2476      2478      2474      2476      2479      2475      2474      2476
      2476      2479      2480      2476      2479      2481      2476      2479      2483
      2477      2476      2478      2477      2476      2479      2478      2476      2479
      2479      2481      2482      2479      2483      2484      2479      2483      2485
      2479      2483      2486      2480      2479      2481      2480      2479      2483
      2481      2479      2483      2483      2486      2487      2483      2486      2488
      2483      2486      2489      2484      2483      2485      2484      2483      2486
      2485      2483      2486      2486      2489      2490      2486      2489      2491
      2486      2489      2492      2487      2486      2488      2487      2486      2489
      2488      2486      2489      2489      2492      2493      2489      2492      2494
      2489      2492      2495      2490      2489      2491      2490      2489      2492
      2491      2489      2492      2492      2495      2496      2492      2495      2497
      2492      2495      2498      2493      2492      2494      2493      2492      2495
      2494      2492      2495      2495      2498      2499      2495      2498      2500
      2495      2498      2501      2496      2495      2497      2496      2495      2498
      2497      2495      2498      2498      2501      2502      2498      2501      2503
      2498      2501      2504      2499      2498      2500      2499      2498      2501
      2500      2498      2501      2501      2504      2505      2501      2504      2506
      2501      2504      2507      2502      2501      2503      2502      2501      2504
      2503      2501      2504      2504      2507      2508      2504      2507      2509
      2504      2507      2510      2505      2504      2506      2505      2504      2507
      2506      2504      2507      2507      2510      2511      2507      2510      2512
      2507      2510      2513      2508      2507      2509      2508      2507      2510
      2509      2507      2510      2510      2513      2514      2510      2513      2515
      2510      2513      2516      2511      2510      2512      2511      2510      2513
      2512      2510      2513      2514      2513      2515      2514      2513      2516
      2515      2513      2516      2517      2520      2523      2517      2520      2524
      2518      2517      2519      2518      2517      2520      2519      2517      2520
      2520      2523      2521      2520      2524      2525      2520      2524      2526
      2520      2524      2527      2521      2530      2527      2521      2530      2531
      2521      2530      2532      2521      2533      2534      2521      2533      2535
      2521      2533      2537      2522      2521      2523      2522      2521      2530
      2522      2521      2533      2523      2520      2524      2523      2521      2530
      2523      2521      2533      2524      2527      2528      2524      2527      2529
      2524      2527      2530      2525      2524      2526      2525      2524      2527
      2526      2524      2527      2527      2529      2545      2527      2530      2531
      2527      2530      2532      2528      2527      2529      2528      2527      2530
      2529      2527      2530      2529      2545      2542      2529      2545      2548
      2529      2545      2549      2530      2521      2533      2530      2532      2569
      2531      2530      2532      2532      2569      2570      2532      2569      2573
      2532      2569      2574      2533      2535      2536      2533      2537      2538
      2533      2537      2539      2533      2537      2540      2534      2533      2535
      2534      2533      2537      2535      2533      2537      2537      2540      2541
      2538      2537      2539      2538      2537      2540      2539      2537      2540
      2542      2545      2548      2542      2545      2549      2543      2542      2544
      2543      2542      2545      2544      2542      2545      2545      2548      2546
      2545      2549      2550      2545      2549      2551      2545      2549      2552
      2546      2556      2552      2546      2556      2557      2546      2556      2558
      2546      2560      2561      2546      2560      2562      2546      2560      2564
      2547      2546      2548      2547      2546      2556      2547      2546      2560
      2548      2545      2549      2548      2546      2556      2548      2546      2560
      2549      2552      2553      2549      2552      2554      2549      2552      2556
      2550      2549      2551      2550      2549      2552      2551      2549      2552
      2552      2554      2555      2552      2556      2557      2552      2556      2558
      2553      2552      2554      2553      2552      2556      2554      2552      2556
      2556      2546      2560      2556      2558      2559      2557      2556      2558
      2560      2562      2563      2560      2564      2565      2560      2564      2566
      2560      2564      2567      2561      2560      2562      2561      2560      2564
      2562      2560      2564      2564      2567      2568      2565      2564      2566
      2565      2564      2567      2566      2564      2567      2569      2573      2571
      2569      2574      2575      2569      2574      2576      2569      2574      2578
      2570      2569      2573      2570      2569      2574      2571      2581      2578
      2571      2581      2582      2571      2581      2583      2571      2588      2589
      2571      2588      2590      2571      2588      2592      2572      2571      2573
      2572      2571      2581      2572      2571      2588      2573      2569      2574
      2573      2571      2581      2573      2571      2588      2574      2576      2577
      2574      2578      2579      2574      2578      2580      2574      2578      2581
      2575      2574      2576      2575      2574      2578      2576      2574      2578
      2578      2580      2597      2578      2581      2582      2578      2581      2583
      2579      2578      2580      2579      2578      2581      2580      2578      2581
      2580      2597      2598      2580      2597      2601      2580      2597      2602
      2581      2571      2588      2581      2583      2584      2582      2581      2583
      2583      2584      2585      2583      2584      2586      2583      2584      2587
      2585      2584      2586      2585      2584      2587      2586      2584      2587
      2588      2590      2591      2588      2592      2593      2588      2592      2594
      2588      2592      2595      2589      2588      2590      2589      2588      2592
      2590      2588      2592      2592      2595      2596      2593      2592      2594
      2593      2592      2595      2594      2592      2595      2597      2601      2599
      2597      2602      2603      2597      2602      2604      2597      2602      2606
      2598      2597      2601      2598      2597      2602      2599      2609      2606
      2599      2609      2610      2599      2609      2611      2599      2616      2617
      2599      2616      2618      2599      2616      2620      2600      2599      2601
      2600      2599      2609      2600      2599      2616      2601      2597      2602
      2601      2599      2609      2601      2599      2616      2602      2604      2605
      2602      2606      2607      2602      2606      2608      2602      2606      2609
      2603      2602      2604      2603      2602      2606      2604      2602      2606
      2606      2608      2650      2606      2609      2610      2606      2609      2611
      2607      2606      2608      2607      2606      2609      2608      2606      2609
      2608      2650      2651      2608      2650      2654      2608      2650      2655
      2609      2599      2616      2609      2611      2612      2610      2609      2611
      2611      2612      2613      2611      2612      2614      2611      2612      2615
      2613      2612      2614      2613      2612      2615      2614      2612      2615
      2616      2618      2619      2616      2620      2621      2616      2620      2622
      2616      2620      2623      2617      2616      2618      2617      2616      2620
      2618      2616      2620      2620      2623      2624      2621      2620      2622
      2621      2620      2623      2622      2620      2623      2623      2624      2625
      2623      2624      2628      2623      2624      2629      2624      2628      2626
      2624      2629      2630      2624      2629      2631      2624      2629      2633
      2625      2624      2628      2625      2624      2629      2626      2637      2633
      2626      2637      2638      2626      2637      2639      2626      2641      2642
      2626      2641      2643      2626      2641      2645      2627      2626      2628
      2627      2626      2637      2627      2626      2641      2628      2624      2629
      2628      2626      2637      2628      2626      2641      2629      2631      2632
      2629      2633      2634      2629      2633      2635      2629      2633      2637
      2630      2629      2631      2630      2629      2633      2631      2629      2633
      2633      2635      2636      2633      2637      2638      2633      2637      2639
      2634      2633      2635      2634      2633      2637      2635      2633      2637
      2637      2626      2641      2637      2639      2640      2638      2637      2639
      2641      2643      2644      2641      2645      2646      2641      2645      2647
      2641      2645      2648      2642      2641      2643      2642      2641      2645
      2643      2641      2645      2645      2648      2649      2646      2645      2647
      2646      2645      2648      2647      2645      2648      2650      2654      2652
      2650      2655      2656      2650      2655      2657      2650      2655      2659
      2651      2650      2654      2651      2650      2655      2652      2662      2659
      2652      2662      2663      2652      2662      2664      2652      2666      2667
      2652      2666      2668      2652      2666      2669      2653      2652      2654
      2653      2652      2662      2653      2652      2666      2654      2650      2655
      2654      2652      2662      2654      2652      2666      2655      2657      2658
      2655      2659      2660      2655      2659      2661      2655      2659      2662
      2656      2655      2657      2656      2655      2659      2657      2655      2659
      2659      2661      2671      2659      2662      2663      2659      2662      2664
      2660      2659      2661      2660      2659      2662      2661      2659      2662
      2661      2671      2672      2661      2671      2675      2661      2671      2676
      2662      2652      2666      2662      2664      2665      2663      2662      2664
      2666      2669      2670      2667      2666      2668      2667      2666      2669
      2668      2666      2669      2671      2675      2673      2671      2676      2677
      2671      2676      2678      2671      2676      2679      2672      2671      2675
      2672      2671      2676      2673      2682      2679      2673      2682      2683
      2673      2682      2684      2673      2686      2687      2673      2686      2688
      2673      2686      2689      2674      2673      2675      2674      2673      2682
      2674      2673      2686      2675      2671      2676      2675      2673      2682
      2675      2673      2686      2676      2678      2691      2676      2679      2680
      2676      2679      2681      2676      2679      2682      2677      2676      2678
      2677      2676      2679      2678      2676      2679      2678      2691      2692
      2678      2691      2695      2678      2691      2696      2679      2681      2734
      2679      2682      2683      2679      2682      2684      2680      2679      2681
      2680      2679      2682      2681      2679      2682      2681      2734      2735
      2681      2734      2738      2681      2734      2739      2682      2673      2686
      2682      2684      2685      2683      2682      2684      2686      2689      2690
      2687      2686      2688      2687      2686      2689      2688      2686      2689
      2691      2695      2693      2691      2696      2697      2691      2696      2698
      2691      2696      2699      2692      2691      2695      2692      2691      2696
      2693      2703      2699      2693      2703      2704      2693      2703      2705
      2693      2707      2708      2693      2707      2709      2693      2707      2710
      2694      2693      2695      2694      2693      2703      2694      2693      2707
      2695      2691      2696      2695      2693      2703      2695      2693      2707
      2696      2698      2712      2696      2699      2700      2696      2699      2701
      2696      2699      2703      2697      2696      2698      2697      2696      2699
      2698      2696      2699      2698      2712      2713      2698      2712      2716
      2698      2712      2717      2699      2701      2702      2699      2703      2704
      2699      2703      2705      2700      2699      2701      2700      2699      2703
      2701      2699      2703      2703      2693      2707      2703      2705      2706
      2704      2703      2705      2707      2710      2711      2708      2707      2709
      2708      2707      2710      2709      2707      2710      2712      2716      2714
      2712      2717      2718      2712      2717      2719      2712      2717      2721
      2713      2712      2716      2713      2712      2717      2714      2725      2721
      2714      2725      2726      2714      2725      2727      2714      2729      2730
      2714      2729      2731      2714      2729      2732      2715      2714      2716
      2715      2714      2725      2715      2714      2729      2716      2712      2717
      2716      2714      2725      2716      2714      2729      2717      2719      2720
      2717      2721      2722      2717      2721      2723      2717      2721      2725
      2718      2717      2719      2718      2717      2721      2719      2717      2721
      2721      2723      2724      2721      2725      2726      2721      2725      2727
      2722      2721      2723      2722      2721      2725      2723      2721      2725
      2725      2714      2729      2725      2727      2728      2726      2725      2727
      2729      2732      2733      2730      2729      2731      2730      2729      2732
      2731      2729      2732      2734      2738      2736      2734      2739      2740
      2734      2739      2741      2734      2739      2743      2735      2734      2738
      2735      2734      2739      2736      2746      2743      2736      2746      2747
      2736      2746      2748      2736      2750      2751      2736      2750      2752
      2736      2750      2753      2737      2736      2738      2737      2736      2746
      2737      2736      2750      2738      2734      2739      2738      2736      2746
      2738      2736      2750      2739      2741      2742      2739      2743      2744
      2739      2743      2745      2739      2743      2746      2740      2739      2741
      2740      2739      2743      2741      2739      2743      2743      2745      2755
      2743      2746      2747      2743      2746      2748      2744      2743      2745
      2744      2743      2746      2745      2743      2746      2745      2755      2756
      2745      2755      2759      2745      2755      2760      2746      2736      2750
      2746      2748      2749      2747      2746      2748      2750      2753      2754
      2751      2750      2752      2751      2750      2753      2752      2750      2753
      2755      2759      2757      2755      2760      2761      2755      2760      2762
      2755      2760      2770      2756      2755      2759      2756      2755      2760
      2757      2773      2770      2757      2773      2774      2757      2773      2775
      2757      2777      2778      2757      2777      2779      2757      2777      2780
      2758      2757      2759      2758      2757      2773      2758      2757      2777
      2759      2755      2760      2759      2757      2773      2759      2757      2777
      2760      2762      2763      2760      2762      2764      2760      2770      2771
      2760      2770      2772      2760      2770      2773      2761      2760      2762
      2761      2760      2770      2762      2760      2770      2762      2764      2765
      2762      2764      2766      2763      2762      2764      2764      2766      2767
      2764      2766      2768      2764      2766      2769      2765      2764      2766
      2767      2766      2768      2767      2766      2769      2768      2766      2769
      2770      2772      2782      2770      2773      2774      2770      2773      2775
      2771      2770      2772      2771      2770      2773      2772      2770      2773
      2772      2782      2783      2772      2782      2786      2772      2782      2787
      2773      2757      2777      2773      2775      2776      2774      2773      2775
      2777      2780      2781      2778      2777      2779      2778      2777      2780
      2779      2777      2780      2782      2786      2784      2782      2787      2788
      2782      2787      2789      2782      2787      2790      2783      2782      2786
      2783      2782      2787      2784      2794      2790      2784      2794      2795
      2784      2794      2796      2784      2798      2799      2784      2798      2800
      2784      2798      2801      2785      2784      2786      2785      2784      2794
      2785      2784      2798      2786      2782      2787      2786      2784      2794
      2786      2784      2798      2787      2789      2803      2787      2790      2791
      2787      2790      2792      2787      2790      2794      2788      2787      2789
      2788      2787      2790      2789      2787      2790      2789      2803      2804
      2789      2803      2807      2789      2803      2808      2790      2792      2793
      2790      2794      2795      2790      2794      2796      2791      2790      2792
      2791      2790      2794      2792      2790      2794      2794      2784      2798
      2794      2796      2797      2795      2794      2796      2798      2801      2802
      2799      2798      2800      2799      2798      2801      2800      2798      2801
      2803      2807      2805      2803      2808      2809      2803      2808      2810
      2803      2808      2811      2804      2803      2807      2804      2803      2808
      2805      2815      2811      2805      2815      2816      2805      2815      2817
      2805      2819      2820      2805      2819      2821      2805      2819      2822
      2806      2805      2807      2806      2805      2815      2806      2805      2819
      2807      2803      2808      2807      2805      2815      2807      2805      2819
      2808      2810      2823      2808      2811      2812      2808      2811      2813
      2808      2811      2815      2809      2808      2810      2809      2808      2811
      2810      2808      2811      2810      2823      2824      2810      2823      2827
      2810      2823      2828      2811      2813      2814      2811      2815      2816
      2811      2815      2817      2812      2811      2813      2812      2811      2815
      2813      2811      2815      2815      2805      2819      2815      2817      2818
      2816      2815      2817      2820      2819      2821      2820      2819      2822
      2821      2819      2822      2823      2827      2825      2823      2828      2829
      2823      2828      2830      2823      2828      2831      2824      2823      2827
      2824      2823      2828      2825      2834      2831      2825      2834      2835
      2825      2834      2836      2825      2838      2839      2825      2838      2840
      2825      2838      2841      2826      2825      2827      2826      2825      2834
      2826      2825      2838      2827      2823      2828      2827      2825      2834
      2827      2825      2838      2828      2830      2842      2828      2831      2832
      2828      2831      2833      2828      2831      2834      2829      2828      2830
      2829      2828      2831      2830      2828      2831      2830      2842      2843
      2830      2842      2846      2830      2842      2847      2831      2833      2870
      2831      2834      2835      2831      2834      2836      2832      2831      2833
      2832      2831      2834      2833      2831      2834      2833      2870      2871
      2833      2870      2874      2833      2870      2875      2834      2825      2838
      2834      2836      2837      2835      2834      2836      2839      2838      2840
      2839      2838      2841      2840      2838      2841      2842      2846      2844
      2842      2847      2848      2842      2847      2849      2842      2847      2857
      2843      2842      2846      2843      2842      2847      2844      2861      2857
      2844      2861      2862      2844      2861      2863      2844      2865      2866
      2844      2865      2867      2844      2865      2868      2845      2844      2846
      2845      2844      2861      2845      2844      2865      2846      2842      2847
      2846      2844      2861      2846      2844      2865      2847      2849      2850
      2847      2849      2851      2847      2857      2858      2847      2857      2859
      2847      2857      2861      2848      2847      2849      2848      2847      2857
      2849      2847      2857      2849      2851      2852      2849      2851      2853
      2850      2849      2851      2851      2853      2854      2851      2853      2855
      2851      2853      2856      2852      2851      2853      2854      2853      2855
      2854      2853      2856      2855      2853      2856      2857      2859      2860
      2857      2861      2862      2857      2861      2863      2858      2857      2859
      2858      2857      2861      2859      2857      2861      2861      2844      2865
      2861      2863      2864      2862      2861      2863      2865      2868      2869
      2866      2865      2867      2866      2865      2868      2867      2865      2868
      2870      2874      2872      2870      2875      2876      2870      2875      2877
      2870      2875      2885      2871      2870      2874      2871      2870      2875
      2872      2888      2885      2872      2888      2889      2872      2888      2890
      2872      2892      2893      2872      2892      2894      2872      2892      2895
      2873      2872      2874      2873      2872      2888      2873      2872      2892
      2874      2870      2875      2874      2872      2888      2874      2872      2892
      2875      2877      2878      2875      2877      2879      2875      2885      2886
      2875      2885      2887      2875      2885      2888      2876      2875      2877
      2876      2875      2885      2877      2875      2885      2877      2879      2880
      2877      2879      2881      2878      2877      2879      2879      2881      2882
      2879      2881      2883      2879      2881      2884      2880      2879      2881
      2882      2881      2883      2882      2881      2884      2883      2881      2884
      2885      2887      2897      2885      2888      2889      2885      2888      2890
      2886      2885      2887      2886      2885      2888      2887      2885      2888
      2887      2897      2898      2887      2897      2901      2887      2897      2902
      2888      2872      2892      2888      2890      2891      2889      2888      2890
      2892      2895      2896      2893      2892      2894      2893      2892      2895
      2894      2892      2895      2897      2901      2899      2897      2902      2903
      2897      2902      2904      2897      2902      2905      2898      2897      2901
      2898      2897      2902      2899      2909      2905      2899      2909      2910
      2899      2909      2911      2899      2913      2914      2899      2913      2915
      2899      2913      2916      2900      2899      2901      2900      2899      2909
      2900      2899      2913      2901      2897      2902      2901      2899      2909
      2901      2899      2913      2902      2904      2918      2902      2905      2906
      2902      2905      2907      2902      2905      2909      2903      2902      2904
      2903      2902      2905      2904      2902      2905      2904      2918      2919
      2904      2918      2922      2904      2918      2923      2905      2907      2908
      2905      2909      2910      2905      2909      2911      2906      2905      2907
      2906      2905      2909      2907      2905      2909      2909      2899      2913
      2909      2911      2912      2910      2909      2911      2913      2916      2917
      2914      2913      2915      2914      2913      2916      2915      2913      2916
      2918      2922      2920      2918      2923      2924      2918      2923      2925
      2918      2923      2926      2919      2918      2922      2919      2918      2923
      2920      2930      2926      2920      2930      2931      2920      2930      2932
      2920      2934      2935      2920      2934      2936      2920      2934      2937
      2921      2920      2922      2921      2920      2930      2921      2920      2934
      2922      2918      2923      2922      2920      2930      2922      2920      2934
      2923      2925      2938      2923      2926      2927      2923      2926      2928
      2923      2926      2930      2924      2923      2925      2924      2923      2926
      2925      2923      2926      2925      2938      2939      2925      2938      2942
      2925      2938      2943      2926      2928      2929      2926      2930      2931
      2926      2930      2932      2927      2926      2928      2927      2926      2930
      2928      2926      2930      2930      2920      2934      2930      2932      2933
      2931      2930      2932      2935      2934      2936      2935      2934      2937
      2936      2934      2937      2938      2942      2940      2938      2943      2944
      2938      2943      2945      2938      2943      2946      2939      2938      2942
      2939      2938      2943      2940      2949      2946      2940      2949      2950
      2940      2949      2951      2940      2953      2954      2940      2953      2955
      2940      2953      2956      2941      2940      2942      2941      2940      2949
      2941      2940      2953      2942      2938      2943      2942      2940      2949
      2942      2940      2953      2943      2945      2957      2943      2946      2947
      2943      2946      2948      2943      2946      2949      2944      2943      2945
      2944      2943      2946      2945      2943      2946      2945      2957      2958
      2945      2957      2961      2945      2957      2962      2946      2948      2985
      2946      2949      2950      2946      2949      2951      2947      2946      2948
      2947      2946      2949      2948      2946      2949      2948      2985      2986
      2948      2985      2989      2948      2985      2990      2949      2940      2953
      2949      2951      2952      2950      2949      2951      2954      2953      2955
      2954      2953      2956      2955      2953      2956      2957      2961      2959
      2957      2962      2963      2957      2962      2964      2957      2962      2972
      2958      2957      2961      2958      2957      2962      2959      2976      2972
      2959      2976      2977      2959      2976      2978      2959      2980      2981
      2959      2980      2982      2959      2980      2983      2960      2959      2961
      2960      2959      2976      2960      2959      2980      2961      2957      2962
      2961      2959      2976      2961      2959      2980      2962      2964      2965
      2962      2964      2966      2962      2972      2973      2962      2972      2974
      2962      2972      2976      2963      2962      2964      2963      2962      2972
      2964      2962      2972      2964      2966      2967      2964      2966      2968
      2965      2964      2966      2966      2968      2969      2966      2968      2970
      2966      2968      2971      2967      2966      2968      2969      2968      2970
      2969      2968      2971      2970      2968      2971      2972      2974      2975
      2972      2976      2977      2972      2976      2978      2973      2972      2974
      2973      2972      2976      2974      2972      2976      2976      2959      2980
      2976      2978      2979      2977      2976      2978      2980      2983      2984
      2981      2980      2982      2981      2980      2983      2982      2980      2983
      2985      2989      2987      2985      2990      2991      2985      2990      2992
      2985      2990      3000      2986      2985      2989      2986      2985      2990
      2987      3003      3000      2987      3003      3004      2987      3003      3005
      2987      3007      3008      2987      3007      3009      2987      3007      3010
      2988      2987      2989      2988      2987      3003      2988      2987      3007
      2989      2985      2990      2989      2987      3003      2989      2987      3007
      2990      2992      2993      2990      2992      2994      2990      3000      3001
      2990      3000      3002      2990      3000      3003      2991      2990      2992
      2991      2990      3000      2992      2990      3000      2992      2994      2995
      2992      2994      2996      2993      2992      2994      2994      2996      2997
      2994      2996      2998      2994      2996      2999      2995      2994      2996
      2997      2996      2998      2997      2996      2999      2998      2996      2999
      3000      3002      3012      3000      3003      3004      3000      3003      3005
      3001      3000      3002      3001      3000      3003      3002      3000      3003
      3002      3012      3013      3002      3012      3016      3002      3012      3017
      3003      2987      3007      3003      3005      3006      3004      3003      3005
      3007      3010      3011      3008      3007      3009      3008      3007      3010
      3009      3007      3010      3012      3016      3014      3012      3017      3018
      3012      3017      3019      3012      3017      3020      3013      3012      3016
      3013      3012      3017      3014      3024      3020      3014      3024      3025
      3014      3024      3026      3014      3028      3029      3014      3028      3030
      3014      3028      3031      3015      3014      3016      3015      3014      3024
      3015      3014      3028      3016      3012      3017      3016      3014      3024
      3016      3014      3028      3017      3019      3033      3017      3020      3021
      3017      3020      3022      3017      3020      3024      3018      3017      3019
      3018      3017      3020      3019      3017      3020      3019      3033      3034
      3019      3033      3037      3019      3033      3038      3020      3022      3023
      3020      3024      3025      3020      3024      3026      3021      3020      3022
      3021      3020      3024      3022      3020      3024      3024      3014      3028
      3024      3026      3027      3025      3024      3026      3028      3031      3032
      3029      3028      3030      3029      3028      3031      3030      3028      3031
      3033      3037      3035      3033      3038      3039      3033      3038      3040
      3033      3038      3041      3034      3033      3037      3034      3033      3038
      3035      3045      3041      3035      3045      3046      3035      3045      3047
      3035      3049      3050      3035      3049      3051      3035      3049      3052
      3036      3035      3037      3036      3035      3045      3036      3035      3049
      3037      3033      3038      3037      3035      3045      3037      3035      3049
      3038      3040      3053      3038      3041      3042      3038      3041      3043
      3038      3041      3045      3039      3038      3040      3039      3038      3041
      3040      3038      3041      3040      3053      3054      3040      3053      3057
      3040      3053      3058      3041      3043      3044      3041      3045      3046
      3041      3045      3047      3042      3041      3043      3042      3041      3045
      3043      3041      3045      3045      3035      3049      3045      3047      3048
      3046      3045      3047      3050      3049      3051      3050      3049      3052
      3051      3049      3052      3053      3057      3055      3053      3058      3059
      3053      3058      3060      3053      3058      3061      3054      3053      3057
      3054      3053      3058      3055      3064      3061      3055      3064      3065
      3055      3064      3066      3055      3068      3069      3055      3068      3070
      3055      3068      3071      3056      3055      3057      3056      3055      3064
      3056      3055      3068      3057      3053      3058      3057      3055      3064
      3057      3055      3068      3058      3060      3072      3058      3061      3062
      3058      3061      3063      3058      3061      3064      3059      3058      3060
      3059      3058      3061      3060      3058      3061      3060      3072      3073
      3060      3072      3076      3060      3072      3077      3061      3063      3100
      3061      3064      3065      3061      3064      3066      3062      3061      3063
      3062      3061      3064      3063      3061      3064      3063      3100      3101
      3063      3100      3104      3063      3100      3105      3064      3055      3068
      3064      3066      3067      3065      3064      3066      3069      3068      3070
      3069      3068      3071      3070      3068      3071      3072      3076      3074
      3072      3077      3078      3072      3077      3079      3072      3077      3087
      3073      3072      3076      3073      3072      3077      3074      3091      3087
      3074      3091      3092      3074      3091      3093      3074      3095      3096
      3074      3095      3097      3074      3095      3098      3075      3074      3076
      3075      3074      3091      3075      3074      3095      3076      3072      3077
      3076      3074      3091      3076      3074      3095      3077      3079      3080
      3077      3079      3081      3077      3087      3088      3077      3087      3089
      3077      3087      3091      3078      3077      3079      3078      3077      3087
      3079      3077      3087      3079      3081      3082      3079      3081      3083
      3080      3079      3081      3081      3083      3084      3081      3083      3085
      3081      3083      3086      3082      3081      3083      3084      3083      3085
      3084      3083      3086      3085      3083      3086      3087      3089      3090
      3087      3091      3092      3087      3091      3093      3088      3087      3089
      3088      3087      3091      3089      3087      3091      3091      3074      3095
      3091      3093      3094      3092      3091      3093      3095      3098      3099
      3096      3095      3097      3096      3095      3098      3097      3095      3098
      3100      3104      3102      3100      3105      3106      3100      3105      3107
      3100      3105      3115      3101      3100      3104      3101      3100      3105
      3102      3118      3115      3102      3118      3119      3102      3118      3120
      3102      3122      3123      3102      3122      3124      3102      3122      3125
      3103      3102      3104      3103      3102      3118      3103      3102      3122
      3104      3100      3105      3104      3102      3118      3104      3102      3122
      3105      3107      3108      3105      3107      3109      3105      3115      3116
      3105      3115      3117      3105      3115      3118      3106      3105      3107
      3106      3105      3115      3107      3105      3115      3107      3109      3110
      3107      3109      3111      3108      3107      3109      3109      3111      3112
      3109      3111      3113      3109      3111      3114      3110      3109      3111
      3112      3111      3113      3112      3111      3114      3113      3111      3114
      3115      3117      3127      3115      3118      3119      3115      3118      3120
      3116      3115      3117      3116      3115      3118      3117      3115      3118
      3117      3127      3128      3117      3127      3131      3117      3127      3132
      3118      3102      3122      3118      3120      3121      3119      3118      3120
      3122      3125      3126      3123      3122      3124      3123      3122      3125
      3124      3122      3125      3127      3131      3129      3127      3132      3133
      3127      3132      3134      3127      3132      3135      3128      3127      3131
      3128      3127      3132      3129      3139      3135      3129      3139      3140
      3129      3139      3141      3129      3143      3144      3129      3143      3145
      3129      3143      3146      3130      3129      3131      3130      3129      3139
      3130      3129      3143      3131      3127      3132      3131      3129      3139
      3131      3129      3143      3132      3134      3148      3132      3135      3136
      3132      3135      3137      3132      3135      3139      3133      3132      3134
      3133      3132      3135      3134      3132      3135      3134      3148      3149
      3134      3148      3152      3134      3148      3153      3135      3137      3138
      3135      3139      3140      3135      3139      3141      3136      3135      3137
      3136      3135      3139      3137      3135      3139      3139      3129      3143
      3139      3141      3142      3140      3139      3141      3143      3146      3147
      3144      3143      3145      3144      3143      3146      3145      3143      3146
      3148      3152      3150      3148      3153      3154      3148      3153      3155
      3148      3153      3156      3149      3148      3152      3149      3148      3153
      3150      3160      3156      3150      3160      3161      3150      3160      3162
      3150      3164      3165      3150      3164      3166      3150      3164      3167
      3151      3150      3152      3151      3150      3160      3151      3150      3164
      3152      3148      3153      3152      3150      3160      3152      3150      3164
      3153      3155      3168      3153      3156      3157      3153      3156      3158
      3153      3156      3160      3154      3153      3155      3154      3153      3156
      3155      3153      3156      3155      3168      3169      3155      3168      3172
      3155      3168      3173      3156      3158      3159      3156      3160      3161
      3156      3160      3162      3157      3156      3158      3157      3156      3160
      3158      3156      3160      3160      3150      3164      3160      3162      3163
      3161      3160      3162      3165      3164      3166      3165      3164      3167
      3166      3164      3167      3168      3172      3170      3168      3173      3174
      3168      3173      3175      3168      3173      3176      3169      3168      3172
      3169      3168      3173      3170      3179      3176      3170      3179      3180
      3170      3179      3181      3170      3183      3184      3170      3183      3185
      3170      3183      3186      3171      3170      3172      3171      3170      3179
      3171      3170      3183      3172      3168      3173      3172      3170      3179
      3172      3170      3183      3173      3175      3187      3173      3176      3177
      3173      3176      3178      3173      3176      3179      3174      3173      3175
      3174      3173      3176      3175      3173      3176      3175      3187      3188
      3175      3187      3191      3175      3187      3192      3176      3178      3215
      3176      3179      3180      3176      3179      3181      3177      3176      3178
      3177      3176      3179      3178      3176      3179      3178      3215      3216
      3178      3215      3219      3178      3215      3220      3179      3170      3183
      3179      3181      3182      3180      3179      3181      3184      3183      3185
      3184      3183      3186      3185      3183      3186      3187      3191      3189
      3187      3192      3193      3187      3192      3194      3187      3192      3202
      3188      3187      3191      3188      3187      3192      3189      3206      3202
      3189      3206      3207      3189      3206      3208      3189      3210      3211
      3189      3210      3212      3189      3210      3213      3190      3189      3191
      3190      3189      3206      3190      3189      3210      3191      3187      3192
      3191      3189      3206      3191      3189      3210      3192      3194      3195
      3192      3194      3196      3192      3202      3203      3192      3202      3204
      3192      3202      3206      3193      3192      3194      3193      3192      3202
      3194      3192      3202      3194      3196      3197      3194      3196      3198
      3195      3194      3196      3196      3198      3199      3196      3198      3200
      3196      3198      3201      3197      3196      3198      3199      3198      3200
      3199      3198      3201      3200      3198      3201      3202      3204      3205
      3202      3206      3207      3202      3206      3208      3203      3202      3204
      3203      3202      3206      3204      3202      3206      3206      3189      3210
      3206      3208      3209      3207      3206      3208      3210      3213      3214
      3211      3210      3212      3211      3210      3213      3212      3210      3213
      3215      3219      3217      3215      3220      3221      3215      3220      3222
      3215      3220      3230      3216      3215      3219      3216      3215      3220
      3217      3233      3230      3217      3233      3234      3217      3233      3235
      3217      3237      3238      3217      3237      3239      3217      3237      3240
      3218      3217      3219      3218      3217      3233      3218      3217      3237
      3219      3215      3220      3219      3217      3233      3219      3217      3237
      3220      3222      3223      3220      3222      3224      3220      3230      3231
      3220      3230      3232      3220      3230      3233      3221      3220      3222
      3221      3220      3230      3222      3220      3230      3222      3224      3225
      3222      3224      3226      3223      3222      3224      3224      3226      3227
      3224      3226      3228      3224      3226      3229      3225      3224      3226
      3227      3226      3228      3227      3226      3229      3228      3226      3229
      3230      3232      3242      3230      3233      3234      3230      3233      3235
      3231      3230      3232      3231      3230      3233      3232      3230      3233
      3232      3242      3243      3232      3242      3246      3232      3242      3247
      3233      3217      3237      3233      3235      3236      3234      3233      3235
      3237      3240      3241      3238      3237      3239      3238      3237      3240
      3239      3237      3240      3242      3246      3244      3242      3247      3248
      3242      3247      3249      3242      3247      3250      3243      3242      3246
      3243      3242      3247      3244      3254      3250      3244      3254      3255
      3244      3254      3256      3244      3258      3259      3244      3258      3260
      3244      3258      3261      3245      3244      3246      3245      3244      3254
      3245      3244      3258      3246      3242      3247      3246      3244      3254
      3246      3244      3258      3247      3249      3263      3247      3250      3251
      3247      3250      3252      3247      3250      3254      3248      3247      3249
      3248      3247      3250      3249      3247      3250      3249      3263      3264
      3249      3263      3267      3249      3263      3268      3250      3252      3253
      3250      3254      3255      3250      3254      3256      3251      3250      3252
      3251      3250      3254      3252      3250      3254      3254      3244      3258
      3254      3256      3257      3255      3254      3256      3258      3261      3262
      3259      3258      3260      3259      3258      3261      3260      3258      3261
      3263      3267      3265      3263      3268      3269      3263      3268      3270
      3263      3268      3271      3264      3263      3267      3264      3263      3268
      3265      3275      3271      3265      3275      3276      3265      3275      3277
      3265      3279      3280      3265      3279      3281      3265      3279      3282
      3266      3265      3267      3266      3265      3275      3266      3265      3279
      3267      3263      3268      3267      3265      3275      3267      3265      3279
      3268      3270      3283      3268      3271      3272      3268      3271      3273
      3268      3271      3275      3269      3268      3270      3269      3268      3271
      3270      3268      3271      3270      3283      3284      3270      3283      3287
      3270      3283      3288      3271      3273      3274      3271      3275      3276
      3271      3275      3277      3272      3271      3273      3272      3271      3275
      3273      3271      3275      3275      3265      3279      3275      3277      3278
      3276      3275      3277      3280      3279      3281      3280      3279      3282
      3281      3279      3282      3283      3287      3285      3283      3288      3289
      3283      3288      3290      3283      3288      3291      3284      3283      3287
      3284      3283      3288      3285      3295      3291      3285      3295      3296
      3285      3295      3297      3285      3299      3300      3285      3299      3301
      3285      3299      3302      3286      3285      3287      3286      3285      3295
      3286      3285      3299      3287      3283      3288      3287      3285      3295
      3287      3285      3299      3288      3290      3303      3288      3291      3292
      3288      3291      3293      3288      3291      3295      3289      3288      3290
      3289      3288      3291      3290      3288      3291      3290      3303      3304
      3290      3303      3307      3290      3303      3308      3291      3293      3294
      3291      3295      3296      3291      3295      3297      3292      3291      3293
      3292      3291      3295      3293      3291      3295      3295      3285      3299
      3295      3297      3298      3296      3295      3297      3300      3299      3301
      3300      3299      3302      3301      3299      3302      3303      3307      3305
      3303      3308      3309      3303      3308      3310      3303      3308      3318
      3304      3303      3307      3304      3303      3308      3305      3322      3318
      3305      3322      3323      3305      3322      3324      3305      3326      3327
      3305      3326      3328      3305      3326      3329      3306      3305      3307
      3306      3305      3322      3306      3305      3326      3307      3303      3308
      3307      3305      3322      3307      3305      3326      3308      3310      3311
      3308      3310      3312      3308      3318      3319      3308      3318      3320
      3308      3318      3322      3309      3308      3310      3309      3308      3318
      3310      3308      3318      3310      3312      3313      3310      3312      3314
      3311      3310      3312      3312      3314      3315      3312      3314      3316
      3312      3314      3317      3313      3312      3314      3315      3314      3316
      3315      3314      3317      3316      3314      3317      3318      3320      3321
      3318      3322      3323      3318      3322      3324      3319      3318      3320
      3319      3318      3322      3320      3318      3322      3322      3305      3326
      3322      3324      3325      3323      3322      3324      3326      3329      3330
      3327      3326      3328      3327      3326      3329      3328      3326      3329
      3331      3333      3332      3331      3333      3334      3331      3333      3335
      3332      3333      3334      3332      3333      3335      3332      3630      3627
      3332      3630      3633      3332      3630      3634      3333      3332      3630
      3333      3335      3336      3333      3335      3337      3333      3335      3344
      3334      3333      3335      3335      3336      3338      3335      3344      3345
      3335      3344      3346      3335      3344      3351      3336      3335      3337
      3336      3335      3344      3336      3338      3339      3336      3338      3340
      3336      3338      3359      3337      3335      3344      3338      3340      3341
      3338      3359      3351      3338      3359      3360      3338      3359      3361
      3339      3338      3340      3339      3338      3359      3340      3338      3359
      3340      3341      3342      3340      3341      3343      3340      3341      3367
      3341      3367      3363      3341      3367      3368      3341      3367      3369
      3342      3341      3343      3342      3341      3367      3343      3341      3367
      3344      3346      3347      3344      3351      3352      3344      3351      3353
      3344      3351      3359      3345      3344      3346      3345      3344      3351
      3346      3344      3351      3346      3347      3348      3346      3347      3349
      3346      3347      3350      3348      3347      3349      3348      3347      3350
      3349      3347      3350      3351      3352      3354      3351      3359      3360
      3351      3359      3361      3352      3351      3353      3352      3351      3359
      3352      3354      3355      3352      3354      3356      3353      3351      3359
      3354      3356      3357      3354      3356      3358      3354      3356      3389
      3355      3354      3356      3356      3389      3390      3356      3389      3391
      3356      3389      3434      3357      3356      3358      3357      3356      3389
      3358      3356      3389      3359      3361      3362      3359      3361      3468
      3360      3359      3361      3361      3468      3469      3361      3468      3470
      3362      3361      3468      3363      3365      3366      3363      3367      3368
      3363      3367      3369      3363      3377      3378      3363      3377      3379
      3363      3377      3385      3364      3363      3365      3364      3363      3367
      3364      3363      3377      3365      3363      3367      3365      3363      3377
      3367      3363      3377      3367      3369      3370      3368      3367      3369
      3369      3370      3371      3369      3370      3372      3369      3370      3385
      3370      3372      3376      3370      3385      3377      3370      3385      3386
      3370      3385      3387      3371      3370      3372      3371      3370      3385
      3372      3370      3385      3372      3376      3373      3372      3376      3374
      3372      3376      3375      3373      3376      3374      3373      3376      3375
      3374      3376      3375      3377      3379      3380      3377      3385      3386
      3377      3385      3387      3378      3377      3379      3378      3377      3385
      3379      3377      3385      3379      3380      3381      3379      3380      3382
      3380      3382      3383      3380      3382      3384      3380      3382      3546
      3381      3380      3382      3382      3546      3547      3382      3546      3548
      3382      3546      3550      3383      3382      3384      3383      3382      3546
      3384      3382      3546      3385      3387      3388      3385      3387      3584
      3386      3385      3387      3387      3584      3585      3387      3584      3586
      3388      3387      3584      3389      3391      3392      3389      3434      3435
      3389      3434      3436      3389      3434      3437      3390      3389      3391
      3390      3389      3434      3391      3389      3434      3391      3392      3393
      3391      3392      3394      3392      3394      3395      3392      3394      3396
      3392      3394      3397      3393      3392      3394      3394      3397      3398
      3394      3397      3399      3394      3397      3400      3395      3394      3396
      3395      3394      3397      3396      3394      3397      3397      3400      3401
      3397      3400      3402      3397      3400      3403      3398      3397      3399
      3398      3397      3400      3399      3397      3400      3400      3403      3404
      3400      3403      3405      3400      3403      3406      3401      3400      3402
      3401      3400      3403      3402      3400      3403      3403      3406      3407
      3403      3406      3408      3403      3406      3409      3404      3403      3405
      3404      3403      3406      3405      3403      3406      3406      3409      3410
      3406      3409      3411      3406      3409      3412      3407      3406      3408
      3407      3406      3409      3408      3406      3409      3409      3412      3413
      3409      3412      3414      3409      3412      3415      3410      3409      3411
      3410      3409      3412      3411      3409      3412      3412      3415      3416
      3412      3415      3417      3412      3415      3418      3413      3412      3414
      3413      3412      3415      3414      3412      3415      3415      3418      3419
      3415      3418      3420      3415      3418      3421      3416      3415      3417
      3416      3415      3418      3417      3415      3418      3418      3421      3422
      3418      3421      3423      3418      3421      3424      3419      3418      3420
      3419      3418      3421      3420      3418      3421      3421      3424      3425
      3421      3424      3426      3421      3424      3427      3422      3421      3423
      3422      3421      3424      3423      3421      3424      3424      3427      3428
      3424      3427      3429      3424      3427      3430      3425      3424      3426
      3425      3424      3427      3426      3424      3427      3427      3430      3431
      3427      3430      3432      3427      3430      3433      3428      3427      3429
      3428      3427      3430      3429      3427      3430      3431      3430      3432
      3431      3430      3433      3432      3430      3433      3434      3437      3438
      3434      3437      3439      3434      3437      3440      3435      3434      3436
      3435      3434      3437      3436      3434      3437      3437      3440      3441
      3437      3440      3442      3437      3440      3443      3438      3437      3439
      3438      3437      3440      3439      3437      3440      3440      3443      3444
      3440      3443      3445      3440      3443      3446      3441      3440      3442
      3441      3440      3443      3442      3440      3443      3443      3446      3447
      3443      3446      3448      3443      3446      3449      3444      3443      3445
      3444      3443      3446      3445      3443      3446      3446      3449      3450
      3446      3449      3451      3446      3449      3452      3447      3446      3448
      3447      3446      3449      3448      3446      3449      3449      3452      3453
      3449      3452      3454      3449      3452      3455      3450      3449      3451
      3450      3449      3452      3451      3449      3452      3452      3455      3456
      3452      3455      3457      3452      3455      3458      3453      3452      3454
      3453      3452      3455      3454      3452      3455      3455      3458      3459
      3455      3458      3460      3455      3458      3461      3456      3455      3457
      3456      3455      3458      3457      3455      3458      3458      3461      3462
      3458      3461      3463      3458      3461      3464      3459      3458      3460
      3459      3458      3461      3460      3458      3461      3461      3464      3465
      3461      3464      3466      3461      3464      3467      3462      3461      3463
      3462      3461      3464      3463      3461      3464      3465      3464      3466
      3465      3464      3467      3466      3464      3467      3468      3470      3471
      3468      3470      3472      3468      3470      3473      3469      3468      3470
      3470      3473      3474      3470      3473      3475      3470      3473      3512
      3471      3470      3472      3471      3470      3473      3472      3470      3473
      3473      3475      3476      3473      3512      3513      3473      3512      3514
      3473      3512      3515      3474      3473      3475      3474      3473      3512
      3475      3473      3512      3475      3476      3477      3475      3476      3478
      3476      3478      3479      3476      3478      3480      3476      3478      3481
      3477      3476      3478      3478      3481      3482      3478      3481      3483
      3478      3481      3484      3479      3478      3480      3479      3478      3481
      3480      3478      3481      3481      3484      3485      3481      3484      3486
      3481      3484      3487      3482      3481      3483      3482      3481      3484
      3483      3481      3484      3484      3487      3488      3484      3487      3489
      3484      3487      3490      3485      3484      3486      3485      3484      3487
      3486      3484      3487      3487      3490      3491      3487      3490      3492
      3487      3490      3493      3488      3487      3489      3488      3487      3490
      3489      3487      3490      3490      3493      3494      3490      3493      3495
      3490      3493      3496      3491      3490      3492      3491      3490      3493
      3492      3490      3493      3493      3496      3497      3493      3496      3498
      3493      3496      3499      3494      3493      3495      3494      3493      3496
      3495      3493      3496      3496      3499      3500      3496      3499      3501
      3496      3499      3502      3497      3496      3498      3497      3496      3499
      3498      3496      3499      3499      3502      3503      3499      3502      3504
      3499      3502      3505      3500      3499      3501      3500      3499      3502
      3501      3499      3502      3502      3505      3506      3502      3505      3507
      3502      3505      3508      3503      3502      3504      3503      3502      3505
      3504      3502      3505      3505      3508      3509      3505      3508      3510
      3505      3508      3511      3506      3505      3507      3506      3505      3508
      3507      3505      3508      3509      3508      3510      3509      3508      3511
      3510      3508      3511      3512      3515      3516      3512      3515      3517
      3512      3515      3518      3513      3512      3514      3513      3512      3515
      3514      3512      3515      3515      3518      3519      3515      3518      3520
      3515      3518      3521      3516      3515      3517      3516      3515      3518
      3517      3515      3518      3518      3521      3522      3518      3521      3523
      3518      3521      3524      3519      3518      3520      3519      3518      3521
      3520      3518      3521      3521      3524      3525      3521      3524      3526
      3521      3524      3527      3522      3521      3523      3522      3521      3524
      3523      3521      3524      3524      3527      3528      3524      3527      3529
      3524      3527      3530      3525      3524      3526      3525      3524      3527
      3526      3524      3527      3527      3530      3531      3527      3530      3532
      3527      3530      3533      3528      3527      3529      3528      3527      3530
      3529      3527      3530      3530      3533      3534      3530      3533      3535
      3530      3533      3536      3531      3530      3532      3531      3530      3533
      3532      3530      3533      3533      3536      3537      3533      3536      3538
      3533      3536      3539      3534      3533      3535      3534      3533      3536
      3535      3533      3536      3536      3539      3540      3536      3539      3541
      3536      3539      3542      3537      3536      3538      3537      3536      3539
      3538      3536      3539      3539      3542      3543      3539      3542      3544
      3539      3542      3545      3540      3539      3541      3540      3539      3542
      3541      3539      3542      3543      3542      3544      3543      3542      3545
      3544      3542      3545      3546      3548      3549      3546      3550      3551
      3546      3550      3552      3546      3550      3553      3547      3546      3548
      3547      3546      3550      3548      3546      3550      3550      3553      3554
      3550      3553      3555      3550      3553      3556      3551      3550      3552
      3551      3550      3553      3552      3550      3553      3553      3556      3557
      3553      3556      3558      3553      3556      3559      3554      3553      3555
      3554      3553      3556      3555      3553      3556      3556      3559      3560
      3556      3559      3561      3556      3559      3562      3557      3556      3558
      3557      3556      3559      3558      3556      3559      3559      3562      3563
      3559      3562      3564      3559      3562      3565      3560      3559      3561
      3560      3559      3562      3561      3559      3562      3562      3565      3566
      3562      3565      3567      3562      3565      3568      3563      3562      3564
      3563      3562      3565      3564      3562      3565      3565      3568      3569
      3565      3568      3570      3565      3568      3571      3566      3565      3567
      3566      3565      3568      3567      3565      3568      3568      3571      3572
      3568      3571      3573      3568      3571      3574      3569      3568      3570
      3569      3568      3571      3570      3568      3571      3571      3574      3575
      3571      3574      3576      3571      3574      3577      3572      3571      3573
      3572      3571      3574      3573      3571      3574      3574      3577      3578
      3574      3577      3579      3574      3577      3580      3575      3574      3576
      3575      3574      3577      3576      3574      3577      3577      3580      3581
      3577      3580      3582      3577      3580      3583      3578      3577      3579
      3578      3577      3580      3579      3577      3580      3581      3580      3582
      3581      3580      3583      3582      3580      3583      3584      3586      3587
      3584      3586      3588      3584      3586      3589      3585      3584      3586
      3586      3589      3590      3586      3589      3591      3586      3589      3593
      3587      3586      3588      3587      3586      3589      3588      3586      3589
      3589      3591      3592      3589      3593      3594      3589      3593      3595
      3589      3593      3596      3590      3589      3591      3590      3589      3593
      3591      3589      3593      3593      3596      3597      3593      3596      3598
      3593      3596      3599      3594      3593      3595      3594      3593      3596
      3595      3593      3596      3596      3599      3600      3596      3599      3601
      3596      3599      3602      3597      3596      3598      3597      3596      3599
      3598      3596      3599      3599      3602      3603      3599      3602      3604
      3599      3602      3605      3600      3599      3601      3600      3599      3602
      3601      3599      3602      3602      3605      3606      3602      3605      3607
      3602      3605      3608      3603      3602      3604      3603      3602      3605
      3604      3602      3605      3605      3608      3609      3605      3608      3610
      3605      3608      3611      3606      3605      3607      3606      3605      3608
      3607      3605      3608      3608      3611      3612      3608      3611      3613
      3608      3611      3614      3609      3608      3610      3609      3608      3611
      3610      3608      3611      3611      3614      3615      3611      3614      3616
      3611      3614      3617      3612      3611      3613      3612      3611      3614
      3613      3611      3614      3614      3617      3618      3614      3617      3619
      3614      3617      3620      3615      3614      3616      3615      3614      3617
      3616      3614      3617      3617      3620      3621      3617      3620      3622
      3617      3620      3623      3618      3617      3619      3618      3617      3620
      3619      3617      3620      3620      3623      3624      3620      3623      3625
      3620      3623      3626      3621      3620      3622      3621      3620      3623
      3622      3620      3623      3624      3623      3625      3624      3623      3626
      3625      3623      3626      3627      3630      3633      3627      3630      3634
      3628      3627      3629      3628      3627      3630      3629      3627      3630
      3630      3633      3631      3630      3634      3635      3630      3634      3636
      3630      3634      3637      3631      3640      3637      3631      3640      3641
      3631      3640      3642      3631      3643      3644      3631      3643      3645
      3631      3643      3647      3632      3631      3633      3632      3631      3640
      3632      3631      3643      3633      3630      3634      3633      3631      3640
      3633      3631      3643      3634      3637      3638      3634      3637      3639
      3634      3637      3640      3635      3634      3636      3635      3634      3637
      3636      3634      3637      3637      3639      3655      3637      3640      3641
      3637      3640      3642      3638      3637      3639      3638      3637      3640
      3639      3637      3640      3639      3655      3652      3639      3655      3658
      3639      3655      3659      3640      3631      3643      3640      3642      3679
      3641      3640      3642      3642      3679      3680      3642      3679      3683
      3642      3679      3684      3643      3645      3646      3643      3647      3648
      3643      3647      3649      3643      3647      3650      3644      3643      3645
      3644      3643      3647      3645      3643      3647      3647      3650      3651
      3648      3647      3649      3648      3647      3650      3649      3647      3650
      3652      3655      3658      3652      3655      3659      3653      3652      3654
      3653      3652      3655      3654      3652      3655      3655      3658      3656
      3655      3659      3660      3655      3659      3661      3655      3659      3662
      3656      3666      3662      3656      3666      3667      3656      3666      3668
      3656      3670      3671      3656      3670      3672      3656      3670      3674
      3657      3656      3658      3657      3656      3666      3657      3656      3670
      3658      3655      3659      3658      3656      3666      3658      3656      3670
      3659      3662      3663      3659      3662      3664      3659      3662      3666
      3660      3659      3661      3660      3659      3662      3661      3659      3662
      3662      3664      3665      3662      3666      3667      3662      3666      3668
      3663      3662      3664      3663      3662      3666      3664      3662      3666
      3666      3656      3670      3666      3668      3669      3667      3666      3668
      3670      3672      3673      3670      3674      3675      3670      3674      3676
      3670      3674      3677      3671      3670      3672      3671      3670      3674
      3672      3670      3674      3674      3677      3678      3675      3674      3676
      3675      3674      3677      3676      3674      3677      3679      3683      3681
      3679      3684      3685      3679      3684      3686      3679      3684      3688
      3680      3679      3683      3680      3679      3684      3681      3691      3688
      3681      3691      3692      3681      3691      3693      3681      3698      3699
      3681      3698      3700      3681      3698      3702      3682      3681      3683
      3682      3681      3691      3682      3681      3698      3683      3679      3684
      3683      3681      3691      3683      3681      3698      3684      3686      3687
      3684      3688      3689      3684      3688      3690      3684      3688      3691
      3685      3684      3686      3685      3684      3688      3686      3684      3688
      3688      3690      3707      3688      3691      3692      3688      3691      3693
      3689      3688      3690      3689      3688      3691      3690      3688      3691
      3690      3707      3708      3690      3707      3711      3690      3707      3712
      3691      3681      3698      3691      3693      3694      3692      3691      3693
      3693      3694      3695      3693      3694      3696      3693      3694      3697
      3695      3694      3696      3695      3694      3697      3696      3694      3697
      3698      3700      3701      3698      3702      3703      3698      3702      3704
      3698      3702      3705      3699      3698      3700      3699      3698      3702
      3700      3698      3702      3702      3705      3706      3703      3702      3704
      3703      3702      3705      3704      3702      3705      3707      3711      3709
      3707      3712      3713      3707      3712      3714      3707      3712      3716
      3708      3707      3711      3708      3707      3712      3709      3719      3716
      3709      3719      3720      3709      3719      3721      3709      3726      3727
      3709      3726      3728      3709      3726      3730      3710      3709      3711
      3710      3709      3719      3710      3709      3726      3711      3707      3712
      3711      3709      3719      3711      3709      3726      3712      3714      3715
      3712      3716      3717      3712      3716      3718      3712      3716      3719
      3713      3712      3714      3713      3712      3716      3714      3712      3716
      3716      3718      3760      3716      3719      3720      3716      3719      3721
      3717      3716      3718      3717      3716      3719      3718      3716      3719
      3718      3760      3761      3718      3760      3764      3718      3760      3765
      3719      3709      3726      3719      3721      3722      3720      3719      3721
      3721      3722      3723      3721      3722      3724      3721      3722      3725
      3723      3722      3724      3723      3722      3725      3724      3722      3725
      3726      3728      3729      3726      3730      3731      3726      3730      3732
      3726      3730      3733      3727      3726      3728      3727      3726      3730
      3728      3726      3730      3730      3733      3734      3731      3730      3732
      3731      3730      3733      3732      3730      3733      3733      3734      3735
      3733      3734      3738      3733      3734      3739      3734      3738      3736
      3734      3739      3740      3734      3739      3741      3734      3739      3743
      3735      3734      3738      3735      3734      3739      3736      3747      3743
      3736      3747      3748      3736      3747      3749      3736      3751      3752
      3736      3751      3753      3736      3751      3755      3737      3736      3738
      3737      3736      3747      3737      3736      3751      3738      3734      3739
      3738      3736      3747      3738      3736      3751      3739      3741      3742
      3739      3743      3744      3739      3743      3745      3739      3743      3747
      3740      3739      3741      3740      3739      3743      3741      3739      3743
      3743      3745      3746      3743      3747      3748      3743      3747      3749
      3744      3743      3745      3744      3743      3747      3745      3743      3747
      3747      3736      3751      3747      3749      3750      3748      3747      3749
      3751      3753      3754      3751      3755      3756      3751      3755      3757
      3751      3755      3758      3752      3751      3753      3752      3751      3755
      3753      3751      3755      3755      3758      3759      3756      3755      3757
      3756      3755      3758      3757      3755      3758      3760      3764      3762
      3760      3765      3766      3760      3765      3767      3760      3765      3769
      3761      3760      3764      3761      3760      3765      3762      3772      3769
      3762      3772      3773      3762      3772      3774      3762      3776      3777
      3762      3776      3778      3762      3776      3779      3763      3762      3764
      3763      3762      3772      3763      3762      3776      3764      3760      3765
      3764      3762      3772      3764      3762      3776      3765      3767      3768
      3765      3769      3770      3765      3769      3771      3765      3769      3772
      3766      3765      3767      3766      3765      3769      3767      3765      3769
      3769      3771      3781      3769      3772      3773      3769      3772      3774
      3770      3769      3771      3770      3769      3772      3771      3769      3772
      3771      3781      3782      3771      3781      3785      3771      3781      3786
      3772      3762      3776      3772      3774      3775      3773      3772      3774
      3776      3779      3780      3777      3776      3778      3777      3776      3779
      3778      3776      3779      3781      3785      3783      3781      3786      3787
      3781      3786      3788      3781      3786      3789      3782      3781      3785
      3782      3781      3786      3783      3792      3789      3783      3792      3793
      3783      3792      3794      3783      3796      3797      3783      3796      3798
      3783      3796      3799      3784      3783      3785      3784      3783      3792
      3784      3783      3796      3785      3781      3786      3785      3783      3792
      3785      3783      3796      3786      3788      3801      3786      3789      3790
      3786      3789      3791      3786      3789      3792      3787      3786      3788
      3787      3786      3789      3788      3786      3789      3788      3801      3802
      3788      3801      3805      3788      3801      3806      3789      3791      3844
      3789      3792      3793      3789      3792      3794      3790      3789      3791
      3790      3789      3792      3791      3789      3792      3791      3844      3845
      3791      3844      3848      3791      3844      3849      3792      3783      3796
      3792      3794      3795      3793      3792      3794      3796      3799      3800
      3797      3796      3798      3797      3796      3799      3798      3796      3799
      3801      3805      3803      3801      3806      3807      3801      3806      3808
      3801      3806      3809      3802      3801      3805      3802      3801      3806
      3803      3813      3809      3803      3813      3814      3803      3813      3815
      3803      3817      3818      3803      3817      3819      3803      3817      3820
      3804      3803      3805      3804      3803      3813      3804      3803      3817
      3805      3801      3806      3805      3803      3813      3805      3803      3817
      3806      3808      3822      3806      3809      3810      3806      3809      3811
      3806      3809      3813      3807      3806      3808      3807      3806      3809
      3808      3806      3809      3808      3822      3823      3808      3822      3826
      3808      3822      3827      3809      3811      3812      3809      3813      3814
      3809      3813      3815      3810      3809      3811      3810      3809      3813
      3811      3809      3813      3813      3803      3817      3813      3815      3816
      3814      3813      3815      3817      3820      3821      3818      3817      3819
      3818      3817      3820      3819      3817      3820      3822      3826      3824
      3822      3827      3828      3822      3827      3829      3822      3827      3831
      3823      3822      3826      3823      3822      3827      3824      3835      3831
      3824      3835      3836      3824      3835      3837      3824      3839      3840
      3824      3839      3841      3824      3839      3842      3825      3824      3826
      3825      3824      3835      3825      3824      3839      3826      3822      3827
      3826      3824      3835      3826      3824      3839      3827      3829      3830
      3827      3831      3832      3827      3831      3833      3827      3831      3835
      3828      3827      3829      3828      3827      3831      3829      3827      3831
      3831      3833      3834      3831      3835      3836      3831      3835      3837
      3832      3831      3833      3832      3831      3835      3833      3831      3835
      3835      3824      3839      3835      3837      3838      3836      3835      3837
      3839      3842      3843      3840      3839      3841      3840      3839      3842
      3841      3839      3842      3844      3848      3846      3844      3849      3850
      3844      3849      3851      3844      3849      3853      3845      3844      3848
      3845      3844      3849      3846      3856      3853      3846      3856      3857
      3846      3856      3858      3846      3860      3861      3846      3860      3862
      3846      3860      3863      3847      3846      3848      3847      3846      3856
      3847      3846      3860      3848      3844      3849      3848      3846      3856
      3848      3846      3860      3849      3851      3852      3849      3853      3854
      3849      3853      3855      3849      3853      3856      3850      3849      3851
      3850      3849      3853      3851      3849      3853      3853      3855      3865
      3853      3856      3857      3853      3856      3858      3854      3853      3855
      3854      3853      3856      3855      3853      3856      3855      3865      3866
      3855      3865      3869      3855      3865      3870      3856      3846      3860
      3856      3858      3859      3857      3856      3858      3860      3863      3864
      3861      3860      3862      3861      3860      3863      3862      3860      3863
      3865      3869      3867      3865      3870      3871      3865      3870      3872
      3865      3870      3880      3866      3865      3869      3866      3865      3870
      3867      3883      3880      3867      3883      3884      3867      3883      3885
      3867      3887      3888      3867      3887      3889      3867      3887      3890
      3868      3867      3869      3868      3867      3883      3868      3867      3887
      3869      3865      3870      3869      3867      3883      3869      3867      3887
      3870      3872      3873      3870      3872      3874      3870      3880      3881
      3870      3880      3882      3870      3880      3883      3871      3870      3872
      3871      3870      3880      3872      3870      3880      3872      3874      3875
      3872      3874      3876      3873      3872      3874      3874      3876      3877
      3874      3876      3878      3874      3876      3879      3875      3874      3876
      3877      3876      3878      3877      3876      3879      3878      3876      3879
      3880      3882      3892      3880      3883      3884      3880      3883      3885
      3881      3880      3882      3881      3880      3883      3882      3880      3883
      3882      3892      3893      3882      3892      3896      3882      3892      3897
      3883      3867      3887      3883      3885      3886      3884      3883      3885
      3887      3890      3891      3888      3887      3889      3888      3887      3890
      3889      3887      3890      3892      3896      3894      3892      3897      3898
      3892      3897      3899      3892      3897      3900      3893      3892      3896
      3893      3892      3897      3894      3904      3900      3894      3904      3905
      3894      3904      3906      3894      3908      3909      3894      3908      3910
      3894      3908      3911      3895      3894      3896      3895      3894      3904
      3895      3894      3908      3896      3892      3897      3896      3894      3904
      3896      3894      3908      3897      3899      3913      3897      3900      3901
      3897      3900      3902      3897      3900      3904      3898      3897      3899
      3898      3897      3900      3899      3897      3900      3899      3913      3914
      3899      3913      3917      3899      3913      3918      3900      3902      3903
      3900      3904      3905      3900      3904      3906      3901      3900      3902
      3901      3900      3904      3902      3900      3904      3904      3894      3908
      3904      3906      3907      3905      3904      3906      3908      3911      3912
      3909      3908      3910      3909      3908      3911      3910      3908      3911
      3913      3917      3915      3913      3918      3919      3913      3918      3920
      3913      3918      3921      3914      3913      3917      3914      3913      3918
      3915      3925      3921      3915      3925      3926      3915      3925      3927
      3915      3929      3930      3915      3929      3931      3915      3929      3932
      3916      3915      3917      3916      3915      3925      3916      3915      3929
      3917      3913      3918      3917      3915      3925      3917      3915      3929
      3918      3920      3933      3918      3921      3922      3918      3921      3923
      3918      3921      3925      3919      3918      3920      3919      3918      3921
      3920      3918      3921      3920      3933      3934      3920      3933      3937
      3920      3933      3938      3921      3923      3924      3921      3925      3926
      3921      3925      3927      3922      3921      3923      3922      3921      3925
      3923      3921      3925      3925      3915      3929      3925      3927      3928
      3926      3925      3927      3930      3929      3931      3930      3929      3932
      3931      3929      3932      3933      3937      3935      3933      3938      3939
      3933      3938      3940      3933      3938      3941      3934      3933      3937
      3934      3933      3938      3935      3944      3941      3935      3944      3945
      3935      3944      3946      3935      3948      3949      3935      3948      3950
      3935      3948      3951      3936      3935      3937      3936      3935      3944
      3936      3935      3948      3937      3933      3938      3937      3935      3944
      3937      3935      3948      3938      3940      3952      3938      3941      3942
      3938      3941      3943      3938      3941      3944      3939      3938      3940
      3939      3938      3941      3940      3938      3941      3940      3952      3953
      3940      3952      3956      3940      3952      3957      3941      3943      3980
      3941      3944      3945      3941      3944      3946      3942      3941      3943
      3942      3941      3944      3943      3941      3944      3943      3980      3981
      3943      3980      3984      3943      3980      3985      3944      3935      3948
      3944      3946      3947      3945      3944      3946      3949      3948      3950
      3949      3948      3951      3950      3948      3951      3952      3956      3954
      3952      3957      3958      3952      3957      3959      3952      3957      3967
      3953      3952      3956      3953      3952      3957      3954      3971      3967
      3954      3971      3972      3954      3971      3973      3954      3975      3976
      3954      3975      3977      3954      3975      3978      3955      3954      3956
      3955      3954      3971      3955      3954      3975      3956      3952      3957
      3956      3954      3971      3956      3954      3975      3957      3959      3960
      3957      3959      3961      3957      3967      3968      3957      3967      3969
      3957      3967      3971      3958      3957      3959      3958      3957      3967
      3959      3957      3967      3959      3961      3962      3959      3961      3963
      3960      3959      3961      3961      3963      3964      3961      3963      3965
      3961      3963      3966      3962      3961      3963      3964      3963      3965
      3964      3963      3966      3965      3963      3966      3967      3969      3970
      3967      3971      3972      3967      3971      3973      3968      3967      3969
      3968      3967      3971      3969      3967      3971      3971      3954      3975
      3971      3973      3974      3972      3971      3973      3975      3978      3979
      3976      3975      3977      3976      3975      3978      3977      3975      3978
      3980      3984      3982      3980      3985      3986      3980      3985      3987
      3980      3985      3995      3981      3980      3984      3981      3980      3985
      3982      3998      3995      3982      3998      3999      3982      3998      4000
      3982      4002      4003      3982      4002      4004      3982      4002      4005
      3983      3982      3984      3983      3982      3998      3983      3982      4002
      3984      3980      3985      3984      3982      3998      3984      3982      4002
      3985      3987      3988      3985      3987      3989      3985      3995      3996
      3985      3995      3997      3985      3995      3998      3986      3985      3987
      3986      3985      3995      3987      3985      3995      3987      3989      3990
      3987      3989      3991      3988      3987      3989      3989      3991      3992
      3989      3991      3993      3989      3991      3994      3990      3989      3991
      3992      3991      3993      3992      3991      3994      3993      3991      3994
      3995      3997      4007      3995      3998      3999      3995      3998      4000
      3996      3995      3997      3996      3995      3998      3997      3995      3998
      3997      4007      4008      3997      4007      4011      3997      4007      4012
      3998      3982      4002      3998      4000      4001      3999      3998      4000
      4002      4005      4006      4003      4002      4004      4003      4002      4005
      4004      4002      4005      4007      4011      4009      4007      4012      4013
      4007      4012      4014      4007      4012      4015      4008      4007      4011
      4008      4007      4012      4009      4019      4015      4009      4019      4020
      4009      4019      4021      4009      4023      4024      4009      4023      4025
      4009      4023      4026      4010      4009      4011      4010      4009      4019
      4010      4009      4023      4011      4007      4012      4011      4009      4019
      4011      4009      4023      4012      4014      4028      4012      4015      4016
      4012      4015      4017      4012      4015      4019      4013      4012      4014
      4013      4012      4015      4014      4012      4015      4014      4028      4029
      4014      4028      4032      4014      4028      4033      4015      4017      4018
      4015      4019      4020      4015      4019      4021      4016      4015      4017
      4016      4015      4019      4017      4015      4019      4019      4009      4023
      4019      4021      4022      4020      4019      4021      4023      4026      4027
      4024      4023      4025      4024      4023      4026      4025      4023      4026
      4028      4032      4030      4028      4033      4034      4028      4033      4035
      4028      4033      4036      4029      4028      4032      4029      4028      4033
      4030      4040      4036      4030      4040      4041      4030      4040      4042
      4030      4044      4045      4030      4044      4046      4030      4044      4047
      4031      4030      4032      4031      4030      4040      4031      4030      4044
      4032      4028      4033      4032      4030      4040      4032      4030      4044
      4033      4035      4048      4033      4036      4037      4033      4036      4038
      4033      4036      4040      4034      4033      4035      4034      4033      4036
      4035      4033      4036      4035      4048      4049      4035      4048      4052
      4035      4048      4053      4036      4038      4039      4036      4040      4041
      4036      4040      4042      4037      4036      4038      4037      4036      4040
      4038      4036      4040      4040      4030      4044      4040      4042      4043
      4041      4040      4042      4045      4044      4046      4045      4044      4047
      4046      4044      4047      4048      4052      4050      4048      4053      4054
      4048      4053      4055      4048      4053      4056      4049      4048      4052
      4049      4048      4053      4050      4059      4056      4050      4059      4060
      4050      4059      4061      4050      4063      4064      4050      4063      4065
      4050      4063      4066      4051      4050      4052      4051      4050      4059
      4051      4050      4063      4052      4048      4053      4052      4050      4059
      4052      4050      4063      4053      4055      4067      4053      4056      4057
      4053      4056      4058      4053      4056      4059      4054      4053      4055
      4054      4053      4056      4055      4053      4056      4055      4067      4068
      4055      4067      4071      4055      4067      4072      4056      4058      4095
      4056      4059      4060      4056      4059      4061      4057      4056      4058
      4057      4056      4059      4058      4056      4059      4058      4095      4096
      4058      4095      4099      4058      4095      4100      4059      4050      4063
      4059      4061      4062      4060      4059      4061      4064      4063      4065
      4064      4063      4066      4065      4063      4066      4067      4071      4069
      4067      4072      4073      4067      4072      4074      4067      4072      4082
      4068      4067      4071      4068      4067      4072      4069      4086      4082
      4069      4086      4087      4069      4086      4088      4069      4090      4091
      4069      4090      4092      4069      4090      4093      4070      4069      4071
      4070      4069      4086      4070      4069      4090      4071      4067      4072
      4071      4069      4086      4071      4069      4090      4072      4074      4075
      4072      4074      4076      4072      4082      4083      4072      4082      4084
      4072      4082      4086      4073      4072      4074      4073      4072      4082
      4074      4072      4082      4074      4076      4077      4074      4076      4078
      4075      4074      4076      4076      4078      4079      4076      4078      4080
      4076      4078      4081      4077      4076      4078      4079      4078      4080
      4079      4078      4081      4080      4078      4081      4082      4084      4085
      4082      4086      4087      4082      4086      4088      4083      4082      4084
      4083      4082      4086      4084      4082      4086      4086      4069      4090
      4086      4088      4089      4087      4086      4088      4090      4093      4094
      4091      4090      4092      4091      4090      4093      4092      4090      4093
      4095      4099      4097      4095      4100      4101      4095      4100      4102
      4095      4100      4110      4096      4095      4099      4096      4095      4100
      4097      4113      4110      4097      4113      4114      4097      4113      4115
      4097      4117      4118      4097      4117      4119      4097      4117      4120
      4098      4097      4099      4098      4097      4113      4098      4097      4117
      4099      4095      4100      4099      4097      4113      4099      4097      4117
      4100      4102      4103      4100      4102      4104      4100      4110      4111
      4100      4110      4112      4100      4110      4113      4101      4100      4102
      4101      4100      4110      4102      4100      4110      4102      4104      4105
      4102      4104      4106      4103      4102      4104      4104      4106      4107
      4104      4106      4108      4104      4106      4109      4105      4104      4106
      4107      4106      4108      4107      4106      4109      4108      4106      4109
      4110      4112      4122      4110      4113      4114      4110      4113      4115
      4111      4110      4112      4111      4110      4113      4112      4110      4113
      4112      4122      4123      4112      4122      4126      4112      4122      4127
      4113      4097      4117      4113      4115      4116      4114      4113      4115
      4117      4120      4121      4118      4117      4119      4118      4117      4120
      4119      4117      4120      4122      4126      4124      4122      4127      4128
      4122      4127      4129      4122      4127      4130      4123      4122      4126
      4123      4122      4127      4124      4134      4130      4124      4134      4135
      4124      4134      4136      4124      4138      4139      4124      4138      4140
      4124      4138      4141      4125      4124      4126      4125      4124      4134
      4125      4124      4138      4126      4122      4127      4126      4124      4134
      4126      4124      4138      4127      4129      4143      4127      4130      4131
      4127      4130      4132      4127      4130      4134      4128      4127      4129
      4128      4127      4130      4129      4127      4130      4129      4143      4144
      4129      4143      4147      4129      4143      4148      4130      4132      4133
      4130      4134      4135      4130      4134      4136      4131      4130      4132
      4131      4130      4134      4132      4130      4134      4134      4124      4138
      4134      4136      4137      4135      4134      4136      4138      4141      4142
      4139      4138      4140      4139      4138      4141      4140      4138      4141
      4143      4147      4145      4143      4148      4149      4143      4148      4150
      4143      4148      4151      4144      4143      4147      4144      4143      4148
      4145      4155      4151      4145      4155      4156      4145      4155      4157
      4145      4159      4160      4145      4159      4161      4145      4159      4162
      4146      4145      4147      4146      4145      4155      4146      4145      4159
      4147      4143      4148      4147      4145      4155      4147      4145      4159
      4148      4150      4163      4148      4151      4152      4148      4151      4153
      4148      4151      4155      4149      4148      4150      4149      4148      4151
      4150      4148      4151      4150      4163      4164      4150      4163      4167
      4150      4163      4168      4151      4153      4154      4151      4155      4156
      4151      4155      4157      4152      4151      4153      4152      4151      4155
      4153      4151      4155      4155      4145      4159      4155      4157      4158
      4156      4155      4157      4160      4159      4161      4160      4159      4162
      4161      4159      4162      4163      4167      4165      4163      4168      4169
      4163      4168      4170      4163      4168      4171      4164      4163      4167
      4164      4163      4168      4165      4174      4171      4165      4174      4175
      4165      4174      4176      4165      4178      4179      4165      4178      4180
      4165      4178      4181      4166      4165      4167      4166      4165      4174
      4166      4165      4178      4167      4163      4168      4167      4165      4174
      4167      4165      4178      4168      4170      4182      4168      4171      4172
      4168      4171      4173      4168      4171      4174      4169      4168      4170
      4169      4168      4171      4170      4168      4171      4170      4182      4183
      4170      4182      4186      4170      4182      4187      4171      4173      4210
      4171      4174      4175      4171      4174      4176      4172      4171      4173
      4172      4171      4174      4173      4171      4174      4173      4210      4211
      4173      4210      4214      4173      4210      4215      4174      4165      4178
      4174      4176      4177      4175      4174      4176      4179      4178      4180
      4179      4178      4181      4180      4178      4181      4182      4186      4184
      4182      4187      4188      4182      4187      4189      4182      4187      4197
      4183      4182      4186      4183      4182      4187      4184      4201      4197
      4184      4201      4202      4184      4201      4203      4184      4205      4206
      4184      4205      4207      4184      4205      4208      4185      4184      4186
      4185      4184      4201      4185      4184      4205      4186      4182      4187
      4186      4184      4201      4186      4184      4205      4187      4189      4190
      4187      4189      4191      4187      4197      4198      4187      4197      4199
      4187      4197      4201      4188      4187      4189      4188      4187      4197
      4189      4187      4197      4189      4191      4192      4189      4191      4193
      4190      4189      4191      4191      4193      4194      4191      4193      4195
      4191      4193      4196      4192      4191      4193      4194      4193      4195
      4194      4193      4196      4195      4193      4196      4197      4199      4200
      4197      4201      4202      4197      4201      4203      4198      4197      4199
      4198      4197      4201      4199      4197      4201      4201      4184      4205
      4201      4203      4204      4202      4201      4203      4205      4208      4209
      4206      4205      4207      4206      4205      4208      4207      4205      4208
      4210      4214      4212      4210      4215      4216      4210      4215      4217
      4210      4215      4225      4211      4210      4214      4211      4210      4215
      4212      4228      4225      4212      4228      4229      4212      4228      4230
      4212      4232      4233      4212      4232      4234      4212      4232      4235
      4213      4212      4214      4213      4212      4228      4213      4212      4232
      4214      4210      4215      4214      4212      4228      4214      4212      4232
      4215      4217      4218      4215      4217      4219      4215      4225      4226
      4215      4225      4227      4215      4225      4228      4216      4215      4217
      4216      4215      4225      4217      4215      4225      4217      4219      4220
      4217      4219      4221      4218      4217      4219      4219      4221      4222
      4219      4221      4223      4219      4221      4224      4220      4219      4221
      4222      4221      4223      4222      4221      4224      4223      4221      4224
      4225      4227      4237      4225      4228      4229      4225      4228      4230
      4226      4225      4227      4226      4225      4228      4227      4225      4228
      4227      4237      4238      4227      4237      4241      4227      4237      4242
      4228      4212      4232      4228      4230      4231      4229      4228      4230
      4232      4235      4236      4233      4232      4234      4233      4232      4235
      4234      4232      4235      4237      4241      4239      4237      4242      4243
      4237      4242      4244      4237      4242      4245      4238      4237      4241
      4238      4237      4242      4239      4249      4245      4239      4249      4250
      4239      4249      4251      4239      4253      4254      4239      4253      4255
      4239      4253      4256      4240      4239      4241      4240      4239      4249
      4240      4239      4253      4241      4237      4242      4241      4239      4249
      4241      4239      4253      4242      4244      4258      4242      4245      4246
      4242      4245      4247      4242      4245      4249      4243      4242      4244
      4243      4242      4245      4244      4242      4245      4244      4258      4259
      4244      4258      4262      4244      4258      4263      4245      4247      4248
      4245      4249      4250      4245      4249      4251      4246      4245      4247
      4246      4245      4249      4247      4245      4249      4249      4239      4253
      4249      4251      4252      4250      4249      4251      4253      4256      4257
      4254      4253      4255      4254      4253      4256      4255      4253      4256
      4258      4262      4260      4258      4263      4264      4258      4263      4265
      4258      4263      4266      4259      4258      4262      4259      4258      4263
      4260      4270      4266      4260      4270      4271      4260      4270      4272
      4260      4274      4275      4260      4274      4276      4260      4274      4277
      4261      4260      4262      4261      4260      4270      4261      4260      4274
      4262      4258      4263      4262      4260      4270      4262      4260      4274
      4263      4265      4278      4263      4266      4267      4263      4266      4268
      4263      4266      4270      4264      4263      4265      4264      4263      4266
      4265      4263      4266      4265      4278      4279      4265      4278      4282
      4265      4278      4283      4266      4268      4269      4266      4270      4271
      4266      4270      4272      4267      4266      4268      4267      4266      4270
      4268      4266      4270      4270      4260      4274      4270      4272      4273
      4271      4270      4272      4275      4274      4276      4275      4274      4277
      4276      4274      4277      4278      4282      4280      4278      4283      4284
      4278      4283      4285      4278      4283      4286      4279      4278      4282
      4279      4278      4283      4280      4289      4286      4280      4289      4290
      4280      4289      4291      4280      4293      4294      4280      4293      4295
      4280      4293      4296      4281      4280      4282      4281      4280      4289
      4281      4280      4293      4282      4278      4283      4282      4280      4289
      4282      4280      4293      4283      4285      4297      4283      4286      4287
      4283      4286      4288      4283      4286      4289      4284      4283      4285
      4284      4283      4286      4285      4283      4286      4285      4297      4298
      4285      4297      4301      4285      4297      4302      4286      4288      4325
      4286      4289      4290      4286      4289      4291      4287      4286      4288
      4287      4286      4289      4288      4286      4289      4288      4325      4326
      4288      4325      4329      4288      4325      4330      4289      4280      4293
      4289      4291      4292      4290      4289      4291      4294      4293      4295
      4294      4293      4296      4295      4293      4296      4297      4301      4299
      4297      4302      4303      4297      4302      4304      4297      4302      4312
      4298      4297      4301      4298      4297      4302      4299      4316      4312
      4299      4316      4317      4299      4316      4318      4299      4320      4321
      4299      4320      4322      4299      4320      4323      4300      4299      4301
      4300      4299      4316      4300      4299      4320      4301      4297      4302
      4301      4299      4316      4301      4299      4320      4302      4304      4305
      4302      4304      4306      4302      4312      4313      4302      4312      4314
      4302      4312      4316      4303      4302      4304      4303      4302      4312
      4304      4302      4312      4304      4306      4307      4304      4306      4308
      4305      4304      4306      4306      4308      4309      4306      4308      4310
      4306      4308      4311      4307      4306      4308      4309      4308      4310
      4309      4308      4311      4310      4308      4311      4312      4314      4315
      4312      4316      4317      4312      4316      4318      4313      4312      4314
      4313      4312      4316      4314      4312      4316      4316      4299      4320
      4316      4318      4319      4317      4316      4318      4320      4323      4324
      4321      4320      4322      4321      4320      4323      4322      4320      4323
      4325      4329      4327      4325      4330      4331      4325      4330      4332
      4325      4330      4340      4326      4325      4329      4326      4325      4330
      4327      4343      4340      4327      4343      4344      4327      4343      4345
      4327      4347      4348      4327      4347      4349      4327      4347      4350
      4328      4327      4329      4328      4327      4343      4328      4327      4347
      4329      4325      4330      4329      4327      4343      4329      4327      4347
      4330      4332      4333      4330      4332      4334      4330      4340      4341
      4330      4340      4342      4330      4340      4343      4331      4330      4332
      4331      4330      4340      4332      4330      4340      4332      4334      4335
      4332      4334      4336      4333      4332      4334      4334      4336      4337
      4334      4336      4338      4334      4336      4339      4335      4334      4336
      4337      4336      4338      4337      4336      4339      4338      4336      4339
      4340      4342      4352      4340      4343      4344      4340      4343      4345
      4341      4340      4342      4341      4340      4343      4342      4340      4343
      4342      4352      4353      4342      4352      4356      4342      4352      4357
      4343      4327      4347      4343      4345      4346      4344      4343      4345
      4347      4350      4351      4348      4347      4349      4348      4347      4350
      4349      4347      4350      4352      4356      4354      4352      4357      4358
      4352      4357      4359      4352      4357      4360      4353      4352      4356
      4353      4352      4357      4354      4364      4360      4354      4364      4365
      4354      4364      4366      4354      4368      4369      4354      4368      4370
      4354      4368      4371      4355      4354      4356      4355      4354      4364
      4355      4354      4368      4356      4352      4357      4356      4354      4364
      4356      4354      4368      4357      4359      4373      4357      4360      4361
      4357      4360      4362      4357      4360      4364      4358      4357      4359
      4358      4357      4360      4359      4357      4360      4359      4373      4374
      4359      4373      4377      4359      4373      4378      4360      4362      4363
      4360      4364      4365      4360      4364      4366      4361      4360      4362
      4361      4360      4364      4362      4360      4364      4364      4354      4368
      4364      4366      4367      4365      4364      4366      4368      4371      4372
      4369      4368      4370      4369      4368      4371      4370      4368      4371
      4373      4377      4375      4373      4378      4379      4373      4378      4380
      4373      4378      4381      4374      4373      4377      4374      4373      4378
      4375      4385      4381      4375      4385      4386      4375      4385      4387
      4375      4389      4390      4375      4389      4391      4375      4389      4392
      4376      4375      4377      4376      4375      4385      4376      4375      4389
      4377      4373      4378      4377      4375      4385      4377      4375      4389
      4378      4380      4393      4378      4381      4382      4378      4381      4383
      4378      4381      4385      4379      4378      4380      4379      4378      4381
      4380      4378      4381      4380      4393      4394      4380      4393      4397
      4380      4393      4398      4381      4383      4384      4381      4385      4386
      4381      4385      4387      4382      4381      4383      4382      4381      4385
      4383      4381      4385      4385      4375      4389      4385      4387      4388
      4386      4385      4387      4390      4389      4391      4390      4389      4392
      4391      4389      4392      4393      4397      4395      4393      4398      4399
      4393      4398      4400      4393      4398      4401      4394      4393      4397
      4394      4393      4398      4395      4405      4401      4395      4405      4406
      4395      4405      4407      4395      4409      4410      4395      4409      4411
      4395      4409      4412      4396      4395      4397      4396      4395      4405
      4396      4395      4409      4397      4393      4398      4397      4395      4405
      4397      4395      4409      4398      4400      4413      4398      4401      4402
      4398      4401      4403      4398      4401      4405      4399      4398      4400
      4399      4398      4401      4400      4398      4401      4400      4413      4414
      4400      4413      4417      4400      4413      4418      4401      4403      4404
      4401      4405      4406      4401      4405      4407      4402      4401      4403
      4402      4401      4405      4403      4401      4405      4405      4395      4409
      4405      4407      4408      4406      4405      4407      4410      4409      4411
      4410      4409      4412      4411      4409      4412      4413      4417      4415
      4413      4418      4419      4413      4418      4420      4413      4418      4428
      4414      4413      4417      4414      4413      4418      4415      4432      4428
      4415      4432      4433      4415      4432      4434      4415      4436      4437
      4415      4436      4438      4415      4436      4439      4416      4415      4417
      4416      4415      4432      4416      4415      4436      4417      4413      4418
      4417      4415      4432      4417      4415      4436      4418      4420      4421
      4418      4420      4422      4418      4428      4429      4418      4428      4430
      4418      4428      4432      4419      4418      4420      4419      4418      4428
      4420      4418      4428      4420      4422      4423      4420      4422      4424
      4421      4420      4422      4422      4424      4425      4422      4424      4426
      4422      4424      4427      4423      4422      4424      4425      4424      4426
      4425      4424      4427      4426      4424      4427      4428      4430      4431
      4428      4432      4433      4428      4432      4434      4429      4428      4430
      4429      4428      4432      4430      4428      4432      4432      4415      4436
      4432      4434      4435      4433      4432      4434      4436      4439      4440
      4437      4436      4438      4437      4436      4439      4438      4436      4439
      4441      4443      4442      4441      4443      4444      4441      4443      4445
      4442      4443      4444      4442      4443      4445      4442      4740      4737
      4442      4740      4743      4442      4740      4744      4443      4442      4740
      4443      4445      4446      4443      4445      4447      4443      4445      4454
      4444      4443      4445      4445      4446      4448      4445      4454      4455
      4445      4454      4456      4445      4454      4461      4446      4445      4447
      4446      4445      4454      4446      4448      4449      4446      4448      4450
      4446      4448      4469      4447      4445      4454      4448      4450      4451
      4448      4469      4461      4448      4469      4470      4448      4469      4471
      4449      4448      4450      4449      4448      4469      4450      4448      4469
      4450      4451      4452      4450      4451      4453      4450      4451      4477
      4451      4477      4473      4451      4477      4478      4451      4477      4479
      4452      4451      4453      4452      4451      4477      4453      4451      4477
      4454      4456      4457      4454      4461      4462      4454      4461      4463
      4454      4461      4469      4455      4454      4456      4455      4454      4461
      4456      4454      4461      4456      4457      4458      4456      4457      4459
      4456      4457      4460      4458      4457      4459      4458      4457      4460
      4459      4457      4460      4461      4462      4464      4461      4469      4470
      4461      4469      4471      4462      4461      4463      4462      4461      4469
      4462      4464      4465      4462      4464      4466      4463      4461      4469
      4464      4466      4467      4464      4466      4468      4464      4466      4499
      4465      4464      4466      4466      4499      4500      4466      4499      4501
      4466      4499      4544      4467      4466      4468      4467      4466      4499
      4468      4466      4499      4469      4471      4472      4469      4471      4578
      4470      4469      4471      4471      4578      4579      4471      4578      4580
      4472      4471      4578      4473      4475      4476      4473      4477      4478
      4473      4477      4479      4473      4487      4488      4473      4487      4489
      4473      4487      4495      4474      4473      4475      4474      4473      4477
      4474      4473      4487      4475      4473      4477      4475      4473      4487
      4477      4473      4487      4477      4479      4480      4478      4477      4479
      4479      4480      4481      4479      4480      4482      4479      4480      4495
      4480      4482      4486      4480      4495      4487      4480      4495      4496
      4480      4495      4497      4481      4480      4482      4481      4480      4495
      4482      4480      4495      4482      4486      4483      4482      4486      4484
      4482      4486      4485      4483      4486      4484      4483      4486      4485
      4484      4486      4485      4487      4489      4490      4487      4495      4496
      4487      4495      4497      4488      4487      4489      4488      4487      4495
      4489      4487      4495      4489      4490      4491      4489      4490      4492
      4490      4492      4493      4490      4492      4494      4490      4492      4656
      4491      4490      4492      4492      4656      4657      4492      4656      4658
      4492      4656      4660      4493      4492      4494      4493      4492      4656
      4494      4492      4656      4495      4497      4498      4495      4497      4694
      4496      4495      4497      4497      4694      4695      4497      4694      4696
      4498      4497      4694      4499      4501      4502      4499      4544      4545
      4499      4544      4546      4499      4544      4547      4500      4499      4501
      4500      4499      4544      4501      4499      4544      4501      4502      4503
      4501      4502      4504      4502      4504      4505      4502      4504      4506
      4502      4504      4507      4503      4502      4504      4504      4507      4508
      4504      4507      4509      4504      4507      4510      4505      4504      4506
      4505      4504      4507      4506      4504      4507      4507      4510      4511
      4507      4510      4512      4507      4510      4513      4508      4507      4509
      4508      4507      4510      4509      4507      4510      4510      4513      4514
      4510      4513      4515      4510      4513      4516      4511      4510      4512
      4511      4510      4513      4512      4510      4513      4513      4516      4517
      4513      4516      4518      4513      4516      4519      4514      4513      4515
      4514      4513      4516      4515      4513      4516      4516      4519      4520
      4516      4519      4521      4516      4519      4522      4517      4516      4518
      4517      4516      4519      4518      4516      4519      4519      4522      4523
      4519      4522      4524      4519      4522      4525      4520      4519      4521
      4520      4519      4522      4521      4519      4522      4522      4525      4526
      4522      4525      4527      4522      4525      4528      4523      4522      4524
      4523      4522      4525      4524      4522      4525      4525      4528      4529
      4525      4528      4530      4525      4528      4531      4526      4525      4527
      4526      4525      4528      4527      4525      4528      4528      4531      4532
      4528      4531      4533      4528      4531      4534      4529      4528      4530
      4529      4528      4531      4530      4528      4531      4531      4534      4535
      4531      4534      4536      4531      4534      4537      4532      4531      4533
      4532      4531      4534      4533      4531      4534      4534      4537      4538
      4534      4537      4539      4534      4537      4540      4535      4534      4536
      4535      4534      4537      4536      4534      4537      4537      4540      4541
      4537      4540      4542      4537      4540      4543      4538      4537      4539
      4538      4537      4540      4539      4537      4540      4541      4540      4542
      4541      4540      4543      4542      4540      4543      4544      4547      4548
      4544      4547      4549      4544      4547      4550      4545      4544      4546
      4545      4544      4547      4546      4544      4547      4547      4550      4551
      4547      4550      4552      4547      4550      4553      4548      4547      4549
      4548      4547      4550      4549      4547      4550      4550      4553      4554
      4550      4553      4555      4550      4553      4556      4551      4550      4552
      4551      4550      4553      4552      4550      4553      4553      4556      4557
      4553      4556      4558      4553      4556      4559      4554      4553      4555
      4554      4553      4556      4555      4553      4556      4556      4559      4560
      4556      4559      4561      4556      4559      4562      4557      4556      4558
      4557      4556      4559      4558      4556      4559      4559      4562      4563
      4559      4562      4564      4559      4562      4565      4560      4559      4561
      4560      4559      4562      4561      4559      4562      4562      4565      4566
      4562      4565      4567      4562      4565      4568      4563      4562      4564
      4563      4562      4565      4564      4562      4565      4565      4568      4569
      4565      4568      4570      4565      4568      4571      4566      4565      4567
      4566      4565      4568      4567      4565      4568      4568      4571      4572
      4568      4571      4573      4568      4571      4574      4569      4568      4570
      4569      4568      4571      4570      4568      4571      4571      4574      4575
      4571      4574      4576      4571      4574      4577      4572      4571      4573
      4572      4571      4574      4573      4571      4574      4575      4574      4576
      4575      4574      4577      4576      4574      4577      4578      4580      4581
      4578      4580      4582      4578      4580      4583      4579      4578      4580
      4580      4583      4584      4580      4583      4585      4580      4583      4622
      4581      4580      4582      4581      4580      4583      4582      4580      4583
      4583      4585      4586      4583      4622      4623      4583      4622      4624
      4583      4622      4625      4584      4583      4585      4584      4583      4622
      4585      4583      4622      4585      4586      4587      4585      4586      4588
      4586      4588      4589      4586      4588      4590      4586      4588      4591
      4587      4586      4588      4588      4591      4592      4588      4591      4593
      4588      4591      4594      4589      4588      4590      4589      4588      4591
      4590      4588      4591      4591      4594      4595      4591      4594      4596
      4591      4594      4597      4592      4591      4593      4592      4591      4594
      4593      4591      4594      4594      4597      4598      4594      4597      4599
      4594      4597      4600      4595      4594      4596      4595      4594      4597
      4596      4594      4597      4597      4600      4601      4597      4600      4602
      4597      4600      4603      4598      4597      4599      4598      4597      4600
      4599      4597      4600      4600      4603      4604      4600      4603      4605
      4600      4603      4606      4601      4600      4602      4601      4600      4603
      4602      4600      4603      4603      4606      4607      4603      4606      4608
      4603      4606      4609      4604      4603      4605      4604      4603      4606
      4605      4603      4606      4606      4609      4610      4606      4609      4611
      4606      4609      4612      4607      4606      4608      4607      4606      4609
      4608      4606      4609      4609      4612      4613      4609      4612      4614
      4609      4612      4615      4610      4609      4611      4610      4609      4612
      4611      4609      4612      4612      4615      4616      4612      4615      4617
      4612      4615      4618      4613      4612      4614      4613      4612      4615
      4614      4612      4615      4615      4618      4619      4615      4618      4620
      4615      4618      4621      4616      4615      4617      4616      4615      4618
      4617      4615      4618      4619      4618      4620      4619      4618      4621
      4620      4618      4621      4622      4625      4626      4622      4625      4627
      4622      4625      4628      4623      4622      4624      4623      4622      4625
      4624      4622      4625      4625      4628      4629      4625      4628      4630
      4625      4628      4631      4626      4625      4627      4626      4625      4628
      4627      4625      4628      4628      4631      4632      4628      4631      4633
      4628      4631      4634      4629      4628      4630      4629      4628      4631
      4630      4628      4631      4631      4634      4635      4631      4634      4636
      4631      4634      4637      4632      4631      4633      4632      4631      4634
      4633      4631      4634      4634      4637      4638      4634      4637      4639
      4634      4637      4640      4635      4634      4636      4635      4634      4637
      4636      4634      4637      4637      4640      4641      4637      4640      4642
      4637      4640      4643      4638      4637      4639      4638      4637      4640
      4639      4637      4640      4640      4643      4644      4640      4643      4645
      4640      4643      4646      4641      4640      4642      4641      4640      4643
      4642      4640      4643      4643      4646      4647      4643      4646      4648
      4643      4646      4649      4644      4643      4645      4644      4643      4646
      4645      4643      4646      4646      4649      4650      4646      4649      4651
      4646      4649      4652      4647      4646      4648      4647      4646      4649
      4648      4646      4649      4649      4652      4653      4649      4652      4654
      4649      4652      4655      4650      4649      4651      4650      4649      4652
      4651      4649      4652      4653      4652      4654      4653      4652      4655
      4654      4652      4655      4656      4658      4659      4656      4660      4661
      4656      4660      4662      4656      4660      4663      4657      4656      4658
      4657      4656      4660      4658      4656      4660      4660      4663      4664
      4660      4663      4665      4660      4663      4666      4661      4660      4662
      4661      4660      4663      4662      4660      4663      4663      4666      4667
      4663      4666      4668      4663      4666      4669      4664      4663      4665
      4664      4663      4666      4665      4663      4666      4666      4669      4670
      4666      4669      4671      4666      4669      4672      4667      4666      4668
      4667      4666      4669      4668      4666      4669      4669      4672      4673
      4669      4672      4674      4669      4672      4675      4670      4669      4671
      4670      4669      4672      4671      4669      4672      4672      4675      4676
      4672      4675      4677      4672      4675      4678      4673      4672      4674
      4673      4672      4675      4674      4672      4675      4675      4678      4679
      4675      4678      4680      4675      4678      4681      4676      4675      4677
      4676      4675      4678      4677      4675      4678      4678      4681      4682
      4678      4681      4683      4678      4681      4684      4679      4678      4680
      4679      4678      4681      4680      4678      4681      4681      4684      4685
      4681      4684      4686      4681      4684      4687      4682      4681      4683
      4682      4681      4684      4683      4681      4684      4684      4687      4688
      4684      4687      4689      4684      4687      4690      4685      4684      4686
      4685      4684      4687      4686      4684      4687      4687      4690      4691
      4687      4690      4692      4687      4690      4693      4688      4687      4689
      4688      4687      4690      4689      4687      4690      4691      4690      4692
      4691      4690      4693      4692      4690      4693      4694      4696      4697
      4694      4696      4698      4694      4696      4699      4695      4694      4696
      4696      4699      4700      4696      4699      4701      4696      4699      4703
      4697      4696      4698      4697      4696      4699      4698      4696      4699
      4699      4701      4702      4699      4703      4704      4699      4703      4705
      4699      4703      4706      4700      4699      4701      4700      4699      4703
      4701      4699      4703      4703      4706      4707      4703      4706      4708
      4703      4706      4709      4704      4703      4705      4704      4703      4706
      4705      4703      4706      4706      4709      4710      4706      4709      4711
      4706      4709      4712      4707      4706      4708      4707      4706      4709
      4708      4706      4709      4709      4712      4713      4709      4712      4714
      4709      4712      4715      4710      4709      4711      4710      4709      4712
      4711      4709      4712      4712      4715      4716      4712      4715      4717
      4712      4715      4718      4713      4712      4714      4713      4712      4715
      4714      4712      4715      4715      4718      4719      4715      4718      4720
      4715      4718      4721      4716      4715      4717      4716      4715      4718
      4717      4715      4718      4718      4721      4722      4718      4721      4723
      4718      4721      4724      4719      4718      4720      4719      4718      4721
      4720      4718      4721      4721      4724      4725      4721      4724      4726
      4721      4724      4727      4722      4721      4723      4722      4721      4724
      4723      4721      4724      4724      4727      4728      4724      4727      4729
      4724      4727      4730      4725      4724      4726      4725      4724      4727
      4726      4724      4727      4727      4730      4731      4727      4730      4732
      4727      4730      4733      4728      4727      4729      4728      4727      4730
      4729      4727      4730      4730      4733      4734      4730      4733      4735
      4730      4733      4736      4731      4730      4732      4731      4730      4733
      4732      4730      4733      4734      4733      4735      4734      4733      4736
      4735      4733      4736      4737      4740      4743      4737      4740      4744
      4738      4737      4739      4738      4737      4740      4739      4737      4740
      4740      4743      4741      4740      4744      4745      4740      4744      4746
      4740      4744      4747      4741      4750      4747      4741      4750      4751
      4741      4750      4752      4741      4753      4754      4741      4753      4755
      4741      4753      4757      4742      4741      4743      4742      4741      4750
      4742      4741      4753      4743      4740      4744      4743      4741      4750
      4743      4741      4753      4744      4747      4748      4744      4747      4749
      4744      4747      4750      4745      4744      4746      4745      4744      4747
      4746      4744      4747      4747      4749      4765      4747      4750      4751
      4747      4750      4752      4748      4747      4749      4748      4747      4750
      4749      4747      4750      4749      4765      4762      4749      4765      4768
      4749      4765      4769      4750      4741      4753      4750      4752      4789
      4751      4750      4752      4752      4789      4790      4752      4789      4793
      4752      4789      4794      4753      4755      4756      4753      4757      4758
      4753      4757      4759      4753      4757      4760      4754      4753      4755
      4754      4753      4757      4755      4753      4757      4757      4760      4761
      4758      4757      4759      4758      4757      4760      4759      4757      4760
      4762      4765      4768      4762      4765      4769      4763      4762      4764
      4763      4762      4765      4764      4762      4765      4765      4768      4766
      4765      4769      4770      4765      4769      4771      4765      4769      4772
      4766      4776      4772      4766      4776      4777      4766      4776      4778
      4766      4780      4781      4766      4780      4782      4766      4780      4784
      4767      4766      4768      4767      4766      4776      4767      4766      4780
      4768      4765      4769      4768      4766      4776      4768      4766      4780
      4769      4772      4773      4769      4772      4774      4769      4772      4776
      4770      4769      4771      4770      4769      4772      4771      4769      4772
      4772      4774      4775      4772      4776      4777      4772      4776      4778
      4773      4772      4774      4773      4772      4776      4774      4772      4776
      4776      4766      4780      4776      4778      4779      4777      4776      4778
      4780      4782      4783      4780      4784      4785      4780      4784      4786
      4780      4784      4787      4781      4780      4782      4781      4780      4784
      4782      4780      4784      4784      4787      4788      4785      4784      4786
      4785      4784      4787      4786      4784      4787      4789      4793      4791
      4789      4794      4795      4789      4794      4796      4789      4794      4798
      4790      4789      4793      4790      4789      4794      4791      4801      4798
      4791      4801      4802      4791      4801      4803      4791      4808      4809
      4791      4808      4810      4791      4808      4812      4792      4791      4793
      4792      4791      4801      4792      4791      4808      4793      4789      4794
      4793      4791      4801      4793      4791      4808      4794      4796      4797
      4794      4798      4799      4794      4798      4800      4794      4798      4801
      4795      4794      4796      4795      4794      4798      4796      4794      4798
      4798      4800      4817      4798      4801      4802      4798      4801      4803
      4799      4798      4800      4799      4798      4801      4800      4798      4801
      4800      4817      4818      4800      4817      4821      4800      4817      4822
      4801      4791      4808      4801      4803      4804      4802      4801      4803
      4803      4804      4805      4803      4804      4806      4803      4804      4807
      4805      4804      4806      4805      4804      4807      4806      4804      4807
      4808      4810      4811      4808      4812      4813      4808      4812      4814
      4808      4812      4815      4809      4808      4810      4809      4808      4812
      4810      4808      4812      4812      4815      4816      4813      4812      4814
      4813      4812      4815      4814      4812      4815      4817      4821      4819
      4817      4822      4823      4817      4822      4824      4817      4822      4826
      4818      4817      4821      4818      4817      4822      4819      4829      4826
      4819      4829      4830      4819      4829      4831      4819      4836      4837
      4819      4836      4838      4819      4836      4840      4820      4819      4821
      4820      4819      4829      4820      4819      4836      4821      4817      4822
      4821      4819      4829      4821      4819      4836      4822      4824      4825
      4822      4826      4827      4822      4826      4828      4822      4826      4829
      4823      4822      4824      4823      4822      4826      4824      4822      4826
      4826      4828      4870      4826      4829      4830      4826      4829      4831
      4827      4826      4828      4827      4826      4829      4828      4826      4829
      4828      4870      4871      4828      4870      4874      4828      4870      4875
      4829      4819      4836      4829      4831      4832      4830      4829      4831
      4831      4832      4833      4831      4832      4834      4831      4832      4835
      4833      4832      4834      4833      4832      4835      4834      4832      4835
      4836      4838      4839      4836      4840      4841      4836      4840      4842
      4836      4840      4843      4837      4836      4838      4837      4836      4840
      4838      4836      4840      4840      4843      4844      4841      4840      4842
      4841      4840      4843      4842      4840      4843      4843      4844      4845
      4843      4844      4848      4843      4844      4849      4844      4848      4846
      4844      4849      4850      4844      4849      4851      4844      4849      4853
      4845      4844      4848      4845      4844      4849      4846      4857      4853
      4846      4857      4858      4846      4857      4859      4846      4861      4862
      4846      4861      4863      4846      4861      4865      4847      4846      4848
      4847      4846      4857      4847      4846      4861      4848      4844      4849
      4848      4846      4857      4848      4846      4861      4849      4851      4852
      4849      4853      4854      4849      4853      4855      4849      4853      4857
      4850      4849      4851      4850      4849      4853      4851      4849      4853
      4853      4855      4856      4853      4857      4858      4853      4857      4859
      4854      4853      4855      4854      4853      4857      4855      4853      4857
      4857      4846      4861      4857      4859      4860      4858      4857      4859
      4861      4863      4864      4861      4865      4866      4861      4865      4867
      4861      4865      4868      4862      4861      4863      4862      4861      4865
      4863      4861      4865      4865      4868      4869      4866      4865      4867
      4866      4865      4868      4867      4865      4868      4870      4874      4872
      4870      4875      4876      4870      4875      4877      4870      4875      4879
      4871      4870      4874      4871      4870      4875      4872      4882      4879
      4872      4882      4883      4872      4882      4884      4872      4886      4887
      4872      4886      4888      4872      4886      4889      4873      4872      4874
      4873      4872      4882      4873      4872      4886      4874      4870      4875
      4874      4872      4882      4874      4872      4886      4875      4877      4878
      4875      4879      4880      4875      4879      4881      4875      4879      4882
      4876      4875      4877      4876      4875      4879      4877      4875      4879
      4879      4881      4891      4879      4882      4883      4879      4882      4884
      4880      4879      4881      4880      4879      4882      4881      4879      4882
      4881      4891      4892      4881      4891      4895      4881      4891      4896
      4882      4872      4886      4882      4884      4885      4883      4882      4884
      4886      4889      4890      4887      4886      4888      4887      4886      4889
      4888      4886      4889      4891      4895      4893      4891      4896      4897
      4891      4896      4898      4891      4896      4899      4892      4891      4895
      4892      4891      4896      4893      4902      4899      4893      4902      4903
      4893      4902      4904      4893      4906      4907      4893      4906      4908
      4893      4906      4909      4894      4893      4895      4894      4893      4902
      4894      4893      4906      4895      4891      4896      4895      4893      4902
      4895      4893      4906      4896      4898      4911      4896      4899      4900
      4896      4899      4901      4896      4899      4902      4897      4896      4898
      4897      4896      4899      4898      4896      4899      4898      4911      4912
      4898      4911      4915      4898      4911      4916      4899      4901      4954
      4899      4902      4903      4899      4902      4904      4900      4899      4901
      4900      4899      4902      4901      4899      4902      4901      4954      4955
      4901      4954      4958      4901      4954      4959      4902      4893      4906
      4902      4904      4905      4903      4902      4904      4906      4909      4910
      4907      4906      4908      4907      4906      4909      4908      4906      4909
      4911      4915      4913      4911      4916      4917      4911      4916      4918
      4911      4916      4919      4912      4911      4915      4912      4911      4916
      4913      4923      4919      4913      4923      4924      4913      4923      4925
      4913      4927      4928      4913      4927      4929      4913      4927      4930
      4914      4913      4915      4914      4913      4923      4914      4913      4927
      4915      4911      4916      4915      4913      4923      4915      4913      4927
      4916      4918      4932      4916      4919      4920      4916      4919      4921
      4916      4919      4923      4917      4916      4918      4917      4916      4919
      4918      4916      4919      4918      4932      4933      4918      4932      4936
      4918      4932      4937      4919      4921      4922      4919      4923      4924
      4919      4923      4925      4920      4919      4921      4920      4919      4923
      4921      4919      4923      4923      4913      4927      4923      4925      4926
      4924      4923      4925      4927      4930      4931      4928      4927      4929
      4928      4927      4930      4929      4927      4930      4932      4936      4934
      4932      4937      4938      4932      4937      4939      4932      4937      4941
      4933      4932      4936      4933      4932      4937      4934      4945      4941
      4934      4945      4946      4934      4945      4947      4934      4949      4950
      4934      4949      4951      4934      4949      4952      4935      4934      4936
      4935      4934      4945      4935      4934      4949      4936      4932      4937
      4936      4934      4945      4936      4934      4949      4937      4939      4940
      4937      4941      4942      4937      4941      4943      4937      4941      4945
      4938      4937      4939      4938      4937      4941      4939      4937      4941
      4941      4943      4944      4941      4945      4946      4941      4945      4947
      4942      4941      4943      4942      4941      4945      4943      4941      4945
      4945      4934      4949      4945      4947      4948      4946      4945      4947
      4949      4952      4953      4950      4949      4951      4950      4949      4952
      4951      4949      4952      4954      4958      4956      4954      4959      4960
      4954      4959      4961      4954      4959      4963      4955      4954      4958
      4955      4954      4959      4956      4966      4963      4956      4966      4967
      4956      4966      4968      4956      4970      4971      4956      4970      4972
      4956      4970      4973      4957      4956      4958      4957      4956      4966
      4957      4956      4970      4958      4954      4959      4958      4956      4966
      4958      4956      4970      4959      4961      4962      4959      4963      4964
      4959      4963      4965      4959      4963      4966      4960      4959      4961
      4960      4959      4963      4961      4959      4963      4963      4965      4975
      4963      4966      4967      4963      4966      4968      4964      4963      4965
      4964      4963      4966      4965      4963      4966      4965      4975      4976
      4965      4975      4979      4965      4975      4980      4966      4956      4970
      4966      4968      4969      4967      4966      4968      4970      4973      4974
      4971      4970      4972      4971      4970      4973      4972      4970      4973
      4975      4979      4977      4975      4980      4981      4975      4980      4982
      4975      4980      4990      4976      4975      4979      4976      4975      4980
      4977      4993      4990      4977      4993      4994      4977      4993      4995
      4977      4997      4998      4977      4997      4999      4977      4997      5000
      4978      4977      4979      4978      4977      4993      4978      4977      4997
      4979      4975      4980      4979      4977      4993      4979      4977      4997
      4980      4982      4983      4980      4982      4984      4980      4990      4991
      4980      4990      4992      4980      4990      4993      4981      4980      4982
      4981      4980      4990      4982      4980      4990      4982      4984      4985
      4982      4984      4986      4983      4982      4984      4984      4986      4987
      4984      4986      4988      4984      4986      4989      4985      4984      4986
      4987      4986      4988      4987      4986      4989      4988      4986      4989
      4990      4992      5002      4990      4993      4994      4990      4993      4995
      4991      4990      4992      4991      4990      4993      4992      4990      4993
      4992      5002      5003      4992      5002      5006      4992      5002      5007
      4993      4977      4997      4993      4995      4996      4994      4993      4995
      4997      5000      5001      4998      4997      4999      4998      4997      5000
      4999      4997      5000      5002      5006      5004      5002      5007      5008
      5002      5007      5009      5002      5007      5010      5003      5002      5006
      5003      5002      5007      5004      5014      5010      5004      5014      5015
      5004      5014      5016      5004      5018      5019      5004      5018      5020
      5004      5018      5021      5005      5004      5006      5005      5004      5014
      5005      5004      5018      5006      5002      5007      5006      5004      5014
      5006      5004      5018      5007      5009      5023      5007      5010      5011
      5007      5010      5012      5007      5010      5014      5008      5007      5009
      5008      5007      5010      5009      5007      5010      5009      5023      5024
      5009      5023      5027      5009      5023      5028      5010      5012      5013
      5010      5014      5015      5010      5014      5016      5011      5010      5012
      5011      5010      5014      5012      5010      5014      5014      5004      5018
      5014      5016      5017      5015      5014      5016      5018      5021      5022
      5019      5018      5020      5019      5018      5021      5020      5018      5021
      5023      5027      5025      5023      5028      5029      5023      5028      5030
      5023      5028      5031      5024      5023      5027      5024      5023      5028
      5025      5035      5031      5025      5035      5036      5025      5035      5037
      5025      5039      5040      5025      5039      5041      5025      5039      5042
      5026      5025      5027      5026      5025      5035      5026      5025      5039
      5027      5023      5028      5027      5025      5035      5027      5025      5039
      5028      5030      5043      5028      5031      5032      5028      5031      5033
      5028      5031      5035      5029      5028      5030      5029      5028      5031
      5030      5028      5031      5030      5043      5044      5030      5043      5047
      5030      5043      5048      5031      5033      5034      5031      5035      5036
      5031      5035      5037      5032      5031      5033      5032      5031      5035
      5033      5031      5035      5035      5025      5039      5035      5037      5038
      5036      5035      5037      5040      5039      5041      5040      5039      5042
      5041      5039      5042      5043      5047      5045      5043      5048      5049
      5043      5048      5050      5043      5048      5051      5044      5043      5047
      5044      5043      5048      5045      5054      5051      5045      5054      5055
      5045      5054      5056      5045      5058      5059      5045      5058      5060
      5045      5058      5061      5046      5045      5047      5046      5045      5054
      5046      5045      5058      5047      5043      5048      5047      5045      5054
      5047      5045      5058      5048      5050      5062      5048      5051      5052
      5048      5051      5053      5048      5051      5054      5049      5048      5050
      5049      5048      5051      5050      5048      5051      5050      5062      5063
      5050      5062      5066      5050      5062      5067      5051      5053      5090
      5051      5054      5055      5051      5054      5056      5052      5051      5053
      5052      5051      5054      5053      5051      5054      5053      5090      5091
      5053      5090      5094      5053      5090      5095      5054      5045      5058
      5054      5056      5057      5055      5054      5056      5059      5058      5060
      5059      5058      5061      5060      5058      5061      5062      5066      5064
      5062      5067      5068      5062      5067      5069      5062      5067      5077
      5063      5062      5066      5063      5062      5067      5064      5081      5077
      5064      5081      5082      5064      5081      5083      5064      5085      5086
      5064      5085      5087      5064      5085      5088      5065      5064      5066
      5065      5064      5081      5065      5064      5085      5066      5062      5067
      5066      5064      5081      5066      5064      5085      5067      5069      5070
      5067      5069      5071      5067      5077      5078      5067      5077      5079
      5067      5077      5081      5068      5067      5069      5068      5067      5077
      5069      5067      5077      5069      5071      5072      5069      5071      5073
      5070      5069      5071      5071      5073      5074      5071      5073      5075
      5071      5073      5076      5072      5071      5073      5074      5073      5075
      5074      5073      5076      5075      5073      5076      5077      5079      5080
      5077      5081      5082      5077      5081      5083      5078      5077      5079
      5078      5077      5081      5079      5077      5081      5081      5064      5085
      5081      5083      5084      5082      5081      5083      5085      5088      5089
      5086      5085      5087      5086      5085      5088      5087      5085      5088
      5090      5094      5092      5090      5095      5096      5090      5095      5097
      5090      5095      5105      5091      5090      5094      5091      5090      5095
      5092      5108      5105      5092      5108      5109      5092      5108      5110
      5092      5112      5113      5092      5112      5114      5092      5112      5115
      5093      5092      5094      5093      5092      5108      5093      5092      5112
      5094      5090      5095      5094      5092      5108      5094      5092      5112
      5095      5097      5098      5095      5097      5099      5095      5105      5106
      5095      5105      5107      5095      5105      5108      5096      5095      5097
      5096      5095      5105      5097      5095      5105      5097      5099      5100
      5097      5099      5101      5098      5097      5099      5099      5101      5102
      5099      5101      5103      5099      5101      5104      5100      5099      5101
      5102      5101      5103      5102      5101      5104      5103      5101      5104
      5105      5107      5117      5105      5108      5109      5105      5108      5110
      5106      5105      5107      5106      5105      5108      5107      5105      5108
      5107      5117      5118      5107      5117      5121      5107      5117      5122
      5108      5092      5112      5108      5110      5111      5109      5108      5110
      5112      5115      5116      5113      5112      5114      5113      5112      5115
      5114      5112      5115      5117      5121      5119      5117      5122      5123
      5117      5122      5124      5117      5122      5125      5118      5117      5121
      5118      5117      5122      5119      5129      5125      5119      5129      5130
      5119      5129      5131      5119      5133      5134      5119      5133      5135
      5119      5133      5136      5120      5119      5121      5120      5119      5129
      5120      5119      5133      5121      5117      5122      5121      5119      5129
      5121      5119      5133      5122      5124      5138      5122      5125      5126
      5122      5125      5127      5122      5125      5129      5123      5122      5124
      5123      5122      5125      5124      5122      5125      5124      5138      5139
      5124      5138      5142      5124      5138      5143      5125      5127      5128
      5125      5129      5130      5125      5129      5131      5126      5125      5127
      5126      5125      5129      5127      5125      5129      5129      5119      5133
      5129      5131      5132      5130      5129      5131      5133      5136      5137
      5134      5133      5135      5134      5133      5136      5135      5133      5136
      5138      5142      5140      5138      5143      5144      5138      5143      5145
      5138      5143      5146      5139      5138      5142      5139      5138      5143
      5140      5150      5146      5140      5150      5151      5140      5150      5152
      5140      5154      5155      5140      5154      5156      5140      5154      5157
      5141      5140      5142      5141      5140      5150      5141      5140      5154
      5142      5138      5143      5142      5140      5150      5142      5140      5154
      5143      5145      5158      5143      5146      5147      5143      5146      5148
      5143      5146      5150      5144      5143      5145      5144      5143      5146
      5145      5143      5146      5145      5158      5159      5145      5158      5162
      5145      5158      5163      5146      5148      5149      5146      5150      5151
      5146      5150      5152      5147      5146      5148      5147      5146      5150
      5148      5146      5150      5150      5140      5154      5150      5152      5153
      5151      5150      5152      5155      5154      5156      5155      5154      5157
      5156      5154      5157      5158      5162      5160      5158      5163      5164
      5158      5163      5165      5158      5163      5166      5159      5158      5162
      5159      5158      5163      5160      5169      5166      5160      5169      5170
      5160      5169      5171      5160      5173      5174      5160      5173      5175
      5160      5173      5176      5161      5160      5162      5161      5160      5169
      5161      5160      5173      5162      5158      5163      5162      5160      5169
      5162      5160      5173      5163      5165      5177      5163      5166      5167
      5163      5166      5168      5163      5166      5169      5164      5163      5165
      5164      5163      5166      5165      5163      5166      5165      5177      5178
      5165      5177      5181      5165      5177      5182      5166      5168      5205
      5166      5169      5170      5166      5169      5171      5167      5166      5168
      5167      5166      5169      5168      5166      5169      5168      5205      5206
      5168      5205      5209      5168      5205      5210      5169      5160      5173
      5169      5171      5172      5170      5169      5171      5174      5173      5175
      5174      5173      5176      5175      5173      5176      5177      5181      5179
      5177      5182      5183      5177      5182      5184      5177      5182      5192
      5178      5177      5181      5178      5177      5182      5179      5196      5192
      5179      5196      5197      5179      5196      5198      5179      5200      5201
      5179      5200      5202      5179      5200      5203      5180      5179      5181
      5180      5179      5196      5180      5179      5200      5181      5177      5182
      5181      5179      5196      5181      5179      5200      5182      5184      5185
      5182      5184      5186      5182      5192      5193      5182      5192      5194
      5182      5192      5196      5183      5182      5184      5183      5182      5192
      5184      5182      5192      5184      5186      5187      5184      5186      5188
      5185      5184      5186      5186      5188      5189      5186      5188      5190
      5186      5188      5191      5187      5186      5188      5189      5188      5190
      5189      5188      5191      5190      5188      5191      5192      5194      5195
      5192      5196      5197      5192      5196      5198      5193      5192      5194
      5193      5192      5196      5194      5192      5196      5196      5179      5200
      5196      5198      5199      5197      5196      5198      5200      5203      5204
      5201      5200      5202      5201      5200      5203      5202      5200      5203
      5205      5209      5207      5205      5210      5211      5205      5210      5212
      5205      5210      5220      5206      5205      5209      5206      5205      5210
      5207      5223      5220      5207      5223      5224      5207      5223      5225
      5207      5227      5228      5207      5227      5229      5207      5227      5230
      5208      5207      5209      5208      5207      5223      5208      5207      5227
      5209      5205      5210      5209      5207      5223      5209      5207      5227
      5210      5212      5213      5210      5212      5214      5210      5220      5221
      5210      5220      5222      5210      5220      5223      5211      5210      5212
      5211      5210      5220      5212      5210      5220      5212      5214      5215
      5212      5214      5216      5213      5212      5214      5214      5216      5217
      5214      5216      5218      5214      5216      5219      5215      5214      5216
      5217      5216      5218      5217      5216      5219      5218      5216      5219
      5220      5222      5232      5220      5223      5224      5220      5223      5225
      5221      5220      5222      5221      5220      5223      5222      5220      5223
      5222      5232      5233      5222      5232      5236      5222      5232      5237
      5223      5207      5227      5223      5225      5226      5224      5223      5225
      5227      5230      5231      5228      5227      5229      5228      5227      5230
      5229      5227      5230      5232      5236      5234      5232      5237      5238
      5232      5237      5239      5232      5237      5240      5233      5232      5236
      5233      5232      5237      5234      5244      5240      5234      5244      5245
      5234      5244      5246      5234      5248      5249      5234      5248      5250
      5234      5248      5251      5235      5234      5236      5235      5234      5244
      5235      5234      5248      5236      5232      5237      5236      5234      5244
      5236      5234      5248      5237      5239      5253      5237      5240      5241
      5237      5240      5242      5237      5240      5244      5238      5237      5239
      5238      5237      5240      5239      5237      5240      5239      5253      5254
      5239      5253      5257      5239      5253      5258      5240      5242      5243
      5240      5244      5245      5240      5244      5246      5241      5240      5242
      5241      5240      5244      5242      5240      5244      5244      5234      5248
      5244      5246      5247      5245      5244      5246      5248      5251      5252
      5249      5248      5250      5249      5248      5251      5250      5248      5251
      5253      5257      5255      5253      5258      5259      5253      5258      5260
      5253      5258      5261      5254      5253      5257      5254      5253      5258
      5255      5265      5261      5255      5265      5266      5255      5265      5267
      5255      5269      5270      5255      5269      5271      5255      5269      5272
      5256      5255      5257      5256      5255      5265      5256      5255      5269
      5257      5253      5258      5257      5255      5265      5257      5255      5269
      5258      5260      5273      5258      5261      5262      5258      5261      5263
      5258      5261      5265      5259      5258      5260      5259      5258      5261
      5260      5258      5261      5260      5273      5274      5260      5273      5277
      5260      5273      5278      5261      5263      5264      5261      5265      5266
      5261      5265      5267      5262      5261      5263      5262      5261      5265
      5263      5261      5265      5265      5255      5269      5265      5267      5268
      5266      5265      5267      5270      5269      5271      5270      5269      5272
      5271      5269      5272      5273      5277      5275      5273      5278      5279
      5273      5278      5280      5273      5278      5281      5274      5273      5277
      5274      5273      5278      5275      5284      5281      5275      5284      5285
      5275      5284      5286      5275      5288      5289      5275      5288      5290
      5275      5288      5291      5276      5275      5277      5276      5275      5284
      5276      5275      5288      5277      5273      5278      5277      5275      5284
      5277      5275      5288      5278      5280      5292      5278      5281      5282
      5278      5281      5283      5278      5281      5284      5279      5278      5280
      5279      5278      5281      5280      5278      5281      5280      5292      5293
      5280      5292      5296      5280      5292      5297      5281      5283      5320
      5281      5284      5285      5281      5284      5286      5282      5281      5283
      5282      5281      5284      5283      5281      5284      5283      5320      5321
      5283      5320      5324      5283      5320      5325      5284      5275      5288
      5284      5286      5287      5285      5284      5286      5289      5288      5290
      5289      5288      5291      5290      5288      5291      5292      5296      5294
      5292      5297      5298      5292      5297      5299      5292      5297      5307
      5293      5292      5296      5293      5292      5297      5294      5311      5307
      5294      5311      5312      5294      5311      5313      5294      5315      5316
      5294      5315      5317      5294      5315      5318      5295      5294      5296
      5295      5294      5311      5295      5294      5315      5296      5292      5297
      5296      5294      5311      5296      5294      5315      5297      5299      5300
      5297      5299      5301      5297      5307      5308      5297      5307      5309
      5297      5307      5311      5298      5297      5299      5298      5297      5307
      5299      5297      5307      5299      5301      5302      5299      5301      5303
      5300      5299      5301      5301      5303      5304      5301      5303      5305
      5301      5303      5306      5302      5301      5303      5304      5303      5305
      5304      5303      5306      5305      5303      5306      5307      5309      5310
      5307      5311      5312      5307      5311      5313      5308      5307      5309
      5308      5307      5311      5309      5307      5311      5311      5294      5315
      5311      5313      5314      5312      5311      5313      5315      5318      5319
      5316      5315      5317      5316      5315      5318      5317      5315      5318
      5320      5324      5322      5320      5325      5326      5320      5325      5327
      5320      5325      5335      5321      5320      5324      5321      5320      5325
      5322      5338      5335      5322      5338      5339      5322      5338      5340
      5322      5342      5343      5322      5342      5344      5322      5342      5345
      5323      5322      5324      5323      5322      5338      5323      5322      5342
      5324      5320      5325      5324      5322      5338      5324      5322      5342
      5325      5327      5328      5325      5327      5329      5325      5335      5336
      5325      5335      5337      5325      5335      5338      5326      5325      5327
      5326      5325      5335      5327      5325      5335      5327      5329      5330
      5327      5329      5331      5328      5327      5329      5329      5331      5332
      5329      5331      5333      5329      5331      5334      5330      5329      5331
      5332      5331      5333      5332      5331      5334      5333      5331      5334
      5335      5337      5347      5335      5338      5339      5335      5338      5340
      5336      5335      5337      5336      5335      5338      5337      5335      5338
      5337      5347      5348      5337      5347      5351      5337      5347      5352
      5338      5322      5342      5338      5340      5341      5339      5338      5340
      5342      5345      5346      5343      5342      5344      5343      5342      5345
      5344      5342      5345      5347      5351      5349      5347      5352      5353
      5347      5352      5354      5347      5352      5355      5348      5347      5351
      5348      5347      5352      5349      5359      5355      5349      5359      5360
      5349      5359      5361      5349      5363      5364      5349      5363      5365
      5349      5363      5366      5350      5349      5351      5350      5349      5359
      5350      5349      5363      5351      5347      5352      5351      5349      5359
      5351      5349      5363      5352      5354      5368      5352      5355      5356
      5352      5355      5357      5352      5355      5359      5353      5352      5354
      5353      5352      5355      5354      5352      5355      5354      5368      5369
      5354      5368      5372      5354      5368      5373      5355      5357      5358
      5355      5359      5360      5355      5359      5361      5356      5355      5357
      5356      5355      5359      5357      5355      5359      5359      5349      5363
      5359      5361      5362      5360      5359      5361      5363      5366      5367
      5364      5363      5365      5364      5363      5366      5365      5363      5366
      5368      5372      5370      5368      5373      5374      5368      5373      5375
      5368      5373      5376      5369      5368      5372      5369      5368      5373
      5370      5380      5376      5370      5380      5381      5370      5380      5382
      5370      5384      5385      5370      5384      5386      5370      5384      5387
      5371      5370      5372      5371      5370      5380      5371      5370      5384
      5372      5368      5373      5372      5370      5380      5372      5370      5384
      5373      5375      5388      5373      5376      5377      5373      5376      5378
      5373      5376      5380      5374      5373      5375      5374      5373      5376
      5375      5373      5376      5375      5388      5389      5375      5388      5392
      5375      5388      5393      5376      5378      5379      5376      5380      5381
      5376      5380      5382      5377      5376      5378      5377      5376      5380
      5378      5376      5380      5380      5370      5384      5380      5382      5383
      5381      5380      5382      5385      5384      5386      5385      5384      5387
      5386      5384      5387      5388      5392      5390      5388      5393      5394
      5388      5393      5395      5388      5393      5396      5389      5388      5392
      5389      5388      5393      5390      5399      5396      5390      5399      5400
      5390      5399      5401      5390      5403      5404      5390      5403      5405
      5390      5403      5406      5391      5390      5392      5391      5390      5399
      5391      5390      5403      5392      5388      5393      5392      5390      5399
      5392      5390      5403      5393      5395      5407      5393      5396      5397
      5393      5396      5398      5393      5396      5399      5394      5393      5395
      5394      5393      5396      5395      5393      5396      5395      5407      5408
      5395      5407      5411      5395      5407      5412      5396      5398      5435
      5396      5399      5400      5396      5399      5401      5397      5396      5398
      5397      5396      5399      5398      5396      5399      5398      5435      5436
      5398      5435      5439      5398      5435      5440      5399      5390      5403
      5399      5401      5402      5400      5399      5401      5404      5403      5405
      5404      5403      5406      5405      5403      5406      5407      5411      5409
      5407      5412      5413      5407      5412      5414      5407      5412      5422
      5408      5407      5411      5408      5407      5412      5409      5426      5422
      5409      5426      5427      5409      5426      5428      5409      5430      5431
      5409      5430      5432      5409      5430      5433      5410      5409      5411
      5410      5409      5426      5410      5409      5430      5411      5407      5412
      5411      5409      5426      5411      5409      5430      5412      5414      5415
      5412      5414      5416      5412      5422      5423      5412      5422      5424
      5412      5422      5426      5413      5412      5414      5413      5412      5422
      5414      5412      5422      5414      5416      5417      5414      5416      5418
      5415      5414      5416      5416      5418      5419      5416      5418      5420
      5416      5418      5421      5417      5416      5418      5419      5418      5420
      5419      5418      5421      5420      5418      5421      5422      5424      5425
      5422      5426      5427      5422      5426      5428      5423      5422      5424
      5423      5422      5426      5424      5422      5426      5426      5409      5430
      5426      5428      5429      5427      5426      5428      5430      5433      5434
      5431      5430      5432      5431      5430      5433      5432      5430      5433
      5435      5439      5437      5435      5440      5441      5435      5440      5442
      5435      5440      5450      5436      5435      5439      5436      5435      5440
      5437      5453      5450      5437      5453      5454      5437      5453      5455
      5437      5457      5458      5437      5457      5459      5437      5457      5460
      5438      5437      5439      5438      5437      5453      5438      5437      5457
      5439      5435      5440      5439      5437      5453      5439      5437      5457
      5440      5442      5443      5440      5442      5444      5440      5450      5451
      5440      5450      5452      5440      5450      5453      5441      5440      5442
      5441      5440      5450      5442      5440      5450      5442      5444      5445
      5442      5444      5446      5443      5442      5444      5444      5446      5447
      5444      5446      5448      5444      5446      5449      5445      5444      5446
      5447      5446      5448      5447      5446      5449      5448      5446      5449
      5450      5452      5462      5450      5453      5454      5450      5453      5455
      5451      5450      5452      5451      5450      5453      5452      5450      5453
      5452      5462      5463      5452      5462      5466      5452      5462      5467
      5453      5437      5457      5453      5455      5456      5454      5453      5455
      5457      5460      5461      5458      5457      5459      5458      5457      5460
      5459      5457      5460      5462      5466      5464      5462      5467      5468
      5462      5467      5469      5462      5467      5470      5463      5462      5466
      5463      5462      5467      5464      5474      5470      5464      5474      5475
      5464      5474      5476      5464      5478      5479      5464      5478      5480
      5464      5478      5481      5465      5464      5466      5465      5464      5474
      5465      5464      5478      5466      5462      5467      5466      5464      5474
      5466      5464      5478      5467      5469      5483      5467      5470      5471
      5467      5470      5472      5467      5470      5474      5468      5467      5469
      5468      5467      5470      5469      5467      5470      5469      5483      5484
      5469      5483      5487      5469      5483      5488      5470      5472      5473
      5470      5474      5475      5470      5474      5476      5471      5470      5472
      5471      5470      5474      5472      5470      5474      5474      5464      5478
      5474      5476      5477      5475      5474      5476      5478      5481      5482
      5479      5478      5480      5479      5478      5481      5480      5478      5481
      5483      5487      5485      5483      5488      5489      5483      5488      5490
      5483      5488      5491      5484      5483      5487      5484      5483      5488
      5485      5495      5491      5485      5495      5496      5485      5495      5497
      5485      5499      5500      5485      5499      5501      5485      5499      5502
      5486      5485      5487      5486      5485      5495      5486      5485      5499
      5487      5483      5488      5487      5485      5495      5487      5485      5499
      5488      5490      5503      5488      5491      5492      5488      5491      5493
      5488      5491      5495      5489      5488      5490      5489      5488      5491
      5490      5488      5491      5490      5503      5504      5490      5503      5507
      5490      5503      5508      5491      5493      5494      5491      5495      5496
      5491      5495      5497      5492      5491      5493      5492      5491      5495
      5493      5491      5495      5495      5485      5499      5495      5497      5498
      5496      5495      5497      5500      5499      5501      5500      5499      5502
      5501      5499      5502      5503      5507      5505      5503      5508      5509
      5503      5508      5510      5503      5508      5511      5504      5503      5507
      5504      5503      5508      5505      5515      5511      5505      5515      5516
      5505      5515      5517      5505      5519      5520      5505      5519      5521
      5505      5519      5522      5506      5505      5507      5506      5505      5515
      5506      5505      5519      5507      5503      5508      5507      5505      5515
      5507      5505      5519      5508      5510      5523      5508      5511      5512
      5508      5511      5513      5508      5511      5515      5509      5508      5510
      5509      5508      5511      5510      5508      5511      5510      5523      5524
      5510      5523      5527      5510      5523      5528      5511      5513      5514
      5511      5515      5516      5511      5515      5517      5512      5511      5513
      5512      5511      5515      5513      5511      5515      5515      5505      5519
      5515      5517      5518      5516      5515      5517      5520      5519      5521
      5520      5519      5522      5521      5519      5522      5523      5527      5525
      5523      5528      5529      5523      5528      5530      5523      5528      5538
      5524      5523      5527      5524      5523      5528      5525      5542      5538
      5525      5542      5543      5525      5542      5544      5525      5546      5547
      5525      5546      5548      5525      5546      5549      5526      5525      5527
      5526      5525      5542      5526      5525      5546      5527      5523      5528
      5527      5525      5542      5527      5525      5546      5528      5530      5531
      5528      5530      5532      5528      5538      5539      5528      5538      5540
      5528      5538      5542      5529      5528      5530      5529      5528      5538
      5530      5528      5538      5530      5532      5533      5530      5532      5534
      5531      5530      5532      5532      5534      5535      5532      5534      5536
      5532      5534      5537      5533      5532      5534      5535      5534      5536
      5535      5534      5537      5536      5534      5537      5538      5540      5541
      5538      5542      5543      5538      5542      5544      5539      5538      5540
      5539      5538      5542      5540      5538      5542      5542      5525      5546
      5542      5544      5545      5543      5542      5544      5546      5549      5550
      5547      5546      5548      5547      5546      5549      5548      5546      5549
      5551      5553      5552      5551      5553      5554      5551      5553      5555
      5552      5553      5554      5552      5553      5555      5552      5850      5847
      5552      5850      5853      5552      5850      5854      5553      5552      5850
      5553      5555      5556      5553      5555      5557      5553      5555      5564
      5554      5553      5555      5555      5556      5558      5555      5564      5565
      5555      5564      5566      5555      5564      5571      5556      5555      5557
      5556      5555      5564      5556      5558      5559      5556      5558      5560
      5556      5558      5579      5557      5555      5564      5558      5560      5561
      5558      5579      5571      5558      5579      5580      5558      5579      5581
      5559      5558      5560      5559      5558      5579      5560      5558      5579
      5560      5561      5562      5560      5561      5563      5560      5561      5587
      5561      5587      5583      5561      5587      5588      5561      5587      5589
      5562      5561      5563      5562      5561      5587      5563      5561      5587
      5564      5566      5567      5564      5571      5572      5564      5571      5573
      5564      5571      5579      5565      5564      5566      5565      5564      5571
      5566      5564      5571      5566      5567      5568      5566      5567      5569
      5566      5567      5570      5568      5567      5569      5568      5567      5570
      5569      5567      5570      5571      5572      5574      5571      5579      5580
      5571      5579      5581      5572      5571      5573      5572      5571      5579
      5572      5574      5575      5572      5574      5576      5573      5571      5579
      5574      5576      5577      5574      5576      5578      5574      5576      5609
      5575      5574      5576      5576      5609      5610      5576      5609      5611
      5576      5609      5654      5577      5576      5578      5577      5576      5609
      5578      5576      5609      5579      5581      5582      5579      5581      5688
      5580      5579      5581      5581      5688      5689      5581      5688      5690
      5582      5581      5688      5583      5585      5586      5583      5587      5588
      5583      5587      5589      5583      5597      5598      5583      5597      5599
      5583      5597      5605      5584      5583      5585      5584      5583      5587
      5584      5583      5597      5585      5583      5587      5585      5583      5597
      5587      5583      5597      5587      5589      5590      5588      5587      5589
      5589      5590      5591      5589      5590      5592      5589      5590      5605
      5590      5592      5596      5590      5605      5597      5590      5605      5606
      5590      5605      5607      5591      5590      5592      5591      5590      5605
      5592      5590      5605      5592      5596      5593      5592      5596      5594
      5592      5596      5595      5593      5596      5594      5593      5596      5595
      5594      5596      5595      5597      5599      5600      5597      5605      5606
      5597      5605      5607      5598      5597      5599      5598      5597      5605
      5599      5597      5605      5599      5600      5601      5599      5600      5602
      5600      5602      5603      5600      5602      5604      5600      5602      5766
      5601      5600      5602      5602      5766      5767      5602      5766      5768
      5602      5766      5770      5603      5602      5604      5603      5602      5766
      5604      5602      5766      5605      5607      5608      5605      5607      5804
      5606      5605      5607      5607      5804      5805      5607      5804      5806
      5608      5607      5804      5609      5611      5612      5609      5654      5655
      5609      5654      5656      5609      5654      5657      5610      5609      5611
      5610      5609      5654      5611      5609      5654      5611      5612      5613
      5611      5612      5614      5612      5614      5615      5612      5614      5616
      5612      5614      5617      5613      5612      5614      5614      5617      5618
      5614      5617      5619      5614      5617      5620      5615      5614      5616
      5615      5614      5617      5616      5614      5617      5617      5620      5621
      5617      5620      5622      5617      5620      5623      5618      5617      5619
      5618      5617      5620      5619      5617      5620      5620      5623      5624
      5620      5623      5625      5620      5623      5626      5621      5620      5622
      5621      5620      5623      5622      5620      5623      5623      5626      5627
      5623      5626      5628      5623      5626      5629      5624      5623      5625
      5624      5623      5626      5625      5623      5626      5626      5629      5630
      5626      5629      5631      5626      5629      5632      5627      5626      5628
      5627      5626      5629      5628      5626      5629      5629      5632      5633
      5629      5632      5634      5629      5632      5635      5630      5629      5631
      5630      5629      5632      5631      5629      5632      5632      5635      5636
      5632      5635      5637      5632      5635      5638      5633      5632      5634
      5633      5632      5635      5634      5632      5635      5635      5638      5639
      5635      5638      5640      5635      5638      5641      5636      5635      5637
      5636      5635      5638      5637      5635      5638      5638      5641      5642
      5638      5641      5643      5638      5641      5644      5639      5638      5640
      5639      5638      5641      5640      5638      5641      5641      5644      5645
      5641      5644      5646      5641      5644      5647      5642      5641      5643
      5642      5641      5644      5643      5641      5644      5644      5647      5648
      5644      5647      5649      5644      5647      5650      5645      5644      5646
      5645      5644      5647      5646      5644      5647      5647      5650      5651
      5647      5650      5652      5647      5650      5653      5648      5647      5649
      5648      5647      5650      5649      5647      5650      5651      5650      5652
      5651      5650      5653      5652      5650      5653      5654      5657      5658
      5654      5657      5659      5654      5657      5660      5655      5654      5656
      5655      5654      5657      5656      5654      5657      5657      5660      5661
      5657      5660      5662      5657      5660      5663      5658      5657      5659
      5658      5657      5660      5659      5657      5660      5660      5663      5664
      5660      5663      5665      5660      5663      5666      5661      5660      5662
      5661      5660      5663      5662      5660      5663      5663      5666      5667
      5663      5666      5668      5663      5666      5669      5664      5663      5665
      5664      5663      5666      5665      5663      5666      5666      5669      5670
      5666      5669      5671      5666      5669      5672      5667      5666      5668
      5667      5666      5669      5668      5666      5669      5669      5672      5673
      5669      5672      5674      5669      5672      5675      5670      5669      5671
      5670      5669      5672      5671      5669      5672      5672      5675      5676
      5672      5675      5677      5672      5675      5678      5673      5672      5674
      5673      5672      5675      5674      5672      5675      5675      5678      5679
      5675      5678      5680      5675      5678      5681      5676      5675      5677
      5676      5675      5678      5677      5675      5678      5678      5681      5682
      5678      5681      5683      5678      5681      5684      5679      5678      5680
      5679      5678      5681      5680      5678      5681      5681      5684      5685
      5681      5684      5686      5681      5684      5687      5682      5681      5683
      5682      5681      5684      5683      5681      5684      5685      5684      5686
      5685      5684      5687      5686      5684      5687      5688      5690      5691
      5688      5690      5692      5688      5690      5693      5689      5688      5690
      5690      5693      5694      5690      5693      5695      5690      5693      5732
      5691      5690      5692      5691      5690      5693      5692      5690      5693
      5693      5695      5696      5693      5732      5733      5693      5732      5734
      5693      5732      5735      5694      5693      5695      5694      5693      5732
      5695      5693      5732      5695      5696      5697      5695      5696      5698
      5696      5698      5699      5696      5698      5700      5696      5698      5701
      5697      5696      5698      5698      5701      5702      5698      5701      5703
      5698      5701      5704      5699      5698      5700      5699      5698      5701
      5700      5698      5701      5701      5704      5705      5701      5704      5706
      5701      5704      5707      5702      5701      5703      5702      5701      5704
      5703      5701      5704      5704      5707      5708      5704      5707      5709
      5704      5707      5710      5705      5704      5706      5705      5704      5707
      5706      5704      5707      5707      5710      5711      5707      5710      5712
      5707      5710      5713      5708      5707      5709      5708      5707      5710
      5709      5707      5710      5710      5713      5714      5710      5713      5715
      5710      5713      5716      5711      5710      5712      5711      5710      5713
      5712      5710      5713      5713      5716      5717      5713      5716      5718
      5713      5716      5719      5714      5713      5715      5714      5713      5716
      5715      5713      5716      5716      5719      5720      5716      5719      5721
      5716      5719      5722      5717      5716      5718      5717      5716      5719
      5718      5716      5719      5719      5722      5723      5719      5722      5724
      5719      5722      5725      5720      5719      5721      5720      5719      5722
      5721      5719      5722      5722      5725      5726      5722      5725      5727
      5722      5725      5728      5723      5722      5724      5723      5722      5725
      5724      5722      5725      5725      5728      5729      5725      5728      5730
      5725      5728      5731      5726      5725      5727      5726      5725      5728
      5727      5725      5728      5729      5728      5730      5729      5728      5731
      5730      5728      5731      5732      5735      5736      5732      5735      5737
      5732      5735      5738      5733      5732      5734      5733      5732      5735
      5734      5732      5735      5735      5738      5739      5735      5738      5740
      5735      5738      5741      5736      5735      5737      5736      5735      5738
      5737      5735      5738      5738      5741      5742      5738      5741      5743
      5738      5741      5744      5739      5738      5740      5739      5738      5741
      5740      5738      5741      5741      5744      5745      5741      5744      5746
      5741      5744      5747      5742      5741      5743      5742      5741      5744
      5743      5741      5744      5744      5747      5748      5744      5747      5749
      5744      5747      5750      5745      5744      5746      5745      5744      5747
      5746      5744      5747      5747      5750      5751      5747      5750      5752
      5747      5750      5753      5748      5747      5749      5748      5747      5750
      5749      5747      5750      5750      5753      5754      5750      5753      5755
      5750      5753      5756      5751      5750      5752      5751      5750      5753
      5752      5750      5753      5753      5756      5757      5753      5756      5758
      5753      5756      5759      5754      5753      5755      5754      5753      5756
      5755      5753      5756      5756      5759      5760      5756      5759      5761
      5756      5759      5762      5757      5756      5758      5757      5756      5759
      5758      5756      5759      5759      5762      5763      5759      5762      5764
      5759      5762      5765      5760      5759      5761      5760      5759      5762
      5761      5759      5762      5763      5762      5764      5763      5762      5765
      5764      5762      5765      5766      5768      5769      5766      5770      5771
      5766      5770      5772      5766      5770      5773      5767      5766      5768
      5767      5766      5770      5768      5766      5770      5770      5773      5774
      5770      5773      5775      5770      5773      5776      5771      5770      5772
      5771      5770      5773      5772      5770      5773      5773      5776      5777
      5773      5776      5778      5773      5776      5779      5774      5773      5775
      5774      5773      5776      5775      5773      5776      5776      5779      5780
      5776      5779      5781      5776      5779      5782      5777      5776      5778
      5777      5776      5779      5778      5776      5779      5779      5782      5783
      5779      5782      5784      5779      5782      5785      5780      5779      5781
      5780      5779      5782      5781      5779      5782      5782      5785      5786
      5782      5785      5787      5782      5785      5788      5783      5782      5784
      5783      5782      5785      5784      5782      5785      5785      5788      5789
      5785      5788      5790      5785      5788      5791      5786      5785      5787
      5786      5785      5788      5787      5785      5788      5788      5791      5792
      5788      5791      5793      5788      5791      5794      5789      5788      5790
      5789      5788      5791      5790      5788      5791      5791      5794      5795
      5791      5794      5796      5791      5794      5797      5792      5791      5793
      5792      5791      5794      5793      5791      5794      5794      5797      5798
      5794      5797      5799      5794      5797      5800      5795      5794      5796
      5795      5794      5797      5796      5794      5797      5797      5800      5801
      5797      5800      5802      5797      5800      5803      5798      5797      5799
      5798      5797      5800      5799      5797      5800      5801      5800      5802
      5801      5800      5803      5802      5800      5803      5804      5806      5807
      5804      5806      5808      5804      5806      5809      5805      5804      5806
      5806      5809      5810      5806      5809      5811      5806      5809      5813
      5807      5806      5808      5807      5806      5809      5808      5806      5809
      5809      5811      5812      5809      5813      5814      5809      5813      5815
      5809      5813      5816      5810      5809      5811      5810      5809      5813
      5811      5809      5813      5813      5816      5817      5813      5816      5818
      5813      5816      5819      5814      5813      5815      5814      5813      5816
      5815      5813      5816      5816      5819      5820      5816      5819      5821
      5816      5819      5822      5817      5816      5818      5817      5816      5819
      5818      5816      5819      5819      5822      5823      5819      5822      5824
      5819      5822      5825      5820      5819      5821      5820      5819      5822
      5821      5819      5822      5822      5825      5826      5822      5825      5827
      5822      5825      5828      5823      5822      5824      5823      5822      5825
      5824      5822      5825      5825      5828      5829      5825      5828      5830
      5825      5828      5831      5826      5825      5827      5826      5825      5828
      5827      5825      5828      5828      5831      5832      5828      5831      5833
      5828      5831      5834      5829      5828      5830      5829      5828      5831
      5830      5828      5831      5831      5834      5835      5831      5834      5836
      5831      5834      5837      5832      5831      5833      5832      5831      5834
      5833      5831      5834      5834      5837      5838      5834      5837      5839
      5834      5837      5840      5835      5834      5836      5835      5834      5837
      5836      5834      5837      5837      5840      5841      5837      5840      5842
      5837      5840      5843      5838      5837      5839      5838      5837      5840
      5839      5837      5840      5840      5843      5844      5840      5843      5845
      5840      5843      5846      5841      5840      5842      5841      5840      5843
      5842      5840      5843      5844      5843      5845      5844      5843      5846
      5845      5843      5846      5847      5850      5853      5847      5850      5854
      5848      5847      5849      5848      5847      5850      5849      5847      5850
      5850      5853      5851      5850      5854      5855      5850      5854      5856
      5850      5854      5857      5851      5860      5857      5851      5860      5861
      5851      5860      5862      5851      5863      5864      5851      5863      5865
      5851      5863      5867      5852      5851      5853      5852      5851      5860
      5852      5851      5863      5853      5850      5854      5853      5851      5860
      5853      5851      5863      5854      5857      5858      5854      5857      5859
      5854      5857      5860      5855      5854      5856      5855      5854      5857
      5856      5854      5857      5857      5859      5875      5857      5860      5861
      5857      5860      5862      5858      5857      5859      5858      5857      5860
      5859      5857      5860      5859      5875      5872      5859      5875      5878
      5859      5875      5879      5860      5851      5863      5860      5862      5899
      5861      5860      5862      5862      5899      5900      5862      5899      5903
      5862      5899      5904      5863      5865      5866      5863      5867      5868
      5863      5867      5869      5863      5867      5870      5864      5863      5865
      5864      5863      5867      5865      5863      5867      5867      5870      5871
      5868      5867      5869      5868      5867      5870      5869      5867      5870
      5872      5875      5878      5872      5875      5879      5873      5872      5874
      5873      5872      5875      5874      5872      5875      5875      5878      5876
      5875      5879      5880      5875      5879      5881      5875      5879      5882
      5876      5886      5882      5876      5886      5887      5876      5886      5888
      5876      5890      5891      5876      5890      5892      5876      5890      5894
      5877      5876      5878      5877      5876      5886      5877      5876      5890
      5878      5875      5879      5878      5876      5886      5878      5876      5890
      5879      5882      5883      5879      5882      5884      5879      5882      5886
      5880      5879      5881      5880      5879      5882      5881      5879      5882
      5882      5884      5885      5882      5886      5887      5882      5886      5888
      5883      5882      5884      5883      5882      5886      5884      5882      5886
      5886      5876      5890      5886      5888      5889      5887      5886      5888
      5890      5892      5893      5890      5894      5895      5890      5894      5896
      5890      5894      5897      5891      5890      5892      5891      5890      5894
      5892      5890      5894      5894      5897      5898      5895      5894      5896
      5895      5894      5897      5896      5894      5897      5899      5903      5901
      5899      5904      5905      5899      5904      5906      5899      5904      5908
      5900      5899      5903      5900      5899      5904      5901      5911      5908
      5901      5911      5912      5901      5911      5913      5901      5918      5919
      5901      5918      5920      5901      5918      5922      5902      5901      5903
      5902      5901      5911      5902      5901      5918      5903      5899      5904
      5903      5901      5911      5903      5901      5918      5904      5906      5907
      5904      5908      5909      5904      5908      5910      5904      5908      5911
      5905      5904      5906      5905      5904      5908      5906      5904      5908
      5908      5910      5927      5908      5911      5912      5908      5911      5913
      5909      5908      5910      5909      5908      5911      5910      5908      5911
      5910      5927      5928      5910      5927      5931      5910      5927      5932
      5911      5901      5918      5911      5913      5914      5912      5911      5913
      5913      5914      5915      5913      5914      5916      5913      5914      5917
      5915      5914      5916      5915      5914      5917      5916      5914      5917
      5918      5920      5921      5918      5922      5923      5918      5922      5924
      5918      5922      5925      5919      5918      5920      5919      5918      5922
      5920      5918      5922      5922      5925      5926      5923      5922      5924
      5923      5922      5925      5924      5922      5925      5927      5931      5929
      5927      5932      5933      5927      5932      5934      5927      5932      5936
      5928      5927      5931      5928      5927      5932      5929      5939      5936
      5929      5939      5940      5929      5939      5941      5929      5946      5947
      5929      5946      5948      5929      5946      5950      5930      5929      5931
      5930      5929      5939      5930      5929      5946      5931      5927      5932
      5931      5929      5939      5931      5929      5946      5932      5934      5935
      5932      5936      5937      5932      5936      5938      5932      5936      5939
      5933      5932      5934      5933      5932      5936      5934      5932      5936
      5936      5938      5980      5936      5939      5940      5936      5939      5941
      5937      5936      5938      5937      5936      5939      5938      5936      5939
      5938      5980      5981      5938      5980      5984      5938      5980      5985
      5939      5929      5946      5939      5941      5942      5940      5939      5941
      5941      5942      5943      5941      5942      5944      5941      5942      5945
      5943      5942      5944      5943      5942      5945      5944      5942      5945
      5946      5948      5949      5946      5950      5951      5946      5950      5952
      5946      5950      5953      5947      5946      5948      5947      5946      5950
      5948      5946      5950      5950      5953      5954      5951      5950      5952
      5951      5950      5953      5952      5950      5953      5953      5954      5955
      5953      5954      5958      5953      5954      5959      5954      5958      5956
      5954      5959      5960      5954      5959      5961      5954      5959      5963
      5955      5954      5958      5955      5954      5959      5956      5967      5963
      5956      5967      5968      5956      5967      5969      5956      5971      5972
      5956      5971      5973      5956      5971      5975      5957      5956      5958
      5957      5956      5967      5957      5956      5971      5958      5954      5959
      5958      5956      5967      5958      5956      5971      5959      5961      5962
      5959      5963      5964      5959      5963      5965      5959      5963      5967
      5960      5959      5961      5960      5959      5963      5961      5959      5963
      5963      5965      5966      5963      5967      5968      5963      5967      5969
      5964      5963      5965      5964      5963      5967      5965      5963      5967
      5967      5956      5971      5967      5969      5970      5968      5967      5969
      5971      5973      5974      5971      5975      5976      5971      5975      5977
      5971      5975      5978      5972      5971      5973      5972      5971      5975
      5973      5971      5975      5975      5978      5979      5976      5975      5977
      5976      5975      5978      5977      5975      5978      5980      5984      5982
      5980      5985      5986      5980      5985      5987      5980      5985      5989
      5981      5980      5984      5981      5980      5985      5982      5992      5989
      5982      5992      5993      5982      5992      5994      5982      5996      5997
      5982      5996      5998      5982      5996      5999      5983      5982      5984
      5983      5982      5992      5983      5982      5996      5984      5980      5985
      5984      5982      5992      5984      5982      5996      5985      5987      5988
      5985      5989      5990      5985      5989      5991      5985      5989      5992
      5986      5985      5987      5986      5985      5989      5987      5985      5989
      5989      5991      6001      5989      5992      5993      5989      5992      5994
      5990      5989      5991      5990      5989      5992      5991      5989      5992
      5991      6001      6002      5991      6001      6005      5991      6001      6006
      5992      5982      5996      5992      5994      5995      5993      5992      5994
      5996      5999      6000      5997      5996      5998      5997      5996      5999
      5998      5996      5999      6001      6005      6003      6001      6006      6007
      6001      6006      6008      6001      6006      6009      6002      6001      6005
      6002      6001      6006      6003      6012      6009      6003      6012      6013
      6003      6012      6014      6003      6016      6017      6003      6016      6018
      6003      6016      6019      6004      6003      6005      6004      6003      6012
      6004      6003      6016      6005      6001      6006      6005      6003      6012
      6005      6003      6016      6006      6008      6021      6006      6009      6010
      6006      6009      6011      6006      6009      6012      6007      6006      6008
      6007      6006      6009      6008      6006      6009      6008      6021      6022
      6008      6021      6025      6008      6021      6026      6009      6011      6064
      6009      6012      6013      6009      6012      6014      6010      6009      6011
      6010      6009      6012      6011      6009      6012      6011      6064      6065
      6011      6064      6068      6011      6064      6069      6012      6003      6016
      6012      6014      6015      6013      6012      6014      6016      6019      6020
      6017      6016      6018      6017      6016      6019      6018      6016      6019
      6021      6025      6023      6021      6026      6027      6021      6026      6028
      6021      6026      6029      6022      6021      6025      6022      6021      6026
      6023      6033      6029      6023      6033      6034      6023      6033      6035
      6023      6037      6038      6023      6037      6039      6023      6037      6040
      6024      6023      6025      6024      6023      6033      6024      6023      6037
      6025      6021      6026      6025      6023      6033      6025      6023      6037
      6026      6028      6042      6026      6029      6030      6026      6029      6031
      6026      6029      6033      6027      6026      6028      6027      6026      6029
      6028      6026      6029      6028      6042      6043      6028      6042      6046
      6028      6042      6047      6029      6031      6032      6029      6033      6034
      6029      6033      6035      6030      6029      6031      6030      6029      6033
      6031      6029      6033      6033      6023      6037      6033      6035      6036
      6034      6033      6035      6037      6040      6041      6038      6037      6039
      6038      6037      6040      6039      6037      6040      6042      6046      6044
      6042      6047      6048      6042      6047      6049      6042      6047      6051
      6043      6042      6046      6043      6042      6047      6044      6055      6051
      6044      6055      6056      6044      6055      6057      6044      6059      6060
      6044      6059      6061      6044      6059      6062      6045      6044      6046
      6045      6044      6055      6045      6044      6059      6046      6042      6047
      6046      6044      6055      6046      6044      6059      6047      6049      6050
      6047      6051      6052      6047      6051      6053      6047      6051      6055
      6048      6047      6049      6048      6047      6051      6049      6047      6051
      6051      6053      6054      6051      6055      6056      6051      6055      6057
      6052      6051      6053      6052      6051      6055      6053      6051      6055
      6055      6044      6059      6055      6057      6058      6056      6055      6057
      6059      6062      6063      6060      6059      6061      6060      6059      6062
      6061      6059      6062      6064      6068      6066      6064      6069      6070
      6064      6069      6071      6064      6069      6073      6065      6064      6068
      6065      6064      6069      6066      6076      6073      6066      6076      6077
      6066      6076      6078      6066      6080      6081      6066      6080      6082
      6066      6080      6083      6067      6066      6068      6067      6066      6076
      6067      6066      6080      6068      6064      6069      6068      6066      6076
      6068      6066      6080      6069      6071      6072      6069      6073      6074
      6069      6073      6075      6069      6073      6076      6070      6069      6071
      6070      6069      6073      6071      6069      6073      6073      6075      6085
      6073      6076      6077      6073      6076      6078      6074      6073      6075
      6074      6073      6076      6075      6073      6076      6075      6085      6086
      6075      6085      6089      6075      6085      6090      6076      6066      6080
      6076      6078      6079      6077      6076      6078      6080      6083      6084
      6081      6080      6082      6081      6080      6083      6082      6080      6083
      6085      6089      6087      6085      6090      6091      6085      6090      6092
      6085      6090      6100      6086      6085      6089      6086      6085      6090
      6087      6103      6100      6087      6103      6104      6087      6103      6105
      6087      6107      6108      6087      6107      6109      6087      6107      6110
      6088      6087      6089      6088      6087      6103      6088      6087      6107
      6089      6085      6090      6089      6087      6103      6089      6087      6107
      6090      6092      6093      6090      6092      6094      6090      6100      6101
      6090      6100      6102      6090      6100      6103      6091      6090      6092
      6091      6090      6100      6092      6090      6100      6092      6094      6095
      6092      6094      6096      6093      6092      6094      6094      6096      6097
      6094      6096      6098      6094      6096      6099      6095      6094      6096
      6097      6096      6098      6097      6096      6099      6098      6096      6099
      6100      6102      6112      6100      6103      6104      6100      6103      6105
      6101      6100      6102      6101      6100      6103      6102      6100      6103
      6102      6112      6113      6102      6112      6116      6102      6112      6117
      6103      6087      6107      6103      6105      6106      6104      6103      6105
      6107      6110      6111      6108      6107      6109      6108      6107      6110
      6109      6107      6110      6112      6116      6114      6112      6117      6118
      6112      6117      6119      6112      6117      6120      6113      6112      6116
      6113      6112      6117      6114      6124      6120      6114      6124      6125
      6114      6124      6126      6114      6128      6129      6114      6128      6130
      6114      6128      6131      6115      6114      6116      6115      6114      6124
      6115      6114      6128      6116      6112      6117      6116      6114      6124
      6116      6114      6128      6117      6119      6133      6117      6120      6121
      6117      6120      6122      6117      6120      6124      6118      6117      6119
      6118      6117      6120      6119      6117      6120      6119      6133      6134
      6119      6133      6137      6119      6133      6138      6120      6122      6123
      6120      6124      6125      6120      6124      6126      6121      6120      6122
      6121      6120      6124      6122      6120      6124      6124      6114      6128
      6124      6126      6127      6125      6124      6126      6128      6131      6132
      6129      6128      6130      6129      6128      6131      6130      6128      6131
      6133      6137      6135      6133      6138      6139      6133      6138      6140
      6133      6138      6141      6134      6133      6137      6134      6133      6138
      6135      6145      6141      6135      6145      6146      6135      6145      6147
      6135      6149      6150      6135      6149      6151      6135      6149      6152
      6136      6135      6137      6136      6135      6145      6136      6135      6149
      6137      6133      6138      6137      6135      6145      6137      6135      6149
      6138      6140      6153      6138      6141      6142      6138      6141      6143
      6138      6141      6145      6139      6138      6140      6139      6138      6141
      6140      6138      6141      6140      6153      6154      6140      6153      6157
      6140      6153      6158      6141      6143      6144      6141      6145      6146
      6141      6145      6147      6142      6141      6143      6142      6141      6145
      6143      6141      6145      6145      6135      6149      6145      6147      6148
      6146      6145      6147      6150      6149      6151      6150      6149      6152
      6151      6149      6152      6153      6157      6155      6153      6158      6159
      6153      6158      6160      6153      6158      6161      6154      6153      6157
      6154      6153      6158      6155      6164      6161      6155      6164      6165
      6155      6164      6166      6155      6168      6169      6155      6168      6170
      6155      6168      6171      6156      6155      6157      6156      6155      6164
      6156      6155      6168      6157      6153      6158      6157      6155      6164
      6157      6155      6168      6158      6160      6172      6158      6161      6162
      6158      6161      6163      6158      6161      6164      6159      6158      6160
      6159      6158      6161      6160      6158      6161      6160      6172      6173
      6160      6172      6176      6160      6172      6177      6161      6163      6200
      6161      6164      6165      6161      6164      6166      6162      6161      6163
      6162      6161      6164      6163      6161      6164      6163      6200      6201
      6163      6200      6204      6163      6200      6205      6164      6155      6168
      6164      6166      6167      6165      6164      6166      6169      6168      6170
      6169      6168      6171      6170      6168      6171      6172      6176      6174
      6172      6177      6178      6172      6177      6179      6172      6177      6187
      6173      6172      6176      6173      6172      6177      6174      6191      6187
      6174      6191      6192      6174      6191      6193      6174      6195      6196
      6174      6195      6197      6174      6195      6198      6175      6174      6176
      6175      6174      6191      6175      6174      6195      6176      6172      6177
      6176      6174      6191      6176      6174      6195      6177      6179      6180
      6177      6179      6181      6177      6187      6188      6177      6187      6189
      6177      6187      6191      6178      6177      6179      6178      6177      6187
      6179      6177      6187      6179      6181      6182      6179      6181      6183
      6180      6179      6181      6181      6183      6184      6181      6183      6185
      6181      6183      6186      6182      6181      6183      6184      6183      6185
      6184      6183      6186      6185      6183      6186      6187      6189      6190
      6187      6191      6192      6187      6191      6193      6188      6187      6189
      6188      6187      6191      6189      6187      6191      6191      6174      6195
      6191      6193      6194      6192      6191      6193      6195      6198      6199
      6196      6195      6197      6196      6195      6198      6197      6195      6198
      6200      6204      6202      6200      6205      6206      6200      6205      6207
      6200      6205      6215      6201      6200      6204      6201      6200      6205
      6202      6218      6215      6202      6218      6219      6202      6218      6220
      6202      6222      6223      6202      6222      6224      6202      6222      6225
      6203      6202      6204      6203      6202      6218      6203      6202      6222
      6204      6200      6205      6204      6202      6218      6204      6202      6222
      6205      6207      6208      6205      6207      6209      6205      6215      6216
      6205      6215      6217      6205      6215      6218      6206      6205      6207
      6206      6205      6215      6207      6205      6215      6207      6209      6210
      6207      6209      6211      6208      6207      6209      6209      6211      6212
      6209      6211      6213      6209      6211      6214      6210      6209      6211
      6212      6211      6213      6212      6211      6214      6213      6211      6214
      6215      6217      6227      6215      6218      6219      6215      6218      6220
      6216      6215      6217      6216      6215      6218      6217      6215      6218
      6217      6227      6228      6217      6227      6231      6217      6227      6232
      6218      6202      6222      6218      6220      6221      6219      6218      6220
      6222      6225      6226      6223      6222      6224      6223      6222      6225
      6224      6222      6225      6227      6231      6229      6227      6232      6233
      6227      6232      6234      6227      6232      6235      6228      6227      6231
      6228      6227      6232      6229      6239      6235      6229      6239      6240
      6229      6239      6241      6229      6243      6244      6229      6243      6245
      6229      6243      6246      6230      6229      6231      6230      6229      6239
      6230      6229      6243      6231      6227      6232      6231      6229      6239
      6231      6229      6243      6232      6234      6248      6232      6235      6236
      6232      6235      6237      6232      6235      6239      6233      6232      6234
      6233      6232      6235      6234      6232      6235      6234      6248      6249
      6234      6248      6252      6234      6248      6253      6235      6237      6238
      6235      6239      6240      6235      6239      6241      6236      6235      6237
      6236      6235      6239      6237      6235      6239      6239      6229      6243
      6239      6241      6242      6240      6239      6241      6243      6246      6247
      6244      6243      6245      6244      6243      6246      6245      6243      6246
      6248      6252      6250      6248      6253      6254      6248      6253      6255
      6248      6253      6256      6249      6248      6252      6249      6248      6253
      6250      6260      6256      6250      6260      6261      6250      6260      6262
      6250      6264      6265      6250      6264      6266      6250      6264      6267
      6251      6250      6252      6251      6250      6260      6251      6250      6264
      6252      6248      6253      6252      6250      6260      6252      6250      6264
      6253      6255      6268      6253      6256      6257      6253      6256      6258
      6253      6256      6260      6254      6253      6255      6254      6253      6256
      6255      6253      6256      6255      6268      6269      6255      6268      6272
      6255      6268      6273      6256      6258      6259      6256      6260      6261
      6256      6260      6262      6257      6256      6258      6257      6256      6260
      6258      6256      6260      6260      6250      6264      6260      6262      6263
      6261      6260      6262      6265      6264      6266      6265      6264      6267
      6266      6264      6267      6268      6272      6270      6268      6273      6274
      6268      6273      6275      6268      6273      6276      6269      6268      6272
      6269      6268      6273      6270      6279      6276      6270      6279      6280
      6270      6279      6281      6270      6283      6284      6270      6283      6285
      6270      6283      6286      6271      6270      6272      6271      6270      6279
      6271      6270      6283      6272      6268      6273      6272      6270      6279
      6272      6270      6283      6273      6275      6287      6273      6276      6277
      6273      6276      6278      6273      6276      6279      6274      6273      6275
      6274      6273      6276      6275      6273      6276      6275      6287      6288
      6275      6287      6291      6275      6287      6292      6276      6278      6315
      6276      6279      6280      6276      6279      6281      6277      6276      6278
      6277      6276      6279      6278      6276      6279      6278      6315      6316
      6278      6315      6319      6278      6315      6320      6279      6270      6283
      6279      6281      6282      6280      6279      6281      6284      6283      6285
      6284      6283      6286      6285      6283      6286      6287      6291      6289
      6287      6292      6293      6287      6292      6294      6287      6292      6302
      6288      6287      6291      6288      6287      6292      6289      6306      6302
      6289      6306      6307      6289      6306      6308      6289      6310      6311
      6289      6310      6312      6289      6310      6313      6290      6289      6291
      6290      6289      6306      6290      6289      6310      6291      6287      6292
      6291      6289      6306      6291      6289      6310      6292      6294      6295
      6292      6294      6296      6292      6302      6303      6292      6302      6304
      6292      6302      6306      6293      6292      6294      6293      6292      6302
      6294      6292      6302      6294      6296      6297      6294      6296      6298
      6295      6294      6296      6296      6298      6299      6296      6298      6300
      6296      6298      6301      6297      6296      6298      6299      6298      6300
      6299      6298      6301      6300      6298      6301      6302      6304      6305
      6302      6306      6307      6302      6306      6308      6303      6302      6304
      6303      6302      6306      6304      6302      6306      6306      6289      6310
      6306      6308      6309      6307      6306      6308      6310      6313      6314
      6311      6310      6312      6311      6310      6313      6312      6310      6313
      6315      6319      6317      6315      6320      6321      6315      6320      6322
      6315      6320      6330      6316      6315      6319      6316      6315      6320
      6317      6333      6330      6317      6333      6334      6317      6333      6335
      6317      6337      6338      6317      6337      6339      6317      6337      6340
      6318      6317      6319      6318      6317      6333      6318      6317      6337
      6319      6315      6320      6319      6317      6333      6319      6317      6337
      6320      6322      6323      6320      6322      6324      6320      6330      6331
      6320      6330      6332      6320      6330      6333      6321      6320      6322
      6321      6320      6330      6322      6320      6330      6322      6324      6325
      6322      6324      6326      6323      6322      6324      6324      6326      6327
      6324      6326      6328      6324      6326      6329      6325      6324      6326
      6327      6326      6328      6327      6326      6329      6328      6326      6329
      6330      6332      6342      6330      6333      6334      6330      6333      6335
      6331      6330      6332      6331      6330      6333      6332      6330      6333
      6332      6342      6343      6332      6342      6346      6332      6342      6347
      6333      6317      6337      6333      6335      6336      6334      6333      6335
      6337      6340      6341      6338      6337      6339      6338      6337      6340
      6339      6337      6340      6342      6346      6344      6342      6347      6348
      6342      6347      6349      6342      6347      6350      6343      6342      6346
      6343      6342      6347      6344      6354      6350      6344      6354      6355
      6344      6354      6356      6344      6358      6359      6344      6358      6360
      6344      6358      6361      6345      6344      6346      6345      6344      6354
      6345      6344      6358      6346      6342      6347      6346      6344      6354
      6346      6344      6358      6347      6349      6363      6347      6350      6351
      6347      6350      6352      6347      6350      6354      6348      6347      6349
      6348      6347      6350      6349      6347      6350      6349      6363      6364
      6349      6363      6367      6349      6363      6368      6350      6352      6353
      6350      6354      6355      6350      6354      6356      6351      6350      6352
      6351      6350      6354      6352      6350      6354      6354      6344      6358
      6354      6356      6357      6355      6354      6356      6358      6361      6362
      6359      6358      6360      6359      6358      6361      6360      6358      6361
      6363      6367      6365      6363      6368      6369      6363      6368      6370
      6363      6368      6371      6364      6363      6367      6364      6363      6368
      6365      6375      6371      6365      6375      6376      6365      6375      6377
      6365      6379      6380      6365      6379      6381      6365      6379      6382
      6366      6365      6367      6366      6365      6375      6366      6365      6379
      6367      6363      6368      6367      6365      6375      6367      6365      6379
      6368      6370      6383      6368      6371      6372      6368      6371      6373
      6368      6371      6375      6369      6368      6370      6369      6368      6371
      6370      6368      6371      6370      6383      6384      6370      6383      6387
      6370      6383      6388      6371      6373      6374      6371      6375      6376
      6371      6375      6377      6372      6371      6373      6372      6371      6375
      6373      6371      6375      6375      6365      6379      6375      6377      6378
      6376      6375      6377      6380      6379      6381      6380      6379      6382
      6381      6379      6382      6383      6387      6385      6383      6388      6389
      6383      6388      6390      6383      6388      6391      6384      6383      6387
      6384      6383      6388      6385      6394      6391      6385      6394      6395
      6385      6394      6396      6385      6398      6399      6385      6398      6400
      6385      6398      6401      6386      6385      6387      6386      6385      6394
      6386      6385      6398      6387      6383      6388      6387      6385      6394
      6387      6385      6398      6388      6390      6402      6388      6391      6392
      6388      6391      6393      6388      6391      6394      6389      6388      6390
      6389      6388      6391      6390      6388      6391      6390      6402      6403
      6390      6402      6406      6390      6402      6407      6391      6393      6430
      6391      6394      6395      6391      6394      6396      6392      6391      6393
      6392      6391      6394      6393      6391      6394      6393      6430      6431
      6393      6430      6434      6393      6430      6435      6394      6385      6398
      6394      6396      6397      6395      6394      6396      6399      6398      6400
      6399      6398      6401      6400      6398      6401      6402      6406      6404
      6402      6407      6408      6402      6407      6409      6402      6407      6417
      6403      6402      6406      6403      6402      6407      6404      6421      6417
      6404      6421      6422      6404      6421      6423      6404      6425      6426
      6404      6425      6427      6404      6425      6428      6405      6404      6406
      6405      6404      6421      6405      6404      6425      6406      6402      6407
      6406      6404      6421      6406      6404      6425      6407      6409      6410
      6407      6409      6411      6407      6417      6418      6407      6417      6419
      6407      6417      6421      6408      6407      6409      6408      6407      6417
      6409      6407      6417      6409      6411      6412      6409      6411      6413
      6410      6409      6411      6411      6413      6414      6411      6413      6415
      6411      6413      6416      6412      6411      6413      6414      6413      6415
      6414      6413      6416      6415      6413      6416      6417      6419      6420
      6417      6421      6422      6417      6421      6423      6418      6417      6419
      6418      6417      6421      6419      6417      6421      6421      6404      6425
      6421      6423      6424      6422      6421      6423      6425      6428      6429
      6426      6425      6427      6426      6425      6428      6427      6425      6428
      6430      6434      6432      6430      6435      6436      6430      6435      6437
      6430      6435      6445      6431      6430      6434      6431      6430      6435
      6432      6448      6445      6432      6448      6449      6432      6448      6450
      6432      6452      6453      6432      6452      6454      6432      6452      6455
      6433      6432      6434      6433      6432      6448      6433      6432      6452
      6434      6430      6435      6434      6432      6448      6434      6432      6452
      6435      6437      6438      6435      6437      6439      6435      6445      6446
      6435      6445      6447      6435      6445      6448      6436      6435      6437
      6436      6435      6445      6437      6435      6445      6437      6439      6440
      6437      6439      6441      6438      6437      6439      6439      6441      6442
      6439      6441      6443      6439      6441      6444      6440      6439      6441
      6442      6441      6443      6442      6441      6444      6443      6441      6444
      6445      6447      6457      6445      6448      6449      6445      6448      6450
      6446      6445      6447      6446      6445      6448      6447      6445      6448
      6447      6457      6458      6447      6457      6461      6447      6457      6462
      6448      6432      6452      6448      6450      6451      6449      6448      6450
      6452      6455      6456      6453      6452      6454      6453      6452      6455
      6454      6452      6455      6457      6461      6459      6457      6462      6463
      6457      6462      6464      6457      6462      6465      6458      6457      6461
      6458      6457      6462      6459      6469      6465      6459      6469      6470
      6459      6469      6471      6459      6473      6474      6459      6473      6475
      6459      6473      6476      6460      6459      6461      6460      6459      6469
      6460      6459      6473      6461      6457      6462      6461      6459      6469
      6461      6459      6473      6462      6464      6478      6462      6465      6466
      6462      6465      6467      6462      6465      6469      6463      6462      6464
      6463      6462      6465      6464      6462      6465      6464      6478      6479
      6464      6478      6482      6464      6478      6483      6465      6467      6468
      6465      6469      6470      6465      6469      6471      6466      6465      6467
      6466      6465      6469      6467      6465      6469      6469      6459      6473
      6469      6471      6472      6470      6469      6471      6473      6476      6477
      6474      6473      6475      6474      6473      6476      6475      6473      6476
      6478      6482      6480      6478      6483      6484      6478      6483      6485
      6478      6483      6486      6479      6478      6482      6479      6478      6483
      6480      6490      6486      6480      6490      6491      6480      6490      6492
      6480      6494      6495      6480      6494      6496      6480      6494      6497
      6481      6480      6482      6481      6480      6490      6481      6480      6494
      6482      6478      6483      6482      6480      6490      6482      6480      6494
      6483      6485      6498      6483      6486      6487      6483      6486      6488
      6483      6486      6490      6484      6483      6485      6484      6483      6486
      6485      6483      6486      6485      6498      6499      6485      6498      6502
      6485      6498      6503      6486      6488      6489      6486      6490      6491
      6486      6490      6492      6487      6486      6488      6487      6486      6490
      6488      6486      6490      6490      6480      6494      6490      6492      6493
      6491      6490      6492      6495      6494      6496      6495      6494      6497
      6496      6494      6497      6498      6502      6500      6498      6503      6504
      6498      6503      6505      6498      6503      6506      6499      6498      6502
      6499      6498      6503      6500      6509      6506      6500      6509      6510
      6500      6509      6511      6500      6513      6514      6500      6513      6515
      6500      6513      6516      6501      6500      6502      6501      6500      6509
      6501      6500      6513      6502      6498      6503      6502      6500      6509
      6502      6500      6513      6503      6505      6517      6503      6506      6507
      6503      6506      6508      6503      6506      6509      6504      6503      6505
      6504      6503      6506      6505      6503      6506      6505      6517      6518
      6505      6517      6521      6505      6517      6522      6506      6508      6545
      6506      6509      6510      6506      6509      6511      6507      6506      6508
      6507      6506      6509      6508      6506      6509      6508      6545      6546
      6508      6545      6549      6508      6545      6550      6509      6500      6513
      6509      6511      6512      6510      6509      6511      6514      6513      6515
      6514      6513      6516      6515      6513      6516      6517      6521      6519
      6517      6522      6523      6517      6522      6524      6517      6522      6532
      6518      6517      6521      6518      6517      6522      6519      6536      6532
      6519      6536      6537      6519      6536      6538      6519      6540      6541
      6519      6540      6542      6519      6540      6543      6520      6519      6521
      6520      6519      6536      6520      6519      6540      6521      6517      6522
      6521      6519      6536      6521      6519      6540      6522      6524      6525
      6522      6524      6526      6522      6532      6533      6522      6532      6534
      6522      6532      6536      6523      6522      6524      6523      6522      6532
      6524      6522      6532      6524      6526      6527      6524      6526      6528
      6525      6524      6526      6526      6528      6529      6526      6528      6530
      6526      6528      6531      6527      6526      6528      6529      6528      6530
      6529      6528      6531      6530      6528      6531      6532      6534      6535
      6532      6536      6537      6532      6536      6538      6533      6532      6534
      6533      6532      6536      6534      6532      6536      6536      6519      6540
      6536      6538      6539      6537      6536      6538      6540      6543      6544
      6541      6540      6542      6541      6540      6543      6542      6540      6543
      6545      6549      6547      6545      6550      6551      6545      6550      6552
      6545      6550      6560      6546      6545      6549      6546      6545      6550
      6547      6563      6560      6547      6563      6564      6547      6563      6565
      6547      6567      6568      6547      6567      6569      6547      6567      6570
      6548      6547      6549      6548      6547      6563      6548      6547      6567
      6549      6545      6550      6549      6547      6563      6549      6547      6567
      6550      6552      6553      6550      6552      6554      6550      6560      6561
      6550      6560      6562      6550      6560      6563      6551      6550      6552
      6551      6550      6560      6552      6550      6560      6552      6554      6555
      6552      6554      6556      6553      6552      6554      6554      6556      6557
      6554      6556      6558      6554      6556      6559      6555      6554      6556
      6557      6556      6558      6557      6556      6559      6558      6556      6559
      6560      6562      6572      6560      6563      6564      6560      6563      6565
      6561      6560      6562      6561      6560      6563      6562      6560      6563
      6562      6572      6573      6562      6572      6576      6562      6572      6577
      6563      6547      6567      6563      6565      6566      6564      6563      6565
      6567      6570      6571      6568      6567      6569      6568      6567      6570
      6569      6567      6570      6572      6576      6574      6572      6577      6578
      6572      6577      6579      6572      6577      6580      6573      6572      6576
      6573      6572      6577      6574      6584      6580      6574      6584      6585
      6574      6584      6586      6574      6588      6589      6574      6588      6590
      6574      6588      6591      6575      6574      6576      6575      6574      6584
      6575      6574      6588      6576      6572      6577      6576      6574      6584
      6576      6574      6588      6577      6579      6593      6577      6580      6581
      6577      6580      6582      6577      6580      6584      6578      6577      6579
      6578      6577      6580      6579      6577      6580      6579      6593      6594
      6579      6593      6597      6579      6593      6598      6580      6582      6583
      6580      6584      6585      6580      6584      6586      6581      6580      6582
      6581      6580      6584      6582      6580      6584      6584      6574      6588
      6584      6586      6587      6585      6584      6586      6588      6591      6592
      6589      6588      6590      6589      6588      6591      6590      6588      6591
      6593      6597      6595      6593      6598      6599      6593      6598      6600
      6593      6598      6601      6594      6593      6597      6594      6593      6598
      6595      6605      6601      6595      6605      6606      6595      6605      6607
      6595      6609      6610      6595      6609      6611      6595      6609      6612
      6596      6595      6597      6596      6595      6605      6596      6595      6609
      6597      6593      6598      6597      6595      6605      6597      6595      6609
      6598      6600      6613      6598      6601      6602      6598      6601      6603
      6598      6601      6605      6599      6598      6600      6599      6598      6601
      6600      6598      6601      6600      6613      6614      6600      6613      6617
      6600      6613      6618      6601      6603      6604      6601      6605      6606
      6601      6605      6607      6602      6601      6603      6602      6601      6605
      6603      6601      6605      6605      6595      6609      6605      6607      6608
      6606      6605      6607      6610      6609      6611      6610      6609      6612
      6611      6609      6612      6613      6617      6615      6613      6618      6619
      6613      6618      6620      6613      6618      6621      6614      6613      6617
      6614      6613      6618      6615      6625      6621      6615      6625      6626
      6615      6625      6627      6615      6629      6630      6615      6629      6631
      6615      6629      6632      6616      6615      6617      6616      6615      6625
      6616      6615      6629      6617      6613      6618      6617      6615      6625
      6617      6615      6629      6618      6620      6633      6618      6621      6622
      6618      6621      6623      6618      6621      6625      6619      6618      6620
      6619      6618      6621      6620      6618      6621      6620      6633      6634
      6620      6633      6637      6620      6633      6638      6621      6623      6624
      6621      6625      6626      6621      6625      6627      6622      6621      6623
      6622      6621      6625      6623      6621      6625      6625      6615      6629
      6625      6627      6628      6626      6625      6627      6630      6629      6631
      6630      6629      6632      6631      6629      6632      6633      6637      6635
      6633      6638      6639      6633      6638      6640      6633      6638      6648
      6634      6633      6637      6634      6633      6638      6635      6652      6648
      6635      6652      6653      6635      6652      6654      6635      6656      6657
      6635      6656      6658      6635      6656      6659      6636      6635      6637
      6636      6635      6652      6636      6635      6656      6637      6633      6638
      6637      6635      6652      6637      6635      6656      6638      6640      6641
      6638      6640      6642      6638      6648      6649      6638      6648      6650
      6638      6648      6652      6639      6638      6640      6639      6638      6648
      6640      6638      6648      6640      6642      6643      6640      6642      6644
      6641      6640      6642      6642      6644      6645      6642      6644      6646
      6642      6644      6647      6643      6642      6644      6645      6644      6646
      6645      6644      6647      6646      6644      6647      6648      6650      6651
      6648      6652      6653      6648      6652      6654      6649      6648      6650
      6649      6648      6652      6650      6648      6652      6652      6635      6656
      6652      6654      6655      6653      6652      6654      6656      6659      6660
      6657      6656      6658      6657      6656      6659      6658      6656      6659
      6661      6663      6662      6661      6663      6664      6661      6663      6665
      6662      6663      6664      6662      6663      6665      6662      6960      6957
      6662      6960      6963      6662      6960      6964      6663      6662      6960
      6663      6665      6666      6663      6665      6667      6663      6665      6674
      6664      6663      6665      6665      6666      6668      6665      6674      6675
      6665      6674      6676      6665      6674      6681      6666      6665      6667
      6666      6665      6674      6666      6668      6669      6666      6668      6670
      6666      6668      6689      6667      6665      6674      6668      6670      6671
      6668      6689      6681      6668      6689      6690      6668      6689      6691
      6669      6668      6670      6669      6668      6689      6670      6668      6689
      6670      6671      6672      6670      6671      6673      6670      6671      6697
      6671      6697      6693      6671      6697      6698      6671      6697      6699
      6672      6671      6673      6672      6671      6697      6673      6671      6697
      6674      6676      6677      6674      6681      6682      6674      6681      6683
      6674      6681      6689      6675      6674      6676      6675      6674      6681
      6676      6674      6681      6676      6677      6678      6676      6677      6679
      6676      6677      6680      6678      6677      6679      6678      6677      6680
      6679      6677      6680      6681      6682      6684      6681      6689      6690
      6681      6689      6691      6682      6681      6683      6682      6681      6689
      6682      6684      6685      6682      6684      6686      6683      6681      6689
      6684      6686      6687      6684      6686      6688      6684      6686      6719
      6685      6684      6686      6686      6719      6720      6686      6719      6721
      6686      6719      6764      6687      6686      6688      6687      6686      6719
      6688      6686      6719      6689      6691      6692      6689      6691      6798
      6690      6689      6691      6691      6798      6799      6691      6798      6800
      6692      6691      6798      6693      6695      6696      6693      6697      6698
      6693      6697      6699      6693      6707      6708      6693      6707      6709
      6693      6707      6715      6694      6693      6695      6694      6693      6697
      6694      6693      6707      6695      6693      6697      6695      6693      6707
      6697      6693      6707      6697      6699      6700      6698      6697      6699
      6699      6700      6701      6699      6700      6702      6699      6700      6715
      6700      6702      6706      6700      6715      6707      6700      6715      6716
      6700      6715      6717      6701      6700      6702      6701      6700      6715
      6702      6700      6715      6702      6706      6703      6702      6706      6704
      6702      6706      6705      6703      6706      6704      6703      6706      6705
      6704      6706      6705      6707      6709      6710      6707      6715      6716
      6707      6715      6717      6708      6707      6709      6708      6707      6715
      6709      6707      6715      6709      6710      6711      6709      6710      6712
      6710      6712      6713      6710      6712      6714      6710      6712      6876
      6711      6710      6712      6712      6876      6877      6712      6876      6878
      6712      6876      6880      6713      6712      6714      6713      6712      6876
      6714      6712      6876      6715      6717      6718      6715      6717      6914
      6716      6715      6717      6717      6914      6915      6717      6914      6916
      6718      6717      6914      6719      6721      6722      6719      6764      6765
      6719      6764      6766      6719      6764      6767      6720      6719      6721
      6720      6719      6764      6721      6719      6764      6721      6722      6723
      6721      6722      6724      6722      6724      6725      6722      6724      6726
      6722      6724      6727      6723      6722      6724      6724      6727      6728
      6724      6727      6729      6724      6727      6730      6725      6724      6726
      6725      6724      6727      6726      6724      6727      6727      6730      6731
      6727      6730      6732      6727      6730      6733      6728      6727      6729
      6728      6727      6730      6729      6727      6730      6730      6733      6734
      6730      6733      6735      6730      6733      6736      6731      6730      6732
      6731      6730      6733      6732      6730      6733      6733      6736      6737
      6733      6736      6738      6733      6736      6739      6734      6733      6735
      6734      6733      6736      6735      6733      6736      6736      6739      6740
      6736      6739      6741      6736      6739      6742      6737      6736      6738
      6737      6736      6739      6738      6736      6739      6739      6742      6743
      6739      6742      6744      6739      6742      6745      6740      6739      6741
      6740      6739      6742      6741      6739      6742      6742      6745      6746
      6742      6745      6747      6742      6745      6748      6743      6742      6744
      6743      6742      6745      6744      6742      6745      6745      6748      6749
      6745      6748      6750      6745      6748      6751      6746      6745      6747
      6746      6745      6748      6747      6745      6748      6748      6751      6752
      6748      6751      6753      6748      6751      6754      6749      6748      6750
      6749      6748      6751      6750      6748      6751      6751      6754      6755
      6751      6754      6756      6751      6754      6757      6752      6751      6753
      6752      6751      6754      6753      6751      6754      6754      6757      6758
      6754      6757      6759      6754      6757      6760      6755      6754      6756
      6755      6754      6757      6756      6754      6757      6757      6760      6761
      6757      6760      6762      6757      6760      6763      6758      6757      6759
      6758      6757      6760      6759      6757      6760      6761      6760      6762
      6761      6760      6763      6762      6760      6763      6764      6767      6768
      6764      6767      6769      6764      6767      6770      6765      6764      6766
      6765      6764      6767      6766      6764      6767      6767      6770      6771
      6767      6770      6772      6767      6770      6773      6768      6767      6769
      6768      6767      6770      6769      6767      6770      6770      6773      6774
      6770      6773      6775      6770      6773      6776      6771      6770      6772
      6771      6770      6773      6772      6770      6773      6773      6776      6777
      6773      6776      6778      6773      6776      6779      6774      6773      6775
      6774      6773      6776      6775      6773      6776      6776      6779      6780
      6776      6779      6781      6776      6779      6782      6777      6776      6778
      6777      6776      6779      6778      6776      6779      6779      6782      6783
      6779      6782      6784      6779      6782      6785      6780      6779      6781
      6780      6779      6782      6781      6779      6782      6782      6785      6786
      6782      6785      6787      6782      6785      6788      6783      6782      6784
      6783      6782      6785      6784      6782      6785      6785      6788      6789
      6785      6788      6790      6785      6788      6791      6786      6785      6787
      6786      6785      6788      6787      6785      6788      6788      6791      6792
      6788      6791      6793      6788      6791      6794      6789      6788      6790
      6789      6788      6791      6790      6788      6791      6791      6794      6795
      6791      6794      6796      6791      6794      6797      6792      6791      6793
      6792      6791      6794      6793      6791      6794      6795      6794      6796
      6795      6794      6797      6796      6794      6797      6798      6800      6801
      6798      6800      6802      6798      6800      6803      6799      6798      6800
      6800      6803      6804      6800      6803      6805      6800      6803      6842
      6801      6800      6802      6801      6800      6803      6802      6800      6803
      6803      6805      6806      6803      6842      6843      6803      6842      6844
      6803      6842      6845      6804      6803      6805      6804      6803      6842
      6805      6803      6842      6805      6806      6807      6805      6806      6808
      6806      6808      6809      6806      6808      6810      6806      6808      6811
      6807      6806      6808      6808      6811      6812      6808      6811      6813
      6808      6811      6814      6809      6808      6810      6809      6808      6811
      6810      6808      6811      6811      6814      6815      6811      6814      6816
      6811      6814      6817      6812      6811      6813      6812      6811      6814
      6813      6811      6814      6814      6817      6818      6814      6817      6819
      6814      6817      6820      6815      6814      6816      6815      6814      6817
      6816      6814      6817      6817      6820      6821      6817      6820      6822
      6817      6820      6823      6818      6817      6819      6818      6817      6820
      6819      6817      6820      6820      6823      6824      6820      6823      6825
      6820      6823      6826      6821      6820      6822      6821      6820      6823
      6822      6820      6823      6823      6826      6827      6823      6826      6828
      6823      6826      6829      6824      6823      6825      6824      6823      6826
      6825      6823      6826      6826      6829      6830      6826      6829      6831
      6826      6829      6832      6827      6826      6828      6827      6826      6829
      6828      6826      6829      6829      6832      6833      6829      6832      6834
      6829      6832      6835      6830      6829      6831      6830      6829      6832
      6831      6829      6832      6832      6835      6836      6832      6835      6837
      6832      6835      6838      6833      6832      6834      6833      6832      6835
      6834      6832      6835      6835      6838      6839      6835      6838      6840
      6835      6838      6841      6836      6835      6837      6836      6835      6838
      6837      6835      6838      6839      6838      6840      6839      6838      6841
      6840      6838      6841      6842      6845      6846      6842      6845      6847
      6842      6845      6848      6843      6842      6844      6843      6842      6845
      6844      6842      6845      6845      6848      6849      6845      6848      6850
      6845      6848      6851      6846      6845      6847      6846      6845      6848
      6847      6845      6848      6848      6851      6852      6848      6851      6853
      6848      6851      6854      6849      6848      6850      6849      6848      6851
      6850      6848      6851      6851      6854      6855      6851      6854      6856
      6851      6854      6857      6852      6851      6853      6852      6851      6854
      6853      6851      6854      6854      6857      6858      6854      6857      6859
      6854      6857      6860      6855      6854      6856      6855      6854      6857
      6856      6854      6857      6857      6860      6861      6857      6860      6862
      6857      6860      6863      6858      6857      6859      6858      6857      6860
      6859      6857      6860      6860      6863      6864      6860      6863      6865
      6860      6863      6866      6861      6860      6862      6861      6860      6863
      6862      6860      6863      6863      6866      6867      6863      6866      6868
      6863      6866      6869      6864      6863      6865      6864      6863      6866
      6865      6863      6866      6866      6869      6870      6866      6869      6871
      6866      6869      6872      6867      6866      6868      6867      6866      6869
      6868      6866      6869      6869      6872      6873      6869      6872      6874
      6869      6872      6875      6870      6869      6871      6870      6869      6872
      6871      6869      6872      6873      6872      6874      6873      6872      6875
      6874      6872      6875      6876      6878      6879      6876      6880      6881
      6876      6880      6882      6876      6880      6883      6877      6876      6878
      6877      6876      6880      6878      6876      6880      6880      6883      6884
      6880      6883      6885      6880      6883      6886      6881      6880      6882
      6881      6880      6883      6882      6880      6883      6883      6886      6887
      6883      6886      6888      6883      6886      6889      6884      6883      6885
      6884      6883      6886      6885      6883      6886      6886      6889      6890
      6886      6889      6891      6886      6889      6892      6887      6886      6888
      6887      6886      6889      6888      6886      6889      6889      6892      6893
      6889      6892      6894      6889      6892      6895      6890      6889      6891
      6890      6889      6892      6891      6889      6892      6892      6895      6896
      6892      6895      6897      6892      6895      6898      6893      6892      6894
      6893      6892      6895      6894      6892      6895      6895      6898      6899
      6895      6898      6900      6895      6898      6901      6896      6895      6897
      6896      6895      6898      6897      6895      6898      6898      6901      6902
      6898      6901      6903      6898      6901      6904      6899      6898      6900
      6899      6898      6901      6900      6898      6901      6901      6904      6905
      6901      6904      6906      6901      6904      6907      6902      6901      6903
      6902      6901      6904      6903      6901      6904      6904      6907      6908
      6904      6907      6909      6904      6907      6910      6905      6904      6906
      6905      6904      6907      6906      6904      6907      6907      6910      6911
      6907      6910      6912      6907      6910      6913      6908      6907      6909
      6908      6907      6910      6909      6907      6910      6911      6910      6912
      6911      6910      6913      6912      6910      6913      6914      6916      6917
      6914      6916      6918      6914      6916      6919      6915      6914      6916
      6916      6919      6920      6916      6919      6921      6916      6919      6923
      6917      6916      6918      6917      6916      6919      6918      6916      6919
      6919      6921      6922      6919      6923      6924      6919      6923      6925
      6919      6923      6926      6920      6919      6921      6920      6919      6923
      6921      6919      6923      6923      6926      6927      6923      6926      6928
      6923      6926      6929      6924      6923      6925      6924      6923      6926
      6925      6923      6926      6926      6929      6930      6926      6929      6931
      6926      6929      6932      6927      6926      6928      6927      6926      6929
      6928      6926      6929      6929      6932      6933      6929      6932      6934
      6929      6932      6935      6930      6929      6931      6930      6929      6932
      6931      6929      6932      6932      6935      6936      6932      6935      6937
      6932      6935      6938      6933      6932      6934      6933      6932      6935
      6934      6932      6935      6935      6938      6939      6935      6938      6940
      6935      6938      6941      6936      6935      6937      6936      6935      6938
      6937      6935      6938      6938      6941      6942      6938      6941      6943
      6938      6941      6944      6939      6938      6940      6939      6938      6941
      6940      6938      6941      6941      6944      6945      6941      6944      6946
      6941      6944      6947      6942      6941      6943      6942      6941      6944
      6943      6941      6944      6944      6947      6948      6944      6947      6949
      6944      6947      6950      6945      6944      6946      6945      6944      6947
      6946      6944      6947      6947      6950      6951      6947      6950      6952
      6947      6950      6953      6948      6947      6949      6948      6947      6950
      6949      6947      6950      6950      6953      6954      6950      6953      6955
      6950      6953      6956      6951      6950      6952      6951      6950      6953
      6952      6950      6953      6954      6953      6955      6954      6953      6956
      6955      6953      6956      6957      6960      6963      6957      6960      6964
      6958      6957      6959      6958      6957      6960      6959      6957      6960
      6960      6963      6961      6960      6964      6965      6960      6964      6966
      6960      6964      6967      6961      6970      6967      6961      6970      6971
      6961      6970      6972      6961      6973      6974      6961      6973      6975
      6961      6973      6977      6962      6961      6963      6962      6961      6970
      6962      6961      6973      6963      6960      6964      6963      6961      6970
      6963      6961      6973      6964      6967      6968      6964      6967      6969
      6964      6967      6970      6965      6964      6966      6965      6964      6967
      6966      6964      6967      6967      6969      6985      6967      6970      6971
      6967      6970      6972      6968      6967      6969      6968      6967      6970
      6969      6967      6970      6969      6985      6982      6969      6985      6988
      6969      6985      6989      6970      6961      6973      6970      6972      7009
      6971      6970      6972      6972      7009      7010      6972      7009      7013
      6972      7009      7014      6973      6975      6976      6973      6977      6978
      6973      6977      6979      6973      6977      6980      6974      6973      6975
      6974      6973      6977      6975      6973      6977      6977      6980      6981
      6978      6977      6979      6978      6977      6980      6979      6977      6980
      6982      6985      6988      6982      6985      6989      6983      6982      6984
      6983      6982      6985      6984      6982      6985      6985      6988      6986
      6985      6989      6990      6985      6989      6991      6985      6989      6992
      6986      6996      6992      6986      6996      6997      6986      6996      6998
      6986      7000      7001      6986      7000      7002      6986      7000      7004
      6987      6986      6988      6987      6986      6996      6987      6986      7000
      6988      6985      6989      6988      6986      6996      6988      6986      7000
      6989      6992      6993      6989      6992      6994      6989      6992      6996
      6990      6989      6991      6990      6989      6992      6991      6989      6992
      6992      6994      6995      6992      6996      6997      6992      6996      6998
      6993      6992      6994      6993      6992      6996      6994      6992      6996
      6996      6986      7000      6996      6998      6999      6997      6996      6998
      7000      7002      7003      7000      7004      7005      7000      7004      7006
      7000      7004      7007      7001      7000      7002      7001      7000      7004
      7002      7000      7004      7004      7007      7008      7005      7004      7006
      7005      7004      7007      7006      7004      7007      7009      7013      7011
      7009      7014      7015      7009      7014      7016      7009      7014      7018
      7010      7009      7013      7010      7009      7014      7011      7021      7018
      7011      7021      7022      7011      7021      7023      7011      7028      7029
      7011      7028      7030      7011      7028      7032      7012      7011      7013
      7012      7011      7021      7012      7011      7028      7013      7009      7014
      7013      7011      7021      7013      7011      7028      7014      7016      7017
      7014      7018      7019      7014      7018      7020      7014      7018      7021
      7015      7014      7016      7015      7014      7018      7016      7014      7018
      7018      7020      7037      7018      7021      7022      7018      7021      7023
      7019      7018      7020      7019      7018      7021      7020      7018      7021
      7020      7037      7038      7020      7037      7041      7020      7037      7042
      7021      7011      7028      7021      7023      7024      7022      7021      7023
      7023      7024      7025      7023      7024      7026      7023      7024      7027
      7025      7024      7026      7025      7024      7027      7026      7024      7027
      7028      7030      7031      7028      7032      7033      7028      7032      7034
      7028      7032      7035      7029      7028      7030      7029      7028      7032
      7030      7028      7032      7032      7035      7036      7033      7032      7034
      7033      7032      7035      7034      7032      7035      7037      7041      7039
      7037      7042      7043      7037      7042      7044      7037      7042      7046
      7038      7037      7041      7038      7037      7042      7039      7049      7046
      7039      7049      7050      7039      7049      7051      7039      7056      7057
      7039      7056      7058      7039      7056      7060      7040      7039      7041
      7040      7039      7049      7040      7039      7056      7041      7037      7042
      7041      7039      7049      7041      7039      7056      7042      7044      7045
      7042      7046      7047      7042      7046      7048      7042      7046      7049
      7043      7042      7044      7043      7042      7046      7044      7042      7046
      7046      7048      7090      7046      7049      7050      7046      7049      7051
      7047      7046      7048      7047      7046      7049      7048      7046      7049
      7048      7090      7091      7048      7090      7094      7048      7090      7095
      7049      7039      7056      7049      7051      7052      7050      7049      7051
      7051      7052      7053      7051      7052      7054      7051      7052      7055
      7053      7052      7054      7053      7052      7055      7054      7052      7055
      7056      7058      7059      7056      7060      7061      7056      7060      7062
      7056      7060      7063      7057      7056      7058      7057      7056      7060
      7058      7056      7060      7060      7063      7064      7061      7060      7062
      7061      7060      7063      7062      7060      7063      7063      7064      7065
      7063      7064      7068      7063      7064      7069      7064      7068      7066
      7064      7069      7070      7064      7069      7071      7064      7069      7073
      7065      7064      7068      7065      7064      7069      7066      7077      7073
      7066      7077      7078      7066      7077      7079      7066      7081      7082
      7066      7081      7083      7066      7081      7085      7067      7066      7068
      7067      7066      7077      7067      7066      7081      7068      7064      7069
      7068      7066      7077      7068      7066      7081      7069      7071      7072
      7069      7073      7074      7069      7073      7075      7069      7073      7077
      7070      7069      7071      7070      7069      7073      7071      7069      7073
      7073      7075      7076      7073      7077      7078      7073      7077      7079
      7074      7073      7075      7074      7073      7077      7075      7073      7077
      7077      7066      7081      7077      7079      7080      7078      7077      7079
      7081      7083      7084      7081      7085      7086      7081      7085      7087
      7081      7085      7088      7082      7081      7083      7082      7081      7085
      7083      7081      7085      7085      7088      7089      7086      7085      7087
      7086      7085      7088      7087      7085      7088      7090      7094      7092
      7090      7095      7096      7090      7095      7097      7090      7095      7099
      7091      7090      7094      7091      7090      7095      7092      7102      7099
      7092      7102      7103      7092      7102      7104      7092      7106      7107
      7092      7106      7108      7092      7106      7109      7093      7092      7094
      7093      7092      7102      7093      7092      7106      7094      7090      7095
      7094      7092      7102      7094      7092      7106      7095      7097      7098
      7095      7099      7100      7095      7099      7101      7095      7099      7102
      7096      7095      7097      7096      7095      7099      7097      7095      7099
      7099      7101      7111      7099      7102      7103      7099      7102      7104
      7100      7099      7101      7100      7099      7102      7101      7099      7102
      7101      7111      7112      7101      7111      7115      7101      7111      7116
      7102      7092      7106      7102      7104      7105      7103      7102      7104
      7106      7109      7110      7107      7106      7108      7107      7106      7109
      7108      7106      7109      7111      7115      7113      7111      7116      7117
      7111      7116      7118      7111      7116      7119      7112      7111      7115
      7112      7111      7116      7113      7122      7119      7113      7122      7123
      7113      7122      7124      7113      7126      7127      7113      7126      7128
      7113      7126      7129      7114      7113      7115      7114      7113      7122
      7114      7113      7126      7115      7111      7116      7115      7113      7122
      7115      7113      7126      7116      7118      7131      7116      7119      7120
      7116      7119      7121      7116      7119      7122      7117      7116      7118
      7117      7116      7119      7118      7116      7119      7118      7131      7132
      7118      7131      7135      7118      7131      7136      7119      7121      7174
      7119      7122      7123      7119      7122      7124      7120      7119      7121
      7120      7119      7122      7121      7119      7122      7121      7174      7175
      7121      7174      7178      7121      7174      7179      7122      7113      7126
      7122      7124      7125      7123      7122      7124      7126      7129      7130
      7127      7126      7128      7127      7126      7129      7128      7126      7129
      7131      7135      7133      7131      7136      7137      7131      7136      7138
      7131      7136      7139      7132      7131      7135      7132      7131      7136
      7133      7143      7139      7133      7143      7144      7133      7143      7145
      7133      7147      7148      7133      7147      7149      7133      7147      7150
      7134      7133      7135      7134      7133      7143      7134      7133      7147
      7135      7131      7136      7135      7133      7143      7135      7133      7147
      7136      7138      7152      7136      7139      7140      7136      7139      7141
      7136      7139      7143      7137      7136      7138      7137      7136      7139
      7138      7136      7139      7138      7152      7153      7138      7152      7156
      7138      7152      7157      7139      7141      7142      7139      7143      7144
      7139      7143      7145      7140      7139      7141      7140      7139      7143
      7141      7139      7143      7143      7133      7147      7143      7145      7146
      7144      7143      7145      7147      7150      7151      7148      7147      7149
      7148      7147      7150      7149      7147      7150      7152      7156      7154
      7152      7157      7158      7152      7157      7159      7152      7157      7161
      7153      7152      7156      7153      7152      7157      7154      7165      7161
      7154      7165      7166      7154      7165      7167      7154      7169      7170
      7154      7169      7171      7154      7169      7172      7155      7154      7156
      7155      7154      7165      7155      7154      7169      7156      7152      7157
      7156      7154      7165      7156      7154      7169      7157      7159      7160
      7157      7161      7162      7157      7161      7163      7157      7161      7165
      7158      7157      7159      7158      7157      7161      7159      7157      7161
      7161      7163      7164      7161      7165      7166      7161      7165      7167
      7162      7161      7163      7162      7161      7165      7163      7161      7165
      7165      7154      7169      7165      7167      7168      7166      7165      7167
      7169      7172      7173      7170      7169      7171      7170      7169      7172
      7171      7169      7172      7174      7178      7176      7174      7179      7180
      7174      7179      7181      7174      7179      7183      7175      7174      7178
      7175      7174      7179      7176      7186      7183      7176      7186      7187
      7176      7186      7188      7176      7190      7191      7176      7190      7192
      7176      7190      7193      7177      7176      7178      7177      7176      7186
      7177      7176      7190      7178      7174      7179      7178      7176      7186
      7178      7176      7190      7179      7181      7182      7179      7183      7184
      7179      7183      7185      7179      7183      7186      7180      7179      7181
      7180      7179      7183      7181      7179      7183      7183      7185      7195
      7183      7186      7187      7183      7186      7188      7184      7183      7185
      7184      7183      7186      7185      7183      7186      7185      7195      7196
      7185      7195      7199      7185      7195      7200      7186      7176      7190
      7186      7188      7189      7187      7186      7188      7190      7193      7194
      7191      7190      7192      7191      7190      7193      7192      7190      7193
      7195      7199      7197      7195      7200      7201      7195      7200      7202
      7195      7200      7210      7196      7195      7199      7196      7195      7200
      7197      7213      7210      7197      7213      7214      7197      7213      7215
      7197      7217      7218      7197      7217      7219      7197      7217      7220
      7198      7197      7199      7198      7197      7213      7198      7197      7217
      7199      7195      7200      7199      7197      7213      7199      7197      7217
      7200      7202      7203      7200      7202      7204      7200      7210      7211
      7200      7210      7212      7200      7210      7213      7201      7200      7202
      7201      7200      7210      7202      7200      7210      7202      7204      7205
      7202      7204      7206      7203      7202      7204      7204      7206      7207
      7204      7206      7208      7204      7206      7209      7205      7204      7206
      7207      7206      7208      7207      7206      7209      7208      7206      7209
      7210      7212      7222      7210      7213      7214      7210      7213      7215
      7211      7210      7212      7211      7210      7213      7212      7210      7213
      7212      7222      7223      7212      7222      7226      7212      7222      7227
      7213      7197      7217      7213      7215      7216      7214      7213      7215
      7217      7220      7221      7218      7217      7219      7218      7217      7220
      7219      7217      7220      7222      7226      7224      7222      7227      7228
      7222      7227      7229      7222      7227      7230      7223      7222      7226
      7223      7222      7227      7224      7234      7230      7224      7234      7235
      7224      7234      7236      7224      7238      7239      7224      7238      7240
      7224      7238      7241      7225      7224      7226      7225      7224      7234
      7225      7224      7238      7226      7222      7227      7226      7224      7234
      7226      7224      7238      7227      7229      7243      7227      7230      7231
      7227      7230      7232      7227      7230      7234      7228      7227      7229
      7228      7227      7230      7229      7227      7230      7229      7243      7244
      7229      7243      7247      7229      7243      7248      7230      7232      7233
      7230      7234      7235      7230      7234      7236      7231      7230      7232
      7231      7230      7234      7232      7230      7234      7234      7224      7238
      7234      7236      7237      7235      7234      7236      7238      7241      7242
      7239      7238      7240      7239      7238      7241      7240      7238      7241
      7243      7247      7245      7243      7248      7249      7243      7248      7250
      7243      7248      7251      7244      7243      7247      7244      7243      7248
      7245      7255      7251      7245      7255      7256      7245      7255      7257
      7245      7259      7260      7245      7259      7261      7245      7259      7262
      7246      7245      7247      7246      7245      7255      7246      7245      7259
      7247      7243      7248      7247      7245      7255      7247      7245      7259
      7248      7250      7263      7248      7251      7252      7248      7251      7253
      7248      7251      7255      7249      7248      7250      7249      7248      7251
      7250      7248      7251      7250      7263      7264      7250      7263      7267
      7250      7263      7268      7251      7253      7254      7251      7255      7256
      7251      7255      7257      7252      7251      7253      7252      7251      7255
      7253      7251      7255      7255      7245      7259      7255      7257      7258
      7256      7255      7257      7260      7259      7261      7260      7259      7262
      7261      7259      7262      7263      7267      7265      7263      7268      7269
      7263      7268      7270      7263      7268      7271      7264      7263      7267
      7264      7263      7268      7265      7274      7271      7265      7274      7275
      7265      7274      7276      7265      7278      7279      7265      7278      7280
      7265      7278      7281      7266      7265      7267      7266      7265      7274
      7266      7265      7278      7267      7263      7268      7267      7265      7274
      7267      7265      7278      7268      7270      7282      7268      7271      7272
      7268      7271      7273      7268      7271      7274      7269      7268      7270
      7269      7268      7271      7270      7268      7271      7270      7282      7283
      7270      7282      7286      7270      7282      7287      7271      7273      7310
      7271      7274      7275      7271      7274      7276      7272      7271      7273
      7272      7271      7274      7273      7271      7274      7273      7310      7311
      7273      7310      7314      7273      7310      7315      7274      7265      7278
      7274      7276      7277      7275      7274      7276      7279      7278      7280
      7279      7278      7281      7280      7278      7281      7282      7286      7284
      7282      7287      7288      7282      7287      7289      7282      7287      7297
      7283      7282      7286      7283      7282      7287      7284      7301      7297
      7284      7301      7302      7284      7301      7303      7284      7305      7306
      7284      7305      7307      7284      7305      7308      7285      7284      7286
      7285      7284      7301      7285      7284      7305      7286      7282      7287
      7286      7284      7301      7286      7284      7305      7287      7289      7290
      7287      7289      7291      7287      7297      7298      7287      7297      7299
      7287      7297      7301      7288      7287      7289      7288      7287      7297
      7289      7287      7297      7289      7291      7292      7289      7291      7293
      7290      7289      7291      7291      7293      7294      7291      7293      7295
      7291      7293      7296      7292      7291      7293      7294      7293      7295
      7294      7293      7296      7295      7293      7296      7297      7299      7300
      7297      7301      7302      7297      7301      7303      7298      7297      7299
      7298      7297      7301      7299      7297      7301      7301      7284      7305
      7301      7303      7304      7302      7301      7303      7305      7308      7309
      7306      7305      7307      7306      7305      7308      7307      7305      7308
      7310      7314      7312      7310      7315      7316      7310      7315      7317
      7310      7315      7325      7311      7310      7314      7311      7310      7315
      7312      7328      7325      7312      7328      7329      7312      7328      7330
      7312      7332      7333      7312      7332      7334      7312      7332      7335
      7313      7312      7314      7313      7312      7328      7313      7312      7332
      7314      7310      7315      7314      7312      7328      7314      7312      7332
      7315      7317      7318      7315      7317      7319      7315      7325      7326
      7315      7325      7327      7315      7325      7328      7316      7315      7317
      7316      7315      7325      7317      7315      7325      7317      7319      7320
      7317      7319      7321      7318      7317      7319      7319      7321      7322
      7319      7321      7323      7319      7321      7324      7320      7319      7321
      7322      7321      7323      7322      7321      7324      7323      7321      7324
      7325      7327      7337      7325      7328      7329      7325      7328      7330
      7326      7325      7327      7326      7325      7328      7327      7325      7328
      7327      7337      7338      7327      7337      7341      7327      7337      7342
      7328      7312      7332      7328      7330      7331      7329      7328      7330
      7332      7335      7336      7333      7332      7334      7333      7332      7335
      7334      7332      7335      7337      7341      7339      7337      7342      7343
      7337      7342      7344      7337      7342      7345      7338      7337      7341
      7338      7337      7342      7339      7349      7345      7339      7349      7350
      7339      7349      7351      7339      7353      7354      7339      7353      7355
      7339      7353      7356      7340      7339      7341      7340      7339      7349
      7340      7339      7353      7341      7337      7342      7341      7339      7349
      7341      7339      7353      7342      7344      7358      7342      7345      7346
      7342      7345      7347      7342      7345      7349      7343      7342      7344
      7343      7342      7345      7344      7342      7345      7344      7358      7359
      7344      7358      7362      7344      7358      7363      7345      7347      7348
      7345      7349      7350      7345      7349      7351      7346      7345      7347
      7346      7345      7349      7347      7345      7349      7349      7339      7353
      7349      7351      7352      7350      7349      7351      7353      7356      7357
      7354      7353      7355      7354      7353      7356      7355      7353      7356
      7358      7362      7360      7358      7363      7364      7358      7363      7365
      7358      7363      7366      7359      7358      7362      7359      7358      7363
      7360      7370      7366      7360      7370      7371      7360      7370      7372
      7360      7374      7375      7360      7374      7376      7360      7374      7377
      7361      7360      7362      7361      7360      7370      7361      7360      7374
      7362      7358      7363      7362      7360      7370      7362      7360      7374
      7363      7365      7378      7363      7366      7367      7363      7366      7368
      7363      7366      7370      7364      7363      7365      7364      7363      7366
      7365      7363      7366      7365      7378      7379      7365      7378      7382
      7365      7378      7383      7366      7368      7369      7366      7370      7371
      7366      7370      7372      7367      7366      7368      7367      7366      7370
      7368      7366      7370      7370      7360      7374      7370      7372      7373
      7371      7370      7372      7375      7374      7376      7375      7374      7377
      7376      7374      7377      7378      7382      7380      7378      7383      7384
      7378      7383      7385      7378      7383      7386      7379      7378      7382
      7379      7378      7383      7380      7389      7386      7380      7389      7390
      7380      7389      7391      7380      7393      7394      7380      7393      7395
      7380      7393      7396      7381      7380      7382      7381      7380      7389
      7381      7380      7393      7382      7378      7383      7382      7380      7389
      7382      7380      7393      7383      7385      7397      7383      7386      7387
      7383      7386      7388      7383      7386      7389      7384      7383      7385
      7384      7383      7386      7385      7383      7386      7385      7397      7398
      7385      7397      7401      7385      7397      7402      7386      7388      7425
      7386      7389      7390      7386      7389      7391      7387      7386      7388
      7387      7386      7389      7388      7386      7389      7388      7425      7426
      7388      7425      7429      7388      7425      7430      7389      7380      7393
      7389      7391      7392      7390      7389      7391      7394      7393      7395
      7394      7393      7396      7395      7393      7396      7397      7401      7399
      7397      7402      7403      7397      7402      7404      7397      7402      7412
      7398      7397      7401      7398      7397      7402      7399      7416      7412
      7399      7416      7417      7399      7416      7418      7399      7420      7421
      7399      7420      7422      7399      7420      7423      7400      7399      7401
      7400      7399      7416      7400      7399      7420      7401      7397      7402
      7401      7399      7416      7401      7399      7420      7402      7404      7405
      7402      7404      7406      7402      7412      7413      7402      7412      7414
      7402      7412      7416      7403      7402      7404      7403      7402      7412
      7404      7402      7412      7404      7406      7407      7404      7406      7408
      7405      7404      7406      7406      7408      7409      7406      7408      7410
      7406      7408      7411      7407      7406      7408      7409      7408      7410
      7409      7408      7411      7410      7408      7411      7412      7414      7415
      7412      7416      7417      7412      7416      7418      7413      7412      7414
      7413      7412      7416      7414      7412      7416      7416      7399      7420
      7416      7418      7419      7417      7416      7418      7420      7423      7424
      7421      7420      7422      7421      7420      7423      7422      7420      7423
      7425      7429      7427      7425      7430      7431      7425      7430      7432
      7425      7430      7440      7426      7425      7429      7426      7425      7430
      7427      7443      7440      7427      7443      7444      7427      7443      7445
      7427      7447      7448      7427      7447      7449      7427      7447      7450
      7428      7427      7429      7428      7427      7443      7428      7427      7447
      7429      7425      7430      7429      7427      7443      7429      7427      7447
      7430      7432      7433      7430      7432      7434      7430      7440      7441
      7430      7440      7442      7430      7440      7443      7431      7430      7432
      7431      7430      7440      7432      7430      7440      7432      7434      7435
      7432      7434      7436      7433      7432      7434      7434      7436      7437
      7434      7436      7438      7434      7436      7439      7435      7434      7436
      7437      7436      7438      7437      7436      7439      7438      7436      7439
      7440      7442      7452      7440      7443      7444      7440      7443      7445
      7441      7440      7442      7441      7440      7443      7442      7440      7443
      7442      7452      7453      7442      7452      7456      7442      7452      7457
      7443      7427      7447      7443      7445      7446      7444      7443      7445
      7447      7450      7451      7448      7447      7449      7448      7447      7450
      7449      7447      7450      7452      7456      7454      7452      7457      7458
      7452      7457      7459      7452      7457      7460      7453      7452      7456
      7453      7452      7457      7454      7464      7460      7454      7464      7465
      7454      7464      7466      7454      7468      7469      7454      7468      7470
      7454      7468      7471      7455      7454      7456      7455      7454      7464
      7455      7454      7468      7456      7452      7457      7456      7454      7464
      7456      7454      7468      7457      7459      7473      7457      7460      7461
      7457      7460      7462      7457      7460      7464      7458      7457      7459
      7458      7457      7460      7459      7457      7460      7459      7473      7474
      7459      7473      7477      7459      7473      7478      7460      7462      7463
      7460      7464      7465      7460      7464      7466      7461      7460      7462
      7461      7460      7464      7462      7460      7464      7464      7454      7468
      7464      7466      7467      7465      7464      7466      7468      7471      7472
      7469      7468      7470      7469      7468      7471      7470      7468      7471
      7473      7477      7475      7473      7478      7479      7473      7478      7480
      7473      7478      7481      7474      7473      7477      7474      7473      7478
      7475      7485      7481      7475      7485      7486      7475      7485      7487
      7475      7489      7490      7475      7489      7491      7475      7489      7492
      7476      7475      7477      7476      7475      7485      7476      7475      7489
      7477      7473      7478      7477      7475      7485      7477      7475      7489
      7478      7480      7493      7478      7481      7482      7478      7481      7483
      7478      7481      7485      7479      7478      7480      7479      7478      7481
      7480      7478      7481      7480      7493      7494      7480      7493      7497
      7480      7493      7498      7481      7483      7484      7481      7485      7486
      7481      7485      7487      7482      7481      7483      7482      7481      7485
      7483      7481      7485      7485      7475      7489      7485      7487      7488
      7486      7485      7487      7490      7489      7491      7490      7489      7492
      7491      7489      7492      7493      7497      7495      7493      7498      7499
      7493      7498      7500      7493      7498      7501      7494      7493      7497
      7494      7493      7498      7495      7504      7501      7495      7504      7505
      7495      7504      7506      7495      7508      7509      7495      7508      7510
      7495      7508      7511      7496      7495      7497      7496      7495      7504
      7496      7495      7508      7497      7493      7498      7497      7495      7504
      7497      7495      7508      7498      7500      7512      7498      7501      7502
      7498      7501      7503      7498      7501      7504      7499      7498      7500
      7499      7498      7501      7500      7498      7501      7500      7512      7513
      7500      7512      7516      7500      7512      7517      7501      7503      7540
      7501      7504      7505      7501      7504      7506      7502      7501      7503
      7502      7501      7504      7503      7501      7504      7503      7540      7541
      7503      7540      7544      7503      7540      7545      7504      7495      7508
      7504      7506      7507      7505      7504      7506      7509      7508      7510
      7509      7508      7511      7510      7508      7511      7512      7516      7514
      7512      7517      7518      7512      7517      7519      7512      7517      7527
      7513      7512      7516      7513      7512      7517      7514      7531      7527
      7514      7531      7532      7514      7531      7533      7514      7535      7536
      7514      7535      7537      7514      7535      7538      7515      7514      7516
      7515      7514      7531      7515      7514      7535      7516      7512      7517
      7516      7514      7531      7516      7514      7535      7517      7519      7520
      7517      7519      7521      7517      7527      7528      7517      7527      7529
      7517      7527      7531      7518      7517      7519      7518      7517      7527
      7519      7517      7527      7519      7521      7522      7519      7521      7523
      7520      7519      7521      7521      7523      7524      7521      7523      7525
      7521      7523      7526      7522      7521      7523      7524      7523      7525
      7524      7523      7526      7525      7523      7526      7527      7529      7530
      7527      7531      7532      7527      7531      7533      7528      7527      7529
      7528      7527      7531      7529      7527      7531      7531      7514      7535
      7531      7533      7534      7532      7531      7533      7535      7538      7539
      7536      7535      7537      7536      7535      7538      7537      7535      7538
      7540      7544      7542      7540      7545      7546      7540      7545      7547
      7540      7545      7555      7541      7540      7544      7541      7540      7545
      7542      7558      7555      7542      7558      7559      7542      7558      7560
      7542      7562      7563      7542      7562      7564      7542      7562      7565
      7543      7542      7544      7543      7542      7558      7543      7542      7562
      7544      7540      7545      7544      7542      7558      7544      7542      7562
      7545      7547      7548      7545      7547      7549      7545      7555      7556
      7545      7555      7557      7545      7555      7558      7546      7545      7547
      7546      7545      7555      7547      7545      7555      7547      7549      7550
      7547      7549      7551      7548      7547      7549      7549      7551      7552
      7549      7551      7553      7549      7551      7554      7550      7549      7551
      7552      7551      7553      7552      7551      7554      7553      7551      7554
      7555      7557      7567      7555      7558      7559      7555      7558      7560
      7556      7555      7557      7556      7555      7558      7557      7555      7558
      7557      7567      7568      7557      7567      7571      7557      7567      7572
      7558      7542      7562      7558      7560      7561      7559      7558      7560
      7562      7565      7566      7563      7562      7564      7563      7562      7565
      7564      7562      7565      7567      7571      7569      7567      7572      7573
      7567      7572      7574      7567      7572      7575      7568      7567      7571
      7568      7567      7572      7569      7579      7575      7569      7579      7580
      7569      7579      7581      7569      7583      7584      7569      7583      7585
      7569      7583      7586      7570      7569      7571      7570      7569      7579
      7570      7569      7583      7571      7567      7572      7571      7569      7579
      7571      7569      7583      7572      7574      7588      7572      7575      7576
      7572      7575      7577      7572      7575      7579      7573      7572      7574
      7573      7572      7575      7574      7572      7575      7574      7588      7589
      7574      7588      7592      7574      7588      7593      7575      7577      7578
      7575      7579      7580      7575      7579      7581      7576      7575      7577
      7576      7575      7579      7577      7575      7579      7579      7569      7583
      7579      7581      7582      7580      7579      7581      7583      7586      7587
      7584      7583      7585      7584      7583      7586      7585      7583      7586
      7588      7592      7590      7588      7593      7594      7588      7593      7595
      7588      7593      7596      7589      7588      7592      7589      7588      7593
      7590      7600      7596      7590      7600      7601      7590      7600      7602
      7590      7604      7605      7590      7604      7606      7590      7604      7607
      7591      7590      7592      7591      7590      7600      7591      7590      7604
      7592      7588      7593      7592      7590      7600      7592      7590      7604
      7593      7595      7608      7593      7596      7597      7593      7596      7598
      7593      7596      7600      7594      7593      7595      7594      7593      7596
      7595      7593      7596      7595      7608      7609      7595      7608      7612
      7595      7608      7613      7596      7598      7599      7596      7600      7601
      7596      7600      7602      7597      7596      7598      7597      7596      7600
      7598      7596      7600      7600      7590      7604      7600      7602      7603
      7601      7600      7602      7605      7604      7606      7605      7604      7607
      7606      7604      7607      7608      7612      7610      7608      7613      7614
      7608      7613      7615      7608      7613      7616      7609      7608      7612
      7609      7608      7613      7610      7619      7616      7610      7619      7620
      7610      7619      7621      7610      7623      7624      7610      7623      7625
      7610      7623      7626      7611      7610      7612      7611      7610      7619
      7611      7610      7623      7612      7608      7613      7612      7610      7619
      7612      7610      7623      7613      7615      7627      7613      7616      7617
      7613      7616      7618      7613      7616      7619      7614      7613      7615
      7614      7613      7616      7615      7613      7616      7615      7627      7628
      7615      7627      7631      7615      7627      7632      7616      7618      7655
      7616      7619      7620      7616      7619      7621      7617      7616      7618
      7617      7616      7619      7618      7616      7619      7618      7655      7656
      7618      7655      7659      7618      7655      7660      7619      7610      7623
      7619      7621      7622      7620      7619      7621      7624      7623      7625
      7624      7623      7626      7625      7623      7626      7627      7631      7629
      7627      7632      7633      7627      7632      7634      7627      7632      7642
      7628      7627      7631      7628      7627      7632      7629      7646      7642
      7629      7646      7647      7629      7646      7648      7629      7650      7651
      7629      7650      7652      7629      7650      7653      7630      7629      7631
      7630      7629      7646      7630      7629      7650      7631      7627      7632
      7631      7629      7646      7631      7629      7650      7632      7634      7635
      7632      7634      7636      7632      7642      7643      7632      7642      7644
      7632      7642      7646      7633      7632      7634      7633      7632      7642
      7634      7632      7642      7634      7636      7637      7634      7636      7638
      7635      7634      7636      7636      7638      7639      7636      7638      7640
      7636      7638      7641      7637      7636      7638      7639      7638      7640
      7639      7638      7641      7640      7638      7641      7642      7644      7645
      7642      7646      7647      7642      7646      7648      7643      7642      7644
      7643      7642      7646      7644      7642      7646      7646      7629      7650
      7646      7648      7649      7647      7646      7648      7650      7653      7654
      7651      7650      7652      7651      7650      7653      7652      7650      7653
      7655      7659      7657      7655      7660      7661      7655      7660      7662
      7655      7660      7670      7656      7655      7659      7656      7655      7660
      7657      7673      7670      7657      7673      7674      7657      7673      7675
      7657      7677      7678      7657      7677      7679      7657      7677      7680
      7658      7657      7659      7658      7657      7673      7658      7657      7677
      7659      7655      7660      7659      7657      7673      7659      7657      7677
      7660      7662      7663      7660      7662      7664      7660      7670      7671
      7660      7670      7672      7660      7670      7673      7661      7660      7662
      7661      7660      7670      7662      7660      7670      7662      7664      7665
      7662      7664      7666      7663      7662      7664      7664      7666      7667
      7664      7666      7668      7664      7666      7669      7665      7664      7666
      7667      7666      7668      7667      7666      7669      7668      7666      7669
      7670      7672      7682      7670      7673      7674      7670      7673      7675
      7671      7670      7672      7671      7670      7673      7672      7670      7673
      7672      7682      7683      7672      7682      7686      7672      7682      7687
      7673      7657      7677      7673      7675      7676      7674      7673      7675
      7677      7680      7681      7678      7677      7679      7678      7677      7680
      7679      7677      7680      7682      7686      7684      7682      7687      7688
      7682      7687      7689      7682      7687      7690      7683      7682      7686
      7683      7682      7687      7684      7694      7690      7684      7694      7695
      7684      7694      7696      7684      7698      7699      7684      7698      7700
      7684      7698      7701      7685      7684      7686      7685      7684      7694
      7685      7684      7698      7686      7682      7687      7686      7684      7694
      7686      7684      7698      7687      7689      7703      7687      7690      7691
      7687      7690      7692      7687      7690      7694      7688      7687      7689
      7688      7687      7690      7689      7687      7690      7689      7703      7704
      7689      7703      7707      7689      7703      7708      7690      7692      7693
      7690      7694      7695      7690      7694      7696      7691      7690      7692
      7691      7690      7694      7692      7690      7694      7694      7684      7698
      7694      7696      7697      7695      7694      7696      7698      7701      7702
      7699      7698      7700      7699      7698      7701      7700      7698      7701
      7703      7707      7705      7703      7708      7709      7703      7708      7710
      7703      7708      7711      7704      7703      7707      7704      7703      7708
      7705      7715      7711      7705      7715      7716      7705      7715      7717
      7705      7719      7720      7705      7719      7721      7705      7719      7722
      7706      7705      7707      7706      7705      7715      7706      7705      7719
      7707      7703      7708      7707      7705      7715      7707      7705      7719
      7708      7710      7723      7708      7711      7712      7708      7711      7713
      7708      7711      7715      7709      7708      7710      7709      7708      7711
      7710      7708      7711      7710      7723      7724      7710      7723      7727
      7710      7723      7728      7711      7713      7714      7711      7715      7716
      7711      7715      7717      7712      7711      7713      7712      7711      7715
      7713      7711      7715      7715      7705      7719      7715      7717      7718
      7716      7715      7717      7720      7719      7721      7720      7719      7722
      7721      7719      7722      7723      7727      7725      7723      7728      7729
      7723      7728      7730      7723      7728      7731      7724      7723      7727
      7724      7723      7728      7725      7735      7731      7725      7735      7736
      7725      7735      7737      7725      7739      7740      7725      7739      7741
      7725      7739      7742      7726      7725      7727      7726      7725      7735
      7726      7725      7739      7727      7723      7728      7727      7725      7735
      7727      7725      7739      7728      7730      7743      7728      7731      7732
      7728      7731      7733      7728      7731      7735      7729      7728      7730
      7729      7728      7731      7730      7728      7731      7730      7743      7744
      7730      7743      7747      7730      7743      7748      7731      7733      7734
      7731      7735      7736      7731      7735      7737      7732      7731      7733
      7732      7731      7735      7733      7731      7735      7735      7725      7739
      7735      7737      7738      7736      7735      7737      7740      7739      7741
      7740      7739      7742      7741      7739      7742      7743      7747      7745
      7743      7748      7749      7743      7748      7750      7743      7748      7758
      7744      7743      7747      7744      7743      7748      7745      7762      7758
      7745      7762      7763      7745      7762      7764      7745      7766      7767
      7745      7766      7768      7745      7766      7769      7746      7745      7747
      7746      7745      7762      7746      7745      7766      7747      7743      7748
      7747      7745      7762      7747      7745      7766      7748      7750      7751
      7748      7750      7752      7748      7758      7759      7748      7758      7760
      7748      7758      7762      7749      7748      7750      7749      7748      7758
      7750      7748      7758      7750      7752      7753      7750      7752      7754
      7751      7750      7752      7752      7754      7755      7752      7754      7756
      7752      7754      7757      7753      7752      7754      7755      7754      7756
      7755      7754      7757      7756      7754      7757      7758      7760      7761
      7758      7762      7763      7758      7762      7764      7759      7758      7760
      7759      7758      7762      7760      7758      7762      7762      7745      7766
      7762      7764      7765      7763      7762      7764      7766      7769      7770
      7767      7766      7768      7767      7766      7769      7768      7766      7769
      7771      7773      7772      7771      7773      7774      7771      7773      7775
      7772      7773      7774      7772      7773      7775      7772      8070      8067
      7772      8070      8073      7772      8070      8074      7773      7772      8070
      7773      7775      7776      7773      7775      7777      7773      7775      7784
      7774      7773      7775      7775      7776      7778      7775      7784      7785
      7775      7784      7786      7775      7784      7791      7776      7775      7777
      7776      7775      7784      7776      7778      7779      7776      7778      7780
      7776      7778      7799      7777      7775      7784      7778      7780      7781
      7778      7799      7791      7778      7799      7800      7778      7799      7801
      7779      7778      7780      7779      7778      7799      7780      7778      7799
      7780      7781      7782      7780      7781      7783      7780      7781      7807
      7781      7807      7803      7781      7807      7808      7781      7807      7809
      7782      7781      7783      7782      7781      7807      7783      7781      7807
      7784      7786      7787      7784      7791      7792      7784      7791      7793
      7784      7791      7799      7785      7784      7786      7785      7784      7791
      7786      7784      7791      7786      7787      7788      7786      7787      7789
      7786      7787      7790      7788      7787      7789      7788      7787      7790
      7789      7787      7790      7791      7792      7794      7791      7799      7800
      7791      7799      7801      7792      7791      7793      7792      7791      7799
      7792      7794      7795      7792      7794      7796      7793      7791      7799
      7794      7796      7797      7794      7796      7798      7794      7796      7829
      7795      7794      7796      7796      7829      7830      7796      7829      7831
      7796      7829      7874      7797      7796      7798      7797      7796      7829
      7798      7796      7829      7799      7801      7802      7799      7801      7908
      7800      7799      7801      7801      7908      7909      7801      7908      7910
      7802      7801      7908      7803      7805      7806      7803      7807      7808
      7803      7807      7809      7803      7817      7818      7803      7817      7819
      7803      7817      7825      7804      7803      7805      7804      7803      7807
      7804      7803      7817      7805      7803      7807      7805      7803      7817
      7807      7803      7817      7807      7809      7810      7808      7807      7809
      7809      7810      7811      7809      7810      7812      7809      7810      7825
      7810      7812      7816      7810      7825      7817      7810      7825      7826
      7810      7825      7827      7811      7810      7812      7811      7810      7825
      7812      7810      7825      7812      7816      7813      7812      7816      7814
      7812      7816      7815      7813      7816      7814      7813      7816      7815
      7814      7816      7815      7817      7819      7820      7817      7825      7826
      7817      7825      7827      7818      7817      7819      7818      7817      7825
      7819      7817      7825      7819      7820      7821      7819      7820      7822
      7820      7822      7823      7820      7822      7824      7820      7822      7986
      7821      7820      7822      7822      7986      7987      7822      7986      7988
      7822      7986      7990      7823      7822      7824      7823      7822      7986
      7824      7822      7986      7825      7827      7828      7825      7827      8024
      7826      7825      7827      7827      8024      8025      7827      8024      8026
      7828      7827      8024      7829      7831      7832      7829      7874      7875
      7829      7874      7876      7829      7874      7877      7830      7829      7831
      7830      7829      7874      7831      7829      7874      7831      7832      7833
      7831      7832      7834      7832      7834      7835      7832      7834      7836
      7832      7834      7837      7833      7832      7834      7834      7837      7838
      7834      7837      7839      7834      7837      7840      7835      7834      7836
      7835      7834      7837      7836      7834      7837      7837      7840      7841
      7837      7840      7842      7837      7840      7843      7838      7837      7839
      7838      7837      7840      7839      7837      7840      7840      7843      7844
      7840      7843      7845      7840      7843      7846      7841      7840      7842
      7841      7840      7843      7842      7840      7843      7843      7846      7847
      7843      7846      7848      7843      7846      7849      7844      7843      7845
      7844      7843      7846      7845      7843      7846      7846      7849      7850
      7846      7849      7851      7846      7849      7852      7847      7846      7848
      7847      7846      7849      7848      7846      7849      7849      7852      7853
      7849      7852      7854      7849      7852      7855      7850      7849      7851
      7850      7849      7852      7851      7849      7852      7852      7855      7856
      7852      7855      7857      7852      7855      7858      7853      7852      7854
      7853      7852      7855      7854      7852      7855      7855      7858      7859
      7855      7858      7860      7855      7858      7861      7856      7855      7857
      7856      7855      7858      7857      7855      7858      7858      7861      7862
      7858      7861      7863      7858      7861      7864      7859      7858      7860
      7859      7858      7861      7860      7858      7861      7861      7864      7865
      7861      7864      7866      7861      7864      7867      7862      7861      7863
      7862      7861      7864      7863      7861      7864      7864      7867      7868
      7864      7867      7869      7864      7867      7870      7865      7864      7866
      7865      7864      7867      7866      7864      7867      7867      7870      7871
      7867      7870      7872      7867      7870      7873      7868      7867      7869
      7868      7867      7870      7869      7867      7870      7871      7870      7872
      7871      7870      7873      7872      7870      7873      7874      7877      7878
      7874      7877      7879      7874      7877      7880      7875      7874      7876
      7875      7874      7877      7876      7874      7877      7877      7880      7881
      7877      7880      7882      7877      7880      7883      7878      7877      7879
      7878      7877      7880      7879      7877      7880      7880      7883      7884
      7880      7883      7885      7880      7883      7886      7881      7880      7882
      7881      7880      7883      7882      7880      7883      7883      7886      7887
      7883      7886      7888      7883      7886      7889      7884      7883      7885
      7884      7883      7886      7885      7883      7886      7886      7889      7890
      7886      7889      7891      7886      7889      7892      7887      7886      7888
      7887      7886      7889      7888      7886      7889      7889      7892      7893
      7889      7892      7894      7889      7892      7895      7890      7889      7891
      7890      7889      7892      7891      7889      7892      7892      7895      7896
      7892      7895      7897      7892      7895      7898      7893      7892      7894
      7893      7892      7895      7894      7892      7895      7895      7898      7899
      7895      7898      7900      7895      7898      7901      7896      7895      7897
      7896      7895      7898      7897      7895      7898      7898      7901      7902
      7898      7901      7903      7898      7901      7904      7899      7898      7900
      7899      7898      7901      7900      7898      7901      7901      7904      7905
      7901      7904      7906      7901      7904      7907      7902      7901      7903
      7902      7901      7904      7903      7901      7904      7905      7904      7906
      7905      7904      7907      7906      7904      7907      7908      7910      7911
      7908      7910      7912      7908      7910      7913      7909      7908      7910
      7910      7913      7914      7910      7913      7915      7910      7913      7952
      7911      7910      7912      7911      7910      7913      7912      7910      7913
      7913      7915      7916      7913      7952      7953      7913      7952      7954
      7913      7952      7955      7914      7913      7915      7914      7913      7952
      7915      7913      7952      7915      7916      7917      7915      7916      7918
      7916      7918      7919      7916      7918      7920      7916      7918      7921
      7917      7916      7918      7918      7921      7922      7918      7921      7923
      7918      7921      7924      7919      7918      7920      7919      7918      7921
      7920      7918      7921      7921      7924      7925      7921      7924      7926
      7921      7924      7927      7922      7921      7923      7922      7921      7924
      7923      7921      7924      7924      7927      7928      7924      7927      7929
      7924      7927      7930      7925      7924      7926      7925      7924      7927
      7926      7924      7927      7927      7930      7931      7927      7930      7932
      7927      7930      7933      7928      7927      7929      7928      7927      7930
      7929      7927      7930      7930      7933      7934      7930      7933      7935
      7930      7933      7936      7931      7930      7932      7931      7930      7933
      7932      7930      7933      7933      7936      7937      7933      7936      7938
      7933      7936      7939      7934      7933      7935      7934      7933      7936
      7935      7933      7936      7936      7939      7940      7936      7939      7941
      7936      7939      7942      7937      7936      7938      7937      7936      7939
      7938      7936      7939      7939      7942      7943      7939      7942      7944
      7939      7942      7945      7940      7939      7941      7940      7939      7942
      7941      7939      7942      7942      7945      7946      7942      7945      7947
      7942      7945      7948      7943      7942      7944      7943      7942      7945
      7944      7942      7945      7945      7948      7949      7945      7948      7950
      7945      7948      7951      7946      7945      7947      7946      7945      7948
      7947      7945      7948      7949      7948      7950      7949      7948      7951
      7950      7948      7951      7952      7955      7956      7952      7955      7957
      7952      7955      7958      7953      7952      7954      7953      7952      7955
      7954      7952      7955      7955      7958      7959      7955      7958      7960
      7955      7958      7961      7956      7955      7957      7956      7955      7958
      7957      7955      7958      7958      7961      7962      7958      7961      7963
      7958      7961      7964      7959      7958      7960      7959      7958      7961
      7960      7958      7961      7961      7964      7965      7961      7964      7966
      7961      7964      7967      7962      7961      7963      7962      7961      7964
      7963      7961      7964      7964      7967      7968      7964      7967      7969
      7964      7967      7970      7965      7964      7966      7965      7964      7967
      7966      7964      7967      7967      7970      7971      7967      7970      7972
      7967      7970      7973      7968      7967      7969      7968      7967      7970
      7969      7967      7970      7970      7973      7974      7970      7973      7975
      7970      7973      7976      7971      7970      7972      7971      7970      7973
      7972      7970      7973      7973      7976      7977      7973      7976      7978
      7973      7976      7979      7974      7973      7975      7974      7973      7976
      7975      7973      7976      7976      7979      7980      7976      7979      7981
      7976      7979      7982      7977      7976      7978      7977      7976      7979
      7978      7976      7979      7979      7982      7983      7979      7982      7984
      7979      7982      7985      7980      7979      7981      7980      7979      7982
      7981      7979      7982      7983      7982      7984      7983      7982      7985
      7984      7982      7985      7986      7988      7989      7986      7990      7991
      7986      7990      7992      7986      7990      7993      7987      7986      7988
      7987      7986      7990      7988      7986      7990      7990      7993      7994
      7990      7993      7995      7990      7993      7996      7991      7990      7992
      7991      7990      7993      7992      7990      7993      7993      7996      7997
      7993      7996      7998      7993      7996      7999      7994      7993      7995
      7994      7993      7996      7995      7993      7996      7996      7999      8000
      7996      7999      8001      7996      7999      8002      7997      7996      7998
      7997      7996      7999      7998      7996      7999      7999      8002      8003
      7999      8002      8004      7999      8002      8005      8000      7999      8001
      8000      7999      8002      8001      7999      8002      8002      8005      8006
      8002      8005      8007      8002      8005      8008      8003      8002      8004
      8003      8002      8005      8004      8002      8005      8005      8008      8009
      8005      8008      8010      8005      8008      8011      8006      8005      8007
      8006      8005      8008      8007      8005      8008      8008      8011      8012
      8008      8011      8013      8008      8011      8014      8009      8008      8010
      8009      8008      8011      8010      8008      8011      8011      8014      8015
      8011      8014      8016      8011      8014      8017      8012      8011      8013
      8012      8011      8014      8013      8011      8014      8014      8017      8018
      8014      8017      8019      8014      8017      8020      8015      8014      8016
      8015      8014      8017      8016      8014      8017      8017      8020      8021
      8017      8020      8022      8017      8020      8023      8018      8017      8019
      8018      8017      8020      8019      8017      8020      8021      8020      8022
      8021      8020      8023      8022      8020      8023      8024      8026      8027
      8024      8026      8028      8024      8026      8029      8025      8024      8026
      8026      8029      8030      8026      8029      8031      8026      8029      8033
      8027      8026      8028      8027      8026      8029      8028      8026      8029
      8029      8031      8032      8029      8033      8034      8029      8033      8035
      8029      8033      8036      8030      8029      8031      8030      8029      8033
      8031      8029      8033      8033      8036      8037      8033      8036      8038
      8033      8036      8039      8034      8033      8035      8034      8033      8036
      8035      8033      8036      8036      8039      8040      8036      8039      8041
      8036      8039      8042      8037      8036      8038      8037      8036      8039
      8038      8036      8039      8039      8042      8043      8039      8042      8044
      8039      8042      8045      8040      8039      8041      8040      8039      8042
      8041      8039      8042      8042      8045      8046      8042      8045      8047
      8042      8045      8048      8043      8042      8044      8043      8042      8045
      8044      8042      8045      8045      8048      8049      8045      8048      8050
      8045      8048      8051      8046      8045      8047      8046      8045      8048
      8047      8045      8048      8048      8051      8052      8048      8051      8053
      8048      8051      8054      8049      8048      8050      8049      8048      8051
      8050      8048      8051      8051      8054      8055      8051      8054      8056
      8051      8054      8057      8052      8051      8053      8052      8051      8054
      8053      8051      8054      8054      8057      8058      8054      8057      8059
      8054      8057      8060      8055      8054      8056      8055      8054      8057
      8056      8054      8057      8057      8060      8061      8057      8060      8062
      8057      8060      8063      8058      8057      8059      8058      8057      8060
      8059      8057      8060      8060      8063      8064      8060      8063      8065
      8060      8063      8066      8061      8060      8062      8061      8060      8063
      8062      8060      8063      8064      8063      8065      8064      8063      8066
      8065      8063      8066      8067      8070      8073      8067      8070      8074
      8068      8067      8069      8068      8067      8070      8069      8067      8070
      8070      8073      8071      8070      8074      8075      8070      8074      8076
      8070      8074      8077      8071      8080      8077      8071      8080      8081
      8071      8080      8082      8071      8083      8084      8071      8083      8085
      8071      8083      8087      8072      8071      8073      8072      8071      8080
      8072      8071      8083      8073      8070      8074      8073      8071      8080
      8073      8071      8083      8074      8077      8078      8074      8077      8079
      8074      8077      8080      8075      8074      8076      8075      8074      8077
      8076      8074      8077      8077      8079      8095      8077      8080      8081
      8077      8080      8082      8078      8077      8079      8078      8077      8080
      8079      8077      8080      8079      8095      8092      8079      8095      8098
      8079      8095      8099      8080      8071      8083      8080      8082      8119
      8081      8080      8082      8082      8119      8120      8082      8119      8123
      8082      8119      8124      8083      8085      8086      8083      8087      8088
      8083      8087      8089      8083      8087      8090      8084      8083      8085
      8084      8083      8087      8085      8083      8087      8087      8090      8091
      8088      8087      8089      8088      8087      8090      8089      8087      8090
      8092      8095      8098      8092      8095      8099      8093      8092      8094
      8093      8092      8095      8094      8092      8095      8095      8098      8096
      8095      8099      8100      8095      8099      8101      8095      8099      8102
      8096      8106      8102      8096      8106      8107      8096      8106      8108
      8096      8110      8111      8096      8110      8112      8096      8110      8114
      8097      8096      8098      8097      8096      8106      8097      8096      8110
      8098      8095      8099      8098      8096      8106      8098      8096      8110
      8099      8102      8103      8099      8102      8104      8099      8102      8106
      8100      8099      8101      8100      8099      8102      8101      8099      8102
      8102      8104      8105      8102      8106      8107      8102      8106      8108
      8103      8102      8104      8103      8102      8106      8104      8102      8106
      8106      8096      8110      8106      8108      8109      8107      8106      8108
      8110      8112      8113      8110      8114      8115      8110      8114      8116
      8110      8114      8117      8111      8110      8112      8111      8110      8114
      8112      8110      8114      8114      8117      8118      8115      8114      8116
      8115      8114      8117      8116      8114      8117      8119      8123      8121
      8119      8124      8125      8119      8124      8126      8119      8124      8128
      8120      8119      8123      8120      8119      8124      8121      8131      8128
      8121      8131      8132      8121      8131      8133      8121      8138      8139
      8121      8138      8140      8121      8138      8142      8122      8121      8123
      8122      8121      8131      8122      8121      8138      8123      8119      8124
      8123      8121      8131      8123      8121      8138      8124      8126      8127
      8124      8128      8129      8124      8128      8130      8124      8128      8131
      8125      8124      8126      8125      8124      8128      8126      8124      8128
      8128      8130      8147      8128      8131      8132      8128      8131      8133
      8129      8128      8130      8129      8128      8131      8130      8128      8131
      8130      8147      8148      8130      8147      8151      8130      8147      8152
      8131      8121      8138      8131      8133      8134      8132      8131      8133
      8133      8134      8135      8133      8134      8136      8133      8134      8137
      8135      8134      8136      8135      8134      8137      8136      8134      8137
      8138      8140      8141      8138      8142      8143      8138      8142      8144
      8138      8142      8145      8139      8138      8140      8139      8138      8142
      8140      8138      8142      8142      8145      8146      8143      8142      8144
      8143      8142      8145      8144      8142      8145      8147      8151      8149
      8147      8152      8153      8147      8152      8154      8147      8152      8156
      8148      8147      8151      8148      8147      8152      8149      8159      8156
      8149      8159      8160      8149      8159      8161      8149      8166      8167
      8149      8166      8168      8149      8166      8170      8150      8149      8151
      8150      8149      8159      8150      8149      8166      8151      8147      8152
      8151      8149      8159      8151      8149      8166      8152      8154      8155
      8152      8156      8157      8152      8156      8158      8152      8156      8159
      8153      8152      8154      8153      8152      8156      8154      8152      8156
      8156      8158      8200      8156      8159      8160      8156      8159      8161
      8157      8156      8158      8157      8156      8159      8158      8156      8159
      8158      8200      8201      8158      8200      8204      8158      8200      8205
      8159      8149      8166      8159      8161      8162      8160      8159      8161
      8161      8162      8163      8161      8162      8164      8161      8162      8165
      8163      8162      8164      8163      8162      8165      8164      8162      8165
      8166      8168      8169      8166      8170      8171      8166      8170      8172
      8166      8170      8173      8167      8166      8168      8167      8166      8170
      8168      8166      8170      8170      8173      8174      8171      8170      8172
      8171      8170      8173      8172      8170      8173      8173      8174      8175
      8173      8174      8178      8173      8174      8179      8174      8178      8176
      8174      8179      8180      8174      8179      8181      8174      8179      8183
      8175      8174      8178      8175      8174      8179      8176      8187      8183
      8176      8187      8188      8176      8187      8189      8176      8191      8192
      8176      8191      8193      8176      8191      8195      8177      8176      8178
      8177      8176      8187      8177      8176      8191      8178      8174      8179
      8178      8176      8187      8178      8176      8191      8179      8181      8182
      8179      8183      8184      8179      8183      8185      8179      8183      8187
      8180      8179      8181      8180      8179      8183      8181      8179      8183
      8183      8185      8186      8183      8187      8188      8183      8187      8189
      8184      8183      8185      8184      8183      8187      8185      8183      8187
      8187      8176      8191      8187      8189      8190      8188      8187      8189
      8191      8193      8194      8191      8195      8196      8191      8195      8197
      8191      8195      8198      8192      8191      8193      8192      8191      8195
      8193      8191      8195      8195      8198      8199      8196      8195      8197
      8196      8195      8198      8197      8195      8198      8200      8204      8202
      8200      8205      8206      8200      8205      8207      8200      8205      8209
      8201      8200      8204      8201      8200      8205      8202      8212      8209
      8202      8212      8213      8202      8212      8214      8202      8216      8217
      8202      8216      8218      8202      8216      8219      8203      8202      8204
      8203      8202      8212      8203      8202      8216      8204      8200      8205
      8204      8202      8212      8204      8202      8216      8205      8207      8208
      8205      8209      8210      8205      8209      8211      8205      8209      8212
      8206      8205      8207      8206      8205      8209      8207      8205      8209
      8209      8211      8221      8209      8212      8213      8209      8212      8214
      8210      8209      8211      8210      8209      8212      8211      8209      8212
      8211      8221      8222      8211      8221      8225      8211      8221      8226
      8212      8202      8216      8212      8214      8215      8213      8212      8214
      8216      8219      8220      8217      8216      8218      8217      8216      8219
      8218      8216      8219      8221      8225      8223      8221      8226      8227
      8221      8226      8228      8221      8226      8229      8222      8221      8225
      8222      8221      8226      8223      8232      8229      8223      8232      8233
      8223      8232      8234      8223      8236      8237      8223      8236      8238
      8223      8236      8239      8224      8223      8225      8224      8223      8232
      8224      8223      8236      8225      8221      8226      8225      8223      8232
      8225      8223      8236      8226      8228      8241      8226      8229      8230
      8226      8229      8231      8226      8229      8232      8227      8226      8228
      8227      8226      8229      8228      8226      8229      8228      8241      8242
      8228      8241      8245      8228      8241      8246      8229      8231      8284
      8229      8232      8233      8229      8232      8234      8230      8229      8231
      8230      8229      8232      8231      8229      8232      8231      8284      8285
      8231      8284      8288      8231      8284      8289      8232      8223      8236
      8232      8234      8235      8233      8232      8234      8236      8239      8240
      8237      8236      8238      8237      8236      8239      8238      8236      8239
      8241      8245      8243      8241      8246      8247      8241      8246      8248
      8241      8246      8249      8242      8241      8245      8242      8241      8246
      8243      8253      8249      8243      8253      8254      8243      8253      8255
      8243      8257      8258      8243      8257      8259      8243      8257      8260
      8244      8243      8245      8244      8243      8253      8244      8243      8257
      8245      8241      8246      8245      8243      8253      8245      8243      8257
      8246      8248      8262      8246      8249      8250      8246      8249      8251
      8246      8249      8253      8247      8246      8248      8247      8246      8249
      8248      8246      8249      8248      8262      8263      8248      8262      8266
      8248      8262      8267      8249      8251      8252      8249      8253      8254
      8249      8253      8255      8250      8249      8251      8250      8249      8253
      8251      8249      8253      8253      8243      8257      8253      8255      8256
      8254      8253      8255      8257      8260      8261      8258      8257      8259
      8258      8257      8260      8259      8257      8260      8262      8266      8264
      8262      8267      8268      8262      8267      8269      8262      8267      8271
      8263      8262      8266      8263      8262      8267      8264      8275      8271
      8264      8275      8276      8264      8275      8277      8264      8279      8280
      8264      8279      8281      8264      8279      8282      8265      8264      8266
      8265      8264      8275      8265      8264      8279      8266      8262      8267
      8266      8264      8275      8266      8264      8279      8267      8269      8270
      8267      8271      8272      8267      8271      8273      8267      8271      8275
      8268      8267      8269      8268      8267      8271      8269      8267      8271
      8271      8273      8274      8271      8275      8276      8271      8275      8277
      8272      8271      8273      8272      8271      8275      8273      8271      8275
      8275      8264      8279      8275      8277      8278      8276      8275      8277
      8279      8282      8283      8280      8279      8281      8280      8279      8282
      8281      8279      8282      8284      8288      8286      8284      8289      8290
      8284      8289      8291      8284      8289      8293      8285      8284      8288
      8285      8284      8289      8286      8296      8293      8286      8296      8297
      8286      8296      8298      8286      8300      8301      8286      8300      8302
      8286      8300      8303      8287      8286      8288      8287      8286      8296
      8287      8286      8300      8288      8284      8289      8288      8286      8296
      8288      8286      8300      8289      8291      8292      8289      8293      8294
      8289      8293      8295      8289      8293      8296      8290      8289      8291
      8290      8289      8293      8291      8289      8293      8293      8295      8305
      8293      8296      8297      8293      8296      8298      8294      8293      8295
      8294      8293      8296      8295      8293      8296      8295      8305      8306
      8295      8305      8309      8295      8305      8310      8296      8286      8300
      8296      8298      8299      8297      8296      8298      8300      8303      8304
      8301      8300      8302      8301      8300      8303      8302      8300      8303
      8305      8309      8307      8305      8310      8311      8305      8310      8312
      8305      8310      8320      8306      8305      8309      8306      8305      8310
      8307      8323      8320      8307      8323      8324      8307      8323      8325
      8307      8327      8328      8307      8327      8329      8307      8327      8330
      8308      8307      8309      8308      8307      8323      8308      8307      8327
      8309      8305      8310      8309      8307      8323      8309      8307      8327
      8310      8312      8313      8310      8312      8314      8310      8320      8321
      8310      8320      8322      8310      8320      8323      8311      8310      8312
      8311      8310      8320      8312      8310      8320      8312      8314      8315
      8312      8314      8316      8313      8312      8314      8314      8316      8317
      8314      8316      8318      8314      8316      8319      8315      8314      8316
      8317      8316      8318      8317      8316      8319      8318      8316      8319
      8320      8322      8332      8320      8323      8324      8320      8323      8325
      8321      8320      8322      8321      8320      8323      8322      8320      8323
      8322      8332      8333      8322      8332      8336      8322      8332      8337
      8323      8307      8327      8323      8325      8326      8324      8323      8325
      8327      8330      8331      8328      8327      8329      8328      8327      8330
      8329      8327      8330      8332      8336      8334      8332      8337      8338
      8332      8337      8339      8332      8337      8340      8333      8332      8336
      8333      8332      8337      8334      8344      8340      8334      8344      8345
      8334      8344      8346      8334      8348      8349      8334      8348      8350
      8334      8348      8351      8335      8334      8336      8335      8334      8344
      8335      8334      8348      8336      8332      8337      8336      8334      8344
      8336      8334      8348      8337      8339      8353      8337      8340      8341
      8337      8340      8342      8337      8340      8344      8338      8337      8339
      8338      8337      8340      8339      8337      8340      8339      8353      8354
      8339      8353      8357      8339      8353      8358      8340      8342      8343
      8340      8344      8345      8340      8344      8346      8341      8340      8342
      8341      8340      8344      8342      8340      8344      8344      8334      8348
      8344      8346      8347      8345      8344      8346      8348      8351      8352
      8349      8348      8350      8349      8348      8351      8350      8348      8351
      8353      8357      8355      8353      8358      8359      8353      8358      8360
      8353      8358      8361      8354      8353      8357      8354      8353      8358
      8355      8365      8361      8355      8365      8366      8355      8365      8367
      8355      8369      8370      8355      8369      8371      8355      8369      8372
      8356      8355      8357      8356      8355      8365      8356      8355      8369
      8357      8353      8358      8357      8355      8365      8357      8355      8369
      8358      8360      8373      8358      8361      8362      8358      8361      8363
      8358      8361      8365      8359      8358      8360      8359      8358      8361
      8360      8358      8361      8360      8373      8374      8360      8373      8377
      8360      8373      8378      8361      8363      8364      8361      8365      8366
      8361      8365      8367      8362      8361      8363      8362      8361      8365
      8363      8361      8365      8365      8355      8369      8365      8367      8368
      8366      8365      8367      8370      8369      8371      8370      8369      8372
      8371      8369      8372      8373      8377      8375      8373      8378      8379
      8373      8378      8380      8373      8378      8381      8374      8373      8377
      8374      8373      8378      8375      8384      8381      8375      8384      8385
      8375      8384      8386      8375      8388      8389      8375      8388      8390
      8375      8388      8391      8376      8375      8377      8376      8375      8384
      8376      8375      8388      8377      8373      8378      8377      8375      8384
      8377      8375      8388      8378      8380      8392      8378      8381      8382
      8378      8381      8383      8378      8381      8384      8379      8378      8380
      8379      8378      8381      8380      8378      8381      8380      8392      8393
      8380      8392      8396      8380      8392      8397      8381      8383      8420
      8381      8384      8385      8381      8384      8386      8382      8381      8383
      8382      8381      8384      8383      8381      8384      8383      8420      8421
      8383      8420      8424      8383      8420      8425      8384      8375      8388
      8384      8386      8387      8385      8384      8386      8389      8388      8390
      8389      8388      8391      8390      8388      8391      8392      8396      8394
      8392      8397      8398      8392      8397      8399      8392      8397      8407
      8393      8392      8396      8393      8392      8397      8394      8411      8407
      8394      8411      8412      8394      8411      8413      8394      8415      8416
      8394      8415      8417      8394      8415      8418      8395      8394      8396
      8395      8394      8411      8395      8394      8415      8396      8392      8397
      8396      8394      8411      8396      8394      8415      8397      8399      8400
      8397      8399      8401      8397      8407      8408      8397      8407      8409
      8397      8407      8411      8398      8397      8399      8398      8397      8407
      8399      8397      8407      8399      8401      8402      8399      8401      8403
      8400      8399      8401      8401      8403      8404      8401      8403      8405
      8401      8403      8406      8402      8401      8403      8404      8403      8405
      8404      8403      8406      8405      8403      8406      8407      8409      8410
      8407      8411      8412      8407      8411      8413      8408      8407      8409
      8408      8407      8411      8409      8407      8411      8411      8394      8415
      8411      8413      8414      8412      8411      8413      8415      8418      8419
      8416      8415      8417      8416      8415      8418      8417      8415      8418
      8420      8424      8422      8420      8425      8426      8420      8425      8427
      8420      8425      8435      8421      8420      8424      8421      8420      8425
      8422      8438      8435      8422      8438      8439      8422      8438      8440
      8422      8442      8443      8422      8442      8444      8422      8442      8445
      8423      8422      8424      8423      8422      8438      8423      8422      8442
      8424      8420      8425      8424      8422      8438      8424      8422      8442
      8425      8427      8428      8425      8427      8429      8425      8435      8436
      8425      8435      8437      8425      8435      8438      8426      8425      8427
      8426      8425      8435      8427      8425      8435      8427      8429      8430
      8427      8429      8431      8428      8427      8429      8429      8431      8432
      8429      8431      8433      8429      8431      8434      8430      8429      8431
      8432      8431      8433      8432      8431      8434      8433      8431      8434
      8435      8437      8447      8435      8438      8439      8435      8438      8440
      8436      8435      8437      8436      8435      8438      8437      8435      8438
      8437      8447      8448      8437      8447      8451      8437      8447      8452
      8438      8422      8442      8438      8440      8441      8439      8438      8440
      8442      8445      8446      8443      8442      8444      8443      8442      8445
      8444      8442      8445      8447      8451      8449      8447      8452      8453
      8447      8452      8454      8447      8452      8455      8448      8447      8451
      8448      8447      8452      8449      8459      8455      8449      8459      8460
      8449      8459      8461      8449      8463      8464      8449      8463      8465
      8449      8463      8466      8450      8449      8451      8450      8449      8459
      8450      8449      8463      8451      8447      8452      8451      8449      8459
      8451      8449      8463      8452      8454      8468      8452      8455      8456
      8452      8455      8457      8452      8455      8459      8453      8452      8454
      8453      8452      8455      8454      8452      8455      8454      8468      8469
      8454      8468      8472      8454      8468      8473      8455      8457      8458
      8455      8459      8460      8455      8459      8461      8456      8455      8457
      8456      8455      8459      8457      8455      8459      8459      8449      8463
      8459      8461      8462      8460      8459      8461      8463      8466      8467
      8464      8463      8465      8464      8463      8466      8465      8463      8466
      8468      8472      8470      8468      8473      8474      8468      8473      8475
      8468      8473      8476      8469      8468      8472      8469      8468      8473
      8470      8480      8476      8470      8480      8481      8470      8480      8482
      8470      8484      8485      8470      8484      8486      8470      8484      8487
      8471      8470      8472      8471      8470      8480      8471      8470      8484
      8472      8468      8473      8472      8470      8480      8472      8470      8484
      8473      8475      8488      8473      8476      8477      8473      8476      8478
      8473      8476      8480      8474      8473      8475      8474      8473      8476
      8475      8473      8476      8475      8488      8489      8475      8488      8492
      8475      8488      8493      8476      8478      8479      8476      8480      8481
      8476      8480      8482      8477      8476      8478      8477      8476      8480
      8478      8476      8480      8480      8470      8484      8480      8482      8483
      8481      8480      8482      8485      8484      8486      8485      8484      8487
      8486      8484      8487      8488      8492      8490      8488      8493      8494
      8488      8493      8495      8488      8493      8496      8489      8488      8492
      8489      8488      8493      8490      8499      8496      8490      8499      8500
      8490      8499      8501      8490      8503      8504      8490      8503      8505
      8490      8503      8506      8491      8490      8492      8491      8490      8499
      8491      8490      8503      8492      8488      8493      8492      8490      8499
      8492      8490      8503      8493      8495      8507      8493      8496      8497
      8493      8496      8498      8493      8496      8499      8494      8493      8495
      8494      8493      8496      8495      8493      8496      8495      8507      8508
      8495      8507      8511      8495      8507      8512      8496      8498      8535
      8496      8499      8500      8496      8499      8501      8497      8496      8498
      8497      8496      8499      8498      8496      8499      8498      8535      8536
      8498      8535      8539      8498      8535      8540      8499      8490      8503
      8499      8501      8502      8500      8499      8501      8504      8503      8505
      8504      8503      8506      8505      8503      8506      8507      8511      8509
      8507      8512      8513      8507      8512      8514      8507      8512      8522
      8508      8507      8511      8508      8507      8512      8509      8526      8522
      8509      8526      8527      8509      8526      8528      8509      8530      8531
      8509      8530      8532      8509      8530      8533      8510      8509      8511
      8510      8509      8526      8510      8509      8530      8511      8507      8512
      8511      8509      8526      8511      8509      8530      8512      8514      8515
      8512      8514      8516      8512      8522      8523      8512      8522      8524
      8512      8522      8526      8513      8512      8514      8513      8512      8522
      8514      8512      8522      8514      8516      8517      8514      8516      8518
      8515      8514      8516      8516      8518      8519      8516      8518      8520
      8516      8518      8521      8517      8516      8518      8519      8518      8520
      8519      8518      8521      8520      8518      8521      8522      8524      8525
      8522      8526      8527      8522      8526      8528      8523      8522      8524
      8523      8522      8526      8524      8522      8526      8526      8509      8530
      8526      8528      8529      8527      8526      8528      8530      8533      8534
      8531      8530      8532      8531      8530      8533      8532      8530      8533
      8535      8539      8537      8535      8540      8541      8535      8540      8542
      8535      8540      8550      8536      8535      8539      8536      8535      8540
      8537      8553      8550      8537      8553      8554      8537      8553      8555
      8537      8557      8558      8537      8557      8559      8537      8557      8560
      8538      8537      8539      8538      8537      8553      8538      8537      8557
      8539      8535      8540      8539      8537      8553      8539      8537      8557
      8540      8542      8543      8540      8542      8544      8540      8550      8551
      8540      8550      8552      8540      8550      8553      8541      8540      8542
      8541      8540      8550      8542      8540      8550      8542      8544      8545
      8542      8544      8546      8543      8542      8544      8544      8546      8547
      8544      8546      8548      8544      8546      8549      8545      8544      8546
      8547      8546      8548      8547      8546      8549      8548      8546      8549
      8550      8552      8562      8550      8553      8554      8550      8553      8555
      8551      8550      8552      8551      8550      8553      8552      8550      8553
      8552      8562      8563      8552      8562      8566      8552      8562      8567
      8553      8537      8557      8553      8555      8556      8554      8553      8555
      8557      8560      8561      8558      8557      8559      8558      8557      8560
      8559      8557      8560      8562      8566      8564      8562      8567      8568
      8562      8567      8569      8562      8567      8570      8563      8562      8566
      8563      8562      8567      8564      8574      8570      8564      8574      8575
      8564      8574      8576      8564      8578      8579      8564      8578      8580
      8564      8578      8581      8565      8564      8566      8565      8564      8574
      8565      8564      8578      8566      8562      8567      8566      8564      8574
      8566      8564      8578      8567      8569      8583      8567      8570      8571
      8567      8570      8572      8567      8570      8574      8568      8567      8569
      8568      8567      8570      8569      8567      8570      8569      8583      8584
      8569      8583      8587      8569      8583      8588      8570      8572      8573
      8570      8574      8575      8570      8574      8576      8571      8570      8572
      8571      8570      8574      8572      8570      8574      8574      8564      8578
      8574      8576      8577      8575      8574      8576      8578      8581      8582
      8579      8578      8580      8579      8578      8581      8580      8578      8581
      8583      8587      8585      8583      8588      8589      8583      8588      8590
      8583      8588      8591      8584      8583      8587      8584      8583      8588
      8585      8595      8591      8585      8595      8596      8585      8595      8597
      8585      8599      8600      8585      8599      8601      8585      8599      8602
      8586      8585      8587      8586      8585      8595      8586      8585      8599
      8587      8583      8588      8587      8585      8595      8587      8585      8599
      8588      8590      8603      8588      8591      8592      8588      8591      8593
      8588      8591      8595      8589      8588      8590      8589      8588      8591
      8590      8588      8591      8590      8603      8604      8590      8603      8607
      8590      8603      8608      8591      8593      8594      8591      8595      8596
      8591      8595      8597      8592      8591      8593      8592      8591      8595
      8593      8591      8595      8595      8585      8599      8595      8597      8598
      8596      8595      8597      8600      8599      8601      8600      8599      8602
      8601      8599      8602      8603      8607      8605      8603      8608      8609
      8603      8608      8610      8603      8608      8611      8604      8603      8607
      8604      8603      8608      8605      8614      8611      8605      8614      8615
      8605      8614      8616      8605      8618      8619      8605      8618      8620
      8605      8618      8621      8606      8605      8607      8606      8605      8614
      8606      8605      8618      8607      8603      8608      8607      8605      8614
      8607      8605      8618      8608      8610      8622      8608      8611      8612
      8608      8611      8613      8608      8611      8614      8609      8608      8610
      8609      8608      8611      8610      8608      8611      8610      8622      8623
      8610      8622      8626      8610      8622      8627      8611      8613      8650
      8611      8614      8615      8611      8614      8616      8612      8611      8613
      8612      8611      8614      8613      8611      8614      8613      8650      8651
      8613      8650      8654      8613      8650      8655      8614      8605      8618
      8614      8616      8617      8615      8614      8616      8619      8618      8620
      8619      8618      8621      8620      8618      8621      8622      8626      8624
      8622      8627      8628      8622      8627      8629      8622      8627      8637
      8623      8622      8626      8623      8622      8627      8624      8641      8637
      8624      8641      8642      8624      8641      8643      8624      8645      8646
      8624      8645      8647      8624      8645      8648      8625      8624      8626
      8625      8624      8641      8625      8624      8645      8626      8622      8627
      8626      8624      8641      8626      8624      8645      8627      8629      8630
      8627      8629      8631      8627      8637      8638      8627      8637      8639
      8627      8637      8641      8628      8627      8629      8628      8627      8637
      8629      8627      8637      8629      8631      8632      8629      8631      8633
      8630      8629      8631      8631      8633      8634      8631      8633      8635
      8631      8633      8636      8632      8631      8633      8634      8633      8635
      8634      8633      8636      8635      8633      8636      8637      8639      8640
      8637      8641      8642      8637      8641      8643      8638      8637      8639
      8638      8637      8641      8639      8637      8641      8641      8624      8645
      8641      8643      8644      8642      8641      8643      8645      8648      8649
      8646      8645      8647      8646      8645      8648      8647      8645      8648
      8650      8654      8652      8650      8655      8656      8650      8655      8657
      8650      8655      8665      8651      8650      8654      8651      8650      8655
      8652      8668      8665      8652      8668      8669      8652      8668      8670
      8652      8672      8673      8652      8672      8674      8652      8672      8675
      8653      8652      8654      8653      8652      8668      8653      8652      8672
      8654      8650      8655      8654      8652      8668      8654      8652      8672
      8655      8657      8658      8655      8657      8659      8655      8665      8666
      8655      8665      8667      8655      8665      8668      8656      8655      8657
      8656      8655      8665      8657      8655      8665      8657      8659      8660
      8657      8659      8661      8658      8657      8659      8659      8661      8662
      8659      8661      8663      8659      8661      8664      8660      8659      8661
      8662      8661      8663      8662      8661      8664      8663      8661      8664
      8665      8667      8677      8665      8668      8669      8665      8668      8670
      8666      8665      8667      8666      8665      8668      8667      8665      8668
      8667      8677      8678      8667      8677      8681      8667      8677      8682
      8668      8652      8672      8668      8670      8671      8669      8668      8670
      8672      8675      8676      8673      8672      8674      8673      8672      8675
      8674      8672      8675      8677      8681      8679      8677      8682      8683
      8677      8682      8684      8677      8682      8685      8678      8677      8681
      8678      8677      8682      8679      8689      8685      8679      8689      8690
      8679      8689      8691      8679      8693      8694      8679      8693      8695
      8679      8693      8696      8680      8679      8681      8680      8679      8689
      8680      8679      8693      8681      8677      8682      8681      8679      8689
      8681      8679      8693      8682      8684      8698      8682      8685      8686
      8682      8685      8687      8682      8685      8689      8683      8682      8684
      8683      8682      8685      8684      8682      8685      8684      8698      8699
      8684      8698      8702      8684      8698      8703      8685      8687      8688
      8685      8689      8690      8685      8689      8691      8686      8685      8687
      8686      8685      8689      8687      8685      8689      8689      8679      8693
      8689      8691      8692      8690      8689      8691      8693      8696      8697
      8694      8693      8695      8694      8693      8696      8695      8693      8696
      8698      8702      8700      8698      8703      8704      8698      8703      8705
      8698      8703      8706      8699      8698      8702      8699      8698      8703
      8700      8710      8706      8700      8710      8711      8700      8710      8712
      8700      8714      8715      8700      8714      8716      8700      8714      8717
      8701      8700      8702      8701      8700      8710      8701      8700      8714
      8702      8698      8703      8702      8700      8710      8702      8700      8714
      8703      8705      8718      8703      8706      8707      8703      8706      8708
      8703      8706      8710      8704      8703      8705      8704      8703      8706
      8705      8703      8706      8705      8718      8719      8705      8718      8722
      8705      8718      8723      8706      8708      8709      8706      8710      8711
      8706      8710      8712      8707      8706      8708      8707      8706      8710
      8708      8706      8710      8710      8700      8714      8710      8712      8713
      8711      8710      8712      8715      8714      8716      8715      8714      8717
      8716      8714      8717      8718      8722      8720      8718      8723      8724
      8718      8723      8725      8718      8723      8726      8719      8718      8722
      8719      8718      8723      8720      8729      8726      8720      8729      8730
      8720      8729      8731      8720      8733      8734      8720      8733      8735
      8720      8733      8736      8721      8720      8722      8721      8720      8729
      8721      8720      8733      8722      8718      8723      8722      8720      8729
      8722      8720      8733      8723      8725      8737      8723      8726      8727
      8723      8726      8728      8723      8726      8729      8724      8723      8725
      8724      8723      8726      8725      8723      8726      8725      8737      8738
      8725      8737      8741      8725      8737      8742      8726      8728      8765
      8726      8729      8730      8726      8729      8731      8727      8726      8728
      8727      8726      8729      8728      8726      8729      8728      8765      8766
      8728      8765      8769      8728      8765      8770      8729      8720      8733
      8729      8731      8732      8730      8729      8731      8734      8733      8735
      8734      8733      8736      8735      8733      8736      8737      8741      8739
      8737      8742      8743      8737      8742      8744      8737      8742      8752
      8738      8737      8741      8738      8737      8742      8739      8756      8752
      8739      8756      8757      8739      8756      8758      8739      8760      8761
      8739      8760      8762      8739      8760      8763      8740      8739      8741
      8740      8739      8756      8740      8739      8760      8741      8737      8742
      8741      8739      8756      8741      8739      8760      8742      8744      8745
      8742      8744      8746      8742      8752      8753      8742      8752      8754
      8742      8752      8756      8743      8742      8744      8743      8742      8752
      8744      8742      8752      8744      8746      8747      8744      8746      8748
      8745      8744      8746      8746      8748      8749      8746      8748      8750
      8746      8748      8751      8747      8746      8748      8749      8748      8750
      8749      8748      8751      8750      8748      8751      8752      8754      8755
      8752      8756      8757      8752      8756      8758      8753      8752      8754
      8753      8752      8756      8754      8752      8756      8756      8739      8760
      8756      8758      8759      8757      8756      8758      8760      8763      8764
      8761      8760      8762      8761      8760      8763      8762      8760      8763
      8765      8769      8767      8765      8770      8771      8765      8770      8772
      8765      8770      8780      8766      8765      8769      8766      8765      8770
      8767      8783      8780      8767      8783      8784      8767      8783      8785
      8767      8787      8788      8767      8787      8789      8767      8787      8790
      8768      8767      8769      8768      8767      8783      8768      8767      8787
      8769      8765      8770      8769      8767      8783      8769      8767      8787
      8770      8772      8773      8770      8772      8774      8770      8780      8781
      8770      8780      8782      8770      8780      8783      8771      8770      8772
      8771      8770      8780      8772      8770      8780      8772      8774      8775
      8772      8774      8776      8773      8772      8774      8774      8776      8777
      8774      8776      8778      8774      8776      8779      8775      8774      8776
      8777      8776      8778      8777      8776      8779      8778      8776      8779
      8780      8782      8792      8780      8783      8784      8780      8783      8785
      8781      8780      8782      8781      8780      8783      8782      8780      8783
      8782      8792      8793      8782      8792      8796      8782      8792      8797
      8783      8767      8787      8783      8785      8786      8784      8783      8785
      8787      8790      8791      8788      8787      8789      8788      8787      8790
      8789      8787      8790      8792      8796      8794      8792      8797      8798
      8792      8797      8799      8792      8797      8800      8793      8792      8796
      8793      8792      8797      8794      8804      8800      8794      8804      8805
      8794      8804      8806      8794      8808      8809      8794      8808      8810
      8794      8808      8811      8795      8794      8796      8795      8794      8804
      8795      8794      8808      8796      8792      8797      8796      8794      8804
      8796      8794      8808      8797      8799      8813      8797      8800      8801
      8797      8800      8802      8797      8800      8804      8798      8797      8799
      8798      8797      8800      8799      8797      8800      8799      8813      8814
      8799      8813      8817      8799      8813      8818      8800      8802      8803
      8800      8804      8805      8800      8804      8806      8801      8800      8802
      8801      8800      8804      8802      8800      8804      8804      8794      8808
      8804      8806      8807      8805      8804      8806      8808      8811      8812
      8809      8808      8810      8809      8808      8811      8810      8808      8811
      8813      8817      8815      8813      8818      8819      8813      8818      8820
      8813      8818      8821      8814      8813      8817      8814      8813      8818
      8815      8825      8821      8815      8825      8826      8815      8825      8827
      8815      8829      8830      8815      8829      8831      8815      8829      8832
      8816      8815      8817      8816      8815      8825      8816      8815      8829
      8817      8813      8818      8817      8815      8825      8817      8815      8829
      8818      8820      8833      8818      8821      8822      8818      8821      8823
      8818      8821      8825      8819      8818      8820      8819      8818      8821
      8820      8818      8821      8820      8833      8834      8820      8833      8837
      8820      8833      8838      8821      8823      8824      8821      8825      8826
      8821      8825      8827      8822      8821      8823      8822      8821      8825
      8823      8821      8825      8825      8815      8829      8825      8827      8828
      8826      8825      8827      8830      8829      8831      8830      8829      8832
      8831      8829      8832      8833      8837      8835      8833      8838      8839
      8833      8838      8840      8833      8838      8841      8834      8833      8837
      8834      8833      8838      8835      8845      8841      8835      8845      8846
      8835      8845      8847      8835      8849      8850      8835      8849      8851
      8835      8849      8852      8836      8835      8837      8836      8835      8845
      8836      8835      8849      8837      8833      8838      8837      8835      8845
      8837      8835      8849      8838      8840      8853      8838      8841      8842
      8838      8841      8843      8838      8841      8845      8839      8838      8840
      8839      8838      8841      8840      8838      8841      8840      8853      8854
      8840      8853      8857      8840      8853      8858      8841      8843      8844
      8841      8845      8846      8841      8845      8847      8842      8841      8843
      8842      8841      8845      8843      8841      8845      8845      8835      8849
      8845      8847      8848      8846      8845      8847      8850      8849      8851
      8850      8849      8852      8851      8849      8852      8853      8857      8855
      8853      8858      8859      8853      8858      8860      8853      8858      8868
      8854      8853      8857      8854      8853      8858      8855      8872      8868
      8855      8872      8873      8855      8872      8874      8855      8876      8877
      8855      8876      8878      8855      8876      8879      8856      8855      8857
      8856      8855      8872      8856      8855      8876      8857      8853      8858
      8857      8855      8872      8857      8855      8876      8858      8860      8861
      8858      8860      8862      8858      8868      8869      8858      8868      8870
      8858      8868      8872      8859      8858      8860      8859      8858      8868
      8860      8858      8868      8860      8862      8863      8860      8862      8864
      8861      8860      8862      8862      8864      8865      8862      8864      8866
      8862      8864      8867      8863      8862      8864      8865      8864      8866
      8865      8864      8867      8866      8864      8867      8868      8870      8871
      8868      8872      8873      8868      8872      8874      8869      8868      8870
      8869      8868      8872      8870      8868      8872      8872      8855      8876
      8872      8874      8875      8873      8872      8874      8876      8879      8880
      8877      8876      8878      8877      8876      8879      8878      8876      8879
      8881      8883      8882      8881      8883      8884      8881      8883      8885
      8882      8883      8884      8882      8883      8885      8882      9180      9177
      8882      9180      9183      8882      9180      9184      8883      8882      9180
      8883      8885      8886      8883      8885      8887      8883      8885      8894
      8884      8883      8885      8885      8886      8888      8885      8894      8895
      8885      8894      8896      8885      8894      8901      8886      8885      8887
      8886      8885      8894      8886      8888      8889      8886      8888      8890
      8886      8888      8909      8887      8885      8894      8888      8890      8891
      8888      8909      8901      8888      8909      8910      8888      8909      8911
      8889      8888      8890      8889      8888      8909      8890      8888      8909
      8890      8891      8892      8890      8891      8893      8890      8891      8917
      8891      8917      8913      8891      8917      8918      8891      8917      8919
      8892      8891      8893      8892      8891      8917      8893      8891      8917
      8894      8896      8897      8894      8901      8902      8894      8901      8903
      8894      8901      8909      8895      8894      8896      8895      8894      8901
      8896      8894      8901      8896      8897      8898      8896      8897      8899
      8896      8897      8900      8898      8897      8899      8898      8897      8900
      8899      8897      8900      8901      8902      8904      8901      8909      8910
      8901      8909      8911      8902      8901      8903      8902      8901      8909
      8902      8904      8905      8902      8904      8906      8903      8901      8909
      8904      8906      8907      8904      8906      8908      8904      8906      8939
      8905      8904      8906      8906      8939      8940      8906      8939      8941
      8906      8939      8984      8907      8906      8908      8907      8906      8939
      8908      8906      8939      8909      8911      8912      8909      8911      9018
      8910      8909      8911      8911      9018      9019      8911      9018      9020
      8912      8911      9018      8913      8915      8916      8913      8917      8918
      8913      8917      8919      8913      8927      8928      8913      8927      8929
      8913      8927      8935      8914      8913      8915      8914      8913      8917
      8914      8913      8927      8915      8913      8917      8915      8913      8927
      8917      8913      8927      8917      8919      8920      8918      8917      8919
      8919      8920      8921      8919      8920      8922      8919      8920      8935
      8920      8922      8926      8920      8935      8927      8920      8935      8936
      8920      8935      8937      8921      8920      8922      8921      8920      8935
      8922      8920      8935      8922      8926      8923      8922      8926      8924
      8922      8926      8925      8923      8926      8924      8923      8926      8925
      8924      8926      8925      8927      8929      8930      8927      8935      8936
      8927      8935      8937      8928      8927      8929      8928      8927      8935
      8929      8927      8935      8929      8930      8931      8929      8930      8932
      8930      8932      8933      8930      8932      8934      8930      8932      9096
      8931      8930      8932      8932      9096      9097      8932      9096      9098
      8932      9096      9100      8933      8932      8934      8933      8932      9096
      8934      8932      9096      8935      8937      8938      8935      8937      9134
      8936      8935      8937      8937      9134      9135      8937      9134      9136
      8938      8937      9134      8939      8941      8942      8939      8984      8985
      8939      8984      8986      8939      8984      8987      8940      8939      8941
      8940      8939      8984      8941      8939      8984      8941      8942      8943
      8941      8942      8944      8942      8944      8945      8942      8944      8946
      8942      8944      8947      8943      8942      8944      8944      8947      8948
      8944      8947      8949      8944      8947      8950      8945      8944      8946
      8945      8944      8947      8946      8944      8947      8947      8950      8951
      8947      8950      8952      8947      8950      8953      8948      8947      8949
      8948      8947      8950      8949      8947      8950      8950      8953      8954
      8950      8953      8955      8950      8953      8956      8951      8950      8952
      8951      8950      8953      8952      8950      8953      8953      8956      8957
      8953      8956      8958      8953      8956      8959      8954      8953      8955
      8954      8953      8956      8955      8953      8956      8956      8959      8960
      8956      8959      8961      8956      8959      8962      8957      8956      8958
      8957      8956      8959      8958      8956      8959      8959      8962      8963
      8959      8962      8964      8959      8962      8965      8960      8959      8961
      8960      8959      8962      8961      8959      8962      8962      8965      8966
      8962      8965      8967      8962      8965      8968      8963      8962      8964
      8963      8962      8965      8964      8962      8965      8965      8968      8969
      8965      8968      8970      8965      8968      8971      8966      8965      8967
      8966      8965      8968      8967      8965      8968      8968      8971      8972
      8968      8971      8973      8968      8971      8974      8969      8968      8970
      8969      8968      8971      8970      8968      8971      8971      8974      8975
      8971      8974      8976      8971      8974      8977      8972      8971      8973
      8972      8971      8974      8973      8971      8974      8974      8977      8978
      8974      8977      8979      8974      8977      8980      8975      8974      8976
      8975      8974      8977      8976      8974      8977      8977      8980      8981
      8977      8980      8982      8977      8980      8983      8978      8977      8979
      8978      8977      8980      8979      8977      8980      8981      8980      8982
      8981      8980      8983      8982      8980      8983      8984      8987      8988
      8984      8987      8989      8984      8987      8990      8985      8984      8986
      8985      8984      8987      8986      8984      8987      8987      8990      8991
      8987      8990      8992      8987      8990      8993      8988      8987      8989
      8988      8987      8990      8989      8987      8990      8990      8993      8994
      8990      8993      8995      8990      8993      8996      8991      8990      8992
      8991      8990      8993      8992      8990      8993      8993      8996      8997
      8993      8996      8998      8993      8996      8999      8994      8993      8995
      8994      8993      8996      8995      8993      8996      8996      8999      9000
      8996      8999      9001      8996      8999      9002      8997      8996      8998
      8997      8996      8999      8998      8996      8999      8999      9002      9003
      8999      9002      9004      8999      9002      9005      9000      8999      9001
      9000      8999      9002      9001      8999      9002      9002      9005      9006
      9002      9005      9007      9002      9005      9008      9003      9002      9004
      9003      9002      9005      9004      9002      9005      9005      9008      9009
      9005      9008      9010      9005      9008      9011      9006      9005      9007
      9006      9005      9008      9007      9005      9008      9008      9011      9012
      9008      9011      9013      9008      9011      9014      9009      9008      9010
      9009      9008      9011      9010      9008      9011      9011      9014      9015
      9011      9014      9016      9011      9014      9017      9012      9011      9013
      9012      9011      9014      9013      9011      9014      9015      9014      9016
      9015      9014      9017      9016      9014      9017      9018      9020      9021
      9018      9020      9022      9018      9020      9023      9019      9018      9020
      9020      9023      9024      9020      9023      9025      9020      9023      9062
      9021      9020      9022      9021      9020      9023      9022      9020      9023
      9023      9025      9026      9023      9062      9063      9023      9062      9064
      9023      9062      9065      9024      9023      9025      9024      9023      9062
      9025      9023      9062      9025      9026      9027      9025      9026      9028
      9026      9028      9029      9026      9028      9030      9026      9028      9031
      9027      9026      9028      9028      9031      9032      9028      9031      9033
      9028      9031      9034      9029      9028      9030      9029      9028      9031
      9030      9028      9031      9031      9034      9035      9031      9034      9036
      9031      9034      9037      9032      9031      9033      9032      9031      9034
      9033      9031      9034      9034      9037      9038      9034      9037      9039
      9034      9037      9040      9035      9034      9036      9035      9034      9037
      9036      9034      9037      9037      9040      9041      9037      9040      9042
      9037      9040      9043      9038      9037      9039      9038      9037      9040
      9039      9037      9040      9040      9043      9044      9040      9043      9045
      9040      9043      9046      9041      9040      9042      9041      9040      9043
      9042      9040      9043      9043      9046      9047      9043      9046      9048
      9043      9046      9049      9044      9043      9045      9044      9043      9046
      9045      9043      9046      9046      9049      9050      9046      9049      9051
      9046      9049      9052      9047      9046      9048      9047      9046      9049
      9048      9046      9049      9049      9052      9053      9049      9052      9054
      9049      9052      9055      9050      9049      9051      9050      9049      9052
      9051      9049      9052      9052      9055      9056      9052      9055      9057
      9052      9055      9058      9053      9052      9054      9053      9052      9055
      9054      9052      9055      9055      9058      9059      9055      9058      9060
      9055      9058      9061      9056      9055      9057      9056      9055      9058
      9057      9055      9058      9059      9058      9060      9059      9058      9061
      9060      9058      9061      9062      9065      9066      9062      9065      9067
      9062      9065      9068      9063      9062      9064      9063      9062      9065
      9064      9062      9065      9065      9068      9069      9065      9068      9070
      9065      9068      9071      9066      9065      9067      9066      9065      9068
      9067      9065      9068      9068      9071      9072      9068      9071      9073
      9068      9071      9074      9069      9068      9070      9069      9068      9071
      9070      9068      9071      9071      9074      9075      9071      9074      9076
      9071      9074      9077      9072      9071      9073      9072      9071      9074
      9073      9071      9074      9074      9077      9078      9074      9077      9079
      9074      9077      9080      9075      9074      9076      9075      9074      9077
      9076      9074      9077      9077      9080      9081      9077      9080      9082
      9077      9080      9083      9078      9077      9079      9078      9077      9080
      9079      9077      9080      9080      9083      9084      9080      9083      9085
      9080      9083      9086      9081      9080      9082      9081      9080      9083
      9082      9080      9083      9083      9086      9087      9083      9086      9088
      9083      9086      9089      9084      9083      9085      9084      9083      9086
      9085      9083      9086      9086      9089      9090      9086      9089      9091
      9086      9089      9092      9087      9086      9088      9087      9086      9089
      9088      9086      9089      9089      9092      9093      9089      9092      9094
      9089      9092      9095      9090      9089      9091      9090      9089      9092
      9091      9089      9092      9093      9092      9094      9093      9092      9095
      9094      9092      9095      9096      9098      9099      9096      9100      9101
      9096      9100      9102      9096      9100      9103      9097      9096      9098
      9097      9096      9100      9098      9096      9100      9100      9103      9104
      9100      9103      9105      9100      9103      9106      9101      9100      9102
      9101      9100      9103      9102      9100      9103      9103      9106      9107
      9103      9106      9108      9103      9106      9109      9104      9103      9105
      9104      9103      9106      9105      9103      9106      9106      9109      9110
      9106      9109      9111      9106      9109      9112      9107      9106      9108
      9107      9106      9109      9108      9106      9109      9109      9112      9113
      9109      9112      9114      9109      9112      9115      9110      9109      9111
      9110      9109      9112      9111      9109      9112      9112      9115      9116
      9112      9115      9117      9112      9115      9118      9113      9112      9114
      9113      9112      9115      9114      9112      9115      9115      9118      9119
      9115      9118      9120      9115      9118      9121      9116      9115      9117
      9116      9115      9118      9117      9115      9118      9118      9121      9122
      9118      9121      9123      9118      9121      9124      9119      9118      9120
      9119      9118      9121      9120      9118      9121      9121      9124      9125
      9121      9124      9126      9121      9124      9127      9122      9121      9123
      9122      9121      9124      9123      9121      9124      9124      9127      9128
      9124      9127      9129      9124      9127      9130      9125      9124      9126
      9125      9124      9127      9126      9124      9127      9127      9130      9131
      9127      9130      9132      9127      9130      9133      9128      9127      9129
      9128      9127      9130      9129      9127      9130      9131      9130      9132
      9131      9130      9133      9132      9130      9133      9134      9136      9137
      9134      9136      9138      9134      9136      9139      9135      9134      9136
      9136      9139      9140      9136      9139      9141      9136      9139      9143
      9137      9136      9138      9137      9136      9139      9138      9136      9139
      9139      9141      9142      9139      9143      9144      9139      9143      9145
      9139      9143      9146      9140      9139      9141      9140      9139      9143
      9141      9139      9143      9143      9146      9147      9143      9146      9148
      9143      9146      9149      9144      9143      9145      9144      9143      9146
      9145      9143      9146      9146      9149      9150      9146      9149      9151
      9146      9149      9152      9147      9146      9148      9147      9146      9149
      9148      9146      9149      9149      9152      9153      9149      9152      9154
      9149      9152      9155      9150      9149      9151      9150      9149      9152
      9151      9149      9152      9152      9155      9156      9152      9155      9157
      9152      9155      9158      9153      9152      9154      9153      9152      9155
      9154      9152      9155      9155      9158      9159      9155      9158      9160
      9155      9158      9161      9156      9155      9157      9156      9155      9158
      9157      9155      9158      9158      9161      9162      9158      9161      9163
      9158      9161      9164      9159      9158      9160      9159      9158      9161
      9160      9158      9161      9161      9164      9165      9161      9164      9166
      9161      9164      9167      9162      9161      9163      9162      9161      9164
      9163      9161      9164      9164      9167      9168      9164      9167      9169
      9164      9167      9170      9165      9164      9166      9165      9164      9167
      9166      9164      9167      9167      9170      9171      9167      9170      9172
      9167      9170      9173      9168      9167      9169      9168      9167      9170
      9169      9167      9170      9170      9173      9174      9170      9173      9175
      9170      9173      9176      9171      9170      9172      9171      9170      9173
      9172      9170      9173      9174      9173      9175      9174      9173      9176
      9175      9173      9176      9177      9180      9183      9177      9180      9184
      9178      9177      9179      9178      9177      9180      9179      9177      9180
      9180      9183      9181      9180      9184      9185      9180      9184      9186
      9180      9184      9187      9181      9190      9187      9181      9190      9191
      9181      9190      9192      9181      9193      9194      9181      9193      9195
      9181      9193      9197      9182      9181      9183      9182      9181      9190
      9182      9181      9193      9183      9180      9184      9183      9181      9190
      9183      9181      9193      9184      9187      9188      9184      9187      9189
      9184      9187      9190      9185      9184      9186      9185      9184      9187
      9186      9184      9187      9187      9189      9205      9187      9190      9191
      9187      9190      9192      9188      9187      9189      9188      9187      9190
      9189      9187      9190      9189      9205      9202      9189      9205      9208
      9189      9205      9209      9190      9181      9193      9190      9192      9229
      9191      9190      9192      9192      9229      9230      9192      9229      9233
      9192      9229      9234      9193      9195      9196      9193      9197      9198
      9193      9197      9199      9193      9197      9200      9194      9193      9195
      9194      9193      9197      9195      9193      9197      9197      9200      9201
      9198      9197      9199      9198      9197      9200      9199      9197      9200
      9202      9205      9208      9202      9205      9209      9203      9202      9204
      9203      9202      9205      9204      9202      9205      9205      9208      9206
      9205      9209      9210      9205      9209      9211      9205      9209      9212
      9206      9216      9212      9206      9216      9217      9206      9216      9218
      9206      9220      9221      9206      9220      9222      9206      9220      9224
      9207      9206      9208      9207      9206      9216      9207      9206      9220
      9208      9205      9209      9208      9206      9216      9208      9206      9220
      9209      9212      9213      9209      9212      9214      9209      9212      9216
      9210      9209      9211      9210      9209      9212      9211      9209      9212
      9212      9214      9215      9212      9216      9217      9212      9216      9218
      9213      9212      9214      9213      9212      9216      9214      9212      9216
      9216      9206      9220      9216      9218      9219      9217      9216      9218
      9220      9222      9223      9220      9224      9225      9220      9224      9226
      9220      9224      9227      9221      9220      9222      9221      9220      9224
      9222      9220      9224      9224      9227      9228      9225      9224      9226
      9225      9224      9227      9226      9224      9227      9229      9233      9231
      9229      9234      9235      9229      9234      9236      9229      9234      9238
      9230      9229      9233      9230      9229      9234      9231      9241      9238
      9231      9241      9242      9231      9241      9243      9231      9248      9249
      9231      9248      9250      9231      9248      9252      9232      9231      9233
      9232      9231      9241      9232      9231      9248      9233      9229      9234
      9233      9231      9241      9233      9231      9248      9234      9236      9237
      9234      9238      9239      9234      9238      9240      9234      9238      9241
      9235      9234      9236      9235      9234      9238      9236      9234      9238
      9238      9240      9257      9238      9241      9242      9238      9241      9243
      9239      9238      9240      9239      9238      9241      9240      9238      9241
      9240      9257      9258      9240      9257      9261      9240      9257      9262
      9241      9231      9248      9241      9243      9244      9242      9241      9243
      9243      9244      9245      9243      9244      9246      9243      9244      9247
      9245      9244      9246      9245      9244      9247      9246      9244      9247
      9248      9250      9251      9248      9252      9253      9248      9252      9254
      9248      9252      9255      9249      9248      9250      9249      9248      9252
      9250      9248      9252      9252      9255      9256      9253      9252      9254
      9253      9252      9255      9254      9252      9255      9257      9261      9259
      9257      9262      9263      9257      9262      9264      9257      9262      9266
      9258      9257      9261      9258      9257      9262      9259      9269      9266
      9259      9269      9270      9259      9269      9271      9259      9276      9277
      9259      9276      9278      9259      9276      9280      9260      9259      9261
      9260      9259      9269      9260      9259      9276      9261      9257      9262
      9261      9259      9269      9261      9259      9276      9262      9264      9265
      9262      9266      9267      9262      9266      9268      9262      9266      9269
      9263      9262      9264      9263      9262      9266      9264      9262      9266
      9266      9268      9310      9266      9269      9270      9266      9269      9271
      9267      9266      9268      9267      9266      9269      9268      9266      9269
      9268      9310      9311      9268      9310      9314      9268      9310      9315
      9269      9259      9276      9269      9271      9272      9270      9269      9271
      9271      9272      9273      9271      9272      9274      9271      9272      9275
      9273      9272      9274      9273      9272      9275      9274      9272      9275
      9276      9278      9279      9276      9280      9281      9276      9280      9282
      9276      9280      9283      9277      9276      9278      9277      9276      9280
      9278      9276      9280      9280      9283      9284      9281      9280      9282
      9281      9280      9283      9282      9280      9283      9283      9284      9285
      9283      9284      9288      9283      9284      9289      9284      9288      9286
      9284      9289      9290      9284      9289      9291      9284      9289      9293
      9285      9284      9288      9285      9284      9289      9286      9297      9293
      9286      9297      9298      9286      9297      9299      9286      9301      9302
      9286      9301      9303      9286      9301      9305      9287      9286      9288
      9287      9286      9297      9287      9286      9301      9288      9284      9289
      9288      9286      9297      9288      9286      9301      9289      9291      9292
      9289      9293      9294      9289      9293      9295      9289      9293      9297
      9290      9289      9291      9290      9289      9293      9291      9289      9293
      9293      9295      9296      9293      9297      9298      9293      9297      9299
      9294      9293      9295      9294      9293      9297      9295      9293      9297
      9297      9286      9301      9297      9299      9300      9298      9297      9299
      9301      9303      9304      9301      9305      9306      9301      9305      9307
      9301      9305      9308      9302      9301      9303      9302      9301      9305
      9303      9301      9305      9305      9308      9309      9306      9305      9307
      9306      9305      9308      9307      9305      9308      9310      9314      9312
      9310      9315      9316      9310      9315      9317      9310      9315      9319
      9311      9310      9314      9311      9310      9315      9312      9322      9319
      9312      9322      9323      9312      9322      9324      9312      9326      9327
      9312      9326      9328      9312      9326      9329      9313      9312      9314
      9313      9312      9322      9313      9312      9326      9314      9310      9315
      9314      9312      9322      9314      9312      9326      9315      9317      9318
      9315      9319      9320      9315      9319      9321      9315      9319      9322
      9316      9315      9317      9316      9315      9319      9317      9315      9319
      9319      9321      9331      9319      9322      9323      9319      9322      9324
      9320      9319      9321      9320      9319      9322      9321      9319      9322
      9321      9331      9332      9321      9331      9335      9321      9331      9336
      9322      9312      9326      9322      9324      9325      9323      9322      9324
      9326      9329      9330      9327      9326      9328      9327      9326      9329
      9328      9326      9329      9331      9335      9333      9331      9336      9337
      9331      9336      9338      9331      9336      9339      9332      9331      9335
      9332      9331      9336      9333      9342      9339      9333      9342      9343
      9333      9342      9344      9333      9346      9347      9333      9346      9348
      9333      9346      9349      9334      9333      9335      9334      9333      9342
      9334      9333      9346      9335      9331      9336      9335      9333      9342
      9335      9333      9346      9336      9338      9351      9336      9339      9340
      9336      9339      9341      9336      9339      9342      9337      9336      9338
      9337      9336      9339      9338      9336      9339      9338      9351      9352
      9338      9351      9355      9338      9351      9356      9339      9341      9394
      9339      9342      9343      9339      9342      9344      9340      9339      9341
      9340      9339      9342      9341      9339      9342      9341      9394      9395
      9341      9394      9398      9341      9394      9399      9342      9333      9346
      9342      9344      9345      9343      9342      9344      9346      9349      9350
      9347      9346      9348      9347      9346      9349      9348      9346      9349
      9351      9355      9353      9351      9356      9357      9351      9356      9358
      9351      9356      9359      9352      9351      9355      9352      9351      9356
      9353      9363      9359      9353      9363      9364      9353      9363      9365
      9353      9367      9368      9353      9367      9369      9353      9367      9370
      9354      9353      9355      9354      9353      9363      9354      9353      9367
      9355      9351      9356      9355      9353      9363      9355      9353      9367
      9356      9358      9372      9356      9359      9360      9356      9359      9361
      9356      9359      9363      9357      9356      9358      9357      9356      9359
      9358      9356      9359      9358      9372      9373      9358      9372      9376
      9358      9372      9377      9359      9361      9362      9359      9363      9364
      9359      9363      9365      9360      9359      9361      9360      9359      9363
      9361      9359      9363      9363      9353      9367      9363      9365      9366
      9364      9363      9365      9367      9370      9371      9368      9367      9369
      9368      9367      9370      9369      9367      9370      9372      9376      9374
      9372      9377      9378      9372      9377      9379      9372      9377      9381
      9373      9372      9376      9373      9372      9377      9374      9385      9381
      9374      9385      9386      9374      9385      9387      9374      9389      9390
      9374      9389      9391      9374      9389      9392      9375      9374      9376
      9375      9374      9385      9375      9374      9389      9376      9372      9377
      9376      9374      9385      9376      9374      9389      9377      9379      9380
      9377      9381      9382      9377      9381      9383      9377      9381      9385
      9378      9377      9379      9378      9377      9381      9379      9377      9381
      9381      9383      9384      9381      9385      9386      9381      9385      9387
      9382      9381      9383      9382      9381      9385      9383      9381      9385
      9385      9374      9389      9385      9387      9388      9386      9385      9387
      9389      9392      9393      9390      9389      9391      9390      9389      9392
      9391      9389      9392      9394      9398      9396      9394      9399      9400
      9394      9399      9401      9394      9399      9403      9395      9394      9398
      9395      9394      9399      9396      9406      9403      9396      9406      9407
      9396      9406      9408      9396      9410      9411      9396      9410      9412
      9396      9410      9413      9397      9396      9398      9397      9396      9406
      9397      9396      9410      9398      9394      9399      9398      9396      9406
      9398      9396      9410      9399      9401      9402      9399      9403      9404
      9399      9403      9405      9399      9403      9406      9400      9399      9401
      9400      9399      9403      9401      9399      9403      9403      9405      9415
      9403      9406      9407      9403      9406      9408      9404      9403      9405
      9404      9403      9406      9405      9403      9406      9405      9415      9416
      9405      9415      9419      9405      9415      9420      9406      9396      9410
      9406      9408      9409      9407      9406      9408      9410      9413      9414
      9411      9410      9412      9411      9410      9413      9412      9410      9413
      9415      9419      9417      9415      9420      9421      9415      9420      9422
      9415      9420      9430      9416      9415      9419      9416      9415      9420
      9417      9433      9430      9417      9433      9434      9417      9433      9435
      9417      9437      9438      9417      9437      9439      9417      9437      9440
      9418      9417      9419      9418      9417      9433      9418      9417      9437
      9419      9415      9420      9419      9417      9433      9419      9417      9437
      9420      9422      9423      9420      9422      9424      9420      9430      9431
      9420      9430      9432      9420      9430      9433      9421      9420      9422
      9421      9420      9430      9422      9420      9430      9422      9424      9425
      9422      9424      9426      9423      9422      9424      9424      9426      9427
      9424      9426      9428      9424      9426      9429      9425      9424      9426
      9427      9426      9428      9427      9426      9429      9428      9426      9429
      9430      9432      9442      9430      9433      9434      9430      9433      9435
      9431      9430      9432      9431      9430      9433      9432      9430      9433
      9432      9442      9443      9432      9442      9446      9432      9442      9447
      9433      9417      9437      9433      9435      9436      9434      9433      9435
      9437      9440      9441      9438      9437      9439      9438      9437      9440
      9439      9437      9440      9442      9446      9444      9442      9447      9448
      9442      9447      9449      9442      9447      9450      9443      9442      9446
      9443      9442      9447      9444      9454      9450      9444      9454      9455
      9444      9454      9456      9444      9458      9459      9444      9458      9460
      9444      9458      9461      9445      9444      9446      9445      9444      9454
      9445      9444      9458      9446      9442      9447      9446      9444      9454
      9446      9444      9458      9447      9449      9463      9447      9450      9451
      9447      9450      9452      9447      9450      9454      9448      9447      9449
      9448      9447      9450      9449      9447      9450      9449      9463      9464
      9449      9463      9467      9449      9463      9468      9450      9452      9453
      9450      9454      9455      9450      9454      9456      9451      9450      9452
      9451      9450      9454      9452      9450      9454      9454      9444      9458
      9454      9456      9457      9455      9454      9456      9458      9461      9462
      9459      9458      9460      9459      9458      9461      9460      9458      9461
      9463      9467      9465      9463      9468      9469      9463      9468      9470
      9463      9468      9471      9464      9463      9467      9464      9463      9468
      9465      9475      9471      9465      9475      9476      9465      9475      9477
      9465      9479      9480      9465      9479      9481      9465      9479      9482
      9466      9465      9467      9466      9465      9475      9466      9465      9479
      9467      9463      9468      9467      9465      9475      9467      9465      9479
      9468      9470      9483      9468      9471      9472      9468      9471      9473
      9468      9471      9475      9469      9468      9470      9469      9468      9471
      9470      9468      9471      9470      9483      9484      9470      9483      9487
      9470      9483      9488      9471      9473      9474      9471      9475      9476
      9471      9475      9477      9472      9471      9473      9472      9471      9475
      9473      9471      9475      9475      9465      9479      9475      9477      9478
      9476      9475      9477      9480      9479      9481      9480      9479      9482
      9481      9479      9482      9483      9487      9485      9483      9488      9489
      9483      9488      9490      9483      9488      9491      9484      9483      9487
      9484      9483      9488      9485      9494      9491      9485      9494      9495
      9485      9494      9496      9485      9498      9499      9485      9498      9500
      9485      9498      9501      9486      9485      9487      9486      9485      9494
      9486      9485      9498      9487      9483      9488      9487      9485      9494
      9487      9485      9498      9488      9490      9502      9488      9491      9492
      9488      9491      9493      9488      9491      9494      9489      9488      9490
      9489      9488      9491      9490      9488      9491      9490      9502      9503
      9490      9502      9506      9490      9502      9507      9491      9493      9530
      9491      9494      9495      9491      9494      9496      9492      9491      9493
      9492      9491      9494      9493      9491      9494      9493      9530      9531
      9493      9530      9534      9493      9530      9535      9494      9485      9498
      9494      9496      9497      9495      9494      9496      9499      9498      9500
      9499      9498      9501      9500      9498      9501      9502      9506      9504
      9502      9507      9508      9502      9507      9509      9502      9507      9517
      9503      9502      9506      9503      9502      9507      9504      9521      9517
      9504      9521      9522      9504      9521      9523      9504      9525      9526
      9504      9525      9527      9504      9525      9528      9505      9504      9506
      9505      9504      9521      9505      9504      9525      9506      9502      9507
      9506      9504      9521      9506      9504      9525      9507      9509      9510
      9507      9509      9511      9507      9517      9518      9507      9517      9519
      9507      9517      9521      9508      9507      9509      9508      9507      9517
      9509      9507      9517      9509      9511      9512      9509      9511      9513
      9510      9509      9511      9511      9513      9514      9511      9513      9515
      9511      9513      9516      9512      9511      9513      9514      9513      9515
      9514      9513      9516      9515      9513      9516      9517      9519      9520
      9517      9521      9522      9517      9521      9523      9518      9517      9519
      9518      9517      9521      9519      9517      9521      9521      9504      9525
      9521      9523      9524      9522      9521      9523      9525      9528      9529
      9526      9525      9527      9526      9525      9528      9527      9525      9528
      9530      9534      9532      9530      9535      9536      9530      9535      9537
      9530      9535      9545      9531      9530      9534      9531      9530      9535
      9532      9548      9545      9532      9548      9549      9532      9548      9550
      9532      9552      9553      9532      9552      9554      9532      9552      9555
      9533      9532      9534      9533      9532      9548      9533      9532      9552
      9534      9530      9535      9534      9532      9548      9534      9532      9552
      9535      9537      9538      9535      9537      9539      9535      9545      9546
      9535      9545      9547      9535      9545      9548      9536      9535      9537
      9536      9535      9545      9537      9535      9545      9537      9539      9540
      9537      9539      9541      9538      9537      9539      9539      9541      9542
      9539      9541      9543      9539      9541      9544      9540      9539      9541
      9542      9541      9543      9542      9541      9544      9543      9541      9544
      9545      9547      9557      9545      9548      9549      9545      9548      9550
      9546      9545      9547      9546      9545      9548      9547      9545      9548
      9547      9557      9558      9547      9557      9561      9547      9557      9562
      9548      9532      9552      9548      9550      9551      9549      9548      9550
      9552      9555      9556      9553      9552      9554      9553      9552      9555
      9554      9552      9555      9557      9561      9559      9557      9562      9563
      9557      9562      9564      9557      9562      9565      9558      9557      9561
      9558      9557      9562      9559      9569      9565      9559      9569      9570
      9559      9569      9571      9559      9573      9574      9559      9573      9575
      9559      9573      9576      9560      9559      9561      9560      9559      9569
      9560      9559      9573      9561      9557      9562      9561      9559      9569
      9561      9559      9573      9562      9564      9578      9562      9565      9566
      9562      9565      9567      9562      9565      9569      9563      9562      9564
      9563      9562      9565      9564      9562      9565      9564      9578      9579
      9564      9578      9582      9564      9578      9583      9565      9567      9568
      9565      9569      9570      9565      9569      9571      9566      9565      9567
      9566      9565      9569      9567      9565      9569      9569      9559      9573
      9569      9571      9572      9570      9569      9571      9573      9576      9577
      9574      9573      9575      9574      9573      9576      9575      9573      9576
      9578      9582      9580      9578      9583      9584      9578      9583      9585
      9578      9583      9586      9579      9578      9582      9579      9578      9583
      9580      9590      9586      9580      9590      9591      9580      9590      9592
      9580      9594      9595      9580      9594      9596      9580      9594      9597
      9581      9580      9582      9581      9580      9590      9581      9580      9594
      9582      9578      9583      9582      9580      9590      9582      9580      9594
      9583      9585      9598      9583      9586      9587      9583      9586      9588
      9583      9586      9590      9584      9583      9585      9584      9583      9586
      9585      9583      9586      9585      9598      9599      9585      9598      9602
      9585      9598      9603      9586      9588      9589      9586      9590      9591
      9586      9590      9592      9587      9586      9588      9587      9586      9590
      9588      9586      9590      9590      9580      9594      9590      9592      9593
      9591      9590      9592      9595      9594      9596      9595      9594      9597
      9596      9594      9597      9598      9602      9600      9598      9603      9604
      9598      9603      9605      9598      9603      9606      9599      9598      9602
      9599      9598      9603      9600      9609      9606      9600      9609      9610
      9600      9609      9611      9600      9613      9614      9600      9613      9615
      9600      9613      9616      9601      9600      9602      9601      9600      9609
      9601      9600      9613      9602      9598      9603      9602      9600      9609
      9602      9600      9613      9603      9605      9617      9603      9606      9607
      9603      9606      9608      9603      9606      9609      9604      9603      9605
      9604      9603      9606      9605      9603      9606      9605      9617      9618
      9605      9617      9621      9605      9617      9622      9606      9608      9645
      9606      9609      9610      9606      9609      9611      9607      9606      9608
      9607      9606      9609      9608      9606      9609      9608      9645      9646
      9608      9645      9649      9608      9645      9650      9609      9600      9613
      9609      9611      9612      9610      9609      9611      9614      9613      9615
      9614      9613      9616      9615      9613      9616      9617      9621      9619
      9617      9622      9623      9617      9622      9624      9617      9622      9632
      9618      9617      9621      9618      9617      9622      9619      9636      9632
      9619      9636      9637      9619      9636      9638      9619      9640      9641
      9619      9640      9642      9619      9640      9643      9620      9619      9621
      9620      9619      9636      9620      9619      9640      9621      9617      9622
      9621      9619      9636      9621      9619      9640      9622      9624      9625
      9622      9624      9626      9622      9632      9633      9622      9632      9634
      9622      9632      9636      9623      9622      9624      9623      9622      9632
      9624      9622      9632      9624      9626      9627      9624      9626      9628
      9625      9624      9626      9626      9628      9629      9626      9628      9630
      9626      9628      9631      9627      9626      9628      9629      9628      9630
      9629      9628      9631      9630      9628      9631      9632      9634      9635
      9632      9636      9637      9632      9636      9638      9633      9632      9634
      9633      9632      9636      9634      9632      9636      9636      9619      9640
      9636      9638      9639      9637      9636      9638      9640      9643      9644
      9641      9640      9642      9641      9640      9643      9642      9640      9643
      9645      9649      9647      9645      9650      9651      9645      9650      9652
      9645      9650      9660      9646      9645      9649      9646      9645      9650
      9647      9663      9660      9647      9663      9664      9647      9663      9665
      9647      9667      9668      9647      9667      9669      9647      9667      9670
      9648      9647      9649      9648      9647      9663      9648      9647      9667
      9649      9645      9650      9649      9647      9663      9649      9647      9667
      9650      9652      9653      9650      9652      9654      9650      9660      9661
      9650      9660      9662      9650      9660      9663      9651      9650      9652
      9651      9650      9660      9652      9650      9660      9652      9654      9655
      9652      9654      9656      9653      9652      9654      9654      9656      9657
      9654      9656      9658      9654      9656      9659      9655      9654      9656
      9657      9656      9658      9657      9656      9659      9658      9656      9659
      9660      9662      9672      9660      9663      9664      9660      9663      9665
      9661      9660      9662      9661      9660      9663      9662      9660      9663
      9662      9672      9673      9662      9672      9676      9662      9672      9677
      9663      9647      9667      9663      9665      9666      9664      9663      9665
      9667      9670      9671      9668      9667      9669      9668      9667      9670
      9669      9667      9670      9672      9676      9674      9672      9677      9678
      9672      9677      9679      9672      9677      9680      9673      9672      9676
      9673      9672      9677      9674      9684      9680      9674      9684      9685
      9674      9684      9686      9674      9688      9689      9674      9688      9690
      9674      9688      9691      9675      9674      9676      9675      9674      9684
      9675      9674      9688      9676      9672      9677      9676      9674      9684
      9676      9674      9688      9677      9679      9693      9677      9680      9681
      9677      9680      9682      9677      9680      9684      9678      9677      9679
      9678      9677      9680      9679      9677      9680      9679      9693      9694
      9679      9693      9697      9679      9693      9698      9680      9682      9683
      9680      9684      9685      9680      9684      9686      9681      9680      9682
      9681      9680      9684      9682      9680      9684      9684      9674      9688
      9684      9686      9687      9685      9684      9686      9688      9691      9692
      9689      9688      9690      9689      9688      9691      9690      9688      9691
      9693      9697      9695      9693      9698      9699      9693      9698      9700
      9693      9698      9701      9694      9693      9697      9694      9693      9698
      9695      9705      9701      9695      9705      9706      9695      9705      9707
      9695      9709      9710      9695      9709      9711      9695      9709      9712
      9696      9695      9697      9696      9695      9705      9696      9695      9709
      9697      9693      9698      9697      9695      9705      9697      9695      9709
      9698      9700      9713      9698      9701      9702      9698      9701      9703
      9698      9701      9705      9699      9698      9700      9699      9698      9701
      9700      9698      9701      9700      9713      9714      9700      9713      9717
      9700      9713      9718      9701      9703      9704      9701      9705      9706
      9701      9705      9707      9702      9701      9703      9702      9701      9705
      9703      9701      9705      9705      9695      9709      9705      9707      9708
      9706      9705      9707      9710      9709      9711      9710      9709      9712
      9711      9709      9712      9713      9717      9715      9713      9718      9719
      9713      9718      9720      9713      9718      9721      9714      9713      9717
      9714      9713      9718      9715      9724      9721      9715      9724      9725
      9715      9724      9726      9715      9728      9729      9715      9728      9730
      9715      9728      9731      9716      9715      9717      9716      9715      9724
      9716      9715      9728      9717      9713      9718      9717      9715      9724
      9717      9715      9728      9718      9720      9732      9718      9721      9722
      9718      9721      9723      9718      9721      9724      9719      9718      9720
      9719      9718      9721      9720      9718      9721      9720      9732      9733
      9720      9732      9736      9720      9732      9737      9721      9723      9760
      9721      9724      9725      9721      9724      9726      9722      9721      9723
      9722      9721      9724      9723      9721      9724      9723      9760      9761
      9723      9760      9764      9723      9760      9765      9724      9715      9728
      9724      9726      9727      9725      9724      9726      9729      9728      9730
      9729      9728      9731      9730      9728      9731      9732      9736      9734
      9732      9737      9738      9732      9737      9739      9732      9737      9747
      9733      9732      9736      9733      9732      9737      9734      9751      9747
      9734      9751      9752      9734      9751      9753      9734      9755      9756
      9734      9755      9757      9734      9755      9758      9735      9734      9736
      9735      9734      9751      9735      9734      9755      9736      9732      9737
      9736      9734      9751      9736      9734      9755      9737      9739      9740
      9737      9739      9741      9737      9747      9748      9737      9747      9749
      9737      9747      9751      9738      9737      9739      9738      9737      9747
      9739      9737      9747      9739      9741      9742      9739      9741      9743
      9740      9739      9741      9741      9743      9744      9741      9743      9745
      9741      9743      9746      9742      9741      9743      9744      9743      9745
      9744      9743      9746      9745      9743      9746      9747      9749      9750
      9747      9751      9752      9747      9751      9753      9748      9747      9749
      9748      9747      9751      9749      9747      9751      9751      9734      9755
      9751      9753      9754      9752      9751      9753      9755      9758      9759
      9756      9755      9757      9756      9755      9758      9757      9755      9758
      9760      9764      9762      9760      9765      9766      9760      9765      9767
      9760      9765      9775      9761      9760      9764      9761      9760      9765
      9762      9778      9775      9762      9778      9779      9762      9778      9780
      9762      9782      9783      9762      9782      9784      9762      9782      9785
      9763      9762      9764      9763      9762      9778      9763      9762      9782
      9764      9760      9765      9764      9762      9778      9764      9762      9782
      9765      9767      9768      9765      9767      9769      9765      9775      9776
      9765      9775      9777      9765      9775      9778      9766      9765      9767
      9766      9765      9775      9767      9765      9775      9767      9769      9770
      9767      9769      9771      9768      9767      9769      9769      9771      9772
      9769      9771      9773      9769      9771      9774      9770      9769      9771
      9772      9771      9773      9772      9771      9774      9773      9771      9774
      9775      9777      9787      9775      9778      9779      9775      9778      9780
      9776      9775      9777      9776      9775      9778      9777      9775      9778
      9777      9787      9788      9777      9787      9791      9777      9787      9792
      9778      9762      9782      9778      9780      9781      9779      9778      9780
      9782      9785      9786      9783      9782      9784      9783      9782      9785
      9784      9782      9785      9787      9791      9789      9787      9792      9793
      9787      9792      9794      9787      9792      9795      9788      9787      9791
      9788      9787      9792      9789      9799      9795      9789      9799      9800
      9789      9799      9801      9789      9803      9804      9789      9803      9805
      9789      9803      9806      9790      9789      9791      9790      9789      9799
      9790      9789      9803      9791      9787      9792      9791      9789      9799
      9791      9789      9803      9792      9794      9808      9792      9795      9796
      9792      9795      9797      9792      9795      9799      9793      9792      9794
      9793      9792      9795      9794      9792      9795      9794      9808      9809
      9794      9808      9812      9794      9808      9813      9795      9797      9798
      9795      9799      9800      9795      9799      9801      9796      9795      9797
      9796      9795      9799      9797      9795      9799      9799      9789      9803
      9799      9801      9802      9800      9799      9801      9803      9806      9807
      9804      9803      9805      9804      9803      9806      9805      9803      9806
      9808      9812      9810      9808      9813      9814      9808      9813      9815
      9808      9813      9816      9809      9808      9812      9809      9808      9813
      9810      9820      9816      9810      9820      9821      9810      9820      9822
      9810      9824      9825      9810      9824      9826      9810      9824      9827
      9811      9810      9812      9811      9810      9820      9811      9810      9824
      9812      9808      9813      9812      9810      9820      9812      9810      9824
      9813      9815      9828      9813      9816      9817      9813      9816      9818
      9813      9816      9820      9814      9813      9815      9814      9813      9816
      9815      9813      9816      9815      9828      9829      9815      9828      9832
      9815      9828      9833      9816      9818      9819      9816      9820      9821
      9816      9820      9822      9817      9816      9818      9817      9816      9820
      9818      9816      9820      9820      9810      9824      9820      9822      9823
      9821      9820      9822      9825      9824      9826      9825      9824      9827
      9826      9824      9827      9828      9832      9830      9828      9833      9834
      9828      9833      9835      9828      9833      9836      9829      9828      9832
      9829      9828      9833      9830      9839      9836      9830      9839      9840
      9830      9839      9841      9830      9843      9844      9830      9843      9845
      9830      9843      9846      9831      9830      9832      9831      9830      9839
      9831      9830      9843      9832      9828      9833      9832      9830      9839
      9832      9830      9843      9833      9835      9847      9833      9836      9837
      9833      9836      9838      9833      9836      9839      9834      9833      9835
      9834      9833      9836      9835      9833      9836      9835      9847      9848
      9835      9847      9851      9835      9847      9852      9836      9838      9875
      9836      9839      9840      9836      9839      9841      9837      9836      9838
      9837      9836      9839      9838      9836      9839      9838      9875      9876
      9838      9875      9879      9838      9875      9880      9839      9830      9843
      9839      9841      9842      9840      9839      9841      9844      9843      9845
      9844      9843      9846      9845      9843      9846      9847      9851      9849
      9847      9852      9853      9847      9852      9854      9847      9852      9862
      9848      9847      9851      9848      9847      9852      9849      9866      9862
      9849      9866      9867      9849      9866      9868      9849      9870      9871
      9849      9870      9872      9849      9870      9873      9850      9849      9851
      9850      9849      9866      9850      9849      9870      9851      9847      9852
      9851      9849      9866      9851      9849      9870      9852      9854      9855
      9852      9854      9856      9852      9862      9863      9852      9862      9864
      9852      9862      9866      9853      9852      9854      9853      9852      9862
      9854      9852      9862      9854      9856      9857      9854      9856      9858
      9855      9854      9856      9856      9858      9859      9856      9858      9860
      9856      9858      9861      9857      9856      9858      9859      9858      9860
      9859      9858      9861      9860      9858      9861      9862      9864      9865
      9862      9866      9867      9862      9866      9868      9863      9862      9864
      9863      9862      9866      9864      9862      9866      9866      9849      9870
      9866      9868      9869      9867      9866      9868      9870      9873      9874
      9871      9870      9872      9871      9870      9873      9872      9870      9873
      9875      9879      9877      9875      9880      9881      9875      9880      9882
      9875      9880      9890      9876      9875      9879      9876      9875      9880
      9877      9893      9890      9877      9893      9894      9877      9893      9895
      9877      9897      9898      9877      9897      9899      9877      9897      9900
      9878      9877      9879      9878      9877      9893      9878      9877      9897
      9879      9875      9880      9879      9877      9893      9879      9877      9897
      9880      9882      9883      9880      9882      9884      9880      9890      9891
      9880      9890      9892      9880      9890      9893      9881      9880      9882
      9881      9880      9890      9882      9880      9890      9882      9884      9885
      9882      9884      9886      9883      9882      9884      9884      9886      9887
      9884      9886      9888      9884      9886      9889      9885      9884      9886
      9887      9886      9888      9887      9886      9889      9888      9886      9889
      9890      9892      9902      9890      9893      9894      9890      9893      9895
      9891      9890      9892      9891      9890      9893      9892      9890      9893
      9892      9902      9903      9892      9902      9906      9892      9902      9907
      9893      9877      9897      9893      9895      9896      9894      9893      9895
      9897      9900      9901      9898      9897      9899      9898      9897      9900
      9899      9897      9900      9902      9906      9904      9902      9907      9908
      9902      9907      9909      9902      9907      9910      9903      9902      9906
      9903      9902      9907      9904      9914      9910      9904      9914      9915
      9904      9914      9916      9904      9918      9919      9904      9918      9920
      9904      9918      9921      9905      9904      9906      9905      9904      9914
      9905      9904      9918      9906      9902      9907      9906      9904      9914
      9906      9904      9918      9907      9909      9923      9907      9910      9911
      9907      9910      9912      9907      9910      9914      9908      9907      9909
      9908      9907      9910      9909      9907      9910      9909      9923      9924
      9909      9923      9927      9909      9923      9928      9910      9912      9913
      9910      9914      9915      9910      9914      9916      9911      9910      9912
      9911      9910      9914      9912      9910      9914      9914      9904      9918
      9914      9916      9917      9915      9914      9916      9918      9921      9922
      9919      9918      9920      9919      9918      9921      9920      9918      9921
      9923      9927      9925      9923      9928      9929      9923      9928      9930
      9923      9928      9931      9924      9923      9927      9924      9923      9928
      9925      9935      9931      9925      9935      9936      9925      9935      9937
      9925      9939      9940      9925      9939      9941      9925      9939      9942
      9926      9925      9927      9926      9925      9935      9926      9925      9939
      9927      9923      9928      9927      9925      9935      9927      9925      9939
      9928      9930      9943      9928      9931      9932      9928      9931      9933
      9928      9931      9935      9929      9928      9930      9929      9928      9931
      9930      9928      9931      9930      9943      9944      9930      9943      9947
      9930      9943      9948      9931      9933      9934      9931      9935      9936
      9931      9935      9937      9932      9931      9933      9932      9931      9935
      9933      9931      9935      9935      9925      9939      9935      9937      9938
      9936      9935      9937      9940      9939      9941      9940      9939      9942
      9941      9939      9942      9943      9947      9945      9943      9948      9949
      9943      9948      9950      9943      9948      9951      9944      9943      9947
      9944      9943      9948      9945      9955      9951      9945      9955      9956
      9945      9955      9957      9945      9959      9960      9945      9959      9961
      9945      9959      9962      9946      9945      9947      9946      9945      9955
      9946      9945      9959      9947      9943      9948      9947      9945      9955
      9947      9945      9959      9948      9950      9963      9948      9951      9952
      9948      9951      9953      9948      9951      9955      9949      9948      9950
      9949      9948      9951      9950      9948      9951      9950      9963      9964
      9950      9963      9967      9950      9963      9968      9951      9953      9954
      9951      9955      9956      9951      9955      9957      9952      9951      9953
      9952      9951      9955      9953      9951      9955      9955      9945      9959
      9955      9957      9958      9956      9955      9957      9960      9959      9961
      9960      9959      9962      9961      9959      9962      9963      9967      9965
      9963      9968      9969      9963      9968      9970      9963      9968      9978
      9964      9963      9967      9964      9963      9968      9965      9982      9978
      9965      9982      9983      9965      9982      9984      9965      9986      9987
      9965      9986      9988      9965      9986      9989      9966      9965      9967
      9966      9965      9982      9966      9965      9986      9967      9963      9968
      9967      9965      9982      9967      9965      9986      9968      9970      9971
      9968      9970      9972      9968      9978      9979      9968      9978      9980
      9968      9978      9982      9969      9968      9970      9969      9968      9978
      9970      9968      9978      9970      9972      9973      9970      9972      9974
      9971      9970      9972      9972      9974      9975      9972      9974      9976
      9972      9974      9977      9973      9972      9974      9975      9974      9976
      9975      9974      9977      9976      9974      9977      9978      9980      9981
      9978      9982      9983      9978      9982      9984      9979      9978      9980
      9979      9978      9982      9980      9978      9982      9982      9965      9986
      9982      9984      9985      9983      9982      9984      9986      9989      9990
      9987      9986      9988      9987      9986      9989      9988      9986      9989
      9991      9993      9992      9991      9993      9994      9991      9993      9995
      9992      9993      9994      9992      9993      9995      9992     10290     10287
      9992     10290     10293      9992     10290     10294      9993      9992     10290
      9993      9995      9996      9993      9995      9997      9993      9995     10004
      9994      9993      9995      9995      9996      9998      9995     10004     10005
      9995     10004     10006      9995     10004     10011      9996      9995      9997
      9996      9995     10004      9996      9998      9999      9996      9998     10000
      9996      9998     10019      9997      9995     10004      9998     10000     10001
      9998     10019     10011      9998     10019     10020      9998     10019     10021
      9999      9998     10000      9999      9998     10019     10000      9998     10019
     10000     10001     10002     10000     10001     10003     10000     10001     10027
     10001     10027     10023     10001     10027     10028     10001     10027     10029
     10002     10001     10003     10002     10001     10027     10003     10001     10027
     10004     10006     10007     10004     10011     10012     10004     10011     10013
     10004     10011     10019     10005     10004     10006     10005     10004     10011
     10006     10004     10011     10006     10007     10008     10006     10007     10009
     10006     10007     10010     10008     10007     10009     10008     10007     10010
     10009     10007     10010     10011     10012     10014     10011     10019     10020
     10011     10019     10021     10012     10011     10013     10012     10011     10019
     10012     10014     10015     10012     10014     10016     10013     10011     10019
     10014     10016     10017     10014     10016     10018     10014     10016     10049
     10015     10014     10016     10016     10049     10050     10016     10049     10051
     10016     10049     10094     10017     10016     10018     10017     10016     10049
     10018     10016     10049     10019     10021     10022     10019     10021     10128
     10020     10019     10021     10021     10128     10129     10021     10128     10130
     10022     10021     10128     10023     10025     10026     10023     10027     10028
     10023     10027     10029     10023     10037     10038     10023     10037     10039
     10023     10037     10045     10024     10023     10025     10024     10023     10027
     10024     10023     10037     10025     10023     10027     10025     10023     10037
     10027     10023     10037     10027     10029     10030     10028     10027     10029
     10029     10030     10031     10029     10030     10032     10029     10030     10045
     10030     10032     10036     10030     10045     10037     10030     10045     10046
     10030     10045     10047     10031     10030     10032     10031     10030     10045
     10032     10030     10045     10032     10036     10033     10032     10036     10034
     10032     10036     10035     10033     10036     10034     10033     10036     10035
     10034     10036     10035     10037     10039     10040     10037     10045     10046
     10037     10045     10047     10038     10037     10039     10038     10037     10045
     10039     10037     10045     10039     10040     10041     10039     10040     10042
     10040     10042     10043     10040     10042     10044     10040     10042     10206
     10041     10040     10042     10042     10206     10207     10042     10206     10208
     10042     10206     10210     10043     10042     10044     10043     10042     10206
     10044     10042     10206     10045     10047     10048     10045     10047     10244
     10046     10045     10047     10047     10244     10245     10047     10244     10246
     10048     10047     10244     10049     10051     10052     10049     10094     10095
     10049     10094     10096     10049     10094     10097     10050     10049     10051
     10050     10049     10094     10051     10049     10094     10051     10052     10053
     10051     10052     10054     10052     10054     10055     10052     10054     10056
     10052     10054     10057     10053     10052     10054     10054     10057     10058
     10054     10057     10059     10054     10057     10060     10055     10054     10056
     10055     10054     10057     10056     10054     10057     10057     10060     10061
     10057     10060     10062     10057     10060     10063     10058     10057     10059
     10058     10057     10060     10059     10057     10060     10060     10063     10064
     10060     10063     10065     10060     10063     10066     10061     10060     10062
     10061     10060     10063     10062     10060     10063     10063     10066     10067
     10063     10066     10068     10063     10066     10069     10064     10063     10065
     10064     10063     10066     10065     10063     10066     10066     10069     10070
     10066     10069     10071     10066     10069     10072     10067     10066     10068
     10067     10066     10069     10068     10066     10069     10069     10072     10073
     10069     10072     10074     10069     10072     10075     10070     10069     10071
     10070     10069     10072     10071     10069     10072     10072     10075     10076
     10072     10075     10077     10072     10075     10078     10073     10072     10074
     10073     10072     10075     10074     10072     10075     10075     10078     10079
     10075     10078     10080     10075     10078     10081     10076     10075     10077
     10076     10075     10078     10077     10075     10078     10078     10081     10082
     10078     10081     10083     10078     10081     10084     10079     10078     10080
     10079     10078     10081     10080     10078     10081     10081     10084     10085
     10081     10084     10086     10081     10084     10087     10082     10081     10083
     10082     10081     10084     10083     10081     10084     10084     10087     10088
     10084     10087     10089     10084     10087     10090     10085     10084     10086
     10085     10084     10087     10086     10084     10087     10087     10090     10091
     10087     10090     10092     10087     10090     10093     10088     10087     10089
     10088     10087     10090     10089     10087     10090     10091     10090     10092
     10091     10090     10093     10092     10090     10093     10094     10097     10098
     10094     10097     10099     10094     10097     10100     10095     10094     10096
     10095     10094     10097     10096     10094     10097     10097     10100     10101
     10097     10100     10102     10097     10100     10103     10098     10097     10099
     10098     10097     10100     10099     10097     10100     10100     10103     10104
     10100     10103     10105     10100     10103     10106     10101     10100     10102
     10101     10100     10103     10102     10100     10103     10103     10106     10107
     10103     10106     10108     10103     10106     10109     10104     10103     10105
     10104     10103     10106     10105     10103     10106     10106     10109     10110
     10106     10109     10111     10106     10109     10112     10107     10106     10108
     10107     10106     10109     10108     10106     10109     10109     10112     10113
     10109     10112     10114     10109     10112     10115     10110     10109     10111
     10110     10109     10112     10111     10109     10112     10112     10115     10116
     10112     10115     10117     10112     10115     10118     10113     10112     10114
     10113     10112     10115     10114     10112     10115     10115     10118     10119
     10115     10118     10120     10115     10118     10121     10116     10115     10117
     10116     10115     10118     10117     10115     10118     10118     10121     10122
     10118     10121     10123     10118     10121     10124     10119     10118     10120
     10119     10118     10121     10120     10118     10121     10121     10124     10125
     10121     10124     10126     10121     10124     10127     10122     10121     10123
     10122     10121     10124     10123     10121     10124     10125     10124     10126
     10125     10124     10127     10126     10124     10127     10128     10130     10131
     10128     10130     10132     10128     10130     10133     10129     10128     10130
     10130     10133     10134     10130     10133     10135     10130     10133     10172
     10131     10130     10132     10131     10130     10133     10132     10130     10133
     10133     10135     10136     10133     10172     10173     10133     10172     10174
     10133     10172     10175     10134     10133     10135     10134     10133     10172
     10135     10133     10172     10135     10136     10137     10135     10136     10138
     10136     10138     10139     10136     10138     10140     10136     10138     10141
     10137     10136     10138     10138     10141     10142     10138     10141     10143
     10138     10141     10144     10139     10138     10140     10139     10138     10141
     10140     10138     10141     10141     10144     10145     10141     10144     10146
     10141     10144     10147     10142     10141     10143     10142     10141     10144
     10143     10141     10144     10144     10147     10148     10144     10147     10149
     10144     10147     10150     10145     10144     10146     10145     10144     10147
     10146     10144     10147     10147     10150     10151     10147     10150     10152
     10147     10150     10153     10148     10147     10149     10148     10147     10150
     10149     10147     10150     10150     10153     10154     10150     10153     10155
     10150     10153     10156     10151     10150     10152     10151     10150     10153
     10152     10150     10153     10153     10156     10157     10153     10156     10158
     10153     10156     10159     10154     10153     10155     10154     10153     10156
     10155     10153     10156     10156     10159     10160     10156     10159     10161
     10156     10159     10162     10157     10156     10158     10157     10156     10159
     10158     10156     10159     10159     10162     10163     10159     10162     10164
     10159     10162     10165     10160     10159     10161     10160     10159     10162
     10161     10159     10162     10162     10165     10166     10162     10165     10167
     10162     10165     10168     10163     10162     10164     10163     10162     10165
     10164     10162     10165     10165     10168     10169     10165     10168     10170
     10165     10168     10171     10166     10165     10167     10166     10165     10168
     10167     10165     10168     10169     10168     10170     10169     10168     10171
     10170     10168     10171     10172     10175     10176     10172     10175     10177
     10172     10175     10178     10173     10172     10174     10173     10172     10175
     10174     10172     10175     10175     10178     10179     10175     10178     10180
     10175     10178     10181     10176     10175     10177     10176     10175     10178
     10177     10175     10178     10178     10181     10182     10178     10181     10183
     10178     10181     10184     10179     10178     10180     10179     10178     10181
     10180     10178     10181     10181     10184     10185     10181     10184     10186
     10181     10184     10187     10182     10181     10183     10182     10181     10184
     10183     10181     10184     10184     10187     10188     10184     10187     10189
     10184     10187     10190     10185     10184     10186     10185     10184     10187
     10186     10184     10187     10187     10190     10191     10187     10190     10192
     10187     10190     10193     10188     10187     10189     10188     10187     10190
     10189     10187     10190     10190     10193     10194     10190     10193     10195
     10190     10193     10196     10191     10190     10192     10191     10190     10193
     10192     10190     10193     10193     10196     10197     10193     10196     10198
     10193     10196     10199     10194     10193     10195     10194     10193     10196
     10195     10193     10196     10196     10199     10200     10196     10199     10201
     10196     10199     10202     10197     10196     10198     10197     10196     10199
     10198     10196     10199     10199     10202     10203     10199     10202     10204
     10199     10202     10205     10200     10199     10201     10200     10199     10202
     10201     10199     10202     10203     10202     10204     10203     10202     10205
     10204     10202     10205     10206     10208     10209     10206     10210     10211
     10206     10210     10212     10206     10210     10213     10207     10206     10208
     10207     10206     10210     10208     10206     10210     10210     10213     10214
     10210     10213     10215     10210     10213     10216     10211     10210     10212
     10211     10210     10213     10212     10210     10213     10213     10216     10217
     10213     10216     10218     10213     10216     10219     10214     10213     10215
     10214     10213     10216     10215     10213     10216     10216     10219     10220
     10216     10219     10221     10216     10219     10222     10217     10216     10218
     10217     10216     10219     10218     10216     10219     10219     10222     10223
     10219     10222     10224     10219     10222     10225     10220     10219     10221
     10220     10219     10222     10221     10219     10222     10222     10225     10226
     10222     10225     10227     10222     10225     10228     10223     10222     10224
     10223     10222     10225     10224     10222     10225     10225     10228     10229
     10225     10228     10230     10225     10228     10231     10226     10225     10227
     10226     10225     10228     10227     10225     10228     10228     10231     10232
     10228     10231     10233     10228     10231     10234     10229     10228     10230
     10229     10228     10231     10230     10228     10231     10231     10234     10235
     10231     10234     10236     10231     10234     10237     10232     10231     10233
     10232     10231     10234     10233     10231     10234     10234     10237     10238
     10234     10237     10239     10234     10237     10240     10235     10234     10236
     10235     10234     10237     10236     10234     10237     10237     10240     10241
     10237     10240     10242     10237     10240     10243     10238     10237     10239
     10238     10237     10240     10239     10237     10240     10241     10240     10242
     10241     10240     10243     10242     10240     10243     10244     10246     10247
     10244     10246     10248     10244     10246     10249     10245     10244     10246
     10246     10249     10250     10246     10249     10251     10246     10249     10253
     10247     10246     10248     10247     10246     10249     10248     10246     10249
     10249     10251     10252     10249     10253     10254     10249     10253     10255
     10249     10253     10256     10250     10249     10251     10250     10249     10253
     10251     10249     10253     10253     10256     10257     10253     10256     10258
     10253     10256     10259     10254     10253     10255     10254     10253     10256
     10255     10253     10256     10256     10259     10260     10256     10259     10261
     10256     10259     10262     10257     10256     10258     10257     10256     10259
     10258     10256     10259     10259     10262     10263     10259     10262     10264
     10259     10262     10265     10260     10259     10261     10260     10259     10262
     10261     10259     10262     10262     10265     10266     10262     10265     10267
     10262     10265     10268     10263     10262     10264     10263     10262     10265
     10264     10262     10265     10265     10268     10269     10265     10268     10270
     10265     10268     10271     10266     10265     10267     10266     10265     10268
     10267     10265     10268     10268     10271     10272     10268     10271     10273
     10268     10271     10274     10269     10268     10270     10269     10268     10271
     10270     10268     10271     10271     10274     10275     10271     10274     10276
     10271     10274     10277     10272     10271     10273     10272     10271     10274
     10273     10271     10274     10274     10277     10278     10274     10277     10279
     10274     10277     10280     10275     10274     10276     10275     10274     10277
     10276     10274     10277     10277     10280     10281     10277     10280     10282
     10277     10280     10283     10278     10277     10279     10278     10277     10280
     10279     10277     10280     10280     10283     10284     10280     10283     10285
     10280     10283     10286     10281     10280     10282     10281     10280     10283
     10282     10280     10283     10284     10283     10285     10284     10283     10286
     10285     10283     10286     10287     10290     10293     10287     10290     10294
     10288     10287     10289     10288     10287     10290     10289     10287     10290
     10290     10293     10291     10290     10294     10295     10290     10294     10296
     10290     10294     10297     10291     10300     10297     10291     10300     10301
     10291     10300     10302     10291     10303     10304     10291     10303     10305
     10291     10303     10307     10292     10291     10293     10292     10291     10300
     10292     10291     10303     10293     10290     10294     10293     10291     10300
     10293     10291     10303     10294     10297     10298     10294     10297     10299
     10294     10297     10300     10295     10294     10296     10295     10294     10297
     10296     10294     10297     10297     10299     10315     10297     10300     10301
     10297     10300     10302     10298     10297     10299     10298     10297     10300
     10299     10297     10300     10299     10315     10312     10299     10315     10318
     10299     10315     10319     10300     10291     10303     10300     10302     10339
     10301     10300     10302     10302     10339     10340     10302     10339     10343
     10302     10339     10344     10303     10305     10306     10303     10307     10308
     10303     10307     10309     10303     10307     10310     10304     10303     10305
     10304     10303     10307     10305     10303     10307     10307     10310     10311
     10308     10307     10309     10308     10307     10310     10309     10307     10310
     10312     10315     10318     10312     10315     10319     10313     10312     10314
     10313     10312     10315     10314     10312     10315     10315     10318     10316
     10315     10319     10320     10315     10319     10321     10315     10319     10322
     10316     10326     10322     10316     10326     10327     10316     10326     10328
     10316     10330     10331     10316     10330     10332     10316     10330     10334
     10317     10316     10318     10317     10316     10326     10317     10316     10330
     10318     10315     10319     10318     10316     10326     10318     10316     10330
     10319     10322     10323     10319     10322     10324     10319     10322     10326
     10320     10319     10321     10320     10319     10322     10321     10319     10322
     10322     10324     10325     10322     10326     10327     10322     10326     10328
     10323     10322     10324     10323     10322     10326     10324     10322     10326
     10326     10316     10330     10326     10328     10329     10327     10326     10328
     10330     10332     10333     10330     10334     10335     10330     10334     10336
     10330     10334     10337     10331     10330     10332     10331     10330     10334
     10332     10330     10334     10334     10337     10338     10335     10334     10336
     10335     10334     10337     10336     10334     10337     10339     10343     10341
     10339     10344     10345     10339     10344     10346     10339     10344     10348
     10340     10339     10343     10340     10339     10344     10341     10351     10348
     10341     10351     10352     10341     10351     10353     10341     10358     10359
     10341     10358     10360     10341     10358     10362     10342     10341     10343
     10342     10341     10351     10342     10341     10358     10343     10339     10344
     10343     10341     10351     10343     10341     10358     10344     10346     10347
     10344     10348     10349     10344     10348     10350     10344     10348     10351
     10345     10344     10346     10345     10344     10348     10346     10344     10348
     10348     10350     10367     10348     10351     10352     10348     10351     10353
     10349     10348     10350     10349     10348     10351     10350     10348     10351
     10350     10367     10368     10350     10367     10371     10350     10367     10372
     10351     10341     10358     10351     10353     10354     10352     10351     10353
     10353     10354     10355     10353     10354     10356     10353     10354     10357
     10355     10354     10356     10355     10354     10357     10356     10354     10357
     10358     10360     10361     10358     10362     10363     10358     10362     10364
     10358     10362     10365     10359     10358     10360     10359     10358     10362
     10360     10358     10362     10362     10365     10366     10363     10362     10364
     10363     10362     10365     10364     10362     10365     10367     10371     10369
     10367     10372     10373     10367     10372     10374     10367     10372     10376
     10368     10367     10371     10368     10367     10372     10369     10379     10376
     10369     10379     10380     10369     10379     10381     10369     10386     10387
     10369     10386     10388     10369     10386     10390     10370     10369     10371
     10370     10369     10379     10370     10369     10386     10371     10367     10372
     10371     10369     10379     10371     10369     10386     10372     10374     10375
     10372     10376     10377     10372     10376     10378     10372     10376     10379
     10373     10372     10374     10373     10372     10376     10374     10372     10376
     10376     10378     10420     10376     10379     10380     10376     10379     10381
     10377     10376     10378     10377     10376     10379     10378     10376     10379
     10378     10420     10421     10378     10420     10424     10378     10420     10425
     10379     10369     10386     10379     10381     10382     10380     10379     10381
     10381     10382     10383     10381     10382     10384     10381     10382     10385
     10383     10382     10384     10383     10382     10385     10384     10382     10385
     10386     10388     10389     10386     10390     10391     10386     10390     10392
     10386     10390     10393     10387     10386     10388     10387     10386     10390
     10388     10386     10390     10390     10393     10394     10391     10390     10392
     10391     10390     10393     10392     10390     10393     10393     10394     10395
     10393     10394     10398     10393     10394     10399     10394     10398     10396
     10394     10399     10400     10394     10399     10401     10394     10399     10403
     10395     10394     10398     10395     10394     10399     10396     10407     10403
     10396     10407     10408     10396     10407     10409     10396     10411     10412
     10396     10411     10413     10396     10411     10415     10397     10396     10398
     10397     10396     10407     10397     10396     10411     10398     10394     10399
     10398     10396     10407     10398     10396     10411     10399     10401     10402
     10399     10403     10404     10399     10403     10405     10399     10403     10407
     10400     10399     10401     10400     10399     10403     10401     10399     10403
     10403     10405     10406     10403     10407     10408     10403     10407     10409
     10404     10403     10405     10404     10403     10407     10405     10403     10407
     10407     10396     10411     10407     10409     10410     10408     10407     10409
     10411     10413     10414     10411     10415     10416     10411     10415     10417
     10411     10415     10418     10412     10411     10413     10412     10411     10415
     10413     10411     10415     10415     10418     10419     10416     10415     10417
     10416     10415     10418     10417     10415     10418     10420     10424     10422
     10420     10425     10426     10420     10425     10427     10420     10425     10429
     10421     10420     10424     10421     10420     10425     10422     10432     10429
     10422     10432     10433     10422     10432     10434     10422     10436     10437
     10422     10436     10438     10422     10436     10439     10423     10422     10424
     10423     10422     10432     10423     10422     10436     10424     10420     10425
     10424     10422     10432     10424     10422     10436     10425     10427     10428
     10425     10429     10430     10425     10429     10431     10425     10429     10432
     10426     10425     10427     10426     10425     10429     10427     10425     10429
     10429     10431     10441     10429     10432     10433     10429     10432     10434
     10430     10429     10431     10430     10429     10432     10431     10429     10432
     10431     10441     10442     10431     10441     10445     10431     10441     10446
     10432     10422     10436     10432     10434     10435     10433     10432     10434
     10436     10439     10440     10437     10436     10438     10437     10436     10439
     10438     10436     10439     10441     10445     10443     10441     10446     10447
     10441     10446     10448     10441     10446     10449     10442     10441     10445
     10442     10441     10446     10443     10452     10449     10443     10452     10453
     10443     10452     10454     10443     10456     10457     10443     10456     10458
     10443     10456     10459     10444     10443     10445     10444     10443     10452
     10444     10443     10456     10445     10441     10446     10445     10443     10452
     10445     10443     10456     10446     10448     10461     10446     10449     10450
     10446     10449     10451     10446     10449     10452     10447     10446     10448
     10447     10446     10449     10448     10446     10449     10448     10461     10462
     10448     10461     10465     10448     10461     10466     10449     10451     10504
     10449     10452     10453     10449     10452     10454     10450     10449     10451
     10450     10449     10452     10451     10449     10452     10451     10504     10505
     10451     10504     10508     10451     10504     10509     10452     10443     10456
     10452     10454     10455     10453     10452     10454     10456     10459     10460
     10457     10456     10458     10457     10456     10459     10458     10456     10459
     10461     10465     10463     10461     10466     10467     10461     10466     10468
     10461     10466     10469     10462     10461     10465     10462     10461     10466
     10463     10473     10469     10463     10473     10474     10463     10473     10475
     10463     10477     10478     10463     10477     10479     10463     10477     10480
     10464     10463     10465     10464     10463     10473     10464     10463     10477
     10465     10461     10466     10465     10463     10473     10465     10463     10477
     10466     10468     10482     10466     10469     10470     10466     10469     10471
     10466     10469     10473     10467     10466     10468     10467     10466     10469
     10468     10466     10469     10468     10482     10483     10468     10482     10486
     10468     10482     10487     10469     10471     10472     10469     10473     10474
     10469     10473     10475     10470     10469     10471     10470     10469     10473
     10471     10469     10473     10473     10463     10477     10473     10475     10476
     10474     10473     10475     10477     10480     10481     10478     10477     10479
     10478     10477     10480     10479     10477     10480     10482     10486     10484
     10482     10487     10488     10482     10487     10489     10482     10487     10491
     10483     10482     10486     10483     10482     10487     10484     10495     10491
     10484     10495     10496     10484     10495     10497     10484     10499     10500
     10484     10499     10501     10484     10499     10502     10485     10484     10486
     10485     10484     10495     10485     10484     10499     10486     10482     10487
     10486     10484     10495     10486     10484     10499     10487     10489     10490
     10487     10491     10492     10487     10491     10493     10487     10491     10495
     10488     10487     10489     10488     10487     10491     10489     10487     10491
     10491     10493     10494     10491     10495     10496     10491     10495     10497
     10492     10491     10493     10492     10491     10495     10493     10491     10495
     10495     10484     10499     10495     10497     10498     10496     10495     10497
     10499     10502     10503     10500     10499     10501     10500     10499     10502
     10501     10499     10502     10504     10508     10506     10504     10509     10510
     10504     10509     10511     10504     10509     10513     10505     10504     10508
     10505     10504     10509     10506     10516     10513     10506     10516     10517
     10506     10516     10518     10506     10520     10521     10506     10520     10522
     10506     10520     10523     10507     10506     10508     10507     10506     10516
     10507     10506     10520     10508     10504     10509     10508     10506     10516
     10508     10506     10520     10509     10511     10512     10509     10513     10514
     10509     10513     10515     10509     10513     10516     10510     10509     10511
     10510     10509     10513     10511     10509     10513     10513     10515     10525
     10513     10516     10517     10513     10516     10518     10514     10513     10515
     10514     10513     10516     10515     10513     10516     10515     10525     10526
     10515     10525     10529     10515     10525     10530     10516     10506     10520
     10516     10518     10519     10517     10516     10518     10520     10523     10524
     10521     10520     10522     10521     10520     10523     10522     10520     10523
     10525     10529     10527     10525     10530     10531     10525     10530     10532
     10525     10530     10540     10526     10525     10529     10526     10525     10530
     10527     10543     10540     10527     10543     10544     10527     10543     10545
     10527     10547     10548     10527     10547     10549     10527     10547     10550
     10528     10527     10529     10528     10527     10543     10528     10527     10547
     10529     10525     10530     10529     10527     10543     10529     10527     10547
     10530     10532     10533     10530     10532     10534     10530     10540     10541
     10530     10540     10542     10530     10540     10543     10531     10530     10532
     10531     10530     10540     10532     10530     10540     10532     10534     10535
     10532     10534     10536     10533     10532     10534     10534     10536     10537
     10534     10536     10538     10534     10536     10539     10535     10534     10536
     10537     10536     10538     10537     10536     10539     10538     10536     10539
     10540     10542     10552     10540     10543     10544     10540     10543     10545
     10541     10540     10542     10541     10540     10543     10542     10540     10543
     10542     10552     10553     10542     10552     10556     10542     10552     10557
     10543     10527     10547     10543     10545     10546     10544     10543     10545
     10547     10550     10551     10548     10547     10549     10548     10547     10550
     10549     10547     10550     10552     10556     10554     10552     10557     10558
     10552     10557     10559     10552     10557     10560     10553     10552     10556
     10553     10552     10557     10554     10564     10560     10554     10564     10565
     10554     10564     10566     10554     10568     10569     10554     10568     10570
     10554     10568     10571     10555     10554     10556     10555     10554     10564
     10555     10554     10568     10556     10552     10557     10556     10554     10564
     10556     10554     10568     10557     10559     10573     10557     10560     10561
     10557     10560     10562     10557     10560     10564     10558     10557     10559
     10558     10557     10560     10559     10557     10560     10559     10573     10574
     10559     10573     10577     10559     10573     10578     10560     10562     10563
     10560     10564     10565     10560     10564     10566     10561     10560     10562
     10561     10560     10564     10562     10560     10564     10564     10554     10568
     10564     10566     10567     10565     10564     10566     10568     10571     10572
     10569     10568     10570     10569     10568     10571     10570     10568     10571
     10573     10577     10575     10573     10578     10579     10573     10578     10580
     10573     10578     10581     10574     10573     10577     10574     10573     10578
     10575     10585     10581     10575     10585     10586     10575     10585     10587
     10575     10589     10590     10575     10589     10591     10575     10589     10592
     10576     10575     10577     10576     10575     10585     10576     10575     10589
     10577     10573     10578     10577     10575     10585     10577     10575     10589
     10578     10580     10593     10578     10581     10582     10578     10581     10583
     10578     10581     10585     10579     10578     10580     10579     10578     10581
     10580     10578     10581     10580     10593     10594     10580     10593     10597
     10580     10593     10598     10581     10583     10584     10581     10585     10586
     10581     10585     10587     10582     10581     10583     10582     10581     10585
     10583     10581     10585     10585     10575     10589     10585     10587     10588
     10586     10585     10587     10590     10589     10591     10590     10589     10592
     10591     10589     10592     10593     10597     10595     10593     10598     10599
     10593     10598     10600     10593     10598     10601     10594     10593     10597
     10594     10593     10598     10595     10604     10601     10595     10604     10605
     10595     10604     10606     10595     10608     10609     10595     10608     10610
     10595     10608     10611     10596     10595     10597     10596     10595     10604
     10596     10595     10608     10597     10593     10598     10597     10595     10604
     10597     10595     10608     10598     10600     10612     10598     10601     10602
     10598     10601     10603     10598     10601     10604     10599     10598     10600
     10599     10598     10601     10600     10598     10601     10600     10612     10613
     10600     10612     10616     10600     10612     10617     10601     10603     10640
     10601     10604     10605     10601     10604     10606     10602     10601     10603
     10602     10601     10604     10603     10601     10604     10603     10640     10641
     10603     10640     10644     10603     10640     10645     10604     10595     10608
     10604     10606     10607     10605     10604     10606     10609     10608     10610
     10609     10608     10611     10610     10608     10611     10612     10616     10614
     10612     10617     10618     10612     10617     10619     10612     10617     10627
     10613     10612     10616     10613     10612     10617     10614     10631     10627
     10614     10631     10632     10614     10631     10633     10614     10635     10636
     10614     10635     10637     10614     10635     10638     10615     10614     10616
     10615     10614     10631     10615     10614     10635     10616     10612     10617
     10616     10614     10631     10616     10614     10635     10617     10619     10620
     10617     10619     10621     10617     10627     10628     10617     10627     10629
     10617     10627     10631     10618     10617     10619     10618     10617     10627
     10619     10617     10627     10619     10621     10622     10619     10621     10623
     10620     10619     10621     10621     10623     10624     10621     10623     10625
     10621     10623     10626     10622     10621     10623     10624     10623     10625
     10624     10623     10626     10625     10623     10626     10627     10629     10630
     10627     10631     10632     10627     10631     10633     10628     10627     10629
     10628     10627     10631     10629     10627     10631     10631     10614     10635
     10631     10633     10634     10632     10631     10633     10635     10638     10639
     10636     10635     10637     10636     10635     10638     10637     10635     10638
     10640     10644     10642     10640     10645     10646     10640     10645     10647
     10640     10645     10655     10641     10640     10644     10641     10640     10645
     10642     10658     10655     10642     10658     10659     10642     10658     10660
     10642     10662     10663     10642     10662     10664     10642     10662     10665
     10643     10642     10644     10643     10642     10658     10643     10642     10662
     10644     10640     10645     10644     10642     10658     10644     10642     10662
     10645     10647     10648     10645     10647     10649     10645     10655     10656
     10645     10655     10657     10645     10655     10658     10646     10645     10647
     10646     10645     10655     10647     10645     10655     10647     10649     10650
     10647     10649     10651     10648     10647     10649     10649     10651     10652
     10649     10651     10653     10649     10651     10654     10650     10649     10651
     10652     10651     10653     10652     10651     10654     10653     10651     10654
     10655     10657     10667     10655     10658     10659     10655     10658     10660
     10656     10655     10657     10656     10655     10658     10657     10655     10658
     10657     10667     10668     10657     10667     10671     10657     10667     10672
     10658     10642     10662     10658     10660     10661     10659     10658     10660
     10662     10665     10666     10663     10662     10664     10663     10662     10665
     10664     10662     10665     10667     10671     10669     10667     10672     10673
     10667     10672     10674     10667     10672     10675     10668     10667     10671
     10668     10667     10672     10669     10679     10675     10669     10679     10680
     10669     10679     10681     10669     10683     10684     10669     10683     10685
     10669     10683     10686     10670     10669     10671     10670     10669     10679
     10670     10669     10683     10671     10667     10672     10671     10669     10679
     10671     10669     10683     10672     10674     10688     10672     10675     10676
     10672     10675     10677     10672     10675     10679     10673     10672     10674
     10673     10672     10675     10674     10672     10675     10674     10688     10689
     10674     10688     10692     10674     10688     10693     10675     10677     10678
     10675     10679     10680     10675     10679     10681     10676     10675     10677
     10676     10675     10679     10677     10675     10679     10679     10669     10683
     10679     10681     10682     10680     10679     10681     10683     10686     10687
     10684     10683     10685     10684     10683     10686     10685     10683     10686
     10688     10692     10690     10688     10693     10694     10688     10693     10695
     10688     10693     10696     10689     10688     10692     10689     10688     10693
     10690     10700     10696     10690     10700     10701     10690     10700     10702
     10690     10704     10705     10690     10704     10706     10690     10704     10707
     10691     10690     10692     10691     10690     10700     10691     10690     10704
     10692     10688     10693     10692     10690     10700     10692     10690     10704
     10693     10695     10708     10693     10696     10697     10693     10696     10698
     10693     10696     10700     10694     10693     10695     10694     10693     10696
     10695     10693     10696     10695     10708     10709     10695     10708     10712
     10695     10708     10713     10696     10698     10699     10696     10700     10701
     10696     10700     10702     10697     10696     10698     10697     10696     10700
     10698     10696     10700     10700     10690     10704     10700     10702     10703
     10701     10700     10702     10705     10704     10706     10705     10704     10707
     10706     10704     10707     10708     10712     10710     10708     10713     10714
     10708     10713     10715     10708     10713     10716     10709     10708     10712
     10709     10708     10713     10710     10719     10716     10710     10719     10720
     10710     10719     10721     10710     10723     10724     10710     10723     10725
     10710     10723     10726     10711     10710     10712     10711     10710     10719
     10711     10710     10723     10712     10708     10713     10712     10710     10719
     10712     10710     10723     10713     10715     10727     10713     10716     10717
     10713     10716     10718     10713     10716     10719     10714     10713     10715
     10714     10713     10716     10715     10713     10716     10715     10727     10728
     10715     10727     10731     10715     10727     10732     10716     10718     10755
     10716     10719     10720     10716     10719     10721     10717     10716     10718
     10717     10716     10719     10718     10716     10719     10718     10755     10756
     10718     10755     10759     10718     10755     10760     10719     10710     10723
     10719     10721     10722     10720     10719     10721     10724     10723     10725
     10724     10723     10726     10725     10723     10726     10727     10731     10729
     10727     10732     10733     10727     10732     10734     10727     10732     10742
     10728     10727     10731     10728     10727     10732     10729     10746     10742
     10729     10746     10747     10729     10746     10748     10729     10750     10751
     10729     10750     10752     10729     10750     10753     10730     10729     10731
     10730     10729     10746     10730     10729     10750     10731     10727     10732
     10731     10729     10746     10731     10729     10750     10732     10734     10735
     10732     10734     10736     10732     10742     10743     10732     10742     10744
     10732     10742     10746     10733     10732     10734     10733     10732     10742
     10734     10732     10742     10734     10736     10737     10734     10736     10738
     10735     10734     10736     10736     10738     10739     10736     10738     10740
     10736     10738     10741     10737     10736     10738     10739     10738     10740
     10739     10738     10741     10740     10738     10741     10742     10744     10745
     10742     10746     10747     10742     10746     10748     10743     10742     10744
     10743     10742     10746     10744     10742     10746     10746     10729     10750
     10746     10748     10749     10747     10746     10748     10750     10753     10754
     10751     10750     10752     10751     10750     10753     10752     10750     10753
     10755     10759     10757     10755     10760     10761     10755     10760     10762
     10755     10760     10770     10756     10755     10759     10756     10755     10760
     10757     10773     10770     10757     10773     10774     10757     10773     10775
     10757     10777     10778     10757     10777     10779     10757     10777     10780
     10758     10757     10759     10758     10757     10773     10758     10757     10777
     10759     10755     10760     10759     10757     10773     10759     10757     10777
     10760     10762     10763     10760     10762     10764     10760     10770     10771
     10760     10770     10772     10760     10770     10773     10761     10760     10762
     10761     10760     10770     10762     10760     10770     10762     10764     10765
     10762     10764     10766     10763     10762     10764     10764     10766     10767
     10764     10766     10768     10764     10766     10769     10765     10764     10766
     10767     10766     10768     10767     10766     10769     10768     10766     10769
     10770     10772     10782     10770     10773     10774     10770     10773     10775
     10771     10770     10772     10771     10770     10773     10772     10770     10773
     10772     10782     10783     10772     10782     10786     10772     10782     10787
     10773     10757     10777     10773     10775     10776     10774     10773     10775
     10777     10780     10781     10778     10777     10779     10778     10777     10780
     10779     10777     10780     10782     10786     10784     10782     10787     10788
     10782     10787     10789     10782     10787     10790     10783     10782     10786
     10783     10782     10787     10784     10794     10790     10784     10794     10795
     10784     10794     10796     10784     10798     10799     10784     10798     10800
     10784     10798     10801     10785     10784     10786     10785     10784     10794
     10785     10784     10798     10786     10782     10787     10786     10784     10794
     10786     10784     10798     10787     10789     10803     10787     10790     10791
     10787     10790     10792     10787     10790     10794     10788     10787     10789
     10788     10787     10790     10789     10787     10790     10789     10803     10804
     10789     10803     10807     10789     10803     10808     10790     10792     10793
     10790     10794     10795     10790     10794     10796     10791     10790     10792
     10791     10790     10794     10792     10790     10794     10794     10784     10798
     10794     10796     10797     10795     10794     10796     10798     10801     10802
     10799     10798     10800     10799     10798     10801     10800     10798     10801
     10803     10807     10805     10803     10808     10809     10803     10808     10810
     10803     10808     10811     10804     10803     10807     10804     10803     10808
     10805     10815     10811     10805     10815     10816     10805     10815     10817
     10805     10819     10820     10805     10819     10821     10805     10819     10822
     10806     10805     10807     10806     10805     10815     10806     10805     10819
     10807     10803     10808     10807     10805     10815     10807     10805     10819
     10808     10810     10823     10808     10811     10812     10808     10811     10813
     10808     10811     10815     10809     10808     10810     10809     10808     10811
     10810     10808     10811     10810     10823     10824     10810     10823     10827
     10810     10823     10828     10811     10813     10814     10811     10815     10816
     10811     10815     10817     10812     10811     10813     10812     10811     10815
     10813     10811     10815     10815     10805     10819     10815     10817     10818
     10816     10815     10817     10820     10819     10821     10820     10819     10822
     10821     10819     10822     10823     10827     10825     10823     10828     10829
     10823     10828     10830     10823     10828     10831     10824     10823     10827
     10824     10823     10828     10825     10834     10831     10825     10834     10835
     10825     10834     10836     10825     10838     10839     10825     10838     10840
     10825     10838     10841     10826     10825     10827     10826     10825     10834
     10826     10825     10838     10827     10823     10828     10827     10825     10834
     10827     10825     10838     10828     10830     10842     10828     10831     10832
     10828     10831     10833     10828     10831     10834     10829     10828     10830
     10829     10828     10831     10830     10828     10831     10830     10842     10843
     10830     10842     10846     10830     10842     10847     10831     10833     10870
     10831     10834     10835     10831     10834     10836     10832     10831     10833
     10832     10831     10834     10833     10831     10834     10833     10870     10871
     10833     10870     10874     10833     10870     10875     10834     10825     10838
     10834     10836     10837     10835     10834     10836     10839     10838     10840
     10839     10838     10841     10840     10838     10841     10842     10846     10844
     10842     10847     10848     10842     10847     10849     10842     10847     10857
     10843     10842     10846     10843     10842     10847     10844     10861     10857
     10844     10861     10862     10844     10861     10863     10844     10865     10866
     10844     10865     10867     10844     10865     10868     10845     10844     10846
     10845     10844     10861     10845     10844     10865     10846     10842     10847
     10846     10844     10861     10846     10844     10865     10847     10849     10850
     10847     10849     10851     10847     10857     10858     10847     10857     10859
     10847     10857     10861     10848     10847     10849     10848     10847     10857
     10849     10847     10857     10849     10851     10852     10849     10851     10853
     10850     10849     10851     10851     10853     10854     10851     10853     10855
     10851     10853     10856     10852     10851     10853     10854     10853     10855
     10854     10853     10856     10855     10853     10856     10857     10859     10860
     10857     10861     10862     10857     10861     10863     10858     10857     10859
     10858     10857     10861     10859     10857     10861     10861     10844     10865
     10861     10863     10864     10862     10861     10863     10865     10868     10869
     10866     10865     10867     10866     10865     10868     10867     10865     10868
     10870     10874     10872     10870     10875     10876     10870     10875     10877
     10870     10875     10885     10871     10870     10874     10871     10870     10875
     10872     10888     10885     10872     10888     10889     10872     10888     10890
     10872     10892     10893     10872     10892     10894     10872     10892     10895
     10873     10872     10874     10873     10872     10888     10873     10872     10892
     10874     10870     10875     10874     10872     10888     10874     10872     10892
     10875     10877     10878     10875     10877     10879     10875     10885     10886
     10875     10885     10887     10875     10885     10888     10876     10875     10877
     10876     10875     10885     10877     10875     10885     10877     10879     10880
     10877     10879     10881     10878     10877     10879     10879     10881     10882
     10879     10881     10883     10879     10881     10884     10880     10879     10881
     10882     10881     10883     10882     10881     10884     10883     10881     10884
     10885     10887     10897     10885     10888     10889     10885     10888     10890
     10886     10885     10887     10886     10885     10888     10887     10885     10888
     10887     10897     10898     10887     10897     10901     10887     10897     10902
     10888     10872     10892     10888     10890     10891     10889     10888     10890
     10892     10895     10896     10893     10892     10894     10893     10892     10895
     10894     10892     10895     10897     10901     10899     10897     10902     10903
     10897     10902     10904     10897     10902     10905     10898     10897     10901
     10898     10897     10902     10899     10909     10905     10899     10909     10910
     10899     10909     10911     10899     10913     10914     10899     10913     10915
     10899     10913     10916     10900     10899     10901     10900     10899     10909
     10900     10899     10913     10901     10897     10902     10901     10899     10909
     10901     10899     10913     10902     10904     10918     10902     10905     10906
     10902     10905     10907     10902     10905     10909     10903     10902     10904
     10903     10902     10905     10904     10902     10905     10904     10918     10919
     10904     10918     10922     10904     10918     10923     10905     10907     10908
     10905     10909     10910     10905     10909     10911     10906     10905     10907
     10906     10905     10909     10907     10905     10909     10909     10899     10913
     10909     10911     10912     10910     10909     10911     10913     10916     10917
     10914     10913     10915     10914     10913     10916     10915     10913     10916
     10918     10922     10920     10918     10923     10924     10918     10923     10925
     10918     10923     10926     10919     10918     10922     10919     10918     10923
     10920     10930     10926     10920     10930     10931     10920     10930     10932
     10920     10934     10935     10920     10934     10936     10920     10934     10937
     10921     10920     10922     10921     10920     10930     10921     10920     10934
     10922     10918     10923     10922     10920     10930     10922     10920     10934
     10923     10925     10938     10923     10926     10927     10923     10926     10928
     10923     10926     10930     10924     10923     10925     10924     10923     10926
     10925     10923     10926     10925     10938     10939     10925     10938     10942
     10925     10938     10943     10926     10928     10929     10926     10930     10931
     10926     10930     10932     10927     10926     10928     10927     10926     10930
     10928     10926     10930     10930     10920     10934     10930     10932     10933
     10931     10930     10932     10935     10934     10936     10935     10934     10937
     10936     10934     10937     10938     10942     10940     10938     10943     10944
     10938     10943     10945     10938     10943     10946     10939     10938     10942
     10939     10938     10943     10940     10949     10946     10940     10949     10950
     10940     10949     10951     10940     10953     10954     10940     10953     10955
     10940     10953     10956     10941     10940     10942     10941     10940     10949
     10941     10940     10953     10942     10938     10943     10942     10940     10949
     10942     10940     10953     10943     10945     10957     10943     10946     10947
     10943     10946     10948     10943     10946     10949     10944     10943     10945
     10944     10943     10946     10945     10943     10946     10945     10957     10958
     10945     10957     10961     10945     10957     10962     10946     10948     10985
     10946     10949     10950     10946     10949     10951     10947     10946     10948
     10947     10946     10949     10948     10946     10949     10948     10985     10986
     10948     10985     10989     10948     10985     10990     10949     10940     10953
     10949     10951     10952     10950     10949     10951     10954     10953     10955
     10954     10953     10956     10955     10953     10956     10957     10961     10959
     10957     10962     10963     10957     10962     10964     10957     10962     10972
     10958     10957     10961     10958     10957     10962     10959     10976     10972
     10959     10976     10977     10959     10976     10978     10959     10980     10981
     10959     10980     10982     10959     10980     10983     10960     10959     10961
     10960     10959     10976     10960     10959     10980     10961     10957     10962
     10961     10959     10976     10961     10959     10980     10962     10964     10965
     10962     10964     10966     10962     10972     10973     10962     10972     10974
     10962     10972     10976     10963     10962     10964     10963     10962     10972
     10964     10962     10972     10964     10966     10967     10964     10966     10968
     10965     10964     10966     10966     10968     10969     10966     10968     10970
     10966     10968     10971     10967     10966     10968     10969     10968     10970
     10969     10968     10971     10970     10968     10971     10972     10974     10975
     10972     10976     10977     10972     10976     10978     10973     10972     10974
     10973     10972     10976     10974     10972     10976     10976     10959     10980
     10976     10978     10979     10977     10976     10978     10980     10983     10984
     10981     10980     10982     10981     10980     10983     10982     10980     10983
     10985     10989     10987     10985     10990     10991     10985     10990     10992
     10985     10990     11000     10986     10985     10989     10986     10985     10990
     10987     11003     11000     10987     11003     11004     10987     11003     11005
     10987     11007     11008     10987     11007     11009     10987     11007     11010
     10988     10987     10989     10988     10987     11003     10988     10987     11007
     10989     10985     10990     10989     10987     11003     10989     10987     11007
     10990     10992     10993     10990     10992     10994     10990     11000     11001
     10990     11000     11002     10990     11000     11003     10991     10990     10992
     10991     10990     11000     10992     10990     11000     10992     10994     10995
     10992     10994     10996     10993     10992     10994     10994     10996     10997
     10994     10996     10998     10994     10996     10999     10995     10994     10996
     10997     10996     10998     10997     10996     10999     10998     10996     10999
     11000     11002     11012     11000     11003     11004     11000     11003     11005
     11001     11000     11002     11001     11000     11003     11002     11000     11003
     11002     11012     11013     11002     11012     11016     11002     11012     11017
     11003     10987     11007     11003     11005     11006     11004     11003     11005
     11007     11010     11011     11008     11007     11009     11008     11007     11010
     11009     11007     11010     11012     11016     11014     11012     11017     11018
     11012     11017     11019     11012     11017     11020     11013     11012     11016
     11013     11012     11017     11014     11024     11020     11014     11024     11025
     11014     11024     11026     11014     11028     11029     11014     11028     11030
     11014     11028     11031     11015     11014     11016     11015     11014     11024
     11015     11014     11028     11016     11012     11017     11016     11014     11024
     11016     11014     11028     11017     11019     11033     11017     11020     11021
     11017     11020     11022     11017     11020     11024     11018     11017     11019
     11018     11017     11020     11019     11017     11020     11019     11033     11034
     11019     11033     11037     11019     11033     11038     11020     11022     11023
     11020     11024     11025     11020     11024     11026     11021     11020     11022
     11021     11020     11024     11022     11020     11024     11024     11014     11028
     11024     11026     11027     11025     11024     11026     11028     11031     11032
     11029     11028     11030     11029     11028     11031     11030     11028     11031
     11033     11037     11035     11033     11038     11039     11033     11038     11040
     11033     11038     11041     11034     11033     11037     11034     11033     11038
     11035     11045     11041     11035     11045     11046     11035     11045     11047
     11035     11049     11050     11035     11049     11051     11035     11049     11052
     11036     11035     11037     11036     11035     11045     11036     11035     11049
     11037     11033     11038     11037     11035     11045     11037     11035     11049
     11038     11040     11053     11038     11041     11042     11038     11041     11043
     11038     11041     11045     11039     11038     11040     11039     11038     11041
     11040     11038     11041     11040     11053     11054     11040     11053     11057
     11040     11053     11058     11041     11043     11044     11041     11045     11046
     11041     11045     11047     11042     11041     11043     11042     11041     11045
     11043     11041     11045     11045     11035     11049     11045     11047     11048
     11046     11045     11047     11050     11049     11051     11050     11049     11052
     11051     11049     11052     11053     11057     11055     11053     11058     11059
     11053     11058     11060     11053     11058     11061     11054     11053     11057
     11054     11053     11058     11055     11065     11061     11055     11065     11066
     11055     11065     11067     11055     11069     11070     11055     11069     11071
     11055     11069     11072     11056     11055     11057     11056     11055     11065
     11056     11055     11069     11057     11053     11058     11057     11055     11065
     11057     11055     11069     11058     11060     11073     11058     11061     11062
     11058     11061     11063     11058     11061     11065     11059     11058     11060
     11059     11058     11061     11060     11058     11061     11060     11073     11074
     11060     11073     11077     11060     11073     11078     11061     11063     11064
     11061     11065     11066     11061     11065     11067     11062     11061     11063
     11062     11061     11065     11063     11061     11065     11065     11055     11069
     11065     11067     11068     11066     11065     11067     11070     11069     11071
     11070     11069     11072     11071     11069     11072     11073     11077     11075
     11073     11078     11079     11073     11078     11080     11073     11078     11088
     11074     11073     11077     11074     11073     11078     11075     11092     11088
     11075     11092     11093     11075     11092     11094     11075     11096     11097
     11075     11096     11098     11075     11096     11099     11076     11075     11077
     11076     11075     11092     11076     11075     11096     11077     11073     11078
     11077     11075     11092     11077     11075     11096     11078     11080     11081
     11078     11080     11082     11078     11088     11089     11078     11088     11090
     11078     11088     11092     11079     11078     11080     11079     11078     11088
     11080     11078     11088     11080     11082     11083     11080     11082     11084
     11081     11080     11082     11082     11084     11085     11082     11084     11086
     11082     11084     11087     11083     11082     11084     11085     11084     11086
     11085     11084     11087     11086     11084     11087     11088     11090     11091
     11088     11092     11093     11088     11092     11094     11089     11088     11090
     11089     11088     11092     11090     11088     11092     11092     11075     11096
     11092     11094     11095     11093     11092     11094     11096     11099     11100
     11097     11096     11098     11097     11096     11099     11098     11096     11099
     11101     11103     11102     11101     11103     11104     11101     11103     11105
     11102     11103     11104     11102     11103     11105     11102     11400     11397
     11102     11400     11403     11102     11400     11404     11103     11102     11400
     11103     11105     11106     11103     11105     11107     11103     11105     11114
     11104     11103     11105     11105     11106     11108     11105     11114     11115
     11105     11114     11116     11105     11114     11121     11106     11105     11107
     11106     11105     11114     11106     11108     11109     11106     11108     11110
     11106     11108     11129     11107     11105     11114     11108     11110     11111
     11108     11129     11121     11108     11129     11130     11108     11129     11131
     11109     11108     11110     11109     11108     11129     11110     11108     11129
     11110     11111     11112     11110     11111     11113     11110     11111     11137
     11111     11137     11133     11111     11137     11138     11111     11137     11139
     11112     11111     11113     11112     11111     11137     11113     11111     11137
     11114     11116     11117     11114     11121     11122     11114     11121     11123
     11114     11121     11129     11115     11114     11116     11115     11114     11121
     11116     11114     11121     11116     11117     11118     11116     11117     11119
     11116     11117     11120     11118     11117     11119     11118     11117     11120
     11119     11117     11120     11121     11122     11124     11121     11129     11130
     11121     11129     11131     11122     11121     11123     11122     11121     11129
     11122     11124     11125     11122     11124     11126     11123     11121     11129
     11124     11126     11127     11124     11126     11128     11124     11126     11159
     11125     11124     11126     11126     11159     11160     11126     11159     11161
     11126     11159     11204     11127     11126     11128     11127     11126     11159
     11128     11126     11159     11129     11131     11132     11129     11131     11238
     11130     11129     11131     11131     11238     11239     11131     11238     11240
     11132     11131     11238     11133     11135     11136     11133     11137     11138
     11133     11137     11139     11133     11147     11148     11133     11147     11149
     11133     11147     11155     11134     11133     11135     11134     11133     11137
     11134     11133     11147     11135     11133     11137     11135     11133     11147
     11137     11133     11147     11137     11139     11140     11138     11137     11139
     11139     11140     11141     11139     11140     11142     11139     11140     11155
     11140     11142     11146     11140     11155     11147     11140     11155     11156
     11140     11155     11157     11141     11140     11142     11141     11140     11155
     11142     11140     11155     11142     11146     11143     11142     11146     11144
     11142     11146     11145     11143     11146     11144     11143     11146     11145
     11144     11146     11145     11147     11149     11150     11147     11155     11156
     11147     11155     11157     11148     11147     11149     11148     11147     11155
     11149     11147     11155     11149     11150     11151     11149     11150     11152
     11150     11152     11153     11150     11152     11154     11150     11152     11316
     11151     11150     11152     11152     11316     11317     11152     11316     11318
     11152     11316     11320     11153     11152     11154     11153     11152     11316
     11154     11152     11316     11155     11157     11158     11155     11157     11354
     11156     11155     11157     11157     11354     11355     11157     11354     11356
     11158     11157     11354     11159     11161     11162     11159     11204     11205
     11159     11204     11206     11159     11204     11207     11160     11159     11161
     11160     11159     11204     11161     11159     11204     11161     11162     11163
     11161     11162     11164     11162     11164     11165     11162     11164     11166
     11162     11164     11167     11163     11162     11164     11164     11167     11168
     11164     11167     11169     11164     11167     11170     11165     11164     11166
     11165     11164     11167     11166     11164     11167     11167     11170     11171
     11167     11170     11172     11167     11170     11173     11168     11167     11169
     11168     11167     11170     11169     11167     11170     11170     11173     11174
     11170     11173     11175     11170     11173     11176     11171     11170     11172
     11171     11170     11173     11172     11170     11173     11173     11176     11177
     11173     11176     11178     11173     11176     11179     11174     11173     11175
     11174     11173     11176     11175     11173     11176     11176     11179     11180
     11176     11179     11181     11176     11179     11182     11177     11176     11178
     11177     11176     11179     11178     11176     11179     11179     11182     11183
     11179     11182     11184     11179     11182     11185     11180     11179     11181
     11180     11179     11182     11181     11179     11182     11182     11185     11186
     11182     11185     11187     11182     11185     11188     11183     11182     11184
     11183     11182     11185     11184     11182     11185     11185     11188     11189
     11185     11188     11190     11185     11188     11191     11186     11185     11187
     11186     11185     11188     11187     11185     11188     11188     11191     11192
     11188     11191     11193     11188     11191     11194     11189     11188     11190
     11189     11188     11191     11190     11188     11191     11191     11194     11195
     11191     11194     11196     11191     11194     11197     11192     11191     11193
     11192     11191     11194     11193     11191     11194     11194     11197     11198
     11194     11197     11199     11194     11197     11200     11195     11194     11196
     11195     11194     11197     11196     11194     11197     11197     11200     11201
     11197     11200     11202     11197     11200     11203     11198     11197     11199
     11198     11197     11200     11199     11197     11200     11201     11200     11202
     11201     11200     11203     11202     11200     11203     11204     11207     11208
     11204     11207     11209     11204     11207     11210     11205     11204     11206
     11205     11204     11207     11206     11204     11207     11207     11210     11211
     11207     11210     11212     11207     11210     11213     11208     11207     11209
     11208     11207     11210     11209     11207     11210     11210     11213     11214
     11210     11213     11215     11210     11213     11216     11211     11210     11212
     11211     11210     11213     11212     11210     11213     11213     11216     11217
     11213     11216     11218     11213     11216     11219     11214     11213     11215
     11214     11213     11216     11215     11213     11216     11216     11219     11220
     11216     11219     11221     11216     11219     11222     11217     11216     11218
     11217     11216     11219     11218     11216     11219     11219     11222     11223
     11219     11222     11224     11219     11222     11225     11220     11219     11221
     11220     11219     11222     11221     11219     11222     11222     11225     11226
     11222     11225     11227     11222     11225     11228     11223     11222     11224
     11223     11222     11225     11224     11222     11225     11225     11228     11229
     11225     11228     11230     11225     11228     11231     11226     11225     11227
     11226     11225     11228     11227     11225     11228     11228     11231     11232
     11228     11231     11233     11228     11231     11234     11229     11228     11230
     11229     11228     11231     11230     11228     11231     11231     11234     11235
     11231     11234     11236     11231     11234     11237     11232     11231     11233
     11232     11231     11234     11233     11231     11234     11235     11234     11236
     11235     11234     11237     11236     11234     11237     11238     11240     11241
     11238     11240     11242     11238     11240     11243     11239     11238     11240
     11240     11243     11244     11240     11243     11245     11240     11243     11282
     11241     11240     11242     11241     11240     11243     11242     11240     11243
     11243     11245     11246     11243     11282     11283     11243     11282     11284
     11243     11282     11285     11244     11243     11245     11244     11243     11282
     11245     11243     11282     11245     11246     11247     11245     11246     11248
     11246     11248     11249     11246     11248     11250     11246     11248     11251
     11247     11246     11248     11248     11251     11252     11248     11251     11253
     11248     11251     11254     11249     11248     11250     11249     11248     11251
     11250     11248     11251     11251     11254     11255     11251     11254     11256
     11251     11254     11257     11252     11251     11253     11252     11251     11254
     11253     11251     11254     11254     11257     11258     11254     11257     11259
     11254     11257     11260     11255     11254     11256     11255     11254     11257
     11256     11254     11257     11257     11260     11261     11257     11260     11262
     11257     11260     11263     11258     11257     11259     11258     11257     11260
     11259     11257     11260     11260     11263     11264     11260     11263     11265
     11260     11263     11266     11261     11260     11262     11261     11260     11263
     11262     11260     11263     11263     11266     11267     11263     11266     11268
     11263     11266     11269     11264     11263     11265     11264     11263     11266
     11265     11263     11266     11266     11269     11270     11266     11269     11271
     11266     11269     11272     11267     11266     11268     11267     11266     11269
     11268     11266     11269     11269     11272     11273     11269     11272     11274
     11269     11272     11275     11270     11269     11271     11270     11269     11272
     11271     11269     11272     11272     11275     11276     11272     11275     11277
     11272     11275     11278     11273     11272     11274     11273     11272     11275
     11274     11272     11275     11275     11278     11279     11275     11278     11280
     11275     11278     11281     11276     11275     11277     11276     11275     11278
     11277     11275     11278     11279     11278     11280     11279     11278     11281
     11280     11278     11281     11282     11285     11286     11282     11285     11287
     11282     11285     11288     11283     11282     11284     11283     11282     11285
     11284     11282     11285     11285     11288     11289     11285     11288     11290
     11285     11288     11291     11286     11285     11287     11286     11285     11288
     11287     11285     11288     11288     11291     11292     11288     11291     11293
     11288     11291     11294     11289     11288     11290     11289     11288     11291
     11290     11288     11291     11291     11294     11295     11291     11294     11296
     11291     11294     11297     11292     11291     11293     11292     11291     11294
     11293     11291     11294     11294     11297     11298     11294     11297     11299
     11294     11297     11300     11295     11294     11296     11295     11294     11297
     11296     11294     11297     11297     11300     11301     11297     11300     11302
     11297     11300     11303     11298     11297     11299     11298     11297     11300
     11299     11297     11300     11300     11303     11304     11300     11303     11305
     11300     11303     11306     11301     11300     11302     11301     11300     11303
     11302     11300     11303     11303     11306     11307     11303     11306     11308
     11303     11306     11309     11304     11303     11305     11304     11303     11306
     11305     11303     11306     11306     11309     11310     11306     11309     11311
     11306     11309     11312     11307     11306     11308     11307     11306     11309
     11308     11306     11309     11309     11312     11313     11309     11312     11314
     11309     11312     11315     11310     11309     11311     11310     11309     11312
     11311     11309     11312     11313     11312     11314     11313     11312     11315
     11314     11312     11315     11316     11318     11319     11316     11320     11321
     11316     11320     11322     11316     11320     11323     11317     11316     11318
     11317     11316     11320     11318     11316     11320     11320     11323     11324
     11320     11323     11325     11320     11323     11326     11321     11320     11322
     11321     11320     11323     11322     11320     11323     11323     11326     11327
     11323     11326     11328     11323     11326     11329     11324     11323     11325
     11324     11323     11326     11325     11323     11326     11326     11329     11330
     11326     11329     11331     11326     11329     11332     11327     11326     11328
     11327     11326     11329     11328     11326     11329     11329     11332     11333
     11329     11332     11334     11329     11332     11335     11330     11329     11331
     11330     11329     11332     11331     11329     11332     11332     11335     11336
     11332     11335     11337     11332     11335     11338     11333     11332     11334
     11333     11332     11335     11334     11332     11335     11335     11338     11339
     11335     11338     11340     11335     11338     11341     11336     11335     11337
     11336     11335     11338     11337     11335     11338     11338     11341     11342
     11338     11341     11343     11338     11341     11344     11339     11338     11340
     11339     11338     11341     11340     11338     11341     11341     11344     11345
     11341     11344     11346     11341     11344     11347     11342     11341     11343
     11342     11341     11344     11343     11341     11344     11344     11347     11348
     11344     11347     11349     11344     11347     11350     11345     11344     11346
     11345     11344     11347     11346     11344     11347     11347     11350     11351
     11347     11350     11352     11347     11350     11353     11348     11347     11349
     11348     11347     11350     11349     11347     11350     11351     11350     11352
     11351     11350     11353     11352     11350     11353     11354     11356     11357
     11354     11356     11358     11354     11356     11359     11355     11354     11356
     11356     11359     11360     11356     11359     11361     11356     11359     11363
     11357     11356     11358     11357     11356     11359     11358     11356     11359
     11359     11361     11362     11359     11363     11364     11359     11363     11365
     11359     11363     11366     11360     11359     11361     11360     11359     11363
     11361     11359     11363     11363     11366     11367     11363     11366     11368
     11363     11366     11369     11364     11363     11365     11364     11363     11366
     11365     11363     11366     11366     11369     11370     11366     11369     11371
     11366     11369     11372     11367     11366     11368     11367     11366     11369
     11368     11366     11369     11369     11372     11373     11369     11372     11374
     11369     11372     11375     11370     11369     11371     11370     11369     11372
     11371     11369     11372     11372     11375     11376     11372     11375     11377
     11372     11375     11378     11373     11372     11374     11373     11372     11375
     11374     11372     11375     11375     11378     11379     11375     11378     11380
     11375     11378     11381     11376     11375     11377     11376     11375     11378
     11377     11375     11378     11378     11381     11382     11378     11381     11383
     11378     11381     11384     11379     11378     11380     11379     11378     11381
     11380     11378     11381     11381     11384     11385     11381     11384     11386
     11381     11384     11387     11382     11381     11383     11382     11381     11384
     11383     11381     11384     11384     11387     11388     11384     11387     11389
     11384     11387     11390     11385     11384     11386     11385     11384     11387
     11386     11384     11387     11387     11390     11391     11387     11390     11392
     11387     11390     11393     11388     11387     11389     11388     11387     11390
     11389     11387     11390     11390     11393     11394     11390     11393     11395
     11390     11393     11396     11391     11390     11392     11391     11390     11393
     11392     11390     11393     11394     11393     11395     11394     11393     11396
     11395     11393     11396     11397     11400     11403     11397     11400     11404
     11398     11397     11399     11398     11397     11400     11399     11397     11400
     11400     11403     11401     11400     11404     11405     11400     11404     11406
     11400     11404     11407     11401     11410     11407     11401     11410     11411
     11401     11410     11412     11401     11413     11414     11401     11413     11415
     11401     11413     11417     11402     11401     11403     11402     11401     11410
     11402     11401     11413     11403     11400     11404     11403     11401     11410
     11403     11401     11413     11404     11407     11408     11404     11407     11409
     11404     11407     11410     11405     11404     11406     11405     11404     11407
     11406     11404     11407     11407     11409     11425     11407     11410     11411
     11407     11410     11412     11408     11407     11409     11408     11407     11410
     11409     11407     11410     11409     11425     11422     11409     11425     11428
     11409     11425     11429     11410     11401     11413     11410     11412     11449
     11411     11410     11412     11412     11449     11450     11412     11449     11453
     11412     11449     11454     11413     11415     11416     11413     11417     11418
     11413     11417     11419     11413     11417     11420     11414     11413     11415
     11414     11413     11417     11415     11413     11417     11417     11420     11421
     11418     11417     11419     11418     11417     11420     11419     11417     11420
     11422     11425     11428     11422     11425     11429     11423     11422     11424
     11423     11422     11425     11424     11422     11425     11425     11428     11426
     11425     11429     11430     11425     11429     11431     11425     11429     11432
     11426     11436     11432     11426     11436     11437     11426     11436     11438
     11426     11440     11441     11426     11440     11442     11426     11440     11444
     11427     11426     11428     11427     11426     11436     11427     11426     11440
     11428     11425     11429     11428     11426     11436     11428     11426     11440
     11429     11432     11433     11429     11432     11434     11429     11432     11436
     11430     11429     11431     11430     11429     11432     11431     11429     11432
     11432     11434     11435     11432     11436     11437     11432     11436     11438
     11433     11432     11434     11433     11432     11436     11434     11432     11436
     11436     11426     11440     11436     11438     11439     11437     11436     11438
     11440     11442     11443     11440     11444     11445     11440     11444     11446
     11440     11444     11447     11441     11440     11442     11441     11440     11444
     11442     11440     11444     11444     11447     11448     11445     11444     11446
     11445     11444     11447     11446     11444     11447     11449     11453     11451
     11449     11454     11455     11449     11454     11456     11449     11454     11458
     11450     11449     11453     11450     11449     11454     11451     11461     11458
     11451     11461     11462     11451     11461     11463     11451     11468     11469
     11451     11468     11470     11451     11468     11472     11452     11451     11453
     11452     11451     11461     11452     11451     11468     11453     11449     11454
     11453     11451     11461     11453     11451     11468     11454     11456     11457
     11454     11458     11459     11454     11458     11460     11454     11458     11461
     11455     11454     11456     11455     11454     11458     11456     11454     11458
     11458     11460     11477     11458     11461     11462     11458     11461     11463
     11459     11458     11460     11459     11458     11461     11460     11458     11461
     11460     11477     11478     11460     11477     11481     11460     11477     11482
     11461     11451     11468     11461     11463     11464     11462     11461     11463
     11463     11464     11465     11463     11464     11466     11463     11464     11467
     11465     11464     11466     11465     11464     11467     11466     11464     11467
     11468     11470     11471     11468     11472     11473     11468     11472     11474
     11468     11472     11475     11469     11468     11470     11469     11468     11472
     11470     11468     11472     11472     11475     11476     11473     11472     11474
     11473     11472     11475     11474     11472     11475     11477     11481     11479
     11477     11482     11483     11477     11482     11484     11477     11482     11486
     11478     11477     11481     11478     11477     11482     11479     11489     11486
     11479     11489     11490     11479     11489     11491     11479     11496     11497
     11479     11496     11498     11479     11496     11500     11480     11479     11481
     11480     11479     11489     11480     11479     11496     11481     11477     11482
     11481     11479     11489     11481     11479     11496     11482     11484     11485
     11482     11486     11487     11482     11486     11488     11482     11486     11489
     11483     11482     11484     11483     11482     11486     11484     11482     11486
     11486     11488     11530     11486     11489     11490     11486     11489     11491
     11487     11486     11488     11487     11486     11489     11488     11486     11489
     11488     11530     11531     11488     11530     11534     11488     11530     11535
     11489     11479     11496     11489     11491     11492     11490     11489     11491
     11491     11492     11493     11491     11492     11494     11491     11492     11495
     11493     11492     11494     11493     11492     11495     11494     11492     11495
     11496     11498     11499     11496     11500     11501     11496     11500     11502
     11496     11500     11503     11497     11496     11498     11497     11496     11500
     11498     11496     11500     11500     11503     11504     11501     11500     11502
     11501     11500     11503     11502     11500     11503     11503     11504     11505
     11503     11504     11508     11503     11504     11509     11504     11508     11506
     11504     11509     11510     11504     11509     11511     11504     11509     11513
     11505     11504     11508     11505     11504     11509     11506     11517     11513
     11506     11517     11518     11506     11517     11519     11506     11521     11522
     11506     11521     11523     11506     11521     11525     11507     11506     11508
     11507     11506     11517     11507     11506     11521     11508     11504     11509
     11508     11506     11517     11508     11506     11521     11509     11511     11512
     11509     11513     11514     11509     11513     11515     11509     11513     11517
     11510     11509     11511     11510     11509     11513     11511     11509     11513
     11513     11515     11516     11513     11517     11518     11513     11517     11519
     11514     11513     11515     11514     11513     11517     11515     11513     11517
     11517     11506     11521     11517     11519     11520     11518     11517     11519
     11521     11523     11524     11521     11525     11526     11521     11525     11527
     11521     11525     11528     11522     11521     11523     11522     11521     11525
     11523     11521     11525     11525     11528     11529     11526     11525     11527
     11526     11525     11528     11527     11525     11528     11530     11534     11532
     11530     11535     11536     11530     11535     11537     11530     11535     11539
     11531     11530     11534     11531     11530     11535     11532     11542     11539
     11532     11542     11543     11532     11542     11544     11532     11546     11547
     11532     11546     11548     11532     11546     11549     11533     11532     11534
     11533     11532     11542     11533     11532     11546     11534     11530     11535
     11534     11532     11542     11534     11532     11546     11535     11537     11538
     11535     11539     11540     11535     11539     11541     11535     11539     11542
     11536     11535     11537     11536     11535     11539     11537     11535     11539
     11539     11541     11551     11539     11542     11543     11539     11542     11544
     11540     11539     11541     11540     11539     11542     11541     11539     11542
     11541     11551     11552     11541     11551     11555     11541     11551     11556
     11542     11532     11546     11542     11544     11545     11543     11542     11544
     11546     11549     11550     11547     11546     11548     11547     11546     11549
     11548     11546     11549     11551     11555     11553     11551     11556     11557
     11551     11556     11558     11551     11556     11559     11552     11551     11555
     11552     11551     11556     11553     11562     11559     11553     11562     11563
     11553     11562     11564     11553     11566     11567     11553     11566     11568
     11553     11566     11569     11554     11553     11555     11554     11553     11562
     11554     11553     11566     11555     11551     11556     11555     11553     11562
     11555     11553     11566     11556     11558     11571     11556     11559     11560
     11556     11559     11561     11556     11559     11562     11557     11556     11558
     11557     11556     11559     11558     11556     11559     11558     11571     11572
     11558     11571     11575     11558     11571     11576     11559     11561     11614
     11559     11562     11563     11559     11562     11564     11560     11559     11561
     11560     11559     11562     11561     11559     11562     11561     11614     11615
     11561     11614     11618     11561     11614     11619     11562     11553     11566
     11562     11564     11565     11563     11562     11564     11566     11569     11570
     11567     11566     11568     11567     11566     11569     11568     11566     11569
     11571     11575     11573     11571     11576     11577     11571     11576     11578
     11571     11576     11579     11572     11571     11575     11572     11571     11576
     11573     11583     11579     11573     11583     11584     11573     11583     11585
     11573     11587     11588     11573     11587     11589     11573     11587     11590
     11574     11573     11575     11574     11573     11583     11574     11573     11587
     11575     11571     11576     11575     11573     11583     11575     11573     11587
     11576     11578     11592     11576     11579     11580     11576     11579     11581
     11576     11579     11583     11577     11576     11578     11577     11576     11579
     11578     11576     11579     11578     11592     11593     11578     11592     11596
     11578     11592     11597     11579     11581     11582     11579     11583     11584
     11579     11583     11585     11580     11579     11581     11580     11579     11583
     11581     11579     11583     11583     11573     11587     11583     11585     11586
     11584     11583     11585     11587     11590     11591     11588     11587     11589
     11588     11587     11590     11589     11587     11590     11592     11596     11594
     11592     11597     11598     11592     11597     11599     11592     11597     11601
     11593     11592     11596     11593     11592     11597     11594     11605     11601
     11594     11605     11606     11594     11605     11607     11594     11609     11610
     11594     11609     11611     11594     11609     11612     11595     11594     11596
     11595     11594     11605     11595     11594     11609     11596     11592     11597
     11596     11594     11605     11596     11594     11609     11597     11599     11600
     11597     11601     11602     11597     11601     11603     11597     11601     11605
     11598     11597     11599     11598     11597     11601     11599     11597     11601
     11601     11603     11604     11601     11605     11606     11601     11605     11607
     11602     11601     11603     11602     11601     11605     11603     11601     11605
     11605     11594     11609     11605     11607     11608     11606     11605     11607
     11609     11612     11613     11610     11609     11611     11610     11609     11612
     11611     11609     11612     11614     11618     11616     11614     11619     11620
     11614     11619     11621     11614     11619     11623     11615     11614     11618
     11615     11614     11619     11616     11626     11623     11616     11626     11627
     11616     11626     11628     11616     11630     11631     11616     11630     11632
     11616     11630     11633     11617     11616     11618     11617     11616     11626
     11617     11616     11630     11618     11614     11619     11618     11616     11626
     11618     11616     11630     11619     11621     11622     11619     11623     11624
     11619     11623     11625     11619     11623     11626     11620     11619     11621
     11620     11619     11623     11621     11619     11623     11623     11625     11635
     11623     11626     11627     11623     11626     11628     11624     11623     11625
     11624     11623     11626     11625     11623     11626     11625     11635     11636
     11625     11635     11639     11625     11635     11640     11626     11616     11630
     11626     11628     11629     11627     11626     11628     11630     11633     11634
     11631     11630     11632     11631     11630     11633     11632     11630     11633
     11635     11639     11637     11635     11640     11641     11635     11640     11642
     11635     11640     11650     11636     11635     11639     11636     11635     11640
     11637     11653     11650     11637     11653     11654     11637     11653     11655
     11637     11657     11658     11637     11657     11659     11637     11657     11660
     11638     11637     11639     11638     11637     11653     11638     11637     11657
     11639     11635     11640     11639     11637     11653     11639     11637     11657
     11640     11642     11643     11640     11642     11644     11640     11650     11651
     11640     11650     11652     11640     11650     11653     11641     11640     11642
     11641     11640     11650     11642     11640     11650     11642     11644     11645
     11642     11644     11646     11643     11642     11644     11644     11646     11647
     11644     11646     11648     11644     11646     11649     11645     11644     11646
     11647     11646     11648     11647     11646     11649     11648     11646     11649
     11650     11652     11662     11650     11653     11654     11650     11653     11655
     11651     11650     11652     11651     11650     11653     11652     11650     11653
     11652     11662     11663     11652     11662     11666     11652     11662     11667
     11653     11637     11657     11653     11655     11656     11654     11653     11655
     11657     11660     11661     11658     11657     11659     11658     11657     11660
     11659     11657     11660     11662     11666     11664     11662     11667     11668
     11662     11667     11669     11662     11667     11670     11663     11662     11666
     11663     11662     11667     11664     11674     11670     11664     11674     11675
     11664     11674     11676     11664     11678     11679     11664     11678     11680
     11664     11678     11681     11665     11664     11666     11665     11664     11674
     11665     11664     11678     11666     11662     11667     11666     11664     11674
     11666     11664     11678     11667     11669     11683     11667     11670     11671
     11667     11670     11672     11667     11670     11674     11668     11667     11669
     11668     11667     11670     11669     11667     11670     11669     11683     11684
     11669     11683     11687     11669     11683     11688     11670     11672     11673
     11670     11674     11675     11670     11674     11676     11671     11670     11672
     11671     11670     11674     11672     11670     11674     11674     11664     11678
     11674     11676     11677     11675     11674     11676     11678     11681     11682
     11679     11678     11680     11679     11678     11681     11680     11678     11681
     11683     11687     11685     11683     11688     11689     11683     11688     11690
     11683     11688     11691     11684     11683     11687     11684     11683     11688
     11685     11695     11691     11685     11695     11696     11685     11695     11697
     11685     11699     11700     11685     11699     11701     11685     11699     11702
     11686     11685     11687     11686     11685     11695     11686     11685     11699
     11687     11683     11688     11687     11685     11695     11687     11685     11699
     11688     11690     11703     11688     11691     11692     11688     11691     11693
     11688     11691     11695     11689     11688     11690     11689     11688     11691
     11690     11688     11691     11690     11703     11704     11690     11703     11707
     11690     11703     11708     11691     11693     11694     11691     11695     11696
     11691     11695     11697     11692     11691     11693     11692     11691     11695
     11693     11691     11695     11695     11685     11699     11695     11697     11698
     11696     11695     11697     11700     11699     11701     11700     11699     11702
     11701     11699     11702     11703     11707     11705     11703     11708     11709
     11703     11708     11710     11703     11708     11711     11704     11703     11707
     11704     11703     11708     11705     11714     11711     11705     11714     11715
     11705     11714     11716     11705     11718     11719     11705     11718     11720
     11705     11718     11721     11706     11705     11707     11706     11705     11714
     11706     11705     11718     11707     11703     11708     11707     11705     11714
     11707     11705     11718     11708     11710     11722     11708     11711     11712
     11708     11711     11713     11708     11711     11714     11709     11708     11710
     11709     11708     11711     11710     11708     11711     11710     11722     11723
     11710     11722     11726     11710     11722     11727     11711     11713     11750
     11711     11714     11715     11711     11714     11716     11712     11711     11713
     11712     11711     11714     11713     11711     11714     11713     11750     11751
     11713     11750     11754     11713     11750     11755     11714     11705     11718
     11714     11716     11717     11715     11714     11716     11719     11718     11720
     11719     11718     11721     11720     11718     11721     11722     11726     11724
     11722     11727     11728     11722     11727     11729     11722     11727     11737
     11723     11722     11726     11723     11722     11727     11724     11741     11737
     11724     11741     11742     11724     11741     11743     11724     11745     11746
     11724     11745     11747     11724     11745     11748     11725     11724     11726
     11725     11724     11741     11725     11724     11745     11726     11722     11727
     11726     11724     11741     11726     11724     11745     11727     11729     11730
     11727     11729     11731     11727     11737     11738     11727     11737     11739
     11727     11737     11741     11728     11727     11729     11728     11727     11737
     11729     11727     11737     11729     11731     11732     11729     11731     11733
     11730     11729     11731     11731     11733     11734     11731     11733     11735
     11731     11733     11736     11732     11731     11733     11734     11733     11735
     11734     11733     11736     11735     11733     11736     11737     11739     11740
     11737     11741     11742     11737     11741     11743     11738     11737     11739
     11738     11737     11741     11739     11737     11741     11741     11724     11745
     11741     11743     11744     11742     11741     11743     11745     11748     11749
     11746     11745     11747     11746     11745     11748     11747     11745     11748
     11750     11754     11752     11750     11755     11756     11750     11755     11757
     11750     11755     11765     11751     11750     11754     11751     11750     11755
     11752     11768     11765     11752     11768     11769     11752     11768     11770
     11752     11772     11773     11752     11772     11774     11752     11772     11775
     11753     11752     11754     11753     11752     11768     11753     11752     11772
     11754     11750     11755     11754     11752     11768     11754     11752     11772
     11755     11757     11758     11755     11757     11759     11755     11765     11766
     11755     11765     11767     11755     11765     11768     11756     11755     11757
     11756     11755     11765     11757     11755     11765     11757     11759     11760
     11757     11759     11761     11758     11757     11759     11759     11761     11762
     11759     11761     11763     11759     11761     11764     11760     11759     11761
     11762     11761     11763     11762     11761     11764     11763     11761     11764
     11765     11767     11777     11765     11768     11769     11765     11768     11770
     11766     11765     11767     11766     11765     11768     11767     11765     11768
     11767     11777     11778     11767     11777     11781     11767     11777     11782
     11768     11752     11772     11768     11770     11771     11769     11768     11770
     11772     11775     11776     11773     11772     11774     11773     11772     11775
     11774     11772     11775     11777     11781     11779     11777     11782     11783
     11777     11782     11784     11777     11782     11785     11778     11777     11781
     11778     11777     11782     11779     11789     11785     11779     11789     11790
     11779     11789     11791     11779     11793     11794     11779     11793     11795
     11779     11793     11796     11780     11779     11781     11780     11779     11789
     11780     11779     11793     11781     11777     11782     11781     11779     11789
     11781     11779     11793     11782     11784     11798     11782     11785     11786
     11782     11785     11787     11782     11785     11789     11783     11782     11784
     11783     11782     11785     11784     11782     11785     11784     11798     11799
     11784     11798     11802     11784     11798     11803     11785     11787     11788
     11785     11789     11790     11785     11789     11791     11786     11785     11787
     11786     11785     11789     11787     11785     11789     11789     11779     11793
     11789     11791     11792     11790     11789     11791     11793     11796     11797
     11794     11793     11795     11794     11793     11796     11795     11793     11796
     11798     11802     11800     11798     11803     11804     11798     11803     11805
     11798     11803     11806     11799     11798     11802     11799     11798     11803
     11800     11810     11806     11800     11810     11811     11800     11810     11812
     11800     11814     11815     11800     11814     11816     11800     11814     11817
     11801     11800     11802     11801     11800     11810     11801     11800     11814
     11802     11798     11803     11802     11800     11810     11802     11800     11814
     11803     11805     11818     11803     11806     11807     11803     11806     11808
     11803     11806     11810     11804     11803     11805     11804     11803     11806
     11805     11803     11806     11805     11818     11819     11805     11818     11822
     11805     11818     11823     11806     11808     11809     11806     11810     11811
     11806     11810     11812     11807     11806     11808     11807     11806     11810
     11808     11806     11810     11810     11800     11814     11810     11812     11813
     11811     11810     11812     11815     11814     11816     11815     11814     11817
     11816     11814     11817     11818     11822     11820     11818     11823     11824
     11818     11823     11825     11818     11823     11826     11819     11818     11822
     11819     11818     11823     11820     11829     11826     11820     11829     11830
     11820     11829     11831     11820     11833     11834     11820     11833     11835
     11820     11833     11836     11821     11820     11822     11821     11820     11829
     11821     11820     11833     11822     11818     11823     11822     11820     11829
     11822     11820     11833     11823     11825     11837     11823     11826     11827
     11823     11826     11828     11823     11826     11829     11824     11823     11825
     11824     11823     11826     11825     11823     11826     11825     11837     11838
     11825     11837     11841     11825     11837     11842     11826     11828     11865
     11826     11829     11830     11826     11829     11831     11827     11826     11828
     11827     11826     11829     11828     11826     11829     11828     11865     11866
     11828     11865     11869     11828     11865     11870     11829     11820     11833
     11829     11831     11832     11830     11829     11831     11834     11833     11835
     11834     11833     11836     11835     11833     11836     11837     11841     11839
     11837     11842     11843     11837     11842     11844     11837     11842     11852
     11838     11837     11841     11838     11837     11842     11839     11856     11852
     11839     11856     11857     11839     11856     11858     11839     11860     11861
     11839     11860     11862     11839     11860     11863     11840     11839     11841
     11840     11839     11856     11840     11839     11860     11841     11837     11842
     11841     11839     11856     11841     11839     11860     11842     11844     11845
     11842     11844     11846     11842     11852     11853     11842     11852     11854
     11842     11852     11856     11843     11842     11844     11843     11842     11852
     11844     11842     11852     11844     11846     11847     11844     11846     11848
     11845     11844     11846     11846     11848     11849     11846     11848     11850
     11846     11848     11851     11847     11846     11848     11849     11848     11850
     11849     11848     11851     11850     11848     11851     11852     11854     11855
     11852     11856     11857     11852     11856     11858     11853     11852     11854
     11853     11852     11856     11854     11852     11856     11856     11839     11860
     11856     11858     11859     11857     11856     11858     11860     11863     11864
     11861     11860     11862     11861     11860     11863     11862     11860     11863
     11865     11869     11867     11865     11870     11871     11865     11870     11872
     11865     11870     11880     11866     11865     11869     11866     11865     11870
     11867     11883     11880     11867     11883     11884     11867     11883     11885
     11867     11887     11888     11867     11887     11889     11867     11887     11890
     11868     11867     11869     11868     11867     11883     11868     11867     11887
     11869     11865     11870     11869     11867     11883     11869     11867     11887
     11870     11872     11873     11870     11872     11874     11870     11880     11881
     11870     11880     11882     11870     11880     11883     11871     11870     11872
     11871     11870     11880     11872     11870     11880     11872     11874     11875
     11872     11874     11876     11873     11872     11874     11874     11876     11877
     11874     11876     11878     11874     11876     11879     11875     11874     11876
     11877     11876     11878     11877     11876     11879     11878     11876     11879
     11880     11882     11892     11880     11883     11884     11880     11883     11885
     11881     11880     11882     11881     11880     11883     11882     11880     11883
     11882     11892     11893     11882     11892     11896     11882     11892     11897
     11883     11867     11887     11883     11885     11886     11884     11883     11885
     11887     11890     11891     11888     11887     11889     11888     11887     11890
     11889     11887     11890     11892     11896     11894     11892     11897     11898
     11892     11897     11899     11892     11897     11900     11893     11892     11896
     11893     11892     11897     11894     11904     11900     11894     11904     11905
     11894     11904     11906     11894     11908     11909     11894     11908     11910
     11894     11908     11911     11895     11894     11896     11895     11894     11904
     11895     11894     11908     11896     11892     11897     11896     11894     11904
     11896     11894     11908     11897     11899     11913     11897     11900     11901
     11897     11900     11902     11897     11900     11904     11898     11897     11899
     11898     11897     11900     11899     11897     11900     11899     11913     11914
     11899     11913     11917     11899     11913     11918     11900     11902     11903
     11900     11904     11905     11900     11904     11906     11901     11900     11902
     11901     11900     11904     11902     11900     11904     11904     11894     11908
     11904     11906     11907     11905     11904     11906     11908     11911     11912
     11909     11908     11910     11909     11908     11911     11910     11908     11911
     11913     11917     11915     11913     11918     11919     11913     11918     11920
     11913     11918     11921     11914     11913     11917     11914     11913     11918
     11915     11925     11921     11915     11925     11926     11915     11925     11927
     11915     11929     11930     11915     11929     11931     11915     11929     11932
     11916     11915     11917     11916     11915     11925     11916     11915     11929
     11917     11913     11918     11917     11915     11925     11917     11915     11929
     11918     11920     11933     11918     11921     11922     11918     11921     11923
     11918     11921     11925     11919     11918     11920     11919     11918     11921
     11920     11918     11921     11920     11933     11934     11920     11933     11937
     11920     11933     11938     11921     11923     11924     11921     11925     11926
     11921     11925     11927     11922     11921     11923     11922     11921     11925
     11923     11921     11925     11925     11915     11929     11925     11927     11928
     11926     11925     11927     11930     11929     11931     11930     11929     11932
     11931     11929     11932     11933     11937     11935     11933     11938     11939
     11933     11938     11940     11933     11938     11941     11934     11933     11937
     11934     11933     11938     11935     11944     11941     11935     11944     11945
     11935     11944     11946     11935     11948     11949     11935     11948     11950
     11935     11948     11951     11936     11935     11937     11936     11935     11944
     11936     11935     11948     11937     11933     11938     11937     11935     11944
     11937     11935     11948     11938     11940     11952     11938     11941     11942
     11938     11941     11943     11938     11941     11944     11939     11938     11940
     11939     11938     11941     11940     11938     11941     11940     11952     11953
     11940     11952     11956     11940     11952     11957     11941     11943     11980
     11941     11944     11945     11941     11944     11946     11942     11941     11943
     11942     11941     11944     11943     11941     11944     11943     11980     11981
     11943     11980     11984     11943     11980     11985     11944     11935     11948
     11944     11946     11947     11945     11944     11946     11949     11948     11950
     11949     11948     11951     11950     11948     11951     11952     11956     11954
     11952     11957     11958     11952     11957     11959     11952     11957     11967
     11953     11952     11956     11953     11952     11957     11954     11971     11967
     11954     11971     11972     11954     11971     11973     11954     11975     11976
     11954     11975     11977     11954     11975     11978     11955     11954     11956
     11955     11954     11971     11955     11954     11975     11956     11952     11957
     11956     11954     11971     11956     11954     11975     11957     11959     11960
     11957     11959     11961     11957     11967     11968     11957     11967     11969
     11957     11967     11971     11958     11957     11959     11958     11957     11967
     11959     11957     11967     11959     11961     11962     11959     11961     11963
     11960     11959     11961     11961     11963     11964     11961     11963     11965
     11961     11963     11966     11962     11961     11963     11964     11963     11965
     11964     11963     11966     11965     11963     11966     11967     11969     11970
     11967     11971     11972     11967     11971     11973     11968     11967     11969
     11968     11967     11971     11969     11967     11971     11971     11954     11975
     11971     11973     11974     11972     11971     11973     11975     11978     11979
     11976     11975     11977     11976     11975     11978     11977     11975     11978
     11980     11984     11982     11980     11985     11986     11980     11985     11987
     11980     11985     11995     11981     11980     11984     11981     11980     11985
     11982     11998     11995     11982     11998     11999     11982     11998     12000
     11982     12002     12003     11982     12002     12004     11982     12002     12005
     11983     11982     11984     11983     11982     11998     11983     11982     12002
     11984     11980     11985     11984     11982     11998     11984     11982     12002
     11985     11987     11988     11985     11987     11989     11985     11995     11996
     11985     11995     11997     11985     11995     11998     11986     11985     11987
     11986     11985     11995     11987     11985     11995     11987     11989     11990
     11987     11989     11991     11988     11987     11989     11989     11991     11992
     11989     11991     11993     11989     11991     11994     11990     11989     11991
     11992     11991     11993     11992     11991     11994     11993     11991     11994
     11995     11997     12007     11995     11998     11999     11995     11998     12000
     11996     11995     11997     11996     11995     11998     11997     11995     11998
     11997     12007     12008     11997     12007     12011     11997     12007     12012
     11998     11982     12002     11998     12000     12001     11999     11998     12000
     12002     12005     12006     12003     12002     12004     12003     12002     12005
     12004     12002     12005     12007     12011     12009     12007     12012     12013
     12007     12012     12014     12007     12012     12015     12008     12007     12011
     12008     12007     12012     12009     12019     12015     12009     12019     12020
     12009     12019     12021     12009     12023     12024     12009     12023     12025
     12009     12023     12026     12010     12009     12011     12010     12009     12019
     12010     12009     12023     12011     12007     12012     12011     12009     12019
     12011     12009     12023     12012     12014     12028     12012     12015     12016
     12012     12015     12017     12012     12015     12019     12013     12012     12014
     12013     12012     12015     12014     12012     12015     12014     12028     12029
     12014     12028     12032     12014     12028     12033     12015     12017     12018
     12015     12019     12020     12015     12019     12021     12016     12015     12017
     12016     12015     12019     12017     12015     12019     12019     12009     12023
     12019     12021     12022     12020     12019     12021     12023     12026     12027
     12024     12023     12025     12024     12023     12026     12025     12023     12026
     12028     12032     12030     12028     12033     12034     12028     12033     12035
     12028     12033     12036     12029     12028     12032     12029     12028     12033
     12030     12040     12036     12030     12040     12041     12030     12040     12042
     12030     12044     12045     12030     12044     12046     12030     12044     12047
     12031     12030     12032     12031     12030     12040     12031     12030     12044
     12032     12028     12033     12032     12030     12040     12032     12030     12044
     12033     12035     12048     12033     12036     12037     12033     12036     12038
     12033     12036     12040     12034     12033     12035     12034     12033     12036
     12035     12033     12036     12035     12048     12049     12035     12048     12052
     12035     12048     12053     12036     12038     12039     12036     12040     12041
     12036     12040     12042     12037     12036     12038     12037     12036     12040
     12038     12036     12040     12040     12030     12044     12040     12042     12043
     12041     12040     12042     12045     12044     12046     12045     12044     12047
     12046     12044     12047     12048     12052     12050     12048     12053     12054
     12048     12053     12055     12048     12053     12056     12049     12048     12052
     12049     12048     12053     12050     12059     12056     12050     12059     12060
     12050     12059     12061     12050     12063     12064     12050     12063     12065
     12050     12063     12066     12051     12050     12052     12051     12050     12059
     12051     12050     12063     12052     12048     12053     12052     12050     12059
     12052     12050     12063     12053     12055     12067     12053     12056     12057
     12053     12056     12058     12053     12056     12059     12054     12053     12055
     12054     12053     12056     12055     12053     12056     12055     12067     12068
     12055     12067     12071     12055     12067     12072     12056     12058     12095
     12056     12059     12060     12056     12059     12061     12057     12056     12058
     12057     12056     12059     12058     12056     12059     12058     12095     12096
     12058     12095     12099     12058     12095     12100     12059     12050     12063
     12059     12061     12062     12060     12059     12061     12064     12063     12065
     12064     12063     12066     12065     12063     12066     12067     12071     12069
     12067     12072     12073     12067     12072     12074     12067     12072     12082
     12068     12067     12071     12068     12067     12072     12069     12086     12082
     12069     12086     12087     12069     12086     12088     12069     12090     12091
     12069     12090     12092     12069     12090     12093     12070     12069     12071
     12070     12069     12086     12070     12069     12090     12071     12067     12072
     12071     12069     12086     12071     12069     12090     12072     12074     12075
     12072     12074     12076     12072     12082     12083     12072     12082     12084
     12072     12082     12086     12073     12072     12074     12073     12072     12082
     12074     12072     12082     12074     12076     12077     12074     12076     12078
     12075     12074     12076     12076     12078     12079     12076     12078     12080
     12076     12078     12081     12077     12076     12078     12079     12078     12080
     12079     12078     12081     12080     12078     12081     12082     12084     12085
     12082     12086     12087     12082     12086     12088     12083     12082     12084
     12083     12082     12086     12084     12082     12086     12086     12069     12090
     12086     12088     12089     12087     12086     12088     12090     12093     12094
     12091     12090     12092     12091     12090     12093     12092     12090     12093
     12095     12099     12097     12095     12100     12101     12095     12100     12102
     12095     12100     12110     12096     12095     12099     12096     12095     12100
     12097     12113     12110     12097     12113     12114     12097     12113     12115
     12097     12117     12118     12097     12117     12119     12097     12117     12120
     12098     12097     12099     12098     12097     12113     12098     12097     12117
     12099     12095     12100     12099     12097     12113     12099     12097     12117
     12100     12102     12103     12100     12102     12104     12100     12110     12111
     12100     12110     12112     12100     12110     12113     12101     12100     12102
     12101     12100     12110     12102     12100     12110     12102     12104     12105
     12102     12104     12106     12103     12102     12104     12104     12106     12107
     12104     12106     12108     12104     12106     12109     12105     12104     12106
     12107     12106     12108     12107     12106     12109     12108     12106     12109
     12110     12112     12122     12110     12113     12114     12110     12113     12115
     12111     12110     12112     12111     12110     12113     12112     12110     12113
     12112     12122     12123     12112     12122     12126     12112     12122     12127
     12113     12097     12117     12113     12115     12116     12114     12113     12115
     12117     12120     12121     12118     12117     12119     12118     12117     12120
     12119     12117     12120     12122     12126     12124     12122     12127     12128
     12122     12127     12129     12122     12127     12130     12123     12122     12126
     12123     12122     12127     12124     12134     12130     12124     12134     12135
     12124     12134     12136     12124     12138     12139     12124     12138     12140
     12124     12138     12141     12125     12124     12126     12125     12124     12134
     12125     12124     12138     12126     12122     12127     12126     12124     12134
     12126     12124     12138     12127     12129     12143     12127     12130     12131
     12127     12130     12132     12127     12130     12134     12128     12127     12129
     12128     12127     12130     12129     12127     12130     12129     12143     12144
     12129     12143     12147     12129     12143     12148     12130     12132     12133
     12130     12134     12135     12130     12134     12136     12131     12130     12132
     12131     12130     12134     12132     12130     12134     12134     12124     12138
     12134     12136     12137     12135     12134     12136     12138     12141     12142
     12139     12138     12140     12139     12138     12141     12140     12138     12141
     12143     12147     12145     12143     12148     12149     12143     12148     12150
     12143     12148     12151     12144     12143     12147     12144     12143     12148
     12145     12155     12151     12145     12155     12156     12145     12155     12157
     12145     12159     12160     12145     12159     12161     12145     12159     12162
     12146     12145     12147     12146     12145     12155     12146     12145     12159
     12147     12143     12148     12147     12145     12155     12147     12145     12159
     12148     12150     12163     12148     12151     12152     12148     12151     12153
     12148     12151     12155     12149     12148     12150     12149     12148     12151
     12150     12148     12151     12150     12163     12164     12150     12163     12167
     12150     12163     12168     12151     12153     12154     12151     12155     12156
     12151     12155     12157     12152     12151     12153     12152     12151     12155
     12153     12151     12155     12155     12145     12159     12155     12157     12158
     12156     12155     12157     12160     12159     12161     12160     12159     12162
     12161     12159     12162     12163     12167     12165     12163     12168     12169
     12163     12168     12170     12163     12168     12171     12164     12163     12167
     12164     12163     12168     12165     12175     12171     12165     12175     12176
     12165     12175     12177     12165     12179     12180     12165     12179     12181
     12165     12179     12182     12166     12165     12167     12166     12165     12175
     12166     12165     12179     12167     12163     12168     12167     12165     12175
     12167     12165     12179     12168     12170     12183     12168     12171     12172
     12168     12171     12173     12168     12171     12175     12169     12168     12170
     12169     12168     12171     12170     12168     12171     12170     12183     12184
     12170     12183     12187     12170     12183     12188     12171     12173     12174
     12171     12175     12176     12171     12175     12177     12172     12171     12173
     12172     12171     12175     12173     12171     12175     12175     12165     12179
     12175     12177     12178     12176     12175     12177     12180     12179     12181
     12180     12179     12182     12181     12179     12182     12183     12187     12185
     12183     12188     12189     12183     12188     12190     12183     12188     12198
     12184     12183     12187     12184     12183     12188     12185     12202     12198
     12185     12202     12203     12185     12202     12204     12185     12206     12207
     12185     12206     12208     12185     12206     12209     12186     12185     12187
     12186     12185     12202     12186     12185     12206     12187     12183     12188
     12187     12185     12202     12187     12185     12206     12188     12190     12191
     12188     12190     12192     12188     12198     12199     12188     12198     12200
     12188     12198     12202     12189     12188     12190     12189     12188     12198
     12190     12188     12198     12190     12192     12193     12190     12192     12194
     12191     12190     12192     12192     12194     12195     12192     12194     12196
     12192     12194     12197     12193     12192     12194     12195     12194     12196
     12195     12194     12197     12196     12194     12197     12198     12200     12201
     12198     12202     12203     12198     12202     12204     12199     12198     12200
     12199     12198     12202     12200     12198     12202     12202     12185     12206
     12202     12204     12205     12203     12202     12204     12206     12209     12210
     12207     12206     12208     12207     12206     12209     12208     12206     12209
     12211     12213     12212     12211     12213     12214     12211     12213     12215
     12212     12213     12214     12212     12213     12215     12212     12510     12507
     12212     12510     12513     12212     12510     12514     12213     12212     12510
     12213     12215     12216     12213     12215     12217     12213     12215     12224
     12214     12213     12215     12215     12216     12218     12215     12224     12225
     12215     12224     12226     12215     12224     12231     12216     12215     12217
     12216     12215     12224     12216     12218     12219     12216     12218     12220
     12216     12218     12239     12217     12215     12224     12218     12220     12221
     12218     12239     12231     12218     12239     12240     12218     12239     12241
     12219     12218     12220     12219     12218     12239     12220     12218     12239
     12220     12221     12222     12220     12221     12223     12220     12221     12247
     12221     12247     12243     12221     12247     12248     12221     12247     12249
     12222     12221     12223     12222     12221     12247     12223     12221     12247
     12224     12226     12227     12224     12231     12232     12224     12231     12233
     12224     12231     12239     12225     12224     12226     12225     12224     12231
     12226     12224     12231     12226     12227     12228     12226     12227     12229
     12226     12227     12230     12228     12227     12229     12228     12227     12230
     12229     12227     12230     12231     12232     12234     12231     12239     12240
     12231     12239     12241     12232     12231     12233     12232     12231     12239
     12232     12234     12235     12232     12234     12236     12233     12231     12239
     12234     12236     12237     12234     12236     12238     12234     12236     12269
     12235     12234     12236     12236     12269     12270     12236     12269     12271
     12236     12269     12314     12237     12236     12238     12237     12236     12269
     12238     12236     12269     12239     12241     12242     12239     12241     12348
     12240     12239     12241     12241     12348     12349     12241     12348     12350
     12242     12241     12348     12243     12245     12246     12243     12247     12248
     12243     12247     12249     12243     12257     12258     12243     12257     12259
     12243     12257     12265     12244     12243     12245     12244     12243     12247
     12244     12243     12257     12245     12243     12247     12245     12243     12257
     12247     12243     12257     12247     12249     12250     12248     12247     12249
     12249     12250     12251     12249     12250     12252     12249     12250     12265
     12250     12252     12256     12250     12265     12257     12250     12265     12266
     12250     12265     12267     12251     12250     12252     12251     12250     12265
     12252     12250     12265     12252     12256     12253     12252     12256     12254
     12252     12256     12255     12253     12256     12254     12253     12256     12255
     12254     12256     12255     12257     12259     12260     12257     12265     12266
     12257     12265     12267     12258     12257     12259     12258     12257     12265
     12259     12257     12265     12259     12260     12261     12259     12260     12262
     12260     12262     12263     12260     12262     12264     12260     12262     12426
     12261     12260     12262     12262     12426     12427     12262     12426     12428
     12262     12426     12430     12263     12262     12264     12263     12262     12426
     12264     12262     12426     12265     12267     12268     12265     12267     12464
     12266     12265     12267     12267     12464     12465     12267     12464     12466
     12268     12267     12464     12269     12271     12272     12269     12314     12315
     12269     12314     12316     12269     12314     12317     12270     12269     12271
     12270     12269     12314     12271     12269     12314     12271     12272     12273
     12271     12272     12274     12272     12274     12275     12272     12274     12276
     12272     12274     12277     12273     12272     12274     12274     12277     12278
     12274     12277     12279     12274     12277     12280     12275     12274     12276
     12275     12274     12277     12276     12274     12277     12277     12280     12281
     12277     12280     12282     12277     12280     12283     12278     12277     12279
     12278     12277     12280     12279     12277     12280     12280     12283     12284
     12280     12283     12285     12280     12283     12286     12281     12280     12282
     12281     12280     12283     12282     12280     12283     12283     12286     12287
     12283     12286     12288     12283     12286     12289     12284     12283     12285
     12284     12283     12286     12285     12283     12286     12286     12289     12290
     12286     12289     12291     12286     12289     12292     12287     12286     12288
     12287     12286     12289     12288     12286     12289     12289     12292     12293
     12289     12292     12294     12289     12292     12295     12290     12289     12291
     12290     12289     12292     12291     12289     12292     12292     12295     12296
     12292     12295     12297     12292     12295     12298     12293     12292     12294
     12293     12292     12295     12294     12292     12295     12295     12298     12299
     12295     12298     12300     12295     12298     12301     12296     12295     12297
     12296     12295     12298     12297     12295     12298     12298     12301     12302
     12298     12301     12303     12298     12301     12304     12299     12298     12300
     12299     12298     12301     12300     12298     12301     12301     12304     12305
     12301     12304     12306     12301     12304     12307     12302     12301     12303
     12302     12301     12304     12303     12301     12304     12304     12307     12308
     12304     12307     12309     12304     12307     12310     12305     12304     12306
     12305     12304     12307     12306     12304     12307     12307     12310     12311
     12307     12310     12312     12307     12310     12313     12308     12307     12309
     12308     12307     12310     12309     12307     12310     12311     12310     12312
     12311     12310     12313     12312     12310     12313     12314     12317     12318
     12314     12317     12319     12314     12317     12320     12315     12314     12316
     12315     12314     12317     12316     12314     12317     12317     12320     12321
     12317     12320     12322     12317     12320     12323     12318     12317     12319
     12318     12317     12320     12319     12317     12320     12320     12323     12324
     12320     12323     12325     12320     12323     12326     12321     12320     12322
     12321     12320     12323     12322     12320     12323     12323     12326     12327
     12323     12326     12328     12323     12326     12329     12324     12323     12325
     12324     12323     12326     12325     12323     12326     12326     12329     12330
     12326     12329     12331     12326     12329     12332     12327     12326     12328
     12327     12326     12329     12328     12326     12329     12329     12332     12333
     12329     12332     12334     12329     12332     12335     12330     12329     12331
     12330     12329     12332     12331     12329     12332     12332     12335     12336
     12332     12335     12337     12332     12335     12338     12333     12332     12334
     12333     12332     12335     12334     12332     12335     12335     12338     12339
     12335     12338     12340     12335     12338     12341     12336     12335     12337
     12336     12335     12338     12337     12335     12338     12338     12341     12342
     12338     12341     12343     12338     12341     12344     12339     12338     12340
     12339     12338     12341     12340     12338     12341     12341     12344     12345
     12341     12344     12346     12341     12344     12347     12342     12341     12343
     12342     12341     12344     12343     12341     12344     12345     12344     12346
     12345     12344     12347     12346     12344     12347     12348     12350     12351
     12348     12350     12352     12348     12350     12353     12349     12348     12350
     12350     12353     12354     12350     12353     12355     12350     12353     12392
     12351     12350     12352     12351     12350     12353     12352     12350     12353
     12353     12355     12356     12353     12392     12393     12353     12392     12394
     12353     12392     12395     12354     12353     12355     12354     12353     12392
     12355     12353     12392     12355     12356     12357     12355     12356     12358
     12356     12358     12359     12356     12358     12360     12356     12358     12361
     12357     12356     12358     12358     12361     12362     12358     12361     12363
     12358     12361     12364     12359     12358     12360     12359     12358     12361
     12360     12358     12361     12361     12364     12365     12361     12364     12366
     12361     12364     12367     12362     12361     12363     12362     12361     12364
     12363     12361     12364     12364     12367     12368     12364     12367     12369
     12364     12367     12370     12365     12364     12366     12365     12364     12367
     12366     12364     12367     12367     12370     12371     12367     12370     12372
     12367     12370     12373     12368     12367     12369     12368     12367     12370
     12369     12367     12370     12370     12373     12374     12370     12373     12375
     12370     12373     12376     12371     12370     12372     12371     12370     12373
     12372     12370     12373     12373     12376     12377     12373     12376     12378
     12373     12376     12379     12374     12373     12375     12374     12373     12376
     12375     12373     12376     12376     12379     12380     12376     12379     12381
     12376     12379     12382     12377     12376     12378     12377     12376     12379
     12378     12376     12379     12379     12382     12383     12379     12382     12384
     12379     12382     12385     12380     12379     12381     12380     12379     12382
     12381     12379     12382     12382     12385     12386     12382     12385     12387
     12382     12385     12388     12383     12382     12384     12383     12382     12385
     12384     12382     12385     12385     12388     12389     12385     12388     12390
     12385     12388     12391     12386     12385     12387     12386     12385     12388
     12387     12385     12388     12389     12388     12390     12389     12388     12391
     12390     12388     12391     12392     12395     12396     12392     12395     12397
     12392     12395     12398     12393     12392     12394     12393     12392     12395
     12394     12392     12395     12395     12398     12399     12395     12398     12400
     12395     12398     12401     12396     12395     12397     12396     12395     12398
     12397     12395     12398     12398     12401     12402     12398     12401     12403
     12398     12401     12404     12399     12398     12400     12399     12398     12401
     12400     12398     12401     12401     12404     12405     12401     12404     12406
     12401     12404     12407     12402     12401     12403     12402     12401     12404
     12403     12401     12404     12404     12407     12408     12404     12407     12409
     12404     12407     12410     12405     12404     12406     12405     12404     12407
     12406     12404     12407     12407     12410     12411     12407     12410     12412
     12407     12410     12413     12408     12407     12409     12408     12407     12410
     12409     12407     12410     12410     12413     12414     12410     12413     12415
     12410     12413     12416     12411     12410     12412     12411     12410     12413
     12412     12410     12413     12413     12416     12417     12413     12416     12418
     12413     12416     12419     12414     12413     12415     12414     12413     12416
     12415     12413     12416     12416     12419     12420     12416     12419     12421
     12416     12419     12422     12417     12416     12418     12417     12416     12419
     12418     12416     12419     12419     12422     12423     12419     12422     12424
     12419     12422     12425     12420     12419     12421     12420     12419     12422
     12421     12419     12422     12423     12422     12424     12423     12422     12425
     12424     12422     12425     12426     12428     12429     12426     12430     12431
     12426     12430     12432     12426     12430     12433     12427     12426     12428
     12427     12426     12430     12428     12426     12430     12430     12433     12434
     12430     12433     12435     12430     12433     12436     12431     12430     12432
     12431     12430     12433     12432     12430     12433     12433     12436     12437
     12433     12436     12438     12433     12436     12439     12434     12433     12435
     12434     12433     12436     12435     12433     12436     12436     12439     12440
     12436     12439     12441     12436     12439     12442     12437     12436     12438
     12437     12436     12439     12438     12436     12439     12439     12442     12443
     12439     12442     12444     12439     12442     12445     12440     12439     12441
     12440     12439     12442     12441     12439     12442     12442     12445     12446
     12442     12445     12447     12442     12445     12448     12443     12442     12444
     12443     12442     12445     12444     12442     12445     12445     12448     12449
     12445     12448     12450     12445     12448     12451     12446     12445     12447
     12446     12445     12448     12447     12445     12448     12448     12451     12452
     12448     12451     12453     12448     12451     12454     12449     12448     12450
     12449     12448     12451     12450     12448     12451     12451     12454     12455
     12451     12454     12456     12451     12454     12457     12452     12451     12453
     12452     12451     12454     12453     12451     12454     12454     12457     12458
     12454     12457     12459     12454     12457     12460     12455     12454     12456
     12455     12454     12457     12456     12454     12457     12457     12460     12461
     12457     12460     12462     12457     12460     12463     12458     12457     12459
     12458     12457     12460     12459     12457     12460     12461     12460     12462
     12461     12460     12463     12462     12460     12463     12464     12466     12467
     12464     12466     12468     12464     12466     12469     12465     12464     12466
     12466     12469     12470     12466     12469     12471     12466     12469     12473
     12467     12466     12468     12467     12466     12469     12468     12466     12469
     12469     12471     12472     12469     12473     12474     12469     12473     12475
     12469     12473     12476     12470     12469     12471     12470     12469     12473
     12471     12469     12473     12473     12476     12477     12473     12476     12478
     12473     12476     12479     12474     12473     12475     12474     12473     12476
     12475     12473     12476     12476     12479     12480     12476     12479     12481
     12476     12479     12482     12477     12476     12478     12477     12476     12479
     12478     12476     12479     12479     12482     12483     12479     12482     12484
     12479     12482     12485     12480     12479     12481     12480     12479     12482
     12481     12479     12482     12482     12485     12486     12482     12485     12487
     12482     12485     12488     12483     12482     12484     12483     12482     12485
     12484     12482     12485     12485     12488     12489     12485     12488     12490
     12485     12488     12491     12486     12485     12487     12486     12485     12488
     12487     12485     12488     12488     12491     12492     12488     12491     12493
     12488     12491     12494     12489     12488     12490     12489     12488     12491
     12490     12488     12491     12491     12494     12495     12491     12494     12496
     12491     12494     12497     12492     12491     12493     12492     12491     12494
     12493     12491     12494     12494     12497     12498     12494     12497     12499
     12494     12497     12500     12495     12494     12496     12495     12494     12497
     12496     12494     12497     12497     12500     12501     12497     12500     12502
     12497     12500     12503     12498     12497     12499     12498     12497     12500
     12499     12497     12500     12500     12503     12504     12500     12503     12505
     12500     12503     12506     12501     12500     12502     12501     12500     12503
     12502     12500     12503     12504     12503     12505     12504     12503     12506
     12505     12503     12506     12507     12510     12513     12507     12510     12514
     12508     12507     12509     12508     12507     12510     12509     12507     12510
     12510     12513     12511     12510     12514     12515     12510     12514     12516
     12510     12514     12517     12511     12520     12517     12511     12520     12521
     12511     12520     12522     12511     12523     12524     12511     12523     12525
     12511     12523     12527     12512     12511     12513     12512     12511     12520
     12512     12511     12523     12513     12510     12514     12513     12511     12520
     12513     12511     12523     12514     12517     12518     12514     12517     12519
     12514     12517     12520     12515     12514     12516     12515     12514     12517
     12516     12514     12517     12517     12519     12535     12517     12520     12521
     12517     12520     12522     12518     12517     12519     12518     12517     12520
     12519     12517     12520     12519     12535     12532     12519     12535     12538
     12519     12535     12539     12520     12511     12523     12520     12522     12559
     12521     12520     12522     12522     12559     12560     12522     12559     12563
     12522     12559     12564     12523     12525     12526     12523     12527     12528
     12523     12527     12529     12523     12527     12530     12524     12523     12525
     12524     12523     12527     12525     12523     12527     12527     12530     12531
     12528     12527     12529     12528     12527     12530     12529     12527     12530
     12532     12535     12538     12532     12535     12539     12533     12532     12534
     12533     12532     12535     12534     12532     12535     12535     12538     12536
     12535     12539     12540     12535     12539     12541     12535     12539     12542
     12536     12546     12542     12536     12546     12547     12536     12546     12548
     12536     12550     12551     12536     12550     12552     12536     12550     12554
     12537     12536     12538     12537     12536     12546     12537     12536     12550
     12538     12535     12539     12538     12536     12546     12538     12536     12550
     12539     12542     12543     12539     12542     12544     12539     12542     12546
     12540     12539     12541     12540     12539     12542     12541     12539     12542
     12542     12544     12545     12542     12546     12547     12542     12546     12548
     12543     12542     12544     12543     12542     12546     12544     12542     12546
     12546     12536     12550     12546     12548     12549     12547     12546     12548
     12550     12552     12553     12550     12554     12555     12550     12554     12556
     12550     12554     12557     12551     12550     12552     12551     12550     12554
     12552     12550     12554     12554     12557     12558     12555     12554     12556
     12555     12554     12557     12556     12554     12557     12559     12563     12561
     12559     12564     12565     12559     12564     12566     12559     12564     12568
     12560     12559     12563     12560     12559     12564     12561     12571     12568
     12561     12571     12572     12561     12571     12573     12561     12578     12579
     12561     12578     12580     12561     12578     12582     12562     12561     12563
     12562     12561     12571     12562     12561     12578     12563     12559     12564
     12563     12561     12571     12563     12561     12578     12564     12566     12567
     12564     12568     12569     12564     12568     12570     12564     12568     12571
     12565     12564     12566     12565     12564     12568     12566     12564     12568
     12568     12570     12587     12568     12571     12572     12568     12571     12573
     12569     12568     12570     12569     12568     12571     12570     12568     12571
     12570     12587     12588     12570     12587     12591     12570     12587     12592
     12571     12561     12578     12571     12573     12574     12572     12571     12573
     12573     12574     12575     12573     12574     12576     12573     12574     12577
     12575     12574     12576     12575     12574     12577     12576     12574     12577
     12578     12580     12581     12578     12582     12583     12578     12582     12584
     12578     12582     12585     12579     12578     12580     12579     12578     12582
     12580     12578     12582     12582     12585     12586     12583     12582     12584
     12583     12582     12585     12584     12582     12585     12587     12591     12589
     12587     12592     12593     12587     12592     12594     12587     12592     12596
     12588     12587     12591     12588     12587     12592     12589     12599     12596
     12589     12599     12600     12589     12599     12601     12589     12606     12607
     12589     12606     12608     12589     12606     12610     12590     12589     12591
     12590     12589     12599     12590     12589     12606     12591     12587     12592
     12591     12589     12599     12591     12589     12606     12592     12594     12595
     12592     12596     12597     12592     12596     12598     12592     12596     12599
     12593     12592     12594     12593     12592     12596     12594     12592     12596
     12596     12598     12640     12596     12599     12600     12596     12599     12601
     12597     12596     12598     12597     12596     12599     12598     12596     12599
     12598     12640     12641     12598     12640     12644     12598     12640     12645
     12599     12589     12606     12599     12601     12602     12600     12599     12601
     12601     12602     12603     12601     12602     12604     12601     12602     12605
     12603     12602     12604     12603     12602     12605     12604     12602     12605
     12606     12608     12609     12606     12610     12611     12606     12610     12612
     12606     12610     12613     12607     12606     12608     12607     12606     12610
     12608     12606     12610     12610     12613     12614     12611     12610     12612
     12611     12610     12613     12612     12610     12613     12613     12614     12615
     12613     12614     12618     12613     12614     12619     12614     12618     12616
     12614     12619     12620     12614     12619     12621     12614     12619     12623
     12615     12614     12618     12615     12614     12619     12616     12627     12623
     12616     12627     12628     12616     12627     12629     12616     12631     12632
     12616     12631     12633     12616     12631     12635     12617     12616     12618
     12617     12616     12627     12617     12616     12631     12618     12614     12619
     12618     12616     12627     12618     12616     12631     12619     12621     12622
     12619     12623     12624     12619     12623     12625     12619     12623     12627
     12620     12619     12621     12620     12619     12623     12621     12619     12623
     12623     12625     12626     12623     12627     12628     12623     12627     12629
     12624     12623     12625     12624     12623     12627     12625     12623     12627
     12627     12616     12631     12627     12629     12630     12628     12627     12629
     12631     12633     12634     12631     12635     12636     12631     12635     12637
     12631     12635     12638     12632     12631     12633     12632     12631     12635
     12633     12631     12635     12635     12638     12639     12636     12635     12637
     12636     12635     12638     12637     12635     12638     12640     12644     12642
     12640     12645     12646     12640     12645     12647     12640     12645     12649
     12641     12640     12644     12641     12640     12645     12642     12652     12649
     12642     12652     12653     12642     12652     12654     12642     12656     12657
     12642     12656     12658     12642     12656     12659     12643     12642     12644
     12643     12642     12652     12643     12642     12656     12644     12640     12645
     12644     12642     12652     12644     12642     12656     12645     12647     12648
     12645     12649     12650     12645     12649     12651     12645     12649     12652
     12646     12645     12647     12646     12645     12649     12647     12645     12649
     12649     12651     12661     12649     12652     12653     12649     12652     12654
     12650     12649     12651     12650     12649     12652     12651     12649     12652
     12651     12661     12662     12651     12661     12665     12651     12661     12666
     12652     12642     12656     12652     12654     12655     12653     12652     12654
     12656     12659     12660     12657     12656     12658     12657     12656     12659
     12658     12656     12659     12661     12665     12663     12661     12666     12667
     12661     12666     12668     12661     12666     12669     12662     12661     12665
     12662     12661     12666     12663     12672     12669     12663     12672     12673
     12663     12672     12674     12663     12676     12677     12663     12676     12678
     12663     12676     12679     12664     12663     12665     12664     12663     12672
     12664     12663     12676     12665     12661     12666     12665     12663     12672
     12665     12663     12676     12666     12668     12681     12666     12669     12670
     12666     12669     12671     12666     12669     12672     12667     12666     12668
     12667     12666     12669     12668     12666     12669     12668     12681     12682
     12668     12681     12685     12668     12681     12686     12669     12671     12724
     12669     12672     12673     12669     12672     12674     12670     12669     12671
     12670     12669     12672     12671     12669     12672     12671     12724     12725
     12671     12724     12728     12671     12724     12729     12672     12663     12676
     12672     12674     12675     12673     12672     12674     12676     12679     12680
     12677     12676     12678     12677     12676     12679     12678     12676     12679
     12681     12685     12683     12681     12686     12687     12681     12686     12688
     12681     12686     12689     12682     12681     12685     12682     12681     12686
     12683     12693     12689     12683     12693     12694     12683     12693     12695
     12683     12697     12698     12683     12697     12699     12683     12697     12700
     12684     12683     12685     12684     12683     12693     12684     12683     12697
     12685     12681     12686     12685     12683     12693     12685     12683     12697
     12686     12688     12702     12686     12689     12690     12686     12689     12691
     12686     12689     12693     12687     12686     12688     12687     12686     12689
     12688     12686     12689     12688     12702     12703     12688     12702     12706
     12688     12702     12707     12689     12691     12692     12689     12693     12694
     12689     12693     12695     12690     12689     12691     12690     12689     12693
     12691     12689     12693     12693     12683     12697     12693     12695     12696
     12694     12693     12695     12697     12700     12701     12698     12697     12699
     12698     12697     12700     12699     12697     12700     12702     12706     12704
     12702     12707     12708     12702     12707     12709     12702     12707     12711
     12703     12702     12706     12703     12702     12707     12704     12715     12711
     12704     12715     12716     12704     12715     12717     12704     12719     12720
     12704     12719     12721     12704     12719     12722     12705     12704     12706
     12705     12704     12715     12705     12704     12719     12706     12702     12707
     12706     12704     12715     12706     12704     12719     12707     12709     12710
     12707     12711     12712     12707     12711     12713     12707     12711     12715
     12708     12707     12709     12708     12707     12711     12709     12707     12711
     12711     12713     12714     12711     12715     12716     12711     12715     12717
     12712     12711     12713     12712     12711     12715     12713     12711     12715
     12715     12704     12719     12715     12717     12718     12716     12715     12717
     12719     12722     12723     12720     12719     12721     12720     12719     12722
     12721     12719     12722     12724     12728     12726     12724     12729     12730
     12724     12729     12731     12724     12729     12733     12725     12724     12728
     12725     12724     12729     12726     12736     12733     12726     12736     12737
     12726     12736     12738     12726     12740     12741     12726     12740     12742
     12726     12740     12743     12727     12726     12728     12727     12726     12736
     12727     12726     12740     12728     12724     12729     12728     12726     12736
     12728     12726     12740     12729     12731     12732     12729     12733     12734
     12729     12733     12735     12729     12733     12736     12730     12729     12731
     12730     12729     12733     12731     12729     12733     12733     12735     12745
     12733     12736     12737     12733     12736     12738     12734     12733     12735
     12734     12733     12736     12735     12733     12736     12735     12745     12746
     12735     12745     12749     12735     12745     12750     12736     12726     12740
     12736     12738     12739     12737     12736     12738     12740     12743     12744
     12741     12740     12742     12741     12740     12743     12742     12740     12743
     12745     12749     12747     12745     12750     12751     12745     12750     12752
     12745     12750     12760     12746     12745     12749     12746     12745     12750
     12747     12763     12760     12747     12763     12764     12747     12763     12765
     12747     12767     12768     12747     12767     12769     12747     12767     12770
     12748     12747     12749     12748     12747     12763     12748     12747     12767
     12749     12745     12750     12749     12747     12763     12749     12747     12767
     12750     12752     12753     12750     12752     12754     12750     12760     12761
     12750     12760     12762     12750     12760     12763     12751     12750     12752
     12751     12750     12760     12752     12750     12760     12752     12754     12755
     12752     12754     12756     12753     12752     12754     12754     12756     12757
     12754     12756     12758     12754     12756     12759     12755     12754     12756
     12757     12756     12758     12757     12756     12759     12758     12756     12759
     12760     12762     12772     12760     12763     12764     12760     12763     12765
     12761     12760     12762     12761     12760     12763     12762     12760     12763
     12762     12772     12773     12762     12772     12776     12762     12772     12777
     12763     12747     12767     12763     12765     12766     12764     12763     12765
     12767     12770     12771     12768     12767     12769     12768     12767     12770
     12769     12767     12770     12772     12776     12774     12772     12777     12778
     12772     12777     12779     12772     12777     12780     12773     12772     12776
     12773     12772     12777     12774     12784     12780     12774     12784     12785
     12774     12784     12786     12774     12788     12789     12774     12788     12790
     12774     12788     12791     12775     12774     12776     12775     12774     12784
     12775     12774     12788     12776     12772     12777     12776     12774     12784
     12776     12774     12788     12777     12779     12793     12777     12780     12781
     12777     12780     12782     12777     12780     12784     12778     12777     12779
     12778     12777     12780     12779     12777     12780     12779     12793     12794
     12779     12793     12797     12779     12793     12798     12780     12782     12783
     12780     12784     12785     12780     12784     12786     12781     12780     12782
     12781     12780     12784     12782     12780     12784     12784     12774     12788
     12784     12786     12787     12785     12784     12786     12788     12791     12792
     12789     12788     12790     12789     12788     12791     12790     12788     12791
     12793     12797     12795     12793     12798     12799     12793     12798     12800
     12793     12798     12801     12794     12793     12797     12794     12793     12798
     12795     12805     12801     12795     12805     12806     12795     12805     12807
     12795     12809     12810     12795     12809     12811     12795     12809     12812
     12796     12795     12797     12796     12795     12805     12796     12795     12809
     12797     12793     12798     12797     12795     12805     12797     12795     12809
     12798     12800     12813     12798     12801     12802     12798     12801     12803
     12798     12801     12805     12799     12798     12800     12799     12798     12801
     12800     12798     12801     12800     12813     12814     12800     12813     12817
     12800     12813     12818     12801     12803     12804     12801     12805     12806
     12801     12805     12807     12802     12801     12803     12802     12801     12805
     12803     12801     12805     12805     12795     12809     12805     12807     12808
     12806     12805     12807     12810     12809     12811     12810     12809     12812
     12811     12809     12812     12813     12817     12815     12813     12818     12819
     12813     12818     12820     12813     12818     12821     12814     12813     12817
     12814     12813     12818     12815     12824     12821     12815     12824     12825
     12815     12824     12826     12815     12828     12829     12815     12828     12830
     12815     12828     12831     12816     12815     12817     12816     12815     12824
     12816     12815     12828     12817     12813     12818     12817     12815     12824
     12817     12815     12828     12818     12820     12832     12818     12821     12822
     12818     12821     12823     12818     12821     12824     12819     12818     12820
     12819     12818     12821     12820     12818     12821     12820     12832     12833
     12820     12832     12836     12820     12832     12837     12821     12823     12860
     12821     12824     12825     12821     12824     12826     12822     12821     12823
     12822     12821     12824     12823     12821     12824     12823     12860     12861
     12823     12860     12864     12823     12860     12865     12824     12815     12828
     12824     12826     12827     12825     12824     12826     12829     12828     12830
     12829     12828     12831     12830     12828     12831     12832     12836     12834
     12832     12837     12838     12832     12837     12839     12832     12837     12847
     12833     12832     12836     12833     12832     12837     12834     12851     12847
     12834     12851     12852     12834     12851     12853     12834     12855     12856
     12834     12855     12857     12834     12855     12858     12835     12834     12836
     12835     12834     12851     12835     12834     12855     12836     12832     12837
     12836     12834     12851     12836     12834     12855     12837     12839     12840
     12837     12839     12841     12837     12847     12848     12837     12847     12849
     12837     12847     12851     12838     12837     12839     12838     12837     12847
     12839     12837     12847     12839     12841     12842     12839     12841     12843
     12840     12839     12841     12841     12843     12844     12841     12843     12845
     12841     12843     12846     12842     12841     12843     12844     12843     12845
     12844     12843     12846     12845     12843     12846     12847     12849     12850
     12847     12851     12852     12847     12851     12853     12848     12847     12849
     12848     12847     12851     12849     12847     12851     12851     12834     12855
     12851     12853     12854     12852     12851     12853     12855     12858     12859
     12856     12855     12857     12856     12855     12858     12857     12855     12858
     12860     12864     12862     12860     12865     12866     12860     12865     12867
     12860     12865     12875     12861     12860     12864     12861     12860     12865
     12862     12878     12875     12862     12878     12879     12862     12878     12880
     12862     12882     12883     12862     12882     12884     12862     12882     12885
     12863     12862     12864     12863     12862     12878     12863     12862     12882
     12864     12860     12865     12864     12862     12878     12864     12862     12882
     12865     12867     12868     12865     12867     12869     12865     12875     12876
     12865     12875     12877     12865     12875     12878     12866     12865     12867
     12866     12865     12875     12867     12865     12875     12867     12869     12870
     12867     12869     12871     12868     12867     12869     12869     12871     12872
     12869     12871     12873     12869     12871     12874     12870     12869     12871
     12872     12871     12873     12872     12871     12874     12873     12871     12874
     12875     12877     12887     12875     12878     12879     12875     12878     12880
     12876     12875     12877     12876     12875     12878     12877     12875     12878
     12877     12887     12888     12877     12887     12891     12877     12887     12892
     12878     12862     12882     12878     12880     12881     12879     12878     12880
     12882     12885     12886     12883     12882     12884     12883     12882     12885
     12884     12882     12885     12887     12891     12889     12887     12892     12893
     12887     12892     12894     12887     12892     12895     12888     12887     12891
     12888     12887     12892     12889     12899     12895     12889     12899     12900
     12889     12899     12901     12889     12903     12904     12889     12903     12905
     12889     12903     12906     12890     12889     12891     12890     12889     12899
     12890     12889     12903     12891     12887     12892     12891     12889     12899
     12891     12889     12903     12892     12894     12908     12892     12895     12896
     12892     12895     12897     12892     12895     12899     12893     12892     12894
     12893     12892     12895     12894     12892     12895     12894     12908     12909
     12894     12908     12912     12894     12908     12913     12895     12897     12898
     12895     12899     12900     12895     12899     12901     12896     12895     12897
     12896     12895     12899     12897     12895     12899     12899     12889     12903
     12899     12901     12902     12900     12899     12901     12903     12906     12907
     12904     12903     12905     12904     12903     12906     12905     12903     12906
     12908     12912     12910     12908     12913     12914     12908     12913     12915
     12908     12913     12916     12909     12908     12912     12909     12908     12913
     12910     12920     12916     12910     12920     12921     12910     12920     12922
     12910     12924     12925     12910     12924     12926     12910     12924     12927
     12911     12910     12912     12911     12910     12920     12911     12910     12924
     12912     12908     12913     12912     12910     12920     12912     12910     12924
     12913     12915     12928     12913     12916     12917     12913     12916     12918
     12913     12916     12920     12914     12913     12915     12914     12913     12916
     12915     12913     12916     12915     12928     12929     12915     12928     12932
     12915     12928     12933     12916     12918     12919     12916     12920     12921
     12916     12920     12922     12917     12916     12918     12917     12916     12920
     12918     12916     12920     12920     12910     12924     12920     12922     12923
     12921     12920     12922     12925     12924     12926     12925     12924     12927
     12926     12924     12927     12928     12932     12930     12928     12933     12934
     12928     12933     12935     12928     12933     12936     12929     12928     12932
     12929     12928     12933     12930     12939     12936     12930     12939     12940
     12930     12939     12941     12930     12943     12944     12930     12943     12945
     12930     12943     12946     12931     12930     12932     12931     12930     12939
     12931     12930     12943     12932     12928     12933     12932     12930     12939
     12932     12930     12943     12933     12935     12947     12933     12936     12937
     12933     12936     12938     12933     12936     12939     12934     12933     12935
     12934     12933     12936     12935     12933     12936     12935     12947     12948
     12935     12947     12951     12935     12947     12952     12936     12938     12975
     12936     12939     12940     12936     12939     12941     12937     12936     12938
     12937     12936     12939     12938     12936     12939     12938     12975     12976
     12938     12975     12979     12938     12975     12980     12939     12930     12943
     12939     12941     12942     12940     12939     12941     12944     12943     12945
     12944     12943     12946     12945     12943     12946     12947     12951     12949
     12947     12952     12953     12947     12952     12954     12947     12952     12962
     12948     12947     12951     12948     12947     12952     12949     12966     12962
     12949     12966     12967     12949     12966     12968     12949     12970     12971
     12949     12970     12972     12949     12970     12973     12950     12949     12951
     12950     12949     12966     12950     12949     12970     12951     12947     12952
     12951     12949     12966     12951     12949     12970     12952     12954     12955
     12952     12954     12956     12952     12962     12963     12952     12962     12964
     12952     12962     12966     12953     12952     12954     12953     12952     12962
     12954     12952     12962     12954     12956     12957     12954     12956     12958
     12955     12954     12956     12956     12958     12959     12956     12958     12960
     12956     12958     12961     12957     12956     12958     12959     12958     12960
     12959     12958     12961     12960     12958     12961     12962     12964     12965
     12962     12966     12967     12962     12966     12968     12963     12962     12964
     12963     12962     12966     12964     12962     12966     12966     12949     12970
     12966     12968     12969     12967     12966     12968     12970     12973     12974
     12971     12970     12972     12971     12970     12973     12972     12970     12973
     12975     12979     12977     12975     12980     12981     12975     12980     12982
     12975     12980     12990     12976     12975     12979     12976     12975     12980
     12977     12993     12990     12977     12993     12994     12977     12993     12995
     12977     12997     12998     12977     12997     12999     12977     12997     13000
     12978     12977     12979     12978     12977     12993     12978     12977     12997
     12979     12975     12980     12979     12977     12993     12979     12977     12997
     12980     12982     12983     12980     12982     12984     12980     12990     12991
     12980     12990     12992     12980     12990     12993     12981     12980     12982
     12981     12980     12990     12982     12980     12990     12982     12984     12985
     12982     12984     12986     12983     12982     12984     12984     12986     12987
     12984     12986     12988     12984     12986     12989     12985     12984     12986
     12987     12986     12988     12987     12986     12989     12988     12986     12989
     12990     12992     13002     12990     12993     12994     12990     12993     12995
     12991     12990     12992     12991     12990     12993     12992     12990     12993
     12992     13002     13003     12992     13002     13006     12992     13002     13007
     12993     12977     12997     12993     12995     12996     12994     12993     12995
     12997     13000     13001     12998     12997     12999     12998     12997     13000
     12999     12997     13000     13002     13006     13004     13002     13007     13008
     13002     13007     13009     13002     13007     13010     13003     13002     13006
     13003     13002     13007     13004     13014     13010     13004     13014     13015
     13004     13014     13016     13004     13018     13019     13004     13018     13020
     13004     13018     13021     13005     13004     13006     13005     13004     13014
     13005     13004     13018     13006     13002     13007     13006     13004     13014
     13006     13004     13018     13007     13009     13023     13007     13010     13011
     13007     13010     13012     13007     13010     13014     13008     13007     13009
     13008     13007     13010     13009     13007     13010     13009     13023     13024
     13009     13023     13027     13009     13023     13028     13010     13012     13013
     13010     13014     13015     13010     13014     13016     13011     13010     13012
     13011     13010     13014     13012     13010     13014     13014     13004     13018
     13014     13016     13017     13015     13014     13016     13018     13021     13022
     13019     13018     13020     13019     13018     13021     13020     13018     13021
     13023     13027     13025     13023     13028     13029     13023     13028     13030
     13023     13028     13031     13024     13023     13027     13024     13023     13028
     13025     13035     13031     13025     13035     13036     13025     13035     13037
     13025     13039     13040     13025     13039     13041     13025     13039     13042
     13026     13025     13027     13026     13025     13035     13026     13025     13039
     13027     13023     13028     13027     13025     13035     13027     13025     13039
     13028     13030     13043     13028     13031     13032     13028     13031     13033
     13028     13031     13035     13029     13028     13030     13029     13028     13031
     13030     13028     13031     13030     13043     13044     13030     13043     13047
     13030     13043     13048     13031     13033     13034     13031     13035     13036
     13031     13035     13037     13032     13031     13033     13032     13031     13035
     13033     13031     13035     13035     13025     13039     13035     13037     13038
     13036     13035     13037     13040     13039     13041     13040     13039     13042
     13041     13039     13042     13043     13047     13045     13043     13048     13049
     13043     13048     13050     13043     13048     13051     13044     13043     13047
     13044     13043     13048     13045     13054     13051     13045     13054     13055
     13045     13054     13056     13045     13058     13059     13045     13058     13060
     13045     13058     13061     13046     13045     13047     13046     13045     13054
     13046     13045     13058     13047     13043     13048     13047     13045     13054
     13047     13045     13058     13048     13050     13062     13048     13051     13052
     13048     13051     13053     13048     13051     13054     13049     13048     13050
     13049     13048     13051     13050     13048     13051     13050     13062     13063
     13050     13062     13066     13050     13062     13067     13051     13053     13090
     13051     13054     13055     13051     13054     13056     13052     13051     13053
     13052     13051     13054     13053     13051     13054     13053     13090     13091
     13053     13090     13094     13053     13090     13095     13054     13045     13058
     13054     13056     13057     13055     13054     13056     13059     13058     13060
     13059     13058     13061     13060     13058     13061     13062     13066     13064
     13062     13067     13068     13062     13067     13069     13062     13067     13077
     13063     13062     13066     13063     13062     13067     13064     13081     13077
     13064     13081     13082     13064     13081     13083     13064     13085     13086
     13064     13085     13087     13064     13085     13088     13065     13064     13066
     13065     13064     13081     13065     13064     13085     13066     13062     13067
     13066     13064     13081     13066     13064     13085     13067     13069     13070
     13067     13069     13071     13067     13077     13078     13067     13077     13079
     13067     13077     13081     13068     13067     13069     13068     13067     13077
     13069     13067     13077     13069     13071     13072     13069     13071     13073
     13070     13069     13071     13071     13073     13074     13071     13073     13075
     13071     13073     13076     13072     13071     13073     13074     13073     13075
     13074     13073     13076     13075     13073     13076     13077     13079     13080
     13077     13081     13082     13077     13081     13083     13078     13077     13079
     13078     13077     13081     13079     13077     13081     13081     13064     13085
     13081     13083     13084     13082     13081     13083     13085     13088     13089
     13086     13085     13087     13086     13085     13088     13087     13085     13088
     13090     13094     13092     13090     13095     13096     13090     13095     13097
     13090     13095     13105     13091     13090     13094     13091     13090     13095
     13092     13108     13105     13092     13108     13109     13092     13108     13110
     13092     13112     13113     13092     13112     13114     13092     13112     13115
     13093     13092     13094     13093     13092     13108     13093     13092     13112
     13094     13090     13095     13094     13092     13108     13094     13092     13112
     13095     13097     13098     13095     13097     13099     13095     13105     13106
     13095     13105     13107     13095     13105     13108     13096     13095     13097
     13096     13095     13105     13097     13095     13105     13097     13099     13100
     13097     13099     13101     13098     13097     13099     13099     13101     13102
     13099     13101     13103     13099     13101     13104     13100     13099     13101
     13102     13101     13103     13102     13101     13104     13103     13101     13104
     13105     13107     13117     13105     13108     13109     13105     13108     13110
     13106     13105     13107     13106     13105     13108     13107     13105     13108
     13107     13117     13118     13107     13117     13121     13107     13117     13122
     13108     13092     13112     13108     13110     13111     13109     13108     13110
     13112     13115     13116     13113     13112     13114     13113     13112     13115
     13114     13112     13115     13117     13121     13119     13117     13122     13123
     13117     13122     13124     13117     13122     13125     13118     13117     13121
     13118     13117     13122     13119     13129     13125     13119     13129     13130
     13119     13129     13131     13119     13133     13134     13119     13133     13135
     13119     13133     13136     13120     13119     13121     13120     13119     13129
     13120     13119     13133     13121     13117     13122     13121     13119     13129
     13121     13119     13133     13122     13124     13138     13122     13125     13126
     13122     13125     13127     13122     13125     13129     13123     13122     13124
     13123     13122     13125     13124     13122     13125     13124     13138     13139
     13124     13138     13142     13124     13138     13143     13125     13127     13128
     13125     13129     13130     13125     13129     13131     13126     13125     13127
     13126     13125     13129     13127     13125     13129     13129     13119     13133
     13129     13131     13132     13130     13129     13131     13133     13136     13137
     13134     13133     13135     13134     13133     13136     13135     13133     13136
     13138     13142     13140     13138     13143     13144     13138     13143     13145
     13138     13143     13146     13139     13138     13142     13139     13138     13143
     13140     13150     13146     13140     13150     13151     13140     13150     13152
     13140     13154     13155     13140     13154     13156     13140     13154     13157
     13141     13140     13142     13141     13140     13150     13141     13140     13154
     13142     13138     13143     13142     13140     13150     13142     13140     13154
     13143     13145     13158     13143     13146     13147     13143     13146     13148
     13143     13146     13150     13144     13143     13145     13144     13143     13146
     13145     13143     13146     13145     13158     13159     13145     13158     13162
     13145     13158     13163     13146     13148     13149     13146     13150     13151
     13146     13150     13152     13147     13146     13148     13147     13146     13150
     13148     13146     13150     13150     13140     13154     13150     13152     13153
     13151     13150     13152     13155     13154     13156     13155     13154     13157
     13156     13154     13157     13158     13162     13160     13158     13163     13164
     13158     13163     13165     13158     13163     13166     13159     13158     13162
     13159     13158     13163     13160     13169     13166     13160     13169     13170
     13160     13169     13171     13160     13173     13174     13160     13173     13175
     13160     13173     13176     13161     13160     13162     13161     13160     13169
     13161     13160     13173     13162     13158     13163     13162     13160     13169
     13162     13160     13173     13163     13165     13177     13163     13166     13167
     13163     13166     13168     13163     13166     13169     13164     13163     13165
     13164     13163     13166     13165     13163     13166     13165     13177     13178
     13165     13177     13181     13165     13177     13182     13166     13168     13205
     13166     13169     13170     13166     13169     13171     13167     13166     13168
     13167     13166     13169     13168     13166     13169     13168     13205     13206
     13168     13205     13209     13168     13205     13210     13169     13160     13173
     13169     13171     13172     13170     13169     13171     13174     13173     13175
     13174     13173     13176     13175     13173     13176     13177     13181     13179
     13177     13182     13183     13177     13182     13184     13177     13182     13192
     13178     13177     13181     13178     13177     13182     13179     13196     13192
     13179     13196     13197     13179     13196     13198     13179     13200     13201
     13179     13200     13202     13179     13200     13203     13180     13179     13181
     13180     13179     13196     13180     13179     13200     13181     13177     13182
     13181     13179     13196     13181     13179     13200     13182     13184     13185
     13182     13184     13186     13182     13192     13193     13182     13192     13194
     13182     13192     13196     13183     13182     13184     13183     13182     13192
     13184     13182     13192     13184     13186     13187     13184     13186     13188
     13185     13184     13186     13186     13188     13189     13186     13188     13190
     13186     13188     13191     13187     13186     13188     13189     13188     13190
     13189     13188     13191     13190     13188     13191     13192     13194     13195
     13192     13196     13197     13192     13196     13198     13193     13192     13194
     13193     13192     13196     13194     13192     13196     13196     13179     13200
     13196     13198     13199     13197     13196     13198     13200     13203     13204
     13201     13200     13202     13201     13200     13203     13202     13200     13203
     13205     13209     13207     13205     13210     13211     13205     13210     13212
     13205     13210     13220     13206     13205     13209     13206     13205     13210
     13207     13223     13220     13207     13223     13224     13207     13223     13225
     13207     13227     13228     13207     13227     13229     13207     13227     13230
     13208     13207     13209     13208     13207     13223     13208     13207     13227
     13209     13205     13210     13209     13207     13223     13209     13207     13227
     13210     13212     13213     13210     13212     13214     13210     13220     13221
     13210     13220     13222     13210     13220     13223     13211     13210     13212
     13211     13210     13220     13212     13210     13220     13212     13214     13215
     13212     13214     13216     13213     13212     13214     13214     13216     13217
     13214     13216     13218     13214     13216     13219     13215     13214     13216
     13217     13216     13218     13217     13216     13219     13218     13216     13219
     13220     13222     13232     13220     13223     13224     13220     13223     13225
     13221     13220     13222     13221     13220     13223     13222     13220     13223
     13222     13232     13233     13222     13232     13236     13222     13232     13237
     13223     13207     13227     13223     13225     13226     13224     13223     13225
     13227     13230     13231     13228     13227     13229     13228     13227     13230
     13229     13227     13230     13232     13236     13234     13232     13237     13238
     13232     13237     13239     13232     13237     13240     13233     13232     13236
     13233     13232     13237     13234     13244     13240     13234     13244     13245
     13234     13244     13246     13234     13248     13249     13234     13248     13250
     13234     13248     13251     13235     13234     13236     13235     13234     13244
     13235     13234     13248     13236     13232     13237     13236     13234     13244
     13236     13234     13248     13237     13239     13253     13237     13240     13241
     13237     13240     13242     13237     13240     13244     13238     13237     13239
     13238     13237     13240     13239     13237     13240     13239     13253     13254
     13239     13253     13257     13239     13253     13258     13240     13242     13243
     13240     13244     13245     13240     13244     13246     13241     13240     13242
     13241     13240     13244     13242     13240     13244     13244     13234     13248
     13244     13246     13247     13245     13244     13246     13248     13251     13252
     13249     13248     13250     13249     13248     13251     13250     13248     13251
     13253     13257     13255     13253     13258     13259     13253     13258     13260
     13253     13258     13261     13254     13253     13257     13254     13253     13258
     13255     13265     13261     13255     13265     13266     13255     13265     13267
     13255     13269     13270     13255     13269     13271     13255     13269     13272
     13256     13255     13257     13256     13255     13265     13256     13255     13269
     13257     13253     13258     13257     13255     13265     13257     13255     13269
     13258     13260     13273     13258     13261     13262     13258     13261     13263
     13258     13261     13265     13259     13258     13260     13259     13258     13261
     13260     13258     13261     13260     13273     13274     13260     13273     13277
     13260     13273     13278     13261     13263     13264     13261     13265     13266
     13261     13265     13267     13262     13261     13263     13262     13261     13265
     13263     13261     13265     13265     13255     13269     13265     13267     13268
     13266     13265     13267     13270     13269     13271     13270     13269     13272
     13271     13269     13272     13273     13277     13275     13273     13278     13279
     13273     13278     13280     13273     13278     13281     13274     13273     13277
     13274     13273     13278     13275     13285     13281     13275     13285     13286
     13275     13285     13287     13275     13289     13290     13275     13289     13291
     13275     13289     13292     13276     13275     13277     13276     13275     13285
     13276     13275     13289     13277     13273     13278     13277     13275     13285
     13277     13275     13289     13278     13280     13293     13278     13281     13282
     13278     13281     13283     13278     13281     13285     13279     13278     13280
     13279     13278     13281     13280     13278     13281     13280     13293     13294
     13280     13293     13297     13280     13293     13298     13281     13283     13284
     13281     13285     13286     13281     13285     13287     13282     13281     13283
     13282     13281     13285     13283     13281     13285     13285     13275     13289
     13285     13287     13288     13286     13285     13287     13290     13289     13291
     13290     13289     13292     13291     13289     13292     13293     13297     13295
     13293     13298     13299     13293     13298     13300     13293     13298     13308
     13294     13293     13297     13294     13293     13298     13295     13312     13308
     13295     13312     13313     13295     13312     13314     13295     13316     13317
     13295     13316     13318     13295     13316     13319     13296     13295     13297
     13296     13295     13312     13296     13295     13316     13297     13293     13298
     13297     13295     13312     13297     13295     13316     13298     13300     13301
     13298     13300     13302     13298     13308     13309     13298     13308     13310
     13298     13308     13312     13299     13298     13300     13299     13298     13308
     13300     13298     13308     13300     13302     13303     13300     13302     13304
     13301     13300     13302     13302     13304     13305     13302     13304     13306
     13302     13304     13307     13303     13302     13304     13305     13304     13306
     13305     13304     13307     13306     13304     13307     13308     13310     13311
     13308     13312     13313     13308     13312     13314     13309     13308     13310
     13309     13308     13312     13310     13308     13312     13312     13295     13316
     13312     13314     13315     13313     13312     13314     13316     13319     13320
     13317     13316     13318     13317     13316     13319     13318     13316     13319
     13321     13323     13322     13321     13323     13324     13321     13323     13325
     13322     13323     13324     13322     13323     13325     13322     13620     13617
     13322     13620     13623     13322     13620     13624     13323     13322     13620
     13323     13325     13326     13323     13325     13327     13323     13325     13334
     13324     13323     13325     13325     13326     13328     13325     13334     13335
     13325     13334     13336     13325     13334     13341     13326     13325     13327
     13326     13325     13334     13326     13328     13329     13326     13328     13330
     13326     13328     13349     13327     13325     13334     13328     13330     13331
     13328     13349     13341     13328     13349     13350     13328     13349     13351
     13329     13328     13330     13329     13328     13349     13330     13328     13349
     13330     13331     13332     13330     13331     13333     13330     13331     13357
     13331     13357     13353     13331     13357     13358     13331     13357     13359
     13332     13331     13333     13332     13331     13357     13333     13331     13357
     13334     13336     13337     13334     13341     13342     13334     13341     13343
     13334     13341     13349     13335     13334     13336     13335     13334     13341
     13336     13334     13341     13336     13337     13338     13336     13337     13339
     13336     13337     13340     13338     13337     13339     13338     13337     13340
     13339     13337     13340     13341     13342     13344     13341     13349     13350
     13341     13349     13351     13342     13341     13343     13342     13341     13349
     13342     13344     13345     13342     13344     13346     13343     13341     13349
     13344     13346     13347     13344     13346     13348     13344     13346     13379
     13345     13344     13346     13346     13379     13380     13346     13379     13381
     13346     13379     13424     13347     13346     13348     13347     13346     13379
     13348     13346     13379     13349     13351     13352     13349     13351     13458
     13350     13349     13351     13351     13458     13459     13351     13458     13460
     13352     13351     13458     13353     13355     13356     13353     13357     13358
     13353     13357     13359     13353     13367     13368     13353     13367     13369
     13353     13367     13375     13354     13353     13355     13354     13353     13357
     13354     13353     13367     13355     13353     13357     13355     13353     13367
     13357     13353     13367     13357     13359     13360     13358     13357     13359
     13359     13360     13361     13359     13360     13362     13359     13360     13375
     13360     13362     13366     13360     13375     13367     13360     13375     13376
     13360     13375     13377     13361     13360     13362     13361     13360     13375
     13362     13360     13375     13362     13366     13363     13362     13366     13364
     13362     13366     13365     13363     13366     13364     13363     13366     13365
     13364     13366     13365     13367     13369     13370     13367     13375     13376
     13367     13375     13377     13368     13367     13369     13368     13367     13375
     13369     13367     13375     13369     13370     13371     13369     13370     13372
     13370     13372     13373     13370     13372     13374     13370     13372     13536
     13371     13370     13372     13372     13536     13537     13372     13536     13538
     13372     13536     13540     13373     13372     13374     13373     13372     13536
     13374     13372     13536     13375     13377     13378     13375     13377     13574
     13376     13375     13377     13377     13574     13575     13377     13574     13576
     13378     13377     13574     13379     13381     13382     13379     13424     13425
     13379     13424     13426     13379     13424     13427     13380     13379     13381
     13380     13379     13424     13381     13379     13424     13381     13382     13383
     13381     13382     13384     13382     13384     13385     13382     13384     13386
     13382     13384     13387     13383     13382     13384     13384     13387     13388
     13384     13387     13389     13384     13387     13390     13385     13384     13386
     13385     13384     13387     13386     13384     13387     13387     13390     13391
     13387     13390     13392     13387     13390     13393     13388     13387     13389
     13388     13387     13390     13389     13387     13390     13390     13393     13394
     13390     13393     13395     13390     13393     13396     13391     13390     13392
     13391     13390     13393     13392     13390     13393     13393     13396     13397
     13393     13396     13398     13393     13396     13399     13394     13393     13395
     13394     13393     13396     13395     13393     13396     13396     13399     13400
     13396     13399     13401     13396     13399     13402     13397     13396     13398
     13397     13396     13399     13398     13396     13399     13399     13402     13403
     13399     13402     13404     13399     13402     13405     13400     13399     13401
     13400     13399     13402     13401     13399     13402     13402     13405     13406
     13402     13405     13407     13402     13405     13408     13403     13402     13404
     13403     13402     13405     13404     13402     13405     13405     13408     13409
     13405     13408     13410     13405     13408     13411     13406     13405     13407
     13406     13405     13408     13407     13405     13408     13408     13411     13412
     13408     13411     13413     13408     13411     13414     13409     13408     13410
     13409     13408     13411     13410     13408     13411     13411     13414     13415
     13411     13414     13416     13411     13414     13417     13412     13411     13413
     13412     13411     13414     13413     13411     13414     13414     13417     13418
     13414     13417     13419     13414     13417     13420     13415     13414     13416
     13415     13414     13417     13416     13414     13417     13417     13420     13421
     13417     13420     13422     13417     13420     13423     13418     13417     13419
     13418     13417     13420     13419     13417     13420     13421     13420     13422
     13421     13420     13423     13422     13420     13423     13424     13427     13428
     13424     13427     13429     13424     13427     13430     13425     13424     13426
     13425     13424     13427     13426     13424     13427     13427     13430     13431
     13427     13430     13432     13427     13430     13433     13428     13427     13429
     13428     13427     13430     13429     13427     13430     13430     13433     13434
     13430     13433     13435     13430     13433     13436     13431     13430     13432
     13431     13430     13433     13432     13430     13433     13433     13436     13437
     13433     13436     13438     13433     13436     13439     13434     13433     13435
     13434     13433     13436     13435     13433     13436     13436     13439     13440
     13436     13439     13441     13436     13439     13442     13437     13436     13438
     13437     13436     13439     13438     13436     13439     13439     13442     13443
     13439     13442     13444     13439     13442     13445     13440     13439     13441
     13440     13439     13442     13441     13439     13442     13442     13445     13446
     13442     13445     13447     13442     13445     13448     13443     13442     13444
     13443     13442     13445     13444     13442     13445     13445     13448     13449
     13445     13448     13450     13445     13448     13451     13446     13445     13447
     13446     13445     13448     13447     13445     13448     13448     13451     13452
     13448     13451     13453     13448     13451     13454     13449     13448     13450
     13449     13448     13451     13450     13448     13451     13451     13454     13455
     13451     13454     13456     13451     13454     13457     13452     13451     13453
     13452     13451     13454     13453     13451     13454     13455     13454     13456
     13455     13454     13457     13456     13454     13457     13458     13460     13461
     13458     13460     13462     13458     13460     13463     13459     13458     13460
     13460     13463     13464     13460     13463     13465     13460     13463     13502
     13461     13460     13462     13461     13460     13463     13462     13460     13463
     13463     13465     13466     13463     13502     13503     13463     13502     13504
     13463     13502     13505     13464     13463     13465     13464     13463     13502
     13465     13463     13502     13465     13466     13467     13465     13466     13468
     13466     13468     13469     13466     13468     13470     13466     13468     13471
     13467     13466     13468     13468     13471     13472     13468     13471     13473
     13468     13471     13474     13469     13468     13470     13469     13468     13471
     13470     13468     13471     13471     13474     13475     13471     13474     13476
     13471     13474     13477     13472     13471     13473     13472     13471     13474
     13473     13471     13474     13474     13477     13478     13474     13477     13479
     13474     13477     13480     13475     13474     13476     13475     13474     13477
     13476     13474     13477     13477     13480     13481     13477     13480     13482
     13477     13480     13483     13478     13477     13479     13478     13477     13480
     13479     13477     13480     13480     13483     13484     13480     13483     13485
     13480     13483     13486     13481     13480     13482     13481     13480     13483
     13482     13480     13483     13483     13486     13487     13483     13486     13488
     13483     13486     13489     13484     13483     13485     13484     13483     13486
     13485     13483     13486     13486     13489     13490     13486     13489     13491
     13486     13489     13492     13487     13486     13488     13487     13486     13489
     13488     13486     13489     13489     13492     13493     13489     13492     13494
     13489     13492     13495     13490     13489     13491     13490     13489     13492
     13491     13489     13492     13492     13495     13496     13492     13495     13497
     13492     13495     13498     13493     13492     13494     13493     13492     13495
     13494     13492     13495     13495     13498     13499     13495     13498     13500
     13495     13498     13501     13496     13495     13497     13496     13495     13498
     13497     13495     13498     13499     13498     13500     13499     13498     13501
     13500     13498     13501     13502     13505     13506     13502     13505     13507
     13502     13505     13508     13503     13502     13504     13503     13502     13505
     13504     13502     13505     13505     13508     13509     13505     13508     13510
     13505     13508     13511     13506     13505     13507     13506     13505     13508
     13507     13505     13508     13508     13511     13512     13508     13511     13513
     13508     13511     13514     13509     13508     13510     13509     13508     13511
     13510     13508     13511     13511     13514     13515     13511     13514     13516
     13511     13514     13517     13512     13511     13513     13512     13511     13514
     13513     13511     13514     13514     13517     13518     13514     13517     13519
     13514     13517     13520     13515     13514     13516     13515     13514     13517
     13516     13514     13517     13517     13520     13521     13517     13520     13522
     13517     13520     13523     13518     13517     13519     13518     13517     13520
     13519     13517     13520     13520     13523     13524     13520     13523     13525
     13520     13523     13526     13521     13520     13522     13521     13520     13523
     13522     13520     13523     13523     13526     13527     13523     13526     13528
     13523     13526     13529     13524     13523     13525     13524     13523     13526
     13525     13523     13526     13526     13529     13530     13526     13529     13531
     13526     13529     13532     13527     13526     13528     13527     13526     13529
     13528     13526     13529     13529     13532     13533     13529     13532     13534
     13529     13532     13535     13530     13529     13531     13530     13529     13532
     13531     13529     13532     13533     13532     13534     13533     13532     13535
     13534     13532     13535     13536     13538     13539     13536     13540     13541
     13536     13540     13542     13536     13540     13543     13537     13536     13538
     13537     13536     13540     13538     13536     13540     13540     13543     13544
     13540     13543     13545     13540     13543     13546     13541     13540     13542
     13541     13540     13543     13542     13540     13543     13543     13546     13547
     13543     13546     13548     13543     13546     13549     13544     13543     13545
     13544     13543     13546     13545     13543     13546     13546     13549     13550
     13546     13549     13551     13546     13549     13552     13547     13546     13548
     13547     13546     13549     13548     13546     13549     13549     13552     13553
     13549     13552     13554     13549     13552     13555     13550     13549     13551
     13550     13549     13552     13551     13549     13552     13552     13555     13556
     13552     13555     13557     13552     13555     13558     13553     13552     13554
     13553     13552     13555     13554     13552     13555     13555     13558     13559
     13555     13558     13560     13555     13558     13561     13556     13555     13557
     13556     13555     13558     13557     13555     13558     13558     13561     13562
     13558     13561     13563     13558     13561     13564     13559     13558     13560
     13559     13558     13561     13560     13558     13561     13561     13564     13565
     13561     13564     13566     13561     13564     13567     13562     13561     13563
     13562     13561     13564     13563     13561     13564     13564     13567     13568
     13564     13567     13569     13564     13567     13570     13565     13564     13566
     13565     13564     13567     13566     13564     13567     13567     13570     13571
     13567     13570     13572     13567     13570     13573     13568     13567     13569
     13568     13567     13570     13569     13567     13570     13571     13570     13572
     13571     13570     13573     13572     13570     13573     13574     13576     13577
     13574     13576     13578     13574     13576     13579     13575     13574     13576
     13576     13579     13580     13576     13579     13581     13576     13579     13583
     13577     13576     13578     13577     13576     13579     13578     13576     13579
     13579     13581     13582     13579     13583     13584     13579     13583     13585
     13579     13583     13586     13580     13579     13581     13580     13579     13583
     13581     13579     13583     13583     13586     13587     13583     13586     13588
     13583     13586     13589     13584     13583     13585     13584     13583     13586
     13585     13583     13586     13586     13589     13590     13586     13589     13591
     13586     13589     13592     13587     13586     13588     13587     13586     13589
     13588     13586     13589     13589     13592     13593     13589     13592     13594
     13589     13592     13595     13590     13589     13591     13590     13589     13592
     13591     13589     13592     13592     13595     13596     13592     13595     13597
     13592     13595     13598     13593     13592     13594     13593     13592     13595
     13594     13592     13595     13595     13598     13599     13595     13598     13600
     13595     13598     13601     13596     13595     13597     13596     13595     13598
     13597     13595     13598     13598     13601     13602     13598     13601     13603
     13598     13601     13604     13599     13598     13600     13599     13598     13601
     13600     13598     13601     13601     13604     13605     13601     13604     13606
     13601     13604     13607     13602     13601     13603     13602     13601     13604
     13603     13601     13604     13604     13607     13608     13604     13607     13609
     13604     13607     13610     13605     13604     13606     13605     13604     13607
     13606     13604     13607     13607     13610     13611     13607     13610     13612
     13607     13610     13613     13608     13607     13609     13608     13607     13610
     13609     13607     13610     13610     13613     13614     13610     13613     13615
     13610     13613     13616     13611     13610     13612     13611     13610     13613
     13612     13610     13613     13614     13613     13615     13614     13613     13616
     13615     13613     13616     13617     13620     13623     13617     13620     13624
     13618     13617     13619     13618     13617     13620     13619     13617     13620
     13620     13623     13621     13620     13624     13625     13620     13624     13626
     13620     13624     13627     13621     13630     13627     13621     13630     13631
     13621     13630     13632     13621     13633     13634     13621     13633     13635
     13621     13633     13637     13622     13621     13623     13622     13621     13630
     13622     13621     13633     13623     13620     13624     13623     13621     13630
     13623     13621     13633     13624     13627     13628     13624     13627     13629
     13624     13627     13630     13625     13624     13626     13625     13624     13627
     13626     13624     13627     13627     13629     13645     13627     13630     13631
     13627     13630     13632     13628     13627     13629     13628     13627     13630
     13629     13627     13630     13629     13645     13642     13629     13645     13648
     13629     13645     13649     13630     13621     13633     13630     13632     13669
     13631     13630     13632     13632     13669     13670     13632     13669     13673
     13632     13669     13674     13633     13635     13636     13633     13637     13638
     13633     13637     13639     13633     13637     13640     13634     13633     13635
     13634     13633     13637     13635     13633     13637     13637     13640     13641
     13638     13637     13639     13638     13637     13640     13639     13637     13640
     13642     13645     13648     13642     13645     13649     13643     13642     13644
     13643     13642     13645     13644     13642     13645     13645     13648     13646
     13645     13649     13650     13645     13649     13651     13645     13649     13652
     13646     13656     13652     13646     13656     13657     13646     13656     13658
     13646     13660     13661     13646     13660     13662     13646     13660     13664
     13647     13646     13648     13647     13646     13656     13647     13646     13660
     13648     13645     13649     13648     13646     13656     13648     13646     13660
     13649     13652     13653     13649     13652     13654     13649     13652     13656
     13650     13649     13651     13650     13649     13652     13651     13649     13652
     13652     13654     13655     13652     13656     13657     13652     13656     13658
     13653     13652     13654     13653     13652     13656     13654     13652     13656
     13656     13646     13660     13656     13658     13659     13657     13656     13658
     13660     13662     13663     13660     13664     13665     13660     13664     13666
     13660     13664     13667     13661     13660     13662     13661     13660     13664
     13662     13660     13664     13664     13667     13668     13665     13664     13666
     13665     13664     13667     13666     13664     13667     13669     13673     13671
     13669     13674     13675     13669     13674     13676     13669     13674     13678
     13670     13669     13673     13670     13669     13674     13671     13681     13678
     13671     13681     13682     13671     13681     13683     13671     13688     13689
     13671     13688     13690     13671     13688     13692     13672     13671     13673
     13672     13671     13681     13672     13671     13688     13673     13669     13674
     13673     13671     13681     13673     13671     13688     13674     13676     13677
     13674     13678     13679     13674     13678     13680     13674     13678     13681
     13675     13674     13676     13675     13674     13678     13676     13674     13678
     13678     13680     13697     13678     13681     13682     13678     13681     13683
     13679     13678     13680     13679     13678     13681     13680     13678     13681
     13680     13697     13698     13680     13697     13701     13680     13697     13702
     13681     13671     13688     13681     13683     13684     13682     13681     13683
     13683     13684     13685     13683     13684     13686     13683     13684     13687
     13685     13684     13686     13685     13684     13687     13686     13684     13687
     13688     13690     13691     13688     13692     13693     13688     13692     13694
     13688     13692     13695     13689     13688     13690     13689     13688     13692
     13690     13688     13692     13692     13695     13696     13693     13692     13694
     13693     13692     13695     13694     13692     13695     13697     13701     13699
     13697     13702     13703     13697     13702     13704     13697     13702     13706
     13698     13697     13701     13698     13697     13702     13699     13709     13706
     13699     13709     13710     13699     13709     13711     13699     13716     13717
     13699     13716     13718     13699     13716     13720     13700     13699     13701
     13700     13699     13709     13700     13699     13716     13701     13697     13702
     13701     13699     13709     13701     13699     13716     13702     13704     13705
     13702     13706     13707     13702     13706     13708     13702     13706     13709
     13703     13702     13704     13703     13702     13706     13704     13702     13706
     13706     13708     13750     13706     13709     13710     13706     13709     13711
     13707     13706     13708     13707     13706     13709     13708     13706     13709
     13708     13750     13751     13708     13750     13754     13708     13750     13755
     13709     13699     13716     13709     13711     13712     13710     13709     13711
     13711     13712     13713     13711     13712     13714     13711     13712     13715
     13713     13712     13714     13713     13712     13715     13714     13712     13715
     13716     13718     13719     13716     13720     13721     13716     13720     13722
     13716     13720     13723     13717     13716     13718     13717     13716     13720
     13718     13716     13720     13720     13723     13724     13721     13720     13722
     13721     13720     13723     13722     13720     13723     13723     13724     13725
     13723     13724     13728     13723     13724     13729     13724     13728     13726
     13724     13729     13730     13724     13729     13731     13724     13729     13733
     13725     13724     13728     13725     13724     13729     13726     13737     13733
     13726     13737     13738     13726     13737     13739     13726     13741     13742
     13726     13741     13743     13726     13741     13745     13727     13726     13728
     13727     13726     13737     13727     13726     13741     13728     13724     13729
     13728     13726     13737     13728     13726     13741     13729     13731     13732
     13729     13733     13734     13729     13733     13735     13729     13733     13737
     13730     13729     13731     13730     13729     13733     13731     13729     13733
     13733     13735     13736     13733     13737     13738     13733     13737     13739
     13734     13733     13735     13734     13733     13737     13735     13733     13737
     13737     13726     13741     13737     13739     13740     13738     13737     13739
     13741     13743     13744     13741     13745     13746     13741     13745     13747
     13741     13745     13748     13742     13741     13743     13742     13741     13745
     13743     13741     13745     13745     13748     13749     13746     13745     13747
     13746     13745     13748     13747     13745     13748     13750     13754     13752
     13750     13755     13756     13750     13755     13757     13750     13755     13759
     13751     13750     13754     13751     13750     13755     13752     13762     13759
     13752     13762     13763     13752     13762     13764     13752     13766     13767
     13752     13766     13768     13752     13766     13769     13753     13752     13754
     13753     13752     13762     13753     13752     13766     13754     13750     13755
     13754     13752     13762     13754     13752     13766     13755     13757     13758
     13755     13759     13760     13755     13759     13761     13755     13759     13762
     13756     13755     13757     13756     13755     13759     13757     13755     13759
     13759     13761     13771     13759     13762     13763     13759     13762     13764
     13760     13759     13761     13760     13759     13762     13761     13759     13762
     13761     13771     13772     13761     13771     13775     13761     13771     13776
     13762     13752     13766     13762     13764     13765     13763     13762     13764
     13766     13769     13770     13767     13766     13768     13767     13766     13769
     13768     13766     13769     13771     13775     13773     13771     13776     13777
     13771     13776     13778     13771     13776     13779     13772     13771     13775
     13772     13771     13776     13773     13782     13779     13773     13782     13783
     13773     13782     13784     13773     13786     13787     13773     13786     13788
     13773     13786     13789     13774     13773     13775     13774     13773     13782
     13774     13773     13786     13775     13771     13776     13775     13773     13782
     13775     13773     13786     13776     13778     13791     13776     13779     13780
     13776     13779     13781     13776     13779     13782     13777     13776     13778
     13777     13776     13779     13778     13776     13779     13778     13791     13792
     13778     13791     13795     13778     13791     13796     13779     13781     13834
     13779     13782     13783     13779     13782     13784     13780     13779     13781
     13780     13779     13782     13781     13779     13782     13781     13834     13835
     13781     13834     13838     13781     13834     13839     13782     13773     13786
     13782     13784     13785     13783     13782     13784     13786     13789     13790
     13787     13786     13788     13787     13786     13789     13788     13786     13789
     13791     13795     13793     13791     13796     13797     13791     13796     13798
     13791     13796     13799     13792     13791     13795     13792     13791     13796
     13793     13803     13799     13793     13803     13804     13793     13803     13805
     13793     13807     13808     13793     13807     13809     13793     13807     13810
     13794     13793     13795     13794     13793     13803     13794     13793     13807
     13795     13791     13796     13795     13793     13803     13795     13793     13807
     13796     13798     13812     13796     13799     13800     13796     13799     13801
     13796     13799     13803     13797     13796     13798     13797     13796     13799
     13798     13796     13799     13798     13812     13813     13798     13812     13816
     13798     13812     13817     13799     13801     13802     13799     13803     13804
     13799     13803     13805     13800     13799     13801     13800     13799     13803
     13801     13799     13803     13803     13793     13807     13803     13805     13806
     13804     13803     13805     13807     13810     13811     13808     13807     13809
     13808     13807     13810     13809     13807     13810     13812     13816     13814
     13812     13817     13818     13812     13817     13819     13812     13817     13821
     13813     13812     13816     13813     13812     13817     13814     13825     13821
     13814     13825     13826     13814     13825     13827     13814     13829     13830
     13814     13829     13831     13814     13829     13832     13815     13814     13816
     13815     13814     13825     13815     13814     13829     13816     13812     13817
     13816     13814     13825     13816     13814     13829     13817     13819     13820
     13817     13821     13822     13817     13821     13823     13817     13821     13825
     13818     13817     13819     13818     13817     13821     13819     13817     13821
     13821     13823     13824     13821     13825     13826     13821     13825     13827
     13822     13821     13823     13822     13821     13825     13823     13821     13825
     13825     13814     13829     13825     13827     13828     13826     13825     13827
     13829     13832     13833     13830     13829     13831     13830     13829     13832
     13831     13829     13832     13834     13838     13836     13834     13839     13840
     13834     13839     13841     13834     13839     13843     13835     13834     13838
     13835     13834     13839     13836     13846     13843     13836     13846     13847
     13836     13846     13848     13836     13850     13851     13836     13850     13852
     13836     13850     13853     13837     13836     13838     13837     13836     13846
     13837     13836     13850     13838     13834     13839     13838     13836     13846
     13838     13836     13850     13839     13841     13842     13839     13843     13844
     13839     13843     13845     13839     13843     13846     13840     13839     13841
     13840     13839     13843     13841     13839     13843     13843     13845     13855
     13843     13846     13847     13843     13846     13848     13844     13843     13845
     13844     13843     13846     13845     13843     13846     13845     13855     13856
     13845     13855     13859     13845     13855     13860     13846     13836     13850
     13846     13848     13849     13847     13846     13848     13850     13853     13854
     13851     13850     13852     13851     13850     13853     13852     13850     13853
     13855     13859     13857     13855     13860     13861     13855     13860     13862
     13855     13860     13870     13856     13855     13859     13856     13855     13860
     13857     13873     13870     13857     13873     13874     13857     13873     13875
     13857     13877     13878     13857     13877     13879     13857     13877     13880
     13858     13857     13859     13858     13857     13873     13858     13857     13877
     13859     13855     13860     13859     13857     13873     13859     13857     13877
     13860     13862     13863     13860     13862     13864     13860     13870     13871
     13860     13870     13872     13860     13870     13873     13861     13860     13862
     13861     13860     13870     13862     13860     13870     13862     13864     13865
     13862     13864     13866     13863     13862     13864     13864     13866     13867
     13864     13866     13868     13864     13866     13869     13865     13864     13866
     13867     13866     13868     13867     13866     13869     13868     13866     13869
     13870     13872     13882     13870     13873     13874     13870     13873     13875
     13871     13870     13872     13871     13870     13873     13872     13870     13873
     13872     13882     13883     13872     13882     13886     13872     13882     13887
     13873     13857     13877     13873     13875     13876     13874     13873     13875
     13877     13880     13881     13878     13877     13879     13878     13877     13880
     13879     13877     13880     13882     13886     13884     13882     13887     13888
     13882     13887     13889     13882     13887     13890     13883     13882     13886
     13883     13882     13887     13884     13894     13890     13884     13894     13895
     13884     13894     13896     13884     13898     13899     13884     13898     13900
     13884     13898     13901     13885     13884     13886     13885     13884     13894
     13885     13884     13898     13886     13882     13887     13886     13884     13894
     13886     13884     13898     13887     13889     13903     13887     13890     13891
     13887     13890     13892     13887     13890     13894     13888     13887     13889
     13888     13887     13890     13889     13887     13890     13889     13903     13904
     13889     13903     13907     13889     13903     13908     13890     13892     13893
     13890     13894     13895     13890     13894     13896     13891     13890     13892
     13891     13890     13894     13892     13890     13894     13894     13884     13898
     13894     13896     13897     13895     13894     13896     13898     13901     13902
     13899     13898     13900     13899     13898     13901     13900     13898     13901
     13903     13907     13905     13903     13908     13909     13903     13908     13910
     13903     13908     13911     13904     13903     13907     13904     13903     13908
     13905     13915     13911     13905     13915     13916     13905     13915     13917
     13905     13919     13920     13905     13919     13921     13905     13919     13922
     13906     13905     13907     13906     13905     13915     13906     13905     13919
     13907     13903     13908     13907     13905     13915     13907     13905     13919
     13908     13910     13923     13908     13911     13912     13908     13911     13913
     13908     13911     13915     13909     13908     13910     13909     13908     13911
     13910     13908     13911     13910     13923     13924     13910     13923     13927
     13910     13923     13928     13911     13913     13914     13911     13915     13916
     13911     13915     13917     13912     13911     13913     13912     13911     13915
     13913     13911     13915     13915     13905     13919     13915     13917     13918
     13916     13915     13917     13920     13919     13921     13920     13919     13922
     13921     13919     13922     13923     13927     13925     13923     13928     13929
     13923     13928     13930     13923     13928     13931     13924     13923     13927
     13924     13923     13928     13925     13934     13931     13925     13934     13935
     13925     13934     13936     13925     13938     13939     13925     13938     13940
     13925     13938     13941     13926     13925     13927     13926     13925     13934
     13926     13925     13938     13927     13923     13928     13927     13925     13934
     13927     13925     13938     13928     13930     13942     13928     13931     13932
     13928     13931     13933     13928     13931     13934     13929     13928     13930
     13929     13928     13931     13930     13928     13931     13930     13942     13943
     13930     13942     13946     13930     13942     13947     13931     13933     13970
     13931     13934     13935     13931     13934     13936     13932     13931     13933
     13932     13931     13934     13933     13931     13934     13933     13970     13971
     13933     13970     13974     13933     13970     13975     13934     13925     13938
     13934     13936     13937     13935     13934     13936     13939     13938     13940
     13939     13938     13941     13940     13938     13941     13942     13946     13944
     13942     13947     13948     13942     13947     13949     13942     13947     13957
     13943     13942     13946     13943     13942     13947     13944     13961     13957
     13944     13961     13962     13944     13961     13963     13944     13965     13966
     13944     13965     13967     13944     13965     13968     13945     13944     13946
     13945     13944     13961     13945     13944     13965     13946     13942     13947
     13946     13944     13961     13946     13944     13965     13947     13949     13950
     13947     13949     13951     13947     13957     13958     13947     13957     13959
     13947     13957     13961     13948     13947     13949     13948     13947     13957
     13949     13947     13957     13949     13951     13952     13949     13951     13953
     13950     13949     13951     13951     13953     13954     13951     13953     13955
     13951     13953     13956     13952     13951     13953     13954     13953     13955
     13954     13953     13956     13955     13953     13956     13957     13959     13960
     13957     13961     13962     13957     13961     13963     13958     13957     13959
     13958     13957     13961     13959     13957     13961     13961     13944     13965
     13961     13963     13964     13962     13961     13963     13965     13968     13969
     13966     13965     13967     13966     13965     13968     13967     13965     13968
     13970     13974     13972     13970     13975     13976     13970     13975     13977
     13970     13975     13985     13971     13970     13974     13971     13970     13975
     13972     13988     13985     13972     13988     13989     13972     13988     13990
     13972     13992     13993     13972     13992     13994     13972     13992     13995
     13973     13972     13974     13973     13972     13988     13973     13972     13992
     13974     13970     13975     13974     13972     13988     13974     13972     13992
     13975     13977     13978     13975     13977     13979     13975     13985     13986
     13975     13985     13987     13975     13985     13988     13976     13975     13977
     13976     13975     13985     13977     13975     13985     13977     13979     13980
     13977     13979     13981     13978     13977     13979     13979     13981     13982
     13979     13981     13983     13979     13981     13984     13980     13979     13981
     13982     13981     13983     13982     13981     13984     13983     13981     13984
     13985     13987     13997     13985     13988     13989     13985     13988     13990
     13986     13985     13987     13986     13985     13988     13987     13985     13988
     13987     13997     13998     13987     13997     14001     13987     13997     14002
     13988     13972     13992     13988     13990     13991     13989     13988     13990
     13992     13995     13996     13993     13992     13994     13993     13992     13995
     13994     13992     13995     13997     14001     13999     13997     14002     14003
     13997     14002     14004     13997     14002     14005     13998     13997     14001
     13998     13997     14002     13999     14009     14005     13999     14009     14010
     13999     14009     14011     13999     14013     14014     13999     14013     14015
     13999     14013     14016     14000     13999     14001     14000     13999     14009
     14000     13999     14013     14001     13997     14002     14001     13999     14009
     14001     13999     14013     14002     14004     14018     14002     14005     14006
     14002     14005     14007     14002     14005     14009     14003     14002     14004
     14003     14002     14005     14004     14002     14005     14004     14018     14019
     14004     14018     14022     14004     14018     14023     14005     14007     14008
     14005     14009     14010     14005     14009     14011     14006     14005     14007
     14006     14005     14009     14007     14005     14009     14009     13999     14013
     14009     14011     14012     14010     14009     14011     14013     14016     14017
     14014     14013     14015     14014     14013     14016     14015     14013     14016
     14018     14022     14020     14018     14023     14024     14018     14023     14025
     14018     14023     14026     14019     14018     14022     14019     14018     14023
     14020     14030     14026     14020     14030     14031     14020     14030     14032
     14020     14034     14035     14020     14034     14036     14020     14034     14037
     14021     14020     14022     14021     14020     14030     14021     14020     14034
     14022     14018     14023     14022     14020     14030     14022     14020     14034
     14023     14025     14038     14023     14026     14027     14023     14026     14028
     14023     14026     14030     14024     14023     14025     14024     14023     14026
     14025     14023     14026     14025     14038     14039     14025     14038     14042
     14025     14038     14043     14026     14028     14029     14026     14030     14031
     14026     14030     14032     14027     14026     14028     14027     14026     14030
     14028     14026     14030     14030     14020     14034     14030     14032     14033
     14031     14030     14032     14035     14034     14036     14035     14034     14037
     14036     14034     14037     14038     14042     14040     14038     14043     14044
     14038     14043     14045     14038     14043     14046     14039     14038     14042
     14039     14038     14043     14040     14049     14046     14040     14049     14050
     14040     14049     14051     14040     14053     14054     14040     14053     14055
     14040     14053     14056     14041     14040     14042     14041     14040     14049
     14041     14040     14053     14042     14038     14043     14042     14040     14049
     14042     14040     14053     14043     14045     14057     14043     14046     14047
     14043     14046     14048     14043     14046     14049     14044     14043     14045
     14044     14043     14046     14045     14043     14046     14045     14057     14058
     14045     14057     14061     14045     14057     14062     14046     14048     14085
     14046     14049     14050     14046     14049     14051     14047     14046     14048
     14047     14046     14049     14048     14046     14049     14048     14085     14086
     14048     14085     14089     14048     14085     14090     14049     14040     14053
     14049     14051     14052     14050     14049     14051     14054     14053     14055
     14054     14053     14056     14055     14053     14056     14057     14061     14059
     14057     14062     14063     14057     14062     14064     14057     14062     14072
     14058     14057     14061     14058     14057     14062     14059     14076     14072
     14059     14076     14077     14059     14076     14078     14059     14080     14081
     14059     14080     14082     14059     14080     14083     14060     14059     14061
     14060     14059     14076     14060     14059     14080     14061     14057     14062
     14061     14059     14076     14061     14059     14080     14062     14064     14065
     14062     14064     14066     14062     14072     14073     14062     14072     14074
     14062     14072     14076     14063     14062     14064     14063     14062     14072
     14064     14062     14072     14064     14066     14067     14064     14066     14068
     14065     14064     14066     14066     14068     14069     14066     14068     14070
     14066     14068     14071     14067     14066     14068     14069     14068     14070
     14069     14068     14071     14070     14068     14071     14072     14074     14075
     14072     14076     14077     14072     14076     14078     14073     14072     14074
     14073     14072     14076     14074     14072     14076     14076     14059     14080
     14076     14078     14079     14077     14076     14078     14080     14083     14084
     14081     14080     14082     14081     14080     14083     14082     14080     14083
     14085     14089     14087     14085     14090     14091     14085     14090     14092
     14085     14090     14100     14086     14085     14089     14086     14085     14090
     14087     14103     14100     14087     14103     14104     14087     14103     14105
     14087     14107     14108     14087     14107     14109     14087     14107     14110
     14088     14087     14089     14088     14087     14103     14088     14087     14107
     14089     14085     14090     14089     14087     14103     14089     14087     14107
     14090     14092     14093     14090     14092     14094     14090     14100     14101
     14090     14100     14102     14090     14100     14103     14091     14090     14092
     14091     14090     14100     14092     14090     14100     14092     14094     14095
     14092     14094     14096     14093     14092     14094     14094     14096     14097
     14094     14096     14098     14094     14096     14099     14095     14094     14096
     14097     14096     14098     14097     14096     14099     14098     14096     14099
     14100     14102     14112     14100     14103     14104     14100     14103     14105
     14101     14100     14102     14101     14100     14103     14102     14100     14103
     14102     14112     14113     14102     14112     14116     14102     14112     14117
     14103     14087     14107     14103     14105     14106     14104     14103     14105
     14107     14110     14111     14108     14107     14109     14108     14107     14110
     14109     14107     14110     14112     14116     14114     14112     14117     14118
     14112     14117     14119     14112     14117     14120     14113     14112     14116
     14113     14112     14117     14114     14124     14120     14114     14124     14125
     14114     14124     14126     14114     14128     14129     14114     14128     14130
     14114     14128     14131     14115     14114     14116     14115     14114     14124
     14115     14114     14128     14116     14112     14117     14116     14114     14124
     14116     14114     14128     14117     14119     14133     14117     14120     14121
     14117     14120     14122     14117     14120     14124     14118     14117     14119
     14118     14117     14120     14119     14117     14120     14119     14133     14134
     14119     14133     14137     14119     14133     14138     14120     14122     14123
     14120     14124     14125     14120     14124     14126     14121     14120     14122
     14121     14120     14124     14122     14120     14124     14124     14114     14128
     14124     14126     14127     14125     14124     14126     14128     14131     14132
     14129     14128     14130     14129     14128     14131     14130     14128     14131
     14133     14137     14135     14133     14138     14139     14133     14138     14140
     14133     14138     14141     14134     14133     14137     14134     14133     14138
     14135     14145     14141     14135     14145     14146     14135     14145     14147
     14135     14149     14150     14135     14149     14151     14135     14149     14152
     14136     14135     14137     14136     14135     14145     14136     14135     14149
     14137     14133     14138     14137     14135     14145     14137     14135     14149
     14138     14140     14153     14138     14141     14142     14138     14141     14143
     14138     14141     14145     14139     14138     14140     14139     14138     14141
     14140     14138     14141     14140     14153     14154     14140     14153     14157
     14140     14153     14158     14141     14143     14144     14141     14145     14146
     14141     14145     14147     14142     14141     14143     14142     14141     14145
     14143     14141     14145     14145     14135     14149     14145     14147     14148
     14146     14145     14147     14150     14149     14151     14150     14149     14152
     14151     14149     14152     14153     14157     14155     14153     14158     14159
     14153     14158     14160     14153     14158     14161     14154     14153     14157
     14154     14153     14158     14155     14164     14161     14155     14164     14165
     14155     14164     14166     14155     14168     14169     14155     14168     14170
     14155     14168     14171     14156     14155     14157     14156     14155     14164
     14156     14155     14168     14157     14153     14158     14157     14155     14164
     14157     14155     14168     14158     14160     14172     14158     14161     14162
     14158     14161     14163     14158     14161     14164     14159     14158     14160
     14159     14158     14161     14160     14158     14161     14160     14172     14173
     14160     14172     14176     14160     14172     14177     14161     14163     14200
     14161     14164     14165     14161     14164     14166     14162     14161     14163
     14162     14161     14164     14163     14161     14164     14163     14200     14201
     14163     14200     14204     14163     14200     14205     14164     14155     14168
     14164     14166     14167     14165     14164     14166     14169     14168     14170
     14169     14168     14171     14170     14168     14171     14172     14176     14174
     14172     14177     14178     14172     14177     14179     14172     14177     14187
     14173     14172     14176     14173     14172     14177     14174     14191     14187
     14174     14191     14192     14174     14191     14193     14174     14195     14196
     14174     14195     14197     14174     14195     14198     14175     14174     14176
     14175     14174     14191     14175     14174     14195     14176     14172     14177
     14176     14174     14191     14176     14174     14195     14177     14179     14180
     14177     14179     14181     14177     14187     14188     14177     14187     14189
     14177     14187     14191     14178     14177     14179     14178     14177     14187
     14179     14177     14187     14179     14181     14182     14179     14181     14183
     14180     14179     14181     14181     14183     14184     14181     14183     14185
     14181     14183     14186     14182     14181     14183     14184     14183     14185
     14184     14183     14186     14185     14183     14186     14187     14189     14190
     14187     14191     14192     14187     14191     14193     14188     14187     14189
     14188     14187     14191     14189     14187     14191     14191     14174     14195
     14191     14193     14194     14192     14191     14193     14195     14198     14199
     14196     14195     14197     14196     14195     14198     14197     14195     14198
     14200     14204     14202     14200     14205     14206     14200     14205     14207
     14200     14205     14215     14201     14200     14204     14201     14200     14205
     14202     14218     14215     14202     14218     14219     14202     14218     14220
     14202     14222     14223     14202     14222     14224     14202     14222     14225
     14203     14202     14204     14203     14202     14218     14203     14202     14222
     14204     14200     14205     14204     14202     14218     14204     14202     14222
     14205     14207     14208     14205     14207     14209     14205     14215     14216
     14205     14215     14217     14205     14215     14218     14206     14205     14207
     14206     14205     14215     14207     14205     14215     14207     14209     14210
     14207     14209     14211     14208     14207     14209     14209     14211     14212
     14209     14211     14213     14209     14211     14214     14210     14209     14211
     14212     14211     14213     14212     14211     14214     14213     14211     14214
     14215     14217     14227     14215     14218     14219     14215     14218     14220
     14216     14215     14217     14216     14215     14218     14217     14215     14218
     14217     14227     14228     14217     14227     14231     14217     14227     14232
     14218     14202     14222     14218     14220     14221     14219     14218     14220
     14222     14225     14226     14223     14222     14224     14223     14222     14225
     14224     14222     14225     14227     14231     14229     14227     14232     14233
     14227     14232     14234     14227     14232     14235     14228     14227     14231
     14228     14227     14232     14229     14239     14235     14229     14239     14240
     14229     14239     14241     14229     14243     14244     14229     14243     14245
     14229     14243     14246     14230     14229     14231     14230     14229     14239
     14230     14229     14243     14231     14227     14232     14231     14229     14239
     14231     14229     14243     14232     14234     14248     14232     14235     14236
     14232     14235     14237     14232     14235     14239     14233     14232     14234
     14233     14232     14235     14234     14232     14235     14234     14248     14249
     14234     14248     14252     14234     14248     14253     14235     14237     14238
     14235     14239     14240     14235     14239     14241     14236     14235     14237
     14236     14235     14239     14237     14235     14239     14239     14229     14243
     14239     14241     14242     14240     14239     14241     14243     14246     14247
     14244     14243     14245     14244     14243     14246     14245     14243     14246
     14248     14252     14250     14248     14253     14254     14248     14253     14255
     14248     14253     14256     14249     14248     14252     14249     14248     14253
     14250     14260     14256     14250     14260     14261     14250     14260     14262
     14250     14264     14265     14250     14264     14266     14250     14264     14267
     14251     14250     14252     14251     14250     14260     14251     14250     14264
     14252     14248     14253     14252     14250     14260     14252     14250     14264
     14253     14255     14268     14253     14256     14257     14253     14256     14258
     14253     14256     14260     14254     14253     14255     14254     14253     14256
     14255     14253     14256     14255     14268     14269     14255     14268     14272
     14255     14268     14273     14256     14258     14259     14256     14260     14261
     14256     14260     14262     14257     14256     14258     14257     14256     14260
     14258     14256     14260     14260     14250     14264     14260     14262     14263
     14261     14260     14262     14265     14264     14266     14265     14264     14267
     14266     14264     14267     14268     14272     14270     14268     14273     14274
     14268     14273     14275     14268     14273     14276     14269     14268     14272
     14269     14268     14273     14270     14279     14276     14270     14279     14280
     14270     14279     14281     14270     14283     14284     14270     14283     14285
     14270     14283     14286     14271     14270     14272     14271     14270     14279
     14271     14270     14283     14272     14268     14273     14272     14270     14279
     14272     14270     14283     14273     14275     14287     14273     14276     14277
     14273     14276     14278     14273     14276     14279     14274     14273     14275
     14274     14273     14276     14275     14273     14276     14275     14287     14288
     14275     14287     14291     14275     14287     14292     14276     14278     14315
     14276     14279     14280     14276     14279     14281     14277     14276     14278
     14277     14276     14279     14278     14276     14279     14278     14315     14316
     14278     14315     14319     14278     14315     14320     14279     14270     14283
     14279     14281     14282     14280     14279     14281     14284     14283     14285
     14284     14283     14286     14285     14283     14286     14287     14291     14289
     14287     14292     14293     14287     14292     14294     14287     14292     14302
     14288     14287     14291     14288     14287     14292     14289     14306     14302
     14289     14306     14307     14289     14306     14308     14289     14310     14311
     14289     14310     14312     14289     14310     14313     14290     14289     14291
     14290     14289     14306     14290     14289     14310     14291     14287     14292
     14291     14289     14306     14291     14289     14310     14292     14294     14295
     14292     14294     14296     14292     14302     14303     14292     14302     14304
     14292     14302     14306     14293     14292     14294     14293     14292     14302
     14294     14292     14302     14294     14296     14297     14294     14296     14298
     14295     14294     14296     14296     14298     14299     14296     14298     14300
     14296     14298     14301     14297     14296     14298     14299     14298     14300
     14299     14298     14301     14300     14298     14301     14302     14304     14305
     14302     14306     14307     14302     14306     14308     14303     14302     14304
     14303     14302     14306     14304     14302     14306     14306     14289     14310
     14306     14308     14309     14307     14306     14308     14310     14313     14314
     14311     14310     14312     14311     14310     14313     14312     14310     14313
     14315     14319     14317     14315     14320     14321     14315     14320     14322
     14315     14320     14330     14316     14315     14319     14316     14315     14320
     14317     14333     14330     14317     14333     14334     14317     14333     14335
     14317     14337     14338     14317     14337     14339     14317     14337     14340
     14318     14317     14319     14318     14317     14333     14318     14317     14337
     14319     14315     14320     14319     14317     14333     14319     14317     14337
     14320     14322     14323     14320     14322     14324     14320     14330     14331
     14320     14330     14332     14320     14330     14333     14321     14320     14322
     14321     14320     14330     14322     14320     14330     14322     14324     14325
     14322     14324     14326     14323     14322     14324     14324     14326     14327
     14324     14326     14328     14324     14326     14329     14325     14324     14326
     14327     14326     14328     14327     14326     14329     14328     14326     14329
     14330     14332     14342     14330     14333     14334     14330     14333     14335
     14331     14330     14332     14331     14330     14333     14332     14330     14333
     14332     14342     14343     14332     14342     14346     14332     14342     14347
     14333     14317     14337     14333     14335     14336     14334     14333     14335
     14337     14340     14341     14338     14337     14339     14338     14337     14340
     14339     14337     14340     14342     14346     14344     14342     14347     14348
     14342     14347     14349     14342     14347     14350     14343     14342     14346
     14343     14342     14347     14344     14354     14350     14344     14354     14355
     14344     14354     14356     14344     14358     14359     14344     14358     14360
     14344     14358     14361     14345     14344     14346     14345     14344     14354
     14345     14344     14358     14346     14342     14347     14346     14344     14354
     14346     14344     14358     14347     14349     14363     14347     14350     14351
     14347     14350     14352     14347     14350     14354     14348     14347     14349
     14348     14347     14350     14349     14347     14350     14349     14363     14364
     14349     14363     14367     14349     14363     14368     14350     14352     14353
     14350     14354     14355     14350     14354     14356     14351     14350     14352
     14351     14350     14354     14352     14350     14354     14354     14344     14358
     14354     14356     14357     14355     14354     14356     14358     14361     14362
     14359     14358     14360     14359     14358     14361     14360     14358     14361
     14363     14367     14365     14363     14368     14369     14363     14368     14370
     14363     14368     14371     14364     14363     14367     14364     14363     14368
     14365     14375     14371     14365     14375     14376     14365     14375     14377
     14365     14379     14380     14365     14379     14381     14365     14379     14382
     14366     14365     14367     14366     14365     14375     14366     14365     14379
     14367     14363     14368     14367     14365     14375     14367     14365     14379
     14368     14370     14383     14368     14371     14372     14368     14371     14373
     14368     14371     14375     14369     14368     14370     14369     14368     14371
     14370     14368     14371     14370     14383     14384     14370     14383     14387
     14370     14383     14388     14371     14373     14374     14371     14375     14376
     14371     14375     14377     14372     14371     14373     14372     14371     14375
     14373     14371     14375     14375     14365     14379     14375     14377     14378
     14376     14375     14377     14380     14379     14381     14380     14379     14382
     14381     14379     14382     14383     14387     14385     14383     14388     14389
     14383     14388     14390     14383     14388     14391     14384     14383     14387
     14384     14383     14388     14385     14395     14391     14385     14395     14396
     14385     14395     14397     14385     14399     14400     14385     14399     14401
     14385     14399     14402     14386     14385     14387     14386     14385     14395
     14386     14385     14399     14387     14383     14388     14387     14385     14395
     14387     14385     14399     14388     14390     14403     14388     14391     14392
     14388     14391     14393     14388     14391     14395     14389     14388     14390
     14389     14388     14391     14390     14388     14391     14390     14403     14404
     14390     14403     14407     14390     14403     14408     14391     14393     14394
     14391     14395     14396     14391     14395     14397     14392     14391     14393
     14392     14391     14395     14393     14391     14395     14395     14385     14399
     14395     14397     14398     14396     14395     14397     14400     14399     14401
     14400     14399     14402     14401     14399     14402     14403     14407     14405
     14403     14408     14409     14403     14408     14410     14403     14408     14418
     14404     14403     14407     14404     14403     14408     14405     14422     14418
     14405     14422     14423     14405     14422     14424     14405     14426     14427
     14405     14426     14428     14405     14426     14429     14406     14405     14407
     14406     14405     14422     14406     14405     14426     14407     14403     14408
     14407     14405     14422     14407     14405     14426     14408     14410     14411
     14408     14410     14412     14408     14418     14419     14408     14418     14420
     14408     14418     14422     14409     14408     14410     14409     14408     14418
     14410     14408     14418     14410     14412     14413     14410     14412     14414
     14411     14410     14412     14412     14414     14415     14412     14414     14416
     14412     14414     14417     14413     14412     14414     14415     14414     14416
     14415     14414     14417     14416     14414     14417     14418     14420     14421
     14418     14422     14423     14418     14422     14424     14419     14418     14420
     14419     14418     14422     14420     14418     14422     14422     14405     14426
     14422     14424     14425     14423     14422     14424     14426     14429     14430
     14427     14426     14428     14427     14426     14429     14428     14426     14429
     14431     14433     14432     14431     14433     14434     14431     14433     14435
     14432     14433     14434     14432     14433     14435     14432     14730     14727
     14432     14730     14733     14432     14730     14734     14433     14432     14730
     14433     14435     14436     14433     14435     14437     14433     14435     14444
     14434     14433     14435     14435     14436     14438     14435     14444     14445
     14435     14444     14446     14435     14444     14451     14436     14435     14437
     14436     14435     14444     14436     14438     14439     14436     14438     14440
     14436     14438     14459     14437     14435     14444     14438     14440     14441
     14438     14459     14451     14438     14459     14460     14438     14459     14461
     14439     14438     14440     14439     14438     14459     14440     14438     14459
     14440     14441     14442     14440     14441     14443     14440     14441     14467
     14441     14467     14463     14441     14467     14468     14441     14467     14469
     14442     14441     14443     14442     14441     14467     14443     14441     14467
     14444     14446     14447     14444     14451     14452     14444     14451     14453
     14444     14451     14459     14445     14444     14446     14445     14444     14451
     14446     14444     14451     14446     14447     14448     14446     14447     14449
     14446     14447     14450     14448     14447     14449     14448     14447     14450
     14449     14447     14450     14451     14452     14454     14451     14459     14460
     14451     14459     14461     14452     14451     14453     14452     14451     14459
     14452     14454     14455     14452     14454     14456     14453     14451     14459
     14454     14456     14457     14454     14456     14458     14454     14456     14489
     14455     14454     14456     14456     14489     14490     14456     14489     14491
     14456     14489     14534     14457     14456     14458     14457     14456     14489
     14458     14456     14489     14459     14461     14462     14459     14461     14568
     14460     14459     14461     14461     14568     14569     14461     14568     14570
     14462     14461     14568     14463     14465     14466     14463     14467     14468
     14463     14467     14469     14463     14477     14478     14463     14477     14479
     14463     14477     14485     14464     14463     14465     14464     14463     14467
     14464     14463     14477     14465     14463     14467     14465     14463     14477
     14467     14463     14477     14467     14469     14470     14468     14467     14469
     14469     14470     14471     14469     14470     14472     14469     14470     14485
     14470     14472     14476     14470     14485     14477     14470     14485     14486
     14470     14485     14487     14471     14470     14472     14471     14470     14485
     14472     14470     14485     14472     14476     14473     14472     14476     14474
     14472     14476     14475     14473     14476     14474     14473     14476     14475
     14474     14476     14475     14477     14479     14480     14477     14485     14486
     14477     14485     14487     14478     14477     14479     14478     14477     14485
     14479     14477     14485     14479     14480     14481     14479     14480     14482
     14480     14482     14483     14480     14482     14484     14480     14482     14646
     14481     14480     14482     14482     14646     14647     14482     14646     14648
     14482     14646     14650     14483     14482     14484     14483     14482     14646
     14484     14482     14646     14485     14487     14488     14485     14487     14684
     14486     14485     14487     14487     14684     14685     14487     14684     14686
     14488     14487     14684     14489     14491     14492     14489     14534     14535
     14489     14534     14536     14489     14534     14537     14490     14489     14491
     14490     14489     14534     14491     14489     14534     14491     14492     14493
     14491     14492     14494     14492     14494     14495     14492     14494     14496
     14492     14494     14497     14493     14492     14494     14494     14497     14498
     14494     14497     14499     14494     14497     14500     14495     14494     14496
     14495     14494     14497     14496     14494     14497     14497     14500     14501
     14497     14500     14502     14497     14500     14503     14498     14497     14499
     14498     14497     14500     14499     14497     14500     14500     14503     14504
     14500     14503     14505     14500     14503     14506     14501     14500     14502
     14501     14500     14503     14502     14500     14503     14503     14506     14507
     14503     14506     14508     14503     14506     14509     14504     14503     14505
     14504     14503     14506     14505     14503     14506     14506     14509     14510
     14506     14509     14511     14506     14509     14512     14507     14506     14508
     14507     14506     14509     14508     14506     14509     14509     14512     14513
     14509     14512     14514     14509     14512     14515     14510     14509     14511
     14510     14509     14512     14511     14509     14512     14512     14515     14516
     14512     14515     14517     14512     14515     14518     14513     14512     14514
     14513     14512     14515     14514     14512     14515     14515     14518     14519
     14515     14518     14520     14515     14518     14521     14516     14515     14517
     14516     14515     14518     14517     14515     14518     14518     14521     14522
     14518     14521     14523     14518     14521     14524     14519     14518     14520
     14519     14518     14521     14520     14518     14521     14521     14524     14525
     14521     14524     14526     14521     14524     14527     14522     14521     14523
     14522     14521     14524     14523     14521     14524     14524     14527     14528
     14524     14527     14529     14524     14527     14530     14525     14524     14526
     14525     14524     14527     14526     14524     14527     14527     14530     14531
     14527     14530     14532     14527     14530     14533     14528     14527     14529
     14528     14527     14530     14529     14527     14530     14531     14530     14532
     14531     14530     14533     14532     14530     14533     14534     14537     14538
     14534     14537     14539     14534     14537     14540     14535     14534     14536
     14535     14534     14537     14536     14534     14537     14537     14540     14541
     14537     14540     14542     14537     14540     14543     14538     14537     14539
     14538     14537     14540     14539     14537     14540     14540     14543     14544
     14540     14543     14545     14540     14543     14546     14541     14540     14542
     14541     14540     14543     14542     14540     14543     14543     14546     14547
     14543     14546     14548     14543     14546     14549     14544     14543     14545
     14544     14543     14546     14545     14543     14546     14546     14549     14550
     14546     14549     14551     14546     14549     14552     14547     14546     14548
     14547     14546     14549     14548     14546     14549     14549     14552     14553
     14549     14552     14554     14549     14552     14555     14550     14549     14551
     14550     14549     14552     14551     14549     14552     14552     14555     14556
     14552     14555     14557     14552     14555     14558     14553     14552     14554
     14553     14552     14555     14554     14552     14555     14555     14558     14559
     14555     14558     14560     14555     14558     14561     14556     14555     14557
     14556     14555     14558     14557     14555     14558     14558     14561     14562
     14558     14561     14563     14558     14561     14564     14559     14558     14560
     14559     14558     14561     14560     14558     14561     14561     14564     14565
     14561     14564     14566     14561     14564     14567     14562     14561     14563
     14562     14561     14564     14563     14561     14564     14565     14564     14566
     14565     14564     14567     14566     14564     14567     14568     14570     14571
     14568     14570     14572     14568     14570     14573     14569     14568     14570
     14570     14573     14574     14570     14573     14575     14570     14573     14612
     14571     14570     14572     14571     14570     14573     14572     14570     14573
     14573     14575     14576     14573     14612     14613     14573     14612     14614
     14573     14612     14615     14574     14573     14575     14574     14573     14612
     14575     14573     14612     14575     14576     14577     14575     14576     14578
     14576     14578     14579     14576     14578     14580     14576     14578     14581
     14577     14576     14578     14578     14581     14582     14578     14581     14583
     14578     14581     14584     14579     14578     14580     14579     14578     14581
     14580     14578     14581     14581     14584     14585     14581     14584     14586
     14581     14584     14587     14582     14581     14583     14582     14581     14584
     14583     14581     14584     14584     14587     14588     14584     14587     14589
     14584     14587     14590     14585     14584     14586     14585     14584     14587
     14586     14584     14587     14587     14590     14591     14587     14590     14592
     14587     14590     14593     14588     14587     14589     14588     14587     14590
     14589     14587     14590     14590     14593     14594     14590     14593     14595
     14590     14593     14596     14591     14590     14592     14591     14590     14593
     14592     14590     14593     14593     14596     14597     14593     14596     14598
     14593     14596     14599     14594     14593     14595     14594     14593     14596
     14595     14593     14596     14596     14599     14600     14596     14599     14601
     14596     14599     14602     14597     14596     14598     14597     14596     14599
     14598     14596     14599     14599     14602     14603     14599     14602     14604
     14599     14602     14605     14600     14599     14601     14600     14599     14602
     14601     14599     14602     14602     14605     14606     14602     14605     14607
     14602     14605     14608     14603     14602     14604     14603     14602     14605
     14604     14602     14605     14605     14608     14609     14605     14608     14610
     14605     14608     14611     14606     14605     14607     14606     14605     14608
     14607     14605     14608     14609     14608     14610     14609     14608     14611
     14610     14608     14611     14612     14615     14616     14612     14615     14617
     14612     14615     14618     14613     14612     14614     14613     14612     14615
     14614     14612     14615     14615     14618     14619     14615     14618     14620
     14615     14618     14621     14616     14615     14617     14616     14615     14618
     14617     14615     14618     14618     14621     14622     14618     14621     14623
     14618     14621     14624     14619     14618     14620     14619     14618     14621
     14620     14618     14621     14621     14624     14625     14621     14624     14626
     14621     14624     14627     14622     14621     14623     14622     14621     14624
     14623     14621     14624     14624     14627     14628     14624     14627     14629
     14624     14627     14630     14625     14624     14626     14625     14624     14627
     14626     14624     14627     14627     14630     14631     14627     14630     14632
     14627     14630     14633     14628     14627     14629     14628     14627     14630
     14629     14627     14630     14630     14633     14634     14630     14633     14635
     14630     14633     14636     14631     14630     14632     14631     14630     14633
     14632     14630     14633     14633     14636     14637     14633     14636     14638
     14633     14636     14639     14634     14633     14635     14634     14633     14636
     14635     14633     14636     14636     14639     14640     14636     14639     14641
     14636     14639     14642     14637     14636     14638     14637     14636     14639
     14638     14636     14639     14639     14642     14643     14639     14642     14644
     14639     14642     14645     14640     14639     14641     14640     14639     14642
     14641     14639     14642     14643     14642     14644     14643     14642     14645
     14644     14642     14645     14646     14648     14649     14646     14650     14651
     14646     14650     14652     14646     14650     14653     14647     14646     14648
     14647     14646     14650     14648     14646     14650     14650     14653     14654
     14650     14653     14655     14650     14653     14656     14651     14650     14652
     14651     14650     14653     14652     14650     14653     14653     14656     14657
     14653     14656     14658     14653     14656     14659     14654     14653     14655
     14654     14653     14656     14655     14653     14656     14656     14659     14660
     14656     14659     14661     14656     14659     14662     14657     14656     14658
     14657     14656     14659     14658     14656     14659     14659     14662     14663
     14659     14662     14664     14659     14662     14665     14660     14659     14661
     14660     14659     14662     14661     14659     14662     14662     14665     14666
     14662     14665     14667     14662     14665     14668     14663     14662     14664
     14663     14662     14665     14664     14662     14665     14665     14668     14669
     14665     14668     14670     14665     14668     14671     14666     14665     14667
     14666     14665     14668     14667     14665     14668     14668     14671     14672
     14668     14671     14673     14668     14671     14674     14669     14668     14670
     14669     14668     14671     14670     14668     14671     14671     14674     14675
     14671     14674     14676     14671     14674     14677     14672     14671     14673
     14672     14671     14674     14673     14671     14674     14674     14677     14678
     14674     14677     14679     14674     14677     14680     14675     14674     14676
     14675     14674     14677     14676     14674     14677     14677     14680     14681
     14677     14680     14682     14677     14680     14683     14678     14677     14679
     14678     14677     14680     14679     14677     14680     14681     14680     14682
     14681     14680     14683     14682     14680     14683     14684     14686     14687
     14684     14686     14688     14684     14686     14689     14685     14684     14686
     14686     14689     14690     14686     14689     14691     14686     14689     14693
     14687     14686     14688     14687     14686     14689     14688     14686     14689
     14689     14691     14692     14689     14693     14694     14689     14693     14695
     14689     14693     14696     14690     14689     14691     14690     14689     14693
     14691     14689     14693     14693     14696     14697     14693     14696     14698
     14693     14696     14699     14694     14693     14695     14694     14693     14696
     14695     14693     14696     14696     14699     14700     14696     14699     14701
     14696     14699     14702     14697     14696     14698     14697     14696     14699
     14698     14696     14699     14699     14702     14703     14699     14702     14704
     14699     14702     14705     14700     14699     14701     14700     14699     14702
     14701     14699     14702     14702     14705     14706     14702     14705     14707
     14702     14705     14708     14703     14702     14704     14703     14702     14705
     14704     14702     14705     14705     14708     14709     14705     14708     14710
     14705     14708     14711     14706     14705     14707     14706     14705     14708
     14707     14705     14708     14708     14711     14712     14708     14711     14713
     14708     14711     14714     14709     14708     14710     14709     14708     14711
     14710     14708     14711     14711     14714     14715     14711     14714     14716
     14711     14714     14717     14712     14711     14713     14712     14711     14714
     14713     14711     14714     14714     14717     14718     14714     14717     14719
     14714     14717     14720     14715     14714     14716     14715     14714     14717
     14716     14714     14717     14717     14720     14721     14717     14720     14722
     14717     14720     14723     14718     14717     14719     14718     14717     14720
     14719     14717     14720     14720     14723     14724     14720     14723     14725
     14720     14723     14726     14721     14720     14722     14721     14720     14723
     14722     14720     14723     14724     14723     14725     14724     14723     14726
     14725     14723     14726     14727     14730     14733     14727     14730     14734
     14728     14727     14729     14728     14727     14730     14729     14727     14730
     14730     14733     14731     14730     14734     14735     14730     14734     14736
     14730     14734     14737     14731     14740     14737     14731     14740     14741
     14731     14740     14742     14731     14743     14744     14731     14743     14745
     14731     14743     14747     14732     14731     14733     14732     14731     14740
     14732     14731     14743     14733     14730     14734     14733     14731     14740
     14733     14731     14743     14734     14737     14738     14734     14737     14739
     14734     14737     14740     14735     14734     14736     14735     14734     14737
     14736     14734     14737     14737     14739     14755     14737     14740     14741
     14737     14740     14742     14738     14737     14739     14738     14737     14740
     14739     14737     14740     14739     14755     14752     14739     14755     14758
     14739     14755     14759     14740     14731     14743     14740     14742     14779
     14741     14740     14742     14742     14779     14780     14742     14779     14783
     14742     14779     14784     14743     14745     14746     14743     14747     14748
     14743     14747     14749     14743     14747     14750     14744     14743     14745
     14744     14743     14747     14745     14743     14747     14747     14750     14751
     14748     14747     14749     14748     14747     14750     14749     14747     14750
     14752     14755     14758     14752     14755     14759     14753     14752     14754
     14753     14752     14755     14754     14752     14755     14755     14758     14756
     14755     14759     14760     14755     14759     14761     14755     14759     14762
     14756     14766     14762     14756     14766     14767     14756     14766     14768
     14756     14770     14771     14756     14770     14772     14756     14770     14774
     14757     14756     14758     14757     14756     14766     14757     14756     14770
     14758     14755     14759     14758     14756     14766     14758     14756     14770
     14759     14762     14763     14759     14762     14764     14759     14762     14766
     14760     14759     14761     14760     14759     14762     14761     14759     14762
     14762     14764     14765     14762     14766     14767     14762     14766     14768
     14763     14762     14764     14763     14762     14766     14764     14762     14766
     14766     14756     14770     14766     14768     14769     14767     14766     14768
     14770     14772     14773     14770     14774     14775     14770     14774     14776
     14770     14774     14777     14771     14770     14772     14771     14770     14774
     14772     14770     14774     14774     14777     14778     14775     14774     14776
     14775     14774     14777     14776     14774     14777     14779     14783     14781
     14779     14784     14785     14779     14784     14786     14779     14784     14788
     14780     14779     14783     14780     14779     14784     14781     14791     14788
     14781     14791     14792     14781     14791     14793     14781     14798     14799
     14781     14798     14800     14781     14798     14802     14782     14781     14783
     14782     14781     14791     14782     14781     14798     14783     14779     14784
     14783     14781     14791     14783     14781     14798     14784     14786     14787
     14784     14788     14789     14784     14788     14790     14784     14788     14791
     14785     14784     14786     14785     14784     14788     14786     14784     14788
     14788     14790     14807     14788     14791     14792     14788     14791     14793
     14789     14788     14790     14789     14788     14791     14790     14788     14791
     14790     14807     14808     14790     14807     14811     14790     14807     14812
     14791     14781     14798     14791     14793     14794     14792     14791     14793
     14793     14794     14795     14793     14794     14796     14793     14794     14797
     14795     14794     14796     14795     14794     14797     14796     14794     14797
     14798     14800     14801     14798     14802     14803     14798     14802     14804
     14798     14802     14805     14799     14798     14800     14799     14798     14802
     14800     14798     14802     14802     14805     14806     14803     14802     14804
     14803     14802     14805     14804     14802     14805     14807     14811     14809
     14807     14812     14813     14807     14812     14814     14807     14812     14816
     14808     14807     14811     14808     14807     14812     14809     14819     14816
     14809     14819     14820     14809     14819     14821     14809     14826     14827
     14809     14826     14828     14809     14826     14830     14810     14809     14811
     14810     14809     14819     14810     14809     14826     14811     14807     14812
     14811     14809     14819     14811     14809     14826     14812     14814     14815
     14812     14816     14817     14812     14816     14818     14812     14816     14819
     14813     14812     14814     14813     14812     14816     14814     14812     14816
     14816     14818     14860     14816     14819     14820     14816     14819     14821
     14817     14816     14818     14817     14816     14819     14818     14816     14819
     14818     14860     14861     14818     14860     14864     14818     14860     14865
     14819     14809     14826     14819     14821     14822     14820     14819     14821
     14821     14822     14823     14821     14822     14824     14821     14822     14825
     14823     14822     14824     14823     14822     14825     14824     14822     14825
     14826     14828     14829     14826     14830     14831     14826     14830     14832
     14826     14830     14833     14827     14826     14828     14827     14826     14830
     14828     14826     14830     14830     14833     14834     14831     14830     14832
     14831     14830     14833     14832     14830     14833     14833     14834     14835
     14833     14834     14838     14833     14834     14839     14834     14838     14836
     14834     14839     14840     14834     14839     14841     14834     14839     14843
     14835     14834     14838     14835     14834     14839     14836     14847     14843
     14836     14847     14848     14836     14847     14849     14836     14851     14852
     14836     14851     14853     14836     14851     14855     14837     14836     14838
     14837     14836     14847     14837     14836     14851     14838     14834     14839
     14838     14836     14847     14838     14836     14851     14839     14841     14842
     14839     14843     14844     14839     14843     14845     14839     14843     14847
     14840     14839     14841     14840     14839     14843     14841     14839     14843
     14843     14845     14846     14843     14847     14848     14843     14847     14849
     14844     14843     14845     14844     14843     14847     14845     14843     14847
     14847     14836     14851     14847     14849     14850     14848     14847     14849
     14851     14853     14854     14851     14855     14856     14851     14855     14857
     14851     14855     14858     14852     14851     14853     14852     14851     14855
     14853     14851     14855     14855     14858     14859     14856     14855     14857
     14856     14855     14858     14857     14855     14858     14860     14864     14862
     14860     14865     14866     14860     14865     14867     14860     14865     14869
     14861     14860     14864     14861     14860     14865     14862     14872     14869
     14862     14872     14873     14862     14872     14874     14862     14876     14877
     14862     14876     14878     14862     14876     14879     14863     14862     14864
     14863     14862     14872     14863     14862     14876     14864     14860     14865
     14864     14862     14872     14864     14862     14876     14865     14867     14868
     14865     14869     14870     14865     14869     14871     14865     14869     14872
     14866     14865     14867     14866     14865     14869     14867     14865     14869
     14869     14871     14881     14869     14872     14873     14869     14872     14874
     14870     14869     14871     14870     14869     14872     14871     14869     14872
     14871     14881     14882     14871     14881     14885     14871     14881     14886
     14872     14862     14876     14872     14874     14875     14873     14872     14874
     14876     14879     14880     14877     14876     14878     14877     14876     14879
     14878     14876     14879     14881     14885     14883     14881     14886     14887
     14881     14886     14888     14881     14886     14889     14882     14881     14885
     14882     14881     14886     14883     14892     14889     14883     14892     14893
     14883     14892     14894     14883     14896     14897     14883     14896     14898
     14883     14896     14899     14884     14883     14885     14884     14883     14892
     14884     14883     14896     14885     14881     14886     14885     14883     14892
     14885     14883     14896     14886     14888     14901     14886     14889     14890
     14886     14889     14891     14886     14889     14892     14887     14886     14888
     14887     14886     14889     14888     14886     14889     14888     14901     14902
     14888     14901     14905     14888     14901     14906     14889     14891     14944
     14889     14892     14893     14889     14892     14894     14890     14889     14891
     14890     14889     14892     14891     14889     14892     14891     14944     14945
     14891     14944     14948     14891     14944     14949     14892     14883     14896
     14892     14894     14895     14893     14892     14894     14896     14899     14900
     14897     14896     14898     14897     14896     14899     14898     14896     14899
     14901     14905     14903     14901     14906     14907     14901     14906     14908
     14901     14906     14909     14902     14901     14905     14902     14901     14906
     14903     14913     14909     14903     14913     14914     14903     14913     14915
     14903     14917     14918     14903     14917     14919     14903     14917     14920
     14904     14903     14905     14904     14903     14913     14904     14903     14917
     14905     14901     14906     14905     14903     14913     14905     14903     14917
     14906     14908     14922     14906     14909     14910     14906     14909     14911
     14906     14909     14913     14907     14906     14908     14907     14906     14909
     14908     14906     14909     14908     14922     14923     14908     14922     14926
     14908     14922     14927     14909     14911     14912     14909     14913     14914
     14909     14913     14915     14910     14909     14911     14910     14909     14913
     14911     14909     14913     14913     14903     14917     14913     14915     14916
     14914     14913     14915     14917     14920     14921     14918     14917     14919
     14918     14917     14920     14919     14917     14920     14922     14926     14924
     14922     14927     14928     14922     14927     14929     14922     14927     14931
     14923     14922     14926     14923     14922     14927     14924     14935     14931
     14924     14935     14936     14924     14935     14937     14924     14939     14940
     14924     14939     14941     14924     14939     14942     14925     14924     14926
     14925     14924     14935     14925     14924     14939     14926     14922     14927
     14926     14924     14935     14926     14924     14939     14927     14929     14930
     14927     14931     14932     14927     14931     14933     14927     14931     14935
     14928     14927     14929     14928     14927     14931     14929     14927     14931
     14931     14933     14934     14931     14935     14936     14931     14935     14937
     14932     14931     14933     14932     14931     14935     14933     14931     14935
     14935     14924     14939     14935     14937     14938     14936     14935     14937
     14939     14942     14943     14940     14939     14941     14940     14939     14942
     14941     14939     14942     14944     14948     14946     14944     14949     14950
     14944     14949     14951     14944     14949     14953     14945     14944     14948
     14945     14944     14949     14946     14956     14953     14946     14956     14957
     14946     14956     14958     14946     14960     14961     14946     14960     14962
     14946     14960     14963     14947     14946     14948     14947     14946     14956
     14947     14946     14960     14948     14944     14949     14948     14946     14956
     14948     14946     14960     14949     14951     14952     14949     14953     14954
     14949     14953     14955     14949     14953     14956     14950     14949     14951
     14950     14949     14953     14951     14949     14953     14953     14955     14965
     14953     14956     14957     14953     14956     14958     14954     14953     14955
     14954     14953     14956     14955     14953     14956     14955     14965     14966
     14955     14965     14969     14955     14965     14970     14956     14946     14960
     14956     14958     14959     14957     14956     14958     14960     14963     14964
     14961     14960     14962     14961     14960     14963     14962     14960     14963
     14965     14969     14967     14965     14970     14971     14965     14970     14972
     14965     14970     14980     14966     14965     14969     14966     14965     14970
     14967     14983     14980     14967     14983     14984     14967     14983     14985
     14967     14987     14988     14967     14987     14989     14967     14987     14990
     14968     14967     14969     14968     14967     14983     14968     14967     14987
     14969     14965     14970     14969     14967     14983     14969     14967     14987
     14970     14972     14973     14970     14972     14974     14970     14980     14981
     14970     14980     14982     14970     14980     14983     14971     14970     14972
     14971     14970     14980     14972     14970     14980     14972     14974     14975
     14972     14974     14976     14973     14972     14974     14974     14976     14977
     14974     14976     14978     14974     14976     14979     14975     14974     14976
     14977     14976     14978     14977     14976     14979     14978     14976     14979
     14980     14982     14992     14980     14983     14984     14980     14983     14985
     14981     14980     14982     14981     14980     14983     14982     14980     14983
     14982     14992     14993     14982     14992     14996     14982     14992     14997
     14983     14967     14987     14983     14985     14986     14984     14983     14985
     14987     14990     14991     14988     14987     14989     14988     14987     14990
     14989     14987     14990     14992     14996     14994     14992     14997     14998
     14992     14997     14999     14992     14997     15000     14993     14992     14996
     14993     14992     14997     14994     15004     15000     14994     15004     15005
     14994     15004     15006     14994     15008     15009     14994     15008     15010
     14994     15008     15011     14995     14994     14996     14995     14994     15004
     14995     14994     15008     14996     14992     14997     14996     14994     15004
     14996     14994     15008     14997     14999     15013     14997     15000     15001
     14997     15000     15002     14997     15000     15004     14998     14997     14999
     14998     14997     15000     14999     14997     15000     14999     15013     15014
     14999     15013     15017     14999     15013     15018     15000     15002     15003
     15000     15004     15005     15000     15004     15006     15001     15000     15002
     15001     15000     15004     15002     15000     15004     15004     14994     15008
     15004     15006     15007     15005     15004     15006     15008     15011     15012
     15009     15008     15010     15009     15008     15011     15010     15008     15011
     15013     15017     15015     15013     15018     15019     15013     15018     15020
     15013     15018     15021     15014     15013     15017     15014     15013     15018
     15015     15025     15021     15015     15025     15026     15015     15025     15027
     15015     15029     15030     15015     15029     15031     15015     15029     15032
     15016     15015     15017     15016     15015     15025     15016     15015     15029
     15017     15013     15018     15017     15015     15025     15017     15015     15029
     15018     15020     15033     15018     15021     15022     15018     15021     15023
     15018     15021     15025     15019     15018     15020     15019     15018     15021
     15020     15018     15021     15020     15033     15034     15020     15033     15037
     15020     15033     15038     15021     15023     15024     15021     15025     15026
     15021     15025     15027     15022     15021     15023     15022     15021     15025
     15023     15021     15025     15025     15015     15029     15025     15027     15028
     15026     15025     15027     15030     15029     15031     15030     15029     15032
     15031     15029     15032     15033     15037     15035     15033     15038     15039
     15033     15038     15040     15033     15038     15041     15034     15033     15037
     15034     15033     15038     15035     15044     15041     15035     15044     15045
     15035     15044     15046     15035     15048     15049     15035     15048     15050
     15035     15048     15051     15036     15035     15037     15036     15035     15044
     15036     15035     15048     15037     15033     15038     15037     15035     15044
     15037     15035     15048     15038     15040     15052     15038     15041     15042
     15038     15041     15043     15038     15041     15044     15039     15038     15040
     15039     15038     15041     15040     15038     15041     15040     15052     15053
     15040     15052     15056     15040     15052     15057     15041     15043     15080
     15041     15044     15045     15041     15044     15046     15042     15041     15043
     15042     15041     15044     15043     15041     15044     15043     15080     15081
     15043     15080     15084     15043     15080     15085     15044     15035     15048
     15044     15046     15047     15045     15044     15046     15049     15048     15050
     15049     15048     15051     15050     15048     15051     15052     15056     15054
     15052     15057     15058     15052     15057     15059     15052     15057     15067
     15053     15052     15056     15053     15052     15057     15054     15071     15067
     15054     15071     15072     15054     15071     15073     15054     15075     15076
     15054     15075     15077     15054     15075     15078     15055     15054     15056
     15055     15054     15071     15055     15054     15075     15056     15052     15057
     15056     15054     15071     15056     15054     15075     15057     15059     15060
     15057     15059     15061     15057     15067     15068     15057     15067     15069
     15057     15067     15071     15058     15057     15059     15058     15057     15067
     15059     15057     15067     15059     15061     15062     15059     15061     15063
     15060     15059     15061     15061     15063     15064     15061     15063     15065
     15061     15063     15066     15062     15061     15063     15064     15063     15065
     15064     15063     15066     15065     15063     15066     15067     15069     15070
     15067     15071     15072     15067     15071     15073     15068     15067     15069
     15068     15067     15071     15069     15067     15071     15071     15054     15075
     15071     15073     15074     15072     15071     15073     15075     15078     15079
     15076     15075     15077     15076     15075     15078     15077     15075     15078
     15080     15084     15082     15080     15085     15086     15080     15085     15087
     15080     15085     15095     15081     15080     15084     15081     15080     15085
     15082     15098     15095     15082     15098     15099     15082     15098     15100
     15082     15102     15103     15082     15102     15104     15082     15102     15105
     15083     15082     15084     15083     15082     15098     15083     15082     15102
     15084     15080     15085     15084     15082     15098     15084     15082     15102
     15085     15087     15088     15085     15087     15089     15085     15095     15096
     15085     15095     15097     15085     15095     15098     15086     15085     15087
     15086     15085     15095     15087     15085     15095     15087     15089     15090
     15087     15089     15091     15088     15087     15089     15089     15091     15092
     15089     15091     15093     15089     15091     15094     15090     15089     15091
     15092     15091     15093     15092     15091     15094     15093     15091     15094
     15095     15097     15107     15095     15098     15099     15095     15098     15100
     15096     15095     15097     15096     15095     15098     15097     15095     15098
     15097     15107     15108     15097     15107     15111     15097     15107     15112
     15098     15082     15102     15098     15100     15101     15099     15098     15100
     15102     15105     15106     15103     15102     15104     15103     15102     15105
     15104     15102     15105     15107     15111     15109     15107     15112     15113
     15107     15112     15114     15107     15112     15115     15108     15107     15111
     15108     15107     15112     15109     15119     15115     15109     15119     15120
     15109     15119     15121     15109     15123     15124     15109     15123     15125
     15109     15123     15126     15110     15109     15111     15110     15109     15119
     15110     15109     15123     15111     15107     15112     15111     15109     15119
     15111     15109     15123     15112     15114     15128     15112     15115     15116
     15112     15115     15117     15112     15115     15119     15113     15112     15114
     15113     15112     15115     15114     15112     15115     15114     15128     15129
     15114     15128     15132     15114     15128     15133     15115     15117     15118
     15115     15119     15120     15115     15119     15121     15116     15115     15117
     15116     15115     15119     15117     15115     15119     15119     15109     15123
     15119     15121     15122     15120     15119     15121     15123     15126     15127
     15124     15123     15125     15124     15123     15126     15125     15123     15126
     15128     15132     15130     15128     15133     15134     15128     15133     15135
     15128     15133     15136     15129     15128     15132     15129     15128     15133
     15130     15140     15136     15130     15140     15141     15130     15140     15142
     15130     15144     15145     15130     15144     15146     15130     15144     15147
     15131     15130     15132     15131     15130     15140     15131     15130     15144
     15132     15128     15133     15132     15130     15140     15132     15130     15144
     15133     15135     15148     15133     15136     15137     15133     15136     15138
     15133     15136     15140     15134     15133     15135     15134     15133     15136
     15135     15133     15136     15135     15148     15149     15135     15148     15152
     15135     15148     15153     15136     15138     15139     15136     15140     15141
     15136     15140     15142     15137     15136     15138     15137     15136     15140
     15138     15136     15140     15140     15130     15144     15140     15142     15143
     15141     15140     15142     15145     15144     15146     15145     15144     15147
     15146     15144     15147     15148     15152     15150     15148     15153     15154
     15148     15153     15155     15148     15153     15156     15149     15148     15152
     15149     15148     15153     15150     15159     15156     15150     15159     15160
     15150     15159     15161     15150     15163     15164     15150     15163     15165
     15150     15163     15166     15151     15150     15152     15151     15150     15159
     15151     15150     15163     15152     15148     15153     15152     15150     15159
     15152     15150     15163     15153     15155     15167     15153     15156     15157
     15153     15156     15158     15153     15156     15159     15154     15153     15155
     15154     15153     15156     15155     15153     15156     15155     15167     15168
     15155     15167     15171     15155     15167     15172     15156     15158     15195
     15156     15159     15160     15156     15159     15161     15157     15156     15158
     15157     15156     15159     15158     15156     15159     15158     15195     15196
     15158     15195     15199     15158     15195     15200     15159     15150     15163
     15159     15161     15162     15160     15159     15161     15164     15163     15165
     15164     15163     15166     15165     15163     15166     15167     15171     15169
     15167     15172     15173     15167     15172     15174     15167     15172     15182
     15168     15167     15171     15168     15167     15172     15169     15186     15182
     15169     15186     15187     15169     15186     15188     15169     15190     15191
     15169     15190     15192     15169     15190     15193     15170     15169     15171
     15170     15169     15186     15170     15169     15190     15171     15167     15172
     15171     15169     15186     15171     15169     15190     15172     15174     15175
     15172     15174     15176     15172     15182     15183     15172     15182     15184
     15172     15182     15186     15173     15172     15174     15173     15172     15182
     15174     15172     15182     15174     15176     15177     15174     15176     15178
     15175     15174     15176     15176     15178     15179     15176     15178     15180
     15176     15178     15181     15177     15176     15178     15179     15178     15180
     15179     15178     15181     15180     15178     15181     15182     15184     15185
     15182     15186     15187     15182     15186     15188     15183     15182     15184
     15183     15182     15186     15184     15182     15186     15186     15169     15190
     15186     15188     15189     15187     15186     15188     15190     15193     15194
     15191     15190     15192     15191     15190     15193     15192     15190     15193
     15195     15199     15197     15195     15200     15201     15195     15200     15202
     15195     15200     15210     15196     15195     15199     15196     15195     15200
     15197     15213     15210     15197     15213     15214     15197     15213     15215
     15197     15217     15218     15197     15217     15219     15197     15217     15220
     15198     15197     15199     15198     15197     15213     15198     15197     15217
     15199     15195     15200     15199     15197     15213     15199     15197     15217
     15200     15202     15203     15200     15202     15204     15200     15210     15211
     15200     15210     15212     15200     15210     15213     15201     15200     15202
     15201     15200     15210     15202     15200     15210     15202     15204     15205
     15202     15204     15206     15203     15202     15204     15204     15206     15207
     15204     15206     15208     15204     15206     15209     15205     15204     15206
     15207     15206     15208     15207     15206     15209     15208     15206     15209
     15210     15212     15222     15210     15213     15214     15210     15213     15215
     15211     15210     15212     15211     15210     15213     15212     15210     15213
     15212     15222     15223     15212     15222     15226     15212     15222     15227
     15213     15197     15217     15213     15215     15216     15214     15213     15215
     15217     15220     15221     15218     15217     15219     15218     15217     15220
     15219     15217     15220     15222     15226     15224     15222     15227     15228
     15222     15227     15229     15222     15227     15230     15223     15222     15226
     15223     15222     15227     15224     15234     15230     15224     15234     15235
     15224     15234     15236     15224     15238     15239     15224     15238     15240
     15224     15238     15241     15225     15224     15226     15225     15224     15234
     15225     15224     15238     15226     15222     15227     15226     15224     15234
     15226     15224     15238     15227     15229     15243     15227     15230     15231
     15227     15230     15232     15227     15230     15234     15228     15227     15229
     15228     15227     15230     15229     15227     15230     15229     15243     15244
     15229     15243     15247     15229     15243     15248     15230     15232     15233
     15230     15234     15235     15230     15234     15236     15231     15230     15232
     15231     15230     15234     15232     15230     15234     15234     15224     15238
     15234     15236     15237     15235     15234     15236     15238     15241     15242
     15239     15238     15240     15239     15238     15241     15240     15238     15241
     15243     15247     15245     15243     15248     15249     15243     15248     15250
     15243     15248     15251     15244     15243     15247     15244     15243     15248
     15245     15255     15251     15245     15255     15256     15245     15255     15257
     15245     15259     15260     15245     15259     15261     15245     15259     15262
     15246     15245     15247     15246     15245     15255     15246     15245     15259
     15247     15243     15248     15247     15245     15255     15247     15245     15259
     15248     15250     15263     15248     15251     15252     15248     15251     15253
     15248     15251     15255     15249     15248     15250     15249     15248     15251
     15250     15248     15251     15250     15263     15264     15250     15263     15267
     15250     15263     15268     15251     15253     15254     15251     15255     15256
     15251     15255     15257     15252     15251     15253     15252     15251     15255
     15253     15251     15255     15255     15245     15259     15255     15257     15258
     15256     15255     15257     15260     15259     15261     15260     15259     15262
     15261     15259     15262     15263     15267     15265     15263     15268     15269
     15263     15268     15270     15263     15268     15271     15264     15263     15267
     15264     15263     15268     15265     15274     15271     15265     15274     15275
     15265     15274     15276     15265     15278     15279     15265     15278     15280
     15265     15278     15281     15266     15265     15267     15266     15265     15274
     15266     15265     15278     15267     15263     15268     15267     15265     15274
     15267     15265     15278     15268     15270     15282     15268     15271     15272
     15268     15271     15273     15268     15271     15274     15269     15268     15270
     15269     15268     15271     15270     15268     15271     15270     15282     15283
     15270     15282     15286     15270     15282     15287     15271     15273     15310
     15271     15274     15275     15271     15274     15276     15272     15271     15273
     15272     15271     15274     15273     15271     15274     15273     15310     15311
     15273     15310     15314     15273     15310     15315     15274     15265     15278
     15274     15276     15277     15275     15274     15276     15279     15278     15280
     15279     15278     15281     15280     15278     15281     15282     15286     15284
     15282     15287     15288     15282     15287     15289     15282     15287     15297
     15283     15282     15286     15283     15282     15287     15284     15301     15297
     15284     15301     15302     15284     15301     15303     15284     15305     15306
     15284     15305     15307     15284     15305     15308     15285     15284     15286
     15285     15284     15301     15285     15284     15305     15286     15282     15287
     15286     15284     15301     15286     15284     15305     15287     15289     15290
     15287     15289     15291     15287     15297     15298     15287     15297     15299
     15287     15297     15301     15288     15287     15289     15288     15287     15297
     15289     15287     15297     15289     15291     15292     15289     15291     15293
     15290     15289     15291     15291     15293     15294     15291     15293     15295
     15291     15293     15296     15292     15291     15293     15294     15293     15295
     15294     15293     15296     15295     15293     15296     15297     15299     15300
     15297     15301     15302     15297     15301     15303     15298     15297     15299
     15298     15297     15301     15299     15297     15301     15301     15284     15305
     15301     15303     15304     15302     15301     15303     15305     15308     15309
     15306     15305     15307     15306     15305     15308     15307     15305     15308
     15310     15314     15312     15310     15315     15316     15310     15315     15317
     15310     15315     15325     15311     15310     15314     15311     15310     15315
     15312     15328     15325     15312     15328     15329     15312     15328     15330
     15312     15332     15333     15312     15332     15334     15312     15332     15335
     15313     15312     15314     15313     15312     15328     15313     15312     15332
     15314     15310     15315     15314     15312     15328     15314     15312     15332
     15315     15317     15318     15315     15317     15319     15315     15325     15326
     15315     15325     15327     15315     15325     15328     15316     15315     15317
     15316     15315     15325     15317     15315     15325     15317     15319     15320
     15317     15319     15321     15318     15317     15319     15319     15321     15322
     15319     15321     15323     15319     15321     15324     15320     15319     15321
     15322     15321     15323     15322     15321     15324     15323     15321     15324
     15325     15327     15337     15325     15328     15329     15325     15328     15330
     15326     15325     15327     15326     15325     15328     15327     15325     15328
     15327     15337     15338     15327     15337     15341     15327     15337     15342
     15328     15312     15332     15328     15330     15331     15329     15328     15330
     15332     15335     15336     15333     15332     15334     15333     15332     15335
     15334     15332     15335     15337     15341     15339     15337     15342     15343
     15337     15342     15344     15337     15342     15345     15338     15337     15341
     15338     15337     15342     15339     15349     15345     15339     15349     15350
     15339     15349     15351     15339     15353     15354     15339     15353     15355
     15339     15353     15356     15340     15339     15341     15340     15339     15349
     15340     15339     15353     15341     15337     15342     15341     15339     15349
     15341     15339     15353     15342     15344     15358     15342     15345     15346
     15342     15345     15347     15342     15345     15349     15343     15342     15344
     15343     15342     15345     15344     15342     15345     15344     15358     15359
     15344     15358     15362     15344     15358     15363     15345     15347     15348
     15345     15349     15350     15345     15349     15351     15346     15345     15347
     15346     15345     15349     15347     15345     15349     15349     15339     15353
     15349     15351     15352     15350     15349     15351     15353     15356     15357
     15354     15353     15355     15354     15353     15356     15355     15353     15356
     15358     15362     15360     15358     15363     15364     15358     15363     15365
     15358     15363     15366     15359     15358     15362     15359     15358     15363
     15360     15370     15366     15360     15370     15371     15360     15370     15372
     15360     15374     15375     15360     15374     15376     15360     15374     15377
     15361     15360     15362     15361     15360     15370     15361     15360     15374
     15362     15358     15363     15362     15360     15370     15362     15360     15374
     15363     15365     15378     15363     15366     15367     15363     15366     15368
     15363     15366     15370     15364     15363     15365     15364     15363     15366
     15365     15363     15366     15365     15378     15379     15365     15378     15382
     15365     15378     15383     15366     15368     15369     15366     15370     15371
     15366     15370     15372     15367     15366     15368     15367     15366     15370
     15368     15366     15370     15370     15360     15374     15370     15372     15373
     15371     15370     15372     15375     15374     15376     15375     15374     15377
     15376     15374     15377     15378     15382     15380     15378     15383     15384
     15378     15383     15385     15378     15383     15386     15379     15378     15382
     15379     15378     15383     15380     15389     15386     15380     15389     15390
     15380     15389     15391     15380     15393     15394     15380     15393     15395
     15380     15393     15396     15381     15380     15382     15381     15380     15389
     15381     15380     15393     15382     15378     15383     15382     15380     15389
     15382     15380     15393     15383     15385     15397     15383     15386     15387
     15383     15386     15388     15383     15386     15389     15384     15383     15385
     15384     15383     15386     15385     15383     15386     15385     15397     15398
     15385     15397     15401     15385     15397     15402     15386     15388     15425
     15386     15389     15390     15386     15389     15391     15387     15386     15388
     15387     15386     15389     15388     15386     15389     15388     15425     15426
     15388     15425     15429     15388     15425     15430     15389     15380     15393
     15389     15391     15392     15390     15389     15391     15394     15393     15395
     15394     15393     15396     15395     15393     15396     15397     15401     15399
     15397     15402     15403     15397     15402     15404     15397     15402     15412
     15398     15397     15401     15398     15397     15402     15399     15416     15412
     15399     15416     15417     15399     15416     15418     15399     15420     15421
     15399     15420     15422     15399     15420     15423     15400     15399     15401
     15400     15399     15416     15400     15399     15420     15401     15397     15402
     15401     15399     15416     15401     15399     15420     15402     15404     15405
     15402     15404     15406     15402     15412     15413     15402     15412     15414
     15402     15412     15416     15403     15402     15404     15403     15402     15412
     15404     15402     15412     15404     15406     15407     15404     15406     15408
     15405     15404     15406     15406     15408     15409     15406     15408     15410
     15406     15408     15411     15407     15406     15408     15409     15408     15410
     15409     15408     15411     15410     15408     15411     15412     15414     15415
     15412     15416     15417     15412     15416     15418     15413     15412     15414
     15413     15412     15416     15414     15412     15416     15416     15399     15420
     15416     15418     15419     15417     15416     15418     15420     15423     15424
     15421     15420     15422     15421     15420     15423     15422     15420     15423
     15425     15429     15427     15425     15430     15431     15425     15430     15432
     15425     15430     15440     15426     15425     15429     15426     15425     15430
     15427     15443     15440     15427     15443     15444     15427     15443     15445
     15427     15447     15448     15427     15447     15449     15427     15447     15450
     15428     15427     15429     15428     15427     15443     15428     15427     15447
     15429     15425     15430     15429     15427     15443     15429     15427     15447
     15430     15432     15433     15430     15432     15434     15430     15440     15441
     15430     15440     15442     15430     15440     15443     15431     15430     15432
     15431     15430     15440     15432     15430     15440     15432     15434     15435
     15432     15434     15436     15433     15432     15434     15434     15436     15437
     15434     15436     15438     15434     15436     15439     15435     15434     15436
     15437     15436     15438     15437     15436     15439     15438     15436     15439
     15440     15442     15452     15440     15443     15444     15440     15443     15445
     15441     15440     15442     15441     15440     15443     15442     15440     15443
     15442     15452     15453     15442     15452     15456     15442     15452     15457
     15443     15427     15447     15443     15445     15446     15444     15443     15445
     15447     15450     15451     15448     15447     15449     15448     15447     15450
     15449     15447     15450     15452     15456     15454     15452     15457     15458
     15452     15457     15459     15452     15457     15460     15453     15452     15456
     15453     15452     15457     15454     15464     15460     15454     15464     15465
     15454     15464     15466     15454     15468     15469     15454     15468     15470
     15454     15468     15471     15455     15454     15456     15455     15454     15464
     15455     15454     15468     15456     15452     15457     15456     15454     15464
     15456     15454     15468     15457     15459     15473     15457     15460     15461
     15457     15460     15462     15457     15460     15464     15458     15457     15459
     15458     15457     15460     15459     15457     15460     15459     15473     15474
     15459     15473     15477     15459     15473     15478     15460     15462     15463
     15460     15464     15465     15460     15464     15466     15461     15460     15462
     15461     15460     15464     15462     15460     15464     15464     15454     15468
     15464     15466     15467     15465     15464     15466     15468     15471     15472
     15469     15468     15470     15469     15468     15471     15470     15468     15471
     15473     15477     15475     15473     15478     15479     15473     15478     15480
     15473     15478     15481     15474     15473     15477     15474     15473     15478
     15475     15485     15481     15475     15485     15486     15475     15485     15487
     15475     15489     15490     15475     15489     15491     15475     15489     15492
     15476     15475     15477     15476     15475     15485     15476     15475     15489
     15477     15473     15478     15477     15475     15485     15477     15475     15489
     15478     15480     15493     15478     15481     15482     15478     15481     15483
     15478     15481     15485     15479     15478     15480     15479     15478     15481
     15480     15478     15481     15480     15493     15494     15480     15493     15497
     15480     15493     15498     15481     15483     15484     15481     15485     15486
     15481     15485     15487     15482     15481     15483     15482     15481     15485
     15483     15481     15485     15485     15475     15489     15485     15487     15488
     15486     15485     15487     15490     15489     15491     15490     15489     15492
     15491     15489     15492     15493     15497     15495     15493     15498     15499
     15493     15498     15500     15493     15498     15501     15494     15493     15497
     15494     15493     15498     15495     15505     15501     15495     15505     15506
     15495     15505     15507     15495     15509     15510     15495     15509     15511
     15495     15509     15512     15496     15495     15497     15496     15495     15505
     15496     15495     15509     15497     15493     15498     15497     15495     15505
     15497     15495     15509     15498     15500     15513     15498     15501     15502
     15498     15501     15503     15498     15501     15505     15499     15498     15500
     15499     15498     15501     15500     15498     15501     15500     15513     15514
     15500     15513     15517     15500     15513     15518     15501     15503     15504
     15501     15505     15506     15501     15505     15507     15502     15501     15503
     15502     15501     15505     15503     15501     15505     15505     15495     15509
     15505     15507     15508     15506     15505     15507     15510     15509     15511
     15510     15509     15512     15511     15509     15512     15513     15517     15515
     15513     15518     15519     15513     15518     15520     15513     15518     15528
     15514     15513     15517     15514     15513     15518     15515     15532     15528
     15515     15532     15533     15515     15532     15534     15515     15536     15537
     15515     15536     15538     15515     15536     15539     15516     15515     15517
     15516     15515     15532     15516     15515     15536     15517     15513     15518
     15517     15515     15532     15517     15515     15536     15518     15520     15521
     15518     15520     15522     15518     15528     15529     15518     15528     15530
     15518     15528     15532     15519     15518     15520     15519     15518     15528
     15520     15518     15528     15520     15522     15523     15520     15522     15524
     15521     15520     15522     15522     15524     15525     15522     15524     15526
     15522     15524     15527     15523     15522     15524     15525     15524     15526
     15525     15524     15527     15526     15524     15527     15528     15530     15531
     15528     15532     15533     15528     15532     15534     15529     15528     15530
     15529     15528     15532     15530     15528     15532     15532     15515     15536
     15532     15534     15535     15533     15532     15534     15536     15539     15540
     15537     15536     15538     15537     15536     15539     15538     15536     15539
     15541     15543     15542     15541     15543     15544     15541     15543     15545
     15542     15543     15544     15542     15543     15545     15542     15840     15837
     15542     15840     15843     15542     15840     15844     15543     15542     15840
     15543     15545     15546     15543     15545     15547     15543     15545     15554
     15544     15543     15545     15545     15546     15548     15545     15554     15555
     15545     15554     15556     15545     15554     15561     15546     15545     15547
     15546     15545     15554     15546     15548     15549     15546     15548     15550
     15546     15548     15569     15547     15545     15554     15548     15550     15551
     15548     15569     15561     15548     15569     15570     15548     15569     15571
     15549     15548     15550     15549     15548     15569     15550     15548     15569
     15550     15551     15552     15550     15551     15553     15550     15551     15577
     15551     15577     15573     15551     15577     15578     15551     15577     15579
     15552     15551     15553     15552     15551     15577     15553     15551     15577
     15554     15556     15557     15554     15561     15562     15554     15561     15563
     15554     15561     15569     15555     15554     15556     15555     15554     15561
     15556     15554     15561     15556     15557     15558     15556     15557     15559
     15556     15557     15560     15558     15557     15559     15558     15557     15560
     15559     15557     15560     15561     15562     15564     15561     15569     15570
     15561     15569     15571     15562     15561     15563     15562     15561     15569
     15562     15564     15565     15562     15564     15566     15563     15561     15569
     15564     15566     15567     15564     15566     15568     15564     15566     15599
     15565     15564     15566     15566     15599     15600     15566     15599     15601
     15566     15599     15644     15567     15566     15568     15567     15566     15599
     15568     15566     15599     15569     15571     15572     15569     15571     15678
     15570     15569     15571     15571     15678     15679     15571     15678     15680
     15572     15571     15678     15573     15575     15576     15573     15577     15578
     15573     15577     15579     15573     15587     15588     15573     15587     15589
     15573     15587     15595     15574     15573     15575     15574     15573     15577
     15574     15573     15587     15575     15573     15577     15575     15573     15587
     15577     15573     15587     15577     15579     15580     15578     15577     15579
     15579     15580     15581     15579     15580     15582     15579     15580     15595
     15580     15582     15586     15580     15595     15587     15580     15595     15596
     15580     15595     15597     15581     15580     15582     15581     15580     15595
     15582     15580     15595     15582     15586     15583     15582     15586     15584
     15582     15586     15585     15583     15586     15584     15583     15586     15585
     15584     15586     15585     15587     15589     15590     15587     15595     15596
     15587     15595     15597     15588     15587     15589     15588     15587     15595
     15589     15587     15595     15589     15590     15591     15589     15590     15592
     15590     15592     15593     15590     15592     15594     15590     15592     15756
     15591     15590     15592     15592     15756     15757     15592     15756     15758
     15592     15756     15760     15593     15592     15594     15593     15592     15756
     15594     15592     15756     15595     15597     15598     15595     15597     15794
     15596     15595     15597     15597     15794     15795     15597     15794     15796
     15598     15597     15794     15599     15601     15602     15599     15644     15645
     15599     15644     15646     15599     15644     15647     15600     15599     15601
     15600     15599     15644     15601     15599     15644     15601     15602     15603
     15601     15602     15604     15602     15604     15605     15602     15604     15606
     15602     15604     15607     15603     15602     15604     15604     15607     15608
     15604     15607     15609     15604     15607     15610     15605     15604     15606
     15605     15604     15607     15606     15604     15607     15607     15610     15611
     15607     15610     15612     15607     15610     15613     15608     15607     15609
     15608     15607     15610     15609     15607     15610     15610     15613     15614
     15610     15613     15615     15610     15613     15616     15611     15610     15612
     15611     15610     15613     15612     15610     15613     15613     15616     15617
     15613     15616     15618     15613     15616     15619     15614     15613     15615
     15614     15613     15616     15615     15613     15616     15616     15619     15620
     15616     15619     15621     15616     15619     15622     15617     15616     15618
     15617     15616     15619     15618     15616     15619     15619     15622     15623
     15619     15622     15624     15619     15622     15625     15620     15619     15621
     15620     15619     15622     15621     15619     15622     15622     15625     15626
     15622     15625     15627     15622     15625     15628     15623     15622     15624
     15623     15622     15625     15624     15622     15625     15625     15628     15629
     15625     15628     15630     15625     15628     15631     15626     15625     15627
     15626     15625     15628     15627     15625     15628     15628     15631     15632
     15628     15631     15633     15628     15631     15634     15629     15628     15630
     15629     15628     15631     15630     15628     15631     15631     15634     15635
     15631     15634     15636     15631     15634     15637     15632     15631     15633
     15632     15631     15634     15633     15631     15634     15634     15637     15638
     15634     15637     15639     15634     15637     15640     15635     15634     15636
     15635     15634     15637     15636     15634     15637     15637     15640     15641
     15637     15640     15642     15637     15640     15643     15638     15637     15639
     15638     15637     15640     15639     15637     15640     15641     15640     15642
     15641     15640     15643     15642     15640     15643     15644     15647     15648
     15644     15647     15649     15644     15647     15650     15645     15644     15646
     15645     15644     15647     15646     15644     15647     15647     15650     15651
     15647     15650     15652     15647     15650     15653     15648     15647     15649
     15648     15647     15650     15649     15647     15650     15650     15653     15654
     15650     15653     15655     15650     15653     15656     15651     15650     15652
     15651     15650     15653     15652     15650     15653     15653     15656     15657
     15653     15656     15658     15653     15656     15659     15654     15653     15655
     15654     15653     15656     15655     15653     15656     15656     15659     15660
     15656     15659     15661     15656     15659     15662     15657     15656     15658
     15657     15656     15659     15658     15656     15659     15659     15662     15663
     15659     15662     15664     15659     15662     15665     15660     15659     15661
     15660     15659     15662     15661     15659     15662     15662     15665     15666
     15662     15665     15667     15662     15665     15668     15663     15662     15664
     15663     15662     15665     15664     15662     15665     15665     15668     15669
     15665     15668     15670     15665     15668     15671     15666     15665     15667
     15666     15665     15668     15667     15665     15668     15668     15671     15672
     15668     15671     15673     15668     15671     15674     15669     15668     15670
     15669     15668     15671     15670     15668     15671     15671     15674     15675
     15671     15674     15676     15671     15674     15677     15672     15671     15673
     15672     15671     15674     15673     15671     15674     15675     15674     15676
     15675     15674     15677     15676     15674     15677     15678     15680     15681
     15678     15680     15682     15678     15680     15683     15679     15678     15680
     15680     15683     15684     15680     15683     15685     15680     15683     15722
     15681     15680     15682     15681     15680     15683     15682     15680     15683
     15683     15685     15686     15683     15722     15723     15683     15722     15724
     15683     15722     15725     15684     15683     15685     15684     15683     15722
     15685     15683     15722     15685     15686     15687     15685     15686     15688
     15686     15688     15689     15686     15688     15690     15686     15688     15691
     15687     15686     15688     15688     15691     15692     15688     15691     15693
     15688     15691     15694     15689     15688     15690     15689     15688     15691
     15690     15688     15691     15691     15694     15695     15691     15694     15696
     15691     15694     15697     15692     15691     15693     15692     15691     15694
     15693     15691     15694     15694     15697     15698     15694     15697     15699
     15694     15697     15700     15695     15694     15696     15695     15694     15697
     15696     15694     15697     15697     15700     15701     15697     15700     15702
     15697     15700     15703     15698     15697     15699     15698     15697     15700
     15699     15697     15700     15700     15703     15704     15700     15703     15705
     15700     15703     15706     15701     15700     15702     15701     15700     15703
     15702     15700     15703     15703     15706     15707     15703     15706     15708
     15703     15706     15709     15704     15703     15705     15704     15703     15706
     15705     15703     15706     15706     15709     15710     15706     15709     15711
     15706     15709     15712     15707     15706     15708     15707     15706     15709
     15708     15706     15709     15709     15712     15713     15709     15712     15714
     15709     15712     15715     15710     15709     15711     15710     15709     15712
     15711     15709     15712     15712     15715     15716     15712     15715     15717
     15712     15715     15718     15713     15712     15714     15713     15712     15715
     15714     15712     15715     15715     15718     15719     15715     15718     15720
     15715     15718     15721     15716     15715     15717     15716     15715     15718
     15717     15715     15718     15719     15718     15720     15719     15718     15721
     15720     15718     15721     15722     15725     15726     15722     15725     15727
     15722     15725     15728     15723     15722     15724     15723     15722     15725
     15724     15722     15725     15725     15728     15729     15725     15728     15730
     15725     15728     15731     15726     15725     15727     15726     15725     15728
     15727     15725     15728     15728     15731     15732     15728     15731     15733
     15728     15731     15734     15729     15728     15730     15729     15728     15731
     15730     15728     15731     15731     15734     15735     15731     15734     15736
     15731     15734     15737     15732     15731     15733     15732     15731     15734
     15733     15731     15734     15734     15737     15738     15734     15737     15739
     15734     15737     15740     15735     15734     15736     15735     15734     15737
     15736     15734     15737     15737     15740     15741     15737     15740     15742
     15737     15740     15743     15738     15737     15739     15738     15737     15740
     15739     15737     15740     15740     15743     15744     15740     15743     15745
     15740     15743     15746     15741     15740     15742     15741     15740     15743
     15742     15740     15743     15743     15746     15747     15743     15746     15748
     15743     15746     15749     15744     15743     15745     15744     15743     15746
     15745     15743     15746     15746     15749     15750     15746     15749     15751
     15746     15749     15752     15747     15746     15748     15747     15746     15749
     15748     15746     15749     15749     15752     15753     15749     15752     15754
     15749     15752     15755     15750     15749     15751     15750     15749     15752
     15751     15749     15752     15753     15752     15754     15753     15752     15755
     15754     15752     15755     15756     15758     15759     15756     15760     15761
     15756     15760     15762     15756     15760     15763     15757     15756     15758
     15757     15756     15760     15758     15756     15760     15760     15763     15764
     15760     15763     15765     15760     15763     15766     15761     15760     15762
     15761     15760     15763     15762     15760     15763     15763     15766     15767
     15763     15766     15768     15763     15766     15769     15764     15763     15765
     15764     15763     15766     15765     15763     15766     15766     15769     15770
     15766     15769     15771     15766     15769     15772     15767     15766     15768
     15767     15766     15769     15768     15766     15769     15769     15772     15773
     15769     15772     15774     15769     15772     15775     15770     15769     15771
     15770     15769     15772     15771     15769     15772     15772     15775     15776
     15772     15775     15777     15772     15775     15778     15773     15772     15774
     15773     15772     15775     15774     15772     15775     15775     15778     15779
     15775     15778     15780     15775     15778     15781     15776     15775     15777
     15776     15775     15778     15777     15775     15778     15778     15781     15782
     15778     15781     15783     15778     15781     15784     15779     15778     15780
     15779     15778     15781     15780     15778     15781     15781     15784     15785
     15781     15784     15786     15781     15784     15787     15782     15781     15783
     15782     15781     15784     15783     15781     15784     15784     15787     15788
     15784     15787     15789     15784     15787     15790     15785     15784     15786
     15785     15784     15787     15786     15784     15787     15787     15790     15791
     15787     15790     15792     15787     15790     15793     15788     15787     15789
     15788     15787     15790     15789     15787     15790     15791     15790     15792
     15791     15790     15793     15792     15790     15793     15794     15796     15797
     15794     15796     15798     15794     15796     15799     15795     15794     15796
     15796     15799     15800     15796     15799     15801     15796     15799     15803
     15797     15796     15798     15797     15796     15799     15798     15796     15799
     15799     15801     15802     15799     15803     15804     15799     15803     15805
     15799     15803     15806     15800     15799     15801     15800     15799     15803
     15801     15799     15803     15803     15806     15807     15803     15806     15808
     15803     15806     15809     15804     15803     15805     15804     15803     15806
     15805     15803     15806     15806     15809     15810     15806     15809     15811
     15806     15809     15812     15807     15806     15808     15807     15806     15809
     15808     15806     15809     15809     15812     15813     15809     15812     15814
     15809     15812     15815     15810     15809     15811     15810     15809     15812
     15811     15809     15812     15812     15815     15816     15812     15815     15817
     15812     15815     15818     15813     15812     15814     15813     15812     15815
     15814     15812     15815     15815     15818     15819     15815     15818     15820
     15815     15818     15821     15816     15815     15817     15816     15815     15818
     15817     15815     15818     15818     15821     15822     15818     15821     15823
     15818     15821     15824     15819     15818     15820     15819     15818     15821
     15820     15818     15821     15821     15824     15825     15821     15824     15826
     15821     15824     15827     15822     15821     15823     15822     15821     15824
     15823     15821     15824     15824     15827     15828     15824     15827     15829
     15824     15827     15830     15825     15824     15826     15825     15824     15827
     15826     15824     15827     15827     15830     15831     15827     15830     15832
     15827     15830     15833     15828     15827     15829     15828     15827     15830
     15829     15827     15830     15830     15833     15834     15830     15833     15835
     15830     15833     15836     15831     15830     15832     15831     15830     15833
     15832     15830     15833     15834     15833     15835     15834     15833     15836
     15835     15833     15836     15837     15840     15843     15837     15840     15844
     15838     15837     15839     15838     15837     15840     15839     15837     15840
     15840     15843     15841     15840     15844     15845     15840     15844     15846
     15840     15844     15847     15841     15850     15847     15841     15850     15851
     15841     15850     15852     15841     15853     15854     15841     15853     15855
     15841     15853     15857     15842     15841     15843     15842     15841     15850
     15842     15841     15853     15843     15840     15844     15843     15841     15850
     15843     15841     15853     15844     15847     15848     15844     15847     15849
     15844     15847     15850     15845     15844     15846     15845     15844     15847
     15846     15844     15847     15847     15849     15865     15847     15850     15851
     15847     15850     15852     15848     15847     15849     15848     15847     15850
     15849     15847     15850     15849     15865     15862     15849     15865     15868
     15849     15865     15869     15850     15841     15853     15850     15852     15889
     15851     15850     15852     15852     15889     15890     15852     15889     15893
     15852     15889     15894     15853     15855     15856     15853     15857     15858
     15853     15857     15859     15853     15857     15860     15854     15853     15855
     15854     15853     15857     15855     15853     15857     15857     15860     15861
     15858     15857     15859     15858     15857     15860     15859     15857     15860
     15862     15865     15868     15862     15865     15869     15863     15862     15864
     15863     15862     15865     15864     15862     15865     15865     15868     15866
     15865     15869     15870     15865     15869     15871     15865     15869     15872
     15866     15876     15872     15866     15876     15877     15866     15876     15878
     15866     15880     15881     15866     15880     15882     15866     15880     15884
     15867     15866     15868     15867     15866     15876     15867     15866     15880
     15868     15865     15869     15868     15866     15876     15868     15866     15880
     15869     15872     15873     15869     15872     15874     15869     15872     15876
     15870     15869     15871     15870     15869     15872     15871     15869     15872
     15872     15874     15875     15872     15876     15877     15872     15876     15878
     15873     15872     15874     15873     15872     15876     15874     15872     15876
     15876     15866     15880     15876     15878     15879     15877     15876     15878
     15880     15882     15883     15880     15884     15885     15880     15884     15886
     15880     15884     15887     15881     15880     15882     15881     15880     15884
     15882     15880     15884     15884     15887     15888     15885     15884     15886
     15885     15884     15887     15886     15884     15887     15889     15893     15891
     15889     15894     15895     15889     15894     15896     15889     15894     15898
     15890     15889     15893     15890     15889     15894     15891     15901     15898
     15891     15901     15902     15891     15901     15903     15891     15908     15909
     15891     15908     15910     15891     15908     15912     15892     15891     15893
     15892     15891     15901     15892     15891     15908     15893     15889     15894
     15893     15891     15901     15893     15891     15908     15894     15896     15897
     15894     15898     15899     15894     15898     15900     15894     15898     15901
     15895     15894     15896     15895     15894     15898     15896     15894     15898
     15898     15900     15917     15898     15901     15902     15898     15901     15903
     15899     15898     15900     15899     15898     15901     15900     15898     15901
     15900     15917     15918     15900     15917     15921     15900     15917     15922
     15901     15891     15908     15901     15903     15904     15902     15901     15903
     15903     15904     15905     15903     15904     15906     15903     15904     15907
     15905     15904     15906     15905     15904     15907     15906     15904     15907
     15908     15910     15911     15908     15912     15913     15908     15912     15914
     15908     15912     15915     15909     15908     15910     15909     15908     15912
     15910     15908     15912     15912     15915     15916     15913     15912     15914
     15913     15912     15915     15914     15912     15915     15917     15921     15919
     15917     15922     15923     15917     15922     15924     15917     15922     15926
     15918     15917     15921     15918     15917     15922     15919     15929     15926
     15919     15929     15930     15919     15929     15931     15919     15936     15937
     15919     15936     15938     15919     15936     15940     15920     15919     15921
     15920     15919     15929     15920     15919     15936     15921     15917     15922
     15921     15919     15929     15921     15919     15936     15922     15924     15925
     15922     15926     15927     15922     15926     15928     15922     15926     15929
     15923     15922     15924     15923     15922     15926     15924     15922     15926
     15926     15928     15970     15926     15929     15930     15926     15929     15931
     15927     15926     15928     15927     15926     15929     15928     15926     15929
     15928     15970     15971     15928     15970     15974     15928     15970     15975
     15929     15919     15936     15929     15931     15932     15930     15929     15931
     15931     15932     15933     15931     15932     15934     15931     15932     15935
     15933     15932     15934     15933     15932     15935     15934     15932     15935
     15936     15938     15939     15936     15940     15941     15936     15940     15942
     15936     15940     15943     15937     15936     15938     15937     15936     15940
     15938     15936     15940     15940     15943     15944     15941     15940     15942
     15941     15940     15943     15942     15940     15943     15943     15944     15945
     15943     15944     15948     15943     15944     15949     15944     15948     15946
     15944     15949     15950     15944     15949     15951     15944     15949     15953
     15945     15944     15948     15945     15944     15949     15946     15957     15953
     15946     15957     15958     15946     15957     15959     15946     15961     15962
     15946     15961     15963     15946     15961     15965     15947     15946     15948
     15947     15946     15957     15947     15946     15961     15948     15944     15949
     15948     15946     15957     15948     15946     15961     15949     15951     15952
     15949     15953     15954     15949     15953     15955     15949     15953     15957
     15950     15949     15951     15950     15949     15953     15951     15949     15953
     15953     15955     15956     15953     15957     15958     15953     15957     15959
     15954     15953     15955     15954     15953     15957     15955     15953     15957
     15957     15946     15961     15957     15959     15960     15958     15957     15959
     15961     15963     15964     15961     15965     15966     15961     15965     15967
     15961     15965     15968     15962     15961     15963     15962     15961     15965
     15963     15961     15965     15965     15968     15969     15966     15965     15967
     15966     15965     15968     15967     15965     15968     15970     15974     15972
     15970     15975     15976     15970     15975     15977     15970     15975     15979
     15971     15970     15974     15971     15970     15975     15972     15982     15979
     15972     15982     15983     15972     15982     15984     15972     15986     15987
     15972     15986     15988     15972     15986     15989     15973     15972     15974
     15973     15972     15982     15973     15972     15986     15974     15970     15975
     15974     15972     15982     15974     15972     15986     15975     15977     15978
     15975     15979     15980     15975     15979     15981     15975     15979     15982
     15976     15975     15977     15976     15975     15979     15977     15975     15979
     15979     15981     15991     15979     15982     15983     15979     15982     15984
     15980     15979     15981     15980     15979     15982     15981     15979     15982
     15981     15991     15992     15981     15991     15995     15981     15991     15996
     15982     15972     15986     15982     15984     15985     15983     15982     15984
     15986     15989     15990     15987     15986     15988     15987     15986     15989
     15988     15986     15989     15991     15995     15993     15991     15996     15997
     15991     15996     15998     15991     15996     15999     15992     15991     15995
     15992     15991     15996     15993     16002     15999     15993     16002     16003
     15993     16002     16004     15993     16006     16007     15993     16006     16008
     15993     16006     16009     15994     15993     15995     15994     15993     16002
     15994     15993     16006     15995     15991     15996     15995     15993     16002
     15995     15993     16006     15996     15998     16011     15996     15999     16000
     15996     15999     16001     15996     15999     16002     15997     15996     15998
     15997     15996     15999     15998     15996     15999     15998     16011     16012
     15998     16011     16015     15998     16011     16016     15999     16001     16054
     15999     16002     16003     15999     16002     16004     16000     15999     16001
     16000     15999     16002     16001     15999     16002     16001     16054     16055
     16001     16054     16058     16001     16054     16059     16002     15993     16006
     16002     16004     16005     16003     16002     16004     16006     16009     16010
     16007     16006     16008     16007     16006     16009     16008     16006     16009
     16011     16015     16013     16011     16016     16017     16011     16016     16018
     16011     16016     16019     16012     16011     16015     16012     16011     16016
     16013     16023     16019     16013     16023     16024     16013     16023     16025
     16013     16027     16028     16013     16027     16029     16013     16027     16030
     16014     16013     16015     16014     16013     16023     16014     16013     16027
     16015     16011     16016     16015     16013     16023     16015     16013     16027
     16016     16018     16032     16016     16019     16020     16016     16019     16021
     16016     16019     16023     16017     16016     16018     16017     16016     16019
     16018     16016     16019     16018     16032     16033     16018     16032     16036
     16018     16032     16037     16019     16021     16022     16019     16023     16024
     16019     16023     16025     16020     16019     16021     16020     16019     16023
     16021     16019     16023     16023     16013     16027     16023     16025     16026
     16024     16023     16025     16027     16030     16031     16028     16027     16029
     16028     16027     16030     16029     16027     16030     16032     16036     16034
     16032     16037     16038     16032     16037     16039     16032     16037     16041
     16033     16032     16036     16033     16032     16037     16034     16045     16041
     16034     16045     16046     16034     16045     16047     16034     16049     16050
     16034     16049     16051     16034     16049     16052     16035     16034     16036
     16035     16034     16045     16035     16034     16049     16036     16032     16037
     16036     16034     16045     16036     16034     16049     16037     16039     16040
     16037     16041     16042     16037     16041     16043     16037     16041     16045
     16038     16037     16039     16038     16037     16041     16039     16037     16041
     16041     16043     16044     16041     16045     16046     16041     16045     16047
     16042     16041     16043     16042     16041     16045     16043     16041     16045
     16045     16034     16049     16045     16047     16048     16046     16045     16047
     16049     16052     16053     16050     16049     16051     16050     16049     16052
     16051     16049     16052     16054     16058     16056     16054     16059     16060
     16054     16059     16061     16054     16059     16063     16055     16054     16058
     16055     16054     16059     16056     16066     16063     16056     16066     16067
     16056     16066     16068     16056     16070     16071     16056     16070     16072
     16056     16070     16073     16057     16056     16058     16057     16056     16066
     16057     16056     16070     16058     16054     16059     16058     16056     16066
     16058     16056     16070     16059     16061     16062     16059     16063     16064
     16059     16063     16065     16059     16063     16066     16060     16059     16061
     16060     16059     16063     16061     16059     16063     16063     16065     16075
     16063     16066     16067     16063     16066     16068     16064     16063     16065
     16064     16063     16066     16065     16063     16066     16065     16075     16076
     16065     16075     16079     16065     16075     16080     16066     16056     16070
     16066     16068     16069     16067     16066     16068     16070     16073     16074
     16071     16070     16072     16071     16070     16073     16072     16070     16073
     16075     16079     16077     16075     16080     16081     16075     16080     16082
     16075     16080     16090     16076     16075     16079     16076     16075     16080
     16077     16093     16090     16077     16093     16094     16077     16093     16095
     16077     16097     16098     16077     16097     16099     16077     16097     16100
     16078     16077     16079     16078     16077     16093     16078     16077     16097
     16079     16075     16080     16079     16077     16093     16079     16077     16097
     16080     16082     16083     16080     16082     16084     16080     16090     16091
     16080     16090     16092     16080     16090     16093     16081     16080     16082
     16081     16080     16090     16082     16080     16090     16082     16084     16085
     16082     16084     16086     16083     16082     16084     16084     16086     16087
     16084     16086     16088     16084     16086     16089     16085     16084     16086
     16087     16086     16088     16087     16086     16089     16088     16086     16089
     16090     16092     16102     16090     16093     16094     16090     16093     16095
     16091     16090     16092     16091     16090     16093     16092     16090     16093
     16092     16102     16103     16092     16102     16106     16092     16102     16107
     16093     16077     16097     16093     16095     16096     16094     16093     16095
     16097     16100     16101     16098     16097     16099     16098     16097     16100
     16099     16097     16100     16102     16106     16104     16102     16107     16108
     16102     16107     16109     16102     16107     16110     16103     16102     16106
     16103     16102     16107     16104     16114     16110     16104     16114     16115
     16104     16114     16116     16104     16118     16119     16104     16118     16120
     16104     16118     16121     16105     16104     16106     16105     16104     16114
     16105     16104     16118     16106     16102     16107     16106     16104     16114
     16106     16104     16118     16107     16109     16123     16107     16110     16111
     16107     16110     16112     16107     16110     16114     16108     16107     16109
     16108     16107     16110     16109     16107     16110     16109     16123     16124
     16109     16123     16127     16109     16123     16128     16110     16112     16113
     16110     16114     16115     16110     16114     16116     16111     16110     16112
     16111     16110     16114     16112     16110     16114     16114     16104     16118
     16114     16116     16117     16115     16114     16116     16118     16121     16122
     16119     16118     16120     16119     16118     16121     16120     16118     16121
     16123     16127     16125     16123     16128     16129     16123     16128     16130
     16123     16128     16131     16124     16123     16127     16124     16123     16128
     16125     16135     16131     16125     16135     16136     16125     16135     16137
     16125     16139     16140     16125     16139     16141     16125     16139     16142
     16126     16125     16127     16126     16125     16135     16126     16125     16139
     16127     16123     16128     16127     16125     16135     16127     16125     16139
     16128     16130     16143     16128     16131     16132     16128     16131     16133
     16128     16131     16135     16129     16128     16130     16129     16128     16131
     16130     16128     16131     16130     16143     16144     16130     16143     16147
     16130     16143     16148     16131     16133     16134     16131     16135     16136
     16131     16135     16137     16132     16131     16133     16132     16131     16135
     16133     16131     16135     16135     16125     16139     16135     16137     16138
     16136     16135     16137     16140     16139     16141     16140     16139     16142
     16141     16139     16142     16143     16147     16145     16143     16148     16149
     16143     16148     16150     16143     16148     16151     16144     16143     16147
     16144     16143     16148     16145     16154     16151     16145     16154     16155
     16145     16154     16156     16145     16158     16159     16145     16158     16160
     16145     16158     16161     16146     16145     16147     16146     16145     16154
     16146     16145     16158     16147     16143     16148     16147     16145     16154
     16147     16145     16158     16148     16150     16162     16148     16151     16152
     16148     16151     16153     16148     16151     16154     16149     16148     16150
     16149     16148     16151     16150     16148     16151     16150     16162     16163
     16150     16162     16166     16150     16162     16167     16151     16153     16190
     16151     16154     16155     16151     16154     16156     16152     16151     16153
     16152     16151     16154     16153     16151     16154     16153     16190     16191
     16153     16190     16194     16153     16190     16195     16154     16145     16158
     16154     16156     16157     16155     16154     16156     16159     16158     16160
     16159     16158     16161     16160     16158     16161     16162     16166     16164
     16162     16167     16168     16162     16167     16169     16162     16167     16177
     16163     16162     16166     16163     16162     16167     16164     16181     16177
     16164     16181     16182     16164     16181     16183     16164     16185     16186
     16164     16185     16187     16164     16185     16188     16165     16164     16166
     16165     16164     16181     16165     16164     16185     16166     16162     16167
     16166     16164     16181     16166     16164     16185     16167     16169     16170
     16167     16169     16171     16167     16177     16178     16167     16177     16179
     16167     16177     16181     16168     16167     16169     16168     16167     16177
     16169     16167     16177     16169     16171     16172     16169     16171     16173
     16170     16169     16171     16171     16173     16174     16171     16173     16175
     16171     16173     16176     16172     16171     16173     16174     16173     16175
     16174     16173     16176     16175     16173     16176     16177     16179     16180
     16177     16181     16182     16177     16181     16183     16178     16177     16179
     16178     16177     16181     16179     16177     16181     16181     16164     16185
     16181     16183     16184     16182     16181     16183     16185     16188     16189
     16186     16185     16187     16186     16185     16188     16187     16185     16188
     16190     16194     16192     16190     16195     16196     16190     16195     16197
     16190     16195     16205     16191     16190     16194     16191     16190     16195
     16192     16208     16205     16192     16208     16209     16192     16208     16210
     16192     16212     16213     16192     16212     16214     16192     16212     16215
     16193     16192     16194     16193     16192     16208     16193     16192     16212
     16194     16190     16195     16194     16192     16208     16194     16192     16212
     16195     16197     16198     16195     16197     16199     16195     16205     16206
     16195     16205     16207     16195     16205     16208     16196     16195     16197
     16196     16195     16205     16197     16195     16205     16197     16199     16200
     16197     16199     16201     16198     16197     16199     16199     16201     16202
     16199     16201     16203     16199     16201     16204     16200     16199     16201
     16202     16201     16203     16202     16201     16204     16203     16201     16204
     16205     16207     16217     16205     16208     16209     16205     16208     16210
     16206     16205     16207     16206     16205     16208     16207     16205     16208
     16207     16217     16218     16207     16217     16221     16207     16217     16222
     16208     16192     16212     16208     16210     16211     16209     16208     16210
     16212     16215     16216     16213     16212     16214     16213     16212     16215
     16214     16212     16215     16217     16221     16219     16217     16222     16223
     16217     16222     16224     16217     16222     16225     16218     16217     16221
     16218     16217     16222     16219     16229     16225     16219     16229     16230
     16219     16229     16231     16219     16233     16234     16219     16233     16235
     16219     16233     16236     16220     16219     16221     16220     16219     16229
     16220     16219     16233     16221     16217     16222     16221     16219     16229
     16221     16219     16233     16222     16224     16238     16222     16225     16226
     16222     16225     16227     16222     16225     16229     16223     16222     16224
     16223     16222     16225     16224     16222     16225     16224     16238     16239
     16224     16238     16242     16224     16238     16243     16225     16227     16228
     16225     16229     16230     16225     16229     16231     16226     16225     16227
     16226     16225     16229     16227     16225     16229     16229     16219     16233
     16229     16231     16232     16230     16229     16231     16233     16236     16237
     16234     16233     16235     16234     16233     16236     16235     16233     16236
     16238     16242     16240     16238     16243     16244     16238     16243     16245
     16238     16243     16246     16239     16238     16242     16239     16238     16243
     16240     16250     16246     16240     16250     16251     16240     16250     16252
     16240     16254     16255     16240     16254     16256     16240     16254     16257
     16241     16240     16242     16241     16240     16250     16241     16240     16254
     16242     16238     16243     16242     16240     16250     16242     16240     16254
     16243     16245     16258     16243     16246     16247     16243     16246     16248
     16243     16246     16250     16244     16243     16245     16244     16243     16246
     16245     16243     16246     16245     16258     16259     16245     16258     16262
     16245     16258     16263     16246     16248     16249     16246     16250     16251
     16246     16250     16252     16247     16246     16248     16247     16246     16250
     16248     16246     16250     16250     16240     16254     16250     16252     16253
     16251     16250     16252     16255     16254     16256     16255     16254     16257
     16256     16254     16257     16258     16262     16260     16258     16263     16264
     16258     16263     16265     16258     16263     16266     16259     16258     16262
     16259     16258     16263     16260     16269     16266     16260     16269     16270
     16260     16269     16271     16260     16273     16274     16260     16273     16275
     16260     16273     16276     16261     16260     16262     16261     16260     16269
     16261     16260     16273     16262     16258     16263     16262     16260     16269
     16262     16260     16273     16263     16265     16277     16263     16266     16267
     16263     16266     16268     16263     16266     16269     16264     16263     16265
     16264     16263     16266     16265     16263     16266     16265     16277     16278
     16265     16277     16281     16265     16277     16282     16266     16268     16305
     16266     16269     16270     16266     16269     16271     16267     16266     16268
     16267     16266     16269     16268     16266     16269     16268     16305     16306
     16268     16305     16309     16268     16305     16310     16269     16260     16273
     16269     16271     16272     16270     16269     16271     16274     16273     16275
     16274     16273     16276     16275     16273     16276     16277     16281     16279
     16277     16282     16283     16277     16282     16284     16277     16282     16292
     16278     16277     16281     16278     16277     16282     16279     16296     16292
     16279     16296     16297     16279     16296     16298     16279     16300     16301
     16279     16300     16302     16279     16300     16303     16280     16279     16281
     16280     16279     16296     16280     16279     16300     16281     16277     16282
     16281     16279     16296     16281     16279     16300     16282     16284     16285
     16282     16284     16286     16282     16292     16293     16282     16292     16294
     16282     16292     16296     16283     16282     16284     16283     16282     16292
     16284     16282     16292     16284     16286     16287     16284     16286     16288
     16285     16284     16286     16286     16288     16289     16286     16288     16290
     16286     16288     16291     16287     16286     16288     16289     16288     16290
     16289     16288     16291     16290     16288     16291     16292     16294     16295
     16292     16296     16297     16292     16296     16298     16293     16292     16294
     16293     16292     16296     16294     16292     16296     16296     16279     16300
     16296     16298     16299     16297     16296     16298     16300     16303     16304
     16301     16300     16302     16301     16300     16303     16302     16300     16303
     16305     16309     16307     16305     16310     16311     16305     16310     16312
     16305     16310     16320     16306     16305     16309     16306     16305     16310
     16307     16323     16320     16307     16323     16324     16307     16323     16325
     16307     16327     16328     16307     16327     16329     16307     16327     16330
     16308     16307     16309     16308     16307     16323     16308     16307     16327
     16309     16305     16310     16309     16307     16323     16309     16307     16327
     16310     16312     16313     16310     16312     16314     16310     16320     16321
     16310     16320     16322     16310     16320     16323     16311     16310     16312
     16311     16310     16320     16312     16310     16320     16312     16314     16315
     16312     16314     16316     16313     16312     16314     16314     16316     16317
     16314     16316     16318     16314     16316     16319     16315     16314     16316
     16317     16316     16318     16317     16316     16319     16318     16316     16319
     16320     16322     16332     16320     16323     16324     16320     16323     16325
     16321     16320     16322     16321     16320     16323     16322     16320     16323
     16322     16332     16333     16322     16332     16336     16322     16332     16337
     16323     16307     16327     16323     16325     16326     16324     16323     16325
     16327     16330     16331     16328     16327     16329     16328     16327     16330
     16329     16327     16330     16332     16336     16334     16332     16337     16338
     16332     16337     16339     16332     16337     16340     16333     16332     16336
     16333     16332     16337     16334     16344     16340     16334     16344     16345
     16334     16344     16346     16334     16348     16349     16334     16348     16350
     16334     16348     16351     16335     16334     16336     16335     16334     16344
     16335     16334     16348     16336     16332     16337     16336     16334     16344
     16336     16334     16348     16337     16339     16353     16337     16340     16341
     16337     16340     16342     16337     16340     16344     16338     16337     16339
     16338     16337     16340     16339     16337     16340     16339     16353     16354
     16339     16353     16357     16339     16353     16358     16340     16342     16343
     16340     16344     16345     16340     16344     16346     16341     16340     16342
     16341     16340     16344     16342     16340     16344     16344     16334     16348
     16344     16346     16347     16345     16344     16346     16348     16351     16352
     16349     16348     16350     16349     16348     16351     16350     16348     16351
     16353     16357     16355     16353     16358     16359     16353     16358     16360
     16353     16358     16361     16354     16353     16357     16354     16353     16358
     16355     16365     16361     16355     16365     16366     16355     16365     16367
     16355     16369     16370     16355     16369     16371     16355     16369     16372
     16356     16355     16357     16356     16355     16365     16356     16355     16369
     16357     16353     16358     16357     16355     16365     16357     16355     16369
     16358     16360     16373     16358     16361     16362     16358     16361     16363
     16358     16361     16365     16359     16358     16360     16359     16358     16361
     16360     16358     16361     16360     16373     16374     16360     16373     16377
     16360     16373     16378     16361     16363     16364     16361     16365     16366
     16361     16365     16367     16362     16361     16363     16362     16361     16365
     16363     16361     16365     16365     16355     16369     16365     16367     16368
     16366     16365     16367     16370     16369     16371     16370     16369     16372
     16371     16369     16372     16373     16377     16375     16373     16378     16379
     16373     16378     16380     16373     16378     16381     16374     16373     16377
     16374     16373     16378     16375     16384     16381     16375     16384     16385
     16375     16384     16386     16375     16388     16389     16375     16388     16390
     16375     16388     16391     16376     16375     16377     16376     16375     16384
     16376     16375     16388     16377     16373     16378     16377     16375     16384
     16377     16375     16388     16378     16380     16392     16378     16381     16382
     16378     16381     16383     16378     16381     16384     16379     16378     16380
     16379     16378     16381     16380     16378     16381     16380     16392     16393
     16380     16392     16396     16380     16392     16397     16381     16383     16420
     16381     16384     16385     16381     16384     16386     16382     16381     16383
     16382     16381     16384     16383     16381     16384     16383     16420     16421
     16383     16420     16424     16383     16420     16425     16384     16375     16388
     16384     16386     16387     16385     16384     16386     16389     16388     16390
     16389     16388     16391     16390     16388     16391     16392     16396     16394
     16392     16397     16398     16392     16397     16399     16392     16397     16407
     16393     16392     16396     16393     16392     16397     16394     16411     16407
     16394     16411     16412     16394     16411     16413     16394     16415     16416
     16394     16415     16417     16394     16415     16418     16395     16394     16396
     16395     16394     16411     16395     16394     16415     16396     16392     16397
     16396     16394     16411     16396     16394     16415     16397     16399     16400
     16397     16399     16401     16397     16407     16408     16397     16407     16409
     16397     16407     16411     16398     16397     16399     16398     16397     16407
     16399     16397     16407     16399     16401     16402     16399     16401     16403
     16400     16399     16401     16401     16403     16404     16401     16403     16405
     16401     16403     16406     16402     16401     16403     16404     16403     16405
     16404     16403     16406     16405     16403     16406     16407     16409     16410
     16407     16411     16412     16407     16411     16413     16408     16407     16409
     16408     16407     16411     16409     16407     16411     16411     16394     16415
     16411     16413     16414     16412     16411     16413     16415     16418     16419
     16416     16415     16417     16416     16415     16418     16417     16415     16418
     16420     16424     16422     16420     16425     16426     16420     16425     16427
     16420     16425     16435     16421     16420     16424     16421     16420     16425
     16422     16438     16435     16422     16438     16439     16422     16438     16440
     16422     16442     16443     16422     16442     16444     16422     16442     16445
     16423     16422     16424     16423     16422     16438     16423     16422     16442
     16424     16420     16425     16424     16422     16438     16424     16422     16442
     16425     16427     16428     16425     16427     16429     16425     16435     16436
     16425     16435     16437     16425     16435     16438     16426     16425     16427
     16426     16425     16435     16427     16425     16435     16427     16429     16430
     16427     16429     16431     16428     16427     16429     16429     16431     16432
     16429     16431     16433     16429     16431     16434     16430     16429     16431
     16432     16431     16433     16432     16431     16434     16433     16431     16434
     16435     16437     16447     16435     16438     16439     16435     16438     16440
     16436     16435     16437     16436     16435     16438     16437     16435     16438
     16437     16447     16448     16437     16447     16451     16437     16447     16452
     16438     16422     16442     16438     16440     16441     16439     16438     16440
     16442     16445     16446     16443     16442     16444     16443     16442     16445
     16444     16442     16445     16447     16451     16449     16447     16452     16453
     16447     16452     16454     16447     16452     16455     16448     16447     16451
     16448     16447     16452     16449     16459     16455     16449     16459     16460
     16449     16459     16461     16449     16463     16464     16449     16463     16465
     16449     16463     16466     16450     16449     16451     16450     16449     16459
     16450     16449     16463     16451     16447     16452     16451     16449     16459
     16451     16449     16463     16452     16454     16468     16452     16455     16456
     16452     16455     16457     16452     16455     16459     16453     16452     16454
     16453     16452     16455     16454     16452     16455     16454     16468     16469
     16454     16468     16472     16454     16468     16473     16455     16457     16458
     16455     16459     16460     16455     16459     16461     16456     16455     16457
     16456     16455     16459     16457     16455     16459     16459     16449     16463
     16459     16461     16462     16460     16459     16461     16463     16466     16467
     16464     16463     16465     16464     16463     16466     16465     16463     16466
     16468     16472     16470     16468     16473     16474     16468     16473     16475
     16468     16473     16476     16469     16468     16472     16469     16468     16473
     16470     16480     16476     16470     16480     16481     16470     16480     16482
     16470     16484     16485     16470     16484     16486     16470     16484     16487
     16471     16470     16472     16471     16470     16480     16471     16470     16484
     16472     16468     16473     16472     16470     16480     16472     16470     16484
     16473     16475     16488     16473     16476     16477     16473     16476     16478
     16473     16476     16480     16474     16473     16475     16474     16473     16476
     16475     16473     16476     16475     16488     16489     16475     16488     16492
     16475     16488     16493     16476     16478     16479     16476     16480     16481
     16476     16480     16482     16477     16476     16478     16477     16476     16480
     16478     16476     16480     16480     16470     16484     16480     16482     16483
     16481     16480     16482     16485     16484     16486     16485     16484     16487
     16486     16484     16487     16488     16492     16490     16488     16493     16494
     16488     16493     16495     16488     16493     16496     16489     16488     16492
     16489     16488     16493     16490     16499     16496     16490     16499     16500
     16490     16499     16501     16490     16503     16504     16490     16503     16505
     16490     16503     16506     16491     16490     16492     16491     16490     16499
     16491     16490     16503     16492     16488     16493     16492     16490     16499
     16492     16490     16503     16493     16495     16507     16493     16496     16497
     16493     16496     16498     16493     16496     16499     16494     16493     16495
     16494     16493     16496     16495     16493     16496     16495     16507     16508
     16495     16507     16511     16495     16507     16512     16496     16498     16535
     16496     16499     16500     16496     16499     16501     16497     16496     16498
     16497     16496     16499     16498     16496     16499     16498     16535     16536
     16498     16535     16539     16498     16535     16540     16499     16490     16503
     16499     16501     16502     16500     16499     16501     16504     16503     16505
     16504     16503     16506     16505     16503     16506     16507     16511     16509
     16507     16512     16513     16507     16512     16514     16507     16512     16522
     16508     16507     16511     16508     16507     16512     16509     16526     16522
     16509     16526     16527     16509     16526     16528     16509     16530     16531
     16509     16530     16532     16509     16530     16533     16510     16509     16511
     16510     16509     16526     16510     16509     16530     16511     16507     16512
     16511     16509     16526     16511     16509     16530     16512     16514     16515
     16512     16514     16516     16512     16522     16523     16512     16522     16524
     16512     16522     16526     16513     16512     16514     16513     16512     16522
     16514     16512     16522     16514     16516     16517     16514     16516     16518
     16515     16514     16516     16516     16518     16519     16516     16518     16520
     16516     16518     16521     16517     16516     16518     16519     16518     16520
     16519     16518     16521     16520     16518     16521     16522     16524     16525
     16522     16526     16527     16522     16526     16528     16523     16522     16524
     16523     16522     16526     16524     16522     16526     16526     16509     16530
     16526     16528     16529     16527     16526     16528     16530     16533     16534
     16531     16530     16532     16531     16530     16533     16532     16530     16533
     16535     16539     16537     16535     16540     16541     16535     16540     16542
     16535     16540     16550     16536     16535     16539     16536     16535     16540
     16537     16553     16550     16537     16553     16554     16537     16553     16555
     16537     16557     16558     16537     16557     16559     16537     16557     16560
     16538     16537     16539     16538     16537     16553     16538     16537     16557
     16539     16535     16540     16539     16537     16553     16539     16537     16557
     16540     16542     16543     16540     16542     16544     16540     16550     16551
     16540     16550     16552     16540     16550     16553     16541     16540     16542
     16541     16540     16550     16542     16540     16550     16542     16544     16545
     16542     16544     16546     16543     16542     16544     16544     16546     16547
     16544     16546     16548     16544     16546     16549     16545     16544     16546
     16547     16546     16548     16547     16546     16549     16548     16546     16549
     16550     16552     16562     16550     16553     16554     16550     16553     16555
     16551     16550     16552     16551     16550     16553     16552     16550     16553
     16552     16562     16563     16552     16562     16566     16552     16562     16567
     16553     16537     16557     16553     16555     16556     16554     16553     16555
     16557     16560     16561     16558     16557     16559     16558     16557     16560
     16559     16557     16560     16562     16566     16564     16562     16567     16568
     16562     16567     16569     16562     16567     16570     16563     16562     16566
     16563     16562     16567     16564     16574     16570     16564     16574     16575
     16564     16574     16576     16564     16578     16579     16564     16578     16580
     16564     16578     16581     16565     16564     16566     16565     16564     16574
     16565     16564     16578     16566     16562     16567     16566     16564     16574
     16566     16564     16578     16567     16569     16583     16567     16570     16571
     16567     16570     16572     16567     16570     16574     16568     16567     16569
     16568     16567     16570     16569     16567     16570     16569     16583     16584
     16569     16583     16587     16569     16583     16588     16570     16572     16573
     16570     16574     16575     16570     16574     16576     16571     16570     16572
     16571     16570     16574     16572     16570     16574     16574     16564     16578
     16574     16576     16577     16575     16574     16576     16578     16581     16582
     16579     16578     16580     16579     16578     16581     16580     16578     16581
     16583     16587     16585     16583     16588     16589     16583     16588     16590
     16583     16588     16591     16584     16583     16587     16584     16583     16588
     16585     16595     16591     16585     16595     16596     16585     16595     16597
     16585     16599     16600     16585     16599     16601     16585     16599     16602
     16586     16585     16587     16586     16585     16595     16586     16585     16599
     16587     16583     16588     16587     16585     16595     16587     16585     16599
     16588     16590     16603     16588     16591     16592     16588     16591     16593
     16588     16591     16595     16589     16588     16590     16589     16588     16591
     16590     16588     16591     16590     16603     16604     16590     16603     16607
     16590     16603     16608     16591     16593     16594     16591     16595     16596
     16591     16595     16597     16592     16591     16593     16592     16591     16595
     16593     16591     16595     16595     16585     16599     16595     16597     16598
     16596     16595     16597     16600     16599     16601     16600     16599     16602
     16601     16599     16602     16603     16607     16605     16603     16608     16609
     16603     16608     16610     16603     16608     16611     16604     16603     16607
     16604     16603     16608     16605     16615     16611     16605     16615     16616
     16605     16615     16617     16605     16619     16620     16605     16619     16621
     16605     16619     16622     16606     16605     16607     16606     16605     16615
     16606     16605     16619     16607     16603     16608     16607     16605     16615
     16607     16605     16619     16608     16610     16623     16608     16611     16612
     16608     16611     16613     16608     16611     16615     16609     16608     16610
     16609     16608     16611     16610     16608     16611     16610     16623     16624
     16610     16623     16627     16610     16623     16628     16611     16613     16614
     16611     16615     16616     16611     16615     16617     16612     16611     16613
     16612     16611     16615     16613     16611     16615     16615     16605     16619
     16615     16617     16618     16616     16615     16617     16620     16619     16621
     16620     16619     16622     16621     16619     16622     16623     16627     16625
     16623     16628     16629     16623     16628     16630     16623     16628     16638
     16624     16623     16627     16624     16623     16628     16625     16642     16638
     16625     16642     16643     16625     16642     16644     16625     16646     16647
     16625     16646     16648     16625     16646     16649     16626     16625     16627
     16626     16625     16642     16626     16625     16646     16627     16623     16628
     16627     16625     16642     16627     16625     16646     16628     16630     16631
     16628     16630     16632     16628     16638     16639     16628     16638     16640
     16628     16638     16642     16629     16628     16630     16629     16628     16638
     16630     16628     16638     16630     16632     16633     16630     16632     16634
     16631     16630     16632     16632     16634     16635     16632     16634     16636
     16632     16634     16637     16633     16632     16634     16635     16634     16636
     16635     16634     16637     16636     16634     16637     16638     16640     16641
     16638     16642     16643     16638     16642     16644     16639     16638     16640
     16639     16638     16642     16640     16638     16642     16642     16625     16646
     16642     16644     16645     16643     16642     16644     16646     16649     16650
     16647     16646     16648     16647     16646     16649     16648     16646     16649
     16651     16653     16652     16651     16653     16654     16651     16653     16655
     16652     16653     16654     16652     16653     16655     16652     16950     16947
     16652     16950     16953     16652     16950     16954     16653     16652     16950
     16653     16655     16656     16653     16655     16657     16653     16655     16664
     16654     16653     16655     16655     16656     16658     16655     16664     16665
     16655     16664     16666     16655     16664     16671     16656     16655     16657
     16656     16655     16664     16656     16658     16659     16656     16658     16660
     16656     16658     16679     16657     16655     16664     16658     16660     16661
     16658     16679     16671     16658     16679     16680     16658     16679     16681
     16659     16658     16660     16659     16658     16679     16660     16658     16679
     16660     16661     16662     16660     16661     16663     16660     16661     16687
     16661     16687     16683     16661     16687     16688     16661     16687     16689
     16662     16661     16663     16662     16661     16687     16663     16661     16687
     16664     16666     16667     16664     16671     16672     16664     16671     16673
     16664     16671     16679     16665     16664     16666     16665     16664     16671
     16666     16664     16671     16666     16667     16668     16666     16667     16669
     16666     16667     16670     16668     16667     16669     16668     16667     16670
     16669     16667     16670     16671     16672     16674     16671     16679     16680
     16671     16679     16681     16672     16671     16673     16672     16671     16679
     16672     16674     16675     16672     16674     16676     16673     16671     16679
     16674     16676     16677     16674     16676     16678     16674     16676     16709
     16675     16674     16676     16676     16709     16710     16676     16709     16711
     16676     16709     16754     16677     16676     16678     16677     16676     16709
     16678     16676     16709     16679     16681     16682     16679     16681     16788
     16680     16679     16681     16681     16788     16789     16681     16788     16790
     16682     16681     16788     16683     16685     16686     16683     16687     16688
     16683     16687     16689     16683     16697     16698     16683     16697     16699
     16683     16697     16705     16684     16683     16685     16684     16683     16687
     16684     16683     16697     16685     16683     16687     16685     16683     16697
     16687     16683     16697     16687     16689     16690     16688     16687     16689
     16689     16690     16691     16689     16690     16692     16689     16690     16705
     16690     16692     16696     16690     16705     16697     16690     16705     16706
     16690     16705     16707     16691     16690     16692     16691     16690     16705
     16692     16690     16705     16692     16696     16693     16692     16696     16694
     16692     16696     16695     16693     16696     16694     16693     16696     16695
     16694     16696     16695     16697     16699     16700     16697     16705     16706
     16697     16705     16707     16698     16697     16699     16698     16697     16705
     16699     16697     16705     16699     16700     16701     16699     16700     16702
     16700     16702     16703     16700     16702     16704     16700     16702     16866
     16701     16700     16702     16702     16866     16867     16702     16866     16868
     16702     16866     16870     16703     16702     16704     16703     16702     16866
     16704     16702     16866     16705     16707     16708     16705     16707     16904
     16706     16705     16707     16707     16904     16905     16707     16904     16906
     16708     16707     16904     16709     16711     16712     16709     16754     16755
     16709     16754     16756     16709     16754     16757     16710     16709     16711
     16710     16709     16754     16711     16709     16754     16711     16712     16713
     16711     16712     16714     16712     16714     16715     16712     16714     16716
     16712     16714     16717     16713     16712     16714     16714     16717     16718
     16714     16717     16719     16714     16717     16720     16715     16714     16716
     16715     16714     16717     16716     16714     16717     16717     16720     16721
     16717     16720     16722     16717     16720     16723     16718     16717     16719
     16718     16717     16720     16719     16717     16720     16720     16723     16724
     16720     16723     16725     16720     16723     16726     16721     16720     16722
     16721     16720     16723     16722     16720     16723     16723     16726     16727
     16723     16726     16728     16723     16726     16729     16724     16723     16725
     16724     16723     16726     16725     16723     16726     16726     16729     16730
     16726     16729     16731     16726     16729     16732     16727     16726     16728
     16727     16726     16729     16728     16726     16729     16729     16732     16733
     16729     16732     16734     16729     16732     16735     16730     16729     16731
     16730     16729     16732     16731     16729     16732     16732     16735     16736
     16732     16735     16737     16732     16735     16738     16733     16732     16734
     16733     16732     16735     16734     16732     16735     16735     16738     16739
     16735     16738     16740     16735     16738     16741     16736     16735     16737
     16736     16735     16738     16737     16735     16738     16738     16741     16742
     16738     16741     16743     16738     16741     16744     16739     16738     16740
     16739     16738     16741     16740     16738     16741     16741     16744     16745
     16741     16744     16746     16741     16744     16747     16742     16741     16743
     16742     16741     16744     16743     16741     16744     16744     16747     16748
     16744     16747     16749     16744     16747     16750     16745     16744     16746
     16745     16744     16747     16746     16744     16747     16747     16750     16751
     16747     16750     16752     16747     16750     16753     16748     16747     16749
     16748     16747     16750     16749     16747     16750     16751     16750     16752
     16751     16750     16753     16752     16750     16753     16754     16757     16758
     16754     16757     16759     16754     16757     16760     16755     16754     16756
     16755     16754     16757     16756     16754     16757     16757     16760     16761
     16757     16760     16762     16757     16760     16763     16758     16757     16759
     16758     16757     16760     16759     16757     16760     16760     16763     16764
     16760     16763     16765     16760     16763     16766     16761     16760     16762
     16761     16760     16763     16762     16760     16763     16763     16766     16767
     16763     16766     16768     16763     16766     16769     16764     16763     16765
     16764     16763     16766     16765     16763     16766     16766     16769     16770
     16766     16769     16771     16766     16769     16772     16767     16766     16768
     16767     16766     16769     16768     16766     16769     16769     16772     16773
     16769     16772     16774     16769     16772     16775     16770     16769     16771
     16770     16769     16772     16771     16769     16772     16772     16775     16776
     16772     16775     16777     16772     16775     16778     16773     16772     16774
     16773     16772     16775     16774     16772     16775     16775     16778     16779
     16775     16778     16780     16775     16778     16781     16776     16775     16777
     16776     16775     16778     16777     16775     16778     16778     16781     16782
     16778     16781     16783     16778     16781     16784     16779     16778     16780
     16779     16778     16781     16780     16778     16781     16781     16784     16785
     16781     16784     16786     16781     16784     16787     16782     16781     16783
     16782     16781     16784     16783     16781     16784     16785     16784     16786
     16785     16784     16787     16786     16784     16787     16788     16790     16791
     16788     16790     16792     16788     16790     16793     16789     16788     16790
     16790     16793     16794     16790     16793     16795     16790     16793     16832
     16791     16790     16792     16791     16790     16793     16792     16790     16793
     16793     16795     16796     16793     16832     16833     16793     16832     16834
     16793     16832     16835     16794     16793     16795     16794     16793     16832
     16795     16793     16832     16795     16796     16797     16795     16796     16798
     16796     16798     16799     16796     16798     16800     16796     16798     16801
     16797     16796     16798     16798     16801     16802     16798     16801     16803
     16798     16801     16804     16799     16798     16800     16799     16798     16801
     16800     16798     16801     16801     16804     16805     16801     16804     16806
     16801     16804     16807     16802     16801     16803     16802     16801     16804
     16803     16801     16804     16804     16807     16808     16804     16807     16809
     16804     16807     16810     16805     16804     16806     16805     16804     16807
     16806     16804     16807     16807     16810     16811     16807     16810     16812
     16807     16810     16813     16808     16807     16809     16808     16807     16810
     16809     16807     16810     16810     16813     16814     16810     16813     16815
     16810     16813     16816     16811     16810     16812     16811     16810     16813
     16812     16810     16813     16813     16816     16817     16813     16816     16818
     16813     16816     16819     16814     16813     16815     16814     16813     16816
     16815     16813     16816     16816     16819     16820     16816     16819     16821
     16816     16819     16822     16817     16816     16818     16817     16816     16819
     16818     16816     16819     16819     16822     16823     16819     16822     16824
     16819     16822     16825     16820     16819     16821     16820     16819     16822
     16821     16819     16822     16822     16825     16826     16822     16825     16827
     16822     16825     16828     16823     16822     16824     16823     16822     16825
     16824     16822     16825     16825     16828     16829     16825     16828     16830
     16825     16828     16831     16826     16825     16827     16826     16825     16828
     16827     16825     16828     16829     16828     16830     16829     16828     16831
     16830     16828     16831     16832     16835     16836     16832     16835     16837
     16832     16835     16838     16833     16832     16834     16833     16832     16835
     16834     16832     16835     16835     16838     16839     16835     16838     16840
     16835     16838     16841     16836     16835     16837     16836     16835     16838
     16837     16835     16838     16838     16841     16842     16838     16841     16843
     16838     16841     16844     16839     16838     16840     16839     16838     16841
     16840     16838     16841     16841     16844     16845     16841     16844     16846
     16841     16844     16847     16842     16841     16843     16842     16841     16844
     16843     16841     16844     16844     16847     16848     16844     16847     16849
     16844     16847     16850     16845     16844     16846     16845     16844     16847
     16846     16844     16847     16847     16850     16851     16847     16850     16852
     16847     16850     16853     16848     16847     16849     16848     16847     16850
     16849     16847     16850     16850     16853     16854     16850     16853     16855
     16850     16853     16856     16851     16850     16852     16851     16850     16853
     16852     16850     16853     16853     16856     16857     16853     16856     16858
     16853     16856     16859     16854     16853     16855     16854     16853     16856
     16855     16853     16856     16856     16859     16860     16856     16859     16861
     16856     16859     16862     16857     16856     16858     16857     16856     16859
     16858     16856     16859     16859     16862     16863     16859     16862     16864
     16859     16862     16865     16860     16859     16861     16860     16859     16862
     16861     16859     16862     16863     16862     16864     16863     16862     16865
     16864     16862     16865     16866     16868     16869     16866     16870     16871
     16866     16870     16872     16866     16870     16873     16867     16866     16868
     16867     16866     16870     16868     16866     16870     16870     16873     16874
     16870     16873     16875     16870     16873     16876     16871     16870     16872
     16871     16870     16873     16872     16870     16873     16873     16876     16877
     16873     16876     16878     16873     16876     16879     16874     16873     16875
     16874     16873     16876     16875     16873     16876     16876     16879     16880
     16876     16879     16881     16876     16879     16882     16877     16876     16878
     16877     16876     16879     16878     16876     16879     16879     16882     16883
     16879     16882     16884     16879     16882     16885     16880     16879     16881
     16880     16879     16882     16881     16879     16882     16882     16885     16886
     16882     16885     16887     16882     16885     16888     16883     16882     16884
     16883     16882     16885     16884     16882     16885     16885     16888     16889
     16885     16888     16890     16885     16888     16891     16886     16885     16887
     16886     16885     16888     16887     16885     16888     16888     16891     16892
     16888     16891     16893     16888     16891     16894     16889     16888     16890
     16889     16888     16891     16890     16888     16891     16891     16894     16895
     16891     16894     16896     16891     16894     16897     16892     16891     16893
     16892     16891     16894     16893     16891     16894     16894     16897     16898
     16894     16897     16899     16894     16897     16900     16895     16894     16896
     16895     16894     16897     16896     16894     16897     16897     16900     16901
     16897     16900     16902     16897     16900     16903     16898     16897     16899
     16898     16897     16900     16899     16897     16900     16901     16900     16902
     16901     16900     16903     16902     16900     16903     16904     16906     16907
     16904     16906     16908     16904     16906     16909     16905     16904     16906
     16906     16909     16910     16906     16909     16911     16906     16909     16913
     16907     16906     16908     16907     16906     16909     16908     16906     16909
     16909     16911     16912     16909     16913     16914     16909     16913     16915
     16909     16913     16916     16910     16909     16911     16910     16909     16913
     16911     16909     16913     16913     16916     16917     16913     16916     16918
     16913     16916     16919     16914     16913     16915     16914     16913     16916
     16915     16913     16916     16916     16919     16920     16916     16919     16921
     16916     16919     16922     16917     16916     16918     16917     16916     16919
     16918     16916     16919     16919     16922     16923     16919     16922     16924
     16919     16922     16925     16920     16919     16921     16920     16919     16922
     16921     16919     16922     16922     16925     16926     16922     16925     16927
     16922     16925     16928     16923     16922     16924     16923     16922     16925
     16924     16922     16925     16925     16928     16929     16925     16928     16930
     16925     16928     16931     16926     16925     16927     16926     16925     16928
     16927     16925     16928     16928     16931     16932     16928     16931     16933
     16928     16931     16934     16929     16928     16930     16929     16928     16931
     16930     16928     16931     16931     16934     16935     16931     16934     16936
     16931     16934     16937     16932     16931     16933     16932     16931     16934
     16933     16931     16934     16934     16937     16938     16934     16937     16939
     16934     16937     16940     16935     16934     16936     16935     16934     16937
     16936     16934     16937     16937     16940     16941     16937     16940     16942
     16937     16940     16943     16938     16937     16939     16938     16937     16940
     16939     16937     16940     16940     16943     16944     16940     16943     16945
     16940     16943     16946     16941     16940     16942     16941     16940     16943
     16942     16940     16943     16944     16943     16945     16944     16943     16946
     16945     16943     16946     16947     16950     16953     16947     16950     16954
     16948     16947     16949     16948     16947     16950     16949     16947     16950
     16950     16953     16951     16950     16954     16955     16950     16954     16956
     16950     16954     16957     16951     16960     16957     16951     16960     16961
     16951     16960     16962     16951     16963     16964     16951     16963     16965
     16951     16963     16967     16952     16951     16953     16952     16951     16960
     16952     16951     16963     16953     16950     16954     16953     16951     16960
     16953     16951     16963     16954     16957     16958     16954     16957     16959
     16954     16957     16960     16955     16954     16956     16955     16954     16957
     16956     16954     16957     16957     16959     16975     16957     16960     16961
     16957     16960     16962     16958     16957     16959     16958     16957     16960
     16959     16957     16960     16959     16975     16972     16959     16975     16978
     16959     16975     16979     16960     16951     16963     16960     16962     16999
     16961     16960     16962     16962     16999     17000     16962     16999     17003
     16962     16999     17004     16963     16965     16966     16963     16967     16968
     16963     16967     16969     16963     16967     16970     16964     16963     16965
     16964     16963     16967     16965     16963     16967     16967     16970     16971
     16968     16967     16969     16968     16967     16970     16969     16967     16970
     16972     16975     16978     16972     16975     16979     16973     16972     16974
     16973     16972     16975     16974     16972     16975     16975     16978     16976
     16975     16979     16980     16975     16979     16981     16975     16979     16982
     16976     16986     16982     16976     16986     16987     16976     16986     16988
     16976     16990     16991     16976     16990     16992     16976     16990     16994
     16977     16976     16978     16977     16976     16986     16977     16976     16990
     16978     16975     16979     16978     16976     16986     16978     16976     16990
     16979     16982     16983     16979     16982     16984     16979     16982     16986
     16980     16979     16981     16980     16979     16982     16981     16979     16982
     16982     16984     16985     16982     16986     16987     16982     16986     16988
     16983     16982     16984     16983     16982     16986     16984     16982     16986
     16986     16976     16990     16986     16988     16989     16987     16986     16988
     16990     16992     16993     16990     16994     16995     16990     16994     16996
     16990     16994     16997     16991     16990     16992     16991     16990     16994
     16992     16990     16994     16994     16997     16998     16995     16994     16996
     16995     16994     16997     16996     16994     16997     16999     17003     17001
     16999     17004     17005     16999     17004     17006     16999     17004     17008
     17000     16999     17003     17000     16999     17004     17001     17011     17008
     17001     17011     17012     17001     17011     17013     17001     17018     17019
     17001     17018     17020     17001     17018     17022     17002     17001     17003
     17002     17001     17011     17002     17001     17018     17003     16999     17004
     17003     17001     17011     17003     17001     17018     17004     17006     17007
     17004     17008     17009     17004     17008     17010     17004     17008     17011
     17005     17004     17006     17005     17004     17008     17006     17004     17008
     17008     17010     17027     17008     17011     17012     17008     17011     17013
     17009     17008     17010     17009     17008     17011     17010     17008     17011
     17010     17027     17028     17010     17027     17031     17010     17027     17032
     17011     17001     17018     17011     17013     17014     17012     17011     17013
     17013     17014     17015     17013     17014     17016     17013     17014     17017
     17015     17014     17016     17015     17014     17017     17016     17014     17017
     17018     17020     17021     17018     17022     17023     17018     17022     17024
     17018     17022     17025     17019     17018     17020     17019     17018     17022
     17020     17018     17022     17022     17025     17026     17023     17022     17024
     17023     17022     17025     17024     17022     17025     17027     17031     17029
     17027     17032     17033     17027     17032     17034     17027     17032     17036
     17028     17027     17031     17028     17027     17032     17029     17039     17036
     17029     17039     17040     17029     17039     17041     17029     17046     17047
     17029     17046     17048     17029     17046     17050     17030     17029     17031
     17030     17029     17039     17030     17029     17046     17031     17027     17032
     17031     17029     17039     17031     17029     17046     17032     17034     17035
     17032     17036     17037     17032     17036     17038     17032     17036     17039
     17033     17032     17034     17033     17032     17036     17034     17032     17036
     17036     17038     17080     17036     17039     17040     17036     17039     17041
     17037     17036     17038     17037     17036     17039     17038     17036     17039
     17038     17080     17081     17038     17080     17084     17038     17080     17085
     17039     17029     17046     17039     17041     17042     17040     17039     17041
     17041     17042     17043     17041     17042     17044     17041     17042     17045
     17043     17042     17044     17043     17042     17045     17044     17042     17045
     17046     17048     17049     17046     17050     17051     17046     17050     17052
     17046     17050     17053     17047     17046     17048     17047     17046     17050
     17048     17046     17050     17050     17053     17054     17051     17050     17052
     17051     17050     17053     17052     17050     17053     17053     17054     17055
     17053     17054     17058     17053     17054     17059     17054     17058     17056
     17054     17059     17060     17054     17059     17061     17054     17059     17063
     17055     17054     17058     17055     17054     17059     17056     17067     17063
     17056     17067     17068     17056     17067     17069     17056     17071     17072
     17056     17071     17073     17056     17071     17075     17057     17056     17058
     17057     17056     17067     17057     17056     17071     17058     17054     17059
     17058     17056     17067     17058     17056     17071     17059     17061     17062
     17059     17063     17064     17059     17063     17065     17059     17063     17067
     17060     17059     17061     17060     17059     17063     17061     17059     17063
     17063     17065     17066     17063     17067     17068     17063     17067     17069
     17064     17063     17065     17064     17063     17067     17065     17063     17067
     17067     17056     17071     17067     17069     17070     17068     17067     17069
     17071     17073     17074     17071     17075     17076     17071     17075     17077
     17071     17075     17078     17072     17071     17073     17072     17071     17075
     17073     17071     17075     17075     17078     17079     17076     17075     17077
     17076     17075     17078     17077     17075     17078     17080     17084     17082
     17080     17085     17086     17080     17085     17087     17080     17085     17089
     17081     17080     17084     17081     17080     17085     17082     17092     17089
     17082     17092     17093     17082     17092     17094     17082     17096     17097
     17082     17096     17098     17082     17096     17099     17083     17082     17084
     17083     17082     17092     17083     17082     17096     17084     17080     17085
     17084     17082     17092     17084     17082     17096     17085     17087     17088
     17085     17089     17090     17085     17089     17091     17085     17089     17092
     17086     17085     17087     17086     17085     17089     17087     17085     17089
     17089     17091     17101     17089     17092     17093     17089     17092     17094
     17090     17089     17091     17090     17089     17092     17091     17089     17092
     17091     17101     17102     17091     17101     17105     17091     17101     17106
     17092     17082     17096     17092     17094     17095     17093     17092     17094
     17096     17099     17100     17097     17096     17098     17097     17096     17099
     17098     17096     17099     17101     17105     17103     17101     17106     17107
     17101     17106     17108     17101     17106     17109     17102     17101     17105
     17102     17101     17106     17103     17112     17109     17103     17112     17113
     17103     17112     17114     17103     17116     17117     17103     17116     17118
     17103     17116     17119     17104     17103     17105     17104     17103     17112
     17104     17103     17116     17105     17101     17106     17105     17103     17112
     17105     17103     17116     17106     17108     17121     17106     17109     17110
     17106     17109     17111     17106     17109     17112     17107     17106     17108
     17107     17106     17109     17108     17106     17109     17108     17121     17122
     17108     17121     17125     17108     17121     17126     17109     17111     17164
     17109     17112     17113     17109     17112     17114     17110     17109     17111
     17110     17109     17112     17111     17109     17112     17111     17164     17165
     17111     17164     17168     17111     17164     17169     17112     17103     17116
     17112     17114     17115     17113     17112     17114     17116     17119     17120
     17117     17116     17118     17117     17116     17119     17118     17116     17119
     17121     17125     17123     17121     17126     17127     17121     17126     17128
     17121     17126     17129     17122     17121     17125     17122     17121     17126
     17123     17133     17129     17123     17133     17134     17123     17133     17135
     17123     17137     17138     17123     17137     17139     17123     17137     17140
     17124     17123     17125     17124     17123     17133     17124     17123     17137
     17125     17121     17126     17125     17123     17133     17125     17123     17137
     17126     17128     17142     17126     17129     17130     17126     17129     17131
     17126     17129     17133     17127     17126     17128     17127     17126     17129
     17128     17126     17129     17128     17142     17143     17128     17142     17146
     17128     17142     17147     17129     17131     17132     17129     17133     17134
     17129     17133     17135     17130     17129     17131     17130     17129     17133
     17131     17129     17133     17133     17123     17137     17133     17135     17136
     17134     17133     17135     17137     17140     17141     17138     17137     17139
     17138     17137     17140     17139     17137     17140     17142     17146     17144
     17142     17147     17148     17142     17147     17149     17142     17147     17151
     17143     17142     17146     17143     17142     17147     17144     17155     17151
     17144     17155     17156     17144     17155     17157     17144     17159     17160
     17144     17159     17161     17144     17159     17162     17145     17144     17146
     17145     17144     17155     17145     17144     17159     17146     17142     17147
     17146     17144     17155     17146     17144     17159     17147     17149     17150
     17147     17151     17152     17147     17151     17153     17147     17151     17155
     17148     17147     17149     17148     17147     17151     17149     17147     17151
     17151     17153     17154     17151     17155     17156     17151     17155     17157
     17152     17151     17153     17152     17151     17155     17153     17151     17155
     17155     17144     17159     17155     17157     17158     17156     17155     17157
     17159     17162     17163     17160     17159     17161     17160     17159     17162
     17161     17159     17162     17164     17168     17166     17164     17169     17170
     17164     17169     17171     17164     17169     17173     17165     17164     17168
     17165     17164     17169     17166     17176     17173     17166     17176     17177
     17166     17176     17178     17166     17180     17181     17166     17180     17182
     17166     17180     17183     17167     17166     17168     17167     17166     17176
     17167     17166     17180     17168     17164     17169     17168     17166     17176
     17168     17166     17180     17169     17171     17172     17169     17173     17174
     17169     17173     17175     17169     17173     17176     17170     17169     17171
     17170     17169     17173     17171     17169     17173     17173     17175     17185
     17173     17176     17177     17173     17176     17178     17174     17173     17175
     17174     17173     17176     17175     17173     17176     17175     17185     17186
     17175     17185     17189     17175     17185     17190     17176     17166     17180
     17176     17178     17179     17177     17176     17178     17180     17183     17184
     17181     17180     17182     17181     17180     17183     17182     17180     17183
     17185     17189     17187     17185     17190     17191     17185     17190     17192
     17185     17190     17200     17186     17185     17189     17186     17185     17190
     17187     17203     17200     17187     17203     17204     17187     17203     17205
     17187     17207     17208     17187     17207     17209     17187     17207     17210
     17188     17187     17189     17188     17187     17203     17188     17187     17207
     17189     17185     17190     17189     17187     17203     17189     17187     17207
     17190     17192     17193     17190     17192     17194     17190     17200     17201
     17190     17200     17202     17190     17200     17203     17191     17190     17192
     17191     17190     17200     17192     17190     17200     17192     17194     17195
     17192     17194     17196     17193     17192     17194     17194     17196     17197
     17194     17196     17198     17194     17196     17199     17195     17194     17196
     17197     17196     17198     17197     17196     17199     17198     17196     17199
     17200     17202     17212     17200     17203     17204     17200     17203     17205
     17201     17200     17202     17201     17200     17203     17202     17200     17203
     17202     17212     17213     17202     17212     17216     17202     17212     17217
     17203     17187     17207     17203     17205     17206     17204     17203     17205
     17207     17210     17211     17208     17207     17209     17208     17207     17210
     17209     17207     17210     17212     17216     17214     17212     17217     17218
     17212     17217     17219     17212     17217     17220     17213     17212     17216
     17213     17212     17217     17214     17224     17220     17214     17224     17225
     17214     17224     17226     17214     17228     17229     17214     17228     17230
     17214     17228     17231     17215     17214     17216     17215     17214     17224
     17215     17214     17228     17216     17212     17217     17216     17214     17224
     17216     17214     17228     17217     17219     17233     17217     17220     17221
     17217     17220     17222     17217     17220     17224     17218     17217     17219
     17218     17217     17220     17219     17217     17220     17219     17233     17234
     17219     17233     17237     17219     17233     17238     17220     17222     17223
     17220     17224     17225     17220     17224     17226     17221     17220     17222
     17221     17220     17224     17222     17220     17224     17224     17214     17228
     17224     17226     17227     17225     17224     17226     17228     17231     17232
     17229     17228     17230     17229     17228     17231     17230     17228     17231
     17233     17237     17235     17233     17238     17239     17233     17238     17240
     17233     17238     17241     17234     17233     17237     17234     17233     17238
     17235     17245     17241     17235     17245     17246     17235     17245     17247
     17235     17249     17250     17235     17249     17251     17235     17249     17252
     17236     17235     17237     17236     17235     17245     17236     17235     17249
     17237     17233     17238     17237     17235     17245     17237     17235     17249
     17238     17240     17253     17238     17241     17242     17238     17241     17243
     17238     17241     17245     17239     17238     17240     17239     17238     17241
     17240     17238     17241     17240     17253     17254     17240     17253     17257
     17240     17253     17258     17241     17243     17244     17241     17245     17246
     17241     17245     17247     17242     17241     17243     17242     17241     17245
     17243     17241     17245     17245     17235     17249     17245     17247     17248
     17246     17245     17247     17250     17249     17251     17250     17249     17252
     17251     17249     17252     17253     17257     17255     17253     17258     17259
     17253     17258     17260     17253     17258     17261     17254     17253     17257
     17254     17253     17258     17255     17264     17261     17255     17264     17265
     17255     17264     17266     17255     17268     17269     17255     17268     17270
     17255     17268     17271     17256     17255     17257     17256     17255     17264
     17256     17255     17268     17257     17253     17258     17257     17255     17264
     17257     17255     17268     17258     17260     17272     17258     17261     17262
     17258     17261     17263     17258     17261     17264     17259     17258     17260
     17259     17258     17261     17260     17258     17261     17260     17272     17273
     17260     17272     17276     17260     17272     17277     17261     17263     17300
     17261     17264     17265     17261     17264     17266     17262     17261     17263
     17262     17261     17264     17263     17261     17264     17263     17300     17301
     17263     17300     17304     17263     17300     17305     17264     17255     17268
     17264     17266     17267     17265     17264     17266     17269     17268     17270
     17269     17268     17271     17270     17268     17271     17272     17276     17274
     17272     17277     17278     17272     17277     17279     17272     17277     17287
     17273     17272     17276     17273     17272     17277     17274     17291     17287
     17274     17291     17292     17274     17291     17293     17274     17295     17296
     17274     17295     17297     17274     17295     17298     17275     17274     17276
     17275     17274     17291     17275     17274     17295     17276     17272     17277
     17276     17274     17291     17276     17274     17295     17277     17279     17280
     17277     17279     17281     17277     17287     17288     17277     17287     17289
     17277     17287     17291     17278     17277     17279     17278     17277     17287
     17279     17277     17287     17279     17281     17282     17279     17281     17283
     17280     17279     17281     17281     17283     17284     17281     17283     17285
     17281     17283     17286     17282     17281     17283     17284     17283     17285
     17284     17283     17286     17285     17283     17286     17287     17289     17290
     17287     17291     17292     17287     17291     17293     17288     17287     17289
     17288     17287     17291     17289     17287     17291     17291     17274     17295
     17291     17293     17294     17292     17291     17293     17295     17298     17299
     17296     17295     17297     17296     17295     17298     17297     17295     17298
     17300     17304     17302     17300     17305     17306     17300     17305     17307
     17300     17305     17315     17301     17300     17304     17301     17300     17305
     17302     17318     17315     17302     17318     17319     17302     17318     17320
     17302     17322     17323     17302     17322     17324     17302     17322     17325
     17303     17302     17304     17303     17302     17318     17303     17302     17322
     17304     17300     17305     17304     17302     17318     17304     17302     17322
     17305     17307     17308     17305     17307     17309     17305     17315     17316
     17305     17315     17317     17305     17315     17318     17306     17305     17307
     17306     17305     17315     17307     17305     17315     17307     17309     17310
     17307     17309     17311     17308     17307     17309     17309     17311     17312
     17309     17311     17313     17309     17311     17314     17310     17309     17311
     17312     17311     17313     17312     17311     17314     17313     17311     17314
     17315     17317     17327     17315     17318     17319     17315     17318     17320
     17316     17315     17317     17316     17315     17318     17317     17315     17318
     17317     17327     17328     17317     17327     17331     17317     17327     17332
     17318     17302     17322     17318     17320     17321     17319     17318     17320
     17322     17325     17326     17323     17322     17324     17323     17322     17325
     17324     17322     17325     17327     17331     17329     17327     17332     17333
     17327     17332     17334     17327     17332     17335     17328     17327     17331
     17328     17327     17332     17329     17339     17335     17329     17339     17340
     17329     17339     17341     17329     17343     17344     17329     17343     17345
     17329     17343     17346     17330     17329     17331     17330     17329     17339
     17330     17329     17343     17331     17327     17332     17331     17329     17339
     17331     17329     17343     17332     17334     17348     17332     17335     17336
     17332     17335     17337     17332     17335     17339     17333     17332     17334
     17333     17332     17335     17334     17332     17335     17334     17348     17349
     17334     17348     17352     17334     17348     17353     17335     17337     17338
     17335     17339     17340     17335     17339     17341     17336     17335     17337
     17336     17335     17339     17337     17335     17339     17339     17329     17343
     17339     17341     17342     17340     17339     17341     17343     17346     17347
     17344     17343     17345     17344     17343     17346     17345     17343     17346
     17348     17352     17350     17348     17353     17354     17348     17353     17355
     17348     17353     17356     17349     17348     17352     17349     17348     17353
     17350     17360     17356     17350     17360     17361     17350     17360     17362
     17350     17364     17365     17350     17364     17366     17350     17364     17367
     17351     17350     17352     17351     17350     17360     17351     17350     17364
     17352     17348     17353     17352     17350     17360     17352     17350     17364
     17353     17355     17368     17353     17356     17357     17353     17356     17358
     17353     17356     17360     17354     17353     17355     17354     17353     17356
     17355     17353     17356     17355     17368     17369     17355     17368     17372
     17355     17368     17373     17356     17358     17359     17356     17360     17361
     17356     17360     17362     17357     17356     17358     17357     17356     17360
     17358     17356     17360     17360     17350     17364     17360     17362     17363
     17361     17360     17362     17365     17364     17366     17365     17364     17367
     17366     17364     17367     17368     17372     17370     17368     17373     17374
     17368     17373     17375     17368     17373     17376     17369     17368     17372
     17369     17368     17373     17370     17379     17376     17370     17379     17380
     17370     17379     17381     17370     17383     17384     17370     17383     17385
     17370     17383     17386     17371     17370     17372     17371     17370     17379
     17371     17370     17383     17372     17368     17373     17372     17370     17379
     17372     17370     17383     17373     17375     17387     17373     17376     17377
     17373     17376     17378     17373     17376     17379     17374     17373     17375
     17374     17373     17376     17375     17373     17376     17375     17387     17388
     17375     17387     17391     17375     17387     17392     17376     17378     17415
     17376     17379     17380     17376     17379     17381     17377     17376     17378
     17377     17376     17379     17378     17376     17379     17378     17415     17416
     17378     17415     17419     17378     17415     17420     17379     17370     17383
     17379     17381     17382     17380     17379     17381     17384     17383     17385
     17384     17383     17386     17385     17383     17386     17387     17391     17389
     17387     17392     17393     17387     17392     17394     17387     17392     17402
     17388     17387     17391     17388     17387     17392     17389     17406     17402
     17389     17406     17407     17389     17406     17408     17389     17410     17411
     17389     17410     17412     17389     17410     17413     17390     17389     17391
     17390     17389     17406     17390     17389     17410     17391     17387     17392
     17391     17389     17406     17391     17389     17410     17392     17394     17395
     17392     17394     17396     17392     17402     17403     17392     17402     17404
     17392     17402     17406     17393     17392     17394     17393     17392     17402
     17394     17392     17402     17394     17396     17397     17394     17396     17398
     17395     17394     17396     17396     17398     17399     17396     17398     17400
     17396     17398     17401     17397     17396     17398     17399     17398     17400
     17399     17398     17401     17400     17398     17401     17402     17404     17405
     17402     17406     17407     17402     17406     17408     17403     17402     17404
     17403     17402     17406     17404     17402     17406     17406     17389     17410
     17406     17408     17409     17407     17406     17408     17410     17413     17414
     17411     17410     17412     17411     17410     17413     17412     17410     17413
     17415     17419     17417     17415     17420     17421     17415     17420     17422
     17415     17420     17430     17416     17415     17419     17416     17415     17420
     17417     17433     17430     17417     17433     17434     17417     17433     17435
     17417     17437     17438     17417     17437     17439     17417     17437     17440
     17418     17417     17419     17418     17417     17433     17418     17417     17437
     17419     17415     17420     17419     17417     17433     17419     17417     17437
     17420     17422     17423     17420     17422     17424     17420     17430     17431
     17420     17430     17432     17420     17430     17433     17421     17420     17422
     17421     17420     17430     17422     17420     17430     17422     17424     17425
     17422     17424     17426     17423     17422     17424     17424     17426     17427
     17424     17426     17428     17424     17426     17429     17425     17424     17426
     17427     17426     17428     17427     17426     17429     17428     17426     17429
     17430     17432     17442     17430     17433     17434     17430     17433     17435
     17431     17430     17432     17431     17430     17433     17432     17430     17433
     17432     17442     17443     17432     17442     17446     17432     17442     17447
     17433     17417     17437     17433     17435     17436     17434     17433     17435
     17437     17440     17441     17438     17437     17439     17438     17437     17440
     17439     17437     17440     17442     17446     17444     17442     17447     17448
     17442     17447     17449     17442     17447     17450     17443     17442     17446
     17443     17442     17447     17444     17454     17450     17444     17454     17455
     17444     17454     17456     17444     17458     17459     17444     17458     17460
     17444     17458     17461     17445     17444     17446     17445     17444     17454
     17445     17444     17458     17446     17442     17447     17446     17444     17454
     17446     17444     17458     17447     17449     17463     17447     17450     17451
     17447     17450     17452     17447     17450     17454     17448     17447     17449
     17448     17447     17450     17449     17447     17450     17449     17463     17464
     17449     17463     17467     17449     17463     17468     17450     17452     17453
     17450     17454     17455     17450     17454     17456     17451     17450     17452
     17451     17450     17454     17452     17450     17454     17454     17444     17458
     17454     17456     17457     17455     17454     17456     17458     17461     17462
     17459     17458     17460     17459     17458     17461     17460     17458     17461
     17463     17467     17465     17463     17468     17469     17463     17468     17470
     17463     17468     17471     17464     17463     17467     17464     17463     17468
     17465     17475     17471     17465     17475     17476     17465     17475     17477
     17465     17479     17480     17465     17479     17481     17465     17479     17482
     17466     17465     17467     17466     17465     17475     17466     17465     17479
     17467     17463     17468     17467     17465     17475     17467     17465     17479
     17468     17470     17483     17468     17471     17472     17468     17471     17473
     17468     17471     17475     17469     17468     17470     17469     17468     17471
     17470     17468     17471     17470     17483     17484     17470     17483     17487
     17470     17483     17488     17471     17473     17474     17471     17475     17476
     17471     17475     17477     17472     17471     17473     17472     17471     17475
     17473     17471     17475     17475     17465     17479     17475     17477     17478
     17476     17475     17477     17480     17479     17481     17480     17479     17482
     17481     17479     17482     17483     17487     17485     17483     17488     17489
     17483     17488     17490     17483     17488     17491     17484     17483     17487
     17484     17483     17488     17485     17494     17491     17485     17494     17495
     17485     17494     17496     17485     17498     17499     17485     17498     17500
     17485     17498     17501     17486     17485     17487     17486     17485     17494
     17486     17485     17498     17487     17483     17488     17487     17485     17494
     17487     17485     17498     17488     17490     17502     17488     17491     17492
     17488     17491     17493     17488     17491     17494     17489     17488     17490
     17489     17488     17491     17490     17488     17491     17490     17502     17503
     17490     17502     17506     17490     17502     17507     17491     17493     17530
     17491     17494     17495     17491     17494     17496     17492     17491     17493
     17492     17491     17494     17493     17491     17494     17493     17530     17531
     17493     17530     17534     17493     17530     17535     17494     17485     17498
     17494     17496     17497     17495     17494     17496     17499     17498     17500
     17499     17498     17501     17500     17498     17501     17502     17506     17504
     17502     17507     17508     17502     17507     17509     17502     17507     17517
     17503     17502     17506     17503     17502     17507     17504     17521     17517
     17504     17521     17522     17504     17521     17523     17504     17525     17526
     17504     17525     17527     17504     17525     17528     17505     17504     17506
     17505     17504     17521     17505     17504     17525     17506     17502     17507
     17506     17504     17521     17506     17504     17525     17507     17509     17510
     17507     17509     17511     17507     17517     17518     17507     17517     17519
     17507     17517     17521     17508     17507     17509     17508     17507     17517
     17509     17507     17517     17509     17511     17512     17509     17511     17513
     17510     17509     17511     17511     17513     17514     17511     17513     17515
     17511     17513     17516     17512     17511     17513     17514     17513     17515
     17514     17513     17516     17515     17513     17516     17517     17519     17520
     17517     17521     17522     17517     17521     17523     17518     17517     17519
     17518     17517     17521     17519     17517     17521     17521     17504     17525
     17521     17523     17524     17522     17521     17523     17525     17528     17529
     17526     17525     17527     17526     17525     17528     17527     17525     17528
     17530     17534     17532     17530     17535     17536     17530     17535     17537
     17530     17535     17545     17531     17530     17534     17531     17530     17535
     17532     17548     17545     17532     17548     17549     17532     17548     17550
     17532     17552     17553     17532     17552     17554     17532     17552     17555
     17533     17532     17534     17533     17532     17548     17533     17532     17552
     17534     17530     17535     17534     17532     17548     17534     17532     17552
     17535     17537     17538     17535     17537     17539     17535     17545     17546
     17535     17545     17547     17535     17545     17548     17536     17535     17537
     17536     17535     17545     17537     17535     17545     17537     17539     17540
     17537     17539     17541     17538     17537     17539     17539     17541     17542
     17539     17541     17543     17539     17541     17544     17540     17539     17541
     17542     17541     17543     17542     17541     17544     17543     17541     17544
     17545     17547     17557     17545     17548     17549     17545     17548     17550
     17546     17545     17547     17546     17545     17548     17547     17545     17548
     17547     17557     17558     17547     17557     17561     17547     17557     17562
     17548     17532     17552     17548     17550     17551     17549     17548     17550
     17552     17555     17556     17553     17552     17554     17553     17552     17555
     17554     17552     17555     17557     17561     17559     17557     17562     17563
     17557     17562     17564     17557     17562     17565     17558     17557     17561
     17558     17557     17562     17559     17569     17565     17559     17569     17570
     17559     17569     17571     17559     17573     17574     17559     17573     17575
     17559     17573     17576     17560     17559     17561     17560     17559     17569
     17560     17559     17573     17561     17557     17562     17561     17559     17569
     17561     17559     17573     17562     17564     17578     17562     17565     17566
     17562     17565     17567     17562     17565     17569     17563     17562     17564
     17563     17562     17565     17564     17562     17565     17564     17578     17579
     17564     17578     17582     17564     17578     17583     17565     17567     17568
     17565     17569     17570     17565     17569     17571     17566     17565     17567
     17566     17565     17569     17567     17565     17569     17569     17559     17573
     17569     17571     17572     17570     17569     17571     17573     17576     17577
     17574     17573     17575     17574     17573     17576     17575     17573     17576
     17578     17582     17580     17578     17583     17584     17578     17583     17585
     17578     17583     17586     17579     17578     17582     17579     17578     17583
     17580     17590     17586     17580     17590     17591     17580     17590     17592
     17580     17594     17595     17580     17594     17596     17580     17594     17597
     17581     17580     17582     17581     17580     17590     17581     17580     17594
     17582     17578     17583     17582     17580     17590     17582     17580     17594
     17583     17585     17598     17583     17586     17587     17583     17586     17588
     17583     17586     17590     17584     17583     17585     17584     17583     17586
     17585     17583     17586     17585     17598     17599     17585     17598     17602
     17585     17598     17603     17586     17588     17589     17586     17590     17591
     17586     17590     17592     17587     17586     17588     17587     17586     17590
     17588     17586     17590     17590     17580     17594     17590     17592     17593
     17591     17590     17592     17595     17594     17596     17595     17594     17597
     17596     17594     17597     17598     17602     17600     17598     17603     17604
     17598     17603     17605     17598     17603     17606     17599     17598     17602
     17599     17598     17603     17600     17609     17606     17600     17609     17610
     17600     17609     17611     17600     17613     17614     17600     17613     17615
     17600     17613     17616     17601     17600     17602     17601     17600     17609
     17601     17600     17613     17602     17598     17603     17602     17600     17609
     17602     17600     17613     17603     17605     17617     17603     17606     17607
     17603     17606     17608     17603     17606     17609     17604     17603     17605
     17604     17603     17606     17605     17603     17606     17605     17617     17618
     17605     17617     17621     17605     17617     17622     17606     17608     17645
     17606     17609     17610     17606     17609     17611     17607     17606     17608
     17607     17606     17609     17608     17606     17609     17608     17645     17646
     17608     17645     17649     17608     17645     17650     17609     17600     17613
     17609     17611     17612     17610     17609     17611     17614     17613     17615
     17614     17613     17616     17615     17613     17616     17617     17621     17619
     17617     17622     17623     17617     17622     17624     17617     17622     17632
     17618     17617     17621     17618     17617     17622     17619     17636     17632
     17619     17636     17637     17619     17636     17638     17619     17640     17641
     17619     17640     17642     17619     17640     17643     17620     17619     17621
     17620     17619     17636     17620     17619     17640     17621     17617     17622
     17621     17619     17636     17621     17619     17640     17622     17624     17625
     17622     17624     17626     17622     17632     17633     17622     17632     17634
     17622     17632     17636     17623     17622     17624     17623     17622     17632
     17624     17622     17632     17624     17626     17627     17624     17626     17628
     17625     17624     17626     17626     17628     17629     17626     17628     17630
     17626     17628     17631     17627     17626     17628     17629     17628     17630
     17629     17628     17631     17630     17628     17631     17632     17634     17635
     17632     17636     17637     17632     17636     17638     17633     17632     17634
     17633     17632     17636     17634     17632     17636     17636     17619     17640
     17636     17638     17639     17637     17636     17638     17640     17643     17644
     17641     17640     17642     17641     17640     17643     17642     17640     17643
     17645     17649     17647     17645     17650     17651     17645     17650     17652
     17645     17650     17660     17646     17645     17649     17646     17645     17650
     17647     17663     17660     17647     17663     17664     17647     17663     17665
     17647     17667     17668     17647     17667     17669     17647     17667     17670
     17648     17647     17649     17648     17647     17663     17648     17647     17667
     17649     17645     17650     17649     17647     17663     17649     17647     17667
     17650     17652     17653     17650     17652     17654     17650     17660     17661
     17650     17660     17662     17650     17660     17663     17651     17650     17652
     17651     17650     17660     17652     17650     17660     17652     17654     17655
     17652     17654     17656     17653     17652     17654     17654     17656     17657
     17654     17656     17658     17654     17656     17659     17655     17654     17656
     17657     17656     17658     17657     17656     17659     17658     17656     17659
     17660     17662     17672     17660     17663     17664     17660     17663     17665
     17661     17660     17662     17661     17660     17663     17662     17660     17663
     17662     17672     17673     17662     17672     17676     17662     17672     17677
     17663     17647     17667     17663     17665     17666     17664     17663     17665
     17667     17670     17671     17668     17667     17669     17668     17667     17670
     17669     17667     17670     17672     17676     17674     17672     17677     17678
     17672     17677     17679     17672     17677     17680     17673     17672     17676
     17673     17672     17677     17674     17684     17680     17674     17684     17685
     17674     17684     17686     17674     17688     17689     17674     17688     17690
     17674     17688     17691     17675     17674     17676     17675     17674     17684
     17675     17674     17688     17676     17672     17677     17676     17674     17684
     17676     17674     17688     17677     17679     17693     17677     17680     17681
     17677     17680     17682     17677     17680     17684     17678     17677     17679
     17678     17677     17680     17679     17677     17680     17679     17693     17694
     17679     17693     17697     17679     17693     17698     17680     17682     17683
     17680     17684     17685     17680     17684     17686     17681     17680     17682
     17681     17680     17684     17682     17680     17684     17684     17674     17688
     17684     17686     17687     17685     17684     17686     17688     17691     17692
     17689     17688     17690     17689     17688     17691     17690     17688     17691
     17693     17697     17695     17693     17698     17699     17693     17698     17700
     17693     17698     17701     17694     17693     17697     17694     17693     17698
     17695     17705     17701     17695     17705     17706     17695     17705     17707
     17695     17709     17710     17695     17709     17711     17695     17709     17712
     17696     17695     17697     17696     17695     17705     17696     17695     17709
     17697     17693     17698     17697     17695     17705     17697     17695     17709
     17698     17700     17713     17698     17701     17702     17698     17701     17703
     17698     17701     17705     17699     17698     17700     17699     17698     17701
     17700     17698     17701     17700     17713     17714     17700     17713     17717
     17700     17713     17718     17701     17703     17704     17701     17705     17706
     17701     17705     17707     17702     17701     17703     17702     17701     17705
     17703     17701     17705     17705     17695     17709     17705     17707     17708
     17706     17705     17707     17710     17709     17711     17710     17709     17712
     17711     17709     17712     17713     17717     17715     17713     17718     17719
     17713     17718     17720     17713     17718     17721     17714     17713     17717
     17714     17713     17718     17715     17725     17721     17715     17725     17726
     17715     17725     17727     17715     17729     17730     17715     17729     17731
     17715     17729     17732     17716     17715     17717     17716     17715     17725
     17716     17715     17729     17717     17713     17718     17717     17715     17725
     17717     17715     17729     17718     17720     17733     17718     17721     17722
     17718     17721     17723     17718     17721     17725     17719     17718     17720
     17719     17718     17721     17720     17718     17721     17720     17733     17734
     17720     17733     17737     17720     17733     17738     17721     17723     17724
     17721     17725     17726     17721     17725     17727     17722     17721     17723
     17722     17721     17725     17723     17721     17725     17725     17715     17729
     17725     17727     17728     17726     17725     17727     17730     17729     17731
     17730     17729     17732     17731     17729     17732     17733     17737     17735
     17733     17738     17739     17733     17738     17740     17733     17738     17748
     17734     17733     17737     17734     17733     17738     17735     17752     17748
     17735     17752     17753     17735     17752     17754     17735     17756     17757
     17735     17756     17758     17735     17756     17759     17736     17735     17737
     17736     17735     17752     17736     17735     17756     17737     17733     17738
     17737     17735     17752     17737     17735     17756     17738     17740     17741
     17738     17740     17742     17738     17748     17749     17738     17748     17750
     17738     17748     17752     17739     17738     17740     17739     17738     17748
     17740     17738     17748     17740     17742     17743     17740     17742     17744
     17741     17740     17742     17742     17744     17745     17742     17744     17746
     17742     17744     17747     17743     17742     17744     17745     17744     17746
     17745     17744     17747     17746     17744     17747     17748     17750     17751
     17748     17752     17753     17748     17752     17754     17749     17748     17750
     17749     17748     17752     17750     17748     17752     17752     17735     17756
     17752     17754     17755     17753     17752     17754     17756     17759     17760
     17757     17756     17758     17757     17756     17759     17758     17756     17759
     17761     17763     17762     17761     17763     17764     17761     17763     17765
     17762     17763     17764     17762     17763     17765     17762     18060     18057
     17762     18060     18063     17762     18060     18064     17763     17762     18060
     17763     17765     17766     17763     17765     17767     17763     17765     17774
     17764     17763     17765     17765     17766     17768     17765     17774     17775
     17765     17774     17776     17765     17774     17781     17766     17765     17767
     17766     17765     17774     17766     17768     17769     17766     17768     17770
     17766     17768     17789     17767     17765     17774     17768     17770     17771
     17768     17789     17781     17768     17789     17790     17768     17789     17791
     17769     17768     17770     17769     17768     17789     17770     17768     17789
     17770     17771     17772     17770     17771     17773     17770     17771     17797
     17771     17797     17793     17771     17797     17798     17771     17797     17799
     17772     17771     17773     17772     17771     17797     17773     17771     17797
     17774     17776     17777     17774     17781     17782     17774     17781     17783
     17774     17781     17789     17775     17774     17776     17775     17774     17781
     17776     17774     17781     17776     17777     17778     17776     17777     17779
     17776     17777     17780     17778     17777     17779     17778     17777     17780
     17779     17777     17780     17781     17782     17784     17781     17789     17790
     17781     17789     17791     17782     17781     17783     17782     17781     17789
     17782     17784     17785     17782     17784     17786     17783     17781     17789
     17784     17786     17787     17784     17786     17788     17784     17786     17819
     17785     17784     17786     17786     17819     17820     17786     17819     17821
     17786     17819     17864     17787     17786     17788     17787     17786     17819
     17788     17786     17819     17789     17791     17792     17789     17791     17898
     17790     17789     17791     17791     17898     17899     17791     17898     17900
     17792     17791     17898     17793     17795     17796     17793     17797     17798
     17793     17797     17799     17793     17807     17808     17793     17807     17809
     17793     17807     17815     17794     17793     17795     17794     17793     17797
     17794     17793     17807     17795     17793     17797     17795     17793     17807
     17797     17793     17807     17797     17799     17800     17798     17797     17799
     17799     17800     17801     17799     17800     17802     17799     17800     17815
     17800     17802     17806     17800     17815     17807     17800     17815     17816
     17800     17815     17817     17801     17800     17802     17801     17800     17815
     17802     17800     17815     17802     17806     17803     17802     17806     17804
     17802     17806     17805     17803     17806     17804     17803     17806     17805
     17804     17806     17805     17807     17809     17810     17807     17815     17816
     17807     17815     17817     17808     17807     17809     17808     17807     17815
     17809     17807     17815     17809     17810     17811     17809     17810     17812
     17810     17812     17813     17810     17812     17814     17810     17812     17976
     17811     17810     17812     17812     17976     17977     17812     17976     17978
     17812     17976     17980     17813     17812     17814     17813     17812     17976
     17814     17812     17976     17815     17817     17818     17815     17817     18014
     17816     17815     17817     17817     18014     18015     17817     18014     18016
     17818     17817     18014     17819     17821     17822     17819     17864     17865
     17819     17864     17866     17819     17864     17867     17820     17819     17821
     17820     17819     17864     17821     17819     17864     17821     17822     17823
     17821     17822     17824     17822     17824     17825     17822     17824     17826
     17822     17824     17827     17823     17822     17824     17824     17827     17828
     17824     17827     17829     17824     17827     17830     17825     17824     17826
     17825     17824     17827     17826     17824     17827     17827     17830     17831
     17827     17830     17832     17827     17830     17833     17828     17827     17829
     17828     17827     17830     17829     17827     17830     17830     17833     17834
     17830     17833     17835     17830     17833     17836     17831     17830     17832
     17831     17830     17833     17832     17830     17833     17833     17836     17837
     17833     17836     17838     17833     17836     17839     17834     17833     17835
     17834     17833     17836     17835     17833     17836     17836     17839     17840
     17836     17839     17841     17836     17839     17842     17837     17836     17838
     17837     17836     17839     17838     17836     17839     17839     17842     17843
     17839     17842     17844     17839     17842     17845     17840     17839     17841
     17840     17839     17842     17841     17839     17842     17842     17845     17846
     17842     17845     17847     17842     17845     17848     17843     17842     17844
     17843     17842     17845     17844     17842     17845     17845     17848     17849
     17845     17848     17850     17845     17848     17851     17846     17845     17847
     17846     17845     17848     17847     17845     17848     17848     17851     17852
     17848     17851     17853     17848     17851     17854     17849     17848     17850
     17849     17848     17851     17850     17848     17851     17851     17854     17855
     17851     17854     17856     17851     17854     17857     17852     17851     17853
     17852     17851     17854     17853     17851     17854     17854     17857     17858
     17854     17857     17859     17854     17857     17860     17855     17854     17856
     17855     17854     17857     17856     17854     17857     17857     17860     17861
     17857     17860     17862     17857     17860     17863     17858     17857     17859
     17858     17857     17860     17859     17857     17860     17861     17860     17862
     17861     17860     17863     17862     17860     17863     17864     17867     17868
     17864     17867     17869     17864     17867     17870     17865     17864     17866
     17865     17864     17867     17866     17864     17867     17867     17870     17871
     17867     17870     17872     17867     17870     17873     17868     17867     17869
     17868     17867     17870     17869     17867     17870     17870     17873     17874
     17870     17873     17875     17870     17873     17876     17871     17870     17872
     17871     17870     17873     17872     17870     17873     17873     17876     17877
     17873     17876     17878     17873     17876     17879     17874     17873     17875
     17874     17873     17876     17875     17873     17876     17876     17879     17880
     17876     17879     17881     17876     17879     17882     17877     17876     17878
     17877     17876     17879     17878     17876     17879     17879     17882     17883
     17879     17882     17884     17879     17882     17885     17880     17879     17881
     17880     17879     17882     17881     17879     17882     17882     17885     17886
     17882     17885     17887     17882     17885     17888     17883     17882     17884
     17883     17882     17885     17884     17882     17885     17885     17888     17889
     17885     17888     17890     17885     17888     17891     17886     17885     17887
     17886     17885     17888     17887     17885     17888     17888     17891     17892
     17888     17891     17893     17888     17891     17894     17889     17888     17890
     17889     17888     17891     17890     17888     17891     17891     17894     17895
     17891     17894     17896     17891     17894     17897     17892     17891     17893
     17892     17891     17894     17893     17891     17894     17895     17894     17896
     17895     17894     17897     17896     17894     17897     17898     17900     17901
     17898     17900     17902     17898     17900     17903     17899     17898     17900
     17900     17903     17904     17900     17903     17905     17900     17903     17942
     17901     17900     17902     17901     17900     17903     17902     17900     17903
     17903     17905     17906     17903     17942     17943     17903     17942     17944
     17903     17942     17945     17904     17903     17905     17904     17903     17942
     17905     17903     17942     17905     17906     17907     17905     17906     17908
     17906     17908     17909     17906     17908     17910     17906     17908     17911
     17907     17906     17908     17908     17911     17912     17908     17911     17913
     17908     17911     17914     17909     17908     17910     17909     17908     17911
     17910     17908     17911     17911     17914     17915     17911     17914     17916
     17911     17914     17917     17912     17911     17913     17912     17911     17914
     17913     17911     17914     17914     17917     17918     17914     17917     17919
     17914     17917     17920     17915     17914     17916     17915     17914     17917
     17916     17914     17917     17917     17920     17921     17917     17920     17922
     17917     17920     17923     17918     17917     17919     17918     17917     17920
     17919     17917     17920     17920     17923     17924     17920     17923     17925
     17920     17923     17926     17921     17920     17922     17921     17920     17923
     17922     17920     17923     17923     17926     17927     17923     17926     17928
     17923     17926     17929     17924     17923     17925     17924     17923     17926
     17925     17923     17926     17926     17929     17930     17926     17929     17931
     17926     17929     17932     17927     17926     17928     17927     17926     17929
     17928     17926     17929     17929     17932     17933     17929     17932     17934
     17929     17932     17935     17930     17929     17931     17930     17929     17932
     17931     17929     17932     17932     17935     17936     17932     17935     17937
     17932     17935     17938     17933     17932     17934     17933     17932     17935
     17934     17932     17935     17935     17938     17939     17935     17938     17940
     17935     17938     17941     17936     17935     17937     17936     17935     17938
     17937     17935     17938     17939     17938     17940     17939     17938     17941
     17940     17938     17941     17942     17945     17946     17942     17945     17947
     17942     17945     17948     17943     17942     17944     17943     17942     17945
     17944     17942     17945     17945     17948     17949     17945     17948     17950
     17945     17948     17951     17946     17945     17947     17946     17945     17948
     17947     17945     17948     17948     17951     17952     17948     17951     17953
     17948     17951     17954     17949     17948     17950     17949     17948     17951
     17950     17948     17951     17951     17954     17955     17951     17954     17956
     17951     17954     17957     17952     17951     17953     17952     17951     17954
     17953     17951     17954     17954     17957     17958     17954     17957     17959
     17954     17957     17960     17955     17954     17956     17955     17954     17957
     17956     17954     17957     17957     17960     17961     17957     17960     17962
     17957     17960     17963     17958     17957     17959     17958     17957     17960
     17959     17957     17960     17960     17963     17964     17960     17963     17965
     17960     17963     17966     17961     17960     17962     17961     17960     17963
     17962     17960     17963     17963     17966     17967     17963     17966     17968
     17963     17966     17969     17964     17963     17965     17964     17963     17966
     17965     17963     17966     17966     17969     17970     17966     17969     17971
     17966     17969     17972     17967     17966     17968     17967     17966     17969
     17968     17966     17969     17969     17972     17973     17969     17972     17974
     17969     17972     17975     17970     17969     17971     17970     17969     17972
     17971     17969     17972     17973     17972     17974     17973     17972     17975
     17974     17972     17975     17976     17978     17979     17976     17980     17981
     17976     17980     17982     17976     17980     17983     17977     17976     17978
     17977     17976     17980     17978     17976     17980     17980     17983     17984
     17980     17983     17985     17980     17983     17986     17981     17980     17982
     17981     17980     17983     17982     17980     17983     17983     17986     17987
     17983     17986     17988     17983     17986     17989     17984     17983     17985
     17984     17983     17986     17985     17983     17986     17986     17989     17990
     17986     17989     17991     17986     17989     17992     17987     17986     17988
     17987     17986     17989     17988     17986     17989     17989     17992     17993
     17989     17992     17994     17989     17992     17995     17990     17989     17991
     17990     17989     17992     17991     17989     17992     17992     17995     17996
     17992     17995     17997     17992     17995     17998     17993     17992     17994
     17993     17992     17995     17994     17992     17995     17995     17998     17999
     17995     17998     18000     17995     17998     18001     17996     17995     17997
     17996     17995     17998     17997     17995     17998     17998     18001     18002
     17998     18001     18003     17998     18001     18004     17999     17998     18000
     17999     17998     18001     18000     17998     18001     18001     18004     18005
     18001     18004     18006     18001     18004     18007     18002     18001     18003
     18002     18001     18004     18003     18001     18004     18004     18007     18008
     18004     18007     18009     18004     18007     18010     18005     18004     18006
     18005     18004     18007     18006     18004     18007     18007     18010     18011
     18007     18010     18012     18007     18010     18013     18008     18007     18009
     18008     18007     18010     18009     18007     18010     18011     18010     18012
     18011     18010     18013     18012     18010     18013     18014     18016     18017
     18014     18016     18018     18014     18016     18019     18015     18014     18016
     18016     18019     18020     18016     18019     18021     18016     18019     18023
     18017     18016     18018     18017     18016     18019     18018     18016     18019
     18019     18021     18022     18019     18023     18024     18019     18023     18025
     18019     18023     18026     18020     18019     18021     18020     18019     18023
     18021     18019     18023     18023     18026     18027     18023     18026     18028
     18023     18026     18029     18024     18023     18025     18024     18023     18026
     18025     18023     18026     18026     18029     18030     18026     18029     18031
     18026     18029     18032     18027     18026     18028     18027     18026     18029
     18028     18026     18029     18029     18032     18033     18029     18032     18034
     18029     18032     18035     18030     18029     18031     18030     18029     18032
     18031     18029     18032     18032     18035     18036     18032     18035     18037
     18032     18035     18038     18033     18032     18034     18033     18032     18035
     18034     18032     18035     18035     18038     18039     18035     18038     18040
     18035     18038     18041     18036     18035     18037     18036     18035     18038
     18037     18035     18038     18038     18041     18042     18038     18041     18043
     18038     18041     18044     18039     18038     18040     18039     18038     18041
     18040     18038     18041     18041     18044     18045     18041     18044     18046
     18041     18044     18047     18042     18041     18043     18042     18041     18044
     18043     18041     18044     18044     18047     18048     18044     18047     18049
     18044     18047     18050     18045     18044     18046     18045     18044     18047
     18046     18044     18047     18047     18050     18051     18047     18050     18052
     18047     18050     18053     18048     18047     18049     18048     18047     18050
     18049     18047     18050     18050     18053     18054     18050     18053     18055
     18050     18053     18056     18051     18050     18052     18051     18050     18053
     18052     18050     18053     18054     18053     18055     18054     18053     18056
     18055     18053     18056     18057     18060     18063     18057     18060     18064
     18058     18057     18059     18058     18057     18060     18059     18057     18060
     18060     18063     18061     18060     18064     18065     18060     18064     18066
     18060     18064     18067     18061     18070     18067     18061     18070     18071
     18061     18070     18072     18061     18073     18074     18061     18073     18075
     18061     18073     18077     18062     18061     18063     18062     18061     18070
     18062     18061     18073     18063     18060     18064     18063     18061     18070
     18063     18061     18073     18064     18067     18068     18064     18067     18069
     18064     18067     18070     18065     18064     18066     18065     18064     18067
     18066     18064     18067     18067     18069     18085     18067     18070     18071
     18067     18070     18072     18068     18067     18069     18068     18067     18070
     18069     18067     18070     18069     18085     18082     18069     18085     18088
     18069     18085     18089     18070     18061     18073     18070     18072     18109
     18071     18070     18072     18072     18109     18110     18072     18109     18113
     18072     18109     18114     18073     18075     18076     18073     18077     18078
     18073     18077     18079     18073     18077     18080     18074     18073     18075
     18074     18073     18077     18075     18073     18077     18077     18080     18081
     18078     18077     18079     18078     18077     18080     18079     18077     18080
     18082     18085     18088     18082     18085     18089     18083     18082     18084
     18083     18082     18085     18084     18082     18085     18085     18088     18086
     18085     18089     18090     18085     18089     18091     18085     18089     18092
     18086     18096     18092     18086     18096     18097     18086     18096     18098
     18086     18100     18101     18086     18100     18102     18086     18100     18104
     18087     18086     18088     18087     18086     18096     18087     18086     18100
     18088     18085     18089     18088     18086     18096     18088     18086     18100
     18089     18092     18093     18089     18092     18094     18089     18092     18096
     18090     18089     18091     18090     18089     18092     18091     18089     18092
     18092     18094     18095     18092     18096     18097     18092     18096     18098
     18093     18092     18094     18093     18092     18096     18094     18092     18096
     18096     18086     18100     18096     18098     18099     18097     18096     18098
     18100     18102     18103     18100     18104     18105     18100     18104     18106
     18100     18104     18107     18101     18100     18102     18101     18100     18104
     18102     18100     18104     18104     18107     18108     18105     18104     18106
     18105     18104     18107     18106     18104     18107     18109     18113     18111
     18109     18114     18115     18109     18114     18116     18109     18114     18118
     18110     18109     18113     18110     18109     18114     18111     18121     18118
     18111     18121     18122     18111     18121     18123     18111     18128     18129
     18111     18128     18130     18111     18128     18132     18112     18111     18113
     18112     18111     18121     18112     18111     18128     18113     18109     18114
     18113     18111     18121     18113     18111     18128     18114     18116     18117
     18114     18118     18119     18114     18118     18120     18114     18118     18121
     18115     18114     18116     18115     18114     18118     18116     18114     18118
     18118     18120     18137     18118     18121     18122     18118     18121     18123
     18119     18118     18120     18119     18118     18121     18120     18118     18121
     18120     18137     18138     18120     18137     18141     18120     18137     18142
     18121     18111     18128     18121     18123     18124     18122     18121     18123
     18123     18124     18125     18123     18124     18126     18123     18124     18127
     18125     18124     18126     18125     18124     18127     18126     18124     18127
     18128     18130     18131     18128     18132     18133     18128     18132     18134
     18128     18132     18135     18129     18128     18130     18129     18128     18132
     18130     18128     18132     18132     18135     18136     18133     18132     18134
     18133     18132     18135     18134     18132     18135     18137     18141     18139
     18137     18142     18143     18137     18142     18144     18137     18142     18146
     18138     18137     18141     18138     18137     18142     18139     18149     18146
     18139     18149     18150     18139     18149     18151     18139     18156     18157
     18139     18156     18158     18139     18156     18160     18140     18139     18141
     18140     18139     18149     18140     18139     18156     18141     18137     18142
     18141     18139     18149     18141     18139     18156     18142     18144     18145
     18142     18146     18147     18142     18146     18148     18142     18146     18149
     18143     18142     18144     18143     18142     18146     18144     18142     18146
     18146     18148     18190     18146     18149     18150     18146     18149     18151
     18147     18146     18148     18147     18146     18149     18148     18146     18149
     18148     18190     18191     18148     18190     18194     18148     18190     18195
     18149     18139     18156     18149     18151     18152     18150     18149     18151
     18151     18152     18153     18151     18152     18154     18151     18152     18155
     18153     18152     18154     18153     18152     18155     18154     18152     18155
     18156     18158     18159     18156     18160     18161     18156     18160     18162
     18156     18160     18163     18157     18156     18158     18157     18156     18160
     18158     18156     18160     18160     18163     18164     18161     18160     18162
     18161     18160     18163     18162     18160     18163     18163     18164     18165
     18163     18164     18168     18163     18164     18169     18164     18168     18166
     18164     18169     18170     18164     18169     18171     18164     18169     18173
     18165     18164     18168     18165     18164     18169     18166     18177     18173
     18166     18177     18178     18166     18177     18179     18166     18181     18182
     18166     18181     18183     18166     18181     18185     18167     18166     18168
     18167     18166     18177     18167     18166     18181     18168     18164     18169
     18168     18166     18177     18168     18166     18181     18169     18171     18172
     18169     18173     18174     18169     18173     18175     18169     18173     18177
     18170     18169     18171     18170     18169     18173     18171     18169     18173
     18173     18175     18176     18173     18177     18178     18173     18177     18179
     18174     18173     18175     18174     18173     18177     18175     18173     18177
     18177     18166     18181     18177     18179     18180     18178     18177     18179
     18181     18183     18184     18181     18185     18186     18181     18185     18187
     18181     18185     18188     18182     18181     18183     18182     18181     18185
     18183     18181     18185     18185     18188     18189     18186     18185     18187
     18186     18185     18188     18187     18185     18188     18190     18194     18192
     18190     18195     18196     18190     18195     18197     18190     18195     18199
     18191     18190     18194     18191     18190     18195     18192     18202     18199
     18192     18202     18203     18192     18202     18204     18192     18206     18207
     18192     18206     18208     18192     18206     18209     18193     18192     18194
     18193     18192     18202     18193     18192     18206     18194     18190     18195
     18194     18192     18202     18194     18192     18206     18195     18197     18198
     18195     18199     18200     18195     18199     18201     18195     18199     18202
     18196     18195     18197     18196     18195     18199     18197     18195     18199
     18199     18201     18211     18199     18202     18203     18199     18202     18204
     18200     18199     18201     18200     18199     18202     18201     18199     18202
     18201     18211     18212     18201     18211     18215     18201     18211     18216
     18202     18192     18206     18202     18204     18205     18203     18202     18204
     18206     18209     18210     18207     18206     18208     18207     18206     18209
     18208     18206     18209     18211     18215     18213     18211     18216     18217
     18211     18216     18218     18211     18216     18219     18212     18211     18215
     18212     18211     18216     18213     18222     18219     18213     18222     18223
     18213     18222     18224     18213     18226     18227     18213     18226     18228
     18213     18226     18229     18214     18213     18215     18214     18213     18222
     18214     18213     18226     18215     18211     18216     18215     18213     18222
     18215     18213     18226     18216     18218     18231     18216     18219     18220
     18216     18219     18221     18216     18219     18222     18217     18216     18218
     18217     18216     18219     18218     18216     18219     18218     18231     18232
     18218     18231     18235     18218     18231     18236     18219     18221     18274
     18219     18222     18223     18219     18222     18224     18220     18219     18221
     18220     18219     18222     18221     18219     18222     18221     18274     18275
     18221     18274     18278     18221     18274     18279     18222     18213     18226
     18222     18224     18225     18223     18222     18224     18226     18229     18230
     18227     18226     18228     18227     18226     18229     18228     18226     18229
     18231     18235     18233     18231     18236     18237     18231     18236     18238
     18231     18236     18239     18232     18231     18235     18232     18231     18236
     18233     18243     18239     18233     18243     18244     18233     18243     18245
     18233     18247     18248     18233     18247     18249     18233     18247     18250
     18234     18233     18235     18234     18233     18243     18234     18233     18247
     18235     18231     18236     18235     18233     18243     18235     18233     18247
     18236     18238     18252     18236     18239     18240     18236     18239     18241
     18236     18239     18243     18237     18236     18238     18237     18236     18239
     18238     18236     18239     18238     18252     18253     18238     18252     18256
     18238     18252     18257     18239     18241     18242     18239     18243     18244
     18239     18243     18245     18240     18239     18241     18240     18239     18243
     18241     18239     18243     18243     18233     18247     18243     18245     18246
     18244     18243     18245     18247     18250     18251     18248     18247     18249
     18248     18247     18250     18249     18247     18250     18252     18256     18254
     18252     18257     18258     18252     18257     18259     18252     18257     18261
     18253     18252     18256     18253     18252     18257     18254     18265     18261
     18254     18265     18266     18254     18265     18267     18254     18269     18270
     18254     18269     18271     18254     18269     18272     18255     18254     18256
     18255     18254     18265     18255     18254     18269     18256     18252     18257
     18256     18254     18265     18256     18254     18269     18257     18259     18260
     18257     18261     18262     18257     18261     18263     18257     18261     18265
     18258     18257     18259     18258     18257     18261     18259     18257     18261
     18261     18263     18264     18261     18265     18266     18261     18265     18267
     18262     18261     18263     18262     18261     18265     18263     18261     18265
     18265     18254     18269     18265     18267     18268     18266     18265     18267
     18269     18272     18273     18270     18269     18271     18270     18269     18272
     18271     18269     18272     18274     18278     18276     18274     18279     18280
     18274     18279     18281     18274     18279     18283     18275     18274     18278
     18275     18274     18279     18276     18286     18283     18276     18286     18287
     18276     18286     18288     18276     18290     18291     18276     18290     18292
     18276     18290     18293     18277     18276     18278     18277     18276     18286
     18277     18276     18290     18278     18274     18279     18278     18276     18286
     18278     18276     18290     18279     18281     18282     18279     18283     18284
     18279     18283     18285     18279     18283     18286     18280     18279     18281
     18280     18279     18283     18281     18279     18283     18283     18285     18295
     18283     18286     18287     18283     18286     18288     18284     18283     18285
     18284     18283     18286     18285     18283     18286     18285     18295     18296
     18285     18295     18299     18285     18295     18300     18286     18276     18290
     18286     18288     18289     18287     18286     18288     18290     18293     18294
     18291     18290     18292     18291     18290     18293     18292     18290     18293
     18295     18299     18297     18295     18300     18301     18295     18300     18302
     18295     18300     18310     18296     18295     18299     18296     18295     18300
     18297     18313     18310     18297     18313     18314     18297     18313     18315
     18297     18317     18318     18297     18317     18319     18297     18317     18320
     18298     18297     18299     18298     18297     18313     18298     18297     18317
     18299     18295     18300     18299     18297     18313     18299     18297     18317
     18300     18302     18303     18300     18302     18304     18300     18310     18311
     18300     18310     18312     18300     18310     18313     18301     18300     18302
     18301     18300     18310     18302     18300     18310     18302     18304     18305
     18302     18304     18306     18303     18302     18304     18304     18306     18307
     18304     18306     18308     18304     18306     18309     18305     18304     18306
     18307     18306     18308     18307     18306     18309     18308     18306     18309
     18310     18312     18322     18310     18313     18314     18310     18313     18315
     18311     18310     18312     18311     18310     18313     18312     18310     18313
     18312     18322     18323     18312     18322     18326     18312     18322     18327
     18313     18297     18317     18313     18315     18316     18314     18313     18315
     18317     18320     18321     18318     18317     18319     18318     18317     18320
     18319     18317     18320     18322     18326     18324     18322     18327     18328
     18322     18327     18329     18322     18327     18330     18323     18322     18326
     18323     18322     18327     18324     18334     18330     18324     18334     18335
     18324     18334     18336     18324     18338     18339     18324     18338     18340
     18324     18338     18341     18325     18324     18326     18325     18324     18334
     18325     18324     18338     18326     18322     18327     18326     18324     18334
     18326     18324     18338     18327     18329     18343     18327     18330     18331
     18327     18330     18332     18327     18330     18334     18328     18327     18329
     18328     18327     18330     18329     18327     18330     18329     18343     18344
     18329     18343     18347     18329     18343     18348     18330     18332     18333
     18330     18334     18335     18330     18334     18336     18331     18330     18332
     18331     18330     18334     18332     18330     18334     18334     18324     18338
     18334     18336     18337     18335     18334     18336     18338     18341     18342
     18339     18338     18340     18339     18338     18341     18340     18338     18341
     18343     18347     18345     18343     18348     18349     18343     18348     18350
     18343     18348     18351     18344     18343     18347     18344     18343     18348
     18345     18355     18351     18345     18355     18356     18345     18355     18357
     18345     18359     18360     18345     18359     18361     18345     18359     18362
     18346     18345     18347     18346     18345     18355     18346     18345     18359
     18347     18343     18348     18347     18345     18355     18347     18345     18359
     18348     18350     18363     18348     18351     18352     18348     18351     18353
     18348     18351     18355     18349     18348     18350     18349     18348     18351
     18350     18348     18351     18350     18363     18364     18350     18363     18367
     18350     18363     18368     18351     18353     18354     18351     18355     18356
     18351     18355     18357     18352     18351     18353     18352     18351     18355
     18353     18351     18355     18355     18345     18359     18355     18357     18358
     18356     18355     18357     18360     18359     18361     18360     18359     18362
     18361     18359     18362     18363     18367     18365     18363     18368     18369
     18363     18368     18370     18363     18368     18371     18364     18363     18367
     18364     18363     18368     18365     18374     18371     18365     18374     18375
     18365     18374     18376     18365     18378     18379     18365     18378     18380
     18365     18378     18381     18366     18365     18367     18366     18365     18374
     18366     18365     18378     18367     18363     18368     18367     18365     18374
     18367     18365     18378     18368     18370     18382     18368     18371     18372
     18368     18371     18373     18368     18371     18374     18369     18368     18370
     18369     18368     18371     18370     18368     18371     18370     18382     18383
     18370     18382     18386     18370     18382     18387     18371     18373     18410
     18371     18374     18375     18371     18374     18376     18372     18371     18373
     18372     18371     18374     18373     18371     18374     18373     18410     18411
     18373     18410     18414     18373     18410     18415     18374     18365     18378
     18374     18376     18377     18375     18374     18376     18379     18378     18380
     18379     18378     18381     18380     18378     18381     18382     18386     18384
     18382     18387     18388     18382     18387     18389     18382     18387     18397
     18383     18382     18386     18383     18382     18387     18384     18401     18397
     18384     18401     18402     18384     18401     18403     18384     18405     18406
     18384     18405     18407     18384     18405     18408     18385     18384     18386
     18385     18384     18401     18385     18384     18405     18386     18382     18387
     18386     18384     18401     18386     18384     18405     18387     18389     18390
     18387     18389     18391     18387     18397     18398     18387     18397     18399
     18387     18397     18401     18388     18387     18389     18388     18387     18397
     18389     18387     18397     18389     18391     18392     18389     18391     18393
     18390     18389     18391     18391     18393     18394     18391     18393     18395
     18391     18393     18396     18392     18391     18393     18394     18393     18395
     18394     18393     18396     18395     18393     18396     18397     18399     18400
     18397     18401     18402     18397     18401     18403     18398     18397     18399
     18398     18397     18401     18399     18397     18401     18401     18384     18405
     18401     18403     18404     18402     18401     18403     18405     18408     18409
     18406     18405     18407     18406     18405     18408     18407     18405     18408
     18410     18414     18412     18410     18415     18416     18410     18415     18417
     18410     18415     18425     18411     18410     18414     18411     18410     18415
     18412     18428     18425     18412     18428     18429     18412     18428     18430
     18412     18432     18433     18412     18432     18434     18412     18432     18435
     18413     18412     18414     18413     18412     18428     18413     18412     18432
     18414     18410     18415     18414     18412     18428     18414     18412     18432
     18415     18417     18418     18415     18417     18419     18415     18425     18426
     18415     18425     18427     18415     18425     18428     18416     18415     18417
     18416     18415     18425     18417     18415     18425     18417     18419     18420
     18417     18419     18421     18418     18417     18419     18419     18421     18422
     18419     18421     18423     18419     18421     18424     18420     18419     18421
     18422     18421     18423     18422     18421     18424     18423     18421     18424
     18425     18427     18437     18425     18428     18429     18425     18428     18430
     18426     18425     18427     18426     18425     18428     18427     18425     18428
     18427     18437     18438     18427     18437     18441     18427     18437     18442
     18428     18412     18432     18428     18430     18431     18429     18428     18430
     18432     18435     18436     18433     18432     18434     18433     18432     18435
     18434     18432     18435     18437     18441     18439     18437     18442     18443
     18437     18442     18444     18437     18442     18445     18438     18437     18441
     18438     18437     18442     18439     18449     18445     18439     18449     18450
     18439     18449     18451     18439     18453     18454     18439     18453     18455
     18439     18453     18456     18440     18439     18441     18440     18439     18449
     18440     18439     18453     18441     18437     18442     18441     18439     18449
     18441     18439     18453     18442     18444     18458     18442     18445     18446
     18442     18445     18447     18442     18445     18449     18443     18442     18444
     18443     18442     18445     18444     18442     18445     18444     18458     18459
     18444     18458     18462     18444     18458     18463     18445     18447     18448
     18445     18449     18450     18445     18449     18451     18446     18445     18447
     18446     18445     18449     18447     18445     18449     18449     18439     18453
     18449     18451     18452     18450     18449     18451     18453     18456     18457
     18454     18453     18455     18454     18453     18456     18455     18453     18456
     18458     18462     18460     18458     18463     18464     18458     18463     18465
     18458     18463     18466     18459     18458     18462     18459     18458     18463
     18460     18470     18466     18460     18470     18471     18460     18470     18472
     18460     18474     18475     18460     18474     18476     18460     18474     18477
     18461     18460     18462     18461     18460     18470     18461     18460     18474
     18462     18458     18463     18462     18460     18470     18462     18460     18474
     18463     18465     18478     18463     18466     18467     18463     18466     18468
     18463     18466     18470     18464     18463     18465     18464     18463     18466
     18465     18463     18466     18465     18478     18479     18465     18478     18482
     18465     18478     18483     18466     18468     18469     18466     18470     18471
     18466     18470     18472     18467     18466     18468     18467     18466     18470
     18468     18466     18470     18470     18460     18474     18470     18472     18473
     18471     18470     18472     18475     18474     18476     18475     18474     18477
     18476     18474     18477     18478     18482     18480     18478     18483     18484
     18478     18483     18485     18478     18483     18486     18479     18478     18482
     18479     18478     18483     18480     18489     18486     18480     18489     18490
     18480     18489     18491     18480     18493     18494     18480     18493     18495
     18480     18493     18496     18481     18480     18482     18481     18480     18489
     18481     18480     18493     18482     18478     18483     18482     18480     18489
     18482     18480     18493     18483     18485     18497     18483     18486     18487
     18483     18486     18488     18483     18486     18489     18484     18483     18485
     18484     18483     18486     18485     18483     18486     18485     18497     18498
     18485     18497     18501     18485     18497     18502     18486     18488     18525
     18486     18489     18490     18486     18489     18491     18487     18486     18488
     18487     18486     18489     18488     18486     18489     18488     18525     18526
     18488     18525     18529     18488     18525     18530     18489     18480     18493
     18489     18491     18492     18490     18489     18491     18494     18493     18495
     18494     18493     18496     18495     18493     18496     18497     18501     18499
     18497     18502     18503     18497     18502     18504     18497     18502     18512
     18498     18497     18501     18498     18497     18502     18499     18516     18512
     18499     18516     18517     18499     18516     18518     18499     18520     18521
     18499     18520     18522     18499     18520     18523     18500     18499     18501
     18500     18499     18516     18500     18499     18520     18501     18497     18502
     18501     18499     18516     18501     18499     18520     18502     18504     18505
     18502     18504     18506     18502     18512     18513     18502     18512     18514
     18502     18512     18516     18503     18502     18504     18503     18502     18512
     18504     18502     18512     18504     18506     18507     18504     18506     18508
     18505     18504     18506     18506     18508     18509     18506     18508     18510
     18506     18508     18511     18507     18506     18508     18509     18508     18510
     18509     18508     18511     18510     18508     18511     18512     18514     18515
     18512     18516     18517     18512     18516     18518     18513     18512     18514
     18513     18512     18516     18514     18512     18516     18516     18499     18520
     18516     18518     18519     18517     18516     18518     18520     18523     18524
     18521     18520     18522     18521     18520     18523     18522     18520     18523
     18525     18529     18527     18525     18530     18531     18525     18530     18532
     18525     18530     18540     18526     18525     18529     18526     18525     18530
     18527     18543     18540     18527     18543     18544     18527     18543     18545
     18527     18547     18548     18527     18547     18549     18527     18547     18550
     18528     18527     18529     18528     18527     18543     18528     18527     18547
     18529     18525     18530     18529     18527     18543     18529     18527     18547
     18530     18532     18533     18530     18532     18534     18530     18540     18541
     18530     18540     18542     18530     18540     18543     18531     18530     18532
     18531     18530     18540     18532     18530     18540     18532     18534     18535
     18532     18534     18536     18533     18532     18534     18534     18536     18537
     18534     18536     18538     18534     18536     18539     18535     18534     18536
     18537     18536     18538     18537     18536     18539     18538     18536     18539
     18540     18542     18552     18540     18543     18544     18540     18543     18545
     18541     18540     18542     18541     18540     18543     18542     18540     18543
     18542     18552     18553     18542     18552     18556     18542     18552     18557
     18543     18527     18547     18543     18545     18546     18544     18543     18545
     18547     18550     18551     18548     18547     18549     18548     18547     18550
     18549     18547     18550     18552     18556     18554     18552     18557     18558
     18552     18557     18559     18552     18557     18560     18553     18552     18556
     18553     18552     18557     18554     18564     18560     18554     18564     18565
     18554     18564     18566     18554     18568     18569     18554     18568     18570
     18554     18568     18571     18555     18554     18556     18555     18554     18564
     18555     18554     18568     18556     18552     18557     18556     18554     18564
     18556     18554     18568     18557     18559     18573     18557     18560     18561
     18557     18560     18562     18557     18560     18564     18558     18557     18559
     18558     18557     18560     18559     18557     18560     18559     18573     18574
     18559     18573     18577     18559     18573     18578     18560     18562     18563
     18560     18564     18565     18560     18564     18566     18561     18560     18562
     18561     18560     18564     18562     18560     18564     18564     18554     18568
     18564     18566     18567     18565     18564     18566     18568     18571     18572
     18569     18568     18570     18569     18568     18571     18570     18568     18571
     18573     18577     18575     18573     18578     18579     18573     18578     18580
     18573     18578     18581     18574     18573     18577     18574     18573     18578
     18575     18585     18581     18575     18585     18586     18575     18585     18587
     18575     18589     18590     18575     18589     18591     18575     18589     18592
     18576     18575     18577     18576     18575     18585     18576     18575     18589
     18577     18573     18578     18577     18575     18585     18577     18575     18589
     18578     18580     18593     18578     18581     18582     18578     18581     18583
     18578     18581     18585     18579     18578     18580     18579     18578     18581
     18580     18578     18581     18580     18593     18594     18580     18593     18597
     18580     18593     18598     18581     18583     18584     18581     18585     18586
     18581     18585     18587     18582     18581     18583     18582     18581     18585
     18583     18581     18585     18585     18575     18589     18585     18587     18588
     18586     18585     18587     18590     18589     18591     18590     18589     18592
     18591     18589     18592     18593     18597     18595     18593     18598     18599
     18593     18598     18600     18593     18598     18601     18594     18593     18597
     18594     18593     18598     18595     18604     18601     18595     18604     18605
     18595     18604     18606     18595     18608     18609     18595     18608     18610
     18595     18608     18611     18596     18595     18597     18596     18595     18604
     18596     18595     18608     18597     18593     18598     18597     18595     18604
     18597     18595     18608     18598     18600     18612     18598     18601     18602
     18598     18601     18603     18598     18601     18604     18599     18598     18600
     18599     18598     18601     18600     18598     18601     18600     18612     18613
     18600     18612     18616     18600     18612     18617     18601     18603     18640
     18601     18604     18605     18601     18604     18606     18602     18601     18603
     18602     18601     18604     18603     18601     18604     18603     18640     18641
     18603     18640     18644     18603     18640     18645     18604     18595     18608
     18604     18606     18607     18605     18604     18606     18609     18608     18610
     18609     18608     18611     18610     18608     18611     18612     18616     18614
     18612     18617     18618     18612     18617     18619     18612     18617     18627
     18613     18612     18616     18613     18612     18617     18614     18631     18627
     18614     18631     18632     18614     18631     18633     18614     18635     18636
     18614     18635     18637     18614     18635     18638     18615     18614     18616
     18615     18614     18631     18615     18614     18635     18616     18612     18617
     18616     18614     18631     18616     18614     18635     18617     18619     18620
     18617     18619     18621     18617     18627     18628     18617     18627     18629
     18617     18627     18631     18618     18617     18619     18618     18617     18627
     18619     18617     18627     18619     18621     18622     18619     18621     18623
     18620     18619     18621     18621     18623     18624     18621     18623     18625
     18621     18623     18626     18622     18621     18623     18624     18623     18625
     18624     18623     18626     18625     18623     18626     18627     18629     18630
     18627     18631     18632     18627     18631     18633     18628     18627     18629
     18628     18627     18631     18629     18627     18631     18631     18614     18635
     18631     18633     18634     18632     18631     18633     18635     18638     18639
     18636     18635     18637     18636     18635     18638     18637     18635     18638
     18640     18644     18642     18640     18645     18646     18640     18645     18647
     18640     18645     18655     18641     18640     18644     18641     18640     18645
     18642     18658     18655     18642     18658     18659     18642     18658     18660
     18642     18662     18663     18642     18662     18664     18642     18662     18665
     18643     18642     18644     18643     18642     18658     18643     18642     18662
     18644     18640     18645     18644     18642     18658     18644     18642     18662
     18645     18647     18648     18645     18647     18649     18645     18655     18656
     18645     18655     18657     18645     18655     18658     18646     18645     18647
     18646     18645     18655     18647     18645     18655     18647     18649     18650
     18647     18649     18651     18648     18647     18649     18649     18651     18652
     18649     18651     18653     18649     18651     18654     18650     18649     18651
     18652     18651     18653     18652     18651     18654     18653     18651     18654
     18655     18657     18667     18655     18658     18659     18655     18658     18660
     18656     18655     18657     18656     18655     18658     18657     18655     18658
     18657     18667     18668     18657     18667     18671     18657     18667     18672
     18658     18642     18662     18658     18660     18661     18659     18658     18660
     18662     18665     18666     18663     18662     18664     18663     18662     18665
     18664     18662     18665     18667     18671     18669     18667     18672     18673
     18667     18672     18674     18667     18672     18675     18668     18667     18671
     18668     18667     18672     18669     18679     18675     18669     18679     18680
     18669     18679     18681     18669     18683     18684     18669     18683     18685
     18669     18683     18686     18670     18669     18671     18670     18669     18679
     18670     18669     18683     18671     18667     18672     18671     18669     18679
     18671     18669     18683     18672     18674     18688     18672     18675     18676
     18672     18675     18677     18672     18675     18679     18673     18672     18674
     18673     18672     18675     18674     18672     18675     18674     18688     18689
     18674     18688     18692     18674     18688     18693     18675     18677     18678
     18675     18679     18680     18675     18679     18681     18676     18675     18677
     18676     18675     18679     18677     18675     18679     18679     18669     18683
     18679     18681     18682     18680     18679     18681     18683     18686     18687
     18684     18683     18685     18684     18683     18686     18685     18683     18686
     18688     18692     18690     18688     18693     18694     18688     18693     18695
     18688     18693     18696     18689     18688     18692     18689     18688     18693
     18690     18700     18696     18690     18700     18701     18690     18700     18702
     18690     18704     18705     18690     18704     18706     18690     18704     18707
     18691     18690     18692     18691     18690     18700     18691     18690     18704
     18692     18688     18693     18692     18690     18700     18692     18690     18704
     18693     18695     18708     18693     18696     18697     18693     18696     18698
     18693     18696     18700     18694     18693     18695     18694     18693     18696
     18695     18693     18696     18695     18708     18709     18695     18708     18712
     18695     18708     18713     18696     18698     18699     18696     18700     18701
     18696     18700     18702     18697     18696     18698     18697     18696     18700
     18698     18696     18700     18700     18690     18704     18700     18702     18703
     18701     18700     18702     18705     18704     18706     18705     18704     18707
     18706     18704     18707     18708     18712     18710     18708     18713     18714
     18708     18713     18715     18708     18713     18716     18709     18708     18712
     18709     18708     18713     18710     18719     18716     18710     18719     18720
     18710     18719     18721     18710     18723     18724     18710     18723     18725
     18710     18723     18726     18711     18710     18712     18711     18710     18719
     18711     18710     18723     18712     18708     18713     18712     18710     18719
     18712     18710     18723     18713     18715     18727     18713     18716     18717
     18713     18716     18718     18713     18716     18719     18714     18713     18715
     18714     18713     18716     18715     18713     18716     18715     18727     18728
     18715     18727     18731     18715     18727     18732     18716     18718     18755
     18716     18719     18720     18716     18719     18721     18717     18716     18718
     18717     18716     18719     18718     18716     18719     18718     18755     18756
     18718     18755     18759     18718     18755     18760     18719     18710     18723
     18719     18721     18722     18720     18719     18721     18724     18723     18725
     18724     18723     18726     18725     18723     18726     18727     18731     18729
     18727     18732     18733     18727     18732     18734     18727     18732     18742
     18728     18727     18731     18728     18727     18732     18729     18746     18742
     18729     18746     18747     18729     18746     18748     18729     18750     18751
     18729     18750     18752     18729     18750     18753     18730     18729     18731
     18730     18729     18746     18730     18729     18750     18731     18727     18732
     18731     18729     18746     18731     18729     18750     18732     18734     18735
     18732     18734     18736     18732     18742     18743     18732     18742     18744
     18732     18742     18746     18733     18732     18734     18733     18732     18742
     18734     18732     18742     18734     18736     18737     18734     18736     18738
     18735     18734     18736     18736     18738     18739     18736     18738     18740
     18736     18738     18741     18737     18736     18738     18739     18738     18740
     18739     18738     18741     18740     18738     18741     18742     18744     18745
     18742     18746     18747     18742     18746     18748     18743     18742     18744
     18743     18742     18746     18744     18742     18746     18746     18729     18750
     18746     18748     18749     18747     18746     18748     18750     18753     18754
     18751     18750     18752     18751     18750     18753     18752     18750     18753
     18755     18759     18757     18755     18760     18761     18755     18760     18762
     18755     18760     18770     18756     18755     18759     18756     18755     18760
     18757     18773     18770     18757     18773     18774     18757     18773     18775
     18757     18777     18778     18757     18777     18779     18757     18777     18780
     18758     18757     18759     18758     18757     18773     18758     18757     18777
     18759     18755     18760     18759     18757     18773     18759     18757     18777
     18760     18762     18763     18760     18762     18764     18760     18770     18771
     18760     18770     18772     18760     18770     18773     18761     18760     18762
     18761     18760     18770     18762     18760     18770     18762     18764     18765
     18762     18764     18766     18763     18762     18764     18764     18766     18767
     18764     18766     18768     18764     18766     18769     18765     18764     18766
     18767     18766     18768     18767     18766     18769     18768     18766     18769
     18770     18772     18782     18770     18773     18774     18770     18773     18775
     18771     18770     18772     18771     18770     18773     18772     18770     18773
     18772     18782     18783     18772     18782     18786     18772     18782     18787
     18773     18757     18777     18773     18775     18776     18774     18773     18775
     18777     18780     18781     18778     18777     18779     18778     18777     18780
     18779     18777     18780     18782     18786     18784     18782     18787     18788
     18782     18787     18789     18782     18787     18790     18783     18782     18786
     18783     18782     18787     18784     18794     18790     18784     18794     18795
     18784     18794     18796     18784     18798     18799     18784     18798     18800
     18784     18798     18801     18785     18784     18786     18785     18784     18794
     18785     18784     18798     18786     18782     18787     18786     18784     18794
     18786     18784     18798     18787     18789     18803     18787     18790     18791
     18787     18790     18792     18787     18790     18794     18788     18787     18789
     18788     18787     18790     18789     18787     18790     18789     18803     18804
     18789     18803     18807     18789     18803     18808     18790     18792     18793
     18790     18794     18795     18790     18794     18796     18791     18790     18792
     18791     18790     18794     18792     18790     18794     18794     18784     18798
     18794     18796     18797     18795     18794     18796     18798     18801     18802
     18799     18798     18800     18799     18798     18801     18800     18798     18801
     18803     18807     18805     18803     18808     18809     18803     18808     18810
     18803     18808     18811     18804     18803     18807     18804     18803     18808
     18805     18815     18811     18805     18815     18816     18805     18815     18817
     18805     18819     18820     18805     18819     18821     18805     18819     18822
     18806     18805     18807     18806     18805     18815     18806     18805     18819
     18807     18803     18808     18807     18805     18815     18807     18805     18819
     18808     18810     18823     18808     18811     18812     18808     18811     18813
     18808     18811     18815     18809     18808     18810     18809     18808     18811
     18810     18808     18811     18810     18823     18824     18810     18823     18827
     18810     18823     18828     18811     18813     18814     18811     18815     18816
     18811     18815     18817     18812     18811     18813     18812     18811     18815
     18813     18811     18815     18815     18805     18819     18815     18817     18818
     18816     18815     18817     18820     18819     18821     18820     18819     18822
     18821     18819     18822     18823     18827     18825     18823     18828     18829
     18823     18828     18830     18823     18828     18831     18824     18823     18827
     18824     18823     18828     18825     18835     18831     18825     18835     18836
     18825     18835     18837     18825     18839     18840     18825     18839     18841
     18825     18839     18842     18826     18825     18827     18826     18825     18835
     18826     18825     18839     18827     18823     18828     18827     18825     18835
     18827     18825     18839     18828     18830     18843     18828     18831     18832
     18828     18831     18833     18828     18831     18835     18829     18828     18830
     18829     18828     18831     18830     18828     18831     18830     18843     18844
     18830     18843     18847     18830     18843     18848     18831     18833     18834
     18831     18835     18836     18831     18835     18837     18832     18831     18833
     18832     18831     18835     18833     18831     18835     18835     18825     18839
     18835     18837     18838     18836     18835     18837     18840     18839     18841
     18840     18839     18842     18841     18839     18842     18843     18847     18845
     18843     18848     18849     18843     18848     18850     18843     18848     18858
     18844     18843     18847     18844     18843     18848     18845     18862     18858
     18845     18862     18863     18845     18862     18864     18845     18866     18867
     18845     18866     18868     18845     18866     18869     18846     18845     18847
     18846     18845     18862     18846     18845     18866     18847     18843     18848
     18847     18845     18862     18847     18845     18866     18848     18850     18851
     18848     18850     18852     18848     18858     18859     18848     18858     18860
     18848     18858     18862     18849     18848     18850     18849     18848     18858
     18850     18848     18858     18850     18852     18853     18850     18852     18854
     18851     18850     18852     18852     18854     18855     18852     18854     18856
     18852     18854     18857     18853     18852     18854     18855     18854     18856
     18855     18854     18857     18856     18854     18857     18858     18860     18861
     18858     18862     18863     18858     18862     18864     18859     18858     18860
     18859     18858     18862     18860     18858     18862     18862     18845     18866
     18862     18864     18865     18863     18862     18864     18866     18869     18870
     18867     18866     18868     18867     18866     18869     18868     18866     18869
     18871     18873     18872     18871     18873     18874     18871     18873     18875
     18872     18873     18874     18872     18873     18875     18872     19170     19167
     18872     19170     19173     18872     19170     19174     18873     18872     19170
     18873     18875     18876     18873     18875     18877     18873     18875     18884
     18874     18873     18875     18875     18876     18878     18875     18884     18885
     18875     18884     18886     18875     18884     18891     18876     18875     18877
     18876     18875     18884     18876     18878     18879     18876     18878     18880
     18876     18878     18899     18877     18875     18884     18878     18880     18881
     18878     18899     18891     18878     18899     18900     18878     18899     18901
     18879     18878     18880     18879     18878     18899     18880     18878     18899
     18880     18881     18882     18880     18881     18883     18880     18881     18907
     18881     18907     18903     18881     18907     18908     18881     18907     18909
     18882     18881     18883     18882     18881     18907     18883     18881     18907
     18884     18886     18887     18884     18891     18892     18884     18891     18893
     18884     18891     18899     18885     18884     18886     18885     18884     18891
     18886     18884     18891     18886     18887     18888     18886     18887     18889
     18886     18887     18890     18888     18887     18889     18888     18887     18890
     18889     18887     18890     18891     18892     18894     18891     18899     18900
     18891     18899     18901     18892     18891     18893     18892     18891     18899
     18892     18894     18895     18892     18894     18896     18893     18891     18899
     18894     18896     18897     18894     18896     18898     18894     18896     18929
     18895     18894     18896     18896     18929     18930     18896     18929     18931
     18896     18929     18974     18897     18896     18898     18897     18896     18929
     18898     18896     18929     18899     18901     18902     18899     18901     19008
     18900     18899     18901     18901     19008     19009     18901     19008     19010
     18902     18901     19008     18903     18905     18906     18903     18907     18908
     18903     18907     18909     18903     18917     18918     18903     18917     18919
     18903     18917     18925     18904     18903     18905     18904     18903     18907
     18904     18903     18917     18905     18903     18907     18905     18903     18917
     18907     18903     18917     18907     18909     18910     18908     18907     18909
     18909     18910     18911     18909     18910     18912     18909     18910     18925
     18910     18912     18916     18910     18925     18917     18910     18925     18926
     18910     18925     18927     18911     18910     18912     18911     18910     18925
     18912     18910     18925     18912     18916     18913     18912     18916     18914
     18912     18916     18915     18913     18916     18914     18913     18916     18915
     18914     18916     18915     18917     18919     18920     18917     18925     18926
     18917     18925     18927     18918     18917     18919     18918     18917     18925
     18919     18917     18925     18919     18920     18921     18919     18920     18922
     18920     18922     18923     18920     18922     18924     18920     18922     19086
     18921     18920     18922     18922     19086     19087     18922     19086     19088
     18922     19086     19090     18923     18922     18924     18923     18922     19086
     18924     18922     19086     18925     18927     18928     18925     18927     19124
     18926     18925     18927     18927     19124     19125     18927     19124     19126
     18928     18927     19124     18929     18931     18932     18929     18974     18975
     18929     18974     18976     18929     18974     18977     18930     18929     18931
     18930     18929     18974     18931     18929     18974     18931     18932     18933
     18931     18932     18934     18932     18934     18935     18932     18934     18936
     18932     18934     18937     18933     18932     18934     18934     18937     18938
     18934     18937     18939     18934     18937     18940     18935     18934     18936
     18935     18934     18937     18936     18934     18937     18937     18940     18941
     18937     18940     18942     18937     18940     18943     18938     18937     18939
     18938     18937     18940     18939     18937     18940     18940     18943     18944
     18940     18943     18945     18940     18943     18946     18941     18940     18942
     18941     18940     18943     18942     18940     18943     18943     18946     18947
     18943     18946     18948     18943     18946     18949     18944     18943     18945
     18944     18943     18946     18945     18943     18946     18946     18949     18950
     18946     18949     18951     18946     18949     18952     18947     18946     18948
     18947     18946     18949     18948     18946     18949     18949     18952     18953
     18949     18952     18954     18949     18952     18955     18950     18949     18951
     18950     18949     18952     18951     18949     18952     18952     18955     18956
     18952     18955     18957     18952     18955     18958     18953     18952     18954
     18953     18952     18955     18954     18952     18955     18955     18958     18959
     18955     18958     18960     18955     18958     18961     18956     18955     18957
     18956     18955     18958     18957     18955     18958     18958     18961     18962
     18958     18961     18963     18958     18961     18964     18959     18958     18960
     18959     18958     18961     18960     18958     18961     18961     18964     18965
     18961     18964     18966     18961     18964     18967     18962     18961     18963
     18962     18961     18964     18963     18961     18964     18964     18967     18968
     18964     18967     18969     18964     18967     18970     18965     18964     18966
     18965     18964     18967     18966     18964     18967     18967     18970     18971
     18967     18970     18972     18967     18970     18973     18968     18967     18969
     18968     18967     18970     18969     18967     18970     18971     18970     18972
     18971     18970     18973     18972     18970     18973     18974     18977     18978
     18974     18977     18979     18974     18977     18980     18975     18974     18976
     18975     18974     18977     18976     18974     18977     18977     18980     18981
     18977     18980     18982     18977     18980     18983     18978     18977     18979
     18978     18977     18980     18979     18977     18980     18980     18983     18984
     18980     18983     18985     18980     18983     18986     18981     18980     18982
     18981     18980     18983     18982     18980     18983     18983     18986     18987
     18983     18986     18988     18983     18986     18989     18984     18983     18985
     18984     18983     18986     18985     18983     18986     18986     18989     18990
     18986     18989     18991     18986     18989     18992     18987     18986     18988
     18987     18986     18989     18988     18986     18989     18989     18992     18993
     18989     18992     18994     18989     18992     18995     18990     18989     18991
     18990     18989     18992     18991     18989     18992     18992     18995     18996
     18992     18995     18997     18992     18995     18998     18993     18992     18994
     18993     18992     18995     18994     18992     18995     18995     18998     18999
     18995     18998     19000     18995     18998     19001     18996     18995     18997
     18996     18995     18998     18997     18995     18998     18998     19001     19002
     18998     19001     19003     18998     19001     19004     18999     18998     19000
     18999     18998     19001     19000     18998     19001     19001     19004     19005
     19001     19004     19006     19001     19004     19007     19002     19001     19003
     19002     19001     19004     19003     19001     19004     19005     19004     19006
     19005     19004     19007     19006     19004     19007     19008     19010     19011
     19008     19010     19012     19008     19010     19013     19009     19008     19010
     19010     19013     19014     19010     19013     19015     19010     19013     19052
     19011     19010     19012     19011     19010     19013     19012     19010     19013
     19013     19015     19016     19013     19052     19053     19013     19052     19054
     19013     19052     19055     19014     19013     19015     19014     19013     19052
     19015     19013     19052     19015     19016     19017     19015     19016     19018
     19016     19018     19019     19016     19018     19020     19016     19018     19021
     19017     19016     19018     19018     19021     19022     19018     19021     19023
     19018     19021     19024     19019     19018     19020     19019     19018     19021
     19020     19018     19021     19021     19024     19025     19021     19024     19026
     19021     19024     19027     19022     19021     19023     19022     19021     19024
     19023     19021     19024     19024     19027     19028     19024     19027     19029
     19024     19027     19030     19025     19024     19026     19025     19024     19027
     19026     19024     19027     19027     19030     19031     19027     19030     19032
     19027     19030     19033     19028     19027     19029     19028     19027     19030
     19029     19027     19030     19030     19033     19034     19030     19033     19035
     19030     19033     19036     19031     19030     19032     19031     19030     19033
     19032     19030     19033     19033     19036     19037     19033     19036     19038
     19033     19036     19039     19034     19033     19035     19034     19033     19036
     19035     19033     19036     19036     19039     19040     19036     19039     19041
     19036     19039     19042     19037     19036     19038     19037     19036     19039
     19038     19036     19039     19039     19042     19043     19039     19042     19044
     19039     19042     19045     19040     19039     19041     19040     19039     19042
     19041     19039     19042     19042     19045     19046     19042     19045     19047
     19042     19045     19048     19043     19042     19044     19043     19042     19045
     19044     19042     19045     19045     19048     19049     19045     19048     19050
     19045     19048     19051     19046     19045     19047     19046     19045     19048
     19047     19045     19048     19049     19048     19050     19049     19048     19051
     19050     19048     19051     19052     19055     19056     19052     19055     19057
     19052     19055     19058     19053     19052     19054     19053     19052     19055
     19054     19052     19055     19055     19058     19059     19055     19058     19060
     19055     19058     19061     19056     19055     19057     19056     19055     19058
     19057     19055     19058     19058     19061     19062     19058     19061     19063
     19058     19061     19064     19059     19058     19060     19059     19058     19061
     19060     19058     19061     19061     19064     19065     19061     19064     19066
     19061     19064     19067     19062     19061     19063     19062     19061     19064
     19063     19061     19064     19064     19067     19068     19064     19067     19069
     19064     19067     19070     19065     19064     19066     19065     19064     19067
     19066     19064     19067     19067     19070     19071     19067     19070     19072
     19067     19070     19073     19068     19067     19069     19068     19067     19070
     19069     19067     19070     19070     19073     19074     19070     19073     19075
     19070     19073     19076     19071     19070     19072     19071     19070     19073
     19072     19070     19073     19073     19076     19077     19073     19076     19078
     19073     19076     19079     19074     19073     19075     19074     19073     19076
     19075     19073     19076     19076     19079     19080     19076     19079     19081
     19076     19079     19082     19077     19076     19078     19077     19076     19079
     19078     19076     19079     19079     19082     19083     19079     19082     19084
     19079     19082     19085     19080     19079     19081     19080     19079     19082
     19081     19079     19082     19083     19082     19084     19083     19082     19085
     19084     19082     19085     19086     19088     19089     19086     19090     19091
     19086     19090     19092     19086     19090     19093     19087     19086     19088
     19087     19086     19090     19088     19086     19090     19090     19093     19094
     19090     19093     19095     19090     19093     19096     19091     19090     19092
     19091     19090     19093     19092     19090     19093     19093     19096     19097
     19093     19096     19098     19093     19096     19099     19094     19093     19095
     19094     19093     19096     19095     19093     19096     19096     19099     19100
     19096     19099     19101     19096     19099     19102     19097     19096     19098
     19097     19096     19099     19098     19096     19099     19099     19102     19103
     19099     19102     19104     19099     19102     19105     19100     19099     19101
     19100     19099     19102     19101     19099     19102     19102     19105     19106
     19102     19105     19107     19102     19105     19108     19103     19102     19104
     19103     19102     19105     19104     19102     19105     19105     19108     19109
     19105     19108     19110     19105     19108     19111     19106     19105     19107
     19106     19105     19108     19107     19105     19108     19108     19111     19112
     19108     19111     19113     19108     19111     19114     19109     19108     19110
     19109     19108     19111     19110     19108     19111     19111     19114     19115
     19111     19114     19116     19111     19114     19117     19112     19111     19113
     19112     19111     19114     19113     19111     19114     19114     19117     19118
     19114     19117     19119     19114     19117     19120     19115     19114     19116
     19115     19114     19117     19116     19114     19117     19117     19120     19121
     19117     19120     19122     19117     19120     19123     19118     19117     19119
     19118     19117     19120     19119     19117     19120     19121     19120     19122
     19121     19120     19123     19122     19120     19123     19124     19126     19127
     19124     19126     19128     19124     19126     19129     19125     19124     19126
     19126     19129     19130     19126     19129     19131     19126     19129     19133
     19127     19126     19128     19127     19126     19129     19128     19126     19129
     19129     19131     19132     19129     19133     19134     19129     19133     19135
     19129     19133     19136     19130     19129     19131     19130     19129     19133
     19131     19129     19133     19133     19136     19137     19133     19136     19138
     19133     19136     19139     19134     19133     19135     19134     19133     19136
     19135     19133     19136     19136     19139     19140     19136     19139     19141
     19136     19139     19142     19137     19136     19138     19137     19136     19139
     19138     19136     19139     19139     19142     19143     19139     19142     19144
     19139     19142     19145     19140     19139     19141     19140     19139     19142
     19141     19139     19142     19142     19145     19146     19142     19145     19147
     19142     19145     19148     19143     19142     19144     19143     19142     19145
     19144     19142     19145     19145     19148     19149     19145     19148     19150
     19145     19148     19151     19146     19145     19147     19146     19145     19148
     19147     19145     19148     19148     19151     19152     19148     19151     19153
     19148     19151     19154     19149     19148     19150     19149     19148     19151
     19150     19148     19151     19151     19154     19155     19151     19154     19156
     19151     19154     19157     19152     19151     19153     19152     19151     19154
     19153     19151     19154     19154     19157     19158     19154     19157     19159
     19154     19157     19160     19155     19154     19156     19155     19154     19157
     19156     19154     19157     19157     19160     19161     19157     19160     19162
     19157     19160     19163     19158     19157     19159     19158     19157     19160
     19159     19157     19160     19160     19163     19164     19160     19163     19165
     19160     19163     19166     19161     19160     19162     19161     19160     19163
     19162     19160     19163     19164     19163     19165     19164     19163     19166
     19165     19163     19166     19167     19170     19173     19167     19170     19174
     19168     19167     19169     19168     19167     19170     19169     19167     19170
     19170     19173     19171     19170     19174     19175     19170     19174     19176
     19170     19174     19177     19171     19180     19177     19171     19180     19181
     19171     19180     19182     19171     19183     19184     19171     19183     19185
     19171     19183     19187     19172     19171     19173     19172     19171     19180
     19172     19171     19183     19173     19170     19174     19173     19171     19180
     19173     19171     19183     19174     19177     19178     19174     19177     19179
     19174     19177     19180     19175     19174     19176     19175     19174     19177
     19176     19174     19177     19177     19179     19195     19177     19180     19181
     19177     19180     19182     19178     19177     19179     19178     19177     19180
     19179     19177     19180     19179     19195     19192     19179     19195     19198
     19179     19195     19199     19180     19171     19183     19180     19182     19219
     19181     19180     19182     19182     19219     19220     19182     19219     19223
     19182     19219     19224     19183     19185     19186     19183     19187     19188
     19183     19187     19189     19183     19187     19190     19184     19183     19185
     19184     19183     19187     19185     19183     19187     19187     19190     19191
     19188     19187     19189     19188     19187     19190     19189     19187     19190
     19192     19195     19198     19192     19195     19199     19193     19192     19194
     19193     19192     19195     19194     19192     19195     19195     19198     19196
     19195     19199     19200     19195     19199     19201     19195     19199     19202
     19196     19206     19202     19196     19206     19207     19196     19206     19208
     19196     19210     19211     19196     19210     19212     19196     19210     19214
     19197     19196     19198     19197     19196     19206     19197     19196     19210
     19198     19195     19199     19198     19196     19206     19198     19196     19210
     19199     19202     19203     19199     19202     19204     19199     19202     19206
     19200     19199     19201     19200     19199     19202     19201     19199     19202
     19202     19204     19205     19202     19206     19207     19202     19206     19208
     19203     19202     19204     19203     19202     19206     19204     19202     19206
     19206     19196     19210     19206     19208     19209     19207     19206     19208
     19210     19212     19213     19210     19214     19215     19210     19214     19216
     19210     19214     19217     19211     19210     19212     19211     19210     19214
     19212     19210     19214     19214     19217     19218     19215     19214     19216
     19215     19214     19217     19216     19214     19217     19219     19223     19221
     19219     19224     19225     19219     19224     19226     19219     19224     19228
     19220     19219     19223     19220     19219     19224     19221     19231     19228
     19221     19231     19232     19221     19231     19233     19221     19238     19239
     19221     19238     19240     19221     19238     19242     19222     19221     19223
     19222     19221     19231     19222     19221     19238     19223     19219     19224
     19223     19221     19231     19223     19221     19238     19224     19226     19227
     19224     19228     19229     19224     19228     19230     19224     19228     19231
     19225     19224     19226     19225     19224     19228     19226     19224     19228
     19228     19230     19247     19228     19231     19232     19228     19231     19233
     19229     19228     19230     19229     19228     19231     19230     19228     19231
     19230     19247     19248     19230     19247     19251     19230     19247     19252
     19231     19221     19238     19231     19233     19234     19232     19231     19233
     19233     19234     19235     19233     19234     19236     19233     19234     19237
     19235     19234     19236     19235     19234     19237     19236     19234     19237
     19238     19240     19241     19238     19242     19243     19238     19242     19244
     19238     19242     19245     19239     19238     19240     19239     19238     19242
     19240     19238     19242     19242     19245     19246     19243     19242     19244
     19243     19242     19245     19244     19242     19245     19247     19251     19249
     19247     19252     19253     19247     19252     19254     19247     19252     19256
     19248     19247     19251     19248     19247     19252     19249     19259     19256
     19249     19259     19260     19249     19259     19261     19249     19266     19267
     19249     19266     19268     19249     19266     19270     19250     19249     19251
     19250     19249     19259     19250     19249     19266     19251     19247     19252
     19251     19249     19259     19251     19249     19266     19252     19254     19255
     19252     19256     19257     19252     19256     19258     19252     19256     19259
     19253     19252     19254     19253     19252     19256     19254     19252     19256
     19256     19258     19300     19256     19259     19260     19256     19259     19261
     19257     19256     19258     19257     19256     19259     19258     19256     19259
     19258     19300     19301     19258     19300     19304     19258     19300     19305
     19259     19249     19266     19259     19261     19262     19260     19259     19261
     19261     19262     19263     19261     19262     19264     19261     19262     19265
     19263     19262     19264     19263     19262     19265     19264     19262     19265
     19266     19268     19269     19266     19270     19271     19266     19270     19272
     19266     19270     19273     19267     19266     19268     19267     19266     19270
     19268     19266     19270     19270     19273     19274     19271     19270     19272
     19271     19270     19273     19272     19270     19273     19273     19274     19275
     19273     19274     19278     19273     19274     19279     19274     19278     19276
     19274     19279     19280     19274     19279     19281     19274     19279     19283
     19275     19274     19278     19275     19274     19279     19276     19287     19283
     19276     19287     19288     19276     19287     19289     19276     19291     19292
     19276     19291     19293     19276     19291     19295     19277     19276     19278
     19277     19276     19287     19277     19276     19291     19278     19274     19279
     19278     19276     19287     19278     19276     19291     19279     19281     19282
     19279     19283     19284     19279     19283     19285     19279     19283     19287
     19280     19279     19281     19280     19279     19283     19281     19279     19283
     19283     19285     19286     19283     19287     19288     19283     19287     19289
     19284     19283     19285     19284     19283     19287     19285     19283     19287
     19287     19276     19291     19287     19289     19290     19288     19287     19289
     19291     19293     19294     19291     19295     19296     19291     19295     19297
     19291     19295     19298     19292     19291     19293     19292     19291     19295
     19293     19291     19295     19295     19298     19299     19296     19295     19297
     19296     19295     19298     19297     19295     19298     19300     19304     19302
     19300     19305     19306     19300     19305     19307     19300     19305     19309
     19301     19300     19304     19301     19300     19305     19302     19312     19309
     19302     19312     19313     19302     19312     19314     19302     19316     19317
     19302     19316     19318     19302     19316     19319     19303     19302     19304
     19303     19302     19312     19303     19302     19316     19304     19300     19305
     19304     19302     19312     19304     19302     19316     19305     19307     19308
     19305     19309     19310     19305     19309     19311     19305     19309     19312
     19306     19305     19307     19306     19305     19309     19307     19305     19309
     19309     19311     19321     19309     19312     19313     19309     19312     19314
     19310     19309     19311     19310     19309     19312     19311     19309     19312
     19311     19321     19322     19311     19321     19325     19311     19321     19326
     19312     19302     19316     19312     19314     19315     19313     19312     19314
     19316     19319     19320     19317     19316     19318     19317     19316     19319
     19318     19316     19319     19321     19325     19323     19321     19326     19327
     19321     19326     19328     19321     19326     19329     19322     19321     19325
     19322     19321     19326     19323     19332     19329     19323     19332     19333
     19323     19332     19334     19323     19336     19337     19323     19336     19338
     19323     19336     19339     19324     19323     19325     19324     19323     19332
     19324     19323     19336     19325     19321     19326     19325     19323     19332
     19325     19323     19336     19326     19328     19341     19326     19329     19330
     19326     19329     19331     19326     19329     19332     19327     19326     19328
     19327     19326     19329     19328     19326     19329     19328     19341     19342
     19328     19341     19345     19328     19341     19346     19329     19331     19384
     19329     19332     19333     19329     19332     19334     19330     19329     19331
     19330     19329     19332     19331     19329     19332     19331     19384     19385
     19331     19384     19388     19331     19384     19389     19332     19323     19336
     19332     19334     19335     19333     19332     19334     19336     19339     19340
     19337     19336     19338     19337     19336     19339     19338     19336     19339
     19341     19345     19343     19341     19346     19347     19341     19346     19348
     19341     19346     19349     19342     19341     19345     19342     19341     19346
     19343     19353     19349     19343     19353     19354     19343     19353     19355
     19343     19357     19358     19343     19357     19359     19343     19357     19360
     19344     19343     19345     19344     19343     19353     19344     19343     19357
     19345     19341     19346     19345     19343     19353     19345     19343     19357
     19346     19348     19362     19346     19349     19350     19346     19349     19351
     19346     19349     19353     19347     19346     19348     19347     19346     19349
     19348     19346     19349     19348     19362     19363     19348     19362     19366
     19348     19362     19367     19349     19351     19352     19349     19353     19354
     19349     19353     19355     19350     19349     19351     19350     19349     19353
     19351     19349     19353     19353     19343     19357     19353     19355     19356
     19354     19353     19355     19357     19360     19361     19358     19357     19359
     19358     19357     19360     19359     19357     19360     19362     19366     19364
     19362     19367     19368     19362     19367     19369     19362     19367     19371
     19363     19362     19366     19363     19362     19367     19364     19375     19371
     19364     19375     19376     19364     19375     19377     19364     19379     19380
     19364     19379     19381     19364     19379     19382     19365     19364     19366
     19365     19364     19375     19365     19364     19379     19366     19362     19367
     19366     19364     19375     19366     19364     19379     19367     19369     19370
     19367     19371     19372     19367     19371     19373     19367     19371     19375
     19368     19367     19369     19368     19367     19371     19369     19367     19371
     19371     19373     19374     19371     19375     19376     19371     19375     19377
     19372     19371     19373     19372     19371     19375     19373     19371     19375
     19375     19364     19379     19375     19377     19378     19376     19375     19377
     19379     19382     19383     19380     19379     19381     19380     19379     19382
     19381     19379     19382     19384     19388     19386     19384     19389     19390
     19384     19389     19391     19384     19389     19393     19385     19384     19388
     19385     19384     19389     19386     19396     19393     19386     19396     19397
     19386     19396     19398     19386     19400     19401     19386     19400     19402
     19386     19400     19403     19387     19386     19388     19387     19386     19396
     19387     19386     19400     19388     19384     19389     19388     19386     19396
     19388     19386     19400     19389     19391     19392     19389     19393     19394
     19389     19393     19395     19389     19393     19396     19390     19389     19391
     19390     19389     19393     19391     19389     19393     19393     19395     19405
     19393     19396     19397     19393     19396     19398     19394     19393     19395
     19394     19393     19396     19395     19393     19396     19395     19405     19406
     19395     19405     19409     19395     19405     19410     19396     19386     19400
     19396     19398     19399     19397     19396     19398     19400     19403     19404
     19401     19400     19402     19401     19400     19403     19402     19400     19403
     19405     19409     19407     19405     19410     19411     19405     19410     19412
     19405     19410     19420     19406     19405     19409     19406     19405     19410
     19407     19423     19420     19407     19423     19424     19407     19423     19425
     19407     19427     19428     19407     19427     19429     19407     19427     19430
     19408     19407     19409     19408     19407     19423     19408     19407     19427
     19409     19405     19410     19409     19407     19423     19409     19407     19427
     19410     19412     19413     19410     19412     19414     19410     19420     19421
     19410     19420     19422     19410     19420     19423     19411     19410     19412
     19411     19410     19420     19412     19410     19420     19412     19414     19415
     19412     19414     19416     19413     19412     19414     19414     19416     19417
     19414     19416     19418     19414     19416     19419     19415     19414     19416
     19417     19416     19418     19417     19416     19419     19418     19416     19419
     19420     19422     19432     19420     19423     19424     19420     19423     19425
     19421     19420     19422     19421     19420     19423     19422     19420     19423
     19422     19432     19433     19422     19432     19436     19422     19432     19437
     19423     19407     19427     19423     19425     19426     19424     19423     19425
     19427     19430     19431     19428     19427     19429     19428     19427     19430
     19429     19427     19430     19432     19436     19434     19432     19437     19438
     19432     19437     19439     19432     19437     19440     19433     19432     19436
     19433     19432     19437     19434     19444     19440     19434     19444     19445
     19434     19444     19446     19434     19448     19449     19434     19448     19450
     19434     19448     19451     19435     19434     19436     19435     19434     19444
     19435     19434     19448     19436     19432     19437     19436     19434     19444
     19436     19434     19448     19437     19439     19453     19437     19440     19441
     19437     19440     19442     19437     19440     19444     19438     19437     19439
     19438     19437     19440     19439     19437     19440     19439     19453     19454
     19439     19453     19457     19439     19453     19458     19440     19442     19443
     19440     19444     19445     19440     19444     19446     19441     19440     19442
     19441     19440     19444     19442     19440     19444     19444     19434     19448
     19444     19446     19447     19445     19444     19446     19448     19451     19452
     19449     19448     19450     19449     19448     19451     19450     19448     19451
     19453     19457     19455     19453     19458     19459     19453     19458     19460
     19453     19458     19461     19454     19453     19457     19454     19453     19458
     19455     19465     19461     19455     19465     19466     19455     19465     19467
     19455     19469     19470     19455     19469     19471     19455     19469     19472
     19456     19455     19457     19456     19455     19465     19456     19455     19469
     19457     19453     19458     19457     19455     19465     19457     19455     19469
     19458     19460     19473     19458     19461     19462     19458     19461     19463
     19458     19461     19465     19459     19458     19460     19459     19458     19461
     19460     19458     19461     19460     19473     19474     19460     19473     19477
     19460     19473     19478     19461     19463     19464     19461     19465     19466
     19461     19465     19467     19462     19461     19463     19462     19461     19465
     19463     19461     19465     19465     19455     19469     19465     19467     19468
     19466     19465     19467     19470     19469     19471     19470     19469     19472
     19471     19469     19472     19473     19477     19475     19473     19478     19479
     19473     19478     19480     19473     19478     19481     19474     19473     19477
     19474     19473     19478     19475     19484     19481     19475     19484     19485
     19475     19484     19486     19475     19488     19489     19475     19488     19490
     19475     19488     19491     19476     19475     19477     19476     19475     19484
     19476     19475     19488     19477     19473     19478     19477     19475     19484
     19477     19475     19488     19478     19480     19492     19478     19481     19482
     19478     19481     19483     19478     19481     19484     19479     19478     19480
     19479     19478     19481     19480     19478     19481     19480     19492     19493
     19480     19492     19496     19480     19492     19497     19481     19483     19520
     19481     19484     19485     19481     19484     19486     19482     19481     19483
     19482     19481     19484     19483     19481     19484     19483     19520     19521
     19483     19520     19524     19483     19520     19525     19484     19475     19488
     19484     19486     19487     19485     19484     19486     19489     19488     19490
     19489     19488     19491     19490     19488     19491     19492     19496     19494
     19492     19497     19498     19492     19497     19499     19492     19497     19507
     19493     19492     19496     19493     19492     19497     19494     19511     19507
     19494     19511     19512     19494     19511     19513     19494     19515     19516
     19494     19515     19517     19494     19515     19518     19495     19494     19496
     19495     19494     19511     19495     19494     19515     19496     19492     19497
     19496     19494     19511     19496     19494     19515     19497     19499     19500
     19497     19499     19501     19497     19507     19508     19497     19507     19509
     19497     19507     19511     19498     19497     19499     19498     19497     19507
     19499     19497     19507     19499     19501     19502     19499     19501     19503
     19500     19499     19501     19501     19503     19504     19501     19503     19505
     19501     19503     19506     19502     19501     19503     19504     19503     19505
     19504     19503     19506     19505     19503     19506     19507     19509     19510
     19507     19511     19512     19507     19511     19513     19508     19507     19509
     19508     19507     19511     19509     19507     19511     19511     19494     19515
     19511     19513     19514     19512     19511     19513     19515     19518     19519
     19516     19515     19517     19516     19515     19518     19517     19515     19518
     19520     19524     19522     19520     19525     19526     19520     19525     19527
     19520     19525     19535     19521     19520     19524     19521     19520     19525
     19522     19538     19535     19522     19538     19539     19522     19538     19540
     19522     19542     19543     19522     19542     19544     19522     19542     19545
     19523     19522     19524     19523     19522     19538     19523     19522     19542
     19524     19520     19525     19524     19522     19538     19524     19522     19542
     19525     19527     19528     19525     19527     19529     19525     19535     19536
     19525     19535     19537     19525     19535     19538     19526     19525     19527
     19526     19525     19535     19527     19525     19535     19527     19529     19530
     19527     19529     19531     19528     19527     19529     19529     19531     19532
     19529     19531     19533     19529     19531     19534     19530     19529     19531
     19532     19531     19533     19532     19531     19534     19533     19531     19534
     19535     19537     19547     19535     19538     19539     19535     19538     19540
     19536     19535     19537     19536     19535     19538     19537     19535     19538
     19537     19547     19548     19537     19547     19551     19537     19547     19552
     19538     19522     19542     19538     19540     19541     19539     19538     19540
     19542     19545     19546     19543     19542     19544     19543     19542     19545
     19544     19542     19545     19547     19551     19549     19547     19552     19553
     19547     19552     19554     19547     19552     19555     19548     19547     19551
     19548     19547     19552     19549     19559     19555     19549     19559     19560
     19549     19559     19561     19549     19563     19564     19549     19563     19565
     19549     19563     19566     19550     19549     19551     19550     19549     19559
     19550     19549     19563     19551     19547     19552     19551     19549     19559
     19551     19549     19563     19552     19554     19568     19552     19555     19556
     19552     19555     19557     19552     19555     19559     19553     19552     19554
     19553     19552     19555     19554     19552     19555     19554     19568     19569
     19554     19568     19572     19554     19568     19573     19555     19557     19558
     19555     19559     19560     19555     19559     19561     19556     19555     19557
     19556     19555     19559     19557     19555     19559     19559     19549     19563
     19559     19561     19562     19560     19559     19561     19563     19566     19567
     19564     19563     19565     19564     19563     19566     19565     19563     19566
     19568     19572     19570     19568     19573     19574     19568     19573     19575
     19568     19573     19576     19569     19568     19572     19569     19568     19573
     19570     19580     19576     19570     19580     19581     19570     19580     19582
     19570     19584     19585     19570     19584     19586     19570     19584     19587
     19571     19570     19572     19571     19570     19580     19571     19570     19584
     19572     19568     19573     19572     19570     19580     19572     19570     19584
     19573     19575     19588     19573     19576     19577     19573     19576     19578
     19573     19576     19580     19574     19573     19575     19574     19573     19576
     19575     19573     19576     19575     19588     19589     19575     19588     19592
     19575     19588     19593     19576     19578     19579     19576     19580     19581
     19576     19580     19582     19577     19576     19578     19577     19576     19580
     19578     19576     19580     19580     19570     19584     19580     19582     19583
     19581     19580     19582     19585     19584     19586     19585     19584     19587
     19586     19584     19587     19588     19592     19590     19588     19593     19594
     19588     19593     19595     19588     19593     19596     19589     19588     19592
     19589     19588     19593     19590     19599     19596     19590     19599     19600
     19590     19599     19601     19590     19603     19604     19590     19603     19605
     19590     19603     19606     19591     19590     19592     19591     19590     19599
     19591     19590     19603     19592     19588     19593     19592     19590     19599
     19592     19590     19603     19593     19595     19607     19593     19596     19597
     19593     19596     19598     19593     19596     19599     19594     19593     19595
     19594     19593     19596     19595     19593     19596     19595     19607     19608
     19595     19607     19611     19595     19607     19612     19596     19598     19635
     19596     19599     19600     19596     19599     19601     19597     19596     19598
     19597     19596     19599     19598     19596     19599     19598     19635     19636
     19598     19635     19639     19598     19635     19640     19599     19590     19603
     19599     19601     19602     19600     19599     19601     19604     19603     19605
     19604     19603     19606     19605     19603     19606     19607     19611     19609
     19607     19612     19613     19607     19612     19614     19607     19612     19622
     19608     19607     19611     19608     19607     19612     19609     19626     19622
     19609     19626     19627     19609     19626     19628     19609     19630     19631
     19609     19630     19632     19609     19630     19633     19610     19609     19611
     19610     19609     19626     19610     19609     19630     19611     19607     19612
     19611     19609     19626     19611     19609     19630     19612     19614     19615
     19612     19614     19616     19612     19622     19623     19612     19622     19624
     19612     19622     19626     19613     19612     19614     19613     19612     19622
     19614     19612     19622     19614     19616     19617     19614     19616     19618
     19615     19614     19616     19616     19618     19619     19616     19618     19620
     19616     19618     19621     19617     19616     19618     19619     19618     19620
     19619     19618     19621     19620     19618     19621     19622     19624     19625
     19622     19626     19627     19622     19626     19628     19623     19622     19624
     19623     19622     19626     19624     19622     19626     19626     19609     19630
     19626     19628     19629     19627     19626     19628     19630     19633     19634
     19631     19630     19632     19631     19630     19633     19632     19630     19633
     19635     19639     19637     19635     19640     19641     19635     19640     19642
     19635     19640     19650     19636     19635     19639     19636     19635     19640
     19637     19653     19650     19637     19653     19654     19637     19653     19655
     19637     19657     19658     19637     19657     19659     19637     19657     19660
     19638     19637     19639     19638     19637     19653     19638     19637     19657
     19639     19635     19640     19639     19637     19653     19639     19637     19657
     19640     19642     19643     19640     19642     19644     19640     19650     19651
     19640     19650     19652     19640     19650     19653     19641     19640     19642
     19641     19640     19650     19642     19640     19650     19642     19644     19645
     19642     19644     19646     19643     19642     19644     19644     19646     19647
     19644     19646     19648     19644     19646     19649     19645     19644     19646
     19647     19646     19648     19647     19646     19649     19648     19646     19649
     19650     19652     19662     19650     19653     19654     19650     19653     19655
     19651     19650     19652     19651     19650     19653     19652     19650     19653
     19652     19662     19663     19652     19662     19666     19652     19662     19667
     19653     19637     19657     19653     19655     19656     19654     19653     19655
     19657     19660     19661     19658     19657     19659     19658     19657     19660
     19659     19657     19660     19662     19666     19664     19662     19667     19668
     19662     19667     19669     19662     19667     19670     19663     19662     19666
     19663     19662     19667     19664     19674     19670     19664     19674     19675
     19664     19674     19676     19664     19678     19679     19664     19678     19680
     19664     19678     19681     19665     19664     19666     19665     19664     19674
     19665     19664     19678     19666     19662     19667     19666     19664     19674
     19666     19664     19678     19667     19669     19683     19667     19670     19671
     19667     19670     19672     19667     19670     19674     19668     19667     19669
     19668     19667     19670     19669     19667     19670     19669     19683     19684
     19669     19683     19687     19669     19683     19688     19670     19672     19673
     19670     19674     19675     19670     19674     19676     19671     19670     19672
     19671     19670     19674     19672     19670     19674     19674     19664     19678
     19674     19676     19677     19675     19674     19676     19678     19681     19682
     19679     19678     19680     19679     19678     19681     19680     19678     19681
     19683     19687     19685     19683     19688     19689     19683     19688     19690
     19683     19688     19691     19684     19683     19687     19684     19683     19688
     19685     19695     19691     19685     19695     19696     19685     19695     19697
     19685     19699     19700     19685     19699     19701     19685     19699     19702
     19686     19685     19687     19686     19685     19695     19686     19685     19699
     19687     19683     19688     19687     19685     19695     19687     19685     19699
     19688     19690     19703     19688     19691     19692     19688     19691     19693
     19688     19691     19695     19689     19688     19690     19689     19688     19691
     19690     19688     19691     19690     19703     19704     19690     19703     19707
     19690     19703     19708     19691     19693     19694     19691     19695     19696
     19691     19695     19697     19692     19691     19693     19692     19691     19695
     19693     19691     19695     19695     19685     19699     19695     19697     19698
     19696     19695     19697     19700     19699     19701     19700     19699     19702
     19701     19699     19702     19703     19707     19705     19703     19708     19709
     19703     19708     19710     19703     19708     19711     19704     19703     19707
     19704     19703     19708     19705     19714     19711     19705     19714     19715
     19705     19714     19716     19705     19718     19719     19705     19718     19720
     19705     19718     19721     19706     19705     19707     19706     19705     19714
     19706     19705     19718     19707     19703     19708     19707     19705     19714
     19707     19705     19718     19708     19710     19722     19708     19711     19712
     19708     19711     19713     19708     19711     19714     19709     19708     19710
     19709     19708     19711     19710     19708     19711     19710     19722     19723
     19710     19722     19726     19710     19722     19727     19711     19713     19750
     19711     19714     19715     19711     19714     19716     19712     19711     19713
     19712     19711     19714     19713     19711     19714     19713     19750     19751
     19713     19750     19754     19713     19750     19755     19714     19705     19718
     19714     19716     19717     19715     19714     19716     19719     19718     19720
     19719     19718     19721     19720     19718     19721     19722     19726     19724
     19722     19727     19728     19722     19727     19729     19722     19727     19737
     19723     19722     19726     19723     19722     19727     19724     19741     19737
     19724     19741     19742     19724     19741     19743     19724     19745     19746
     19724     19745     19747     19724     19745     19748     19725     19724     19726
     19725     19724     19741     19725     19724     19745     19726     19722     19727
     19726     19724     19741     19726     19724     19745     19727     19729     19730
     19727     19729     19731     19727     19737     19738     19727     19737     19739
     19727     19737     19741     19728     19727     19729     19728     19727     19737
     19729     19727     19737     19729     19731     19732     19729     19731     19733
     19730     19729     19731     19731     19733     19734     19731     19733     19735
     19731     19733     19736     19732     19731     19733     19734     19733     19735
     19734     19733     19736     19735     19733     19736     19737     19739     19740
     19737     19741     19742     19737     19741     19743     19738     19737     19739
     19738     19737     19741     19739     19737     19741     19741     19724     19745
     19741     19743     19744     19742     19741     19743     19745     19748     19749
     19746     19745     19747     19746     19745     19748     19747     19745     19748
     19750     19754     19752     19750     19755     19756     19750     19755     19757
     19750     19755     19765     19751     19750     19754     19751     19750     19755
     19752     19768     19765     19752     19768     19769     19752     19768     19770
     19752     19772     19773     19752     19772     19774     19752     19772     19775
     19753     19752     19754     19753     19752     19768     19753     19752     19772
     19754     19750     19755     19754     19752     19768     19754     19752     19772
     19755     19757     19758     19755     19757     19759     19755     19765     19766
     19755     19765     19767     19755     19765     19768     19756     19755     19757
     19756     19755     19765     19757     19755     19765     19757     19759     19760
     19757     19759     19761     19758     19757     19759     19759     19761     19762
     19759     19761     19763     19759     19761     19764     19760     19759     19761
     19762     19761     19763     19762     19761     19764     19763     19761     19764
     19765     19767     19777     19765     19768     19769     19765     19768     19770
     19766     19765     19767     19766     19765     19768     19767     19765     19768
     19767     19777     19778     19767     19777     19781     19767     19777     19782
     19768     19752     19772     19768     19770     19771     19769     19768     19770
     19772     19775     19776     19773     19772     19774     19773     19772     19775
     19774     19772     19775     19777     19781     19779     19777     19782     19783
     19777     19782     19784     19777     19782     19785     19778     19777     19781
     19778     19777     19782     19779     19789     19785     19779     19789     19790
     19779     19789     19791     19779     19793     19794     19779     19793     19795
     19779     19793     19796     19780     19779     19781     19780     19779     19789
     19780     19779     19793     19781     19777     19782     19781     19779     19789
     19781     19779     19793     19782     19784     19798     19782     19785     19786
     19782     19785     19787     19782     19785     19789     19783     19782     19784
     19783     19782     19785     19784     19782     19785     19784     19798     19799
     19784     19798     19802     19784     19798     19803     19785     19787     19788
     19785     19789     19790     19785     19789     19791     19786     19785     19787
     19786     19785     19789     19787     19785     19789     19789     19779     19793
     19789     19791     19792     19790     19789     19791     19793     19796     19797
     19794     19793     19795     19794     19793     19796     19795     19793     19796
     19798     19802     19800     19798     19803     19804     19798     19803     19805
     19798     19803     19806     19799     19798     19802     19799     19798     19803
     19800     19810     19806     19800     19810     19811     19800     19810     19812
     19800     19814     19815     19800     19814     19816     19800     19814     19817
     19801     19800     19802     19801     19800     19810     19801     19800     19814
     19802     19798     19803     19802     19800     19810     19802     19800     19814
     19803     19805     19818     19803     19806     19807     19803     19806     19808
     19803     19806     19810     19804     19803     19805     19804     19803     19806
     19805     19803     19806     19805     19818     19819     19805     19818     19822
     19805     19818     19823     19806     19808     19809     19806     19810     19811
     19806     19810     19812     19807     19806     19808     19807     19806     19810
     19808     19806     19810     19810     19800     19814     19810     19812     19813
     19811     19810     19812     19815     19814     19816     19815     19814     19817
     19816     19814     19817     19818     19822     19820     19818     19823     19824
     19818     19823     19825     19818     19823     19826     19819     19818     19822
     19819     19818     19823     19820     19829     19826     19820     19829     19830
     19820     19829     19831     19820     19833     19834     19820     19833     19835
     19820     19833     19836     19821     19820     19822     19821     19820     19829
     19821     19820     19833     19822     19818     19823     19822     19820     19829
     19822     19820     19833     19823     19825     19837     19823     19826     19827
     19823     19826     19828     19823     19826     19829     19824     19823     19825
     19824     19823     19826     19825     19823     19826     19825     19837     19838
     19825     19837     19841     19825     19837     19842     19826     19828     19865
     19826     19829     19830     19826     19829     19831     19827     19826     19828
     19827     19826     19829     19828     19826     19829     19828     19865     19866
     19828     19865     19869     19828     19865     19870     19829     19820     19833
     19829     19831     19832     19830     19829     19831     19834     19833     19835
     19834     19833     19836     19835     19833     19836     19837     19841     19839
     19837     19842     19843     19837     19842     19844     19837     19842     19852
     19838     19837     19841     19838     19837     19842     19839     19856     19852
     19839     19856     19857     19839     19856     19858     19839     19860     19861
     19839     19860     19862     19839     19860     19863     19840     19839     19841
     19840     19839     19856     19840     19839     19860     19841     19837     19842
     19841     19839     19856     19841     19839     19860     19842     19844     19845
     19842     19844     19846     19842     19852     19853     19842     19852     19854
     19842     19852     19856     19843     19842     19844     19843     19842     19852
     19844     19842     19852     19844     19846     19847     19844     19846     19848
     19845     19844     19846     19846     19848     19849     19846     19848     19850
     19846     19848     19851     19847     19846     19848     19849     19848     19850
     19849     19848     19851     19850     19848     19851     19852     19854     19855
     19852     19856     19857     19852     19856     19858     19853     19852     19854
     19853     19852     19856     19854     19852     19856     19856     19839     19860
     19856     19858     19859     19857     19856     19858     19860     19863     19864
     19861     19860     19862     19861     19860     19863     19862     19860     19863
     19865     19869     19867     19865     19870     19871     19865     19870     19872
     19865     19870     19880     19866     19865     19869     19866     19865     19870
     19867     19883     19880     19867     19883     19884     19867     19883     19885
     19867     19887     19888     19867     19887     19889     19867     19887     19890
     19868     19867     19869     19868     19867     19883     19868     19867     19887
     19869     19865     19870     19869     19867     19883     19869     19867     19887
     19870     19872     19873     19870     19872     19874     19870     19880     19881
     19870     19880     19882     19870     19880     19883     19871     19870     19872
     19871     19870     19880     19872     19870     19880     19872     19874     19875
     19872     19874     19876     19873     19872     19874     19874     19876     19877
     19874     19876     19878     19874     19876     19879     19875     19874     19876
     19877     19876     19878     19877     19876     19879     19878     19876     19879
     19880     19882     19892     19880     19883     19884     19880     19883     19885
     19881     19880     19882     19881     19880     19883     19882     19880     19883
     19882     19892     19893     19882     19892     19896     19882     19892     19897
     19883     19867     19887     19883     19885     19886     19884     19883     19885
     19887     19890     19891     19888     19887     19889     19888     19887     19890
     19889     19887     19890     19892     19896     19894     19892     19897     19898
     19892     19897     19899     19892     19897     19900     19893     19892     19896
     19893     19892     19897     19894     19904     19900     19894     19904     19905
     19894     19904     19906     19894     19908     19909     19894     19908     19910
     19894     19908     19911     19895     19894     19896     19895     19894     19904
     19895     19894     19908     19896     19892     19897     19896     19894     19904
     19896     19894     19908     19897     19899     19913     19897     19900     19901
     19897     19900     19902     19897     19900     19904     19898     19897     19899
     19898     19897     19900     19899     19897     19900     19899     19913     19914
     19899     19913     19917     19899     19913     19918     19900     19902     19903
     19900     19904     19905     19900     19904     19906     19901     19900     19902
     19901     19900     19904     19902     19900     19904     19904     19894     19908
     19904     19906     19907     19905     19904     19906     19908     19911     19912
     19909     19908     19910     19909     19908     19911     19910     19908     19911
     19913     19917     19915     19913     19918     19919     19913     19918     19920
     19913     19918     19921     19914     19913     19917     19914     19913     19918
     19915     19925     19921     19915     19925     19926     19915     19925     19927
     19915     19929     19930     19915     19929     19931     19915     19929     19932
     19916     19915     19917     19916     19915     19925     19916     19915     19929
     19917     19913     19918     19917     19915     19925     19917     19915     19929
     19918     19920     19933     19918     19921     19922     19918     19921     19923
     19918     19921     19925     19919     19918     19920     19919     19918     19921
     19920     19918     19921     19920     19933     19934     19920     19933     19937
     19920     19933     19938     19921     19923     19924     19921     19925     19926
     19921     19925     19927     19922     19921     19923     19922     19921     19925
     19923     19921     19925     19925     19915     19929     19925     19927     19928
     19926     19925     19927     19930     19929     19931     19930     19929     19932
     19931     19929     19932     19933     19937     19935     19933     19938     19939
     19933     19938     19940     19933     19938     19941     19934     19933     19937
     19934     19933     19938     19935     19945     19941     19935     19945     19946
     19935     19945     19947     19935     19949     19950     19935     19949     19951
     19935     19949     19952     19936     19935     19937     19936     19935     19945
     19936     19935     19949     19937     19933     19938     19937     19935     19945
     19937     19935     19949     19938     19940     19953     19938     19941     19942
     19938     19941     19943     19938     19941     19945     19939     19938     19940
     19939     19938     19941     19940     19938     19941     19940     19953     19954
     19940     19953     19957     19940     19953     19958     19941     19943     19944
     19941     19945     19946     19941     19945     19947     19942     19941     19943
     19942     19941     19945     19943     19941     19945     19945     19935     19949
     19945     19947     19948     19946     19945     19947     19950     19949     19951
     19950     19949     19952     19951     19949     19952     19953     19957     19955
     19953     19958     19959     19953     19958     19960     19953     19958     19968
     19954     19953     19957     19954     19953     19958     19955     19972     19968
     19955     19972     19973     19955     19972     19974     19955     19976     19977
     19955     19976     19978     19955     19976     19979     19956     19955     19957
     19956     19955     19972     19956     19955     19976     19957     19953     19958
     19957     19955     19972     19957     19955     19976     19958     19960     19961
     19958     19960     19962     19958     19968     19969     19958     19968     19970
     19958     19968     19972     19959     19958     19960     19959     19958     19968
     19960     19958     19968     19960     19962     19963     19960     19962     19964
     19961     19960     19962     19962     19964     19965     19962     19964     19966
     19962     19964     19967     19963     19962     19964     19965     19964     19966
     19965     19964     19967     19966     19964     19967     19968     19970     19971
     19968     19972     19973     19968     19972     19974     19969     19968     19970
     19969     19968     19972     19970     19968     19972     19972     19955     19976
     19972     19974     19975     19973     19972     19974     19976     19979     19980
     19977     19976     19978     19977     19976     19979     19978     19976     19979
     19981     19983     19982     19981     19983     19984     19981     19983     19985
     19982     19983     19984     19982     19983     19985     19982     20280     20277
     19982     20280     20283     19982     20280     20284     19983     19982     20280
     19983     19985     19986     19983     19985     19987     19983     19985     19994
     19984     19983     19985     19985     19986     19988     19985     19994     19995
     19985     19994     19996     19985     19994     20001     19986     19985     19987
     19986     19985     19994     19986     19988     19989     19986     19988     19990
     19986     19988     20009     19987     19985     19994     19988     19990     19991
     19988     20009     20001     19988     20009     20010     19988     20009     20011
     19989     19988     19990     19989     19988     20009     19990     19988     20009
     19990     19991     19992     19990     19991     19993     19990     19991     20017
     19991     20017     20013     19991     20017     20018     19991     20017     20019
     19992     19991     19993     19992     19991     20017     19993     19991     20017
     19994     19996     19997     19994     20001     20002     19994     20001     20003
     19994     20001     20009     19995     19994     19996     19995     19994     20001
     19996     19994     20001     19996     19997     19998     19996     19997     19999
     19996     19997     20000     19998     19997     19999     19998     19997     20000
     19999     19997     20000     20001     20002     20004     20001     20009     20010
     20001     20009     20011     20002     20001     20003     20002     20001     20009
     20002     20004     20005     20002     20004     20006     20003     20001     20009
     20004     20006     20007     20004     20006     20008     20004     20006     20039
     20005     20004     20006     20006     20039     20040     20006     20039     20041
     20006     20039     20084     20007     20006     20008     20007     20006     20039
     20008     20006     20039     20009     20011     20012     20009     20011     20118
     20010     20009     20011     20011     20118     20119     20011     20118     20120
     20012     20011     20118     20013     20015     20016     20013     20017     20018
     20013     20017     20019     20013     20027     20028     20013     20027     20029
     20013     20027     20035     20014     20013     20015     20014     20013     20017
     20014     20013     20027     20015     20013     20017     20015     20013     20027
     20017     20013     20027     20017     20019     20020     20018     20017     20019
     20019     20020     20021     20019     20020     20022     20019     20020     20035
     20020     20022     20026     20020     20035     20027     20020     20035     20036
     20020     20035     20037     20021     20020     20022     20021     20020     20035
     20022     20020     20035     20022     20026     20023     20022     20026     20024
     20022     20026     20025     20023     20026     20024     20023     20026     20025
     20024     20026     20025     20027     20029     20030     20027     20035     20036
     20027     20035     20037     20028     20027     20029     20028     20027     20035
     20029     20027     20035     20029     20030     20031     20029     20030     20032
     20030     20032     20033     20030     20032     20034     20030     20032     20196
     20031     20030     20032     20032     20196     20197     20032     20196     20198
     20032     20196     20200     20033     20032     20034     20033     20032     20196
     20034     20032     20196     20035     20037     20038     20035     20037     20234
     20036     20035     20037     20037     20234     20235     20037     20234     20236
     20038     20037     20234     20039     20041     20042     20039     20084     20085
     20039     20084     20086     20039     20084     20087     20040     20039     20041
     20040     20039     20084     20041     20039     20084     20041     20042     20043
     20041     20042     20044     20042     20044     20045     20042     20044     20046
     20042     20044     20047     20043     20042     20044     20044     20047     20048
     20044     20047     20049     20044     20047     20050     20045     20044     20046
     20045     20044     20047     20046     20044     20047     20047     20050     20051
     20047     20050     20052     20047     20050     20053     20048     20047     20049
     20048     20047     20050     20049     20047     20050     20050     20053     20054
     20050     20053     20055     20050     20053     20056     20051     20050     20052
     20051     20050     20053     20052     20050     20053     20053     20056     20057
     20053     20056     20058     20053     20056     20059     20054     20053     20055
     20054     20053     20056     20055     20053     20056     20056     20059     20060
     20056     20059     20061     20056     20059     20062     20057     20056     20058
     20057     20056     20059     20058     20056     20059     20059     20062     20063
     20059     20062     20064     20059     20062     20065     20060     20059     20061
     20060     20059     20062     20061     20059     20062     20062     20065     20066
     20062     20065     20067     20062     20065     20068     20063     20062     20064
     20063     20062     20065     20064     20062     20065     20065     20068     20069
     20065     20068     20070     20065     20068     20071     20066     20065     20067
     20066     20065     20068     20067     20065     20068     20068     20071     20072
     20068     20071     20073     20068     20071     20074     20069     20068     20070
     20069     20068     20071     20070     20068     20071     20071     20074     20075
     20071     20074     20076     20071     20074     20077     20072     20071     20073
     20072     20071     20074     20073     20071     20074     20074     20077     20078
     20074     20077     20079     20074     20077     20080     20075     20074     20076
     20075     20074     20077     20076     20074     20077     20077     20080     20081
     20077     20080     20082     20077     20080     20083     20078     20077     20079
     20078     20077     20080     20079     20077     20080     20081     20080     20082
     20081     20080     20083     20082     20080     20083     20084     20087     20088
     20084     20087     20089     20084     20087     20090     20085     20084     20086
     20085     20084     20087     20086     20084     20087     20087     20090     20091
     20087     20090     20092     20087     20090     20093     20088     20087     20089
     20088     20087     20090     20089     20087     20090     20090     20093     20094
     20090     20093     20095     20090     20093     20096     20091     20090     20092
     20091     20090     20093     20092     20090     20093     20093     20096     20097
     20093     20096     20098     20093     20096     20099     20094     20093     20095
     20094     20093     20096     20095     20093     20096     20096     20099     20100
     20096     20099     20101     20096     20099     20102     20097     20096     20098
     20097     20096     20099     20098     20096     20099     20099     20102     20103
     20099     20102     20104     20099     20102     20105     20100     20099     20101
     20100     20099     20102     20101     20099     20102     20102     20105     20106
     20102     20105     20107     20102     20105     20108     20103     20102     20104
     20103     20102     20105     20104     20102     20105     20105     20108     20109
     20105     20108     20110     20105     20108     20111     20106     20105     20107
     20106     20105     20108     20107     20105     20108     20108     20111     20112
     20108     20111     20113     20108     20111     20114     20109     20108     20110
     20109     20108     20111     20110     20108     20111     20111     20114     20115
     20111     20114     20116     20111     20114     20117     20112     20111     20113
     20112     20111     20114     20113     20111     20114     20115     20114     20116
     20115     20114     20117     20116     20114     20117     20118     20120     20121
     20118     20120     20122     20118     20120     20123     20119     20118     20120
     20120     20123     20124     20120     20123     20125     20120     20123     20162
     20121     20120     20122     20121     20120     20123     20122     20120     20123
     20123     20125     20126     20123     20162     20163     20123     20162     20164
     20123     20162     20165     20124     20123     20125     20124     20123     20162
     20125     20123     20162     20125     20126     20127     20125     20126     20128
     20126     20128     20129     20126     20128     20130     20126     20128     20131
     20127     20126     20128     20128     20131     20132     20128     20131     20133
     20128     20131     20134     20129     20128     20130     20129     20128     20131
     20130     20128     20131     20131     20134     20135     20131     20134     20136
     20131     20134     20137     20132     20131     20133     20132     20131     20134
     20133     20131     20134     20134     20137     20138     20134     20137     20139
     20134     20137     20140     20135     20134     20136     20135     20134     20137
     20136     20134     20137     20137     20140     20141     20137     20140     20142
     20137     20140     20143     20138     20137     20139     20138     20137     20140
     20139     20137     20140     20140     20143     20144     20140     20143     20145
     20140     20143     20146     20141     20140     20142     20141     20140     20143
     20142     20140     20143     20143     20146     20147     20143     20146     20148
     20143     20146     20149     20144     20143     20145     20144     20143     20146
     20145     20143     20146     20146     20149     20150     20146     20149     20151
     20146     20149     20152     20147     20146     20148     20147     20146     20149
     20148     20146     20149     20149     20152     20153     20149     20152     20154
     20149     20152     20155     20150     20149     20151     20150     20149     20152
     20151     20149     20152     20152     20155     20156     20152     20155     20157
     20152     20155     20158     20153     20152     20154     20153     20152     20155
     20154     20152     20155     20155     20158     20159     20155     20158     20160
     20155     20158     20161     20156     20155     20157     20156     20155     20158
     20157     20155     20158     20159     20158     20160     20159     20158     20161
     20160     20158     20161     20162     20165     20166     20162     20165     20167
     20162     20165     20168     20163     20162     20164     20163     20162     20165
     20164     20162     20165     20165     20168     20169     20165     20168     20170
     20165     20168     20171     20166     20165     20167     20166     20165     20168
     20167     20165     20168     20168     20171     20172     20168     20171     20173
     20168     20171     20174     20169     20168     20170     20169     20168     20171
     20170     20168     20171     20171     20174     20175     20171     20174     20176
     20171     20174     20177     20172     20171     20173     20172     20171     20174
     20173     20171     20174     20174     20177     20178     20174     20177     20179
     20174     20177     20180     20175     20174     20176     20175     20174     20177
     20176     20174     20177     20177     20180     20181     20177     20180     20182
     20177     20180     20183     20178     20177     20179     20178     20177     20180
     20179     20177     20180     20180     20183     20184     20180     20183     20185
     20180     20183     20186     20181     20180     20182     20181     20180     20183
     20182     20180     20183     20183     20186     20187     20183     20186     20188
     20183     20186     20189     20184     20183     20185     20184     20183     20186
     20185     20183     20186     20186     20189     20190     20186     20189     20191
     20186     20189     20192     20187     20186     20188     20187     20186     20189
     20188     20186     20189     20189     20192     20193     20189     20192     20194
     20189     20192     20195     20190     20189     20191     20190     20189     20192
     20191     20189     20192     20193     20192     20194     20193     20192     20195
     20194     20192     20195     20196     20198     20199     20196     20200     20201
     20196     20200     20202     20196     20200     20203     20197     20196     20198
     20197     20196     20200     20198     20196     20200     20200     20203     20204
     20200     20203     20205     20200     20203     20206     20201     20200     20202
     20201     20200     20203     20202     20200     20203     20203     20206     20207
     20203     20206     20208     20203     20206     20209     20204     20203     20205
     20204     20203     20206     20205     20203     20206     20206     20209     20210
     20206     20209     20211     20206     20209     20212     20207     20206     20208
     20207     20206     20209     20208     20206     20209     20209     20212     20213
     20209     20212     20214     20209     20212     20215     20210     20209     20211
     20210     20209     20212     20211     20209     20212     20212     20215     20216
     20212     20215     20217     20212     20215     20218     20213     20212     20214
     20213     20212     20215     20214     20212     20215     20215     20218     20219
     20215     20218     20220     20215     20218     20221     20216     20215     20217
     20216     20215     20218     20217     20215     20218     20218     20221     20222
     20218     20221     20223     20218     20221     20224     20219     20218     20220
     20219     20218     20221     20220     20218     20221     20221     20224     20225
     20221     20224     20226     20221     20224     20227     20222     20221     20223
     20222     20221     20224     20223     20221     20224     20224     20227     20228
     20224     20227     20229     20224     20227     20230     20225     20224     20226
     20225     20224     20227     20226     20224     20227     20227     20230     20231
     20227     20230     20232     20227     20230     20233     20228     20227     20229
     20228     20227     20230     20229     20227     20230     20231     20230     20232
     20231     20230     20233     20232     20230     20233     20234     20236     20237
     20234     20236     20238     20234     20236     20239     20235     20234     20236
     20236     20239     20240     20236     20239     20241     20236     20239     20243
     20237     20236     20238     20237     20236     20239     20238     20236     20239
     20239     20241     20242     20239     20243     20244     20239     20243     20245
     20239     20243     20246     20240     20239     20241     20240     20239     20243
     20241     20239     20243     20243     20246     20247     20243     20246     20248
     20243     20246     20249     20244     20243     20245     20244     20243     20246
     20245     20243     20246     20246     20249     20250     20246     20249     20251
     20246     20249     20252     20247     20246     20248     20247     20246     20249
     20248     20246     20249     20249     20252     20253     20249     20252     20254
     20249     20252     20255     20250     20249     20251     20250     20249     20252
     20251     20249     20252     20252     20255     20256     20252     20255     20257
     20252     20255     20258     20253     20252     20254     20253     20252     20255
     20254     20252     20255     20255     20258     20259     20255     20258     20260
     20255     20258     20261     20256     20255     20257     20256     20255     20258
     20257     20255     20258     20258     20261     20262     20258     20261     20263
     20258     20261     20264     20259     20258     20260     20259     20258     20261
     20260     20258     20261     20261     20264     20265     20261     20264     20266
     20261     20264     20267     20262     20261     20263     20262     20261     20264
     20263     20261     20264     20264     20267     20268     20264     20267     20269
     20264     20267     20270     20265     20264     20266     20265     20264     20267
     20266     20264     20267     20267     20270     20271     20267     20270     20272
     20267     20270     20273     20268     20267     20269     20268     20267     20270
     20269     20267     20270     20270     20273     20274     20270     20273     20275
     20270     20273     20276     20271     20270     20272     20271     20270     20273
     20272     20270     20273     20274     20273     20275     20274     20273     20276
     20275     20273     20276     20277     20280     20283     20277     20280     20284
     20278     20277     20279     20278     20277     20280     20279     20277     20280
     20280     20283     20281     20280     20284     20285     20280     20284     20286
     20280     20284     20287     20281     20290     20287     20281     20290     20291
     20281     20290     20292     20281     20293     20294     20281     20293     20295
     20281     20293     20297     20282     20281     20283     20282     20281     20290
     20282     20281     20293     20283     20280     20284     20283     20281     20290
     20283     20281     20293     20284     20287     20288     20284     20287     20289
     20284     20287     20290     20285     20284     20286     20285     20284     20287
     20286     20284     20287     20287     20289     20305     20287     20290     20291
     20287     20290     20292     20288     20287     20289     20288     20287     20290
     20289     20287     20290     20289     20305     20302     20289     20305     20308
     20289     20305     20309     20290     20281     20293     20290     20292     20329
     20291     20290     20292     20292     20329     20330     20292     20329     20333
     20292     20329     20334     20293     20295     20296     20293     20297     20298
     20293     20297     20299     20293     20297     20300     20294     20293     20295
     20294     20293     20297     20295     20293     20297     20297     20300     20301
     20298     20297     20299     20298     20297     20300     20299     20297     20300
     20302     20305     20308     20302     20305     20309     20303     20302     20304
     20303     20302     20305     20304     20302     20305     20305     20308     20306
     20305     20309     20310     20305     20309     20311     20305     20309     20312
     20306     20316     20312     20306     20316     20317     20306     20316     20318
     20306     20320     20321     20306     20320     20322     20306     20320     20324
     20307     20306     20308     20307     20306     20316     20307     20306     20320
     20308     20305     20309     20308     20306     20316     20308     20306     20320
     20309     20312     20313     20309     20312     20314     20309     20312     20316
     20310     20309     20311     20310     20309     20312     20311     20309     20312
     20312     20314     20315     20312     20316     20317     20312     20316     20318
     20313     20312     20314     20313     20312     20316     20314     20312     20316
     20316     20306     20320     20316     20318     20319     20317     20316     20318
     20320     20322     20323     20320     20324     20325     20320     20324     20326
     20320     20324     20327     20321     20320     20322     20321     20320     20324
     20322     20320     20324     20324     20327     20328     20325     20324     20326
     20325     20324     20327     20326     20324     20327     20329     20333     20331
     20329     20334     20335     20329     20334     20336     20329     20334     20338
     20330     20329     20333     20330     20329     20334     20331     20341     20338
     20331     20341     20342     20331     20341     20343     20331     20348     20349
     20331     20348     20350     20331     20348     20352     20332     20331     20333
     20332     20331     20341     20332     20331     20348     20333     20329     20334
     20333     20331     20341     20333     20331     20348     20334     20336     20337
     20334     20338     20339     20334     20338     20340     20334     20338     20341
     20335     20334     20336     20335     20334     20338     20336     20334     20338
     20338     20340     20357     20338     20341     20342     20338     20341     20343
     20339     20338     20340     20339     20338     20341     20340     20338     20341
     20340     20357     20358     20340     20357     20361     20340     20357     20362
     20341     20331     20348     20341     20343     20344     20342     20341     20343
     20343     20344     20345     20343     20344     20346     20343     20344     20347
     20345     20344     20346     20345     20344     20347     20346     20344     20347
     20348     20350     20351     20348     20352     20353     20348     20352     20354
     20348     20352     20355     20349     20348     20350     20349     20348     20352
     20350     20348     20352     20352     20355     20356     20353     20352     20354
     20353     20352     20355     20354     20352     20355     20357     20361     20359
     20357     20362     20363     20357     20362     20364     20357     20362     20366
     20358     20357     20361     20358     20357     20362     20359     20369     20366
     20359     20369     20370     20359     20369     20371     20359     20376     20377
     20359     20376     20378     20359     20376     20380     20360     20359     20361
     20360     20359     20369     20360     20359     20376     20361     20357     20362
     20361     20359     20369     20361     20359     20376     20362     20364     20365
     20362     20366     20367     20362     20366     20368     20362     20366     20369
     20363     20362     20364     20363     20362     20366     20364     20362     20366
     20366     20368     20410     20366     20369     20370     20366     20369     20371
     20367     20366     20368     20367     20366     20369     20368     20366     20369
     20368     20410     20411     20368     20410     20414     20368     20410     20415
     20369     20359     20376     20369     20371     20372     20370     20369     20371
     20371     20372     20373     20371     20372     20374     20371     20372     20375
     20373     20372     20374     20373     20372     20375     20374     20372     20375
     20376     20378     20379     20376     20380     20381     20376     20380     20382
     20376     20380     20383     20377     20376     20378     20377     20376     20380
     20378     20376     20380     20380     20383     20384     20381     20380     20382
     20381     20380     20383     20382     20380     20383     20383     20384     20385
     20383     20384     20388     20383     20384     20389     20384     20388     20386
     20384     20389     20390     20384     20389     20391     20384     20389     20393
     20385     20384     20388     20385     20384     20389     20386     20397     20393
     20386     20397     20398     20386     20397     20399     20386     20401     20402
     20386     20401     20403     20386     20401     20405     20387     20386     20388
     20387     20386     20397     20387     20386     20401     20388     20384     20389
     20388     20386     20397     20388     20386     20401     20389     20391     20392
     20389     20393     20394     20389     20393     20395     20389     20393     20397
     20390     20389     20391     20390     20389     20393     20391     20389     20393
     20393     20395     20396     20393     20397     20398     20393     20397     20399
     20394     20393     20395     20394     20393     20397     20395     20393     20397
     20397     20386     20401     20397     20399     20400     20398     20397     20399
     20401     20403     20404     20401     20405     20406     20401     20405     20407
     20401     20405     20408     20402     20401     20403     20402     20401     20405
     20403     20401     20405     20405     20408     20409     20406     20405     20407
     20406     20405     20408     20407     20405     20408     20410     20414     20412
     20410     20415     20416     20410     20415     20417     20410     20415     20419
     20411     20410     20414     20411     20410     20415     20412     20422     20419
     20412     20422     20423     20412     20422     20424     20412     20426     20427
     20412     20426     20428     20412     20426     20429     20413     20412     20414
     20413     20412     20422     20413     20412     20426     20414     20410     20415
     20414     20412     20422     20414     20412     20426     20415     20417     20418
     20415     20419     20420     20415     20419     20421     20415     20419     20422
     20416     20415     20417     20416     20415     20419     20417     20415     20419
     20419     20421     20431     20419     20422     20423     20419     20422     20424
     20420     20419     20421     20420     20419     20422     20421     20419     20422
     20421     20431     20432     20421     20431     20435     20421     20431     20436
     20422     20412     20426     20422     20424     20425     20423     20422     20424
     20426     20429     20430     20427     20426     20428     20427     20426     20429
     20428     20426     20429     20431     20435     20433     20431     20436     20437
     20431     20436     20438     20431     20436     20439     20432     20431     20435
     20432     20431     20436     20433     20442     20439     20433     20442     20443
     20433     20442     20444     20433     20446     20447     20433     20446     20448
     20433     20446     20449     20434     20433     20435     20434     20433     20442
     20434     20433     20446     20435     20431     20436     20435     20433     20442
     20435     20433     20446     20436     20438     20451     20436     20439     20440
     20436     20439     20441     20436     20439     20442     20437     20436     20438
     20437     20436     20439     20438     20436     20439     20438     20451     20452
     20438     20451     20455     20438     20451     20456     20439     20441     20494
     20439     20442     20443     20439     20442     20444     20440     20439     20441
     20440     20439     20442     20441     20439     20442     20441     20494     20495
     20441     20494     20498     20441     20494     20499     20442     20433     20446
     20442     20444     20445     20443     20442     20444     20446     20449     20450
     20447     20446     20448     20447     20446     20449     20448     20446     20449
     20451     20455     20453     20451     20456     20457     20451     20456     20458
     20451     20456     20459     20452     20451     20455     20452     20451     20456
     20453     20463     20459     20453     20463     20464     20453     20463     20465
     20453     20467     20468     20453     20467     20469     20453     20467     20470
     20454     20453     20455     20454     20453     20463     20454     20453     20467
     20455     20451     20456     20455     20453     20463     20455     20453     20467
     20456     20458     20472     20456     20459     20460     20456     20459     20461
     20456     20459     20463     20457     20456     20458     20457     20456     20459
     20458     20456     20459     20458     20472     20473     20458     20472     20476
     20458     20472     20477     20459     20461     20462     20459     20463     20464
     20459     20463     20465     20460     20459     20461     20460     20459     20463
     20461     20459     20463     20463     20453     20467     20463     20465     20466
     20464     20463     20465     20467     20470     20471     20468     20467     20469
     20468     20467     20470     20469     20467     20470     20472     20476     20474
     20472     20477     20478     20472     20477     20479     20472     20477     20481
     20473     20472     20476     20473     20472     20477     20474     20485     20481
     20474     20485     20486     20474     20485     20487     20474     20489     20490
     20474     20489     20491     20474     20489     20492     20475     20474     20476
     20475     20474     20485     20475     20474     20489     20476     20472     20477
     20476     20474     20485     20476     20474     20489     20477     20479     20480
     20477     20481     20482     20477     20481     20483     20477     20481     20485
     20478     20477     20479     20478     20477     20481     20479     20477     20481
     20481     20483     20484     20481     20485     20486     20481     20485     20487
     20482     20481     20483     20482     20481     20485     20483     20481     20485
     20485     20474     20489     20485     20487     20488     20486     20485     20487
     20489     20492     20493     20490     20489     20491     20490     20489     20492
     20491     20489     20492     20494     20498     20496     20494     20499     20500
     20494     20499     20501     20494     20499     20503     20495     20494     20498
     20495     20494     20499     20496     20506     20503     20496     20506     20507
     20496     20506     20508     20496     20510     20511     20496     20510     20512
     20496     20510     20513     20497     20496     20498     20497     20496     20506
     20497     20496     20510     20498     20494     20499     20498     20496     20506
     20498     20496     20510     20499     20501     20502     20499     20503     20504
     20499     20503     20505     20499     20503     20506     20500     20499     20501
     20500     20499     20503     20501     20499     20503     20503     20505     20515
     20503     20506     20507     20503     20506     20508     20504     20503     20505
     20504     20503     20506     20505     20503     20506     20505     20515     20516
     20505     20515     20519     20505     20515     20520     20506     20496     20510
     20506     20508     20509     20507     20506     20508     20510     20513     20514
     20511     20510     20512     20511     20510     20513     20512     20510     20513
     20515     20519     20517     20515     20520     20521     20515     20520     20522
     20515     20520     20530     20516     20515     20519     20516     20515     20520
     20517     20533     20530     20517     20533     20534     20517     20533     20535
     20517     20537     20538     20517     20537     20539     20517     20537     20540
     20518     20517     20519     20518     20517     20533     20518     20517     20537
     20519     20515     20520     20519     20517     20533     20519     20517     20537
     20520     20522     20523     20520     20522     20524     20520     20530     20531
     20520     20530     20532     20520     20530     20533     20521     20520     20522
     20521     20520     20530     20522     20520     20530     20522     20524     20525
     20522     20524     20526     20523     20522     20524     20524     20526     20527
     20524     20526     20528     20524     20526     20529     20525     20524     20526
     20527     20526     20528     20527     20526     20529     20528     20526     20529
     20530     20532     20542     20530     20533     20534     20530     20533     20535
     20531     20530     20532     20531     20530     20533     20532     20530     20533
     20532     20542     20543     20532     20542     20546     20532     20542     20547
     20533     20517     20537     20533     20535     20536     20534     20533     20535
     20537     20540     20541     20538     20537     20539     20538     20537     20540
     20539     20537     20540     20542     20546     20544     20542     20547     20548
     20542     20547     20549     20542     20547     20550     20543     20542     20546
     20543     20542     20547     20544     20554     20550     20544     20554     20555
     20544     20554     20556     20544     20558     20559     20544     20558     20560
     20544     20558     20561     20545     20544     20546     20545     20544     20554
     20545     20544     20558     20546     20542     20547     20546     20544     20554
     20546     20544     20558     20547     20549     20563     20547     20550     20551
     20547     20550     20552     20547     20550     20554     20548     20547     20549
     20548     20547     20550     20549     20547     20550     20549     20563     20564
     20549     20563     20567     20549     20563     20568     20550     20552     20553
     20550     20554     20555     20550     20554     20556     20551     20550     20552
     20551     20550     20554     20552     20550     20554     20554     20544     20558
     20554     20556     20557     20555     20554     20556     20558     20561     20562
     20559     20558     20560     20559     20558     20561     20560     20558     20561
     20563     20567     20565     20563     20568     20569     20563     20568     20570
     20563     20568     20571     20564     20563     20567     20564     20563     20568
     20565     20575     20571     20565     20575     20576     20565     20575     20577
     20565     20579     20580     20565     20579     20581     20565     20579     20582
     20566     20565     20567     20566     20565     20575     20566     20565     20579
     20567     20563     20568     20567     20565     20575     20567     20565     20579
     20568     20570     20583     20568     20571     20572     20568     20571     20573
     20568     20571     20575     20569     20568     20570     20569     20568     20571
     20570     20568     20571     20570     20583     20584     20570     20583     20587
     20570     20583     20588     20571     20573     20574     20571     20575     20576
     20571     20575     20577     20572     20571     20573     20572     20571     20575
     20573     20571     20575     20575     20565     20579     20575     20577     20578
     20576     20575     20577     20580     20579     20581     20580     20579     20582
     20581     20579     20582     20583     20587     20585     20583     20588     20589
     20583     20588     20590     20583     20588     20591     20584     20583     20587
     20584     20583     20588     20585     20594     20591     20585     20594     20595
     20585     20594     20596     20585     20598     20599     20585     20598     20600
     20585     20598     20601     20586     20585     20587     20586     20585     20594
     20586     20585     20598     20587     20583     20588     20587     20585     20594
     20587     20585     20598     20588     20590     20602     20588     20591     20592
     20588     20591     20593     20588     20591     20594     20589     20588     20590
     20589     20588     20591     20590     20588     20591     20590     20602     20603
     20590     20602     20606     20590     20602     20607     20591     20593     20630
     20591     20594     20595     20591     20594     20596     20592     20591     20593
     20592     20591     20594     20593     20591     20594     20593     20630     20631
     20593     20630     20634     20593     20630     20635     20594     20585     20598
     20594     20596     20597     20595     20594     20596     20599     20598     20600
     20599     20598     20601     20600     20598     20601     20602     20606     20604
     20602     20607     20608     20602     20607     20609     20602     20607     20617
     20603     20602     20606     20603     20602     20607     20604     20621     20617
     20604     20621     20622     20604     20621     20623     20604     20625     20626
     20604     20625     20627     20604     20625     20628     20605     20604     20606
     20605     20604     20621     20605     20604     20625     20606     20602     20607
     20606     20604     20621     20606     20604     20625     20607     20609     20610
     20607     20609     20611     20607     20617     20618     20607     20617     20619
     20607     20617     20621     20608     20607     20609     20608     20607     20617
     20609     20607     20617     20609     20611     20612     20609     20611     20613
     20610     20609     20611     20611     20613     20614     20611     20613     20615
     20611     20613     20616     20612     20611     20613     20614     20613     20615
     20614     20613     20616     20615     20613     20616     20617     20619     20620
     20617     20621     20622     20617     20621     20623     20618     20617     20619
     20618     20617     20621     20619     20617     20621     20621     20604     20625
     20621     20623     20624     20622     20621     20623     20625     20628     20629
     20626     20625     20627     20626     20625     20628     20627     20625     20628
     20630     20634     20632     20630     20635     20636     20630     20635     20637
     20630     20635     20645     20631     20630     20634     20631     20630     20635
     20632     20648     20645     20632     20648     20649     20632     20648     20650
     20632     20652     20653     20632     20652     20654     20632     20652     20655
     20633     20632     20634     20633     20632     20648     20633     20632     20652
     20634     20630     20635     20634     20632     20648     20634     20632     20652
     20635     20637     20638     20635     20637     20639     20635     20645     20646
     20635     20645     20647     20635     20645     20648     20636     20635     20637
     20636     20635     20645     20637     20635     20645     20637     20639     20640
     20637     20639     20641     20638     20637     20639     20639     20641     20642
     20639     20641     20643     20639     20641     20644     20640     20639     20641
     20642     20641     20643     20642     20641     20644     20643     20641     20644
     20645     20647     20657     20645     20648     20649     20645     20648     20650
     20646     20645     20647     20646     20645     20648     20647     20645     20648
     20647     20657     20658     20647     20657     20661     20647     20657     20662
     20648     20632     20652     20648     20650     20651     20649     20648     20650
     20652     20655     20656     20653     20652     20654     20653     20652     20655
     20654     20652     20655     20657     20661     20659     20657     20662     20663
     20657     20662     20664     20657     20662     20665     20658     20657     20661
     20658     20657     20662     20659     20669     20665     20659     20669     20670
     20659     20669     20671     20659     20673     20674     20659     20673     20675
     20659     20673     20676     20660     20659     20661     20660     20659     20669
     20660     20659     20673     20661     20657     20662     20661     20659     20669
     20661     20659     20673     20662     20664     20678     20662     20665     20666
     20662     20665     20667     20662     20665     20669     20663     20662     20664
     20663     20662     20665     20664     20662     20665     20664     20678     20679
     20664     20678     20682     20664     20678     20683     20665     20667     20668
     20665     20669     20670     20665     20669     20671     20666     20665     20667
     20666     20665     20669     20667     20665     20669     20669     20659     20673
     20669     20671     20672     20670     20669     20671     20673     20676     20677
     20674     20673     20675     20674     20673     20676     20675     20673     20676
     20678     20682     20680     20678     20683     20684     20678     20683     20685
     20678     20683     20686     20679     20678     20682     20679     20678     20683
     20680     20690     20686     20680     20690     20691     20680     20690     20692
     20680     20694     20695     20680     20694     20696     20680     20694     20697
     20681     20680     20682     20681     20680     20690     20681     20680     20694
     20682     20678     20683     20682     20680     20690     20682     20680     20694
     20683     20685     20698     20683     20686     20687     20683     20686     20688
     20683     20686     20690     20684     20683     20685     20684     20683     20686
     20685     20683     20686     20685     20698     20699     20685     20698     20702
     20685     20698     20703     20686     20688     20689     20686     20690     20691
     20686     20690     20692     20687     20686     20688     20687     20686     20690
     20688     20686     20690     20690     20680     20694     20690     20692     20693
     20691     20690     20692     20695     20694     20696     20695     20694     20697
     20696     20694     20697     20698     20702     20700     20698     20703     20704
     20698     20703     20705     20698     20703     20706     20699     20698     20702
     20699     20698     20703     20700     20709     20706     20700     20709     20710
     20700     20709     20711     20700     20713     20714     20700     20713     20715
     20700     20713     20716     20701     20700     20702     20701     20700     20709
     20701     20700     20713     20702     20698     20703     20702     20700     20709
     20702     20700     20713     20703     20705     20717     20703     20706     20707
     20703     20706     20708     20703     20706     20709     20704     20703     20705
     20704     20703     20706     20705     20703     20706     20705     20717     20718
     20705     20717     20721     20705     20717     20722     20706     20708     20745
     20706     20709     20710     20706     20709     20711     20707     20706     20708
     20707     20706     20709     20708     20706     20709     20708     20745     20746
     20708     20745     20749     20708     20745     20750     20709     20700     20713
     20709     20711     20712     20710     20709     20711     20714     20713     20715
     20714     20713     20716     20715     20713     20716     20717     20721     20719
     20717     20722     20723     20717     20722     20724     20717     20722     20732
     20718     20717     20721     20718     20717     20722     20719     20736     20732
     20719     20736     20737     20719     20736     20738     20719     20740     20741
     20719     20740     20742     20719     20740     20743     20720     20719     20721
     20720     20719     20736     20720     20719     20740     20721     20717     20722
     20721     20719     20736     20721     20719     20740     20722     20724     20725
     20722     20724     20726     20722     20732     20733     20722     20732     20734
     20722     20732     20736     20723     20722     20724     20723     20722     20732
     20724     20722     20732     20724     20726     20727     20724     20726     20728
     20725     20724     20726     20726     20728     20729     20726     20728     20730
     20726     20728     20731     20727     20726     20728     20729     20728     20730
     20729     20728     20731     20730     20728     20731     20732     20734     20735
     20732     20736     20737     20732     20736     20738     20733     20732     20734
     20733     20732     20736     20734     20732     20736     20736     20719     20740
     20736     20738     20739     20737     20736     20738     20740     20743     20744
     20741     20740     20742     20741     20740     20743     20742     20740     20743
     20745     20749     20747     20745     20750     20751     20745     20750     20752
     20745     20750     20760     20746     20745     20749     20746     20745     20750
     20747     20763     20760     20747     20763     20764     20747     20763     20765
     20747     20767     20768     20747     20767     20769     20747     20767     20770
     20748     20747     20749     20748     20747     20763     20748     20747     20767
     20749     20745     20750     20749     20747     20763     20749     20747     20767
     20750     20752     20753     20750     20752     20754     20750     20760     20761
     20750     20760     20762     20750     20760     20763     20751     20750     20752
     20751     20750     20760     20752     20750     20760     20752     20754     20755
     20752     20754     20756     20753     20752     20754     20754     20756     20757
     20754     20756     20758     20754     20756     20759     20755     20754     20756
     20757     20756     20758     20757     20756     20759     20758     20756     20759
     20760     20762     20772     20760     20763     20764     20760     20763     20765
     20761     20760     20762     20761     20760     20763     20762     20760     20763
     20762     20772     20773     20762     20772     20776     20762     20772     20777
     20763     20747     20767     20763     20765     20766     20764     20763     20765
     20767     20770     20771     20768     20767     20769     20768     20767     20770
     20769     20767     20770     20772     20776     20774     20772     20777     20778
     20772     20777     20779     20772     20777     20780     20773     20772     20776
     20773     20772     20777     20774     20784     20780     20774     20784     20785
     20774     20784     20786     20774     20788     20789     20774     20788     20790
     20774     20788     20791     20775     20774     20776     20775     20774     20784
     20775     20774     20788     20776     20772     20777     20776     20774     20784
     20776     20774     20788     20777     20779     20793     20777     20780     20781
     20777     20780     20782     20777     20780     20784     20778     20777     20779
     20778     20777     20780     20779     20777     20780     20779     20793     20794
     20779     20793     20797     20779     20793     20798     20780     20782     20783
     20780     20784     20785     20780     20784     20786     20781     20780     20782
     20781     20780     20784     20782     20780     20784     20784     20774     20788
     20784     20786     20787     20785     20784     20786     20788     20791     20792
     20789     20788     20790     20789     20788     20791     20790     20788     20791
     20793     20797     20795     20793     20798     20799     20793     20798     20800
     20793     20798     20801     20794     20793     20797     20794     20793     20798
     20795     20805     20801     20795     20805     20806     20795     20805     20807
     20795     20809     20810     20795     20809     20811     20795     20809     20812
     20796     20795     20797     20796     20795     20805     20796     20795     20809
     20797     20793     20798     20797     20795     20805     20797     20795     20809
     20798     20800     20813     20798     20801     20802     20798     20801     20803
     20798     20801     20805     20799     20798     20800     20799     20798     20801
     20800     20798     20801     20800     20813     20814     20800     20813     20817
     20800     20813     20818     20801     20803     20804     20801     20805     20806
     20801     20805     20807     20802     20801     20803     20802     20801     20805
     20803     20801     20805     20805     20795     20809     20805     20807     20808
     20806     20805     20807     20810     20809     20811     20810     20809     20812
     20811     20809     20812     20813     20817     20815     20813     20818     20819
     20813     20818     20820     20813     20818     20821     20814     20813     20817
     20814     20813     20818     20815     20824     20821     20815     20824     20825
     20815     20824     20826     20815     20828     20829     20815     20828     20830
     20815     20828     20831     20816     20815     20817     20816     20815     20824
     20816     20815     20828     20817     20813     20818     20817     20815     20824
     20817     20815     20828     20818     20820     20832     20818     20821     20822
     20818     20821     20823     20818     20821     20824     20819     20818     20820
     20819     20818     20821     20820     20818     20821     20820     20832     20833
     20820     20832     20836     20820     20832     20837     20821     20823     20860
     20821     20824     20825     20821     20824     20826     20822     20821     20823
     20822     20821     20824     20823     20821     20824     20823     20860     20861
     20823     20860     20864     20823     20860     20865     20824     20815     20828
     20824     20826     20827     20825     20824     20826     20829     20828     20830
     20829     20828     20831     20830     20828     20831     20832     20836     20834
     20832     20837     20838     20832     20837     20839     20832     20837     20847
     20833     20832     20836     20833     20832     20837     20834     20851     20847
     20834     20851     20852     20834     20851     20853     20834     20855     20856
     20834     20855     20857     20834     20855     20858     20835     20834     20836
     20835     20834     20851     20835     20834     20855     20836     20832     20837
     20836     20834     20851     20836     20834     20855     20837     20839     20840
     20837     20839     20841     20837     20847     20848     20837     20847     20849
     20837     20847     20851     20838     20837     20839     20838     20837     20847
     20839     20837     20847     20839     20841     20842     20839     20841     20843
     20840     20839     20841     20841     20843     20844     20841     20843     20845
     20841     20843     20846     20842     20841     20843     20844     20843     20845
     20844     20843     20846     20845     20843     20846     20847     20849     20850
     20847     20851     20852     20847     20851     20853     20848     20847     20849
     20848     20847     20851     20849     20847     20851     20851     20834     20855
     20851     20853     20854     20852     20851     20853     20855     20858     20859
     20856     20855     20857     20856     20855     20858     20857     20855     20858
     20860     20864     20862     20860     20865     20866     20860     20865     20867
     20860     20865     20875     20861     20860     20864     20861     20860     20865
     20862     20878     20875     20862     20878     20879     20862     20878     20880
     20862     20882     20883     20862     20882     20884     20862     20882     20885
     20863     20862     20864     20863     20862     20878     20863     20862     20882
     20864     20860     20865     20864     20862     20878     20864     20862     20882
     20865     20867     20868     20865     20867     20869     20865     20875     20876
     20865     20875     20877     20865     20875     20878     20866     20865     20867
     20866     20865     20875     20867     20865     20875     20867     20869     20870
     20867     20869     20871     20868     20867     20869     20869     20871     20872
     20869     20871     20873     20869     20871     20874     20870     20869     20871
     20872     20871     20873     20872     20871     20874     20873     20871     20874
     20875     20877     20887     20875     20878     20879     20875     20878     20880
     20876     20875     20877     20876     20875     20878     20877     20875     20878
     20877     20887     20888     20877     20887     20891     20877     20887     20892
     20878     20862     20882     20878     20880     20881     20879     20878     20880
     20882     20885     20886     20883     20882     20884     20883     20882     20885
     20884     20882     20885     20887     20891     20889     20887     20892     20893
     20887     20892     20894     20887     20892     20895     20888     20887     20891
     20888     20887     20892     20889     20899     20895     20889     20899     20900
     20889     20899     20901     20889     20903     20904     20889     20903     20905
     20889     20903     20906     20890     20889     20891     20890     20889     20899
     20890     20889     20903     20891     20887     20892     20891     20889     20899
     20891     20889     20903     20892     20894     20908     20892     20895     20896
     20892     20895     20897     20892     20895     20899     20893     20892     20894
     20893     20892     20895     20894     20892     20895     20894     20908     20909
     20894     20908     20912     20894     20908     20913     20895     20897     20898
     20895     20899     20900     20895     20899     20901     20896     20895     20897
     20896     20895     20899     20897     20895     20899     20899     20889     20903
     20899     20901     20902     20900     20899     20901     20903     20906     20907
     20904     20903     20905     20904     20903     20906     20905     20903     20906
     20908     20912     20910     20908     20913     20914     20908     20913     20915
     20908     20913     20916     20909     20908     20912     20909     20908     20913
     20910     20920     20916     20910     20920     20921     20910     20920     20922
     20910     20924     20925     20910     20924     20926     20910     20924     20927
     20911     20910     20912     20911     20910     20920     20911     20910     20924
     20912     20908     20913     20912     20910     20920     20912     20910     20924
     20913     20915     20928     20913     20916     20917     20913     20916     20918
     20913     20916     20920     20914     20913     20915     20914     20913     20916
     20915     20913     20916     20915     20928     20929     20915     20928     20932
     20915     20928     20933     20916     20918     20919     20916     20920     20921
     20916     20920     20922     20917     20916     20918     20917     20916     20920
     20918     20916     20920     20920     20910     20924     20920     20922     20923
     20921     20920     20922     20925     20924     20926     20925     20924     20927
     20926     20924     20927     20928     20932     20930     20928     20933     20934
     20928     20933     20935     20928     20933     20936     20929     20928     20932
     20929     20928     20933     20930     20939     20936     20930     20939     20940
     20930     20939     20941     20930     20943     20944     20930     20943     20945
     20930     20943     20946     20931     20930     20932     20931     20930     20939
     20931     20930     20943     20932     20928     20933     20932     20930     20939
     20932     20930     20943     20933     20935     20947     20933     20936     20937
     20933     20936     20938     20933     20936     20939     20934     20933     20935
     20934     20933     20936     20935     20933     20936     20935     20947     20948
     20935     20947     20951     20935     20947     20952     20936     20938     20975
     20936     20939     20940     20936     20939     20941     20937     20936     20938
     20937     20936     20939     20938     20936     20939     20938     20975     20976
     20938     20975     20979     20938     20975     20980     20939     20930     20943
     20939     20941     20942     20940     20939     20941     20944     20943     20945
     20944     20943     20946     20945     20943     20946     20947     20951     20949
     20947     20952     20953     20947     20952     20954     20947     20952     20962
     20948     20947     20951     20948     20947     20952     20949     20966     20962
     20949     20966     20967     20949     20966     20968     20949     20970     20971
     20949     20970     20972     20949     20970     20973     20950     20949     20951
     20950     20949     20966     20950     20949     20970     20951     20947     20952
     20951     20949     20966     20951     20949     20970     20952     20954     20955
     20952     20954     20956     20952     20962     20963     20952     20962     20964
     20952     20962     20966     20953     20952     20954     20953     20952     20962
     20954     20952     20962     20954     20956     20957     20954     20956     20958
     20955     20954     20956     20956     20958     20959     20956     20958     20960
     20956     20958     20961     20957     20956     20958     20959     20958     20960
     20959     20958     20961     20960     20958     20961     20962     20964     20965
     20962     20966     20967     20962     20966     20968     20963     20962     20964
     20963     20962     20966     20964     20962     20966     20966     20949     20970
     20966     20968     20969     20967     20966     20968     20970     20973     20974
     20971     20970     20972     20971     20970     20973     20972     20970     20973
     20975     20979     20977     20975     20980     20981     20975     20980     20982
     20975     20980     20990     20976     20975     20979     20976     20975     20980
     20977     20993     20990     20977     20993     20994     20977     20993     20995
     20977     20997     20998     20977     20997     20999     20977     20997     21000
     20978     20977     20979     20978     20977     20993     20978     20977     20997
     20979     20975     20980     20979     20977     20993     20979     20977     20997
     20980     20982     20983     20980     20982     20984     20980     20990     20991
     20980     20990     20992     20980     20990     20993     20981     20980     20982
     20981     20980     20990     20982     20980     20990     20982     20984     20985
     20982     20984     20986     20983     20982     20984     20984     20986     20987
     20984     20986     20988     20984     20986     20989     20985     20984     20986
     20987     20986     20988     20987     20986     20989     20988     20986     20989
     20990     20992     21002     20990     20993     20994     20990     20993     20995
     20991     20990     20992     20991     20990     20993     20992     20990     20993
     20992     21002     21003     20992     21002     21006     20992     21002     21007
     20993     20977     20997     20993     20995     20996     20994     20993     20995
     20997     21000     21001     20998     20997     20999     20998     20997     21000
     20999     20997     21000     21002     21006     21004     21002     21007     21008
     21002     21007     21009     21002     21007     21010     21003     21002     21006
     21003     21002     21007     21004     21014     21010     21004     21014     21015
     21004     21014     21016     21004     21018     21019     21004     21018     21020
     21004     21018     21021     21005     21004     21006     21005     21004     21014
     21005     21004     21018     21006     21002     21007     21006     21004     21014
     21006     21004     21018     21007     21009     21023     21007     21010     21011
     21007     21010     21012     21007     21010     21014     21008     21007     21009
     21008     21007     21010     21009     21007     21010     21009     21023     21024
     21009     21023     21027     21009     21023     21028     21010     21012     21013
     21010     21014     21015     21010     21014     21016     21011     21010     21012
     21011     21010     21014     21012     21010     21014     21014     21004     21018
     21014     21016     21017     21015     21014     21016     21018     21021     21022
     21019     21018     21020     21019     21018     21021     21020     21018     21021
     21023     21027     21025     21023     21028     21029     21023     21028     21030
     21023     21028     21031     21024     21023     21027     21024     21023     21028
     21025     21035     21031     21025     21035     21036     21025     21035     21037
     21025     21039     21040     21025     21039     21041     21025     21039     21042
     21026     21025     21027     21026     21025     21035     21026     21025     21039
     21027     21023     21028     21027     21025     21035     21027     21025     21039
     21028     21030     21043     21028     21031     21032     21028     21031     21033
     21028     21031     21035     21029     21028     21030     21029     21028     21031
     21030     21028     21031     21030     21043     21044     21030     21043     21047
     21030     21043     21048     21031     21033     21034     21031     21035     21036
     21031     21035     21037     21032     21031     21033     21032     21031     21035
     21033     21031     21035     21035     21025     21039     21035     21037     21038
     21036     21035     21037     21040     21039     21041     21040     21039     21042
     21041     21039     21042     21043     21047     21045     21043     21048     21049
     21043     21048     21050     21043     21048     21051     21044     21043     21047
     21044     21043     21048     21045     21055     21051     21045     21055     21056
     21045     21055     21057     21045     21059     21060     21045     21059     21061
     21045     21059     21062     21046     21045     21047     21046     21045     21055
     21046     21045     21059     21047     21043     21048     21047     21045     21055
     21047     21045     21059     21048     21050     21063     21048     21051     21052
     21048     21051     21053     21048     21051     21055     21049     21048     21050
     21049     21048     21051     21050     21048     21051     21050     21063     21064
     21050     21063     21067     21050     21063     21068     21051     21053     21054
     21051     21055     21056     21051     21055     21057     21052     21051     21053
     21052     21051     21055     21053     21051     21055     21055     21045     21059
     21055     21057     21058     21056     21055     21057     21060     21059     21061
     21060     21059     21062     21061     21059     21062     21063     21067     21065
     21063     21068     21069     21063     21068     21070     21063     21068     21078
     21064     21063     21067     21064     21063     21068     21065     21082     21078
     21065     21082     21083     21065     21082     21084     21065     21086     21087
     21065     21086     21088     21065     21086     21089     21066     21065     21067
     21066     21065     21082     21066     21065     21086     21067     21063     21068
     21067     21065     21082     21067     21065     21086     21068     21070     21071
     21068     21070     21072     21068     21078     21079     21068     21078     21080
     21068     21078     21082     21069     21068     21070     21069     21068     21078
     21070     21068     21078     21070     21072     21073     21070     21072     21074
     21071     21070     21072     21072     21074     21075     21072     21074     21076
     21072     21074     21077     21073     21072     21074     21075     21074     21076
     21075     21074     21077     21076     21074     21077     21078     21080     21081
     21078     21082     21083     21078     21082     21084     21079     21078     21080
     21079     21078     21082     21080     21078     21082     21082     21065     21086
     21082     21084     21085     21083     21082     21084     21086     21089     21090
     21087     21086     21088     21087     21086     21089     21088     21086     21089
     21091     21093     21092     21091     21093     21094     21091     21093     21095
     21092     21093     21094     21092     21093     21095     21092     21390     21387
     21092     21390     21393     21092     21390     21394     21093     21092     21390
     21093     21095     21096     21093     21095     21097     21093     21095     21104
     21094     21093     21095     21095     21096     21098     21095     21104     21105
     21095     21104     21106     21095     21104     21111     21096     21095     21097
     21096     21095     21104     21096     21098     21099     21096     21098     21100
     21096     21098     21119     21097     21095     21104     21098     21100     21101
     21098     21119     21111     21098     21119     21120     21098     21119     21121
     21099     21098     21100     21099     21098     21119     21100     21098     21119
     21100     21101     21102     21100     21101     21103     21100     21101     21127
     21101     21127     21123     21101     21127     21128     21101     21127     21129
     21102     21101     21103     21102     21101     21127     21103     21101     21127
     21104     21106     21107     21104     21111     21112     21104     21111     21113
     21104     21111     21119     21105     21104     21106     21105     21104     21111
     21106     21104     21111     21106     21107     21108     21106     21107     21109
     21106     21107     21110     21108     21107     21109     21108     21107     21110
     21109     21107     21110     21111     21112     21114     21111     21119     21120
     21111     21119     21121     21112     21111     21113     21112     21111     21119
     21112     21114     21115     21112     21114     21116     21113     21111     21119
     21114     21116     21117     21114     21116     21118     21114     21116     21149
     21115     21114     21116     21116     21149     21150     21116     21149     21151
     21116     21149     21194     21117     21116     21118     21117     21116     21149
     21118     21116     21149     21119     21121     21122     21119     21121     21228
     21120     21119     21121     21121     21228     21229     21121     21228     21230
     21122     21121     21228     21123     21125     21126     21123     21127     21128
     21123     21127     21129     21123     21137     21138     21123     21137     21139
     21123     21137     21145     21124     21123     21125     21124     21123     21127
     21124     21123     21137     21125     21123     21127     21125     21123     21137
     21127     21123     21137     21127     21129     21130     21128     21127     21129
     21129     21130     21131     21129     21130     21132     21129     21130     21145
     21130     21132     21136     21130     21145     21137     21130     21145     21146
     21130     21145     21147     21131     21130     21132     21131     21130     21145
     21132     21130     21145     21132     21136     21133     21132     21136     21134
     21132     21136     21135     21133     21136     21134     21133     21136     21135
     21134     21136     21135     21137     21139     21140     21137     21145     21146
     21137     21145     21147     21138     21137     21139     21138     21137     21145
     21139     21137     21145     21139     21140     21141     21139     21140     21142
     21140     21142     21143     21140     21142     21144     21140     21142     21306
     21141     21140     21142     21142     21306     21307     21142     21306     21308
     21142     21306     21310     21143     21142     21144     21143     21142     21306
     21144     21142     21306     21145     21147     21148     21145     21147     21344
     21146     21145     21147     21147     21344     21345     21147     21344     21346
     21148     21147     21344     21149     21151     21152     21149     21194     21195
     21149     21194     21196     21149     21194     21197     21150     21149     21151
     21150     21149     21194     21151     21149     21194     21151     21152     21153
     21151     21152     21154     21152     21154     21155     21152     21154     21156
     21152     21154     21157     21153     21152     21154     21154     21157     21158
     21154     21157     21159     21154     21157     21160     21155     21154     21156
     21155     21154     21157     21156     21154     21157     21157     21160     21161
     21157     21160     21162     21157     21160     21163     21158     21157     21159
     21158     21157     21160     21159     21157     21160     21160     21163     21164
     21160     21163     21165     21160     21163     21166     21161     21160     21162
     21161     21160     21163     21162     21160     21163     21163     21166     21167
     21163     21166     21168     21163     21166     21169     21164     21163     21165
     21164     21163     21166     21165     21163     21166     21166     21169     21170
     21166     21169     21171     21166     21169     21172     21167     21166     21168
     21167     21166     21169     21168     21166     21169     21169     21172     21173
     21169     21172     21174     21169     21172     21175     21170     21169     21171
     21170     21169     21172     21171     21169     21172     21172     21175     21176
     21172     21175     21177     21172     21175     21178     21173     21172     21174
     21173     21172     21175     21174     21172     21175     21175     21178     21179
     21175     21178     21180     21175     21178     21181     21176     21175     21177
     21176     21175     21178     21177     21175     21178     21178     21181     21182
     21178     21181     21183     21178     21181     21184     21179     21178     21180
     21179     21178     21181     21180     21178     21181     21181     21184     21185
     21181     21184     21186     21181     21184     21187     21182     21181     21183
     21182     21181     21184     21183     21181     21184     21184     21187     21188
     21184     21187     21189     21184     21187     21190     21185     21184     21186
     21185     21184     21187     21186     21184     21187     21187     21190     21191
     21187     21190     21192     21187     21190     21193     21188     21187     21189
     21188     21187     21190     21189     21187     21190     21191     21190     21192
     21191     21190     21193     21192     21190     21193     21194     21197     21198
     21194     21197     21199     21194     21197     21200     21195     21194     21196
     21195     21194     21197     21196     21194     21197     21197     21200     21201
     21197     21200     21202     21197     21200     21203     21198     21197     21199
     21198     21197     21200     21199     21197     21200     21200     21203     21204
     21200     21203     21205     21200     21203     21206     21201     21200     21202
     21201     21200     21203     21202     21200     21203     21203     21206     21207
     21203     21206     21208     21203     21206     21209     21204     21203     21205
     21204     21203     21206     21205     21203     21206     21206     21209     21210
     21206     21209     21211     21206     21209     21212     21207     21206     21208
     21207     21206     21209     21208     21206     21209     21209     21212     21213
     21209     21212     21214     21209     21212     21215     21210     21209     21211
     21210     21209     21212     21211     21209     21212     21212     21215     21216
     21212     21215     21217     21212     21215     21218     21213     21212     21214
     21213     21212     21215     21214     21212     21215     21215     21218     21219
     21215     21218     21220     21215     21218     21221     21216     21215     21217
     21216     21215     21218     21217     21215     21218     21218     21221     21222
     21218     21221     21223     21218     21221     21224     21219     21218     21220
     21219     21218     21221     21220     21218     21221     21221     21224     21225
     21221     21224     21226     21221     21224     21227     21222     21221     21223
     21222     21221     21224     21223     21221     21224     21225     21224     21226
     21225     21224     21227     21226     21224     21227     21228     21230     21231
     21228     21230     21232     21228     21230     21233     21229     21228     21230
     21230     21233     21234     21230     21233     21235     21230     21233     21272
     21231     21230     21232     21231     21230     21233     21232     21230     21233
     21233     21235     21236     21233     21272     21273     21233     21272     21274
     21233     21272     21275     21234     21233     21235     21234     21233     21272
     21235     21233     21272     21235     21236     21237     21235     21236     21238
     21236     21238     21239     21236     21238     21240     21236     21238     21241
     21237     21236     21238     21238     21241     21242     21238     21241     21243
     21238     21241     21244     21239     21238     21240     21239     21238     21241
     21240     21238     21241     21241     21244     21245     21241     21244     21246
     21241     21244     21247     21242     21241     21243     21242     21241     21244
     21243     21241     21244     21244     21247     21248     21244     21247     21249
     21244     21247     21250     21245     21244     21246     21245     21244     21247
     21246     21244     21247     21247     21250     21251     21247     21250     21252
     21247     21250     21253     21248     21247     21249     21248     21247     21250
     21249     21247     21250     21250     21253     21254     21250     21253     21255
     21250     21253     21256     21251     21250     21252     21251     21250     21253
     21252     21250     21253     21253     21256     21257     21253     21256     21258
     21253     21256     21259     21254     21253     21255     21254     21253     21256
     21255     21253     21256     21256     21259     21260     21256     21259     21261
     21256     21259     21262     21257     21256     21258     21257     21256     21259
     21258     21256     21259     21259     21262     21263     21259     21262     21264
     21259     21262     21265     21260     21259     21261     21260     21259     21262
     21261     21259     21262     21262     21265     21266     21262     21265     21267
     21262     21265     21268     21263     21262     21264     21263     21262     21265
     21264     21262     21265     21265     21268     21269     21265     21268     21270
     21265     21268     21271     21266     21265     21267     21266     21265     21268
     21267     21265     21268     21269     21268     21270     21269     21268     21271
     21270     21268     21271     21272     21275     21276     21272     21275     21277
     21272     21275     21278     21273     21272     21274     21273     21272     21275
     21274     21272     21275     21275     21278     21279     21275     21278     21280
     21275     21278     21281     21276     21275     21277     21276     21275     21278
     21277     21275     21278     21278     21281     21282     21278     21281     21283
     21278     21281     21284     21279     21278     21280     21279     21278     21281
     21280     21278     21281     21281     21284     21285     21281     21284     21286
     21281     21284     21287     21282     21281     21283     21282     21281     21284
     21283     21281     21284     21284     21287     21288     21284     21287     21289
     21284     21287     21290     21285     21284     21286     21285     21284     21287
     21286     21284     21287     21287     21290     21291     21287     21290     21292
     21287     21290     21293     21288     21287     21289     21288     21287     21290
     21289     21287     21290     21290     21293     21294     21290     21293     21295
     21290     21293     21296     21291     21290     21292     21291     21290     21293
     21292     21290     21293     21293     21296     21297     21293     21296     21298
     21293     21296     21299     21294     21293     21295     21294     21293     21296
     21295     21293     21296     21296     21299     21300     21296     21299     21301
     21296     21299     21302     21297     21296     21298     21297     21296     21299
     21298     21296     21299     21299     21302     21303     21299     21302     21304
     21299     21302     21305     21300     21299     21301     21300     21299     21302
     21301     21299     21302     21303     21302     21304     21303     21302     21305
     21304     21302     21305     21306     21308     21309     21306     21310     21311
     21306     21310     21312     21306     21310     21313     21307     21306     21308
     21307     21306     21310     21308     21306     21310     21310     21313     21314
     21310     21313     21315     21310     21313     21316     21311     21310     21312
     21311     21310     21313     21312     21310     21313     21313     21316     21317
     21313     21316     21318     21313     21316     21319     21314     21313     21315
     21314     21313     21316     21315     21313     21316     21316     21319     21320
     21316     21319     21321     21316     21319     21322     21317     21316     21318
     21317     21316     21319     21318     21316     21319     21319     21322     21323
     21319     21322     21324     21319     21322     21325     21320     21319     21321
     21320     21319     21322     21321     21319     21322     21322     21325     21326
     21322     21325     21327     21322     21325     21328     21323     21322     21324
     21323     21322     21325     21324     21322     21325     21325     21328     21329
     21325     21328     21330     21325     21328     21331     21326     21325     21327
     21326     21325     21328     21327     21325     21328     21328     21331     21332
     21328     21331     21333     21328     21331     21334     21329     21328     21330
     21329     21328     21331     21330     21328     21331     21331     21334     21335
     21331     21334     21336     21331     21334     21337     21332     21331     21333
     21332     21331     21334     21333     21331     21334     21334     21337     21338
     21334     21337     21339     21334     21337     21340     21335     21334     21336
     21335     21334     21337     21336     21334     21337     21337     21340     21341
     21337     21340     21342     21337     21340     21343     21338     21337     21339
     21338     21337     21340     21339     21337     21340     21341     21340     21342
     21341     21340     21343     21342     21340     21343     21344     21346     21347
     21344     21346     21348     21344     21346     21349     21345     21344     21346
     21346     21349     21350     21346     21349     21351     21346     21349     21353
     21347     21346     21348     21347     21346     21349     21348     21346     21349
     21349     21351     21352     21349     21353     21354     21349     21353     21355
     21349     21353     21356     21350     21349     21351     21350     21349     21353
     21351     21349     21353     21353     21356     21357     21353     21356     21358
     21353     21356     21359     21354     21353     21355     21354     21353     21356
     21355     21353     21356     21356     21359     21360     21356     21359     21361
     21356     21359     21362     21357     21356     21358     21357     21356     21359
     21358     21356     21359     21359     21362     21363     21359     21362     21364
     21359     21362     21365     21360     21359     21361     21360     21359     21362
     21361     21359     21362     21362     21365     21366     21362     21365     21367
     21362     21365     21368     21363     21362     21364     21363     21362     21365
     21364     21362     21365     21365     21368     21369     21365     21368     21370
     21365     21368     21371     21366     21365     21367     21366     21365     21368
     21367     21365     21368     21368     21371     21372     21368     21371     21373
     21368     21371     21374     21369     21368     21370     21369     21368     21371
     21370     21368     21371     21371     21374     21375     21371     21374     21376
     21371     21374     21377     21372     21371     21373     21372     21371     21374
     21373     21371     21374     21374     21377     21378     21374     21377     21379
     21374     21377     21380     21375     21374     21376     21375     21374     21377
     21376     21374     21377     21377     21380     21381     21377     21380     21382
     21377     21380     21383     21378     21377     21379     21378     21377     21380
     21379     21377     21380     21380     21383     21384     21380     21383     21385
     21380     21383     21386     21381     21380     21382     21381     21380     21383
     21382     21380     21383     21384     21383     21385     21384     21383     21386
     21385     21383     21386     21387     21390     21393     21387     21390     21394
     21388     21387     21389     21388     21387     21390     21389     21387     21390
     21390     21393     21391     21390     21394     21395     21390     21394     21396
     21390     21394     21397     21391     21400     21397     21391     21400     21401
     21391     21400     21402     21391     21403     21404     21391     21403     21405
     21391     21403     21407     21392     21391     21393     21392     21391     21400
     21392     21391     21403     21393     21390     21394     21393     21391     21400
     21393     21391     21403     21394     21397     21398     21394     21397     21399
     21394     21397     21400     21395     21394     21396     21395     21394     21397
     21396     21394     21397     21397     21399     21415     21397     21400     21401
     21397     21400     21402     21398     21397     21399     21398     21397     21400
     21399     21397     21400     21399     21415     21412     21399     21415     21418
     21399     21415     21419     21400     21391     21403     21400     21402     21439
     21401     21400     21402     21402     21439     21440     21402     21439     21443
     21402     21439     21444     21403     21405     21406     21403     21407     21408
     21403     21407     21409     21403     21407     21410     21404     21403     21405
     21404     21403     21407     21405     21403     21407     21407     21410     21411
     21408     21407     21409     21408     21407     21410     21409     21407     21410
     21412     21415     21418     21412     21415     21419     21413     21412     21414
     21413     21412     21415     21414     21412     21415     21415     21418     21416
     21415     21419     21420     21415     21419     21421     21415     21419     21422
     21416     21426     21422     21416     21426     21427     21416     21426     21428
     21416     21430     21431     21416     21430     21432     21416     21430     21434
     21417     21416     21418     21417     21416     21426     21417     21416     21430
     21418     21415     21419     21418     21416     21426     21418     21416     21430
     21419     21422     21423     21419     21422     21424     21419     21422     21426
     21420     21419     21421     21420     21419     21422     21421     21419     21422
     21422     21424     21425     21422     21426     21427     21422     21426     21428
     21423     21422     21424     21423     21422     21426     21424     21422     21426
     21426     21416     21430     21426     21428     21429     21427     21426     21428
     21430     21432     21433     21430     21434     21435     21430     21434     21436
     21430     21434     21437     21431     21430     21432     21431     21430     21434
     21432     21430     21434     21434     21437     21438     21435     21434     21436
     21435     21434     21437     21436     21434     21437     21439     21443     21441
     21439     21444     21445     21439     21444     21446     21439     21444     21448
     21440     21439     21443     21440     21439     21444     21441     21451     21448
     21441     21451     21452     21441     21451     21453     21441     21458     21459
     21441     21458     21460     21441     21458     21462     21442     21441     21443
     21442     21441     21451     21442     21441     21458     21443     21439     21444
     21443     21441     21451     21443     21441     21458     21444     21446     21447
     21444     21448     21449     21444     21448     21450     21444     21448     21451
     21445     21444     21446     21445     21444     21448     21446     21444     21448
     21448     21450     21467     21448     21451     21452     21448     21451     21453
     21449     21448     21450     21449     21448     21451     21450     21448     21451
     21450     21467     21468     21450     21467     21471     21450     21467     21472
     21451     21441     21458     21451     21453     21454     21452     21451     21453
     21453     21454     21455     21453     21454     21456     21453     21454     21457
     21455     21454     21456     21455     21454     21457     21456     21454     21457
     21458     21460     21461     21458     21462     21463     21458     21462     21464
     21458     21462     21465     21459     21458     21460     21459     21458     21462
     21460     21458     21462     21462     21465     21466     21463     21462     21464
     21463     21462     21465     21464     21462     21465     21467     21471     21469
     21467     21472     21473     21467     21472     21474     21467     21472     21476
     21468     21467     21471     21468     21467     21472     21469     21479     21476
     21469     21479     21480     21469     21479     21481     21469     21486     21487
     21469     21486     21488     21469     21486     21490     21470     21469     21471
     21470     21469     21479     21470     21469     21486     21471     21467     21472
     21471     21469     21479     21471     21469     21486     21472     21474     21475
     21472     21476     21477     21472     21476     21478     21472     21476     21479
     21473     21472     21474     21473     21472     21476     21474     21472     21476
     21476     21478     21520     21476     21479     21480     21476     21479     21481
     21477     21476     21478     21477     21476     21479     21478     21476     21479
     21478     21520     21521     21478     21520     21524     21478     21520     21525
     21479     21469     21486     21479     21481     21482     21480     21479     21481
     21481     21482     21483     21481     21482     21484     21481     21482     21485
     21483     21482     21484     21483     21482     21485     21484     21482     21485
     21486     21488     21489     21486     21490     21491     21486     21490     21492
     21486     21490     21493     21487     21486     21488     21487     21486     21490
     21488     21486     21490     21490     21493     21494     21491     21490     21492
     21491     21490     21493     21492     21490     21493     21493     21494     21495
     21493     21494     21498     21493     21494     21499     21494     21498     21496
     21494     21499     21500     21494     21499     21501     21494     21499     21503
     21495     21494     21498     21495     21494     21499     21496     21507     21503
     21496     21507     21508     21496     21507     21509     21496     21511     21512
     21496     21511     21513     21496     21511     21515     21497     21496     21498
     21497     21496     21507     21497     21496     21511     21498     21494     21499
     21498     21496     21507     21498     21496     21511     21499     21501     21502
     21499     21503     21504     21499     21503     21505     21499     21503     21507
     21500     21499     21501     21500     21499     21503     21501     21499     21503
     21503     21505     21506     21503     21507     21508     21503     21507     21509
     21504     21503     21505     21504     21503     21507     21505     21503     21507
     21507     21496     21511     21507     21509     21510     21508     21507     21509
     21511     21513     21514     21511     21515     21516     21511     21515     21517
     21511     21515     21518     21512     21511     21513     21512     21511     21515
     21513     21511     21515     21515     21518     21519     21516     21515     21517
     21516     21515     21518     21517     21515     21518     21520     21524     21522
     21520     21525     21526     21520     21525     21527     21520     21525     21529
     21521     21520     21524     21521     21520     21525     21522     21532     21529
     21522     21532     21533     21522     21532     21534     21522     21536     21537
     21522     21536     21538     21522     21536     21539     21523     21522     21524
     21523     21522     21532     21523     21522     21536     21524     21520     21525
     21524     21522     21532     21524     21522     21536     21525     21527     21528
     21525     21529     21530     21525     21529     21531     21525     21529     21532
     21526     21525     21527     21526     21525     21529     21527     21525     21529
     21529     21531     21541     21529     21532     21533     21529     21532     21534
     21530     21529     21531     21530     21529     21532     21531     21529     21532
     21531     21541     21542     21531     21541     21545     21531     21541     21546
     21532     21522     21536     21532     21534     21535     21533     21532     21534
     21536     21539     21540     21537     21536     21538     21537     21536     21539
     21538     21536     21539     21541     21545     21543     21541     21546     21547
     21541     21546     21548     21541     21546     21549     21542     21541     21545
     21542     21541     21546     21543     21552     21549     21543     21552     21553
     21543     21552     21554     21543     21556     21557     21543     21556     21558
     21543     21556     21559     21544     21543     21545     21544     21543     21552
     21544     21543     21556     21545     21541     21546     21545     21543     21552
     21545     21543     21556     21546     21548     21561     21546     21549     21550
     21546     21549     21551     21546     21549     21552     21547     21546     21548
     21547     21546     21549     21548     21546     21549     21548     21561     21562
     21548     21561     21565     21548     21561     21566     21549     21551     21604
     21549     21552     21553     21549     21552     21554     21550     21549     21551
     21550     21549     21552     21551     21549     21552     21551     21604     21605
     21551     21604     21608     21551     21604     21609     21552     21543     21556
     21552     21554     21555     21553     21552     21554     21556     21559     21560
     21557     21556     21558     21557     21556     21559     21558     21556     21559
     21561     21565     21563     21561     21566     21567     21561     21566     21568
     21561     21566     21569     21562     21561     21565     21562     21561     21566
     21563     21573     21569     21563     21573     21574     21563     21573     21575
     21563     21577     21578     21563     21577     21579     21563     21577     21580
     21564     21563     21565     21564     21563     21573     21564     21563     21577
     21565     21561     21566     21565     21563     21573     21565     21563     21577
     21566     21568     21582     21566     21569     21570     21566     21569     21571
     21566     21569     21573     21567     21566     21568     21567     21566     21569
     21568     21566     21569     21568     21582     21583     21568     21582     21586
     21568     21582     21587     21569     21571     21572     21569     21573     21574
     21569     21573     21575     21570     21569     21571     21570     21569     21573
     21571     21569     21573     21573     21563     21577     21573     21575     21576
     21574     21573     21575     21577     21580     21581     21578     21577     21579
     21578     21577     21580     21579     21577     21580     21582     21586     21584
     21582     21587     21588     21582     21587     21589     21582     21587     21591
     21583     21582     21586     21583     21582     21587     21584     21595     21591
     21584     21595     21596     21584     21595     21597     21584     21599     21600
     21584     21599     21601     21584     21599     21602     21585     21584     21586
     21585     21584     21595     21585     21584     21599     21586     21582     21587
     21586     21584     21595     21586     21584     21599     21587     21589     21590
     21587     21591     21592     21587     21591     21593     21587     21591     21595
     21588     21587     21589     21588     21587     21591     21589     21587     21591
     21591     21593     21594     21591     21595     21596     21591     21595     21597
     21592     21591     21593     21592     21591     21595     21593     21591     21595
     21595     21584     21599     21595     21597     21598     21596     21595     21597
     21599     21602     21603     21600     21599     21601     21600     21599     21602
     21601     21599     21602     21604     21608     21606     21604     21609     21610
     21604     21609     21611     21604     21609     21613     21605     21604     21608
     21605     21604     21609     21606     21616     21613     21606     21616     21617
     21606     21616     21618     21606     21620     21621     21606     21620     21622
     21606     21620     21623     21607     21606     21608     21607     21606     21616
     21607     21606     21620     21608     21604     21609     21608     21606     21616
     21608     21606     21620     21609     21611     21612     21609     21613     21614
     21609     21613     21615     21609     21613     21616     21610     21609     21611
     21610     21609     21613     21611     21609     21613     21613     21615     21625
     21613     21616     21617     21613     21616     21618     21614     21613     21615
     21614     21613     21616     21615     21613     21616     21615     21625     21626
     21615     21625     21629     21615     21625     21630     21616     21606     21620
     21616     21618     21619     21617     21616     21618     21620     21623     21624
     21621     21620     21622     21621     21620     21623     21622     21620     21623
     21625     21629     21627     21625     21630     21631     21625     21630     21632
     21625     21630     21640     21626     21625     21629     21626     21625     21630
     21627     21643     21640     21627     21643     21644     21627     21643     21645
     21627     21647     21648     21627     21647     21649     21627     21647     21650
     21628     21627     21629     21628     21627     21643     21628     21627     21647
     21629     21625     21630     21629     21627     21643     21629     21627     21647
     21630     21632     21633     21630     21632     21634     21630     21640     21641
     21630     21640     21642     21630     21640     21643     21631     21630     21632
     21631     21630     21640     21632     21630     21640     21632     21634     21635
     21632     21634     21636     21633     21632     21634     21634     21636     21637
     21634     21636     21638     21634     21636     21639     21635     21634     21636
     21637     21636     21638     21637     21636     21639     21638     21636     21639
     21640     21642     21652     21640     21643     21644     21640     21643     21645
     21641     21640     21642     21641     21640     21643     21642     21640     21643
     21642     21652     21653     21642     21652     21656     21642     21652     21657
     21643     21627     21647     21643     21645     21646     21644     21643     21645
     21647     21650     21651     21648     21647     21649     21648     21647     21650
     21649     21647     21650     21652     21656     21654     21652     21657     21658
     21652     21657     21659     21652     21657     21660     21653     21652     21656
     21653     21652     21657     21654     21664     21660     21654     21664     21665
     21654     21664     21666     21654     21668     21669     21654     21668     21670
     21654     21668     21671     21655     21654     21656     21655     21654     21664
     21655     21654     21668     21656     21652     21657     21656     21654     21664
     21656     21654     21668     21657     21659     21673     21657     21660     21661
     21657     21660     21662     21657     21660     21664     21658     21657     21659
     21658     21657     21660     21659     21657     21660     21659     21673     21674
     21659     21673     21677     21659     21673     21678     21660     21662     21663
     21660     21664     21665     21660     21664     21666     21661     21660     21662
     21661     21660     21664     21662     21660     21664     21664     21654     21668
     21664     21666     21667     21665     21664     21666     21668     21671     21672
     21669     21668     21670     21669     21668     21671     21670     21668     21671
     21673     21677     21675     21673     21678     21679     21673     21678     21680
     21673     21678     21681     21674     21673     21677     21674     21673     21678
     21675     21685     21681     21675     21685     21686     21675     21685     21687
     21675     21689     21690     21675     21689     21691     21675     21689     21692
     21676     21675     21677     21676     21675     21685     21676     21675     21689
     21677     21673     21678     21677     21675     21685     21677     21675     21689
     21678     21680     21693     21678     21681     21682     21678     21681     21683
     21678     21681     21685     21679     21678     21680     21679     21678     21681
     21680     21678     21681     21680     21693     21694     21680     21693     21697
     21680     21693     21698     21681     21683     21684     21681     21685     21686
     21681     21685     21687     21682     21681     21683     21682     21681     21685
     21683     21681     21685     21685     21675     21689     21685     21687     21688
     21686     21685     21687     21690     21689     21691     21690     21689     21692
     21691     21689     21692     21693     21697     21695     21693     21698     21699
     21693     21698     21700     21693     21698     21701     21694     21693     21697
     21694     21693     21698     21695     21704     21701     21695     21704     21705
     21695     21704     21706     21695     21708     21709     21695     21708     21710
     21695     21708     21711     21696     21695     21697     21696     21695     21704
     21696     21695     21708     21697     21693     21698     21697     21695     21704
     21697     21695     21708     21698     21700     21712     21698     21701     21702
     21698     21701     21703     21698     21701     21704     21699     21698     21700
     21699     21698     21701     21700     21698     21701     21700     21712     21713
     21700     21712     21716     21700     21712     21717     21701     21703     21740
     21701     21704     21705     21701     21704     21706     21702     21701     21703
     21702     21701     21704     21703     21701     21704     21703     21740     21741
     21703     21740     21744     21703     21740     21745     21704     21695     21708
     21704     21706     21707     21705     21704     21706     21709     21708     21710
     21709     21708     21711     21710     21708     21711     21712     21716     21714
     21712     21717     21718     21712     21717     21719     21712     21717     21727
     21713     21712     21716     21713     21712     21717     21714     21731     21727
     21714     21731     21732     21714     21731     21733     21714     21735     21736
     21714     21735     21737     21714     21735     21738     21715     21714     21716
     21715     21714     21731     21715     21714     21735     21716     21712     21717
     21716     21714     21731     21716     21714     21735     21717     21719     21720
     21717     21719     21721     21717     21727     21728     21717     21727     21729
     21717     21727     21731     21718     21717     21719     21718     21717     21727
     21719     21717     21727     21719     21721     21722     21719     21721     21723
     21720     21719     21721     21721     21723     21724     21721     21723     21725
     21721     21723     21726     21722     21721     21723     21724     21723     21725
     21724     21723     21726     21725     21723     21726     21727     21729     21730
     21727     21731     21732     21727     21731     21733     21728     21727     21729
     21728     21727     21731     21729     21727     21731     21731     21714     21735
     21731     21733     21734     21732     21731     21733     21735     21738     21739
     21736     21735     21737     21736     21735     21738     21737     21735     21738
     21740     21744     21742     21740     21745     21746     21740     21745     21747
     21740     21745     21755     21741     21740     21744     21741     21740     21745
     21742     21758     21755     21742     21758     21759     21742     21758     21760
     21742     21762     21763     21742     21762     21764     21742     21762     21765
     21743     21742     21744     21743     21742     21758     21743     21742     21762
     21744     21740     21745     21744     21742     21758     21744     21742     21762
     21745     21747     21748     21745     21747     21749     21745     21755     21756
     21745     21755     21757     21745     21755     21758     21746     21745     21747
     21746     21745     21755     21747     21745     21755     21747     21749     21750
     21747     21749     21751     21748     21747     21749     21749     21751     21752
     21749     21751     21753     21749     21751     21754     21750     21749     21751
     21752     21751     21753     21752     21751     21754     21753     21751     21754
     21755     21757     21767     21755     21758     21759     21755     21758     21760
     21756     21755     21757     21756     21755     21758     21757     21755     21758
     21757     21767     21768     21757     21767     21771     21757     21767     21772
     21758     21742     21762     21758     21760     21761     21759     21758     21760
     21762     21765     21766     21763     21762     21764     21763     21762     21765
     21764     21762     21765     21767     21771     21769     21767     21772     21773
     21767     21772     21774     21767     21772     21775     21768     21767     21771
     21768     21767     21772     21769     21779     21775     21769     21779     21780
     21769     21779     21781     21769     21783     21784     21769     21783     21785
     21769     21783     21786     21770     21769     21771     21770     21769     21779
     21770     21769     21783     21771     21767     21772     21771     21769     21779
     21771     21769     21783     21772     21774     21788     21772     21775     21776
     21772     21775     21777     21772     21775     21779     21773     21772     21774
     21773     21772     21775     21774     21772     21775     21774     21788     21789
     21774     21788     21792     21774     21788     21793     21775     21777     21778
     21775     21779     21780     21775     21779     21781     21776     21775     21777
     21776     21775     21779     21777     21775     21779     21779     21769     21783
     21779     21781     21782     21780     21779     21781     21783     21786     21787
     21784     21783     21785     21784     21783     21786     21785     21783     21786
     21788     21792     21790     21788     21793     21794     21788     21793     21795
     21788     21793     21796     21789     21788     21792     21789     21788     21793
     21790     21800     21796     21790     21800     21801     21790     21800     21802
     21790     21804     21805     21790     21804     21806     21790     21804     21807
     21791     21790     21792     21791     21790     21800     21791     21790     21804
     21792     21788     21793     21792     21790     21800     21792     21790     21804
     21793     21795     21808     21793     21796     21797     21793     21796     21798
     21793     21796     21800     21794     21793     21795     21794     21793     21796
     21795     21793     21796     21795     21808     21809     21795     21808     21812
     21795     21808     21813     21796     21798     21799     21796     21800     21801
     21796     21800     21802     21797     21796     21798     21797     21796     21800
     21798     21796     21800     21800     21790     21804     21800     21802     21803
     21801     21800     21802     21805     21804     21806     21805     21804     21807
     21806     21804     21807     21808     21812     21810     21808     21813     21814
     21808     21813     21815     21808     21813     21816     21809     21808     21812
     21809     21808     21813     21810     21819     21816     21810     21819     21820
     21810     21819     21821     21810     21823     21824     21810     21823     21825
     21810     21823     21826     21811     21810     21812     21811     21810     21819
     21811     21810     21823     21812     21808     21813     21812     21810     21819
     21812     21810     21823     21813     21815     21827     21813     21816     21817
     21813     21816     21818     21813     21816     21819     21814     21813     21815
     21814     21813     21816     21815     21813     21816     21815     21827     21828
     21815     21827     21831     21815     21827     21832     21816     21818     21855
     21816     21819     21820     21816     21819     21821     21817     21816     21818
     21817     21816     21819     21818     21816     21819     21818     21855     21856
     21818     21855     21859     21818     21855     21860     21819     21810     21823
     21819     21821     21822     21820     21819     21821     21824     21823     21825
     21824     21823     21826     21825     21823     21826     21827     21831     21829
     21827     21832     21833     21827     21832     21834     21827     21832     21842
     21828     21827     21831     21828     21827     21832     21829     21846     21842
     21829     21846     21847     21829     21846     21848     21829     21850     21851
     21829     21850     21852     21829     21850     21853     21830     21829     21831
     21830     21829     21846     21830     21829     21850     21831     21827     21832
     21831     21829     21846     21831     21829     21850     21832     21834     21835
     21832     21834     21836     21832     21842     21843     21832     21842     21844
     21832     21842     21846     21833     21832     21834     21833     21832     21842
     21834     21832     21842     21834     21836     21837     21834     21836     21838
     21835     21834     21836     21836     21838     21839     21836     21838     21840
     21836     21838     21841     21837     21836     21838     21839     21838     21840
     21839     21838     21841     21840     21838     21841     21842     21844     21845
     21842     21846     21847     21842     21846     21848     21843     21842     21844
     21843     21842     21846     21844     21842     21846     21846     21829     21850
     21846     21848     21849     21847     21846     21848     21850     21853     21854
     21851     21850     21852     21851     21850     21853     21852     21850     21853
     21855     21859     21857     21855     21860     21861     21855     21860     21862
     21855     21860     21870     21856     21855     21859     21856     21855     21860
     21857     21873     21870     21857     21873     21874     21857     21873     21875
     21857     21877     21878     21857     21877     21879     21857     21877     21880
     21858     21857     21859     21858     21857     21873     21858     21857     21877
     21859     21855     21860     21859     21857     21873     21859     21857     21877
     21860     21862     21863     21860     21862     21864     21860     21870     21871
     21860     21870     21872     21860     21870     21873     21861     21860     21862
     21861     21860     21870     21862     21860     21870     21862     21864     21865
     21862     21864     21866     21863     21862     21864     21864     21866     21867
     21864     21866     21868     21864     21866     21869     21865     21864     21866
     21867     21866     21868     21867     21866     21869     21868     21866     21869
     21870     21872     21882     21870     21873     21874     21870     21873     21875
     21871     21870     21872     21871     21870     21873     21872     21870     21873
     21872     21882     21883     21872     21882     21886     21872     21882     21887
     21873     21857     21877     21873     21875     21876     21874     21873     21875
     21877     21880     21881     21878     21877     21879     21878     21877     21880
     21879     21877     21880     21882     21886     21884     21882     21887     21888
     21882     21887     21889     21882     21887     21890     21883     21882     21886
     21883     21882     21887     21884     21894     21890     21884     21894     21895
     21884     21894     21896     21884     21898     21899     21884     21898     21900
     21884     21898     21901     21885     21884     21886     21885     21884     21894
     21885     21884     21898     21886     21882     21887     21886     21884     21894
     21886     21884     21898     21887     21889     21903     21887     21890     21891
     21887     21890     21892     21887     21890     21894     21888     21887     21889
     21888     21887     21890     21889     21887     21890     21889     21903     21904
     21889     21903     21907     21889     21903     21908     21890     21892     21893
     21890     21894     21895     21890     21894     21896     21891     21890     21892
     21891     21890     21894     21892     21890     21894     21894     21884     21898
     21894     21896     21897     21895     21894     21896     21898     21901     21902
     21899     21898     21900     21899     21898     21901     21900     21898     21901
     21903     21907     21905     21903     21908     21909     21903     21908     21910
     21903     21908     21911     21904     21903     21907     21904     21903     21908
     21905     21915     21911     21905     21915     21916     21905     21915     21917
     21905     21919     21920     21905     21919     21921     21905     21919     21922
     21906     21905     21907     21906     21905     21915     21906     21905     21919
     21907     21903     21908     21907     21905     21915     21907     21905     21919
     21908     21910     21923     21908     21911     21912     21908     21911     21913
     21908     21911     21915     21909     21908     21910     21909     21908     21911
     21910     21908     21911     21910     21923     21924     21910     21923     21927
     21910     21923     21928     21911     21913     21914     21911     21915     21916
     21911     21915     21917     21912     21911     21913     21912     21911     21915
     21913     21911     21915     21915     21905     21919     21915     21917     21918
     21916     21915     21917     21920     21919     21921     21920     21919     21922
     21921     21919     21922     21923     21927     21925     21923     21928     21929
     21923     21928     21930     21923     21928     21931     21924     21923     21927
     21924     21923     21928     21925     21934     21931     21925     21934     21935
     21925     21934     21936     21925     21938     21939     21925     21938     21940
     21925     21938     21941     21926     21925     21927     21926     21925     21934
     21926     21925     21938     21927     21923     21928     21927     21925     21934
     21927     21925     21938     21928     21930     21942     21928     21931     21932
     21928     21931     21933     21928     21931     21934     21929     21928     21930
     21929     21928     21931     21930     21928     21931     21930     21942     21943
     21930     21942     21946     21930     21942     21947     21931     21933     21970
     21931     21934     21935     21931     21934     21936     21932     21931     21933
     21932     21931     21934     21933     21931     21934     21933     21970     21971
     21933     21970     21974     21933     21970     21975     21934     21925     21938
     21934     21936     21937     21935     21934     21936     21939     21938     21940
     21939     21938     21941     21940     21938     21941     21942     21946     21944
     21942     21947     21948     21942     21947     21949     21942     21947     21957
     21943     21942     21946     21943     21942     21947     21944     21961     21957
     21944     21961     21962     21944     21961     21963     21944     21965     21966
     21944     21965     21967     21944     21965     21968     21945     21944     21946
     21945     21944     21961     21945     21944     21965     21946     21942     21947
     21946     21944     21961     21946     21944     21965     21947     21949     21950
     21947     21949     21951     21947     21957     21958     21947     21957     21959
     21947     21957     21961     21948     21947     21949     21948     21947     21957
     21949     21947     21957     21949     21951     21952     21949     21951     21953
     21950     21949     21951     21951     21953     21954     21951     21953     21955
     21951     21953     21956     21952     21951     21953     21954     21953     21955
     21954     21953     21956     21955     21953     21956     21957     21959     21960
     21957     21961     21962     21957     21961     21963     21958     21957     21959
     21958     21957     21961     21959     21957     21961     21961     21944     21965
     21961     21963     21964     21962     21961     21963     21965     21968     21969
     21966     21965     21967     21966     21965     21968     21967     21965     21968
     21970     21974     21972     21970     21975     21976     21970     21975     21977
     21970     21975     21985     21971     21970     21974     21971     21970     21975
     21972     21988     21985     21972     21988     21989     21972     21988     21990
     21972     21992     21993     21972     21992     21994     21972     21992     21995
     21973     21972     21974     21973     21972     21988     21973     21972     21992
     21974     21970     21975     21974     21972     21988     21974     21972     21992
     21975     21977     21978     21975     21977     21979     21975     21985     21986
     21975     21985     21987     21975     21985     21988     21976     21975     21977
     21976     21975     21985     21977     21975     21985     21977     21979     21980
     21977     21979     21981     21978     21977     21979     21979     21981     21982
     21979     21981     21983     21979     21981     21984     21980     21979     21981
     21982     21981     21983     21982     21981     21984     21983     21981     21984
     21985     21987     21997     21985     21988     21989     21985     21988     21990
     21986     21985     21987     21986     21985     21988     21987     21985     21988
     21987     21997     21998     21987     21997     22001     21987     21997     22002
     21988     21972     21992     21988     21990     21991     21989     21988     21990
     21992     21995     21996     21993     21992     21994     21993     21992     21995
     21994     21992     21995     21997     22001     21999     21997     22002     22003
     21997     22002     22004     21997     22002     22005     21998     21997     22001
     21998     21997     22002     21999     22009     22005     21999     22009     22010
     21999     22009     22011     21999     22013     22014     21999     22013     22015
     21999     22013     22016     22000     21999     22001     22000     21999     22009
     22000     21999     22013     22001     21997     22002     22001     21999     22009
     22001     21999     22013     22002     22004     22018     22002     22005     22006
     22002     22005     22007     22002     22005     22009     22003     22002     22004
     22003     22002     22005     22004     22002     22005     22004     22018     22019
     22004     22018     22022     22004     22018     22023     22005     22007     22008
     22005     22009     22010     22005     22009     22011     22006     22005     22007
     22006     22005     22009     22007     22005     22009     22009     21999     22013
     22009     22011     22012     22010     22009     22011     22013     22016     22017
     22014     22013     22015     22014     22013     22016     22015     22013     22016
     22018     22022     22020     22018     22023     22024     22018     22023     22025
     22018     22023     22026     22019     22018     22022     22019     22018     22023
     22020     22030     22026     22020     22030     22031     22020     22030     22032
     22020     22034     22035     22020     22034     22036     22020     22034     22037
     22021     22020     22022     22021     22020     22030     22021     22020     22034
     22022     22018     22023     22022     22020     22030     22022     22020     22034
     22023     22025     22038     22023     22026     22027     22023     22026     22028
     22023     22026     22030     22024     22023     22025     22024     22023     22026
     22025     22023     22026     22025     22038     22039     22025     22038     22042
     22025     22038     22043     22026     22028     22029     22026     22030     22031
     22026     22030     22032     22027     22026     22028     22027     22026     22030
     22028     22026     22030     22030     22020     22034     22030     22032     22033
     22031     22030     22032     22035     22034     22036     22035     22034     22037
     22036     22034     22037     22038     22042     22040     22038     22043     22044
     22038     22043     22045     22038     22043     22046     22039     22038     22042
     22039     22038     22043     22040     22049     22046     22040     22049     22050
     22040     22049     22051     22040     22053     22054     22040     22053     22055
     22040     22053     22056     22041     22040     22042     22041     22040     22049
     22041     22040     22053     22042     22038     22043     22042     22040     22049
     22042     22040     22053     22043     22045     22057     22043     22046     22047
     22043     22046     22048     22043     22046     22049     22044     22043     22045
     22044     22043     22046     22045     22043     22046     22045     22057     22058
     22045     22057     22061     22045     22057     22062     22046     22048     22085
     22046     22049     22050     22046     22049     22051     22047     22046     22048
     22047     22046     22049     22048     22046     22049     22048     22085     22086
     22048     22085     22089     22048     22085     22090     22049     22040     22053
     22049     22051     22052     22050     22049     22051     22054     22053     22055
     22054     22053     22056     22055     22053     22056     22057     22061     22059
     22057     22062     22063     22057     22062     22064     22057     22062     22072
     22058     22057     22061     22058     22057     22062     22059     22076     22072
     22059     22076     22077     22059     22076     22078     22059     22080     22081
     22059     22080     22082     22059     22080     22083     22060     22059     22061
     22060     22059     22076     22060     22059     22080     22061     22057     22062
     22061     22059     22076     22061     22059     22080     22062     22064     22065
     22062     22064     22066     22062     22072     22073     22062     22072     22074
     22062     22072     22076     22063     22062     22064     22063     22062     22072
     22064     22062     22072     22064     22066     22067     22064     22066     22068
     22065     22064     22066     22066     22068     22069     22066     22068     22070
     22066     22068     22071     22067     22066     22068     22069     22068     22070
     22069     22068     22071     22070     22068     22071     22072     22074     22075
     22072     22076     22077     22072     22076     22078     22073     22072     22074
     22073     22072     22076     22074     22072     22076     22076     22059     22080
     22076     22078     22079     22077     22076     22078     22080     22083     22084
     22081     22080     22082     22081     22080     22083     22082     22080     22083
     22085     22089     22087     22085     22090     22091     22085     22090     22092
     22085     22090     22100     22086     22085     22089     22086     22085     22090
     22087     22103     22100     22087     22103     22104     22087     22103     22105
     22087     22107     22108     22087     22107     22109     22087     22107     22110
     22088     22087     22089     22088     22087     22103     22088     22087     22107
     22089     22085     22090     22089     22087     22103     22089     22087     22107
     22090     22092     22093     22090     22092     22094     22090     22100     22101
     22090     22100     22102     22090     22100     22103     22091     22090     22092
     22091     22090     22100     22092     22090     22100     22092     22094     22095
     22092     22094     22096     22093     22092     22094     22094     22096     22097
     22094     22096     22098     22094     22096     22099     22095     22094     22096
     22097     22096     22098     22097     22096     22099     22098     22096     22099
     22100     22102     22112     22100     22103     22104     22100     22103     22105
     22101     22100     22102     22101     22100     22103     22102     22100     22103
     22102     22112     22113     22102     22112     22116     22102     22112     22117
     22103     22087     22107     22103     22105     22106     22104     22103     22105
     22107     22110     22111     22108     22107     22109     22108     22107     22110
     22109     22107     22110     22112     22116     22114     22112     22117     22118
     22112     22117     22119     22112     22117     22120     22113     22112     22116
     22113     22112     22117     22114     22124     22120     22114     22124     22125
     22114     22124     22126     22114     22128     22129     22114     22128     22130
     22114     22128     22131     22115     22114     22116     22115     22114     22124
     22115     22114     22128     22116     22112     22117     22116     22114     22124
     22116     22114     22128     22117     22119     22133     22117     22120     22121
     22117     22120     22122     22117     22120     22124     22118     22117     22119
     22118     22117     22120     22119     22117     22120     22119     22133     22134
     22119     22133     22137     22119     22133     22138     22120     22122     22123
     22120     22124     22125     22120     22124     22126     22121     22120     22122
     22121     22120     22124     22122     22120     22124     22124     22114     22128
     22124     22126     22127     22125     22124     22126     22128     22131     22132
     22129     22128     22130     22129     22128     22131     22130     22128     22131
     22133     22137     22135     22133     22138     22139     22133     22138     22140
     22133     22138     22141     22134     22133     22137     22134     22133     22138
     22135     22145     22141     22135     22145     22146     22135     22145     22147
     22135     22149     22150     22135     22149     22151     22135     22149     22152
     22136     22135     22137     22136     22135     22145     22136     22135     22149
     22137     22133     22138     22137     22135     22145     22137     22135     22149
     22138     22140     22153     22138     22141     22142     22138     22141     22143
     22138     22141     22145     22139     22138     22140     22139     22138     22141
     22140     22138     22141     22140     22153     22154     22140     22153     22157
     22140     22153     22158     22141     22143     22144     22141     22145     22146
     22141     22145     22147     22142     22141     22143     22142     22141     22145
     22143     22141     22145     22145     22135     22149     22145     22147     22148
     22146     22145     22147     22150     22149     22151     22150     22149     22152
     22151     22149     22152     22153     22157     22155     22153     22158     22159
     22153     22158     22160     22153     22158     22161     22154     22153     22157
     22154     22153     22158     22155     22165     22161     22155     22165     22166
     22155     22165     22167     22155     22169     22170     22155     22169     22171
     22155     22169     22172     22156     22155     22157     22156     22155     22165
     22156     22155     22169     22157     22153     22158     22157     22155     22165
     22157     22155     22169     22158     22160     22173     22158     22161     22162
     22158     22161     22163     22158     22161     22165     22159     22158     22160
     22159     22158     22161     22160     22158     22161     22160     22173     22174
     22160     22173     22177     22160     22173     22178     22161     22163     22164
     22161     22165     22166     22161     22165     22167     22162     22161     22163
     22162     22161     22165     22163     22161     22165     22165     22155     22169
     22165     22167     22168     22166     22165     22167     22170     22169     22171
     22170     22169     22172     22171     22169     22172     22173     22177     22175
     22173     22178     22179     22173     22178     22180     22173     22178     22188
     22174     22173     22177     22174     22173     22178     22175     22192     22188
     22175     22192     22193     22175     22192     22194     22175     22196     22197
     22175     22196     22198     22175     22196     22199     22176     22175     22177
     22176     22175     22192     22176     22175     22196     22177     22173     22178
     22177     22175     22192     22177     22175     22196     22178     22180     22181
     22178     22180     22182     22178     22188     22189     22178     22188     22190
     22178     22188     22192     22179     22178     22180     22179     22178     22188
     22180     22178     22188     22180     22182     22183     22180     22182     22184
     22181     22180     22182     22182     22184     22185     22182     22184     22186
     22182     22184     22187     22183     22182     22184     22185     22184     22186
     22185     22184     22187     22186     22184     22187     22188     22190     22191
     22188     22192     22193     22188     22192     22194     22189     22188     22190
     22189     22188     22192     22190     22188     22192     22192     22175     22196
     22192     22194     22195     22193     22192     22194     22196     22199     22200
     22197     22196     22198     22197     22196     22199     22198     22196     22199
     22201     22203     22202     22201     22203     22204     22201     22203     22205
     22202     22203     22204     22202     22203     22205     22202     22500     22497
     22202     22500     22503     22202     22500     22504     22203     22202     22500
     22203     22205     22206     22203     22205     22207     22203     22205     22214
     22204     22203     22205     22205     22206     22208     22205     22214     22215
     22205     22214     22216     22205     22214     22221     22206     22205     22207
     22206     22205     22214     22206     22208     22209     22206     22208     22210
     22206     22208     22229     22207     22205     22214     22208     22210     22211
     22208     22229     22221     22208     22229     22230     22208     22229     22231
     22209     22208     22210     22209     22208     22229     22210     22208     22229
     22210     22211     22212     22210     22211     22213     22210     22211     22237
     22211     22237     22233     22211     22237     22238     22211     22237     22239
     22212     22211     22213     22212     22211     22237     22213     22211     22237
     22214     22216     22217     22214     22221     22222     22214     22221     22223
     22214     22221     22229     22215     22214     22216     22215     22214     22221
     22216     22214     22221     22216     22217     22218     22216     22217     22219
     22216     22217     22220     22218     22217     22219     22218     22217     22220
     22219     22217     22220     22221     22222     22224     22221     22229     22230
     22221     22229     22231     22222     22221     22223     22222     22221     22229
     22222     22224     22225     22222     22224     22226     22223     22221     22229
     22224     22226     22227     22224     22226     22228     22224     22226     22259
     22225     22224     22226     22226     22259     22260     22226     22259     22261
     22226     22259     22304     22227     22226     22228     22227     22226     22259
     22228     22226     22259     22229     22231     22232     22229     22231     22338
     22230     22229     22231     22231     22338     22339     22231     22338     22340
     22232     22231     22338     22233     22235     22236     22233     22237     22238
     22233     22237     22239     22233     22247     22248     22233     22247     22249
     22233     22247     22255     22234     22233     22235     22234     22233     22237
     22234     22233     22247     22235     22233     22237     22235     22233     22247
     22237     22233     22247     22237     22239     22240     22238     22237     22239
     22239     22240     22241     22239     22240     22242     22239     22240     22255
     22240     22242     22246     22240     22255     22247     22240     22255     22256
     22240     22255     22257     22241     22240     22242     22241     22240     22255
     22242     22240     22255     22242     22246     22243     22242     22246     22244
     22242     22246     22245     22243     22246     22244     22243     22246     22245
     22244     22246     22245     22247     22249     22250     22247     22255     22256
     22247     22255     22257     22248     22247     22249     22248     22247     22255
     22249     22247     22255     22249     22250     22251     22249     22250     22252
     22250     22252     22253     22250     22252     22254     22250     22252     22416
     22251     22250     22252     22252     22416     22417     22252     22416     22418
     22252     22416     22420     22253     22252     22254     22253     22252     22416
     22254     22252     22416     22255     22257     22258     22255     22257     22454
     22256     22255     22257     22257     22454     22455     22257     22454     22456
     22258     22257     22454     22259     22261     22262     22259     22304     22305
     22259     22304     22306     22259     22304     22307     22260     22259     22261
     22260     22259     22304     22261     22259     22304     22261     22262     22263
     22261     22262     22264     22262     22264     22265     22262     22264     22266
     22262     22264     22267     22263     22262     22264     22264     22267     22268
     22264     22267     22269     22264     22267     22270     22265     22264     22266
     22265     22264     22267     22266     22264     22267     22267     22270     22271
     22267     22270     22272     22267     22270     22273     22268     22267     22269
     22268     22267     22270     22269     22267     22270     22270     22273     22274
     22270     22273     22275     22270     22273     22276     22271     22270     22272
     22271     22270     22273     22272     22270     22273     22273     22276     22277
     22273     22276     22278     22273     22276     22279     22274     22273     22275
     22274     22273     22276     22275     22273     22276     22276     22279     22280
     22276     22279     22281     22276     22279     22282     22277     22276     22278
     22277     22276     22279     22278     22276     22279     22279     22282     22283
     22279     22282     22284     22279     22282     22285     22280     22279     22281
     22280     22279     22282     22281     22279     22282     22282     22285     22286
     22282     22285     22287     22282     22285     22288     22283     22282     22284
     22283     22282     22285     22284     22282     22285     22285     22288     22289
     22285     22288     22290     22285     22288     22291     22286     22285     22287
     22286     22285     22288     22287     22285     22288     22288     22291     22292
     22288     22291     22293     22288     22291     22294     22289     22288     22290
     22289     22288     22291     22290     22288     22291     22291     22294     22295
     22291     22294     22296     22291     22294     22297     22292     22291     22293
     22292     22291     22294     22293     22291     22294     22294     22297     22298
     22294     22297     22299     22294     22297     22300     22295     22294     22296
     22295     22294     22297     22296     22294     22297     22297     22300     22301
     22297     22300     22302     22297     22300     22303     22298     22297     22299
     22298     22297     22300     22299     22297     22300     22301     22300     22302
     22301     22300     22303     22302     22300     22303     22304     22307     22308
     22304     22307     22309     22304     22307     22310     22305     22304     22306
     22305     22304     22307     22306     22304     22307     22307     22310     22311
     22307     22310     22312     22307     22310     22313     22308     22307     22309
     22308     22307     22310     22309     22307     22310     22310     22313     22314
     22310     22313     22315     22310     22313     22316     22311     22310     22312
     22311     22310     22313     22312     22310     22313     22313     22316     22317
     22313     22316     22318     22313     22316     22319     22314     22313     22315
     22314     22313     22316     22315     22313     22316     22316     22319     22320
     22316     22319     22321     22316     22319     22322     22317     22316     22318
     22317     22316     22319     22318     22316     22319     22319     22322     22323
     22319     22322     22324     22319     22322     22325     22320     22319     22321
     22320     22319     22322     22321     22319     22322     22322     22325     22326
     22322     22325     22327     22322     22325     22328     22323     22322     22324
     22323     22322     22325     22324     22322     22325     22325     22328     22329
     22325     22328     22330     22325     22328     22331     22326     22325     22327
     22326     22325     22328     22327     22325     22328     22328     22331     22332
     22328     22331     22333     22328     22331     22334     22329     22328     22330
     22329     22328     22331     22330     22328     22331     22331     22334     22335
     22331     22334     22336     22331     22334     22337     22332     22331     22333
     22332     22331     22334     22333     22331     22334     22335     22334     22336
     22335     22334     22337     22336     22334     22337     22338     22340     22341
     22338     22340     22342     22338     22340     22343     22339     22338     22340
     22340     22343     22344     22340     22343     22345     22340     22343     22382
     22341     22340     22342     22341     22340     22343     22342     22340     22343
     22343     22345     22346     22343     22382     22383     22343     22382     22384
     22343     22382     22385     22344     22343     22345     22344     22343     22382
     22345     22343     22382     22345     22346     22347     22345     22346     22348
     22346     22348     22349     22346     22348     22350     22346     22348     22351
     22347     22346     22348     22348     22351     22352     22348     22351     22353
     22348     22351     22354     22349     22348     22350     22349     22348     22351
     22350     22348     22351     22351     22354     22355     22351     22354     22356
     22351     22354     22357     22352     22351     22353     22352     22351     22354
     22353     22351     22354     22354     22357     22358     22354     22357     22359
     22354     22357     22360     22355     22354     22356     22355     22354     22357
     22356     22354     22357     22357     22360     22361     22357     22360     22362
     22357     22360     22363     22358     22357     22359     22358     22357     22360
     22359     22357     22360     22360     22363     22364     22360     22363     22365
     22360     22363     22366     22361     22360     22362     22361     22360     22363
     22362     22360     22363     22363     22366     22367     22363     22366     22368
     22363     22366     22369     22364     22363     22365     22364     22363     22366
     22365     22363     22366     22366     22369     22370     22366     22369     22371
     22366     22369     22372     22367     22366     22368     22367     22366     22369
     22368     22366     22369     22369     22372     22373     22369     22372     22374
     22369     22372     22375     22370     22369     22371     22370     22369     22372
     22371     22369     22372     22372     22375     22376     22372     22375     22377
     22372     22375     22378     22373     22372     22374     22373     22372     22375
     22374     22372     22375     22375     22378     22379     22375     22378     22380
     22375     22378     22381     22376     22375     22377     22376     22375     22378
     22377     22375     22378     22379     22378     22380     22379     22378     22381
     22380     22378     22381     22382     22385     22386     22382     22385     22387
     22382     22385     22388     22383     22382     22384     22383     22382     22385
     22384     22382     22385     22385     22388     22389     22385     22388     22390
     22385     22388     22391     22386     22385     22387     22386     22385     22388
     22387     22385     22388     22388     22391     22392     22388     22391     22393
     22388     22391     22394     22389     22388     22390     22389     22388     22391
     22390     22388     22391     22391     22394     22395     22391     22394     22396
     22391     22394     22397     22392     22391     22393     22392     22391     22394
     22393     22391     22394     22394     22397     22398     22394     22397     22399
     22394     22397     22400     22395     22394     22396     22395     22394     22397
     22396     22394     22397     22397     22400     22401     22397     22400     22402
     22397     22400     22403     22398     22397     22399     22398     22397     22400
     22399     22397     22400     22400     22403     22404     22400     22403     22405
     22400     22403     22406     22401     22400     22402     22401     22400     22403
     22402     22400     22403     22403     22406     22407     22403     22406     22408
     22403     22406     22409     22404     22403     22405     22404     22403     22406
     22405     22403     22406     22406     22409     22410     22406     22409     22411
     22406     22409     22412     22407     22406     22408     22407     22406     22409
     22408     22406     22409     22409     22412     22413     22409     22412     22414
     22409     22412     22415     22410     22409     22411     22410     22409     22412
     22411     22409     22412     22413     22412     22414     22413     22412     22415
     22414     22412     22415     22416     22418     22419     22416     22420     22421
     22416     22420     22422     22416     22420     22423     22417     22416     22418
     22417     22416     22420     22418     22416     22420     22420     22423     22424
     22420     22423     22425     22420     22423     22426     22421     22420     22422
     22421     22420     22423     22422     22420     22423     22423     22426     22427
     22423     22426     22428     22423     22426     22429     22424     22423     22425
     22424     22423     22426     22425     22423     22426     22426     22429     22430
     22426     22429     22431     22426     22429     22432     22427     22426     22428
     22427     22426     22429     22428     22426     22429     22429     22432     22433
     22429     22432     22434     22429     22432     22435     22430     22429     22431
     22430     22429     22432     22431     22429     22432     22432     22435     22436
     22432     22435     22437     22432     22435     22438     22433     22432     22434
     22433     22432     22435     22434     22432     22435     22435     22438     22439
     22435     22438     22440     22435     22438     22441     22436     22435     22437
     22436     22435     22438     22437     22435     22438     22438     22441     22442
     22438     22441     22443     22438     22441     22444     22439     22438     22440
     22439     22438     22441     22440     22438     22441     22441     22444     22445
     22441     22444     22446     22441     22444     22447     22442     22441     22443
     22442     22441     22444     22443     22441     22444     22444     22447     22448
     22444     22447     22449     22444     22447     22450     22445     22444     22446
     22445     22444     22447     22446     22444     22447     22447     22450     22451
     22447     22450     22452     22447     22450     22453     22448     22447     22449
     22448     22447     22450     22449     22447     22450     22451     22450     22452
     22451     22450     22453     22452     22450     22453     22454     22456     22457
     22454     22456     22458     22454     22456     22459     22455     22454     22456
     22456     22459     22460     22456     22459     22461     22456     22459     22463
     22457     22456     22458     22457     22456     22459     22458     22456     22459
     22459     22461     22462     22459     22463     22464     22459     22463     22465
     22459     22463     22466     22460     22459     22461     22460     22459     22463
     22461     22459     22463     22463     22466     22467     22463     22466     22468
     22463     22466     22469     22464     22463     22465     22464     22463     22466
     22465     22463     22466     22466     22469     22470     22466     22469     22471
     22466     22469     22472     22467     22466     22468     22467     22466     22469
     22468     22466     22469     22469     22472     22473     22469     22472     22474
     22469     22472     22475     22470     22469     22471     22470     22469     22472
     22471     22469     22472     22472     22475     22476     22472     22475     22477
     22472     22475     22478     22473     22472     22474     22473     22472     22475
     22474     22472     22475     22475     22478     22479     22475     22478     22480
     22475     22478     22481     22476     22475     22477     22476     22475     22478
     22477     22475     22478     22478     22481     22482     22478     22481     22483
     22478     22481     22484     22479     22478     22480     22479     22478     22481
     22480     22478     22481     22481     22484     22485     22481     22484     22486
     22481     22484     22487     22482     22481     22483     22482     22481     22484
     22483     22481     22484     22484     22487     22488     22484     22487     22489
     22484     22487     22490     22485     22484     22486     22485     22484     22487
     22486     22484     22487     22487     22490     22491     22487     22490     22492
     22487     22490     22493     22488     22487     22489     22488     22487     22490
     22489     22487     22490     22490     22493     22494     22490     22493     22495
     22490     22493     22496     22491     22490     22492     22491     22490     22493
     22492     22490     22493     22494     22493     22495     22494     22493     22496
     22495     22493     22496     22497     22500     22503     22497     22500     22504
     22498     22497     22499     22498     22497     22500     22499     22497     22500
     22500     22503     22501     22500     22504     22505     22500     22504     22506
     22500     22504     22507     22501     22510     22507     22501     22510     22511
     22501     22510     22512     22501     22513     22514     22501     22513     22515
     22501     22513     22517     22502     22501     22503     22502     22501     22510
     22502     22501     22513     22503     22500     22504     22503     22501     22510
     22503     22501     22513     22504     22507     22508     22504     22507     22509
     22504     22507     22510     22505     22504     22506     22505     22504     22507
     22506     22504     22507     22507     22509     22525     22507     22510     22511
     22507     22510     22512     22508     22507     22509     22508     22507     22510
     22509     22507     22510     22509     22525     22522     22509     22525     22528
     22509     22525     22529     22510     22501     22513     22510     22512     22549
     22511     22510     22512     22512     22549     22550     22512     22549     22553
     22512     22549     22554     22513     22515     22516     22513     22517     22518
     22513     22517     22519     22513     22517     22520     22514     22513     22515
     22514     22513     22517     22515     22513     22517     22517     22520     22521
     22518     22517     22519     22518     22517     22520     22519     22517     22520
     22522     22525     22528     22522     22525     22529     22523     22522     22524
     22523     22522     22525     22524     22522     22525     22525     22528     22526
     22525     22529     22530     22525     22529     22531     22525     22529     22532
     22526     22536     22532     22526     22536     22537     22526     22536     22538
     22526     22540     22541     22526     22540     22542     22526     22540     22544
     22527     22526     22528     22527     22526     22536     22527     22526     22540
     22528     22525     22529     22528     22526     22536     22528     22526     22540
     22529     22532     22533     22529     22532     22534     22529     22532     22536
     22530     22529     22531     22530     22529     22532     22531     22529     22532
     22532     22534     22535     22532     22536     22537     22532     22536     22538
     22533     22532     22534     22533     22532     22536     22534     22532     22536
     22536     22526     22540     22536     22538     22539     22537     22536     22538
     22540     22542     22543     22540     22544     22545     22540     22544     22546
     22540     22544     22547     22541     22540     22542     22541     22540     22544
     22542     22540     22544     22544     22547     22548     22545     22544     22546
     22545     22544     22547     22546     22544     22547     22549     22553     22551
     22549     22554     22555     22549     22554     22556     22549     22554     22558
     22550     22549     22553     22550     22549     22554     22551     22561     22558
     22551     22561     22562     22551     22561     22563     22551     22568     22569
     22551     22568     22570     22551     22568     22572     22552     22551     22553
     22552     22551     22561     22552     22551     22568     22553     22549     22554
     22553     22551     22561     22553     22551     22568     22554     22556     22557
     22554     22558     22559     22554     22558     22560     22554     22558     22561
     22555     22554     22556     22555     22554     22558     22556     22554     22558
     22558     22560     22577     22558     22561     22562     22558     22561     22563
     22559     22558     22560     22559     22558     22561     22560     22558     22561
     22560     22577     22578     22560     22577     22581     22560     22577     22582
     22561     22551     22568     22561     22563     22564     22562     22561     22563
     22563     22564     22565     22563     22564     22566     22563     22564     22567
     22565     22564     22566     22565     22564     22567     22566     22564     22567
     22568     22570     22571     22568     22572     22573     22568     22572     22574
     22568     22572     22575     22569     22568     22570     22569     22568     22572
     22570     22568     22572     22572     22575     22576     22573     22572     22574
     22573     22572     22575     22574     22572     22575     22577     22581     22579
     22577     22582     22583     22577     22582     22584     22577     22582     22586
     22578     22577     22581     22578     22577     22582     22579     22589     22586
     22579     22589     22590     22579     22589     22591     22579     22596     22597
     22579     22596     22598     22579     22596     22600     22580     22579     22581
     22580     22579     22589     22580     22579     22596     22581     22577     22582
     22581     22579     22589     22581     22579     22596     22582     22584     22585
     22582     22586     22587     22582     22586     22588     22582     22586     22589
     22583     22582     22584     22583     22582     22586     22584     22582     22586
     22586     22588     22630     22586     22589     22590     22586     22589     22591
     22587     22586     22588     22587     22586     22589     22588     22586     22589
     22588     22630     22631     22588     22630     22634     22588     22630     22635
     22589     22579     22596     22589     22591     22592     22590     22589     22591
     22591     22592     22593     22591     22592     22594     22591     22592     22595
     22593     22592     22594     22593     22592     22595     22594     22592     22595
     22596     22598     22599     22596     22600     22601     22596     22600     22602
     22596     22600     22603     22597     22596     22598     22597     22596     22600
     22598     22596     22600     22600     22603     22604     22601     22600     22602
     22601     22600     22603     22602     22600     22603     22603     22604     22605
     22603     22604     22608     22603     22604     22609     22604     22608     22606
     22604     22609     22610     22604     22609     22611     22604     22609     22613
     22605     22604     22608     22605     22604     22609     22606     22617     22613
     22606     22617     22618     22606     22617     22619     22606     22621     22622
     22606     22621     22623     22606     22621     22625     22607     22606     22608
     22607     22606     22617     22607     22606     22621     22608     22604     22609
     22608     22606     22617     22608     22606     22621     22609     22611     22612
     22609     22613     22614     22609     22613     22615     22609     22613     22617
     22610     22609     22611     22610     22609     22613     22611     22609     22613
     22613     22615     22616     22613     22617     22618     22613     22617     22619
     22614     22613     22615     22614     22613     22617     22615     22613     22617
     22617     22606     22621     22617     22619     22620     22618     22617     22619
     22621     22623     22624     22621     22625     22626     22621     22625     22627
     22621     22625     22628     22622     22621     22623     22622     22621     22625
     22623     22621     22625     22625     22628     22629     22626     22625     22627
     22626     22625     22628     22627     22625     22628     22630     22634     22632
     22630     22635     22636     22630     22635     22637     22630     22635     22639
     22631     22630     22634     22631     22630     22635     22632     22642     22639
     22632     22642     22643     22632     22642     22644     22632     22646     22647
     22632     22646     22648     22632     22646     22649     22633     22632     22634
     22633     22632     22642     22633     22632     22646     22634     22630     22635
     22634     22632     22642     22634     22632     22646     22635     22637     22638
     22635     22639     22640     22635     22639     22641     22635     22639     22642
     22636     22635     22637     22636     22635     22639     22637     22635     22639
     22639     22641     22651     22639     22642     22643     22639     22642     22644
     22640     22639     22641     22640     22639     22642     22641     22639     22642
     22641     22651     22652     22641     22651     22655     22641     22651     22656
     22642     22632     22646     22642     22644     22645     22643     22642     22644
     22646     22649     22650     22647     22646     22648     22647     22646     22649
     22648     22646     22649     22651     22655     22653     22651     22656     22657
     22651     22656     22658     22651     22656     22659     22652     22651     22655
     22652     22651     22656     22653     22662     22659     22653     22662     22663
     22653     22662     22664     22653     22666     22667     22653     22666     22668
     22653     22666     22669     22654     22653     22655     22654     22653     22662
     22654     22653     22666     22655     22651     22656     22655     22653     22662
     22655     22653     22666     22656     22658     22671     22656     22659     22660
     22656     22659     22661     22656     22659     22662     22657     22656     22658
     22657     22656     22659     22658     22656     22659     22658     22671     22672
     22658     22671     22675     22658     22671     22676     22659     22661     22714
     22659     22662     22663     22659     22662     22664     22660     22659     22661
     22660     22659     22662     22661     22659     22662     22661     22714     22715
     22661     22714     22718     22661     22714     22719     22662     22653     22666
     22662     22664     22665     22663     22662     22664     22666     22669     22670
     22667     22666     22668     22667     22666     22669     22668     22666     22669
     22671     22675     22673     22671     22676     22677     22671     22676     22678
     22671     22676     22679     22672     22671     22675     22672     22671     22676
     22673     22683     22679     22673     22683     22684     22673     22683     22685
     22673     22687     22688     22673     22687     22689     22673     22687     22690
     22674     22673     22675     22674     22673     22683     22674     22673     22687
     22675     22671     22676     22675     22673     22683     22675     22673     22687
     22676     22678     22692     22676     22679     22680     22676     22679     22681
     22676     22679     22683     22677     22676     22678     22677     22676     22679
     22678     22676     22679     22678     22692     22693     22678     22692     22696
     22678     22692     22697     22679     22681     22682     22679     22683     22684
     22679     22683     22685     22680     22679     22681     22680     22679     22683
     22681     22679     22683     22683     22673     22687     22683     22685     22686
     22684     22683     22685     22687     22690     22691     22688     22687     22689
     22688     22687     22690     22689     22687     22690     22692     22696     22694
     22692     22697     22698     22692     22697     22699     22692     22697     22701
     22693     22692     22696     22693     22692     22697     22694     22705     22701
     22694     22705     22706     22694     22705     22707     22694     22709     22710
     22694     22709     22711     22694     22709     22712     22695     22694     22696
     22695     22694     22705     22695     22694     22709     22696     22692     22697
     22696     22694     22705     22696     22694     22709     22697     22699     22700
     22697     22701     22702     22697     22701     22703     22697     22701     22705
     22698     22697     22699     22698     22697     22701     22699     22697     22701
     22701     22703     22704     22701     22705     22706     22701     22705     22707
     22702     22701     22703     22702     22701     22705     22703     22701     22705
     22705     22694     22709     22705     22707     22708     22706     22705     22707
     22709     22712     22713     22710     22709     22711     22710     22709     22712
     22711     22709     22712     22714     22718     22716     22714     22719     22720
     22714     22719     22721     22714     22719     22723     22715     22714     22718
     22715     22714     22719     22716     22726     22723     22716     22726     22727
     22716     22726     22728     22716     22730     22731     22716     22730     22732
     22716     22730     22733     22717     22716     22718     22717     22716     22726
     22717     22716     22730     22718     22714     22719     22718     22716     22726
     22718     22716     22730     22719     22721     22722     22719     22723     22724
     22719     22723     22725     22719     22723     22726     22720     22719     22721
     22720     22719     22723     22721     22719     22723     22723     22725     22735
     22723     22726     22727     22723     22726     22728     22724     22723     22725
     22724     22723     22726     22725     22723     22726     22725     22735     22736
     22725     22735     22739     22725     22735     22740     22726     22716     22730
     22726     22728     22729     22727     22726     22728     22730     22733     22734
     22731     22730     22732     22731     22730     22733     22732     22730     22733
     22735     22739     22737     22735     22740     22741     22735     22740     22742
     22735     22740     22750     22736     22735     22739     22736     22735     22740
     22737     22753     22750     22737     22753     22754     22737     22753     22755
     22737     22757     22758     22737     22757     22759     22737     22757     22760
     22738     22737     22739     22738     22737     22753     22738     22737     22757
     22739     22735     22740     22739     22737     22753     22739     22737     22757
     22740     22742     22743     22740     22742     22744     22740     22750     22751
     22740     22750     22752     22740     22750     22753     22741     22740     22742
     22741     22740     22750     22742     22740     22750     22742     22744     22745
     22742     22744     22746     22743     22742     22744     22744     22746     22747
     22744     22746     22748     22744     22746     22749     22745     22744     22746
     22747     22746     22748     22747     22746     22749     22748     22746     22749
     22750     22752     22762     22750     22753     22754     22750     22753     22755
     22751     22750     22752     22751     22750     22753     22752     22750     22753
     22752     22762     22763     22752     22762     22766     22752     22762     22767
     22753     22737     22757     22753     22755     22756     22754     22753     22755
     22757     22760     22761     22758     22757     22759     22758     22757     22760
     22759     22757     22760     22762     22766     22764     22762     22767     22768
     22762     22767     22769     22762     22767     22770     22763     22762     22766
     22763     22762     22767     22764     22774     22770     22764     22774     22775
     22764     22774     22776     22764     22778     22779     22764     22778     22780
     22764     22778     22781     22765     22764     22766     22765     22764     22774
     22765     22764     22778     22766     22762     22767     22766     22764     22774
     22766     22764     22778     22767     22769     22783     22767     22770     22771
     22767     22770     22772     22767     22770     22774     22768     22767     22769
     22768     22767     22770     22769     22767     22770     22769     22783     22784
     22769     22783     22787     22769     22783     22788     22770     22772     22773
     22770     22774     22775     22770     22774     22776     22771     22770     22772
     22771     22770     22774     22772     22770     22774     22774     22764     22778
     22774     22776     22777     22775     22774     22776     22778     22781     22782
     22779     22778     22780     22779     22778     22781     22780     22778     22781
     22783     22787     22785     22783     22788     22789     22783     22788     22790
     22783     22788     22791     22784     22783     22787     22784     22783     22788
     22785     22795     22791     22785     22795     22796     22785     22795     22797
     22785     22799     22800     22785     22799     22801     22785     22799     22802
     22786     22785     22787     22786     22785     22795     22786     22785     22799
     22787     22783     22788     22787     22785     22795     22787     22785     22799
     22788     22790     22803     22788     22791     22792     22788     22791     22793
     22788     22791     22795     22789     22788     22790     22789     22788     22791
     22790     22788     22791     22790     22803     22804     22790     22803     22807
     22790     22803     22808     22791     22793     22794     22791     22795     22796
     22791     22795     22797     22792     22791     22793     22792     22791     22795
     22793     22791     22795     22795     22785     22799     22795     22797     22798
     22796     22795     22797     22800     22799     22801     22800     22799     22802
     22801     22799     22802     22803     22807     22805     22803     22808     22809
     22803     22808     22810     22803     22808     22811     22804     22803     22807
     22804     22803     22808     22805     22814     22811     22805     22814     22815
     22805     22814     22816     22805     22818     22819     22805     22818     22820
     22805     22818     22821     22806     22805     22807     22806     22805     22814
     22806     22805     22818     22807     22803     22808     22807     22805     22814
     22807     22805     22818     22808     22810     22822     22808     22811     22812
     22808     22811     22813     22808     22811     22814     22809     22808     22810
     22809     22808     22811     22810     22808     22811     22810     22822     22823
     22810     22822     22826     22810     22822     22827     22811     22813     22850
     22811     22814     22815     22811     22814     22816     22812     22811     22813
     22812     22811     22814     22813     22811     22814     22813     22850     22851
     22813     22850     22854     22813     22850     22855     22814     22805     22818
     22814     22816     22817     22815     22814     22816     22819     22818     22820
     22819     22818     22821     22820     22818     22821     22822     22826     22824
     22822     22827     22828     22822     22827     22829     22822     22827     22837
     22823     22822     22826     22823     22822     22827     22824     22841     22837
     22824     22841     22842     22824     22841     22843     22824     22845     22846
     22824     22845     22847     22824     22845     22848     22825     22824     22826
     22825     22824     22841     22825     22824     22845     22826     22822     22827
     22826     22824     22841     22826     22824     22845     22827     22829     22830
     22827     22829     22831     22827     22837     22838     22827     22837     22839
     22827     22837     22841     22828     22827     22829     22828     22827     22837
     22829     22827     22837     22829     22831     22832     22829     22831     22833
     22830     22829     22831     22831     22833     22834     22831     22833     22835
     22831     22833     22836     22832     22831     22833     22834     22833     22835
     22834     22833     22836     22835     22833     22836     22837     22839     22840
     22837     22841     22842     22837     22841     22843     22838     22837     22839
     22838     22837     22841     22839     22837     22841     22841     22824     22845
     22841     22843     22844     22842     22841     22843     22845     22848     22849
     22846     22845     22847     22846     22845     22848     22847     22845     22848
     22850     22854     22852     22850     22855     22856     22850     22855     22857
     22850     22855     22865     22851     22850     22854     22851     22850     22855
     22852     22868     22865     22852     22868     22869     22852     22868     22870
     22852     22872     22873     22852     22872     22874     22852     22872     22875
     22853     22852     22854     22853     22852     22868     22853     22852     22872
     22854     22850     22855     22854     22852     22868     22854     22852     22872
     22855     22857     22858     22855     22857     22859     22855     22865     22866
     22855     22865     22867     22855     22865     22868     22856     22855     22857
     22856     22855     22865     22857     22855     22865     22857     22859     22860
     22857     22859     22861     22858     22857     22859     22859     22861     22862
     22859     22861     22863     22859     22861     22864     22860     22859     22861
     22862     22861     22863     22862     22861     22864     22863     22861     22864
     22865     22867     22877     22865     22868     22869     22865     22868     22870
     22866     22865     22867     22866     22865     22868     22867     22865     22868
     22867     22877     22878     22867     22877     22881     22867     22877     22882
     22868     22852     22872     22868     22870     22871     22869     22868     22870
     22872     22875     22876     22873     22872     22874     22873     22872     22875
     22874     22872     22875     22877     22881     22879     22877     22882     22883
     22877     22882     22884     22877     22882     22885     22878     22877     22881
     22878     22877     22882     22879     22889     22885     22879     22889     22890
     22879     22889     22891     22879     22893     22894     22879     22893     22895
     22879     22893     22896     22880     22879     22881     22880     22879     22889
     22880     22879     22893     22881     22877     22882     22881     22879     22889
     22881     22879     22893     22882     22884     22898     22882     22885     22886
     22882     22885     22887     22882     22885     22889     22883     22882     22884
     22883     22882     22885     22884     22882     22885     22884     22898     22899
     22884     22898     22902     22884     22898     22903     22885     22887     22888
     22885     22889     22890     22885     22889     22891     22886     22885     22887
     22886     22885     22889     22887     22885     22889     22889     22879     22893
     22889     22891     22892     22890     22889     22891     22893     22896     22897
     22894     22893     22895     22894     22893     22896     22895     22893     22896
     22898     22902     22900     22898     22903     22904     22898     22903     22905
     22898     22903     22906     22899     22898     22902     22899     22898     22903
     22900     22910     22906     22900     22910     22911     22900     22910     22912
     22900     22914     22915     22900     22914     22916     22900     22914     22917
     22901     22900     22902     22901     22900     22910     22901     22900     22914
     22902     22898     22903     22902     22900     22910     22902     22900     22914
     22903     22905     22918     22903     22906     22907     22903     22906     22908
     22903     22906     22910     22904     22903     22905     22904     22903     22906
     22905     22903     22906     22905     22918     22919     22905     22918     22922
     22905     22918     22923     22906     22908     22909     22906     22910     22911
     22906     22910     22912     22907     22906     22908     22907     22906     22910
     22908     22906     22910     22910     22900     22914     22910     22912     22913
     22911     22910     22912     22915     22914     22916     22915     22914     22917
     22916     22914     22917     22918     22922     22920     22918     22923     22924
     22918     22923     22925     22918     22923     22926     22919     22918     22922
     22919     22918     22923     22920     22929     22926     22920     22929     22930
     22920     22929     22931     22920     22933     22934     22920     22933     22935
     22920     22933     22936     22921     22920     22922     22921     22920     22929
     22921     22920     22933     22922     22918     22923     22922     22920     22929
     22922     22920     22933     22923     22925     22937     22923     22926     22927
     22923     22926     22928     22923     22926     22929     22924     22923     22925
     22924     22923     22926     22925     22923     22926     22925     22937     22938
     22925     22937     22941     22925     22937     22942     22926     22928     22965
     22926     22929     22930     22926     22929     22931     22927     22926     22928
     22927     22926     22929     22928     22926     22929     22928     22965     22966
     22928     22965     22969     22928     22965     22970     22929     22920     22933
     22929     22931     22932     22930     22929     22931     22934     22933     22935
     22934     22933     22936     22935     22933     22936     22937     22941     22939
     22937     22942     22943     22937     22942     22944     22937     22942     22952
     22938     22937     22941     22938     22937     22942     22939     22956     22952
     22939     22956     22957     22939     22956     22958     22939     22960     22961
     22939     22960     22962     22939     22960     22963     22940     22939     22941
     22940     22939     22956     22940     22939     22960     22941     22937     22942
     22941     22939     22956     22941     22939     22960     22942     22944     22945
     22942     22944     22946     22942     22952     22953     22942     22952     22954
     22942     22952     22956     22943     22942     22944     22943     22942     22952
     22944     22942     22952     22944     22946     22947     22944     22946     22948
     22945     22944     22946     22946     22948     22949     22946     22948     22950
     22946     22948     22951     22947     22946     22948     22949     22948     22950
     22949     22948     22951     22950     22948     22951     22952     22954     22955
     22952     22956     22957     22952     22956     22958     22953     22952     22954
     22953     22952     22956     22954     22952     22956     22956     22939     22960
     22956     22958     22959     22957     22956     22958     22960     22963     22964
     22961     22960     22962     22961     22960     22963     22962     22960     22963
     22965     22969     22967     22965     22970     22971     22965     22970     22972
     22965     22970     22980     22966     22965     22969     22966     22965     22970
     22967     22983     22980     22967     22983     22984     22967     22983     22985
     22967     22987     22988     22967     22987     22989     22967     22987     22990
     22968     22967     22969     22968     22967     22983     22968     22967     22987
     22969     22965     22970     22969     22967     22983     22969     22967     22987
     22970     22972     22973     22970     22972     22974     22970     22980     22981
     22970     22980     22982     22970     22980     22983     22971     22970     22972
     22971     22970     22980     22972     22970     22980     22972     22974     22975
     22972     22974     22976     22973     22972     22974     22974     22976     22977
     22974     22976     22978     22974     22976     22979     22975     22974     22976
     22977     22976     22978     22977     22976     22979     22978     22976     22979
     22980     22982     22992     22980     22983     22984     22980     22983     22985
     22981     22980     22982     22981     22980     22983     22982     22980     22983
     22982     22992     22993     22982     22992     22996     22982     22992     22997
     22983     22967     22987     22983     22985     22986     22984     22983     22985
     22987     22990     22991     22988     22987     22989     22988     22987     22990
     22989     22987     22990     22992     22996     22994     22992     22997     22998
     22992     22997     22999     22992     22997     23000     22993     22992     22996
     22993     22992     22997     22994     23004     23000     22994     23004     23005
     22994     23004     23006     22994     23008     23009     22994     23008     23010
     22994     23008     23011     22995     22994     22996     22995     22994     23004
     22995     22994     23008     22996     22992     22997     22996     22994     23004
     22996     22994     23008     22997     22999     23013     22997     23000     23001
     22997     23000     23002     22997     23000     23004     22998     22997     22999
     22998     22997     23000     22999     22997     23000     22999     23013     23014
     22999     23013     23017     22999     23013     23018     23000     23002     23003
     23000     23004     23005     23000     23004     23006     23001     23000     23002
     23001     23000     23004     23002     23000     23004     23004     22994     23008
     23004     23006     23007     23005     23004     23006     23008     23011     23012
     23009     23008     23010     23009     23008     23011     23010     23008     23011
     23013     23017     23015     23013     23018     23019     23013     23018     23020
     23013     23018     23021     23014     23013     23017     23014     23013     23018
     23015     23025     23021     23015     23025     23026     23015     23025     23027
     23015     23029     23030     23015     23029     23031     23015     23029     23032
     23016     23015     23017     23016     23015     23025     23016     23015     23029
     23017     23013     23018     23017     23015     23025     23017     23015     23029
     23018     23020     23033     23018     23021     23022     23018     23021     23023
     23018     23021     23025     23019     23018     23020     23019     23018     23021
     23020     23018     23021     23020     23033     23034     23020     23033     23037
     23020     23033     23038     23021     23023     23024     23021     23025     23026
     23021     23025     23027     23022     23021     23023     23022     23021     23025
     23023     23021     23025     23025     23015     23029     23025     23027     23028
     23026     23025     23027     23030     23029     23031     23030     23029     23032
     23031     23029     23032     23033     23037     23035     23033     23038     23039
     23033     23038     23040     23033     23038     23041     23034     23033     23037
     23034     23033     23038     23035     23044     23041     23035     23044     23045
     23035     23044     23046     23035     23048     23049     23035     23048     23050
     23035     23048     23051     23036     23035     23037     23036     23035     23044
     23036     23035     23048     23037     23033     23038     23037     23035     23044
     23037     23035     23048     23038     23040     23052     23038     23041     23042
     23038     23041     23043     23038     23041     23044     23039     23038     23040
     23039     23038     23041     23040     23038     23041     23040     23052     23053
     23040     23052     23056     23040     23052     23057     23041     23043     23080
     23041     23044     23045     23041     23044     23046     23042     23041     23043
     23042     23041     23044     23043     23041     23044     23043     23080     23081
     23043     23080     23084     23043     23080     23085     23044     23035     23048
     23044     23046     23047     23045     23044     23046     23049     23048     23050
     23049     23048     23051     23050     23048     23051     23052     23056     23054
     23052     23057     23058     23052     23057     23059     23052     23057     23067
     23053     23052     23056     23053     23052     23057     23054     23071     23067
     23054     23071     23072     23054     23071     23073     23054     23075     23076
     23054     23075     23077     23054     23075     23078     23055     23054     23056
     23055     23054     23071     23055     23054     23075     23056     23052     23057
     23056     23054     23071     23056     23054     23075     23057     23059     23060
     23057     23059     23061     23057     23067     23068     23057     23067     23069
     23057     23067     23071     23058     23057     23059     23058     23057     23067
     23059     23057     23067     23059     23061     23062     23059     23061     23063
     23060     23059     23061     23061     23063     23064     23061     23063     23065
     23061     23063     23066     23062     23061     23063     23064     23063     23065
     23064     23063     23066     23065     23063     23066     23067     23069     23070
     23067     23071     23072     23067     23071     23073     23068     23067     23069
     23068     23067     23071     23069     23067     23071     23071     23054     23075
     23071     23073     23074     23072     23071     23073     23075     23078     23079
     23076     23075     23077     23076     23075     23078     23077     23075     23078
     23080     23084     23082     23080     23085     23086     23080     23085     23087
     23080     23085     23095     23081     23080     23084     23081     23080     23085
     23082     23098     23095     23082     23098     23099     23082     23098     23100
     23082     23102     23103     23082     23102     23104     23082     23102     23105
     23083     23082     23084     23083     23082     23098     23083     23082     23102
     23084     23080     23085     23084     23082     23098     23084     23082     23102
     23085     23087     23088     23085     23087     23089     23085     23095     23096
     23085     23095     23097     23085     23095     23098     23086     23085     23087
     23086     23085     23095     23087     23085     23095     23087     23089     23090
     23087     23089     23091     23088     23087     23089     23089     23091     23092
     23089     23091     23093     23089     23091     23094     23090     23089     23091
     23092     23091     23093     23092     23091     23094     23093     23091     23094
     23095     23097     23107     23095     23098     23099     23095     23098     23100
     23096     23095     23097     23096     23095     23098     23097     23095     23098
     23097     23107     23108     23097     23107     23111     23097     23107     23112
     23098     23082     23102     23098     23100     23101     23099     23098     23100
     23102     23105     23106     23103     23102     23104     23103     23102     23105
     23104     23102     23105     23107     23111     23109     23107     23112     23113
     23107     23112     23114     23107     23112     23115     23108     23107     23111
     23108     23107     23112     23109     23119     23115     23109     23119     23120
     23109     23119     23121     23109     23123     23124     23109     23123     23125
     23109     23123     23126     23110     23109     23111     23110     23109     23119
     23110     23109     23123     23111     23107     23112     23111     23109     23119
     23111     23109     23123     23112     23114     23128     23112     23115     23116
     23112     23115     23117     23112     23115     23119     23113     23112     23114
     23113     23112     23115     23114     23112     23115     23114     23128     23129
     23114     23128     23132     23114     23128     23133     23115     23117     23118
     23115     23119     23120     23115     23119     23121     23116     23115     23117
     23116     23115     23119     23117     23115     23119     23119     23109     23123
     23119     23121     23122     23120     23119     23121     23123     23126     23127
     23124     23123     23125     23124     23123     23126     23125     23123     23126
     23128     23132     23130     23128     23133     23134     23128     23133     23135
     23128     23133     23136     23129     23128     23132     23129     23128     23133
     23130     23140     23136     23130     23140     23141     23130     23140     23142
     23130     23144     23145     23130     23144     23146     23130     23144     23147
     23131     23130     23132     23131     23130     23140     23131     23130     23144
     23132     23128     23133     23132     23130     23140     23132     23130     23144
     23133     23135     23148     23133     23136     23137     23133     23136     23138
     23133     23136     23140     23134     23133     23135     23134     23133     23136
     23135     23133     23136     23135     23148     23149     23135     23148     23152
     23135     23148     23153     23136     23138     23139     23136     23140     23141
     23136     23140     23142     23137     23136     23138     23137     23136     23140
     23138     23136     23140     23140     23130     23144     23140     23142     23143
     23141     23140     23142     23145     23144     23146     23145     23144     23147
     23146     23144     23147     23148     23152     23150     23148     23153     23154
     23148     23153     23155     23148     23153     23156     23149     23148     23152
     23149     23148     23153     23150     23159     23156     23150     23159     23160
     23150     23159     23161     23150     23163     23164     23150     23163     23165
     23150     23163     23166     23151     23150     23152     23151     23150     23159
     23151     23150     23163     23152     23148     23153     23152     23150     23159
     23152     23150     23163     23153     23155     23167     23153     23156     23157
     23153     23156     23158     23153     23156     23159     23154     23153     23155
     23154     23153     23156     23155     23153     23156     23155     23167     23168
     23155     23167     23171     23155     23167     23172     23156     23158     23195
     23156     23159     23160     23156     23159     23161     23157     23156     23158
     23157     23156     23159     23158     23156     23159     23158     23195     23196
     23158     23195     23199     23158     23195     23200     23159     23150     23163
     23159     23161     23162     23160     23159     23161     23164     23163     23165
     23164     23163     23166     23165     23163     23166     23167     23171     23169
     23167     23172     23173     23167     23172     23174     23167     23172     23182
     23168     23167     23171     23168     23167     23172     23169     23186     23182
     23169     23186     23187     23169     23186     23188     23169     23190     23191
     23169     23190     23192     23169     23190     23193     23170     23169     23171
     23170     23169     23186     23170     23169     23190     23171     23167     23172
     23171     23169     23186     23171     23169     23190     23172     23174     23175
     23172     23174     23176     23172     23182     23183     23172     23182     23184
     23172     23182     23186     23173     23172     23174     23173     23172     23182
     23174     23172     23182     23174     23176     23177     23174     23176     23178
     23175     23174     23176     23176     23178     23179     23176     23178     23180
     23176     23178     23181     23177     23176     23178     23179     23178     23180
     23179     23178     23181     23180     23178     23181     23182     23184     23185
     23182     23186     23187     23182     23186     23188     23183     23182     23184
     23183     23182     23186     23184     23182     23186     23186     23169     23190
     23186     23188     23189     23187     23186     23188     23190     23193     23194
     23191     23190     23192     23191     23190     23193     23192     23190     23193
     23195     23199     23197     23195     23200     23201     23195     23200     23202
     23195     23200     23210     23196     23195     23199     23196     23195     23200
     23197     23213     23210     23197     23213     23214     23197     23213     23215
     23197     23217     23218     23197     23217     23219     23197     23217     23220
     23198     23197     23199     23198     23197     23213     23198     23197     23217
     23199     23195     23200     23199     23197     23213     23199     23197     23217
     23200     23202     23203     23200     23202     23204     23200     23210     23211
     23200     23210     23212     23200     23210     23213     23201     23200     23202
     23201     23200     23210     23202     23200     23210     23202     23204     23205
     23202     23204     23206     23203     23202     23204     23204     23206     23207
     23204     23206     23208     23204     23206     23209     23205     23204     23206
     23207     23206     23208     23207     23206     23209     23208     23206     23209
     23210     23212     23222     23210     23213     23214     23210     23213     23215
     23211     23210     23212     23211     23210     23213     23212     23210     23213
     23212     23222     23223     23212     23222     23226     23212     23222     23227
     23213     23197     23217     23213     23215     23216     23214     23213     23215
     23217     23220     23221     23218     23217     23219     23218     23217     23220
     23219     23217     23220     23222     23226     23224     23222     23227     23228
     23222     23227     23229     23222     23227     23230     23223     23222     23226
     23223     23222     23227     23224     23234     23230     23224     23234     23235
     23224     23234     23236     23224     23238     23239     23224     23238     23240
     23224     23238     23241     23225     23224     23226     23225     23224     23234
     23225     23224     23238     23226     23222     23227     23226     23224     23234
     23226     23224     23238     23227     23229     23243     23227     23230     23231
     23227     23230     23232     23227     23230     23234     23228     23227     23229
     23228     23227     23230     23229     23227     23230     23229     23243     23244
     23229     23243     23247     23229     23243     23248     23230     23232     23233
     23230     23234     23235     23230     23234     23236     23231     23230     23232
     23231     23230     23234     23232     23230     23234     23234     23224     23238
     23234     23236     23237     23235     23234     23236     23238     23241     23242
     23239     23238     23240     23239     23238     23241     23240     23238     23241
     23243     23247     23245     23243     23248     23249     23243     23248     23250
     23243     23248     23251     23244     23243     23247     23244     23243     23248
     23245     23255     23251     23245     23255     23256     23245     23255     23257
     23245     23259     23260     23245     23259     23261     23245     23259     23262
     23246     23245     23247     23246     23245     23255     23246     23245     23259
     23247     23243     23248     23247     23245     23255     23247     23245     23259
     23248     23250     23263     23248     23251     23252     23248     23251     23253
     23248     23251     23255     23249     23248     23250     23249     23248     23251
     23250     23248     23251     23250     23263     23264     23250     23263     23267
     23250     23263     23268     23251     23253     23254     23251     23255     23256
     23251     23255     23257     23252     23251     23253     23252     23251     23255
     23253     23251     23255     23255     23245     23259     23255     23257     23258
     23256     23255     23257     23260     23259     23261     23260     23259     23262
     23261     23259     23262     23263     23267     23265     23263     23268     23269
     23263     23268     23270     23263     23268     23271     23264     23263     23267
     23264     23263     23268     23265     23275     23271     23265     23275     23276
     23265     23275     23277     23265     23279     23280     23265     23279     23281
     23265     23279     23282     23266     23265     23267     23266     23265     23275
     23266     23265     23279     23267     23263     23268     23267     23265     23275
     23267     23265     23279     23268     23270     23283     23268     23271     23272
     23268     23271     23273     23268     23271     23275     23269     23268     23270
     23269     23268     23271     23270     23268     23271     23270     23283     23284
     23270     23283     23287     23270     23283     23288     23271     23273     23274
     23271     23275     23276     23271     23275     23277     23272     23271     23273
     23272     23271     23275     23273     23271     23275     23275     23265     23279
     23275     23277     23278     23276     23275     23277     23280     23279     23281
     23280     23279     23282     23281     23279     23282     23283     23287     23285
     23283     23288     23289     23283     23288     23290     23283     23288     23298
     23284     23283     23287     23284     23283     23288     23285     23302     23298
     23285     23302     23303     23285     23302     23304     23285     23306     23307
     23285     23306     23308     23285     23306     23309     23286     23285     23287
     23286     23285     23302     23286     23285     23306     23287     23283     23288
     23287     23285     23302     23287     23285     23306     23288     23290     23291
     23288     23290     23292     23288     23298     23299     23288     23298     23300
     23288     23298     23302     23289     23288     23290     23289     23288     23298
     23290     23288     23298     23290     23292     23293     23290     23292     23294
     23291     23290     23292     23292     23294     23295     23292     23294     23296
     23292     23294     23297     23293     23292     23294     23295     23294     23296
     23295     23294     23297     23296     23294     23297     23298     23300     23301
     23298     23302     23303     23298     23302     23304     23299     23298     23300
     23299     23298     23302     23300     23298     23302     23302     23285     23306
     23302     23304     23305     23303     23302     23304     23306     23309     23310
     23307     23306     23308     23307     23306     23309     23308     23306     23309
     23311     23313     23312     23311     23313     23314     23311     23313     23315
     23312     23313     23314     23312     23313     23315     23312     23610     23607
     23312     23610     23613     23312     23610     23614     23313     23312     23610
     23313     23315     23316     23313     23315     23317     23313     23315     23324
     23314     23313     23315     23315     23316     23318     23315     23324     23325
     23315     23324     23326     23315     23324     23331     23316     23315     23317
     23316     23315     23324     23316     23318     23319     23316     23318     23320
     23316     23318     23339     23317     23315     23324     23318     23320     23321
     23318     23339     23331     23318     23339     23340     23318     23339     23341
     23319     23318     23320     23319     23318     23339     23320     23318     23339
     23320     23321     23322     23320     23321     23323     23320     23321     23347
     23321     23347     23343     23321     23347     23348     23321     23347     23349
     23322     23321     23323     23322     23321     23347     23323     23321     23347
     23324     23326     23327     23324     23331     23332     23324     23331     23333
     23324     23331     23339     23325     23324     23326     23325     23324     23331
     23326     23324     23331     23326     23327     23328     23326     23327     23329
     23326     23327     23330     23328     23327     23329     23328     23327     23330
     23329     23327     23330     23331     23332     23334     23331     23339     23340
     23331     23339     23341     23332     23331     23333     23332     23331     23339
     23332     23334     23335     23332     23334     23336     23333     23331     23339
     23334     23336     23337     23334     23336     23338     23334     23336     23369
     23335     23334     23336     23336     23369     23370     23336     23369     23371
     23336     23369     23414     23337     23336     23338     23337     23336     23369
     23338     23336     23369     23339     23341     23342     23339     23341     23448
     23340     23339     23341     23341     23448     23449     23341     23448     23450
     23342     23341     23448     23343     23345     23346     23343     23347     23348
     23343     23347     23349     23343     23357     23358     23343     23357     23359
     23343     23357     23365     23344     23343     23345     23344     23343     23347
     23344     23343     23357     23345     23343     23347     23345     23343     23357
     23347     23343     23357     23347     23349     23350     23348     23347     23349
     23349     23350     23351     23349     23350     23352     23349     23350     23365
     23350     23352     23356     23350     23365     23357     23350     23365     23366
     23350     23365     23367     23351     23350     23352     23351     23350     23365
     23352     23350     23365     23352     23356     23353     23352     23356     23354
     23352     23356     23355     23353     23356     23354     23353     23356     23355
     23354     23356     23355     23357     23359     23360     23357     23365     23366
     23357     23365     23367     23358     23357     23359     23358     23357     23365
     23359     23357     23365     23359     23360     23361     23359     23360     23362
     23360     23362     23363     23360     23362     23364     23360     23362     23526
     23361     23360     23362     23362     23526     23527     23362     23526     23528
     23362     23526     23530     23363     23362     23364     23363     23362     23526
     23364     23362     23526     23365     23367     23368     23365     23367     23564
     23366     23365     23367     23367     23564     23565     23367     23564     23566
     23368     23367     23564     23369     23371     23372     23369     23414     23415
     23369     23414     23416     23369     23414     23417     23370     23369     23371
     23370     23369     23414     23371     23369     23414     23371     23372     23373
     23371     23372     23374     23372     23374     23375     23372     23374     23376
     23372     23374     23377     23373     23372     23374     23374     23377     23378
     23374     23377     23379     23374     23377     23380     23375     23374     23376
     23375     23374     23377     23376     23374     23377     23377     23380     23381
     23377     23380     23382     23377     23380     23383     23378     23377     23379
     23378     23377     23380     23379     23377     23380     23380     23383     23384
     23380     23383     23385     23380     23383     23386     23381     23380     23382
     23381     23380     23383     23382     23380     23383     23383     23386     23387
     23383     23386     23388     23383     23386     23389     23384     23383     23385
     23384     23383     23386     23385     23383     23386     23386     23389     23390
     23386     23389     23391     23386     23389     23392     23387     23386     23388
     23387     23386     23389     23388     23386     23389     23389     23392     23393
     23389     23392     23394     23389     23392     23395     23390     23389     23391
     23390     23389     23392     23391     23389     23392     23392     23395     23396
     23392     23395     23397     23392     23395     23398     23393     23392     23394
     23393     23392     23395     23394     23392     23395     23395     23398     23399
     23395     23398     23400     23395     23398     23401     23396     23395     23397
     23396     23395     23398     23397     23395     23398     23398     23401     23402
     23398     23401     23403     23398     23401     23404     23399     23398     23400
     23399     23398     23401     23400     23398     23401     23401     23404     23405
     23401     23404     23406     23401     23404     23407     23402     23401     23403
     23402     23401     23404     23403     23401     23404     23404     23407     23408
     23404     23407     23409     23404     23407     23410     23405     23404     23406
     23405     23404     23407     23406     23404     23407     23407     23410     23411
     23407     23410     23412     23407     23410     23413     23408     23407     23409
     23408     23407     23410     23409     23407     23410     23411     23410     23412
     23411     23410     23413     23412     23410     23413     23414     23417     23418
     23414     23417     23419     23414     23417     23420     23415     23414     23416
     23415     23414     23417     23416     23414     23417     23417     23420     23421
     23417     23420     23422     23417     23420     23423     23418     23417     23419
     23418     23417     23420     23419     23417     23420     23420     23423     23424
     23420     23423     23425     23420     23423     23426     23421     23420     23422
     23421     23420     23423     23422     23420     23423     23423     23426     23427
     23423     23426     23428     23423     23426     23429     23424     23423     23425
     23424     23423     23426     23425     23423     23426     23426     23429     23430
     23426     23429     23431     23426     23429     23432     23427     23426     23428
     23427     23426     23429     23428     23426     23429     23429     23432     23433
     23429     23432     23434     23429     23432     23435     23430     23429     23431
     23430     23429     23432     23431     23429     23432     23432     23435     23436
     23432     23435     23437     23432     23435     23438     23433     23432     23434
     23433     23432     23435     23434     23432     23435     23435     23438     23439
     23435     23438     23440     23435     23438     23441     23436     23435     23437
     23436     23435     23438     23437     23435     23438     23438     23441     23442
     23438     23441     23443     23438     23441     23444     23439     23438     23440
     23439     23438     23441     23440     23438     23441     23441     23444     23445
     23441     23444     23446     23441     23444     23447     23442     23441     23443
     23442     23441     23444     23443     23441     23444     23445     23444     23446
     23445     23444     23447     23446     23444     23447     23448     23450     23451
     23448     23450     23452     23448     23450     23453     23449     23448     23450
     23450     23453     23454     23450     23453     23455     23450     23453     23492
     23451     23450     23452     23451     23450     23453     23452     23450     23453
     23453     23455     23456     23453     23492     23493     23453     23492     23494
     23453     23492     23495     23454     23453     23455     23454     23453     23492
     23455     23453     23492     23455     23456     23457     23455     23456     23458
     23456     23458     23459     23456     23458     23460     23456     23458     23461
     23457     23456     23458     23458     23461     23462     23458     23461     23463
     23458     23461     23464     23459     23458     23460     23459     23458     23461
     23460     23458     23461     23461     23464     23465     23461     23464     23466
     23461     23464     23467     23462     23461     23463     23462     23461     23464
     23463     23461     23464     23464     23467     23468     23464     23467     23469
     23464     23467     23470     23465     23464     23466     23465     23464     23467
     23466     23464     23467     23467     23470     23471     23467     23470     23472
     23467     23470     23473     23468     23467     23469     23468     23467     23470
     23469     23467     23470     23470     23473     23474     23470     23473     23475
     23470     23473     23476     23471     23470     23472     23471     23470     23473
     23472     23470     23473     23473     23476     23477     23473     23476     23478
     23473     23476     23479     23474     23473     23475     23474     23473     23476
     23475     23473     23476     23476     23479     23480     23476     23479     23481
     23476     23479     23482     23477     23476     23478     23477     23476     23479
     23478     23476     23479     23479     23482     23483     23479     23482     23484
     23479     23482     23485     23480     23479     23481     23480     23479     23482
     23481     23479     23482     23482     23485     23486     23482     23485     23487
     23482     23485     23488     23483     23482     23484     23483     23482     23485
     23484     23482     23485     23485     23488     23489     23485     23488     23490
     23485     23488     23491     23486     23485     23487     23486     23485     23488
     23487     23485     23488     23489     23488     23490     23489     23488     23491
     23490     23488     23491     23492     23495     23496     23492     23495     23497
     23492     23495     23498     23493     23492     23494     23493     23492     23495
     23494     23492     23495     23495     23498     23499     23495     23498     23500
     23495     23498     23501     23496     23495     23497     23496     23495     23498
     23497     23495     23498     23498     23501     23502     23498     23501     23503
     23498     23501     23504     23499     23498     23500     23499     23498     23501
     23500     23498     23501     23501     23504     23505     23501     23504     23506
     23501     23504     23507     23502     23501     23503     23502     23501     23504
     23503     23501     23504     23504     23507     23508     23504     23507     23509
     23504     23507     23510     23505     23504     23506     23505     23504     23507
     23506     23504     23507     23507     23510     23511     23507     23510     23512
     23507     23510     23513     23508     23507     23509     23508     23507     23510
     23509     23507     23510     23510     23513     23514     23510     23513     23515
     23510     23513     23516     23511     23510     23512     23511     23510     23513
     23512     23510     23513     23513     23516     23517     23513     23516     23518
     23513     23516     23519     23514     23513     23515     23514     23513     23516
     23515     23513     23516     23516     23519     23520     23516     23519     23521
     23516     23519     23522     23517     23516     23518     23517     23516     23519
     23518     23516     23519     23519     23522     23523     23519     23522     23524
     23519     23522     23525     23520     23519     23521     23520     23519     23522
     23521     23519     23522     23523     23522     23524     23523     23522     23525
     23524     23522     23525     23526     23528     23529     23526     23530     23531
     23526     23530     23532     23526     23530     23533     23527     23526     23528
     23527     23526     23530     23528     23526     23530     23530     23533     23534
     23530     23533     23535     23530     23533     23536     23531     23530     23532
     23531     23530     23533     23532     23530     23533     23533     23536     23537
     23533     23536     23538     23533     23536     23539     23534     23533     23535
     23534     23533     23536     23535     23533     23536     23536     23539     23540
     23536     23539     23541     23536     23539     23542     23537     23536     23538
     23537     23536     23539     23538     23536     23539     23539     23542     23543
     23539     23542     23544     23539     23542     23545     23540     23539     23541
     23540     23539     23542     23541     23539     23542     23542     23545     23546
     23542     23545     23547     23542     23545     23548     23543     23542     23544
     23543     23542     23545     23544     23542     23545     23545     23548     23549
     23545     23548     23550     23545     23548     23551     23546     23545     23547
     23546     23545     23548     23547     23545     23548     23548     23551     23552
     23548     23551     23553     23548     23551     23554     23549     23548     23550
     23549     23548     23551     23550     23548     23551     23551     23554     23555
     23551     23554     23556     23551     23554     23557     23552     23551     23553
     23552     23551     23554     23553     23551     23554     23554     23557     23558
     23554     23557     23559     23554     23557     23560     23555     23554     23556
     23555     23554     23557     23556     23554     23557     23557     23560     23561
     23557     23560     23562     23557     23560     23563     23558     23557     23559
     23558     23557     23560     23559     23557     23560     23561     23560     23562
     23561     23560     23563     23562     23560     23563     23564     23566     23567
     23564     23566     23568     23564     23566     23569     23565     23564     23566
     23566     23569     23570     23566     23569     23571     23566     23569     23573
     23567     23566     23568     23567     23566     23569     23568     23566     23569
     23569     23571     23572     23569     23573     23574     23569     23573     23575
     23569     23573     23576     23570     23569     23571     23570     23569     23573
     23571     23569     23573     23573     23576     23577     23573     23576     23578
     23573     23576     23579     23574     23573     23575     23574     23573     23576
     23575     23573     23576     23576     23579     23580     23576     23579     23581
     23576     23579     23582     23577     23576     23578     23577     23576     23579
     23578     23576     23579     23579     23582     23583     23579     23582     23584
     23579     23582     23585     23580     23579     23581     23580     23579     23582
     23581     23579     23582     23582     23585     23586     23582     23585     23587
     23582     23585     23588     23583     23582     23584     23583     23582     23585
     23584     23582     23585     23585     23588     23589     23585     23588     23590
     23585     23588     23591     23586     23585     23587     23586     23585     23588
     23587     23585     23588     23588     23591     23592     23588     23591     23593
     23588     23591     23594     23589     23588     23590     23589     23588     23591
     23590     23588     23591     23591     23594     23595     23591     23594     23596
     23591     23594     23597     23592     23591     23593     23592     23591     23594
     23593     23591     23594     23594     23597     23598     23594     23597     23599
     23594     23597     23600     23595     23594     23596     23595     23594     23597
     23596     23594     23597     23597     23600     23601     23597     23600     23602
     23597     23600     23603     23598     23597     23599     23598     23597     23600
     23599     23597     23600     23600     23603     23604     23600     23603     23605
     23600     23603     23606     23601     23600     23602     23601     23600     23603
     23602     23600     23603     23604     23603     23605     23604     23603     23606
     23605     23603     23606     23607     23610     23613     23607     23610     23614
     23608     23607     23609     23608     23607     23610     23609     23607     23610
     23610     23613     23611     23610     23614     23615     23610     23614     23616
     23610     23614     23617     23611     23620     23617     23611     23620     23621
     23611     23620     23622     23611     23623     23624     23611     23623     23625
     23611     23623     23627     23612     23611     23613     23612     23611     23620
     23612     23611     23623     23613     23610     23614     23613     23611     23620
     23613     23611     23623     23614     23617     23618     23614     23617     23619
     23614     23617     23620     23615     23614     23616     23615     23614     23617
     23616     23614     23617     23617     23619     23635     23617     23620     23621
     23617     23620     23622     23618     23617     23619     23618     23617     23620
     23619     23617     23620     23619     23635     23632     23619     23635     23638
     23619     23635     23639     23620     23611     23623     23620     23622     23659
     23621     23620     23622     23622     23659     23660     23622     23659     23663
     23622     23659     23664     23623     23625     23626     23623     23627     23628
     23623     23627     23629     23623     23627     23630     23624     23623     23625
     23624     23623     23627     23625     23623     23627     23627     23630     23631
     23628     23627     23629     23628     23627     23630     23629     23627     23630
     23632     23635     23638     23632     23635     23639     23633     23632     23634
     23633     23632     23635     23634     23632     23635     23635     23638     23636
     23635     23639     23640     23635     23639     23641     23635     23639     23642
     23636     23646     23642     23636     23646     23647     23636     23646     23648
     23636     23650     23651     23636     23650     23652     23636     23650     23654
     23637     23636     23638     23637     23636     23646     23637     23636     23650
     23638     23635     23639     23638     23636     23646     23638     23636     23650
     23639     23642     23643     23639     23642     23644     23639     23642     23646
     23640     23639     23641     23640     23639     23642     23641     23639     23642
     23642     23644     23645     23642     23646     23647     23642     23646     23648
     23643     23642     23644     23643     23642     23646     23644     23642     23646
     23646     23636     23650     23646     23648     23649     23647     23646     23648
     23650     23652     23653     23650     23654     23655     23650     23654     23656
     23650     23654     23657     23651     23650     23652     23651     23650     23654
     23652     23650     23654     23654     23657     23658     23655     23654     23656
     23655     23654     23657     23656     23654     23657     23659     23663     23661
     23659     23664     23665     23659     23664     23666     23659     23664     23668
     23660     23659     23663     23660     23659     23664     23661     23671     23668
     23661     23671     23672     23661     23671     23673     23661     23678     23679
     23661     23678     23680     23661     23678     23682     23662     23661     23663
     23662     23661     23671     23662     23661     23678     23663     23659     23664
     23663     23661     23671     23663     23661     23678     23664     23666     23667
     23664     23668     23669     23664     23668     23670     23664     23668     23671
     23665     23664     23666     23665     23664     23668     23666     23664     23668
     23668     23670     23687     23668     23671     23672     23668     23671     23673
     23669     23668     23670     23669     23668     23671     23670     23668     23671
     23670     23687     23688     23670     23687     23691     23670     23687     23692
     23671     23661     23678     23671     23673     23674     23672     23671     23673
     23673     23674     23675     23673     23674     23676     23673     23674     23677
     23675     23674     23676     23675     23674     23677     23676     23674     23677
     23678     23680     23681     23678     23682     23683     23678     23682     23684
     23678     23682     23685     23679     23678     23680     23679     23678     23682
     23680     23678     23682     23682     23685     23686     23683     23682     23684
     23683     23682     23685     23684     23682     23685     23687     23691     23689
     23687     23692     23693     23687     23692     23694     23687     23692     23696
     23688     23687     23691     23688     23687     23692     23689     23699     23696
     23689     23699     23700     23689     23699     23701     23689     23706     23707
     23689     23706     23708     23689     23706     23710     23690     23689     23691
     23690     23689     23699     23690     23689     23706     23691     23687     23692
     23691     23689     23699     23691     23689     23706     23692     23694     23695
     23692     23696     23697     23692     23696     23698     23692     23696     23699
     23693     23692     23694     23693     23692     23696     23694     23692     23696
     23696     23698     23740     23696     23699     23700     23696     23699     23701
     23697     23696     23698     23697     23696     23699     23698     23696     23699
     23698     23740     23741     23698     23740     23744     23698     23740     23745
     23699     23689     23706     23699     23701     23702     23700     23699     23701
     23701     23702     23703     23701     23702     23704     23701     23702     23705
     23703     23702     23704     23703     23702     23705     23704     23702     23705
     23706     23708     23709     23706     23710     23711     23706     23710     23712
     23706     23710     23713     23707     23706     23708     23707     23706     23710
     23708     23706     23710     23710     23713     23714     23711     23710     23712
     23711     23710     23713     23712     23710     23713     23713     23714     23715
     23713     23714     23718     23713     23714     23719     23714     23718     23716
     23714     23719     23720     23714     23719     23721     23714     23719     23723
     23715     23714     23718     23715     23714     23719     23716     23727     23723
     23716     23727     23728     23716     23727     23729     23716     23731     23732
     23716     23731     23733     23716     23731     23735     23717     23716     23718
     23717     23716     23727     23717     23716     23731     23718     23714     23719
     23718     23716     23727     23718     23716     23731     23719     23721     23722
     23719     23723     23724     23719     23723     23725     23719     23723     23727
     23720     23719     23721     23720     23719     23723     23721     23719     23723
     23723     23725     23726     23723     23727     23728     23723     23727     23729
     23724     23723     23725     23724     23723     23727     23725     23723     23727
     23727     23716     23731     23727     23729     23730     23728     23727     23729
     23731     23733     23734     23731     23735     23736     23731     23735     23737
     23731     23735     23738     23732     23731     23733     23732     23731     23735
     23733     23731     23735     23735     23738     23739     23736     23735     23737
     23736     23735     23738     23737     23735     23738     23740     23744     23742
     23740     23745     23746     23740     23745     23747     23740     23745     23749
     23741     23740     23744     23741     23740     23745     23742     23752     23749
     23742     23752     23753     23742     23752     23754     23742     23756     23757
     23742     23756     23758     23742     23756     23759     23743     23742     23744
     23743     23742     23752     23743     23742     23756     23744     23740     23745
     23744     23742     23752     23744     23742     23756     23745     23747     23748
     23745     23749     23750     23745     23749     23751     23745     23749     23752
     23746     23745     23747     23746     23745     23749     23747     23745     23749
     23749     23751     23761     23749     23752     23753     23749     23752     23754
     23750     23749     23751     23750     23749     23752     23751     23749     23752
     23751     23761     23762     23751     23761     23765     23751     23761     23766
     23752     23742     23756     23752     23754     23755     23753     23752     23754
     23756     23759     23760     23757     23756     23758     23757     23756     23759
     23758     23756     23759     23761     23765     23763     23761     23766     23767
     23761     23766     23768     23761     23766     23769     23762     23761     23765
     23762     23761     23766     23763     23772     23769     23763     23772     23773
     23763     23772     23774     23763     23776     23777     23763     23776     23778
     23763     23776     23779     23764     23763     23765     23764     23763     23772
     23764     23763     23776     23765     23761     23766     23765     23763     23772
     23765     23763     23776     23766     23768     23781     23766     23769     23770
     23766     23769     23771     23766     23769     23772     23767     23766     23768
     23767     23766     23769     23768     23766     23769     23768     23781     23782
     23768     23781     23785     23768     23781     23786     23769     23771     23824
     23769     23772     23773     23769     23772     23774     23770     23769     23771
     23770     23769     23772     23771     23769     23772     23771     23824     23825
     23771     23824     23828     23771     23824     23829     23772     23763     23776
     23772     23774     23775     23773     23772     23774     23776     23779     23780
     23777     23776     23778     23777     23776     23779     23778     23776     23779
     23781     23785     23783     23781     23786     23787     23781     23786     23788
     23781     23786     23789     23782     23781     23785     23782     23781     23786
     23783     23793     23789     23783     23793     23794     23783     23793     23795
     23783     23797     23798     23783     23797     23799     23783     23797     23800
     23784     23783     23785     23784     23783     23793     23784     23783     23797
     23785     23781     23786     23785     23783     23793     23785     23783     23797
     23786     23788     23802     23786     23789     23790     23786     23789     23791
     23786     23789     23793     23787     23786     23788     23787     23786     23789
     23788     23786     23789     23788     23802     23803     23788     23802     23806
     23788     23802     23807     23789     23791     23792     23789     23793     23794
     23789     23793     23795     23790     23789     23791     23790     23789     23793
     23791     23789     23793     23793     23783     23797     23793     23795     23796
     23794     23793     23795     23797     23800     23801     23798     23797     23799
     23798     23797     23800     23799     23797     23800     23802     23806     23804
     23802     23807     23808     23802     23807     23809     23802     23807     23811
     23803     23802     23806     23803     23802     23807     23804     23815     23811
     23804     23815     23816     23804     23815     23817     23804     23819     23820
     23804     23819     23821     23804     23819     23822     23805     23804     23806
     23805     23804     23815     23805     23804     23819     23806     23802     23807
     23806     23804     23815     23806     23804     23819     23807     23809     23810
     23807     23811     23812     23807     23811     23813     23807     23811     23815
     23808     23807     23809     23808     23807     23811     23809     23807     23811
     23811     23813     23814     23811     23815     23816     23811     23815     23817
     23812     23811     23813     23812     23811     23815     23813     23811     23815
     23815     23804     23819     23815     23817     23818     23816     23815     23817
     23819     23822     23823     23820     23819     23821     23820     23819     23822
     23821     23819     23822     23824     23828     23826     23824     23829     23830
     23824     23829     23831     23824     23829     23833     23825     23824     23828
     23825     23824     23829     23826     23836     23833     23826     23836     23837
     23826     23836     23838     23826     23840     23841     23826     23840     23842
     23826     23840     23843     23827     23826     23828     23827     23826     23836
     23827     23826     23840     23828     23824     23829     23828     23826     23836
     23828     23826     23840     23829     23831     23832     23829     23833     23834
     23829     23833     23835     23829     23833     23836     23830     23829     23831
     23830     23829     23833     23831     23829     23833     23833     23835     23845
     23833     23836     23837     23833     23836     23838     23834     23833     23835
     23834     23833     23836     23835     23833     23836     23835     23845     23846
     23835     23845     23849     23835     23845     23850     23836     23826     23840
     23836     23838     23839     23837     23836     23838     23840     23843     23844
     23841     23840     23842     23841     23840     23843     23842     23840     23843
     23845     23849     23847     23845     23850     23851     23845     23850     23852
     23845     23850     23860     23846     23845     23849     23846     23845     23850
     23847     23863     23860     23847     23863     23864     23847     23863     23865
     23847     23867     23868     23847     23867     23869     23847     23867     23870
     23848     23847     23849     23848     23847     23863     23848     23847     23867
     23849     23845     23850     23849     23847     23863     23849     23847     23867
     23850     23852     23853     23850     23852     23854     23850     23860     23861
     23850     23860     23862     23850     23860     23863     23851     23850     23852
     23851     23850     23860     23852     23850     23860     23852     23854     23855
     23852     23854     23856     23853     23852     23854     23854     23856     23857
     23854     23856     23858     23854     23856     23859     23855     23854     23856
     23857     23856     23858     23857     23856     23859     23858     23856     23859
     23860     23862     23872     23860     23863     23864     23860     23863     23865
     23861     23860     23862     23861     23860     23863     23862     23860     23863
     23862     23872     23873     23862     23872     23876     23862     23872     23877
     23863     23847     23867     23863     23865     23866     23864     23863     23865
     23867     23870     23871     23868     23867     23869     23868     23867     23870
     23869     23867     23870     23872     23876     23874     23872     23877     23878
     23872     23877     23879     23872     23877     23880     23873     23872     23876
     23873     23872     23877     23874     23884     23880     23874     23884     23885
     23874     23884     23886     23874     23888     23889     23874     23888     23890
     23874     23888     23891     23875     23874     23876     23875     23874     23884
     23875     23874     23888     23876     23872     23877     23876     23874     23884
     23876     23874     23888     23877     23879     23893     23877     23880     23881
     23877     23880     23882     23877     23880     23884     23878     23877     23879
     23878     23877     23880     23879     23877     23880     23879     23893     23894
     23879     23893     23897     23879     23893     23898     23880     23882     23883
     23880     23884     23885     23880     23884     23886     23881     23880     23882
     23881     23880     23884     23882     23880     23884     23884     23874     23888
     23884     23886     23887     23885     23884     23886     23888     23891     23892
     23889     23888     23890     23889     23888     23891     23890     23888     23891
     23893     23897     23895     23893     23898     23899     23893     23898     23900
     23893     23898     23901     23894     23893     23897     23894     23893     23898
     23895     23905     23901     23895     23905     23906     23895     23905     23907
     23895     23909     23910     23895     23909     23911     23895     23909     23912
     23896     23895     23897     23896     23895     23905     23896     23895     23909
     23897     23893     23898     23897     23895     23905     23897     23895     23909
     23898     23900     23913     23898     23901     23902     23898     23901     23903
     23898     23901     23905     23899     23898     23900     23899     23898     23901
     23900     23898     23901     23900     23913     23914     23900     23913     23917
     23900     23913     23918     23901     23903     23904     23901     23905     23906
     23901     23905     23907     23902     23901     23903     23902     23901     23905
     23903     23901     23905     23905     23895     23909     23905     23907     23908
     23906     23905     23907     23910     23909     23911     23910     23909     23912
     23911     23909     23912     23913     23917     23915     23913     23918     23919
     23913     23918     23920     23913     23918     23921     23914     23913     23917
     23914     23913     23918     23915     23924     23921     23915     23924     23925
     23915     23924     23926     23915     23928     23929     23915     23928     23930
     23915     23928     23931     23916     23915     23917     23916     23915     23924
     23916     23915     23928     23917     23913     23918     23917     23915     23924
     23917     23915     23928     23918     23920     23932     23918     23921     23922
     23918     23921     23923     23918     23921     23924     23919     23918     23920
     23919     23918     23921     23920     23918     23921     23920     23932     23933
     23920     23932     23936     23920     23932     23937     23921     23923     23960
     23921     23924     23925     23921     23924     23926     23922     23921     23923
     23922     23921     23924     23923     23921     23924     23923     23960     23961
     23923     23960     23964     23923     23960     23965     23924     23915     23928
     23924     23926     23927     23925     23924     23926     23929     23928     23930
     23929     23928     23931     23930     23928     23931     23932     23936     23934
     23932     23937     23938     23932     23937     23939     23932     23937     23947
     23933     23932     23936     23933     23932     23937     23934     23951     23947
     23934     23951     23952     23934     23951     23953     23934     23955     23956
     23934     23955     23957     23934     23955     23958     23935     23934     23936
     23935     23934     23951     23935     23934     23955     23936     23932     23937
     23936     23934     23951     23936     23934     23955     23937     23939     23940
     23937     23939     23941     23937     23947     23948     23937     23947     23949
     23937     23947     23951     23938     23937     23939     23938     23937     23947
     23939     23937     23947     23939     23941     23942     23939     23941     23943
     23940     23939     23941     23941     23943     23944     23941     23943     23945
     23941     23943     23946     23942     23941     23943     23944     23943     23945
     23944     23943     23946     23945     23943     23946     23947     23949     23950
     23947     23951     23952     23947     23951     23953     23948     23947     23949
     23948     23947     23951     23949     23947     23951     23951     23934     23955
     23951     23953     23954     23952     23951     23953     23955     23958     23959
     23956     23955     23957     23956     23955     23958     23957     23955     23958
     23960     23964     23962     23960     23965     23966     23960     23965     23967
     23960     23965     23975     23961     23960     23964     23961     23960     23965
     23962     23978     23975     23962     23978     23979     23962     23978     23980
     23962     23982     23983     23962     23982     23984     23962     23982     23985
     23963     23962     23964     23963     23962     23978     23963     23962     23982
     23964     23960     23965     23964     23962     23978     23964     23962     23982
     23965     23967     23968     23965     23967     23969     23965     23975     23976
     23965     23975     23977     23965     23975     23978     23966     23965     23967
     23966     23965     23975     23967     23965     23975     23967     23969     23970
     23967     23969     23971     23968     23967     23969     23969     23971     23972
     23969     23971     23973     23969     23971     23974     23970     23969     23971
     23972     23971     23973     23972     23971     23974     23973     23971     23974
     23975     23977     23987     23975     23978     23979     23975     23978     23980
     23976     23975     23977     23976     23975     23978     23977     23975     23978
     23977     23987     23988     23977     23987     23991     23977     23987     23992
     23978     23962     23982     23978     23980     23981     23979     23978     23980
     23982     23985     23986     23983     23982     23984     23983     23982     23985
     23984     23982     23985     23987     23991     23989     23987     23992     23993
     23987     23992     23994     23987     23992     23995     23988     23987     23991
     23988     23987     23992     23989     23999     23995     23989     23999     24000
     23989     23999     24001     23989     24003     24004     23989     24003     24005
     23989     24003     24006     23990     23989     23991     23990     23989     23999
     23990     23989     24003     23991     23987     23992     23991     23989     23999
     23991     23989     24003     23992     23994     24008     23992     23995     23996
     23992     23995     23997     23992     23995     23999     23993     23992     23994
     23993     23992     23995     23994     23992     23995     23994     24008     24009
     23994     24008     24012     23994     24008     24013     23995     23997     23998
     23995     23999     24000     23995     23999     24001     23996     23995     23997
     23996     23995     23999     23997     23995     23999     23999     23989     24003
     23999     24001     24002     24000     23999     24001     24003     24006     24007
     24004     24003     24005     24004     24003     24006     24005     24003     24006
     24008     24012     24010     24008     24013     24014     24008     24013     24015
     24008     24013     24016     24009     24008     24012     24009     24008     24013
     24010     24020     24016     24010     24020     24021     24010     24020     24022
     24010     24024     24025     24010     24024     24026     24010     24024     24027
     24011     24010     24012     24011     24010     24020     24011     24010     24024
     24012     24008     24013     24012     24010     24020     24012     24010     24024
     24013     24015     24028     24013     24016     24017     24013     24016     24018
     24013     24016     24020     24014     24013     24015     24014     24013     24016
     24015     24013     24016     24015     24028     24029     24015     24028     24032
     24015     24028     24033     24016     24018     24019     24016     24020     24021
     24016     24020     24022     24017     24016     24018     24017     24016     24020
     24018     24016     24020     24020     24010     24024     24020     24022     24023
     24021     24020     24022     24025     24024     24026     24025     24024     24027
     24026     24024     24027     24028     24032     24030     24028     24033     24034
     24028     24033     24035     24028     24033     24036     24029     24028     24032
     24029     24028     24033     24030     24039     24036     24030     24039     24040
     24030     24039     24041     24030     24043     24044     24030     24043     24045
     24030     24043     24046     24031     24030     24032     24031     24030     24039
     24031     24030     24043     24032     24028     24033     24032     24030     24039
     24032     24030     24043     24033     24035     24047     24033     24036     24037
     24033     24036     24038     24033     24036     24039     24034     24033     24035
     24034     24033     24036     24035     24033     24036     24035     24047     24048
     24035     24047     24051     24035     24047     24052     24036     24038     24075
     24036     24039     24040     24036     24039     24041     24037     24036     24038
     24037     24036     24039     24038     24036     24039     24038     24075     24076
     24038     24075     24079     24038     24075     24080     24039     24030     24043
     24039     24041     24042     24040     24039     24041     24044     24043     24045
     24044     24043     24046     24045     24043     24046     24047     24051     24049
     24047     24052     24053     24047     24052     24054     24047     24052     24062
     24048     24047     24051     24048     24047     24052     24049     24066     24062
     24049     24066     24067     24049     24066     24068     24049     24070     24071
     24049     24070     24072     24049     24070     24073     24050     24049     24051
     24050     24049     24066     24050     24049     24070     24051     24047     24052
     24051     24049     24066     24051     24049     24070     24052     24054     24055
     24052     24054     24056     24052     24062     24063     24052     24062     24064
     24052     24062     24066     24053     24052     24054     24053     24052     24062
     24054     24052     24062     24054     24056     24057     24054     24056     24058
     24055     24054     24056     24056     24058     24059     24056     24058     24060
     24056     24058     24061     24057     24056     24058     24059     24058     24060
     24059     24058     24061     24060     24058     24061     24062     24064     24065
     24062     24066     24067     24062     24066     24068     24063     24062     24064
     24063     24062     24066     24064     24062     24066     24066     24049     24070
     24066     24068     24069     24067     24066     24068     24070     24073     24074
     24071     24070     24072     24071     24070     24073     24072     24070     24073
     24075     24079     24077     24075     24080     24081     24075     24080     24082
     24075     24080     24090     24076     24075     24079     24076     24075     24080
     24077     24093     24090     24077     24093     24094     24077     24093     24095
     24077     24097     24098     24077     24097     24099     24077     24097     24100
     24078     24077     24079     24078     24077     24093     24078     24077     24097
     24079     24075     24080     24079     24077     24093     24079     24077     24097
     24080     24082     24083     24080     24082     24084     24080     24090     24091
     24080     24090     24092     24080     24090     24093     24081     24080     24082
     24081     24080     24090     24082     24080     24090     24082     24084     24085
     24082     24084     24086     24083     24082     24084     24084     24086     24087
     24084     24086     24088     24084     24086     24089     24085     24084     24086
     24087     24086     24088     24087     24086     24089     24088     24086     24089
     24090     24092     24102     24090     24093     24094     24090     24093     24095
     24091     24090     24092     24091     24090     24093     24092     24090     24093
     24092     24102     24103     24092     24102     24106     24092     24102     24107
     24093     24077     24097     24093     24095     24096     24094     24093     24095
     24097     24100     24101     24098     24097     24099     24098     24097     24100
     24099     24097     24100     24102     24106     24104     24102     24107     24108
     24102     24107     24109     24102     24107     24110     24103     24102     24106
     24103     24102     24107     24104     24114     24110     24104     24114     24115
     24104     24114     24116     24104     24118     24119     24104     24118     24120
     24104     24118     24121     24105     24104     24106     24105     24104     24114
     24105     24104     24118     24106     24102     24107     24106     24104     24114
     24106     24104     24118     24107     24109     24123     24107     24110     24111
     24107     24110     24112     24107     24110     24114     24108     24107     24109
     24108     24107     24110     24109     24107     24110     24109     24123     24124
     24109     24123     24127     24109     24123     24128     24110     24112     24113
     24110     24114     24115     24110     24114     24116     24111     24110     24112
     24111     24110     24114     24112     24110     24114     24114     24104     24118
     24114     24116     24117     24115     24114     24116     24118     24121     24122
     24119     24118     24120     24119     24118     24121     24120     24118     24121
     24123     24127     24125     24123     24128     24129     24123     24128     24130
     24123     24128     24131     24124     24123     24127     24124     24123     24128
     24125     24135     24131     24125     24135     24136     24125     24135     24137
     24125     24139     24140     24125     24139     24141     24125     24139     24142
     24126     24125     24127     24126     24125     24135     24126     24125     24139
     24127     24123     24128     24127     24125     24135     24127     24125     24139
     24128     24130     24143     24128     24131     24132     24128     24131     24133
     24128     24131     24135     24129     24128     24130     24129     24128     24131
     24130     24128     24131     24130     24143     24144     24130     24143     24147
     24130     24143     24148     24131     24133     24134     24131     24135     24136
     24131     24135     24137     24132     24131     24133     24132     24131     24135
     24133     24131     24135     24135     24125     24139     24135     24137     24138
     24136     24135     24137     24140     24139     24141     24140     24139     24142
     24141     24139     24142     24143     24147     24145     24143     24148     24149
     24143     24148     24150     24143     24148     24151     24144     24143     24147
     24144     24143     24148     24145     24154     24151     24145     24154     24155
     24145     24154     24156     24145     24158     24159     24145     24158     24160
     24145     24158     24161     24146     24145     24147     24146     24145     24154
     24146     24145     24158     24147     24143     24148     24147     24145     24154
     24147     24145     24158     24148     24150     24162     24148     24151     24152
     24148     24151     24153     24148     24151     24154     24149     24148     24150
     24149     24148     24151     24150     24148     24151     24150     24162     24163
     24150     24162     24166     24150     24162     24167     24151     24153     24190
     24151     24154     24155     24151     24154     24156     24152     24151     24153
     24152     24151     24154     24153     24151     24154     24153     24190     24191
     24153     24190     24194     24153     24190     24195     24154     24145     24158
     24154     24156     24157     24155     24154     24156     24159     24158     24160
     24159     24158     24161     24160     24158     24161     24162     24166     24164
     24162     24167     24168     24162     24167     24169     24162     24167     24177
     24163     24162     24166     24163     24162     24167     24164     24181     24177
     24164     24181     24182     24164     24181     24183     24164     24185     24186
     24164     24185     24187     24164     24185     24188     24165     24164     24166
     24165     24164     24181     24165     24164     24185     24166     24162     24167
     24166     24164     24181     24166     24164     24185     24167     24169     24170
     24167     24169     24171     24167     24177     24178     24167     24177     24179
     24167     24177     24181     24168     24167     24169     24168     24167     24177
     24169     24167     24177     24169     24171     24172     24169     24171     24173
     24170     24169     24171     24171     24173     24174     24171     24173     24175
     24171     24173     24176     24172     24171     24173     24174     24173     24175
     24174     24173     24176     24175     24173     24176     24177     24179     24180
     24177     24181     24182     24177     24181     24183     24178     24177     24179
     24178     24177     24181     24179     24177     24181     24181     24164     24185
     24181     24183     24184     24182     24181     24183     24185     24188     24189
     24186     24185     24187     24186     24185     24188     24187     24185     24188
     24190     24194     24192     24190     24195     24196     24190     24195     24197
     24190     24195     24205     24191     24190     24194     24191     24190     24195
     24192     24208     24205     24192     24208     24209     24192     24208     24210
     24192     24212     24213     24192     24212     24214     24192     24212     24215
     24193     24192     24194     24193     24192     24208     24193     24192     24212
     24194     24190     24195     24194     24192     24208     24194     24192     24212
     24195     24197     24198     24195     24197     24199     24195     24205     24206
     24195     24205     24207     24195     24205     24208     24196     24195     24197
     24196     24195     24205     24197     24195     24205     24197     24199     24200
     24197     24199     24201     24198     24197     24199     24199     24201     24202
     24199     24201     24203     24199     24201     24204     24200     24199     24201
     24202     24201     24203     24202     24201     24204     24203     24201     24204
     24205     24207     24217     24205     24208     24209     24205     24208     24210
     24206     24205     24207     24206     24205     24208     24207     24205     24208
     24207     24217     24218     24207     24217     24221     24207     24217     24222
     24208     24192     24212     24208     24210     24211     24209     24208     24210
     24212     24215     24216     24213     24212     24214     24213     24212     24215
     24214     24212     24215     24217     24221     24219     24217     24222     24223
     24217     24222     24224     24217     24222     24225     24218     24217     24221
     24218     24217     24222     24219     24229     24225     24219     24229     24230
     24219     24229     24231     24219     24233     24234     24219     24233     24235
     24219     24233     24236     24220     24219     24221     24220     24219     24229
     24220     24219     24233     24221     24217     24222     24221     24219     24229
     24221     24219     24233     24222     24224     24238     24222     24225     24226
     24222     24225     24227     24222     24225     24229     24223     24222     24224
     24223     24222     24225     24224     24222     24225     24224     24238     24239
     24224     24238     24242     24224     24238     24243     24225     24227     24228
     24225     24229     24230     24225     24229     24231     24226     24225     24227
     24226     24225     24229     24227     24225     24229     24229     24219     24233
     24229     24231     24232     24230     24229     24231     24233     24236     24237
     24234     24233     24235     24234     24233     24236     24235     24233     24236
     24238     24242     24240     24238     24243     24244     24238     24243     24245
     24238     24243     24246     24239     24238     24242     24239     24238     24243
     24240     24250     24246     24240     24250     24251     24240     24250     24252
     24240     24254     24255     24240     24254     24256     24240     24254     24257
     24241     24240     24242     24241     24240     24250     24241     24240     24254
     24242     24238     24243     24242     24240     24250     24242     24240     24254
     24243     24245     24258     24243     24246     24247     24243     24246     24248
     24243     24246     24250     24244     24243     24245     24244     24243     24246
     24245     24243     24246     24245     24258     24259     24245     24258     24262
     24245     24258     24263     24246     24248     24249     24246     24250     24251
     24246     24250     24252     24247     24246     24248     24247     24246     24250
     24248     24246     24250     24250     24240     24254     24250     24252     24253
     24251     24250     24252     24255     24254     24256     24255     24254     24257
     24256     24254     24257     24258     24262     24260     24258     24263     24264
     24258     24263     24265     24258     24263     24266     24259     24258     24262
     24259     24258     24263     24260     24269     24266     24260     24269     24270
     24260     24269     24271     24260     24273     24274     24260     24273     24275
     24260     24273     24276     24261     24260     24262     24261     24260     24269
     24261     24260     24273     24262     24258     24263     24262     24260     24269
     24262     24260     24273     24263     24265     24277     24263     24266     24267
     24263     24266     24268     24263     24266     24269     24264     24263     24265
     24264     24263     24266     24265     24263     24266     24265     24277     24278
     24265     24277     24281     24265     24277     24282     24266     24268     24305
     24266     24269     24270     24266     24269     24271     24267     24266     24268
     24267     24266     24269     24268     24266     24269     24268     24305     24306
     24268     24305     24309     24268     24305     24310     24269     24260     24273
     24269     24271     24272     24270     24269     24271     24274     24273     24275
     24274     24273     24276     24275     24273     24276     24277     24281     24279
     24277     24282     24283     24277     24282     24284     24277     24282     24292
     24278     24277     24281     24278     24277     24282     24279     24296     24292
     24279     24296     24297     24279     24296     24298     24279     24300     24301
     24279     24300     24302     24279     24300     24303     24280     24279     24281
     24280     24279     24296     24280     24279     24300     24281     24277     24282
     24281     24279     24296     24281     24279     24300     24282     24284     24285
     24282     24284     24286     24282     24292     24293     24282     24292     24294
     24282     24292     24296     24283     24282     24284     24283     24282     24292
     24284     24282     24292     24284     24286     24287     24284     24286     24288
     24285     24284     24286     24286     24288     24289     24286     24288     24290
     24286     24288     24291     24287     24286     24288     24289     24288     24290
     24289     24288     24291     24290     24288     24291     24292     24294     24295
     24292     24296     24297     24292     24296     24298     24293     24292     24294
     24293     24292     24296     24294     24292     24296     24296     24279     24300
     24296     24298     24299     24297     24296     24298     24300     24303     24304
     24301     24300     24302     24301     24300     24303     24302     24300     24303
     24305     24309     24307     24305     24310     24311     24305     24310     24312
     24305     24310     24320     24306     24305     24309     24306     24305     24310
     24307     24323     24320     24307     24323     24324     24307     24323     24325
     24307     24327     24328     24307     24327     24329     24307     24327     24330
     24308     24307     24309     24308     24307     24323     24308     24307     24327
     24309     24305     24310     24309     24307     24323     24309     24307     24327
     24310     24312     24313     24310     24312     24314     24310     24320     24321
     24310     24320     24322     24310     24320     24323     24311     24310     24312
     24311     24310     24320     24312     24310     24320     24312     24314     24315
     24312     24314     24316     24313     24312     24314     24314     24316     24317
     24314     24316     24318     24314     24316     24319     24315     24314     24316
     24317     24316     24318     24317     24316     24319     24318     24316     24319
     24320     24322     24332     24320     24323     24324     24320     24323     24325
     24321     24320     24322     24321     24320     24323     24322     24320     24323
     24322     24332     24333     24322     24332     24336     24322     24332     24337
     24323     24307     24327     24323     24325     24326     24324     24323     24325
     24327     24330     24331     24328     24327     24329     24328     24327     24330
     24329     24327     24330     24332     24336     24334     24332     24337     24338
     24332     24337     24339     24332     24337     24340     24333     24332     24336
     24333     24332     24337     24334     24344     24340     24334     24344     24345
     24334     24344     24346     24334     24348     24349     24334     24348     24350
     24334     24348     24351     24335     24334     24336     24335     24334     24344
     24335     24334     24348     24336     24332     24337     24336     24334     24344
     24336     24334     24348     24337     24339     24353     24337     24340     24341
     24337     24340     24342     24337     24340     24344     24338     24337     24339
     24338     24337     24340     24339     24337     24340     24339     24353     24354
     24339     24353     24357     24339     24353     24358     24340     24342     24343
     24340     24344     24345     24340     24344     24346     24341     24340     24342
     24341     24340     24344     24342     24340     24344     24344     24334     24348
     24344     24346     24347     24345     24344     24346     24348     24351     24352
     24349     24348     24350     24349     24348     24351     24350     24348     24351
     24353     24357     24355     24353     24358     24359     24353     24358     24360
     24353     24358     24361     24354     24353     24357     24354     24353     24358
     24355     24365     24361     24355     24365     24366     24355     24365     24367
     24355     24369     24370     24355     24369     24371     24355     24369     24372
     24356     24355     24357     24356     24355     24365     24356     24355     24369
     24357     24353     24358     24357     24355     24365     24357     24355     24369
     24358     24360     24373     24358     24361     24362     24358     24361     24363
     24358     24361     24365     24359     24358     24360     24359     24358     24361
     24360     24358     24361     24360     24373     24374     24360     24373     24377
     24360     24373     24378     24361     24363     24364     24361     24365     24366
     24361     24365     24367     24362     24361     24363     24362     24361     24365
     24363     24361     24365     24365     24355     24369     24365     24367     24368
     24366     24365     24367     24370     24369     24371     24370     24369     24372
     24371     24369     24372     24373     24377     24375     24373     24378     24379
     24373     24378     24380     24373     24378     24381     24374     24373     24377
     24374     24373     24378     24375     24385     24381     24375     24385     24386
     24375     24385     24387     24375     24389     24390     24375     24389     24391
     24375     24389     24392     24376     24375     24377     24376     24375     24385
     24376     24375     24389     24377     24373     24378     24377     24375     24385
     24377     24375     24389     24378     24380     24393     24378     24381     24382
     24378     24381     24383     24378     24381     24385     24379     24378     24380
     24379     24378     24381     24380     24378     24381     24380     24393     24394
     24380     24393     24397     24380     24393     24398     24381     24383     24384
     24381     24385     24386     24381     24385     24387     24382     24381     24383
     24382     24381     24385     24383     24381     24385     24385     24375     24389
     24385     24387     24388     24386     24385     24387     24390     24389     24391
     24390     24389     24392     24391     24389     24392     24393     24397     24395
     24393     24398     24399     24393     24398     24400     24393     24398     24408
     24394     24393     24397     24394     24393     24398     24395     24412     24408
     24395     24412     24413     24395     24412     24414     24395     24416     24417
     24395     24416     24418     24395     24416     24419     24396     24395     24397
     24396     24395     24412     24396     24395     24416     24397     24393     24398
     24397     24395     24412     24397     24395     24416     24398     24400     24401
     24398     24400     24402     24398     24408     24409     24398     24408     24410
     24398     24408     24412     24399     24398     24400     24399     24398     24408
     24400     24398     24408     24400     24402     24403     24400     24402     24404
     24401     24400     24402     24402     24404     24405     24402     24404     24406
     24402     24404     24407     24403     24402     24404     24405     24404     24406
     24405     24404     24407     24406     24404     24407     24408     24410     24411
     24408     24412     24413     24408     24412     24414     24409     24408     24410
     24409     24408     24412     24410     24408     24412     24412     24395     24416
     24412     24414     24415     24413     24412     24414     24416     24419     24420
     24417     24416     24418     24417     24416     24419     24418     24416     24419
     24421     24423     24422     24421     24423     24424     24421     24423     24425
     24422     24423     24424     24422     24423     24425     24422     24720     24717
     24422     24720     24723     24422     24720     24724     24423     24422     24720
     24423     24425     24426     24423     24425     24427     24423     24425     24434
     24424     24423     24425     24425     24426     24428     24425     24434     24435
     24425     24434     24436     24425     24434     24441     24426     24425     24427
     24426     24425     24434     24426     24428     24429     24426     24428     24430
     24426     24428     24449     24427     24425     24434     24428     24430     24431
     24428     24449     24441     24428     24449     24450     24428     24449     24451
     24429     24428     24430     24429     24428     24449     24430     24428     24449
     24430     24431     24432     24430     24431     24433     24430     24431     24457
     24431     24457     24453     24431     24457     24458     24431     24457     24459
     24432     24431     24433     24432     24431     24457     24433     24431     24457
     24434     24436     24437     24434     24441     24442     24434     24441     24443
     24434     24441     24449     24435     24434     24436     24435     24434     24441
     24436     24434     24441     24436     24437     24438     24436     24437     24439
     24436     24437     24440     24438     24437     24439     24438     24437     24440
     24439     24437     24440     24441     24442     24444     24441     24449     24450
     24441     24449     24451     24442     24441     24443     24442     24441     24449
     24442     24444     24445     24442     24444     24446     24443     24441     24449
     24444     24446     24447     24444     24446     24448     24444     24446     24479
     24445     24444     24446     24446     24479     24480     24446     24479     24481
     24446     24479     24524     24447     24446     24448     24447     24446     24479
     24448     24446     24479     24449     24451     24452     24449     24451     24558
     24450     24449     24451     24451     24558     24559     24451     24558     24560
     24452     24451     24558     24453     24455     24456     24453     24457     24458
     24453     24457     24459     24453     24467     24468     24453     24467     24469
     24453     24467     24475     24454     24453     24455     24454     24453     24457
     24454     24453     24467     24455     24453     24457     24455     24453     24467
     24457     24453     24467     24457     24459     24460     24458     24457     24459
     24459     24460     24461     24459     24460     24462     24459     24460     24475
     24460     24462     24466     24460     24475     24467     24460     24475     24476
     24460     24475     24477     24461     24460     24462     24461     24460     24475
     24462     24460     24475     24462     24466     24463     24462     24466     24464
     24462     24466     24465     24463     24466     24464     24463     24466     24465
     24464     24466     24465     24467     24469     24470     24467     24475     24476
     24467     24475     24477     24468     24467     24469     24468     24467     24475
     24469     24467     24475     24469     24470     24471     24469     24470     24472
     24470     24472     24473     24470     24472     24474     24470     24472     24636
     24471     24470     24472     24472     24636     24637     24472     24636     24638
     24472     24636     24640     24473     24472     24474     24473     24472     24636
     24474     24472     24636     24475     24477     24478     24475     24477     24674
     24476     24475     24477     24477     24674     24675     24477     24674     24676
     24478     24477     24674     24479     24481     24482     24479     24524     24525
     24479     24524     24526     24479     24524     24527     24480     24479     24481
     24480     24479     24524     24481     24479     24524     24481     24482     24483
     24481     24482     24484     24482     24484     24485     24482     24484     24486
     24482     24484     24487     24483     24482     24484     24484     24487     24488
     24484     24487     24489     24484     24487     24490     24485     24484     24486
     24485     24484     24487     24486     24484     24487     24487     24490     24491
     24487     24490     24492     24487     24490     24493     24488     24487     24489
     24488     24487     24490     24489     24487     24490     24490     24493     24494
     24490     24493     24495     24490     24493     24496     24491     24490     24492
     24491     24490     24493     24492     24490     24493     24493     24496     24497
     24493     24496     24498     24493     24496     24499     24494     24493     24495
     24494     24493     24496     24495     24493     24496     24496     24499     24500
     24496     24499     24501     24496     24499     24502     24497     24496     24498
     24497     24496     24499     24498     24496     24499     24499     24502     24503
     24499     24502     24504     24499     24502     24505     24500     24499     24501
     24500     24499     24502     24501     24499     24502     24502     24505     24506
     24502     24505     24507     24502     24505     24508     24503     24502     24504
     24503     24502     24505     24504     24502     24505     24505     24508     24509
     24505     24508     24510     24505     24508     24511     24506     24505     24507
     24506     24505     24508     24507     24505     24508     24508     24511     24512
     24508     24511     24513     24508     24511     24514     24509     24508     24510
     24509     24508     24511     24510     24508     24511     24511     24514     24515
     24511     24514     24516     24511     24514     24517     24512     24511     24513
     24512     24511     24514     24513     24511     24514     24514     24517     24518
     24514     24517     24519     24514     24517     24520     24515     24514     24516
     24515     24514     24517     24516     24514     24517     24517     24520     24521
     24517     24520     24522     24517     24520     24523     24518     24517     24519
     24518     24517     24520     24519     24517     24520     24521     24520     24522
     24521     24520     24523     24522     24520     24523     24524     24527     24528
     24524     24527     24529     24524     24527     24530     24525     24524     24526
     24525     24524     24527     24526     24524     24527     24527     24530     24531
     24527     24530     24532     24527     24530     24533     24528     24527     24529
     24528     24527     24530     24529     24527     24530     24530     24533     24534
     24530     24533     24535     24530     24533     24536     24531     24530     24532
     24531     24530     24533     24532     24530     24533     24533     24536     24537
     24533     24536     24538     24533     24536     24539     24534     24533     24535
     24534     24533     24536     24535     24533     24536     24536     24539     24540
     24536     24539     24541     24536     24539     24542     24537     24536     24538
     24537     24536     24539     24538     24536     24539     24539     24542     24543
     24539     24542     24544     24539     24542     24545     24540     24539     24541
     24540     24539     24542     24541     24539     24542     24542     24545     24546
     24542     24545     24547     24542     24545     24548     24543     24542     24544
     24543     24542     24545     24544     24542     24545     24545     24548     24549
     24545     24548     24550     24545     24548     24551     24546     24545     24547
     24546     24545     24548     24547     24545     24548     24548     24551     24552
     24548     24551     24553     24548     24551     24554     24549     24548     24550
     24549     24548     24551     24550     24548     24551     24551     24554     24555
     24551     24554     24556     24551     24554     24557     24552     24551     24553
     24552     24551     24554     24553     24551     24554     24555     24554     24556
     24555     24554     24557     24556     24554     24557     24558     24560     24561
     24558     24560     24562     24558     24560     24563     24559     24558     24560
     24560     24563     24564     24560     24563     24565     24560     24563     24602
     24561     24560     24562     24561     24560     24563     24562     24560     24563
     24563     24565     24566     24563     24602     24603     24563     24602     24604
     24563     24602     24605     24564     24563     24565     24564     24563     24602
     24565     24563     24602     24565     24566     24567     24565     24566     24568
     24566     24568     24569     24566     24568     24570     24566     24568     24571
     24567     24566     24568     24568     24571     24572     24568     24571     24573
     24568     24571     24574     24569     24568     24570     24569     24568     24571
     24570     24568     24571     24571     24574     24575     24571     24574     24576
     24571     24574     24577     24572     24571     24573     24572     24571     24574
     24573     24571     24574     24574     24577     24578     24574     24577     24579
     24574     24577     24580     24575     24574     24576     24575     24574     24577
     24576     24574     24577     24577     24580     24581     24577     24580     24582
     24577     24580     24583     24578     24577     24579     24578     24577     24580
     24579     24577     24580     24580     24583     24584     24580     24583     24585
     24580     24583     24586     24581     24580     24582     24581     24580     24583
     24582     24580     24583     24583     24586     24587     24583     24586     24588
     24583     24586     24589     24584     24583     24585     24584     24583     24586
     24585     24583     24586     24586     24589     24590     24586     24589     24591
     24586     24589     24592     24587     24586     24588     24587     24586     24589
     24588     24586     24589     24589     24592     24593     24589     24592     24594
     24589     24592     24595     24590     24589     24591     24590     24589     24592
     24591     24589     24592     24592     24595     24596     24592     24595     24597
     24592     24595     24598     24593     24592     24594     24593     24592     24595
     24594     24592     24595     24595     24598     24599     24595     24598     24600
     24595     24598     24601     24596     24595     24597     24596     24595     24598
     24597     24595     24598     24599     24598     24600     24599     24598     24601
     24600     24598     24601     24602     24605     24606     24602     24605     24607
     24602     24605     24608     24603     24602     24604     24603     24602     24605
     24604     24602     24605     24605     24608     24609     24605     24608     24610
     24605     24608     24611     24606     24605     24607     24606     24605     24608
     24607     24605     24608     24608     24611     24612     24608     24611     24613
     24608     24611     24614     24609     24608     24610     24609     24608     24611
     24610     24608     24611     24611     24614     24615     24611     24614     24616
     24611     24614     24617     24612     24611     24613     24612     24611     24614
     24613     24611     24614     24614     24617     24618     24614     24617     24619
     24614     24617     24620     24615     24614     24616     24615     24614     24617
     24616     24614     24617     24617     24620     24621     24617     24620     24622
     24617     24620     24623     24618     24617     24619     24618     24617     24620
     24619     24617     24620     24620     24623     24624     24620     24623     24625
     24620     24623     24626     24621     24620     24622     24621     24620     24623
     24622     24620     24623     24623     24626     24627     24623     24626     24628
     24623     24626     24629     24624     24623     24625     24624     24623     24626
     24625     24623     24626     24626     24629     24630     24626     24629     24631
     24626     24629     24632     24627     24626     24628     24627     24626     24629
     24628     24626     24629     24629     24632     24633     24629     24632     24634
     24629     24632     24635     24630     24629     24631     24630     24629     24632
     24631     24629     24632     24633     24632     24634     24633     24632     24635
     24634     24632     24635     24636     24638     24639     24636     24640     24641
     24636     24640     24642     24636     24640     24643     24637     24636     24638
     24637     24636     24640     24638     24636     24640     24640     24643     24644
     24640     24643     24645     24640     24643     24646     24641     24640     24642
     24641     24640     24643     24642     24640     24643     24643     24646     24647
     24643     24646     24648     24643     24646     24649     24644     24643     24645
     24644     24643     24646     24645     24643     24646     24646     24649     24650
     24646     24649     24651     24646     24649     24652     24647     24646     24648
     24647     24646     24649     24648     24646     24649     24649     24652     24653
     24649     24652     24654     24649     24652     24655     24650     24649     24651
     24650     24649     24652     24651     24649     24652     24652     24655     24656
     24652     24655     24657     24652     24655     24658     24653     24652     24654
     24653     24652     24655     24654     24652     24655     24655     24658     24659
     24655     24658     24660     24655     24658     24661     24656     24655     24657
     24656     24655     24658     24657     24655     24658     24658     24661     24662
     24658     24661     24663     24658     24661     24664     24659     24658     24660
     24659     24658     24661     24660     24658     24661     24661     24664     24665
     24661     24664     24666     24661     24664     24667     24662     24661     24663
     24662     24661     24664     24663     24661     24664     24664     24667     24668
     24664     24667     24669     24664     24667     24670     24665     24664     24666
     24665     24664     24667     24666     24664     24667     24667     24670     24671
     24667     24670     24672     24667     24670     24673     24668     24667     24669
     24668     24667     24670     24669     24667     24670     24671     24670     24672
     24671     24670     24673     24672     24670     24673     24674     24676     24677
     24674     24676     24678     24674     24676     24679     24675     24674     24676
     24676     24679     24680     24676     24679     24681     24676     24679     24683
     24677     24676     24678     24677     24676     24679     24678     24676     24679
     24679     24681     24682     24679     24683     24684     24679     24683     24685
     24679     24683     24686     24680     24679     24681     24680     24679     24683
     24681     24679     24683     24683     24686     24687     24683     24686     24688
     24683     24686     24689     24684     24683     24685     24684     24683     24686
     24685     24683     24686     24686     24689     24690     24686     24689     24691
     24686     24689     24692     24687     24686     24688     24687     24686     24689
     24688     24686     24689     24689     24692     24693     24689     24692     24694
     24689     24692     24695     24690     24689     24691     24690     24689     24692
     24691     24689     24692     24692     24695     24696     24692     24695     24697
     24692     24695     24698     24693     24692     24694     24693     24692     24695
     24694     24692     24695     24695     24698     24699     24695     24698     24700
     24695     24698     24701     24696     24695     24697     24696     24695     24698
     24697     24695     24698     24698     24701     24702     24698     24701     24703
     24698     24701     24704     24699     24698     24700     24699     24698     24701
     24700     24698     24701     24701     24704     24705     24701     24704     24706
     24701     24704     24707     24702     24701     24703     24702     24701     24704
     24703     24701     24704     24704     24707     24708     24704     24707     24709
     24704     24707     24710     24705     24704     24706     24705     24704     24707
     24706     24704     24707     24707     24710     24711     24707     24710     24712
     24707     24710     24713     24708     24707     24709     24708     24707     24710
     24709     24707     24710     24710     24713     24714     24710     24713     24715
     24710     24713     24716     24711     24710     24712     24711     24710     24713
     24712     24710     24713     24714     24713     24715     24714     24713     24716
     24715     24713     24716     24717     24720     24723     24717     24720     24724
     24718     24717     24719     24718     24717     24720     24719     24717     24720
     24720     24723     24721     24720     24724     24725     24720     24724     24726
     24720     24724     24727     24721     24730     24727     24721     24730     24731
     24721     24730     24732     24721     24733     24734     24721     24733     24735
     24721     24733     24737     24722     24721     24723     24722     24721     24730
     24722     24721     24733     24723     24720     24724     24723     24721     24730
     24723     24721     24733     24724     24727     24728     24724     24727     24729
     24724     24727     24730     24725     24724     24726     24725     24724     24727
     24726     24724     24727     24727     24729     24745     24727     24730     24731
     24727     24730     24732     24728     24727     24729     24728     24727     24730
     24729     24727     24730     24729     24745     24742     24729     24745     24748
     24729     24745     24749     24730     24721     24733     24730     24732     24769
     24731     24730     24732     24732     24769     24770     24732     24769     24773
     24732     24769     24774     24733     24735     24736     24733     24737     24738
     24733     24737     24739     24733     24737     24740     24734     24733     24735
     24734     24733     24737     24735     24733     24737     24737     24740     24741
     24738     24737     24739     24738     24737     24740     24739     24737     24740
     24742     24745     24748     24742     24745     24749     24743     24742     24744
     24743     24742     24745     24744     24742     24745     24745     24748     24746
     24745     24749     24750     24745     24749     24751     24745     24749     24752
     24746     24756     24752     24746     24756     24757     24746     24756     24758
     24746     24760     24761     24746     24760     24762     24746     24760     24764
     24747     24746     24748     24747     24746     24756     24747     24746     24760
     24748     24745     24749     24748     24746     24756     24748     24746     24760
     24749     24752     24753     24749     24752     24754     24749     24752     24756
     24750     24749     24751     24750     24749     24752     24751     24749     24752
     24752     24754     24755     24752     24756     24757     24752     24756     24758
     24753     24752     24754     24753     24752     24756     24754     24752     24756
     24756     24746     24760     24756     24758     24759     24757     24756     24758
     24760     24762     24763     24760     24764     24765     24760     24764     24766
     24760     24764     24767     24761     24760     24762     24761     24760     24764
     24762     24760     24764     24764     24767     24768     24765     24764     24766
     24765     24764     24767     24766     24764     24767     24769     24773     24771
     24769     24774     24775     24769     24774     24776     24769     24774     24778
     24770     24769     24773     24770     24769     24774     24771     24781     24778
     24771     24781     24782     24771     24781     24783     24771     24788     24789
     24771     24788     24790     24771     24788     24792     24772     24771     24773
     24772     24771     24781     24772     24771     24788     24773     24769     24774
     24773     24771     24781     24773     24771     24788     24774     24776     24777
     24774     24778     24779     24774     24778     24780     24774     24778     24781
     24775     24774     24776     24775     24774     24778     24776     24774     24778
     24778     24780     24797     24778     24781     24782     24778     24781     24783
     24779     24778     24780     24779     24778     24781     24780     24778     24781
     24780     24797     24798     24780     24797     24801     24780     24797     24802
     24781     24771     24788     24781     24783     24784     24782     24781     24783
     24783     24784     24785     24783     24784     24786     24783     24784     24787
     24785     24784     24786     24785     24784     24787     24786     24784     24787
     24788     24790     24791     24788     24792     24793     24788     24792     24794
     24788     24792     24795     24789     24788     24790     24789     24788     24792
     24790     24788     24792     24792     24795     24796     24793     24792     24794
     24793     24792     24795     24794     24792     24795     24797     24801     24799
     24797     24802     24803     24797     24802     24804     24797     24802     24806
     24798     24797     24801     24798     24797     24802     24799     24809     24806
     24799     24809     24810     24799     24809     24811     24799     24816     24817
     24799     24816     24818     24799     24816     24820     24800     24799     24801
     24800     24799     24809     24800     24799     24816     24801     24797     24802
     24801     24799     24809     24801     24799     24816     24802     24804     24805
     24802     24806     24807     24802     24806     24808     24802     24806     24809
     24803     24802     24804     24803     24802     24806     24804     24802     24806
     24806     24808     24850     24806     24809     24810     24806     24809     24811
     24807     24806     24808     24807     24806     24809     24808     24806     24809
     24808     24850     24851     24808     24850     24854     24808     24850     24855
     24809     24799     24816     24809     24811     24812     24810     24809     24811
     24811     24812     24813     24811     24812     24814     24811     24812     24815
     24813     24812     24814     24813     24812     24815     24814     24812     24815
     24816     24818     24819     24816     24820     24821     24816     24820     24822
     24816     24820     24823     24817     24816     24818     24817     24816     24820
     24818     24816     24820     24820     24823     24824     24821     24820     24822
     24821     24820     24823     24822     24820     24823     24823     24824     24825
     24823     24824     24828     24823     24824     24829     24824     24828     24826
     24824     24829     24830     24824     24829     24831     24824     24829     24833
     24825     24824     24828     24825     24824     24829     24826     24837     24833
     24826     24837     24838     24826     24837     24839     24826     24841     24842
     24826     24841     24843     24826     24841     24845     24827     24826     24828
     24827     24826     24837     24827     24826     24841     24828     24824     24829
     24828     24826     24837     24828     24826     24841     24829     24831     24832
     24829     24833     24834     24829     24833     24835     24829     24833     24837
     24830     24829     24831     24830     24829     24833     24831     24829     24833
     24833     24835     24836     24833     24837     24838     24833     24837     24839
     24834     24833     24835     24834     24833     24837     24835     24833     24837
     24837     24826     24841     24837     24839     24840     24838     24837     24839
     24841     24843     24844     24841     24845     24846     24841     24845     24847
     24841     24845     24848     24842     24841     24843     24842     24841     24845
     24843     24841     24845     24845     24848     24849     24846     24845     24847
     24846     24845     24848     24847     24845     24848     24850     24854     24852
     24850     24855     24856     24850     24855     24857     24850     24855     24859
     24851     24850     24854     24851     24850     24855     24852     24862     24859
     24852     24862     24863     24852     24862     24864     24852     24866     24867
     24852     24866     24868     24852     24866     24869     24853     24852     24854
     24853     24852     24862     24853     24852     24866     24854     24850     24855
     24854     24852     24862     24854     24852     24866     24855     24857     24858
     24855     24859     24860     24855     24859     24861     24855     24859     24862
     24856     24855     24857     24856     24855     24859     24857     24855     24859
     24859     24861     24871     24859     24862     24863     24859     24862     24864
     24860     24859     24861     24860     24859     24862     24861     24859     24862
     24861     24871     24872     24861     24871     24875     24861     24871     24876
     24862     24852     24866     24862     24864     24865     24863     24862     24864
     24866     24869     24870     24867     24866     24868     24867     24866     24869
     24868     24866     24869     24871     24875     24873     24871     24876     24877
     24871     24876     24878     24871     24876     24879     24872     24871     24875
     24872     24871     24876     24873     24882     24879     24873     24882     24883
     24873     24882     24884     24873     24886     24887     24873     24886     24888
     24873     24886     24889     24874     24873     24875     24874     24873     24882
     24874     24873     24886     24875     24871     24876     24875     24873     24882
     24875     24873     24886     24876     24878     24891     24876     24879     24880
     24876     24879     24881     24876     24879     24882     24877     24876     24878
     24877     24876     24879     24878     24876     24879     24878     24891     24892
     24878     24891     24895     24878     24891     24896     24879     24881     24934
     24879     24882     24883     24879     24882     24884     24880     24879     24881
     24880     24879     24882     24881     24879     24882     24881     24934     24935
     24881     24934     24938     24881     24934     24939     24882     24873     24886
     24882     24884     24885     24883     24882     24884     24886     24889     24890
     24887     24886     24888     24887     24886     24889     24888     24886     24889
     24891     24895     24893     24891     24896     24897     24891     24896     24898
     24891     24896     24899     24892     24891     24895     24892     24891     24896
     24893     24903     24899     24893     24903     24904     24893     24903     24905
     24893     24907     24908     24893     24907     24909     24893     24907     24910
     24894     24893     24895     24894     24893     24903     24894     24893     24907
     24895     24891     24896     24895     24893     24903     24895     24893     24907
     24896     24898     24912     24896     24899     24900     24896     24899     24901
     24896     24899     24903     24897     24896     24898     24897     24896     24899
     24898     24896     24899     24898     24912     24913     24898     24912     24916
     24898     24912     24917     24899     24901     24902     24899     24903     24904
     24899     24903     24905     24900     24899     24901     24900     24899     24903
     24901     24899     24903     24903     24893     24907     24903     24905     24906
     24904     24903     24905     24907     24910     24911     24908     24907     24909
     24908     24907     24910     24909     24907     24910     24912     24916     24914
     24912     24917     24918     24912     24917     24919     24912     24917     24921
     24913     24912     24916     24913     24912     24917     24914     24925     24921
     24914     24925     24926     24914     24925     24927     24914     24929     24930
     24914     24929     24931     24914     24929     24932     24915     24914     24916
     24915     24914     24925     24915     24914     24929     24916     24912     24917
     24916     24914     24925     24916     24914     24929     24917     24919     24920
     24917     24921     24922     24917     24921     24923     24917     24921     24925
     24918     24917     24919     24918     24917     24921     24919     24917     24921
     24921     24923     24924     24921     24925     24926     24921     24925     24927
     24922     24921     24923     24922     24921     24925     24923     24921     24925
     24925     24914     24929     24925     24927     24928     24926     24925     24927
     24929     24932     24933     24930     24929     24931     24930     24929     24932
     24931     24929     24932     24934     24938     24936     24934     24939     24940
     24934     24939     24941     24934     24939     24943     24935     24934     24938
     24935     24934     24939     24936     24946     24943     24936     24946     24947
     24936     24946     24948     24936     24950     24951     24936     24950     24952
     24936     24950     24953     24937     24936     24938     24937     24936     24946
     24937     24936     24950     24938     24934     24939     24938     24936     24946
     24938     24936     24950     24939     24941     24942     24939     24943     24944
     24939     24943     24945     24939     24943     24946     24940     24939     24941
     24940     24939     24943     24941     24939     24943     24943     24945     24955
     24943     24946     24947     24943     24946     24948     24944     24943     24945
     24944     24943     24946     24945     24943     24946     24945     24955     24956
     24945     24955     24959     24945     24955     24960     24946     24936     24950
     24946     24948     24949     24947     24946     24948     24950     24953     24954
     24951     24950     24952     24951     24950     24953     24952     24950     24953
     24955     24959     24957     24955     24960     24961     24955     24960     24962
     24955     24960     24970     24956     24955     24959     24956     24955     24960
     24957     24973     24970     24957     24973     24974     24957     24973     24975
     24957     24977     24978     24957     24977     24979     24957     24977     24980
     24958     24957     24959     24958     24957     24973     24958     24957     24977
     24959     24955     24960     24959     24957     24973     24959     24957     24977
     24960     24962     24963     24960     24962     24964     24960     24970     24971
     24960     24970     24972     24960     24970     24973     24961     24960     24962
     24961     24960     24970     24962     24960     24970     24962     24964     24965
     24962     24964     24966     24963     24962     24964     24964     24966     24967
     24964     24966     24968     24964     24966     24969     24965     24964     24966
     24967     24966     24968     24967     24966     24969     24968     24966     24969
     24970     24972     24982     24970     24973     24974     24970     24973     24975
     24971     24970     24972     24971     24970     24973     24972     24970     24973
     24972     24982     24983     24972     24982     24986     24972     24982     24987
     24973     24957     24977     24973     24975     24976     24974     24973     24975
     24977     24980     24981     24978     24977     24979     24978     24977     24980
     24979     24977     24980     24982     24986     24984     24982     24987     24988
     24982     24987     24989     24982     24987     24990     24983     24982     24986
     24983     24982     24987     24984     24994     24990     24984     24994     24995
     24984     24994     24996     24984     24998     24999     24984     24998     25000
     24984     24998     25001     24985     24984     24986     24985     24984     24994
     24985     24984     24998     24986     24982     24987     24986     24984     24994
     24986     24984     24998     24987     24989     25003     24987     24990     24991
     24987     24990     24992     24987     24990     24994     24988     24987     24989
     24988     24987     24990     24989     24987     24990     24989     25003     25004
     24989     25003     25007     24989     25003     25008     24990     24992     24993
     24990     24994     24995     24990     24994     24996     24991     24990     24992
     24991     24990     24994     24992     24990     24994     24994     24984     24998
     24994     24996     24997     24995     24994     24996     24998     25001     25002
     24999     24998     25000     24999     24998     25001     25000     24998     25001
     25003     25007     25005     25003     25008     25009     25003     25008     25010
     25003     25008     25011     25004     25003     25007     25004     25003     25008
     25005     25015     25011     25005     25015     25016     25005     25015     25017
     25005     25019     25020     25005     25019     25021     25005     25019     25022
     25006     25005     25007     25006     25005     25015     25006     25005     25019
     25007     25003     25008     25007     25005     25015     25007     25005     25019
     25008     25010     25023     25008     25011     25012     25008     25011     25013
     25008     25011     25015     25009     25008     25010     25009     25008     25011
     25010     25008     25011     25010     25023     25024     25010     25023     25027
     25010     25023     25028     25011     25013     25014     25011     25015     25016
     25011     25015     25017     25012     25011     25013     25012     25011     25015
     25013     25011     25015     25015     25005     25019     25015     25017     25018
     25016     25015     25017     25020     25019     25021     25020     25019     25022
     25021     25019     25022     25023     25027     25025     25023     25028     25029
     25023     25028     25030     25023     25028     25031     25024     25023     25027
     25024     25023     25028     25025     25034     25031     25025     25034     25035
     25025     25034     25036     25025     25038     25039     25025     25038     25040
     25025     25038     25041     25026     25025     25027     25026     25025     25034
     25026     25025     25038     25027     25023     25028     25027     25025     25034
     25027     25025     25038     25028     25030     25042     25028     25031     25032
     25028     25031     25033     25028     25031     25034     25029     25028     25030
     25029     25028     25031     25030     25028     25031     25030     25042     25043
     25030     25042     25046     25030     25042     25047     25031     25033     25070
     25031     25034     25035     25031     25034     25036     25032     25031     25033
     25032     25031     25034     25033     25031     25034     25033     25070     25071
     25033     25070     25074     25033     25070     25075     25034     25025     25038
     25034     25036     25037     25035     25034     25036     25039     25038     25040
     25039     25038     25041     25040     25038     25041     25042     25046     25044
     25042     25047     25048     25042     25047     25049     25042     25047     25057
     25043     25042     25046     25043     25042     25047     25044     25061     25057
     25044     25061     25062     25044     25061     25063     25044     25065     25066
     25044     25065     25067     25044     25065     25068     25045     25044     25046
     25045     25044     25061     25045     25044     25065     25046     25042     25047
     25046     25044     25061     25046     25044     25065     25047     25049     25050
     25047     25049     25051     25047     25057     25058     25047     25057     25059
     25047     25057     25061     25048     25047     25049     25048     25047     25057
     25049     25047     25057     25049     25051     25052     25049     25051     25053
     25050     25049     25051     25051     25053     25054     25051     25053     25055
     25051     25053     25056     25052     25051     25053     25054     25053     25055
     25054     25053     25056     25055     25053     25056     25057     25059     25060
     25057     25061     25062     25057     25061     25063     25058     25057     25059
     25058     25057     25061     25059     25057     25061     25061     25044     25065
     25061     25063     25064     25062     25061     25063     25065     25068     25069
     25066     25065     25067     25066     25065     25068     25067     25065     25068
     25070     25074     25072     25070     25075     25076     25070     25075     25077
     25070     25075     25085     25071     25070     25074     25071     25070     25075
     25072     25088     25085     25072     25088     25089     25072     25088     25090
     25072     25092     25093     25072     25092     25094     25072     25092     25095
     25073     25072     25074     25073     25072     25088     25073     25072     25092
     25074     25070     25075     25074     25072     25088     25074     25072     25092
     25075     25077     25078     25075     25077     25079     25075     25085     25086
     25075     25085     25087     25075     25085     25088     25076     25075     25077
     25076     25075     25085     25077     25075     25085     25077     25079     25080
     25077     25079     25081     25078     25077     25079     25079     25081     25082
     25079     25081     25083     25079     25081     25084     25080     25079     25081
     25082     25081     25083     25082     25081     25084     25083     25081     25084
     25085     25087     25097     25085     25088     25089     25085     25088     25090
     25086     25085     25087     25086     25085     25088     25087     25085     25088
     25087     25097     25098     25087     25097     25101     25087     25097     25102
     25088     25072     25092     25088     25090     25091     25089     25088     25090
     25092     25095     25096     25093     25092     25094     25093     25092     25095
     25094     25092     25095     25097     25101     25099     25097     25102     25103
     25097     25102     25104     25097     25102     25105     25098     25097     25101
     25098     25097     25102     25099     25109     25105     25099     25109     25110
     25099     25109     25111     25099     25113     25114     25099     25113     25115
     25099     25113     25116     25100     25099     25101     25100     25099     25109
     25100     25099     25113     25101     25097     25102     25101     25099     25109
     25101     25099     25113     25102     25104     25118     25102     25105     25106
     25102     25105     25107     25102     25105     25109     25103     25102     25104
     25103     25102     25105     25104     25102     25105     25104     25118     25119
     25104     25118     25122     25104     25118     25123     25105     25107     25108
     25105     25109     25110     25105     25109     25111     25106     25105     25107
     25106     25105     25109     25107     25105     25109     25109     25099     25113
     25109     25111     25112     25110     25109     25111     25113     25116     25117
     25114     25113     25115     25114     25113     25116     25115     25113     25116
     25118     25122     25120     25118     25123     25124     25118     25123     25125
     25118     25123     25126     25119     25118     25122     25119     25118     25123
     25120     25130     25126     25120     25130     25131     25120     25130     25132
     25120     25134     25135     25120     25134     25136     25120     25134     25137
     25121     25120     25122     25121     25120     25130     25121     25120     25134
     25122     25118     25123     25122     25120     25130     25122     25120     25134
     25123     25125     25138     25123     25126     25127     25123     25126     25128
     25123     25126     25130     25124     25123     25125     25124     25123     25126
     25125     25123     25126     25125     25138     25139     25125     25138     25142
     25125     25138     25143     25126     25128     25129     25126     25130     25131
     25126     25130     25132     25127     25126     25128     25127     25126     25130
     25128     25126     25130     25130     25120     25134     25130     25132     25133
     25131     25130     25132     25135     25134     25136     25135     25134     25137
     25136     25134     25137     25138     25142     25140     25138     25143     25144
     25138     25143     25145     25138     25143     25146     25139     25138     25142
     25139     25138     25143     25140     25149     25146     25140     25149     25150
     25140     25149     25151     25140     25153     25154     25140     25153     25155
     25140     25153     25156     25141     25140     25142     25141     25140     25149
     25141     25140     25153     25142     25138     25143     25142     25140     25149
     25142     25140     25153     25143     25145     25157     25143     25146     25147
     25143     25146     25148     25143     25146     25149     25144     25143     25145
     25144     25143     25146     25145     25143     25146     25145     25157     25158
     25145     25157     25161     25145     25157     25162     25146     25148     25185
     25146     25149     25150     25146     25149     25151     25147     25146     25148
     25147     25146     25149     25148     25146     25149     25148     25185     25186
     25148     25185     25189     25148     25185     25190     25149     25140     25153
     25149     25151     25152     25150     25149     25151     25154     25153     25155
     25154     25153     25156     25155     25153     25156     25157     25161     25159
     25157     25162     25163     25157     25162     25164     25157     25162     25172
     25158     25157     25161     25158     25157     25162     25159     25176     25172
     25159     25176     25177     25159     25176     25178     25159     25180     25181
     25159     25180     25182     25159     25180     25183     25160     25159     25161
     25160     25159     25176     25160     25159     25180     25161     25157     25162
     25161     25159     25176     25161     25159     25180     25162     25164     25165
     25162     25164     25166     25162     25172     25173     25162     25172     25174
     25162     25172     25176     25163     25162     25164     25163     25162     25172
     25164     25162     25172     25164     25166     25167     25164     25166     25168
     25165     25164     25166     25166     25168     25169     25166     25168     25170
     25166     25168     25171     25167     25166     25168     25169     25168     25170
     25169     25168     25171     25170     25168     25171     25172     25174     25175
     25172     25176     25177     25172     25176     25178     25173     25172     25174
     25173     25172     25176     25174     25172     25176     25176     25159     25180
     25176     25178     25179     25177     25176     25178     25180     25183     25184
     25181     25180     25182     25181     25180     25183     25182     25180     25183
     25185     25189     25187     25185     25190     25191     25185     25190     25192
     25185     25190     25200     25186     25185     25189     25186     25185     25190
     25187     25203     25200     25187     25203     25204     25187     25203     25205
     25187     25207     25208     25187     25207     25209     25187     25207     25210
     25188     25187     25189     25188     25187     25203     25188     25187     25207
     25189     25185     25190     25189     25187     25203     25189     25187     25207
     25190     25192     25193     25190     25192     25194     25190     25200     25201
     25190     25200     25202     25190     25200     25203     25191     25190     25192
     25191     25190     25200     25192     25190     25200     25192     25194     25195
     25192     25194     25196     25193     25192     25194     25194     25196     25197
     25194     25196     25198     25194     25196     25199     25195     25194     25196
     25197     25196     25198     25197     25196     25199     25198     25196     25199
     25200     25202     25212     25200     25203     25204     25200     25203     25205
     25201     25200     25202     25201     25200     25203     25202     25200     25203
     25202     25212     25213     25202     25212     25216     25202     25212     25217
     25203     25187     25207     25203     25205     25206     25204     25203     25205
     25207     25210     25211     25208     25207     25209     25208     25207     25210
     25209     25207     25210     25212     25216     25214     25212     25217     25218
     25212     25217     25219     25212     25217     25220     25213     25212     25216
     25213     25212     25217     25214     25224     25220     25214     25224     25225
     25214     25224     25226     25214     25228     25229     25214     25228     25230
     25214     25228     25231     25215     25214     25216     25215     25214     25224
     25215     25214     25228     25216     25212     25217     25216     25214     25224
     25216     25214     25228     25217     25219     25233     25217     25220     25221
     25217     25220     25222     25217     25220     25224     25218     25217     25219
     25218     25217     25220     25219     25217     25220     25219     25233     25234
     25219     25233     25237     25219     25233     25238     25220     25222     25223
     25220     25224     25225     25220     25224     25226     25221     25220     25222
     25221     25220     25224     25222     25220     25224     25224     25214     25228
     25224     25226     25227     25225     25224     25226     25228     25231     25232
     25229     25228     25230     25229     25228     25231     25230     25228     25231
     25233     25237     25235     25233     25238     25239     25233     25238     25240
     25233     25238     25241     25234     25233     25237     25234     25233     25238
     25235     25245     25241     25235     25245     25246     25235     25245     25247
     25235     25249     25250     25235     25249     25251     25235     25249     25252
     25236     25235     25237     25236     25235     25245     25236     25235     25249
     25237     25233     25238     25237     25235     25245     25237     25235     25249
     25238     25240     25253     25238     25241     25242     25238     25241     25243
     25238     25241     25245     25239     25238     25240     25239     25238     25241
     25240     25238     25241     25240     25253     25254     25240     25253     25257
     25240     25253     25258     25241     25243     25244     25241     25245     25246
     25241     25245     25247     25242     25241     25243     25242     25241     25245
     25243     25241     25245     25245     25235     25249     25245     25247     25248
     25246     25245     25247     25250     25249     25251     25250     25249     25252
     25251     25249     25252     25253     25257     25255     25253     25258     25259
     25253     25258     25260     25253     25258     25261     25254     25253     25257
     25254     25253     25258     25255     25264     25261     25255     25264     25265
     25255     25264     25266     25255     25268     25269     25255     25268     25270
     25255     25268     25271     25256     25255     25257     25256     25255     25264
     25256     25255     25268     25257     25253     25258     25257     25255     25264
     25257     25255     25268     25258     25260     25272     25258     25261     25262
     25258     25261     25263     25258     25261     25264     25259     25258     25260
     25259     25258     25261     25260     25258     25261     25260     25272     25273
     25260     25272     25276     25260     25272     25277     25261     25263     25300
     25261     25264     25265     25261     25264     25266     25262     25261     25263
     25262     25261     25264     25263     25261     25264     25263     25300     25301
     25263     25300     25304     25263     25300     25305     25264     25255     25268
     25264     25266     25267     25265     25264     25266     25269     25268     25270
     25269     25268     25271     25270     25268     25271     25272     25276     25274
     25272     25277     25278     25272     25277     25279     25272     25277     25287
     25273     25272     25276     25273     25272     25277     25274     25291     25287
     25274     25291     25292     25274     25291     25293     25274     25295     25296
     25274     25295     25297     25274     25295     25298     25275     25274     25276
     25275     25274     25291     25275     25274     25295     25276     25272     25277
     25276     25274     25291     25276     25274     25295     25277     25279     25280
     25277     25279     25281     25277     25287     25288     25277     25287     25289
     25277     25287     25291     25278     25277     25279     25278     25277     25287
     25279     25277     25287     25279     25281     25282     25279     25281     25283
     25280     25279     25281     25281     25283     25284     25281     25283     25285
     25281     25283     25286     25282     25281     25283     25284     25283     25285
     25284     25283     25286     25285     25283     25286     25287     25289     25290
     25287     25291     25292     25287     25291     25293     25288     25287     25289
     25288     25287     25291     25289     25287     25291     25291     25274     25295
     25291     25293     25294     25292     25291     25293     25295     25298     25299
     25296     25295     25297     25296     25295     25298     25297     25295     25298
     25300     25304     25302     25300     25305     25306     25300     25305     25307
     25300     25305     25315     25301     25300     25304     25301     25300     25305
     25302     25318     25315     25302     25318     25319     25302     25318     25320
     25302     25322     25323     25302     25322     25324     25302     25322     25325
     25303     25302     25304     25303     25302     25318     25303     25302     25322
     25304     25300     25305     25304     25302     25318     25304     25302     25322
     25305     25307     25308     25305     25307     25309     25305     25315     25316
     25305     25315     25317     25305     25315     25318     25306     25305     25307
     25306     25305     25315     25307     25305     25315     25307     25309     25310
     25307     25309     25311     25308     25307     25309     25309     25311     25312
     25309     25311     25313     25309     25311     25314     25310     25309     25311
     25312     25311     25313     25312     25311     25314     25313     25311     25314
     25315     25317     25327     25315     25318     25319     25315     25318     25320
     25316     25315     25317     25316     25315     25318     25317     25315     25318
     25317     25327     25328     25317     25327     25331     25317     25327     25332
     25318     25302     25322     25318     25320     25321     25319     25318     25320
     25322     25325     25326     25323     25322     25324     25323     25322     25325
     25324     25322     25325     25327     25331     25329     25327     25332     25333
     25327     25332     25334     25327     25332     25335     25328     25327     25331
     25328     25327     25332     25329     25339     25335     25329     25339     25340
     25329     25339     25341     25329     25343     25344     25329     25343     25345
     25329     25343     25346     25330     25329     25331     25330     25329     25339
     25330     25329     25343     25331     25327     25332     25331     25329     25339
     25331     25329     25343     25332     25334     25348     25332     25335     25336
     25332     25335     25337     25332     25335     25339     25333     25332     25334
     25333     25332     25335     25334     25332     25335     25334     25348     25349
     25334     25348     25352     25334     25348     25353     25335     25337     25338
     25335     25339     25340     25335     25339     25341     25336     25335     25337
     25336     25335     25339     25337     25335     25339     25339     25329     25343
     25339     25341     25342     25340     25339     25341     25343     25346     25347
     25344     25343     25345     25344     25343     25346     25345     25343     25346
     25348     25352     25350     25348     25353     25354     25348     25353     25355
     25348     25353     25356     25349     25348     25352     25349     25348     25353
     25350     25360     25356     25350     25360     25361     25350     25360     25362
     25350     25364     25365     25350     25364     25366     25350     25364     25367
     25351     25350     25352     25351     25350     25360     25351     25350     25364
     25352     25348     25353     25352     25350     25360     25352     25350     25364
     25353     25355     25368     25353     25356     25357     25353     25356     25358
     25353     25356     25360     25354     25353     25355     25354     25353     25356
     25355     25353     25356     25355     25368     25369     25355     25368     25372
     25355     25368     25373     25356     25358     25359     25356     25360     25361
     25356     25360     25362     25357     25356     25358     25357     25356     25360
     25358     25356     25360     25360     25350     25364     25360     25362     25363
     25361     25360     25362     25365     25364     25366     25365     25364     25367
     25366     25364     25367     25368     25372     25370     25368     25373     25374
     25368     25373     25375     25368     25373     25376     25369     25368     25372
     25369     25368     25373     25370     25379     25376     25370     25379     25380
     25370     25379     25381     25370     25383     25384     25370     25383     25385
     25370     25383     25386     25371     25370     25372     25371     25370     25379
     25371     25370     25383     25372     25368     25373     25372     25370     25379
     25372     25370     25383     25373     25375     25387     25373     25376     25377
     25373     25376     25378     25373     25376     25379     25374     25373     25375
     25374     25373     25376     25375     25373     25376     25375     25387     25388
     25375     25387     25391     25375     25387     25392     25376     25378     25415
     25376     25379     25380     25376     25379     25381     25377     25376     25378
     25377     25376     25379     25378     25376     25379     25378     25415     25416
     25378     25415     25419     25378     25415     25420     25379     25370     25383
     25379     25381     25382     25380     25379     25381     25384     25383     25385
     25384     25383     25386     25385     25383     25386     25387     25391     25389
     25387     25392     25393     25387     25392     25394     25387     25392     25402
     25388     25387     25391     25388     25387     25392     25389     25406     25402
     25389     25406     25407     25389     25406     25408     25389     25410     25411
     25389     25410     25412     25389     25410     25413     25390     25389     25391
     25390     25389     25406     25390     25389     25410     25391     25387     25392
     25391     25389     25406     25391     25389     25410     25392     25394     25395
     25392     25394     25396     25392     25402     25403     25392     25402     25404
     25392     25402     25406     25393     25392     25394     25393     25392     25402
     25394     25392     25402     25394     25396     25397     25394     25396     25398
     25395     25394     25396     25396     25398     25399     25396     25398     25400
     25396     25398     25401     25397     25396     25398     25399     25398     25400
     25399     25398     25401     25400     25398     25401     25402     25404     25405
     25402     25406     25407     25402     25406     25408     25403     25402     25404
     25403     25402     25406     25404     25402     25406     25406     25389     25410
     25406     25408     25409     25407     25406     25408     25410     25413     25414
     25411     25410     25412     25411     25410     25413     25412     25410     25413
     25415     25419     25417     25415     25420     25421     25415     25420     25422
     25415     25420     25430     25416     25415     25419     25416     25415     25420
     25417     25433     25430     25417     25433     25434     25417     25433     25435
     25417     25437     25438     25417     25437     25439     25417     25437     25440
     25418     25417     25419     25418     25417     25433     25418     25417     25437
     25419     25415     25420     25419     25417     25433     25419     25417     25437
     25420     25422     25423     25420     25422     25424     25420     25430     25431
     25420     25430     25432     25420     25430     25433     25421     25420     25422
     25421     25420     25430     25422     25420     25430     25422     25424     25425
     25422     25424     25426     25423     25422     25424     25424     25426     25427
     25424     25426     25428     25424     25426     25429     25425     25424     25426
     25427     25426     25428     25427     25426     25429     25428     25426     25429
     25430     25432     25442     25430     25433     25434     25430     25433     25435
     25431     25430     25432     25431     25430     25433     25432     25430     25433
     25432     25442     25443     25432     25442     25446     25432     25442     25447
     25433     25417     25437     25433     25435     25436     25434     25433     25435
     25437     25440     25441     25438     25437     25439     25438     25437     25440
     25439     25437     25440     25442     25446     25444     25442     25447     25448
     25442     25447     25449     25442     25447     25450     25443     25442     25446
     25443     25442     25447     25444     25454     25450     25444     25454     25455
     25444     25454     25456     25444     25458     25459     25444     25458     25460
     25444     25458     25461     25445     25444     25446     25445     25444     25454
     25445     25444     25458     25446     25442     25447     25446     25444     25454
     25446     25444     25458     25447     25449     25463     25447     25450     25451
     25447     25450     25452     25447     25450     25454     25448     25447     25449
     25448     25447     25450     25449     25447     25450     25449     25463     25464
     25449     25463     25467     25449     25463     25468     25450     25452     25453
     25450     25454     25455     25450     25454     25456     25451     25450     25452
     25451     25450     25454     25452     25450     25454     25454     25444     25458
     25454     25456     25457     25455     25454     25456     25458     25461     25462
     25459     25458     25460     25459     25458     25461     25460     25458     25461
     25463     25467     25465     25463     25468     25469     25463     25468     25470
     25463     25468     25471     25464     25463     25467     25464     25463     25468
     25465     25475     25471     25465     25475     25476     25465     25475     25477
     25465     25479     25480     25465     25479     25481     25465     25479     25482
     25466     25465     25467     25466     25465     25475     25466     25465     25479
     25467     25463     25468     25467     25465     25475     25467     25465     25479
     25468     25470     25483     25468     25471     25472     25468     25471     25473
     25468     25471     25475     25469     25468     25470     25469     25468     25471
     25470     25468     25471     25470     25483     25484     25470     25483     25487
     25470     25483     25488     25471     25473     25474     25471     25475     25476
     25471     25475     25477     25472     25471     25473     25472     25471     25475
     25473     25471     25475     25475     25465     25479     25475     25477     25478
     25476     25475     25477     25480     25479     25481     25480     25479     25482
     25481     25479     25482     25483     25487     25485     25483     25488     25489
     25483     25488     25490     25483     25488     25491     25484     25483     25487
     25484     25483     25488     25485     25495     25491     25485     25495     25496
     25485     25495     25497     25485     25499     25500     25485     25499     25501
     25485     25499     25502     25486     25485     25487     25486     25485     25495
     25486     25485     25499     25487     25483     25488     25487     25485     25495
     25487     25485     25499     25488     25490     25503     25488     25491     25492
     25488     25491     25493     25488     25491     25495     25489     25488     25490
     25489     25488     25491     25490     25488     25491     25490     25503     25504
     25490     25503     25507     25490     25503     25508     25491     25493     25494
     25491     25495     25496     25491     25495     25497     25492     25491     25493
     25492     25491     25495     25493     25491     25495     25495     25485     25499
     25495     25497     25498     25496     25495     25497     25500     25499     25501
     25500     25499     25502     25501     25499     25502     25503     25507     25505
     25503     25508     25509     25503     25508     25510     25503     25508     25518
     25504     25503     25507     25504     25503     25508     25505     25522     25518
     25505     25522     25523     25505     25522     25524     25505     25526     25527
     25505     25526     25528     25505     25526     25529     25506     25505     25507
     25506     25505     25522     25506     25505     25526     25507     25503     25508
     25507     25505     25522     25507     25505     25526     25508     25510     25511
     25508     25510     25512     25508     25518     25519     25508     25518     25520
     25508     25518     25522     25509     25508     25510     25509     25508     25518
     25510     25508     25518     25510     25512     25513     25510     25512     25514
     25511     25510     25512     25512     25514     25515     25512     25514     25516
     25512     25514     25517     25513     25512     25514     25515     25514     25516
     25515     25514     25517     25516     25514     25517     25518     25520     25521
     25518     25522     25523     25518     25522     25524     25519     25518     25520
     25519     25518     25522     25520     25518     25522     25522     25505     25526
     25522     25524     25525     25523     25522     25524     25526     25529     25530
     25527     25526     25528     25527     25526     25529     25528     25526     25529
     25531     25533     25532     25531     25533     25534     25531     25533     25535
     25532     25533     25534     25532     25533     25535     25532     25830     25827
     25532     25830     25833     25532     25830     25834     25533     25532     25830
     25533     25535     25536     25533     25535     25537     25533     25535     25544
     25534     25533     25535     25535     25536     25538     25535     25544     25545
     25535     25544     25546     25535     25544     25551     25536     25535     25537
     25536     25535     25544     25536     25538     25539     25536     25538     25540
     25536     25538     25559     25537     25535     25544     25538     25540     25541
     25538     25559     25551     25538     25559     25560     25538     25559     25561
     25539     25538     25540     25539     25538     25559     25540     25538     25559
     25540     25541     25542     25540     25541     25543     25540     25541     25567
     25541     25567     25563     25541     25567     25568     25541     25567     25569
     25542     25541     25543     25542     25541     25567     25543     25541     25567
     25544     25546     25547     25544     25551     25552     25544     25551     25553
     25544     25551     25559     25545     25544     25546     25545     25544     25551
     25546     25544     25551     25546     25547     25548     25546     25547     25549
     25546     25547     25550     25548     25547     25549     25548     25547     25550
     25549     25547     25550     25551     25552     25554     25551     25559     25560
     25551     25559     25561     25552     25551     25553     25552     25551     25559
     25552     25554     25555     25552     25554     25556     25553     25551     25559
     25554     25556     25557     25554     25556     25558     25554     25556     25589
     25555     25554     25556     25556     25589     25590     25556     25589     25591
     25556     25589     25634     25557     25556     25558     25557     25556     25589
     25558     25556     25589     25559     25561     25562     25559     25561     25668
     25560     25559     25561     25561     25668     25669     25561     25668     25670
     25562     25561     25668     25563     25565     25566     25563     25567     25568
     25563     25567     25569     25563     25577     25578     25563     25577     25579
     25563     25577     25585     25564     25563     25565     25564     25563     25567
     25564     25563     25577     25565     25563     25567     25565     25563     25577
     25567     25563     25577     25567     25569     25570     25568     25567     25569
     25569     25570     25571     25569     25570     25572     25569     25570     25585
     25570     25572     25576     25570     25585     25577     25570     25585     25586
     25570     25585     25587     25571     25570     25572     25571     25570     25585
     25572     25570     25585     25572     25576     25573     25572     25576     25574
     25572     25576     25575     25573     25576     25574     25573     25576     25575
     25574     25576     25575     25577     25579     25580     25577     25585     25586
     25577     25585     25587     25578     25577     25579     25578     25577     25585
     25579     25577     25585     25579     25580     25581     25579     25580     25582
     25580     25582     25583     25580     25582     25584     25580     25582     25746
     25581     25580     25582     25582     25746     25747     25582     25746     25748
     25582     25746     25750     25583     25582     25584     25583     25582     25746
     25584     25582     25746     25585     25587     25588     25585     25587     25784
     25586     25585     25587     25587     25784     25785     25587     25784     25786
     25588     25587     25784     25589     25591     25592     25589     25634     25635
     25589     25634     25636     25589     25634     25637     25590     25589     25591
     25590     25589     25634     25591     25589     25634     25591     25592     25593
     25591     25592     25594     25592     25594     25595     25592     25594     25596
     25592     25594     25597     25593     25592     25594     25594     25597     25598
     25594     25597     25599     25594     25597     25600     25595     25594     25596
     25595     25594     25597     25596     25594     25597     25597     25600     25601
     25597     25600     25602     25597     25600     25603     25598     25597     25599
     25598     25597     25600     25599     25597     25600     25600     25603     25604
     25600     25603     25605     25600     25603     25606     25601     25600     25602
     25601     25600     25603     25602     25600     25603     25603     25606     25607
     25603     25606     25608     25603     25606     25609     25604     25603     25605
     25604     25603     25606     25605     25603     25606     25606     25609     25610
     25606     25609     25611     25606     25609     25612     25607     25606     25608
     25607     25606     25609     25608     25606     25609     25609     25612     25613
     25609     25612     25614     25609     25612     25615     25610     25609     25611
     25610     25609     25612     25611     25609     25612     25612     25615     25616
     25612     25615     25617     25612     25615     25618     25613     25612     25614
     25613     25612     25615     25614     25612     25615     25615     25618     25619
     25615     25618     25620     25615     25618     25621     25616     25615     25617
     25616     25615     25618     25617     25615     25618     25618     25621     25622
     25618     25621     25623     25618     25621     25624     25619     25618     25620
     25619     25618     25621     25620     25618     25621     25621     25624     25625
     25621     25624     25626     25621     25624     25627     25622     25621     25623
     25622     25621     25624     25623     25621     25624     25624     25627     25628
     25624     25627     25629     25624     25627     25630     25625     25624     25626
     25625     25624     25627     25626     25624     25627     25627     25630     25631
     25627     25630     25632     25627     25630     25633     25628     25627     25629
     25628     25627     25630     25629     25627     25630     25631     25630     25632
     25631     25630     25633     25632     25630     25633     25634     25637     25638
     25634     25637     25639     25634     25637     25640     25635     25634     25636
     25635     25634     25637     25636     25634     25637     25637     25640     25641
     25637     25640     25642     25637     25640     25643     25638     25637     25639
     25638     25637     25640     25639     25637     25640     25640     25643     25644
     25640     25643     25645     25640     25643     25646     25641     25640     25642
     25641     25640     25643     25642     25640     25643     25643     25646     25647
     25643     25646     25648     25643     25646     25649     25644     25643     25645
     25644     25643     25646     25645     25643     25646     25646     25649     25650
     25646     25649     25651     25646     25649     25652     25647     25646     25648
     25647     25646     25649     25648     25646     25649     25649     25652     25653
     25649     25652     25654     25649     25652     25655     25650     25649     25651
     25650     25649     25652     25651     25649     25652     25652     25655     25656
     25652     25655     25657     25652     25655     25658     25653     25652     25654
     25653     25652     25655     25654     25652     25655     25655     25658     25659
     25655     25658     25660     25655     25658     25661     25656     25655     25657
     25656     25655     25658     25657     25655     25658     25658     25661     25662
     25658     25661     25663     25658     25661     25664     25659     25658     25660
     25659     25658     25661     25660     25658     25661     25661     25664     25665
     25661     25664     25666     25661     25664     25667     25662     25661     25663
     25662     25661     25664     25663     25661     25664     25665     25664     25666
     25665     25664     25667     25666     25664     25667     25668     25670     25671
     25668     25670     25672     25668     25670     25673     25669     25668     25670
     25670     25673     25674     25670     25673     25675     25670     25673     25712
     25671     25670     25672     25671     25670     25673     25672     25670     25673
     25673     25675     25676     25673     25712     25713     25673     25712     25714
     25673     25712     25715     25674     25673     25675     25674     25673     25712
     25675     25673     25712     25675     25676     25677     25675     25676     25678
     25676     25678     25679     25676     25678     25680     25676     25678     25681
     25677     25676     25678     25678     25681     25682     25678     25681     25683
     25678     25681     25684     25679     25678     25680     25679     25678     25681
     25680     25678     25681     25681     25684     25685     25681     25684     25686
     25681     25684     25687     25682     25681     25683     25682     25681     25684
     25683     25681     25684     25684     25687     25688     25684     25687     25689
     25684     25687     25690     25685     25684     25686     25685     25684     25687
     25686     25684     25687     25687     25690     25691     25687     25690     25692
     25687     25690     25693     25688     25687     25689     25688     25687     25690
     25689     25687     25690     25690     25693     25694     25690     25693     25695
     25690     25693     25696     25691     25690     25692     25691     25690     25693
     25692     25690     25693     25693     25696     25697     25693     25696     25698
     25693     25696     25699     25694     25693     25695     25694     25693     25696
     25695     25693     25696     25696     25699     25700     25696     25699     25701
     25696     25699     25702     25697     25696     25698     25697     25696     25699
     25698     25696     25699     25699     25702     25703     25699     25702     25704
     25699     25702     25705     25700     25699     25701     25700     25699     25702
     25701     25699     25702     25702     25705     25706     25702     25705     25707
     25702     25705     25708     25703     25702     25704     25703     25702     25705
     25704     25702     25705     25705     25708     25709     25705     25708     25710
     25705     25708     25711     25706     25705     25707     25706     25705     25708
     25707     25705     25708     25709     25708     25710     25709     25708     25711
     25710     25708     25711     25712     25715     25716     25712     25715     25717
     25712     25715     25718     25713     25712     25714     25713     25712     25715
     25714     25712     25715     25715     25718     25719     25715     25718     25720
     25715     25718     25721     25716     25715     25717     25716     25715     25718
     25717     25715     25718     25718     25721     25722     25718     25721     25723
     25718     25721     25724     25719     25718     25720     25719     25718     25721
     25720     25718     25721     25721     25724     25725     25721     25724     25726
     25721     25724     25727     25722     25721     25723     25722     25721     25724
     25723     25721     25724     25724     25727     25728     25724     25727     25729
     25724     25727     25730     25725     25724     25726     25725     25724     25727
     25726     25724     25727     25727     25730     25731     25727     25730     25732
     25727     25730     25733     25728     25727     25729     25728     25727     25730
     25729     25727     25730     25730     25733     25734     25730     25733     25735
     25730     25733     25736     25731     25730     25732     25731     25730     25733
     25732     25730     25733     25733     25736     25737     25733     25736     25738
     25733     25736     25739     25734     25733     25735     25734     25733     25736
     25735     25733     25736     25736     25739     25740     25736     25739     25741
     25736     25739     25742     25737     25736     25738     25737     25736     25739
     25738     25736     25739     25739     25742     25743     25739     25742     25744
     25739     25742     25745     25740     25739     25741     25740     25739     25742
     25741     25739     25742     25743     25742     25744     25743     25742     25745
     25744     25742     25745     25746     25748     25749     25746     25750     25751
     25746     25750     25752     25746     25750     25753     25747     25746     25748
     25747     25746     25750     25748     25746     25750     25750     25753     25754
     25750     25753     25755     25750     25753     25756     25751     25750     25752
     25751     25750     25753     25752     25750     25753     25753     25756     25757
     25753     25756     25758     25753     25756     25759     25754     25753     25755
     25754     25753     25756     25755     25753     25756     25756     25759     25760
     25756     25759     25761     25756     25759     25762     25757     25756     25758
     25757     25756     25759     25758     25756     25759     25759     25762     25763
     25759     25762     25764     25759     25762     25765     25760     25759     25761
     25760     25759     25762     25761     25759     25762     25762     25765     25766
     25762     25765     25767     25762     25765     25768     25763     25762     25764
     25763     25762     25765     25764     25762     25765     25765     25768     25769
     25765     25768     25770     25765     25768     25771     25766     25765     25767
     25766     25765     25768     25767     25765     25768     25768     25771     25772
     25768     25771     25773     25768     25771     25774     25769     25768     25770
     25769     25768     25771     25770     25768     25771     25771     25774     25775
     25771     25774     25776     25771     25774     25777     25772     25771     25773
     25772     25771     25774     25773     25771     25774     25774     25777     25778
     25774     25777     25779     25774     25777     25780     25775     25774     25776
     25775     25774     25777     25776     25774     25777     25777     25780     25781
     25777     25780     25782     25777     25780     25783     25778     25777     25779
     25778     25777     25780     25779     25777     25780     25781     25780     25782
     25781     25780     25783     25782     25780     25783     25784     25786     25787
     25784     25786     25788     25784     25786     25789     25785     25784     25786
     25786     25789     25790     25786     25789     25791     25786     25789     25793
     25787     25786     25788     25787     25786     25789     25788     25786     25789
     25789     25791     25792     25789     25793     25794     25789     25793     25795
     25789     25793     25796     25790     25789     25791     25790     25789     25793
     25791     25789     25793     25793     25796     25797     25793     25796     25798
     25793     25796     25799     25794     25793     25795     25794     25793     25796
     25795     25793     25796     25796     25799     25800     25796     25799     25801
     25796     25799     25802     25797     25796     25798     25797     25796     25799
     25798     25796     25799     25799     25802     25803     25799     25802     25804
     25799     25802     25805     25800     25799     25801     25800     25799     25802
     25801     25799     25802     25802     25805     25806     25802     25805     25807
     25802     25805     25808     25803     25802     25804     25803     25802     25805
     25804     25802     25805     25805     25808     25809     25805     25808     25810
     25805     25808     25811     25806     25805     25807     25806     25805     25808
     25807     25805     25808     25808     25811     25812     25808     25811     25813
     25808     25811     25814     25809     25808     25810     25809     25808     25811
     25810     25808     25811     25811     25814     25815     25811     25814     25816
     25811     25814     25817     25812     25811     25813     25812     25811     25814
     25813     25811     25814     25814     25817     25818     25814     25817     25819
     25814     25817     25820     25815     25814     25816     25815     25814     25817
     25816     25814     25817     25817     25820     25821     25817     25820     25822
     25817     25820     25823     25818     25817     25819     25818     25817     25820
     25819     25817     25820     25820     25823     25824     25820     25823     25825
     25820     25823     25826     25821     25820     25822     25821     25820     25823
     25822     25820     25823     25824     25823     25825     25824     25823     25826
     25825     25823     25826     25827     25830     25833     25827     25830     25834
     25828     25827     25829     25828     25827     25830     25829     25827     25830
     25830     25833     25831     25830     25834     25835     25830     25834     25836
     25830     25834     25837     25831     25840     25837     25831     25840     25841
     25831     25840     25842     25831     25843     25844     25831     25843     25845
     25831     25843     25847     25832     25831     25833     25832     25831     25840
     25832     25831     25843     25833     25830     25834     25833     25831     25840
     25833     25831     25843     25834     25837     25838     25834     25837     25839
     25834     25837     25840     25835     25834     25836     25835     25834     25837
     25836     25834     25837     25837     25839     25855     25837     25840     25841
     25837     25840     25842     25838     25837     25839     25838     25837     25840
     25839     25837     25840     25839     25855     25852     25839     25855     25858
     25839     25855     25859     25840     25831     25843     25840     25842     25879
     25841     25840     25842     25842     25879     25880     25842     25879     25883
     25842     25879     25884     25843     25845     25846     25843     25847     25848
     25843     25847     25849     25843     25847     25850     25844     25843     25845
     25844     25843     25847     25845     25843     25847     25847     25850     25851
     25848     25847     25849     25848     25847     25850     25849     25847     25850
     25852     25855     25858     25852     25855     25859     25853     25852     25854
     25853     25852     25855     25854     25852     25855     25855     25858     25856
     25855     25859     25860     25855     25859     25861     25855     25859     25862
     25856     25866     25862     25856     25866     25867     25856     25866     25868
     25856     25870     25871     25856     25870     25872     25856     25870     25874
     25857     25856     25858     25857     25856     25866     25857     25856     25870
     25858     25855     25859     25858     25856     25866     25858     25856     25870
     25859     25862     25863     25859     25862     25864     25859     25862     25866
     25860     25859     25861     25860     25859     25862     25861     25859     25862
     25862     25864     25865     25862     25866     25867     25862     25866     25868
     25863     25862     25864     25863     25862     25866     25864     25862     25866
     25866     25856     25870     25866     25868     25869     25867     25866     25868
     25870     25872     25873     25870     25874     25875     25870     25874     25876
     25870     25874     25877     25871     25870     25872     25871     25870     25874
     25872     25870     25874     25874     25877     25878     25875     25874     25876
     25875     25874     25877     25876     25874     25877     25879     25883     25881
     25879     25884     25885     25879     25884     25886     25879     25884     25888
     25880     25879     25883     25880     25879     25884     25881     25891     25888
     25881     25891     25892     25881     25891     25893     25881     25898     25899
     25881     25898     25900     25881     25898     25902     25882     25881     25883
     25882     25881     25891     25882     25881     25898     25883     25879     25884
     25883     25881     25891     25883     25881     25898     25884     25886     25887
     25884     25888     25889     25884     25888     25890     25884     25888     25891
     25885     25884     25886     25885     25884     25888     25886     25884     25888
     25888     25890     25907     25888     25891     25892     25888     25891     25893
     25889     25888     25890     25889     25888     25891     25890     25888     25891
     25890     25907     25908     25890     25907     25911     25890     25907     25912
     25891     25881     25898     25891     25893     25894     25892     25891     25893
     25893     25894     25895     25893     25894     25896     25893     25894     25897
     25895     25894     25896     25895     25894     25897     25896     25894     25897
     25898     25900     25901     25898     25902     25903     25898     25902     25904
     25898     25902     25905     25899     25898     25900     25899     25898     25902
     25900     25898     25902     25902     25905     25906     25903     25902     25904
     25903     25902     25905     25904     25902     25905     25907     25911     25909
     25907     25912     25913     25907     25912     25914     25907     25912     25916
     25908     25907     25911     25908     25907     25912     25909     25919     25916
     25909     25919     25920     25909     25919     25921     25909     25926     25927
     25909     25926     25928     25909     25926     25930     25910     25909     25911
     25910     25909     25919     25910     25909     25926     25911     25907     25912
     25911     25909     25919     25911     25909     25926     25912     25914     25915
     25912     25916     25917     25912     25916     25918     25912     25916     25919
     25913     25912     25914     25913     25912     25916     25914     25912     25916
     25916     25918     25960     25916     25919     25920     25916     25919     25921
     25917     25916     25918     25917     25916     25919     25918     25916     25919
     25918     25960     25961     25918     25960     25964     25918     25960     25965
     25919     25909     25926     25919     25921     25922     25920     25919     25921
     25921     25922     25923     25921     25922     25924     25921     25922     25925
     25923     25922     25924     25923     25922     25925     25924     25922     25925
     25926     25928     25929     25926     25930     25931     25926     25930     25932
     25926     25930     25933     25927     25926     25928     25927     25926     25930
     25928     25926     25930     25930     25933     25934     25931     25930     25932
     25931     25930     25933     25932     25930     25933     25933     25934     25935
     25933     25934     25938     25933     25934     25939     25934     25938     25936
     25934     25939     25940     25934     25939     25941     25934     25939     25943
     25935     25934     25938     25935     25934     25939     25936     25947     25943
     25936     25947     25948     25936     25947     25949     25936     25951     25952
     25936     25951     25953     25936     25951     25955     25937     25936     25938
     25937     25936     25947     25937     25936     25951     25938     25934     25939
     25938     25936     25947     25938     25936     25951     25939     25941     25942
     25939     25943     25944     25939     25943     25945     25939     25943     25947
     25940     25939     25941     25940     25939     25943     25941     25939     25943
     25943     25945     25946     25943     25947     25948     25943     25947     25949
     25944     25943     25945     25944     25943     25947     25945     25943     25947
     25947     25936     25951     25947     25949     25950     25948     25947     25949
     25951     25953     25954     25951     25955     25956     25951     25955     25957
     25951     25955     25958     25952     25951     25953     25952     25951     25955
     25953     25951     25955     25955     25958     25959     25956     25955     25957
     25956     25955     25958     25957     25955     25958     25960     25964     25962
     25960     25965     25966     25960     25965     25967     25960     25965     25969
     25961     25960     25964     25961     25960     25965     25962     25972     25969
     25962     25972     25973     25962     25972     25974     25962     25976     25977
     25962     25976     25978     25962     25976     25979     25963     25962     25964
     25963     25962     25972     25963     25962     25976     25964     25960     25965
     25964     25962     25972     25964     25962     25976     25965     25967     25968
     25965     25969     25970     25965     25969     25971     25965     25969     25972
     25966     25965     25967     25966     25965     25969     25967     25965     25969
     25969     25971     25981     25969     25972     25973     25969     25972     25974
     25970     25969     25971     25970     25969     25972     25971     25969     25972
     25971     25981     25982     25971     25981     25985     25971     25981     25986
     25972     25962     25976     25972     25974     25975     25973     25972     25974
     25976     25979     25980     25977     25976     25978     25977     25976     25979
     25978     25976     25979     25981     25985     25983     25981     25986     25987
     25981     25986     25988     25981     25986     25989     25982     25981     25985
     25982     25981     25986     25983     25992     25989     25983     25992     25993
     25983     25992     25994     25983     25996     25997     25983     25996     25998
     25983     25996     25999     25984     25983     25985     25984     25983     25992
     25984     25983     25996     25985     25981     25986     25985     25983     25992
     25985     25983     25996     25986     25988     26001     25986     25989     25990
     25986     25989     25991     25986     25989     25992     25987     25986     25988
     25987     25986     25989     25988     25986     25989     25988     26001     26002
     25988     26001     26005     25988     26001     26006     25989     25991     26044
     25989     25992     25993     25989     25992     25994     25990     25989     25991
     25990     25989     25992     25991     25989     25992     25991     26044     26045
     25991     26044     26048     25991     26044     26049     25992     25983     25996
     25992     25994     25995     25993     25992     25994     25996     25999     26000
     25997     25996     25998     25997     25996     25999     25998     25996     25999
     26001     26005     26003     26001     26006     26007     26001     26006     26008
     26001     26006     26009     26002     26001     26005     26002     26001     26006
     26003     26013     26009     26003     26013     26014     26003     26013     26015
     26003     26017     26018     26003     26017     26019     26003     26017     26020
     26004     26003     26005     26004     26003     26013     26004     26003     26017
     26005     26001     26006     26005     26003     26013     26005     26003     26017
     26006     26008     26022     26006     26009     26010     26006     26009     26011
     26006     26009     26013     26007     26006     26008     26007     26006     26009
     26008     26006     26009     26008     26022     26023     26008     26022     26026
     26008     26022     26027     26009     26011     26012     26009     26013     26014
     26009     26013     26015     26010     26009     26011     26010     26009     26013
     26011     26009     26013     26013     26003     26017     26013     26015     26016
     26014     26013     26015     26017     26020     26021     26018     26017     26019
     26018     26017     26020     26019     26017     26020     26022     26026     26024
     26022     26027     26028     26022     26027     26029     26022     26027     26031
     26023     26022     26026     26023     26022     26027     26024     26035     26031
     26024     26035     26036     26024     26035     26037     26024     26039     26040
     26024     26039     26041     26024     26039     26042     26025     26024     26026
     26025     26024     26035     26025     26024     26039     26026     26022     26027
     26026     26024     26035     26026     26024     26039     26027     26029     26030
     26027     26031     26032     26027     26031     26033     26027     26031     26035
     26028     26027     26029     26028     26027     26031     26029     26027     26031
     26031     26033     26034     26031     26035     26036     26031     26035     26037
     26032     26031     26033     26032     26031     26035     26033     26031     26035
     26035     26024     26039     26035     26037     26038     26036     26035     26037
     26039     26042     26043     26040     26039     26041     26040     26039     26042
     26041     26039     26042     26044     26048     26046     26044     26049     26050
     26044     26049     26051     26044     26049     26053     26045     26044     26048
     26045     26044     26049     26046     26056     26053     26046     26056     26057
     26046     26056     26058     26046     26060     26061     26046     26060     26062
     26046     26060     26063     26047     26046     26048     26047     26046     26056
     26047     26046     26060     26048     26044     26049     26048     26046     26056
     26048     26046     26060     26049     26051     26052     26049     26053     26054
     26049     26053     26055     26049     26053     26056     26050     26049     26051
     26050     26049     26053     26051     26049     26053     26053     26055     26065
     26053     26056     26057     26053     26056     26058     26054     26053     26055
     26054     26053     26056     26055     26053     26056     26055     26065     26066
     26055     26065     26069     26055     26065     26070     26056     26046     26060
     26056     26058     26059     26057     26056     26058     26060     26063     26064
     26061     26060     26062     26061     26060     26063     26062     26060     26063
     26065     26069     26067     26065     26070     26071     26065     26070     26072
     26065     26070     26080     26066     26065     26069     26066     26065     26070
     26067     26083     26080     26067     26083     26084     26067     26083     26085
     26067     26087     26088     26067     26087     26089     26067     26087     26090
     26068     26067     26069     26068     26067     26083     26068     26067     26087
     26069     26065     26070     26069     26067     26083     26069     26067     26087
     26070     26072     26073     26070     26072     26074     26070     26080     26081
     26070     26080     26082     26070     26080     26083     26071     26070     26072
     26071     26070     26080     26072     26070     26080     26072     26074     26075
     26072     26074     26076     26073     26072     26074     26074     26076     26077
     26074     26076     26078     26074     26076     26079     26075     26074     26076
     26077     26076     26078     26077     26076     26079     26078     26076     26079
     26080     26082     26092     26080     26083     26084     26080     26083     26085
     26081     26080     26082     26081     26080     26083     26082     26080     26083
     26082     26092     26093     26082     26092     26096     26082     26092     26097
     26083     26067     26087     26083     26085     26086     26084     26083     26085
     26087     26090     26091     26088     26087     26089     26088     26087     26090
     26089     26087     26090     26092     26096     26094     26092     26097     26098
     26092     26097     26099     26092     26097     26100     26093     26092     26096
     26093     26092     26097     26094     26104     26100     26094     26104     26105
     26094     26104     26106     26094     26108     26109     26094     26108     26110
     26094     26108     26111     26095     26094     26096     26095     26094     26104
     26095     26094     26108     26096     26092     26097     26096     26094     26104
     26096     26094     26108     26097     26099     26113     26097     26100     26101
     26097     26100     26102     26097     26100     26104     26098     26097     26099
     26098     26097     26100     26099     26097     26100     26099     26113     26114
     26099     26113     26117     26099     26113     26118     26100     26102     26103
     26100     26104     26105     26100     26104     26106     26101     26100     26102
     26101     26100     26104     26102     26100     26104     26104     26094     26108
     26104     26106     26107     26105     26104     26106     26108     26111     26112
     26109     26108     26110     26109     26108     26111     26110     26108     26111
     26113     26117     26115     26113     26118     26119     26113     26118     26120
     26113     26118     26121     26114     26113     26117     26114     26113     26118
     26115     26125     26121     26115     26125     26126     26115     26125     26127
     26115     26129     26130     26115     26129     26131     26115     26129     26132
     26116     26115     26117     26116     26115     26125     26116     26115     26129
     26117     26113     26118     26117     26115     26125     26117     26115     26129
     26118     26120     26133     26118     26121     26122     26118     26121     26123
     26118     26121     26125     26119     26118     26120     26119     26118     26121
     26120     26118     26121     26120     26133     26134     26120     26133     26137
     26120     26133     26138     26121     26123     26124     26121     26125     26126
     26121     26125     26127     26122     26121     26123     26122     26121     26125
     26123     26121     26125     26125     26115     26129     26125     26127     26128
     26126     26125     26127     26130     26129     26131     26130     26129     26132
     26131     26129     26132     26133     26137     26135     26133     26138     26139
     26133     26138     26140     26133     26138     26141     26134     26133     26137
     26134     26133     26138     26135     26144     26141     26135     26144     26145
     26135     26144     26146     26135     26148     26149     26135     26148     26150
     26135     26148     26151     26136     26135     26137     26136     26135     26144
     26136     26135     26148     26137     26133     26138     26137     26135     26144
     26137     26135     26148     26138     26140     26152     26138     26141     26142
     26138     26141     26143     26138     26141     26144     26139     26138     26140
     26139     26138     26141     26140     26138     26141     26140     26152     26153
     26140     26152     26156     26140     26152     26157     26141     26143     26180
     26141     26144     26145     26141     26144     26146     26142     26141     26143
     26142     26141     26144     26143     26141     26144     26143     26180     26181
     26143     26180     26184     26143     26180     26185     26144     26135     26148
     26144     26146     26147     26145     26144     26146     26149     26148     26150
     26149     26148     26151     26150     26148     26151     26152     26156     26154
     26152     26157     26158     26152     26157     26159     26152     26157     26167
     26153     26152     26156     26153     26152     26157     26154     26171     26167
     26154     26171     26172     26154     26171     26173     26154     26175     26176
     26154     26175     26177     26154     26175     26178     26155     26154     26156
     26155     26154     26171     26155     26154     26175     26156     26152     26157
     26156     26154     26171     26156     26154     26175     26157     26159     26160
     26157     26159     26161     26157     26167     26168     26157     26167     26169
     26157     26167     26171     26158     26157     26159     26158     26157     26167
     26159     26157     26167     26159     26161     26162     26159     26161     26163
     26160     26159     26161     26161     26163     26164     26161     26163     26165
     26161     26163     26166     26162     26161     26163     26164     26163     26165
     26164     26163     26166     26165     26163     26166     26167     26169     26170
     26167     26171     26172     26167     26171     26173     26168     26167     26169
     26168     26167     26171     26169     26167     26171     26171     26154     26175
     26171     26173     26174     26172     26171     26173     26175     26178     26179
     26176     26175     26177     26176     26175     26178     26177     26175     26178
     26180     26184     26182     26180     26185     26186     26180     26185     26187
     26180     26185     26195     26181     26180     26184     26181     26180     26185
     26182     26198     26195     26182     26198     26199     26182     26198     26200
     26182     26202     26203     26182     26202     26204     26182     26202     26205
     26183     26182     26184     26183     26182     26198     26183     26182     26202
     26184     26180     26185     26184     26182     26198     26184     26182     26202
     26185     26187     26188     26185     26187     26189     26185     26195     26196
     26185     26195     26197     26185     26195     26198     26186     26185     26187
     26186     26185     26195     26187     26185     26195     26187     26189     26190
     26187     26189     26191     26188     26187     26189     26189     26191     26192
     26189     26191     26193     26189     26191     26194     26190     26189     26191
     26192     26191     26193     26192     26191     26194     26193     26191     26194
     26195     26197     26207     26195     26198     26199     26195     26198     26200
     26196     26195     26197     26196     26195     26198     26197     26195     26198
     26197     26207     26208     26197     26207     26211     26197     26207     26212
     26198     26182     26202     26198     26200     26201     26199     26198     26200
     26202     26205     26206     26203     26202     26204     26203     26202     26205
     26204     26202     26205     26207     26211     26209     26207     26212     26213
     26207     26212     26214     26207     26212     26215     26208     26207     26211
     26208     26207     26212     26209     26219     26215     26209     26219     26220
     26209     26219     26221     26209     26223     26224     26209     26223     26225
     26209     26223     26226     26210     26209     26211     26210     26209     26219
     26210     26209     26223     26211     26207     26212     26211     26209     26219
     26211     26209     26223     26212     26214     26228     26212     26215     26216
     26212     26215     26217     26212     26215     26219     26213     26212     26214
     26213     26212     26215     26214     26212     26215     26214     26228     26229
     26214     26228     26232     26214     26228     26233     26215     26217     26218
     26215     26219     26220     26215     26219     26221     26216     26215     26217
     26216     26215     26219     26217     26215     26219     26219     26209     26223
     26219     26221     26222     26220     26219     26221     26223     26226     26227
     26224     26223     26225     26224     26223     26226     26225     26223     26226
     26228     26232     26230     26228     26233     26234     26228     26233     26235
     26228     26233     26236     26229     26228     26232     26229     26228     26233
     26230     26240     26236     26230     26240     26241     26230     26240     26242
     26230     26244     26245     26230     26244     26246     26230     26244     26247
     26231     26230     26232     26231     26230     26240     26231     26230     26244
     26232     26228     26233     26232     26230     26240     26232     26230     26244
     26233     26235     26248     26233     26236     26237     26233     26236     26238
     26233     26236     26240     26234     26233     26235     26234     26233     26236
     26235     26233     26236     26235     26248     26249     26235     26248     26252
     26235     26248     26253     26236     26238     26239     26236     26240     26241
     26236     26240     26242     26237     26236     26238     26237     26236     26240
     26238     26236     26240     26240     26230     26244     26240     26242     26243
     26241     26240     26242     26245     26244     26246     26245     26244     26247
     26246     26244     26247     26248     26252     26250     26248     26253     26254
     26248     26253     26255     26248     26253     26256     26249     26248     26252
     26249     26248     26253     26250     26259     26256     26250     26259     26260
     26250     26259     26261     26250     26263     26264     26250     26263     26265
     26250     26263     26266     26251     26250     26252     26251     26250     26259
     26251     26250     26263     26252     26248     26253     26252     26250     26259
     26252     26250     26263     26253     26255     26267     26253     26256     26257
     26253     26256     26258     26253     26256     26259     26254     26253     26255
     26254     26253     26256     26255     26253     26256     26255     26267     26268
     26255     26267     26271     26255     26267     26272     26256     26258     26295
     26256     26259     26260     26256     26259     26261     26257     26256     26258
     26257     26256     26259     26258     26256     26259     26258     26295     26296
     26258     26295     26299     26258     26295     26300     26259     26250     26263
     26259     26261     26262     26260     26259     26261     26264     26263     26265
     26264     26263     26266     26265     26263     26266     26267     26271     26269
     26267     26272     26273     26267     26272     26274     26267     26272     26282
     26268     26267     26271     26268     26267     26272     26269     26286     26282
     26269     26286     26287     26269     26286     26288     26269     26290     26291
     26269     26290     26292     26269     26290     26293     26270     26269     26271
     26270     26269     26286     26270     26269     26290     26271     26267     26272
     26271     26269     26286     26271     26269     26290     26272     26274     26275
     26272     26274     26276     26272     26282     26283     26272     26282     26284
     26272     26282     26286     26273     26272     26274     26273     26272     26282
     26274     26272     26282     26274     26276     26277     26274     26276     26278
     26275     26274     26276     26276     26278     26279     26276     26278     26280
     26276     26278     26281     26277     26276     26278     26279     26278     26280
     26279     26278     26281     26280     26278     26281     26282     26284     26285
     26282     26286     26287     26282     26286     26288     26283     26282     26284
     26283     26282     26286     26284     26282     26286     26286     26269     26290
     26286     26288     26289     26287     26286     26288     26290     26293     26294
     26291     26290     26292     26291     26290     26293     26292     26290     26293
     26295     26299     26297     26295     26300     26301     26295     26300     26302
     26295     26300     26310     26296     26295     26299     26296     26295     26300
     26297     26313     26310     26297     26313     26314     26297     26313     26315
     26297     26317     26318     26297     26317     26319     26297     26317     26320
     26298     26297     26299     26298     26297     26313     26298     26297     26317
     26299     26295     26300     26299     26297     26313     26299     26297     26317
     26300     26302     26303     26300     26302     26304     26300     26310     26311
     26300     26310     26312     26300     26310     26313     26301     26300     26302
     26301     26300     26310     26302     26300     26310     26302     26304     26305
     26302     26304     26306     26303     26302     26304     26304     26306     26307
     26304     26306     26308     26304     26306     26309     26305     26304     26306
     26307     26306     26308     26307     26306     26309     26308     26306     26309
     26310     26312     26322     26310     26313     26314     26310     26313     26315
     26311     26310     26312     26311     26310     26313     26312     26310     26313
     26312     26322     26323     26312     26322     26326     26312     26322     26327
     26313     26297     26317     26313     26315     26316     26314     26313     26315
     26317     26320     26321     26318     26317     26319     26318     26317     26320
     26319     26317     26320     26322     26326     26324     26322     26327     26328
     26322     26327     26329     26322     26327     26330     26323     26322     26326
     26323     26322     26327     26324     26334     26330     26324     26334     26335
     26324     26334     26336     26324     26338     26339     26324     26338     26340
     26324     26338     26341     26325     26324     26326     26325     26324     26334
     26325     26324     26338     26326     26322     26327     26326     26324     26334
     26326     26324     26338     26327     26329     26343     26327     26330     26331
     26327     26330     26332     26327     26330     26334     26328     26327     26329
     26328     26327     26330     26329     26327     26330     26329     26343     26344
     26329     26343     26347     26329     26343     26348     26330     26332     26333
     26330     26334     26335     26330     26334     26336     26331     26330     26332
     26331     26330     26334     26332     26330     26334     26334     26324     26338
     26334     26336     26337     26335     26334     26336     26338     26341     26342
     26339     26338     26340     26339     26338     26341     26340     26338     26341
     26343     26347     26345     26343     26348     26349     26343     26348     26350
     26343     26348     26351     26344     26343     26347     26344     26343     26348
     26345     26355     26351     26345     26355     26356     26345     26355     26357
     26345     26359     26360     26345     26359     26361     26345     26359     26362
     26346     26345     26347     26346     26345     26355     26346     26345     26359
     26347     26343     26348     26347     26345     26355     26347     26345     26359
     26348     26350     26363     26348     26351     26352     26348     26351     26353
     26348     26351     26355     26349     26348     26350     26349     26348     26351
     26350     26348     26351     26350     26363     26364     26350     26363     26367
     26350     26363     26368     26351     26353     26354     26351     26355     26356
     26351     26355     26357     26352     26351     26353     26352     26351     26355
     26353     26351     26355     26355     26345     26359     26355     26357     26358
     26356     26355     26357     26360     26359     26361     26360     26359     26362
     26361     26359     26362     26363     26367     26365     26363     26368     26369
     26363     26368     26370     26363     26368     26371     26364     26363     26367
     26364     26363     26368     26365     26374     26371     26365     26374     26375
     26365     26374     26376     26365     26378     26379     26365     26378     26380
     26365     26378     26381     26366     26365     26367     26366     26365     26374
     26366     26365     26378     26367     26363     26368     26367     26365     26374
     26367     26365     26378     26368     26370     26382     26368     26371     26372
     26368     26371     26373     26368     26371     26374     26369     26368     26370
     26369     26368     26371     26370     26368     26371     26370     26382     26383
     26370     26382     26386     26370     26382     26387     26371     26373     26410
     26371     26374     26375     26371     26374     26376     26372     26371     26373
     26372     26371     26374     26373     26371     26374     26373     26410     26411
     26373     26410     26414     26373     26410     26415     26374     26365     26378
     26374     26376     26377     26375     26374     26376     26379     26378     26380
     26379     26378     26381     26380     26378     26381     26382     26386     26384
     26382     26387     26388     26382     26387     26389     26382     26387     26397
     26383     26382     26386     26383     26382     26387     26384     26401     26397
     26384     26401     26402     26384     26401     26403     26384     26405     26406
     26384     26405     26407     26384     26405     26408     26385     26384     26386
     26385     26384     26401     26385     26384     26405     26386     26382     26387
     26386     26384     26401     26386     26384     26405     26387     26389     26390
     26387     26389     26391     26387     26397     26398     26387     26397     26399
     26387     26397     26401     26388     26387     26389     26388     26387     26397
     26389     26387     26397     26389     26391     26392     26389     26391     26393
     26390     26389     26391     26391     26393     26394     26391     26393     26395
     26391     26393     26396     26392     26391     26393     26394     26393     26395
     26394     26393     26396     26395     26393     26396     26397     26399     26400
     26397     26401     26402     26397     26401     26403     26398     26397     26399
     26398     26397     26401     26399     26397     26401     26401     26384     26405
     26401     26403     26404     26402     26401     26403     26405     26408     26409
     26406     26405     26407     26406     26405     26408     26407     26405     26408
     26410     26414     26412     26410     26415     26416     26410     26415     26417
     26410     26415     26425     26411     26410     26414     26411     26410     26415
     26412     26428     26425     26412     26428     26429     26412     26428     26430
     26412     26432     26433     26412     26432     26434     26412     26432     26435
     26413     26412     26414     26413     26412     26428     26413     26412     26432
     26414     26410     26415     26414     26412     26428     26414     26412     26432
     26415     26417     26418     26415     26417     26419     26415     26425     26426
     26415     26425     26427     26415     26425     26428     26416     26415     26417
     26416     26415     26425     26417     26415     26425     26417     26419     26420
     26417     26419     26421     26418     26417     26419     26419     26421     26422
     26419     26421     26423     26419     26421     26424     26420     26419     26421
     26422     26421     26423     26422     26421     26424     26423     26421     26424
     26425     26427     26437     26425     26428     26429     26425     26428     26430
     26426     26425     26427     26426     26425     26428     26427     26425     26428
     26427     26437     26438     26427     26437     26441     26427     26437     26442
     26428     26412     26432     26428     26430     26431     26429     26428     26430
     26432     26435     26436     26433     26432     26434     26433     26432     26435
     26434     26432     26435     26437     26441     26439     26437     26442     26443
     26437     26442     26444     26437     26442     26445     26438     26437     26441
     26438     26437     26442     26439     26449     26445     26439     26449     26450
     26439     26449     26451     26439     26453     26454     26439     26453     26455
     26439     26453     26456     26440     26439     26441     26440     26439     26449
     26440     26439     26453     26441     26437     26442     26441     26439     26449
     26441     26439     26453     26442     26444     26458     26442     26445     26446
     26442     26445     26447     26442     26445     26449     26443     26442     26444
     26443     26442     26445     26444     26442     26445     26444     26458     26459
     26444     26458     26462     26444     26458     26463     26445     26447     26448
     26445     26449     26450     26445     26449     26451     26446     26445     26447
     26446     26445     26449     26447     26445     26449     26449     26439     26453
     26449     26451     26452     26450     26449     26451     26453     26456     26457
     26454     26453     26455     26454     26453     26456     26455     26453     26456
     26458     26462     26460     26458     26463     26464     26458     26463     26465
     26458     26463     26466     26459     26458     26462     26459     26458     26463
     26460     26470     26466     26460     26470     26471     26460     26470     26472
     26460     26474     26475     26460     26474     26476     26460     26474     26477
     26461     26460     26462     26461     26460     26470     26461     26460     26474
     26462     26458     26463     26462     26460     26470     26462     26460     26474
     26463     26465     26478     26463     26466     26467     26463     26466     26468
     26463     26466     26470     26464     26463     26465     26464     26463     26466
     26465     26463     26466     26465     26478     26479     26465     26478     26482
     26465     26478     26483     26466     26468     26469     26466     26470     26471
     26466     26470     26472     26467     26466     26468     26467     26466     26470
     26468     26466     26470     26470     26460     26474     26470     26472     26473
     26471     26470     26472     26475     26474     26476     26475     26474     26477
     26476     26474     26477     26478     26482     26480     26478     26483     26484
     26478     26483     26485     26478     26483     26486     26479     26478     26482
     26479     26478     26483     26480     26489     26486     26480     26489     26490
     26480     26489     26491     26480     26493     26494     26480     26493     26495
     26480     26493     26496     26481     26480     26482     26481     26480     26489
     26481     26480     26493     26482     26478     26483     26482     26480     26489
     26482     26480     26493     26483     26485     26497     26483     26486     26487
     26483     26486     26488     26483     26486     26489     26484     26483     26485
     26484     26483     26486     26485     26483     26486     26485     26497     26498
     26485     26497     26501     26485     26497     26502     26486     26488     26525
     26486     26489     26490     26486     26489     26491     26487     26486     26488
     26487     26486     26489     26488     26486     26489     26488     26525     26526
     26488     26525     26529     26488     26525     26530     26489     26480     26493
     26489     26491     26492     26490     26489     26491     26494     26493     26495
     26494     26493     26496     26495     26493     26496     26497     26501     26499
     26497     26502     26503     26497     26502     26504     26497     26502     26512
     26498     26497     26501     26498     26497     26502     26499     26516     26512
     26499     26516     26517     26499     26516     26518     26499     26520     26521
     26499     26520     26522     26499     26520     26523     26500     26499     26501
     26500     26499     26516     26500     26499     26520     26501     26497     26502
     26501     26499     26516     26501     26499     26520     26502     26504     26505
     26502     26504     26506     26502     26512     26513     26502     26512     26514
     26502     26512     26516     26503     26502     26504     26503     26502     26512
     26504     26502     26512     26504     26506     26507     26504     26506     26508
     26505     26504     26506     26506     26508     26509     26506     26508     26510
     26506     26508     26511     26507     26506     26508     26509     26508     26510
     26509     26508     26511     26510     26508     26511     26512     26514     26515
     26512     26516     26517     26512     26516     26518     26513     26512     26514
     26513     26512     26516     26514     26512     26516     26516     26499     26520
     26516     26518     26519     26517     26516     26518     26520     26523     26524
     26521     26520     26522     26521     26520     26523     26522     26520     26523
     26525     26529     26527     26525     26530     26531     26525     26530     26532
     26525     26530     26540     26526     26525     26529     26526     26525     26530
     26527     26543     26540     26527     26543     26544     26527     26543     26545
     26527     26547     26548     26527     26547     26549     26527     26547     26550
     26528     26527     26529     26528     26527     26543     26528     26527     26547
     26529     26525     26530     26529     26527     26543     26529     26527     26547
     26530     26532     26533     26530     26532     26534     26530     26540     26541
     26530     26540     26542     26530     26540     26543     26531     26530     26532
     26531     26530     26540     26532     26530     26540     26532     26534     26535
     26532     26534     26536     26533     26532     26534     26534     26536     26537
     26534     26536     26538     26534     26536     26539     26535     26534     26536
     26537     26536     26538     26537     26536     26539     26538     26536     26539
     26540     26542     26552     26540     26543     26544     26540     26543     26545
     26541     26540     26542     26541     26540     26543     26542     26540     26543
     26542     26552     26553     26542     26552     26556     26542     26552     26557
     26543     26527     26547     26543     26545     26546     26544     26543     26545
     26547     26550     26551     26548     26547     26549     26548     26547     26550
     26549     26547     26550     26552     26556     26554     26552     26557     26558
     26552     26557     26559     26552     26557     26560     26553     26552     26556
     26553     26552     26557     26554     26564     26560     26554     26564     26565
     26554     26564     26566     26554     26568     26569     26554     26568     26570
     26554     26568     26571     26555     26554     26556     26555     26554     26564
     26555     26554     26568     26556     26552     26557     26556     26554     26564
     26556     26554     26568     26557     26559     26573     26557     26560     26561
     26557     26560     26562     26557     26560     26564     26558     26557     26559
     26558     26557     26560     26559     26557     26560     26559     26573     26574
     26559     26573     26577     26559     26573     26578     26560     26562     26563
     26560     26564     26565     26560     26564     26566     26561     26560     26562
     26561     26560     26564     26562     26560     26564     26564     26554     26568
     26564     26566     26567     26565     26564     26566     26568     26571     26572
     26569     26568     26570     26569     26568     26571     26570     26568     26571
     26573     26577     26575     26573     26578     26579     26573     26578     26580
     26573     26578     26581     26574     26573     26577     26574     26573     26578
     26575     26585     26581     26575     26585     26586     26575     26585     26587
     26575     26589     26590     26575     26589     26591     26575     26589     26592
     26576     26575     26577     26576     26575     26585     26576     26575     26589
     26577     26573     26578     26577     26575     26585     26577     26575     26589
     26578     26580     26593     26578     26581     26582     26578     26581     26583
     26578     26581     26585     26579     26578     26580     26579     26578     26581
     26580     26578     26581     26580     26593     26594     26580     26593     26597
     26580     26593     26598     26581     26583     26584     26581     26585     26586
     26581     26585     26587     26582     26581     26583     26582     26581     26585
     26583     26581     26585     26585     26575     26589     26585     26587     26588
     26586     26585     26587     26590     26589     26591     26590     26589     26592
     26591     26589     26592     26593     26597     26595     26593     26598     26599
     26593     26598     26600     26593     26598     26601     26594     26593     26597
     26594     26593     26598     26595     26605     26601     26595     26605     26606
     26595     26605     26607     26595     26609     26610     26595     26609     26611
     26595     26609     26612     26596     26595     26597     26596     26595     26605
     26596     26595     26609     26597     26593     26598     26597     26595     26605
     26597     26595     26609     26598     26600     26613     26598     26601     26602
     26598     26601     26603     26598     26601     26605     26599     26598     26600
     26599     26598     26601     26600     26598     26601     26600     26613     26614
     26600     26613     26617     26600     26613     26618     26601     26603     26604
     26601     26605     26606     26601     26605     26607     26602     26601     26603
     26602     26601     26605     26603     26601     26605     26605     26595     26609
     26605     26607     26608     26606     26605     26607     26610     26609     26611
     26610     26609     26612     26611     26609     26612     26613     26617     26615
     26613     26618     26619     26613     26618     26620     26613     26618     26628
     26614     26613     26617     26614     26613     26618     26615     26632     26628
     26615     26632     26633     26615     26632     26634     26615     26636     26637
     26615     26636     26638     26615     26636     26639     26616     26615     26617
     26616     26615     26632     26616     26615     26636     26617     26613     26618
     26617     26615     26632     26617     26615     26636     26618     26620     26621
     26618     26620     26622     26618     26628     26629     26618     26628     26630
     26618     26628     26632     26619     26618     26620     26619     26618     26628
     26620     26618     26628     26620     26622     26623     26620     26622     26624
     26621     26620     26622     26622     26624     26625     26622     26624     26626
     26622     26624     26627     26623     26622     26624     26625     26624     26626
     26625     26624     26627     26626     26624     26627     26628     26630     26631
     26628     26632     26633     26628     26632     26634     26629     26628     26630
     26629     26628     26632     26630     26628     26632     26632     26615     26636
     26632     26634     26635     26633     26632     26634     26636     26639     26640
     26637     26636     26638     26637     26636     26639     26638     26636     26639
     26641     26643     26642     26641     26643     26644     26641     26643     26645
     26642     26643     26644     26642     26643     26645     26642     26940     26937
     26642     26940     26943     26642     26940     26944     26643     26642     26940
     26643     26645     26646     26643     26645     26647     26643     26645     26654
     26644     26643     26645     26645     26646     26648     26645     26654     26655
     26645     26654     26656     26645     26654     26661     26646     26645     26647
     26646     26645     26654     26646     26648     26649     26646     26648     26650
     26646     26648     26669     26647     26645     26654     26648     26650     26651
     26648     26669     26661     26648     26669     26670     26648     26669     26671
     26649     26648     26650     26649     26648     26669     26650     26648     26669
     26650     26651     26652     26650     26651     26653     26650     26651     26677
     26651     26677     26673     26651     26677     26678     26651     26677     26679
     26652     26651     26653     26652     26651     26677     26653     26651     26677
     26654     26656     26657     26654     26661     26662     26654     26661     26663
     26654     26661     26669     26655     26654     26656     26655     26654     26661
     26656     26654     26661     26656     26657     26658     26656     26657     26659
     26656     26657     26660     26658     26657     26659     26658     26657     26660
     26659     26657     26660     26661     26662     26664     26661     26669     26670
     26661     26669     26671     26662     26661     26663     26662     26661     26669
     26662     26664     26665     26662     26664     26666     26663     26661     26669
     26664     26666     26667     26664     26666     26668     26664     26666     26699
     26665     26664     26666     26666     26699     26700     26666     26699     26701
     26666     26699     26744     26667     26666     26668     26667     26666     26699
     26668     26666     26699     26669     26671     26672     26669     26671     26778
     26670     26669     26671     26671     26778     26779     26671     26778     26780
     26672     26671     26778     26673     26675     26676     26673     26677     26678
     26673     26677     26679     26673     26687     26688     26673     26687     26689
     26673     26687     26695     26674     26673     26675     26674     26673     26677
     26674     26673     26687     26675     26673     26677     26675     26673     26687
     26677     26673     26687     26677     26679     26680     26678     26677     26679
     26679     26680     26681     26679     26680     26682     26679     26680     26695
     26680     26682     26686     26680     26695     26687     26680     26695     26696
     26680     26695     26697     26681     26680     26682     26681     26680     26695
     26682     26680     26695     26682     26686     26683     26682     26686     26684
     26682     26686     26685     26683     26686     26684     26683     26686     26685
     26684     26686     26685     26687     26689     26690     26687     26695     26696
     26687     26695     26697     26688     26687     26689     26688     26687     26695
     26689     26687     26695     26689     26690     26691     26689     26690     26692
     26690     26692     26693     26690     26692     26694     26690     26692     26856
     26691     26690     26692     26692     26856     26857     26692     26856     26858
     26692     26856     26860     26693     26692     26694     26693     26692     26856
     26694     26692     26856     26695     26697     26698     26695     26697     26894
     26696     26695     26697     26697     26894     26895     26697     26894     26896
     26698     26697     26894     26699     26701     26702     26699     26744     26745
     26699     26744     26746     26699     26744     26747     26700     26699     26701
     26700     26699     26744     26701     26699     26744     26701     26702     26703
     26701     26702     26704     26702     26704     26705     26702     26704     26706
     26702     26704     26707     26703     26702     26704     26704     26707     26708
     26704     26707     26709     26704     26707     26710     26705     26704     26706
     26705     26704     26707     26706     26704     26707     26707     26710     26711
     26707     26710     26712     26707     26710     26713     26708     26707     26709
     26708     26707     26710     26709     26707     26710     26710     26713     26714
     26710     26713     26715     26710     26713     26716     26711     26710     26712
     26711     26710     26713     26712     26710     26713     26713     26716     26717
     26713     26716     26718     26713     26716     26719     26714     26713     26715
     26714     26713     26716     26715     26713     26716     26716     26719     26720
     26716     26719     26721     26716     26719     26722     26717     26716     26718
     26717     26716     26719     26718     26716     26719     26719     26722     26723
     26719     26722     26724     26719     26722     26725     26720     26719     26721
     26720     26719     26722     26721     26719     26722     26722     26725     26726
     26722     26725     26727     26722     26725     26728     26723     26722     26724
     26723     26722     26725     26724     26722     26725     26725     26728     26729
     26725     26728     26730     26725     26728     26731     26726     26725     26727
     26726     26725     26728     26727     26725     26728     26728     26731     26732
     26728     26731     26733     26728     26731     26734     26729     26728     26730
     26729     26728     26731     26730     26728     26731     26731     26734     26735
     26731     26734     26736     26731     26734     26737     26732     26731     26733
     26732     26731     26734     26733     26731     26734     26734     26737     26738
     26734     26737     26739     26734     26737     26740     26735     26734     26736
     26735     26734     26737     26736     26734     26737     26737     26740     26741
     26737     26740     26742     26737     26740     26743     26738     26737     26739
     26738     26737     26740     26739     26737     26740     26741     26740     26742
     26741     26740     26743     26742     26740     26743     26744     26747     26748
     26744     26747     26749     26744     26747     26750     26745     26744     26746
     26745     26744     26747     26746     26744     26747     26747     26750     26751
     26747     26750     26752     26747     26750     26753     26748     26747     26749
     26748     26747     26750     26749     26747     26750     26750     26753     26754
     26750     26753     26755     26750     26753     26756     26751     26750     26752
     26751     26750     26753     26752     26750     26753     26753     26756     26757
     26753     26756     26758     26753     26756     26759     26754     26753     26755
     26754     26753     26756     26755     26753     26756     26756     26759     26760
     26756     26759     26761     26756     26759     26762     26757     26756     26758
     26757     26756     26759     26758     26756     26759     26759     26762     26763
     26759     26762     26764     26759     26762     26765     26760     26759     26761
     26760     26759     26762     26761     26759     26762     26762     26765     26766
     26762     26765     26767     26762     26765     26768     26763     26762     26764
     26763     26762     26765     26764     26762     26765     26765     26768     26769
     26765     26768     26770     26765     26768     26771     26766     26765     26767
     26766     26765     26768     26767     26765     26768     26768     26771     26772
     26768     26771     26773     26768     26771     26774     26769     26768     26770
     26769     26768     26771     26770     26768     26771     26771     26774     26775
     26771     26774     26776     26771     26774     26777     26772     26771     26773
     26772     26771     26774     26773     26771     26774     26775     26774     26776
     26775     26774     26777     26776     26774     26777     26778     26780     26781
     26778     26780     26782     26778     26780     26783     26779     26778     26780
     26780     26783     26784     26780     26783     26785     26780     26783     26822
     26781     26780     26782     26781     26780     26783     26782     26780     26783
     26783     26785     26786     26783     26822     26823     26783     26822     26824
     26783     26822     26825     26784     26783     26785     26784     26783     26822
     26785     26783     26822     26785     26786     26787     26785     26786     26788
     26786     26788     26789     26786     26788     26790     26786     26788     26791
     26787     26786     26788     26788     26791     26792     26788     26791     26793
     26788     26791     26794     26789     26788     26790     26789     26788     26791
     26790     26788     26791     26791     26794     26795     26791     26794     26796
     26791     26794     26797     26792     26791     26793     26792     26791     26794
     26793     26791     26794     26794     26797     26798     26794     26797     26799
     26794     26797     26800     26795     26794     26796     26795     26794     26797
     26796     26794     26797     26797     26800     26801     26797     26800     26802
     26797     26800     26803     26798     26797     26799     26798     26797     26800
     26799     26797     26800     26800     26803     26804     26800     26803     26805
     26800     26803     26806     26801     26800     26802     26801     26800     26803
     26802     26800     26803     26803     26806     26807     26803     26806     26808
     26803     26806     26809     26804     26803     26805     26804     26803     26806
     26805     26803     26806     26806     26809     26810     26806     26809     26811
     26806     26809     26812     26807     26806     26808     26807     26806     26809
     26808     26806     26809     26809     26812     26813     26809     26812     26814
     26809     26812     26815     26810     26809     26811     26810     26809     26812
     26811     26809     26812     26812     26815     26816     26812     26815     26817
     26812     26815     26818     26813     26812     26814     26813     26812     26815
     26814     26812     26815     26815     26818     26819     26815     26818     26820
     26815     26818     26821     26816     26815     26817     26816     26815     26818
     26817     26815     26818     26819     26818     26820     26819     26818     26821
     26820     26818     26821     26822     26825     26826     26822     26825     26827
     26822     26825     26828     26823     26822     26824     26823     26822     26825
     26824     26822     26825     26825     26828     26829     26825     26828     26830
     26825     26828     26831     26826     26825     26827     26826     26825     26828
     26827     26825     26828     26828     26831     26832     26828     26831     26833
     26828     26831     26834     26829     26828     26830     26829     26828     26831
     26830     26828     26831     26831     26834     26835     26831     26834     26836
     26831     26834     26837     26832     26831     26833     26832     26831     26834
     26833     26831     26834     26834     26837     26838     26834     26837     26839
     26834     26837     26840     26835     26834     26836     26835     26834     26837
     26836     26834     26837     26837     26840     26841     26837     26840     26842
     26837     26840     26843     26838     26837     26839     26838     26837     26840
     26839     26837     26840     26840     26843     26844     26840     26843     26845
     26840     26843     26846     26841     26840     26842     26841     26840     26843
     26842     26840     26843     26843     26846     26847     26843     26846     26848
     26843     26846     26849     26844     26843     26845     26844     26843     26846
     26845     26843     26846     26846     26849     26850     26846     26849     26851
     26846     26849     26852     26847     26846     26848     26847     26846     26849
     26848     26846     26849     26849     26852     26853     26849     26852     26854
     26849     26852     26855     26850     26849     26851     26850     26849     26852
     26851     26849     26852     26853     26852     26854     26853     26852     26855
     26854     26852     26855     26856     26858     26859     26856     26860     26861
     26856     26860     26862     26856     26860     26863     26857     26856     26858
     26857     26856     26860     26858     26856     26860     26860     26863     26864
     26860     26863     26865     26860     26863     26866     26861     26860     26862
     26861     26860     26863     26862     26860     26863     26863     26866     26867
     26863     26866     26868     26863     26866     26869     26864     26863     26865
     26864     26863     26866     26865     26863     26866     26866     26869     26870
     26866     26869     26871     26866     26869     26872     26867     26866     26868
     26867     26866     26869     26868     26866     26869     26869     26872     26873
     26869     26872     26874     26869     26872     26875     26870     26869     26871
     26870     26869     26872     26871     26869     26872     26872     26875     26876
     26872     26875     26877     26872     26875     26878     26873     26872     26874
     26873     26872     26875     26874     26872     26875     26875     26878     26879
     26875     26878     26880     26875     26878     26881     26876     26875     26877
     26876     26875     26878     26877     26875     26878     26878     26881     26882
     26878     26881     26883     26878     26881     26884     26879     26878     26880
     26879     26878     26881     26880     26878     26881     26881     26884     26885
     26881     26884     26886     26881     26884     26887     26882     26881     26883
     26882     26881     26884     26883     26881     26884     26884     26887     26888
     26884     26887     26889     26884     26887     26890     26885     26884     26886
     26885     26884     26887     26886     26884     26887     26887     26890     26891
     26887     26890     26892     26887     26890     26893     26888     26887     26889
     26888     26887     26890     26889     26887     26890     26891     26890     26892
     26891     26890     26893     26892     26890     26893     26894     26896     26897
     26894     26896     26898     26894     26896     26899     26895     26894     26896
     26896     26899     26900     26896     26899     26901     26896     26899     26903
     26897     26896     26898     26897     26896     26899     26898     26896     26899
     26899     26901     26902     26899     26903     26904     26899     26903     26905
     26899     26903     26906     26900     26899     26901     26900     26899     26903
     26901     26899     26903     26903     26906     26907     26903     26906     26908
     26903     26906     26909     26904     26903     26905     26904     26903     26906
     26905     26903     26906     26906     26909     26910     26906     26909     26911
     26906     26909     26912     26907     26906     26908     26907     26906     26909
     26908     26906     26909     26909     26912     26913     26909     26912     26914
     26909     26912     26915     26910     26909     26911     26910     26909     26912
     26911     26909     26912     26912     26915     26916     26912     26915     26917
     26912     26915     26918     26913     26912     26914     26913     26912     26915
     26914     26912     26915     26915     26918     26919     26915     26918     26920
     26915     26918     26921     26916     26915     26917     26916     26915     26918
     26917     26915     26918     26918     26921     26922     26918     26921     26923
     26918     26921     26924     26919     26918     26920     26919     26918     26921
     26920     26918     26921     26921     26924     26925     26921     26924     26926
     26921     26924     26927     26922     26921     26923     26922     26921     26924
     26923     26921     26924     26924     26927     26928     26924     26927     26929
     26924     26927     26930     26925     26924     26926     26925     26924     26927
     26926     26924     26927     26927     26930     26931     26927     26930     26932
     26927     26930     26933     26928     26927     26929     26928     26927     26930
     26929     26927     26930     26930     26933     26934     26930     26933     26935
     26930     26933     26936     26931     26930     26932     26931     26930     26933
     26932     26930     26933     26934     26933     26935     26934     26933     26936
     26935     26933     26936     26937     26940     26943     26937     26940     26944
     26938     26937     26939     26938     26937     26940     26939     26937     26940
     26940     26943     26941     26940     26944     26945     26940     26944     26946
     26940     26944     26947     26941     26950     26947     26941     26950     26951
     26941     26950     26952     26941     26953     26954     26941     26953     26955
     26941     26953     26957     26942     26941     26943     26942     26941     26950
     26942     26941     26953     26943     26940     26944     26943     26941     26950
     26943     26941     26953     26944     26947     26948     26944     26947     26949
     26944     26947     26950     26945     26944     26946     26945     26944     26947
     26946     26944     26947     26947     26949     26965     26947     26950     26951
     26947     26950     26952     26948     26947     26949     26948     26947     26950
     26949     26947     26950     26949     26965     26962     26949     26965     26968
     26949     26965     26969     26950     26941     26953     26950     26952     26989
     26951     26950     26952     26952     26989     26990     26952     26989     26993
     26952     26989     26994     26953     26955     26956     26953     26957     26958
     26953     26957     26959     26953     26957     26960     26954     26953     26955
     26954     26953     26957     26955     26953     26957     26957     26960     26961
     26958     26957     26959     26958     26957     26960     26959     26957     26960
     26962     26965     26968     26962     26965     26969     26963     26962     26964
     26963     26962     26965     26964     26962     26965     26965     26968     26966
     26965     26969     26970     26965     26969     26971     26965     26969     26972
     26966     26976     26972     26966     26976     26977     26966     26976     26978
     26966     26980     26981     26966     26980     26982     26966     26980     26984
     26967     26966     26968     26967     26966     26976     26967     26966     26980
     26968     26965     26969     26968     26966     26976     26968     26966     26980
     26969     26972     26973     26969     26972     26974     26969     26972     26976
     26970     26969     26971     26970     26969     26972     26971     26969     26972
     26972     26974     26975     26972     26976     26977     26972     26976     26978
     26973     26972     26974     26973     26972     26976     26974     26972     26976
     26976     26966     26980     26976     26978     26979     26977     26976     26978
     26980     26982     26983     26980     26984     26985     26980     26984     26986
     26980     26984     26987     26981     26980     26982     26981     26980     26984
     26982     26980     26984     26984     26987     26988     26985     26984     26986
     26985     26984     26987     26986     26984     26987     26989     26993     26991
     26989     26994     26995     26989     26994     26996     26989     26994     26998
     26990     26989     26993     26990     26989     26994     26991     27001     26998
     26991     27001     27002     26991     27001     27003     26991     27008     27009
     26991     27008     27010     26991     27008     27012     26992     26991     26993
     26992     26991     27001     26992     26991     27008     26993     26989     26994
     26993     26991     27001     26993     26991     27008     26994     26996     26997
     26994     26998     26999     26994     26998     27000     26994     26998     27001
     26995     26994     26996     26995     26994     26998     26996     26994     26998
     26998     27000     27017     26998     27001     27002     26998     27001     27003
     26999     26998     27000     26999     26998     27001     27000     26998     27001
     27000     27017     27018     27000     27017     27021     27000     27017     27022
     27001     26991     27008     27001     27003     27004     27002     27001     27003
     27003     27004     27005     27003     27004     27006     27003     27004     27007
     27005     27004     27006     27005     27004     27007     27006     27004     27007
     27008     27010     27011     27008     27012     27013     27008     27012     27014
     27008     27012     27015     27009     27008     27010     27009     27008     27012
     27010     27008     27012     27012     27015     27016     27013     27012     27014
     27013     27012     27015     27014     27012     27015     27017     27021     27019
     27017     27022     27023     27017     27022     27024     27017     27022     27026
     27018     27017     27021     27018     27017     27022     27019     27029     27026
     27019     27029     27030     27019     27029     27031     27019     27036     27037
     27019     27036     27038     27019     27036     27040     27020     27019     27021
     27020     27019     27029     27020     27019     27036     27021     27017     27022
     27021     27019     27029     27021     27019     27036     27022     27024     27025
     27022     27026     27027     27022     27026     27028     27022     27026     27029
     27023     27022     27024     27023     27022     27026     27024     27022     27026
     27026     27028     27070     27026     27029     27030     27026     27029     27031
     27027     27026     27028     27027     27026     27029     27028     27026     27029
     27028     27070     27071     27028     27070     27074     27028     27070     27075
     27029     27019     27036     27029     27031     27032     27030     27029     27031
     27031     27032     27033     27031     27032     27034     27031     27032     27035
     27033     27032     27034     27033     27032     27035     27034     27032     27035
     27036     27038     27039     27036     27040     27041     27036     27040     27042
     27036     27040     27043     27037     27036     27038     27037     27036     27040
     27038     27036     27040     27040     27043     27044     27041     27040     27042
     27041     27040     27043     27042     27040     27043     27043     27044     27045
     27043     27044     27048     27043     27044     27049     27044     27048     27046
     27044     27049     27050     27044     27049     27051     27044     27049     27053
     27045     27044     27048     27045     27044     27049     27046     27057     27053
     27046     27057     27058     27046     27057     27059     27046     27061     27062
     27046     27061     27063     27046     27061     27065     27047     27046     27048
     27047     27046     27057     27047     27046     27061     27048     27044     27049
     27048     27046     27057     27048     27046     27061     27049     27051     27052
     27049     27053     27054     27049     27053     27055     27049     27053     27057
     27050     27049     27051     27050     27049     27053     27051     27049     27053
     27053     27055     27056     27053     27057     27058     27053     27057     27059
     27054     27053     27055     27054     27053     27057     27055     27053     27057
     27057     27046     27061     27057     27059     27060     27058     27057     27059
     27061     27063     27064     27061     27065     27066     27061     27065     27067
     27061     27065     27068     27062     27061     27063     27062     27061     27065
     27063     27061     27065     27065     27068     27069     27066     27065     27067
     27066     27065     27068     27067     27065     27068     27070     27074     27072
     27070     27075     27076     27070     27075     27077     27070     27075     27079
     27071     27070     27074     27071     27070     27075     27072     27082     27079
     27072     27082     27083     27072     27082     27084     27072     27086     27087
     27072     27086     27088     27072     27086     27089     27073     27072     27074
     27073     27072     27082     27073     27072     27086     27074     27070     27075
     27074     27072     27082     27074     27072     27086     27075     27077     27078
     27075     27079     27080     27075     27079     27081     27075     27079     27082
     27076     27075     27077     27076     27075     27079     27077     27075     27079
     27079     27081     27091     27079     27082     27083     27079     27082     27084
     27080     27079     27081     27080     27079     27082     27081     27079     27082
     27081     27091     27092     27081     27091     27095     27081     27091     27096
     27082     27072     27086     27082     27084     27085     27083     27082     27084
     27086     27089     27090     27087     27086     27088     27087     27086     27089
     27088     27086     27089     27091     27095     27093     27091     27096     27097
     27091     27096     27098     27091     27096     27099     27092     27091     27095
     27092     27091     27096     27093     27102     27099     27093     27102     27103
     27093     27102     27104     27093     27106     27107     27093     27106     27108
     27093     27106     27109     27094     27093     27095     27094     27093     27102
     27094     27093     27106     27095     27091     27096     27095     27093     27102
     27095     27093     27106     27096     27098     27111     27096     27099     27100
     27096     27099     27101     27096     27099     27102     27097     27096     27098
     27097     27096     27099     27098     27096     27099     27098     27111     27112
     27098     27111     27115     27098     27111     27116     27099     27101     27154
     27099     27102     27103     27099     27102     27104     27100     27099     27101
     27100     27099     27102     27101     27099     27102     27101     27154     27155
     27101     27154     27158     27101     27154     27159     27102     27093     27106
     27102     27104     27105     27103     27102     27104     27106     27109     27110
     27107     27106     27108     27107     27106     27109     27108     27106     27109
     27111     27115     27113     27111     27116     27117     27111     27116     27118
     27111     27116     27119     27112     27111     27115     27112     27111     27116
     27113     27123     27119     27113     27123     27124     27113     27123     27125
     27113     27127     27128     27113     27127     27129     27113     27127     27130
     27114     27113     27115     27114     27113     27123     27114     27113     27127
     27115     27111     27116     27115     27113     27123     27115     27113     27127
     27116     27118     27132     27116     27119     27120     27116     27119     27121
     27116     27119     27123     27117     27116     27118     27117     27116     27119
     27118     27116     27119     27118     27132     27133     27118     27132     27136
     27118     27132     27137     27119     27121     27122     27119     27123     27124
     27119     27123     27125     27120     27119     27121     27120     27119     27123
     27121     27119     27123     27123     27113     27127     27123     27125     27126
     27124     27123     27125     27127     27130     27131     27128     27127     27129
     27128     27127     27130     27129     27127     27130     27132     27136     27134
     27132     27137     27138     27132     27137     27139     27132     27137     27141
     27133     27132     27136     27133     27132     27137     27134     27145     27141
     27134     27145     27146     27134     27145     27147     27134     27149     27150
     27134     27149     27151     27134     27149     27152     27135     27134     27136
     27135     27134     27145     27135     27134     27149     27136     27132     27137
     27136     27134     27145     27136     27134     27149     27137     27139     27140
     27137     27141     27142     27137     27141     27143     27137     27141     27145
     27138     27137     27139     27138     27137     27141     27139     27137     27141
     27141     27143     27144     27141     27145     27146     27141     27145     27147
     27142     27141     27143     27142     27141     27145     27143     27141     27145
     27145     27134     27149     27145     27147     27148     27146     27145     27147
     27149     27152     27153     27150     27149     27151     27150     27149     27152
     27151     27149     27152     27154     27158     27156     27154     27159     27160
     27154     27159     27161     27154     27159     27163     27155     27154     27158
     27155     27154     27159     27156     27166     27163     27156     27166     27167
     27156     27166     27168     27156     27170     27171     27156     27170     27172
     27156     27170     27173     27157     27156     27158     27157     27156     27166
     27157     27156     27170     27158     27154     27159     27158     27156     27166
     27158     27156     27170     27159     27161     27162     27159     27163     27164
     27159     27163     27165     27159     27163     27166     27160     27159     27161
     27160     27159     27163     27161     27159     27163     27163     27165     27175
     27163     27166     27167     27163     27166     27168     27164     27163     27165
     27164     27163     27166     27165     27163     27166     27165     27175     27176
     27165     27175     27179     27165     27175     27180     27166     27156     27170
     27166     27168     27169     27167     27166     27168     27170     27173     27174
     27171     27170     27172     27171     27170     27173     27172     27170     27173
     27175     27179     27177     27175     27180     27181     27175     27180     27182
     27175     27180     27190     27176     27175     27179     27176     27175     27180
     27177     27193     27190     27177     27193     27194     27177     27193     27195
     27177     27197     27198     27177     27197     27199     27177     27197     27200
     27178     27177     27179     27178     27177     27193     27178     27177     27197
     27179     27175     27180     27179     27177     27193     27179     27177     27197
     27180     27182     27183     27180     27182     27184     27180     27190     27191
     27180     27190     27192     27180     27190     27193     27181     27180     27182
     27181     27180     27190     27182     27180     27190     27182     27184     27185
     27182     27184     27186     27183     27182     27184     27184     27186     27187
     27184     27186     27188     27184     27186     27189     27185     27184     27186
     27187     27186     27188     27187     27186     27189     27188     27186     27189
     27190     27192     27202     27190     27193     27194     27190     27193     27195
     27191     27190     27192     27191     27190     27193     27192     27190     27193
     27192     27202     27203     27192     27202     27206     27192     27202     27207
     27193     27177     27197     27193     27195     27196     27194     27193     27195
     27197     27200     27201     27198     27197     27199     27198     27197     27200
     27199     27197     27200     27202     27206     27204     27202     27207     27208
     27202     27207     27209     27202     27207     27210     27203     27202     27206
     27203     27202     27207     27204     27214     27210     27204     27214     27215
     27204     27214     27216     27204     27218     27219     27204     27218     27220
     27204     27218     27221     27205     27204     27206     27205     27204     27214
     27205     27204     27218     27206     27202     27207     27206     27204     27214
     27206     27204     27218     27207     27209     27223     27207     27210     27211
     27207     27210     27212     27207     27210     27214     27208     27207     27209
     27208     27207     27210     27209     27207     27210     27209     27223     27224
     27209     27223     27227     27209     27223     27228     27210     27212     27213
     27210     27214     27215     27210     27214     27216     27211     27210     27212
     27211     27210     27214     27212     27210     27214     27214     27204     27218
     27214     27216     27217     27215     27214     27216     27218     27221     27222
     27219     27218     27220     27219     27218     27221     27220     27218     27221
     27223     27227     27225     27223     27228     27229     27223     27228     27230
     27223     27228     27231     27224     27223     27227     27224     27223     27228
     27225     27235     27231     27225     27235     27236     27225     27235     27237
     27225     27239     27240     27225     27239     27241     27225     27239     27242
     27226     27225     27227     27226     27225     27235     27226     27225     27239
     27227     27223     27228     27227     27225     27235     27227     27225     27239
     27228     27230     27243     27228     27231     27232     27228     27231     27233
     27228     27231     27235     27229     27228     27230     27229     27228     27231
     27230     27228     27231     27230     27243     27244     27230     27243     27247
     27230     27243     27248     27231     27233     27234     27231     27235     27236
     27231     27235     27237     27232     27231     27233     27232     27231     27235
     27233     27231     27235     27235     27225     27239     27235     27237     27238
     27236     27235     27237     27240     27239     27241     27240     27239     27242
     27241     27239     27242     27243     27247     27245     27243     27248     27249
     27243     27248     27250     27243     27248     27251     27244     27243     27247
     27244     27243     27248     27245     27254     27251     27245     27254     27255
     27245     27254     27256     27245     27258     27259     27245     27258     27260
     27245     27258     27261     27246     27245     27247     27246     27245     27254
     27246     27245     27258     27247     27243     27248     27247     27245     27254
     27247     27245     27258     27248     27250     27262     27248     27251     27252
     27248     27251     27253     27248     27251     27254     27249     27248     27250
     27249     27248     27251     27250     27248     27251     27250     27262     27263
     27250     27262     27266     27250     27262     27267     27251     27253     27290
     27251     27254     27255     27251     27254     27256     27252     27251     27253
     27252     27251     27254     27253     27251     27254     27253     27290     27291
     27253     27290     27294     27253     27290     27295     27254     27245     27258
     27254     27256     27257     27255     27254     27256     27259     27258     27260
     27259     27258     27261     27260     27258     27261     27262     27266     27264
     27262     27267     27268     27262     27267     27269     27262     27267     27277
     27263     27262     27266     27263     27262     27267     27264     27281     27277
     27264     27281     27282     27264     27281     27283     27264     27285     27286
     27264     27285     27287     27264     27285     27288     27265     27264     27266
     27265     27264     27281     27265     27264     27285     27266     27262     27267
     27266     27264     27281     27266     27264     27285     27267     27269     27270
     27267     27269     27271     27267     27277     27278     27267     27277     27279
     27267     27277     27281     27268     27267     27269     27268     27267     27277
     27269     27267     27277     27269     27271     27272     27269     27271     27273
     27270     27269     27271     27271     27273     27274     27271     27273     27275
     27271     27273     27276     27272     27271     27273     27274     27273     27275
     27274     27273     27276     27275     27273     27276     27277     27279     27280
     27277     27281     27282     27277     27281     27283     27278     27277     27279
     27278     27277     27281     27279     27277     27281     27281     27264     27285
     27281     27283     27284     27282     27281     27283     27285     27288     27289
     27286     27285     27287     27286     27285     27288     27287     27285     27288
     27290     27294     27292     27290     27295     27296     27290     27295     27297
     27290     27295     27305     27291     27290     27294     27291     27290     27295
     27292     27308     27305     27292     27308     27309     27292     27308     27310
     27292     27312     27313     27292     27312     27314     27292     27312     27315
     27293     27292     27294     27293     27292     27308     27293     27292     27312
     27294     27290     27295     27294     27292     27308     27294     27292     27312
     27295     27297     27298     27295     27297     27299     27295     27305     27306
     27295     27305     27307     27295     27305     27308     27296     27295     27297
     27296     27295     27305     27297     27295     27305     27297     27299     27300
     27297     27299     27301     27298     27297     27299     27299     27301     27302
     27299     27301     27303     27299     27301     27304     27300     27299     27301
     27302     27301     27303     27302     27301     27304     27303     27301     27304
     27305     27307     27317     27305     27308     27309     27305     27308     27310
     27306     27305     27307     27306     27305     27308     27307     27305     27308
     27307     27317     27318     27307     27317     27321     27307     27317     27322
     27308     27292     27312     27308     27310     27311     27309     27308     27310
     27312     27315     27316     27313     27312     27314     27313     27312     27315
     27314     27312     27315     27317     27321     27319     27317     27322     27323
     27317     27322     27324     27317     27322     27325     27318     27317     27321
     27318     27317     27322     27319     27329     27325     27319     27329     27330
     27319     27329     27331     27319     27333     27334     27319     27333     27335
     27319     27333     27336     27320     27319     27321     27320     27319     27329
     27320     27319     27333     27321     27317     27322     27321     27319     27329
     27321     27319     27333     27322     27324     27338     27322     27325     27326
     27322     27325     27327     27322     27325     27329     27323     27322     27324
     27323     27322     27325     27324     27322     27325     27324     27338     27339
     27324     27338     27342     27324     27338     27343     27325     27327     27328
     27325     27329     27330     27325     27329     27331     27326     27325     27327
     27326     27325     27329     27327     27325     27329     27329     27319     27333
     27329     27331     27332     27330     27329     27331     27333     27336     27337
     27334     27333     27335     27334     27333     27336     27335     27333     27336
     27338     27342     27340     27338     27343     27344     27338     27343     27345
     27338     27343     27346     27339     27338     27342     27339     27338     27343
     27340     27350     27346     27340     27350     27351     27340     27350     27352
     27340     27354     27355     27340     27354     27356     27340     27354     27357
     27341     27340     27342     27341     27340     27350     27341     27340     27354
     27342     27338     27343     27342     27340     27350     27342     27340     27354
     27343     27345     27358     27343     27346     27347     27343     27346     27348
     27343     27346     27350     27344     27343     27345     27344     27343     27346
     27345     27343     27346     27345     27358     27359     27345     27358     27362
     27345     27358     27363     27346     27348     27349     27346     27350     27351
     27346     27350     27352     27347     27346     27348     27347     27346     27350
     27348     27346     27350     27350     27340     27354     27350     27352     27353
     27351     27350     27352     27355     27354     27356     27355     27354     27357
     27356     27354     27357     27358     27362     27360     27358     27363     27364
     27358     27363     27365     27358     27363     27366     27359     27358     27362
     27359     27358     27363     27360     27369     27366     27360     27369     27370
     27360     27369     27371     27360     27373     27374     27360     27373     27375
     27360     27373     27376     27361     27360     27362     27361     27360     27369
     27361     27360     27373     27362     27358     27363     27362     27360     27369
     27362     27360     27373     27363     27365     27377     27363     27366     27367
     27363     27366     27368     27363     27366     27369     27364     27363     27365
     27364     27363     27366     27365     27363     27366     27365     27377     27378
     27365     27377     27381     27365     27377     27382     27366     27368     27405
     27366     27369     27370     27366     27369     27371     27367     27366     27368
     27367     27366     27369     27368     27366     27369     27368     27405     27406
     27368     27405     27409     27368     27405     27410     27369     27360     27373
     27369     27371     27372     27370     27369     27371     27374     27373     27375
     27374     27373     27376     27375     27373     27376     27377     27381     27379
     27377     27382     27383     27377     27382     27384     27377     27382     27392
     27378     27377     27381     27378     27377     27382     27379     27396     27392
     27379     27396     27397     27379     27396     27398     27379     27400     27401
     27379     27400     27402     27379     27400     27403     27380     27379     27381
     27380     27379     27396     27380     27379     27400     27381     27377     27382
     27381     27379     27396     27381     27379     27400     27382     27384     27385
     27382     27384     27386     27382     27392     27393     27382     27392     27394
     27382     27392     27396     27383     27382     27384     27383     27382     27392
     27384     27382     27392     27384     27386     27387     27384     27386     27388
     27385     27384     27386     27386     27388     27389     27386     27388     27390
     27386     27388     27391     27387     27386     27388     27389     27388     27390
     27389     27388     27391     27390     27388     27391     27392     27394     27395
     27392     27396     27397     27392     27396     27398     27393     27392     27394
     27393     27392     27396     27394     27392     27396     27396     27379     27400
     27396     27398     27399     27397     27396     27398     27400     27403     27404
     27401     27400     27402     27401     27400     27403     27402     27400     27403
     27405     27409     27407     27405     27410     27411     27405     27410     27412
     27405     27410     27420     27406     27405     27409     27406     27405     27410
     27407     27423     27420     27407     27423     27424     27407     27423     27425
     27407     27427     27428     27407     27427     27429     27407     27427     27430
     27408     27407     27409     27408     27407     27423     27408     27407     27427
     27409     27405     27410     27409     27407     27423     27409     27407     27427
     27410     27412     27413     27410     27412     27414     27410     27420     27421
     27410     27420     27422     27410     27420     27423     27411     27410     27412
     27411     27410     27420     27412     27410     27420     27412     27414     27415
     27412     27414     27416     27413     27412     27414     27414     27416     27417
     27414     27416     27418     27414     27416     27419     27415     27414     27416
     27417     27416     27418     27417     27416     27419     27418     27416     27419
     27420     27422     27432     27420     27423     27424     27420     27423     27425
     27421     27420     27422     27421     27420     27423     27422     27420     27423
     27422     27432     27433     27422     27432     27436     27422     27432     27437
     27423     27407     27427     27423     27425     27426     27424     27423     27425
     27427     27430     27431     27428     27427     27429     27428     27427     27430
     27429     27427     27430     27432     27436     27434     27432     27437     27438
     27432     27437     27439     27432     27437     27440     27433     27432     27436
     27433     27432     27437     27434     27444     27440     27434     27444     27445
     27434     27444     27446     27434     27448     27449     27434     27448     27450
     27434     27448     27451     27435     27434     27436     27435     27434     27444
     27435     27434     27448     27436     27432     27437     27436     27434     27444
     27436     27434     27448     27437     27439     27453     27437     27440     27441
     27437     27440     27442     27437     27440     27444     27438     27437     27439
     27438     27437     27440     27439     27437     27440     27439     27453     27454
     27439     27453     27457     27439     27453     27458     27440     27442     27443
     27440     27444     27445     27440     27444     27446     27441     27440     27442
     27441     27440     27444     27442     27440     27444     27444     27434     27448
     27444     27446     27447     27445     27444     27446     27448     27451     27452
     27449     27448     27450     27449     27448     27451     27450     27448     27451
     27453     27457     27455     27453     27458     27459     27453     27458     27460
     27453     27458     27461     27454     27453     27457     27454     27453     27458
     27455     27465     27461     27455     27465     27466     27455     27465     27467
     27455     27469     27470     27455     27469     27471     27455     27469     27472
     27456     27455     27457     27456     27455     27465     27456     27455     27469
     27457     27453     27458     27457     27455     27465     27457     27455     27469
     27458     27460     27473     27458     27461     27462     27458     27461     27463
     27458     27461     27465     27459     27458     27460     27459     27458     27461
     27460     27458     27461     27460     27473     27474     27460     27473     27477
     27460     27473     27478     27461     27463     27464     27461     27465     27466
     27461     27465     27467     27462     27461     27463     27462     27461     27465
     27463     27461     27465     27465     27455     27469     27465     27467     27468
     27466     27465     27467     27470     27469     27471     27470     27469     27472
     27471     27469     27472     27473     27477     27475     27473     27478     27479
     27473     27478     27480     27473     27478     27481     27474     27473     27477
     27474     27473     27478     27475     27484     27481     27475     27484     27485
     27475     27484     27486     27475     27488     27489     27475     27488     27490
     27475     27488     27491     27476     27475     27477     27476     27475     27484
     27476     27475     27488     27477     27473     27478     27477     27475     27484
     27477     27475     27488     27478     27480     27492     27478     27481     27482
     27478     27481     27483     27478     27481     27484     27479     27478     27480
     27479     27478     27481     27480     27478     27481     27480     27492     27493
     27480     27492     27496     27480     27492     27497     27481     27483     27520
     27481     27484     27485     27481     27484     27486     27482     27481     27483
     27482     27481     27484     27483     27481     27484     27483     27520     27521
     27483     27520     27524     27483     27520     27525     27484     27475     27488
     27484     27486     27487     27485     27484     27486     27489     27488     27490
     27489     27488     27491     27490     27488     27491     27492     27496     27494
     27492     27497     27498     27492     27497     27499     27492     27497     27507
     27493     27492     27496     27493     27492     27497     27494     27511     27507
     27494     27511     27512     27494     27511     27513     27494     27515     27516
     27494     27515     27517     27494     27515     27518     27495     27494     27496
     27495     27494     27511     27495     27494     27515     27496     27492     27497
     27496     27494     27511     27496     27494     27515     27497     27499     27500
     27497     27499     27501     27497     27507     27508     27497     27507     27509
     27497     27507     27511     27498     27497     27499     27498     27497     27507
     27499     27497     27507     27499     27501     27502     27499     27501     27503
     27500     27499     27501     27501     27503     27504     27501     27503     27505
     27501     27503     27506     27502     27501     27503     27504     27503     27505
     27504     27503     27506     27505     27503     27506     27507     27509     27510
     27507     27511     27512     27507     27511     27513     27508     27507     27509
     27508     27507     27511     27509     27507     27511     27511     27494     27515
     27511     27513     27514     27512     27511     27513     27515     27518     27519
     27516     27515     27517     27516     27515     27518     27517     27515     27518
     27520     27524     27522     27520     27525     27526     27520     27525     27527
     27520     27525     27535     27521     27520     27524     27521     27520     27525
     27522     27538     27535     27522     27538     27539     27522     27538     27540
     27522     27542     27543     27522     27542     27544     27522     27542     27545
     27523     27522     27524     27523     27522     27538     27523     27522     27542
     27524     27520     27525     27524     27522     27538     27524     27522     27542
     27525     27527     27528     27525     27527     27529     27525     27535     27536
     27525     27535     27537     27525     27535     27538     27526     27525     27527
     27526     27525     27535     27527     27525     27535     27527     27529     27530
     27527     27529     27531     27528     27527     27529     27529     27531     27532
     27529     27531     27533     27529     27531     27534     27530     27529     27531
     27532     27531     27533     27532     27531     27534     27533     27531     27534
     27535     27537     27547     27535     27538     27539     27535     27538     27540
     27536     27535     27537     27536     27535     27538     27537     27535     27538
     27537     27547     27548     27537     27547     27551     27537     27547     27552
     27538     27522     27542     27538     27540     27541     27539     27538     27540
     27542     27545     27546     27543     27542     27544     27543     27542     27545
     27544     27542     27545     27547     27551     27549     27547     27552     27553
     27547     27552     27554     27547     27552     27555     27548     27547     27551
     27548     27547     27552     27549     27559     27555     27549     27559     27560
     27549     27559     27561     27549     27563     27564     27549     27563     27565
     27549     27563     27566     27550     27549     27551     27550     27549     27559
     27550     27549     27563     27551     27547     27552     27551     27549     27559
     27551     27549     27563     27552     27554     27568     27552     27555     27556
     27552     27555     27557     27552     27555     27559     27553     27552     27554
     27553     27552     27555     27554     27552     27555     27554     27568     27569
     27554     27568     27572     27554     27568     27573     27555     27557     27558
     27555     27559     27560     27555     27559     27561     27556     27555     27557
     27556     27555     27559     27557     27555     27559     27559     27549     27563
     27559     27561     27562     27560     27559     27561     27563     27566     27567
     27564     27563     27565     27564     27563     27566     27565     27563     27566
     27568     27572     27570     27568     27573     27574     27568     27573     27575
     27568     27573     27576     27569     27568     27572     27569     27568     27573
     27570     27580     27576     27570     27580     27581     27570     27580     27582
     27570     27584     27585     27570     27584     27586     27570     27584     27587
     27571     27570     27572     27571     27570     27580     27571     27570     27584
     27572     27568     27573     27572     27570     27580     27572     27570     27584
     27573     27575     27588     27573     27576     27577     27573     27576     27578
     27573     27576     27580     27574     27573     27575     27574     27573     27576
     27575     27573     27576     27575     27588     27589     27575     27588     27592
     27575     27588     27593     27576     27578     27579     27576     27580     27581
     27576     27580     27582     27577     27576     27578     27577     27576     27580
     27578     27576     27580     27580     27570     27584     27580     27582     27583
     27581     27580     27582     27585     27584     27586     27585     27584     27587
     27586     27584     27587     27588     27592     27590     27588     27593     27594
     27588     27593     27595     27588     27593     27596     27589     27588     27592
     27589     27588     27593     27590     27599     27596     27590     27599     27600
     27590     27599     27601     27590     27603     27604     27590     27603     27605
     27590     27603     27606     27591     27590     27592     27591     27590     27599
     27591     27590     27603     27592     27588     27593     27592     27590     27599
     27592     27590     27603     27593     27595     27607     27593     27596     27597
     27593     27596     27598     27593     27596     27599     27594     27593     27595
     27594     27593     27596     27595     27593     27596     27595     27607     27608
     27595     27607     27611     27595     27607     27612     27596     27598     27635
     27596     27599     27600     27596     27599     27601     27597     27596     27598
     27597     27596     27599     27598     27596     27599     27598     27635     27636
     27598     27635     27639     27598     27635     27640     27599     27590     27603
     27599     27601     27602     27600     27599     27601     27604     27603     27605
     27604     27603     27606     27605     27603     27606     27607     27611     27609
     27607     27612     27613     27607     27612     27614     27607     27612     27622
     27608     27607     27611     27608     27607     27612     27609     27626     27622
     27609     27626     27627     27609     27626     27628     27609     27630     27631
     27609     27630     27632     27609     27630     27633     27610     27609     27611
     27610     27609     27626     27610     27609     27630     27611     27607     27612
     27611     27609     27626     27611     27609     27630     27612     27614     27615
     27612     27614     27616     27612     27622     27623     27612     27622     27624
     27612     27622     27626     27613     27612     27614     27613     27612     27622
     27614     27612     27622     27614     27616     27617     27614     27616     27618
     27615     27614     27616     27616     27618     27619     27616     27618     27620
     27616     27618     27621     27617     27616     27618     27619     27618     27620
     27619     27618     27621     27620     27618     27621     27622     27624     27625
     27622     27626     27627     27622     27626     27628     27623     27622     27624
     27623     27622     27626     27624     27622     27626     27626     27609     27630
     27626     27628     27629     27627     27626     27628     27630     27633     27634
     27631     27630     27632     27631     27630     27633     27632     27630     27633
     27635     27639     27637     27635     27640     27641     27635     27640     27642
     27635     27640     27650     27636     27635     27639     27636     27635     27640
     27637     27653     27650     27637     27653     27654     27637     27653     27655
     27637     27657     27658     27637     27657     27659     27637     27657     27660
     27638     27637     27639     27638     27637     27653     27638     27637     27657
     27639     27635     27640     27639     27637     27653     27639     27637     27657
     27640     27642     27643     27640     27642     27644     27640     27650     27651
     27640     27650     27652     27640     27650     27653     27641     27640     27642
     27641     27640     27650     27642     27640     27650     27642     27644     27645
     27642     27644     27646     27643     27642     27644     27644     27646     27647
     27644     27646     27648     27644     27646     27649     27645     27644     27646
     27647     27646     27648     27647     27646     27649     27648     27646     27649
     27650     27652     27662     27650     27653     27654     27650     27653     27655
     27651     27650     27652     27651     27650     27653     27652     27650     27653
     27652     27662     27663     27652     27662     27666     27652     27662     27667
     27653     27637     27657     27653     27655     27656     27654     27653     27655
     27657     27660     27661     27658     27657     27659     27658     27657     27660
     27659     27657     27660     27662     27666     27664     27662     27667     27668
     27662     27667     27669     27662     27667     27670     27663     27662     27666
     27663     27662     27667     27664     27674     27670     27664     27674     27675
     27664     27674     27676     27664     27678     27679     27664     27678     27680
     27664     27678     27681     27665     27664     27666     27665     27664     27674
     27665     27664     27678     27666     27662     27667     27666     27664     27674
     27666     27664     27678     27667     27669     27683     27667     27670     27671
     27667     27670     27672     27667     27670     27674     27668     27667     27669
     27668     27667     27670     27669     27667     27670     27669     27683     27684
     27669     27683     27687     27669     27683     27688     27670     27672     27673
     27670     27674     27675     27670     27674     27676     27671     27670     27672
     27671     27670     27674     27672     27670     27674     27674     27664     27678
     27674     27676     27677     27675     27674     27676     27678     27681     27682
     27679     27678     27680     27679     27678     27681     27680     27678     27681
     27683     27687     27685     27683     27688     27689     27683     27688     27690
     27683     27688     27691     27684     27683     27687     27684     27683     27688
     27685     27695     27691     27685     27695     27696     27685     27695     27697
     27685     27699     27700     27685     27699     27701     27685     27699     27702
     27686     27685     27687     27686     27685     27695     27686     27685     27699
     27687     27683     27688     27687     27685     27695     27687     27685     27699
     27688     27690     27703     27688     27691     27692     27688     27691     27693
     27688     27691     27695     27689     27688     27690     27689     27688     27691
     27690     27688     27691     27690     27703     27704     27690     27703     27707
     27690     27703     27708     27691     27693     27694     27691     27695     27696
     27691     27695     27697     27692     27691     27693     27692     27691     27695
     27693     27691     27695     27695     27685     27699     27695     27697     27698
     27696     27695     27697     27700     27699     27701     27700     27699     27702
     27701     27699     27702     27703     27707     27705     27703     27708     27709
     27703     27708     27710     27703     27708     27711     27704     27703     27707
     27704     27703     27708     27705     27715     27711     27705     27715     27716
     27705     27715     27717     27705     27719     27720     27705     27719     27721
     27705     27719     27722     27706     27705     27707     27706     27705     27715
     27706     27705     27719     27707     27703     27708     27707     27705     27715
     27707     27705     27719     27708     27710     27723     27708     27711     27712
     27708     27711     27713     27708     27711     27715     27709     27708     27710
     27709     27708     27711     27710     27708     27711     27710     27723     27724
     27710     27723     27727     27710     27723     27728     27711     27713     27714
     27711     27715     27716     27711     27715     27717     27712     27711     27713
     27712     27711     27715     27713     27711     27715     27715     27705     27719
     27715     27717     27718     27716     27715     27717     27720     27719     27721
     27720     27719     27722     27721     27719     27722     27723     27727     27725
     27723     27728     27729     27723     27728     27730     27723     27728     27738
     27724     27723     27727     27724     27723     27728     27725     27742     27738
     27725     27742     27743     27725     27742     27744     27725     27746     27747
     27725     27746     27748     27725     27746     27749     27726     27725     27727
     27726     27725     27742     27726     27725     27746     27727     27723     27728
     27727     27725     27742     27727     27725     27746     27728     27730     27731
     27728     27730     27732     27728     27738     27739     27728     27738     27740
     27728     27738     27742     27729     27728     27730     27729     27728     27738
     27730     27728     27738     27730     27732     27733     27730     27732     27734
     27731     27730     27732     27732     27734     27735     27732     27734     27736
     27732     27734     27737     27733     27732     27734     27735     27734     27736
     27735     27734     27737     27736     27734     27737     27738     27740     27741
     27738     27742     27743     27738     27742     27744     27739     27738     27740
     27739     27738     27742     27740     27738     27742     27742     27725     27746
     27742     27744     27745     27743     27742     27744     27746     27749     27750
     27747     27746     27748     27747     27746     27749     27748     27746     27749
     27751     27753     27752     27751     27753     27754     27751     27753     27755
     27752     27753     27754     27752     27753     27755     27752     28050     28047
     27752     28050     28053     27752     28050     28054     27753     27752     28050
     27753     27755     27756     27753     27755     27757     27753     27755     27764
     27754     27753     27755     27755     27756     27758     27755     27764     27765
     27755     27764     27766     27755     27764     27771     27756     27755     27757
     27756     27755     27764     27756     27758     27759     27756     27758     27760
     27756     27758     27779     27757     27755     27764     27758     27760     27761
     27758     27779     27771     27758     27779     27780     27758     27779     27781
     27759     27758     27760     27759     27758     27779     27760     27758     27779
     27760     27761     27762     27760     27761     27763     27760     27761     27787
     27761     27787     27783     27761     27787     27788     27761     27787     27789
     27762     27761     27763     27762     27761     27787     27763     27761     27787
     27764     27766     27767     27764     27771     27772     27764     27771     27773
     27764     27771     27779     27765     27764     27766     27765     27764     27771
     27766     27764     27771     27766     27767     27768     27766     27767     27769
     27766     27767     27770     27768     27767     27769     27768     27767     27770
     27769     27767     27770     27771     27772     27774     27771     27779     27780
     27771     27779     27781     27772     27771     27773     27772     27771     27779
     27772     27774     27775     27772     27774     27776     27773     27771     27779
     27774     27776     27777     27774     27776     27778     27774     27776     27809
     27775     27774     27776     27776     27809     27810     27776     27809     27811
     27776     27809     27854     27777     27776     27778     27777     27776     27809
     27778     27776     27809     27779     27781     27782     27779     27781     27888
     27780     27779     27781     27781     27888     27889     27781     27888     27890
     27782     27781     27888     27783     27785     27786     27783     27787     27788
     27783     27787     27789     27783     27797     27798     27783     27797     27799
     27783     27797     27805     27784     27783     27785     27784     27783     27787
     27784     27783     27797     27785     27783     27787     27785     27783     27797
     27787     27783     27797     27787     27789     27790     27788     27787     27789
     27789     27790     27791     27789     27790     27792     27789     27790     27805
     27790     27792     27796     27790     27805     27797     27790     27805     27806
     27790     27805     27807     27791     27790     27792     27791     27790     27805
     27792     27790     27805     27792     27796     27793     27792     27796     27794
     27792     27796     27795     27793     27796     27794     27793     27796     27795
     27794     27796     27795     27797     27799     27800     27797     27805     27806
     27797     27805     27807     27798     27797     27799     27798     27797     27805
     27799     27797     27805     27799     27800     27801     27799     27800     27802
     27800     27802     27803     27800     27802     27804     27800     27802     27966
     27801     27800     27802     27802     27966     27967     27802     27966     27968
     27802     27966     27970     27803     27802     27804     27803     27802     27966
     27804     27802     27966     27805     27807     27808     27805     27807     28004
     27806     27805     27807     27807     28004     28005     27807     28004     28006
     27808     27807     28004     27809     27811     27812     27809     27854     27855
     27809     27854     27856     27809     27854     27857     27810     27809     27811
     27810     27809     27854     27811     27809     27854     27811     27812     27813
     27811     27812     27814     27812     27814     27815     27812     27814     27816
     27812     27814     27817     27813     27812     27814     27814     27817     27818
     27814     27817     27819     27814     27817     27820     27815     27814     27816
     27815     27814     27817     27816     27814     27817     27817     27820     27821
     27817     27820     27822     27817     27820     27823     27818     27817     27819
     27818     27817     27820     27819     27817     27820     27820     27823     27824
     27820     27823     27825     27820     27823     27826     27821     27820     27822
     27821     27820     27823     27822     27820     27823     27823     27826     27827
     27823     27826     27828     27823     27826     27829     27824     27823     27825
     27824     27823     27826     27825     27823     27826     27826     27829     27830
     27826     27829     27831     27826     27829     27832     27827     27826     27828
     27827     27826     27829     27828     27826     27829     27829     27832     27833
     27829     27832     27834     27829     27832     27835     27830     27829     27831
     27830     27829     27832     27831     27829     27832     27832     27835     27836
     27832     27835     27837     27832     27835     27838     27833     27832     27834
     27833     27832     27835     27834     27832     27835     27835     27838     27839
     27835     27838     27840     27835     27838     27841     27836     27835     27837
     27836     27835     27838     27837     27835     27838     27838     27841     27842
     27838     27841     27843     27838     27841     27844     27839     27838     27840
     27839     27838     27841     27840     27838     27841     27841     27844     27845
     27841     27844     27846     27841     27844     27847     27842     27841     27843
     27842     27841     27844     27843     27841     27844     27844     27847     27848
     27844     27847     27849     27844     27847     27850     27845     27844     27846
     27845     27844     27847     27846     27844     27847     27847     27850     27851
     27847     27850     27852     27847     27850     27853     27848     27847     27849
     27848     27847     27850     27849     27847     27850     27851     27850     27852
     27851     27850     27853     27852     27850     27853     27854     27857     27858
     27854     27857     27859     27854     27857     27860     27855     27854     27856
     27855     27854     27857     27856     27854     27857     27857     27860     27861
     27857     27860     27862     27857     27860     27863     27858     27857     27859
     27858     27857     27860     27859     27857     27860     27860     27863     27864
     27860     27863     27865     27860     27863     27866     27861     27860     27862
     27861     27860     27863     27862     27860     27863     27863     27866     27867
     27863     27866     27868     27863     27866     27869     27864     27863     27865
     27864     27863     27866     27865     27863     27866     27866     27869     27870
     27866     27869     27871     27866     27869     27872     27867     27866     27868
     27867     27866     27869     27868     27866     27869     27869     27872     27873
     27869     27872     27874     27869     27872     27875     27870     27869     27871
     27870     27869     27872     27871     27869     27872     27872     27875     27876
     27872     27875     27877     27872     27875     27878     27873     27872     27874
     27873     27872     27875     27874     27872     27875     27875     27878     27879
     27875     27878     27880     27875     27878     27881     27876     27875     27877
     27876     27875     27878     27877     27875     27878     27878     27881     27882
     27878     27881     27883     27878     27881     27884     27879     27878     27880
     27879     27878     27881     27880     27878     27881     27881     27884     27885
     27881     27884     27886     27881     27884     27887     27882     27881     27883
     27882     27881     27884     27883     27881     27884     27885     27884     27886
     27885     27884     27887     27886     27884     27887     27888     27890     27891
     27888     27890     27892     27888     27890     27893     27889     27888     27890
     27890     27893     27894     27890     27893     27895     27890     27893     27932
     27891     27890     27892     27891     27890     27893     27892     27890     27893
     27893     27895     27896     27893     27932     27933     27893     27932     27934
     27893     27932     27935     27894     27893     27895     27894     27893     27932
     27895     27893     27932     27895     27896     27897     27895     27896     27898
     27896     27898     27899     27896     27898     27900     27896     27898     27901
     27897     27896     27898     27898     27901     27902     27898     27901     27903
     27898     27901     27904     27899     27898     27900     27899     27898     27901
     27900     27898     27901     27901     27904     27905     27901     27904     27906
     27901     27904     27907     27902     27901     27903     27902     27901     27904
     27903     27901     27904     27904     27907     27908     27904     27907     27909
     27904     27907     27910     27905     27904     27906     27905     27904     27907
     27906     27904     27907     27907     27910     27911     27907     27910     27912
     27907     27910     27913     27908     27907     27909     27908     27907     27910
     27909     27907     27910     27910     27913     27914     27910     27913     27915
     27910     27913     27916     27911     27910     27912     27911     27910     27913
     27912     27910     27913     27913     27916     27917     27913     27916     27918
     27913     27916     27919     27914     27913     27915     27914     27913     27916
     27915     27913     27916     27916     27919     27920     27916     27919     27921
     27916     27919     27922     27917     27916     27918     27917     27916     27919
     27918     27916     27919     27919     27922     27923     27919     27922     27924
     27919     27922     27925     27920     27919     27921     27920     27919     27922
     27921     27919     27922     27922     27925     27926     27922     27925     27927
     27922     27925     27928     27923     27922     27924     27923     27922     27925
     27924     27922     27925     27925     27928     27929     27925     27928     27930
     27925     27928     27931     27926     27925     27927     27926     27925     27928
     27927     27925     27928     27929     27928     27930     27929     27928     27931
     27930     27928     27931     27932     27935     27936     27932     27935     27937
     27932     27935     27938     27933     27932     27934     27933     27932     27935
     27934     27932     27935     27935     27938     27939     27935     27938     27940
     27935     27938     27941     27936     27935     27937     27936     27935     27938
     27937     27935     27938     27938     27941     27942     27938     27941     27943
     27938     27941     27944     27939     27938     27940     27939     27938     27941
     27940     27938     27941     27941     27944     27945     27941     27944     27946
     27941     27944     27947     27942     27941     27943     27942     27941     27944
     27943     27941     27944     27944     27947     27948     27944     27947     27949
     27944     27947     27950     27945     27944     27946     27945     27944     27947
     27946     27944     27947     27947     27950     27951     27947     27950     27952
     27947     27950     27953     27948     27947     27949     27948     27947     27950
     27949     27947     27950     27950     27953     27954     27950     27953     27955
     27950     27953     27956     27951     27950     27952     27951     27950     27953
     27952     27950     27953     27953     27956     27957     27953     27956     27958
     27953     27956     27959     27954     27953     27955     27954     27953     27956
     27955     27953     27956     27956     27959     27960     27956     27959     27961
     27956     27959     27962     27957     27956     27958     27957     27956     27959
     27958     27956     27959     27959     27962     27963     27959     27962     27964
     27959     27962     27965     27960     27959     27961     27960     27959     27962
     27961     27959     27962     27963     27962     27964     27963     27962     27965
     27964     27962     27965     27966     27968     27969     27966     27970     27971
     27966     27970     27972     27966     27970     27973     27967     27966     27968
     27967     27966     27970     27968     27966     27970     27970     27973     27974
     27970     27973     27975     27970     27973     27976     27971     27970     27972
     27971     27970     27973     27972     27970     27973     27973     27976     27977
     27973     27976     27978     27973     27976     27979     27974     27973     27975
     27974     27973     27976     27975     27973     27976     27976     27979     27980
     27976     27979     27981     27976     27979     27982     27977     27976     27978
     27977     27976     27979     27978     27976     27979     27979     27982     27983
     27979     27982     27984     27979     27982     27985     27980     27979     27981
     27980     27979     27982     27981     27979     27982     27982     27985     27986
     27982     27985     27987     27982     27985     27988     27983     27982     27984
     27983     27982     27985     27984     27982     27985     27985     27988     27989
     27985     27988     27990     27985     27988     27991     27986     27985     27987
     27986     27985     27988     27987     27985     27988     27988     27991     27992
     27988     27991     27993     27988     27991     27994     27989     27988     27990
     27989     27988     27991     27990     27988     27991     27991     27994     27995
     27991     27994     27996     27991     27994     27997     27992     27991     27993
     27992     27991     27994     27993     27991     27994     27994     27997     27998
     27994     27997     27999     27994     27997     28000     27995     27994     27996
     27995     27994     27997     27996     27994     27997     27997     28000     28001
     27997     28000     28002     27997     28000     28003     27998     27997     27999
     27998     27997     28000     27999     27997     28000     28001     28000     28002
     28001     28000     28003     28002     28000     28003     28004     28006     28007
     28004     28006     28008     28004     28006     28009     28005     28004     28006
     28006     28009     28010     28006     28009     28011     28006     28009     28013
     28007     28006     28008     28007     28006     28009     28008     28006     28009
     28009     28011     28012     28009     28013     28014     28009     28013     28015
     28009     28013     28016     28010     28009     28011     28010     28009     28013
     28011     28009     28013     28013     28016     28017     28013     28016     28018
     28013     28016     28019     28014     28013     28015     28014     28013     28016
     28015     28013     28016     28016     28019     28020     28016     28019     28021
     28016     28019     28022     28017     28016     28018     28017     28016     28019
     28018     28016     28019     28019     28022     28023     28019     28022     28024
     28019     28022     28025     28020     28019     28021     28020     28019     28022
     28021     28019     28022     28022     28025     28026     28022     28025     28027
     28022     28025     28028     28023     28022     28024     28023     28022     28025
     28024     28022     28025     28025     28028     28029     28025     28028     28030
     28025     28028     28031     28026     28025     28027     28026     28025     28028
     28027     28025     28028     28028     28031     28032     28028     28031     28033
     28028     28031     28034     28029     28028     28030     28029     28028     28031
     28030     28028     28031     28031     28034     28035     28031     28034     28036
     28031     28034     28037     28032     28031     28033     28032     28031     28034
     28033     28031     28034     28034     28037     28038     28034     28037     28039
     28034     28037     28040     28035     28034     28036     28035     28034     28037
     28036     28034     28037     28037     28040     28041     28037     28040     28042
     28037     28040     28043     28038     28037     28039     28038     28037     28040
     28039     28037     28040     28040     28043     28044     28040     28043     28045
     28040     28043     28046     28041     28040     28042     28041     28040     28043
     28042     28040     28043     28044     28043     28045     28044     28043     28046
     28045     28043     28046     28047     28050     28053     28047     28050     28054
     28048     28047     28049     28048     28047     28050     28049     28047     28050
     28050     28053     28051     28050     28054     28055     28050     28054     28056
     28050     28054     28057     28051     28060     28057     28051     28060     28061
     28051     28060     28062     28051     28063     28064     28051     28063     28065
     28051     28063     28067     28052     28051     28053     28052     28051     28060
     28052     28051     28063     28053     28050     28054     28053     28051     28060
     28053     28051     28063     28054     28057     28058     28054     28057     28059
     28054     28057     28060     28055     28054     28056     28055     28054     28057
     28056     28054     28057     28057     28059     28075     28057     28060     28061
     28057     28060     28062     28058     28057     28059     28058     28057     28060
     28059     28057     28060     28059     28075     28072     28059     28075     28078
     28059     28075     28079     28060     28051     28063     28060     28062     28099
     28061     28060     28062     28062     28099     28100     28062     28099     28103
     28062     28099     28104     28063     28065     28066     28063     28067     28068
     28063     28067     28069     28063     28067     28070     28064     28063     28065
     28064     28063     28067     28065     28063     28067     28067     28070     28071
     28068     28067     28069     28068     28067     28070     28069     28067     28070
     28072     28075     28078     28072     28075     28079     28073     28072     28074
     28073     28072     28075     28074     28072     28075     28075     28078     28076
     28075     28079     28080     28075     28079     28081     28075     28079     28082
     28076     28086     28082     28076     28086     28087     28076     28086     28088
     28076     28090     28091     28076     28090     28092     28076     28090     28094
     28077     28076     28078     28077     28076     28086     28077     28076     28090
     28078     28075     28079     28078     28076     28086     28078     28076     28090
     28079     28082     28083     28079     28082     28084     28079     28082     28086
     28080     28079     28081     28080     28079     28082     28081     28079     28082
     28082     28084     28085     28082     28086     28087     28082     28086     28088
     28083     28082     28084     28083     28082     28086     28084     28082     28086
     28086     28076     28090     28086     28088     28089     28087     28086     28088
     28090     28092     28093     28090     28094     28095     28090     28094     28096
     28090     28094     28097     28091     28090     28092     28091     28090     28094
     28092     28090     28094     28094     28097     28098     28095     28094     28096
     28095     28094     28097     28096     28094     28097     28099     28103     28101
     28099     28104     28105     28099     28104     28106     28099     28104     28108
     28100     28099     28103     28100     28099     28104     28101     28111     28108
     28101     28111     28112     28101     28111     28113     28101     28118     28119
     28101     28118     28120     28101     28118     28122     28102     28101     28103
     28102     28101     28111     28102     28101     28118     28103     28099     28104
     28103     28101     28111     28103     28101     28118     28104     28106     28107
     28104     28108     28109     28104     28108     28110     28104     28108     28111
     28105     28104     28106     28105     28104     28108     28106     28104     28108
     28108     28110     28127     28108     28111     28112     28108     28111     28113
     28109     28108     28110     28109     28108     28111     28110     28108     28111
     28110     28127     28128     28110     28127     28131     28110     28127     28132
     28111     28101     28118     28111     28113     28114     28112     28111     28113
     28113     28114     28115     28113     28114     28116     28113     28114     28117
     28115     28114     28116     28115     28114     28117     28116     28114     28117
     28118     28120     28121     28118     28122     28123     28118     28122     28124
     28118     28122     28125     28119     28118     28120     28119     28118     28122
     28120     28118     28122     28122     28125     28126     28123     28122     28124
     28123     28122     28125     28124     28122     28125     28127     28131     28129
     28127     28132     28133     28127     28132     28134     28127     28132     28136
     28128     28127     28131     28128     28127     28132     28129     28139     28136
     28129     28139     28140     28129     28139     28141     28129     28146     28147
     28129     28146     28148     28129     28146     28150     28130     28129     28131
     28130     28129     28139     28130     28129     28146     28131     28127     28132
     28131     28129     28139     28131     28129     28146     28132     28134     28135
     28132     28136     28137     28132     28136     28138     28132     28136     28139
     28133     28132     28134     28133     28132     28136     28134     28132     28136
     28136     28138     28180     28136     28139     28140     28136     28139     28141
     28137     28136     28138     28137     28136     28139     28138     28136     28139
     28138     28180     28181     28138     28180     28184     28138     28180     28185
     28139     28129     28146     28139     28141     28142     28140     28139     28141
     28141     28142     28143     28141     28142     28144     28141     28142     28145
     28143     28142     28144     28143     28142     28145     28144     28142     28145
     28146     28148     28149     28146     28150     28151     28146     28150     28152
     28146     28150     28153     28147     28146     28148     28147     28146     28150
     28148     28146     28150     28150     28153     28154     28151     28150     28152
     28151     28150     28153     28152     28150     28153     28153     28154     28155
     28153     28154     28158     28153     28154     28159     28154     28158     28156
     28154     28159     28160     28154     28159     28161     28154     28159     28163
     28155     28154     28158     28155     28154     28159     28156     28167     28163
     28156     28167     28168     28156     28167     28169     28156     28171     28172
     28156     28171     28173     28156     28171     28175     28157     28156     28158
     28157     28156     28167     28157     28156     28171     28158     28154     28159
     28158     28156     28167     28158     28156     28171     28159     28161     28162
     28159     28163     28164     28159     28163     28165     28159     28163     28167
     28160     28159     28161     28160     28159     28163     28161     28159     28163
     28163     28165     28166     28163     28167     28168     28163     28167     28169
     28164     28163     28165     28164     28163     28167     28165     28163     28167
     28167     28156     28171     28167     28169     28170     28168     28167     28169
     28171     28173     28174     28171     28175     28176     28171     28175     28177
     28171     28175     28178     28172     28171     28173     28172     28171     28175
     28173     28171     28175     28175     28178     28179     28176     28175     28177
     28176     28175     28178     28177     28175     28178     28180     28184     28182
     28180     28185     28186     28180     28185     28187     28180     28185     28189
     28181     28180     28184     28181     28180     28185     28182     28192     28189
     28182     28192     28193     28182     28192     28194     28182     28196     28197
     28182     28196     28198     28182     28196     28199     28183     28182     28184
     28183     28182     28192     28183     28182     28196     28184     28180     28185
     28184     28182     28192     28184     28182     28196     28185     28187     28188
     28185     28189     28190     28185     28189     28191     28185     28189     28192
     28186     28185     28187     28186     28185     28189     28187     28185     28189
     28189     28191     28201     28189     28192     28193     28189     28192     28194
     28190     28189     28191     28190     28189     28192     28191     28189     28192
     28191     28201     28202     28191     28201     28205     28191     28201     28206
     28192     28182     28196     28192     28194     28195     28193     28192     28194
     28196     28199     28200     28197     28196     28198     28197     28196     28199
     28198     28196     28199     28201     28205     28203     28201     28206     28207
     28201     28206     28208     28201     28206     28209     28202     28201     28205
     28202     28201     28206     28203     28212     28209     28203     28212     28213
     28203     28212     28214     28203     28216     28217     28203     28216     28218
     28203     28216     28219     28204     28203     28205     28204     28203     28212
     28204     28203     28216     28205     28201     28206     28205     28203     28212
     28205     28203     28216     28206     28208     28221     28206     28209     28210
     28206     28209     28211     28206     28209     28212     28207     28206     28208
     28207     28206     28209     28208     28206     28209     28208     28221     28222
     28208     28221     28225     28208     28221     28226     28209     28211     28264
     28209     28212     28213     28209     28212     28214     28210     28209     28211
     28210     28209     28212     28211     28209     28212     28211     28264     28265
     28211     28264     28268     28211     28264     28269     28212     28203     28216
     28212     28214     28215     28213     28212     28214     28216     28219     28220
     28217     28216     28218     28217     28216     28219     28218     28216     28219
     28221     28225     28223     28221     28226     28227     28221     28226     28228
     28221     28226     28229     28222     28221     28225     28222     28221     28226
     28223     28233     28229     28223     28233     28234     28223     28233     28235
     28223     28237     28238     28223     28237     28239     28223     28237     28240
     28224     28223     28225     28224     28223     28233     28224     28223     28237
     28225     28221     28226     28225     28223     28233     28225     28223     28237
     28226     28228     28242     28226     28229     28230     28226     28229     28231
     28226     28229     28233     28227     28226     28228     28227     28226     28229
     28228     28226     28229     28228     28242     28243     28228     28242     28246
     28228     28242     28247     28229     28231     28232     28229     28233     28234
     28229     28233     28235     28230     28229     28231     28230     28229     28233
     28231     28229     28233     28233     28223     28237     28233     28235     28236
     28234     28233     28235     28237     28240     28241     28238     28237     28239
     28238     28237     28240     28239     28237     28240     28242     28246     28244
     28242     28247     28248     28242     28247     28249     28242     28247     28251
     28243     28242     28246     28243     28242     28247     28244     28255     28251
     28244     28255     28256     28244     28255     28257     28244     28259     28260
     28244     28259     28261     28244     28259     28262     28245     28244     28246
     28245     28244     28255     28245     28244     28259     28246     28242     28247
     28246     28244     28255     28246     28244     28259     28247     28249     28250
     28247     28251     28252     28247     28251     28253     28247     28251     28255
     28248     28247     28249     28248     28247     28251     28249     28247     28251
     28251     28253     28254     28251     28255     28256     28251     28255     28257
     28252     28251     28253     28252     28251     28255     28253     28251     28255
     28255     28244     28259     28255     28257     28258     28256     28255     28257
     28259     28262     28263     28260     28259     28261     28260     28259     28262
     28261     28259     28262     28264     28268     28266     28264     28269     28270
     28264     28269     28271     28264     28269     28273     28265     28264     28268
     28265     28264     28269     28266     28276     28273     28266     28276     28277
     28266     28276     28278     28266     28280     28281     28266     28280     28282
     28266     28280     28283     28267     28266     28268     28267     28266     28276
     28267     28266     28280     28268     28264     28269     28268     28266     28276
     28268     28266     28280     28269     28271     28272     28269     28273     28274
     28269     28273     28275     28269     28273     28276     28270     28269     28271
     28270     28269     28273     28271     28269     28273     28273     28275     28285
     28273     28276     28277     28273     28276     28278     28274     28273     28275
     28274     28273     28276     28275     28273     28276     28275     28285     28286
     28275     28285     28289     28275     28285     28290     28276     28266     28280
     28276     28278     28279     28277     28276     28278     28280     28283     28284
     28281     28280     28282     28281     28280     28283     28282     28280     28283
     28285     28289     28287     28285     28290     28291     28285     28290     28292
     28285     28290     28300     28286     28285     28289     28286     28285     28290
     28287     28303     28300     28287     28303     28304     28287     28303     28305
     28287     28307     28308     28287     28307     28309     28287     28307     28310
     28288     28287     28289     28288     28287     28303     28288     28287     28307
     28289     28285     28290     28289     28287     28303     28289     28287     28307
     28290     28292     28293     28290     28292     28294     28290     28300     28301
     28290     28300     28302     28290     28300     28303     28291     28290     28292
     28291     28290     28300     28292     28290     28300     28292     28294     28295
     28292     28294     28296     28293     28292     28294     28294     28296     28297
     28294     28296     28298     28294     28296     28299     28295     28294     28296
     28297     28296     28298     28297     28296     28299     28298     28296     28299
     28300     28302     28312     28300     28303     28304     28300     28303     28305
     28301     28300     28302     28301     28300     28303     28302     28300     28303
     28302     28312     28313     28302     28312     28316     28302     28312     28317
     28303     28287     28307     28303     28305     28306     28304     28303     28305
     28307     28310     28311     28308     28307     28309     28308     28307     28310
     28309     28307     28310     28312     28316     28314     28312     28317     28318
     28312     28317     28319     28312     28317     28320     28313     28312     28316
     28313     28312     28317     28314     28324     28320     28314     28324     28325
     28314     28324     28326     28314     28328     28329     28314     28328     28330
     28314     28328     28331     28315     28314     28316     28315     28314     28324
     28315     28314     28328     28316     28312     28317     28316     28314     28324
     28316     28314     28328     28317     28319     28333     28317     28320     28321
     28317     28320     28322     28317     28320     28324     28318     28317     28319
     28318     28317     28320     28319     28317     28320     28319     28333     28334
     28319     28333     28337     28319     28333     28338     28320     28322     28323
     28320     28324     28325     28320     28324     28326     28321     28320     28322
     28321     28320     28324     28322     28320     28324     28324     28314     28328
     28324     28326     28327     28325     28324     28326     28328     28331     28332
     28329     28328     28330     28329     28328     28331     28330     28328     28331
     28333     28337     28335     28333     28338     28339     28333     28338     28340
     28333     28338     28341     28334     28333     28337     28334     28333     28338
     28335     28345     28341     28335     28345     28346     28335     28345     28347
     28335     28349     28350     28335     28349     28351     28335     28349     28352
     28336     28335     28337     28336     28335     28345     28336     28335     28349
     28337     28333     28338     28337     28335     28345     28337     28335     28349
     28338     28340     28353     28338     28341     28342     28338     28341     28343
     28338     28341     28345     28339     28338     28340     28339     28338     28341
     28340     28338     28341     28340     28353     28354     28340     28353     28357
     28340     28353     28358     28341     28343     28344     28341     28345     28346
     28341     28345     28347     28342     28341     28343     28342     28341     28345
     28343     28341     28345     28345     28335     28349     28345     28347     28348
     28346     28345     28347     28350     28349     28351     28350     28349     28352
     28351     28349     28352     28353     28357     28355     28353     28358     28359
     28353     28358     28360     28353     28358     28361     28354     28353     28357
     28354     28353     28358     28355     28364     28361     28355     28364     28365
     28355     28364     28366     28355     28368     28369     28355     28368     28370
     28355     28368     28371     28356     28355     28357     28356     28355     28364
     28356     28355     28368     28357     28353     28358     28357     28355     28364
     28357     28355     28368     28358     28360     28372     28358     28361     28362
     28358     28361     28363     28358     28361     28364     28359     28358     28360
     28359     28358     28361     28360     28358     28361     28360     28372     28373
     28360     28372     28376     28360     28372     28377     28361     28363     28400
     28361     28364     28365     28361     28364     28366     28362     28361     28363
     28362     28361     28364     28363     28361     28364     28363     28400     28401
     28363     28400     28404     28363     28400     28405     28364     28355     28368
     28364     28366     28367     28365     28364     28366     28369     28368     28370
     28369     28368     28371     28370     28368     28371     28372     28376     28374
     28372     28377     28378     28372     28377     28379     28372     28377     28387
     28373     28372     28376     28373     28372     28377     28374     28391     28387
     28374     28391     28392     28374     28391     28393     28374     28395     28396
     28374     28395     28397     28374     28395     28398     28375     28374     28376
     28375     28374     28391     28375     28374     28395     28376     28372     28377
     28376     28374     28391     28376     28374     28395     28377     28379     28380
     28377     28379     28381     28377     28387     28388     28377     28387     28389
     28377     28387     28391     28378     28377     28379     28378     28377     28387
     28379     28377     28387     28379     28381     28382     28379     28381     28383
     28380     28379     28381     28381     28383     28384     28381     28383     28385
     28381     28383     28386     28382     28381     28383     28384     28383     28385
     28384     28383     28386     28385     28383     28386     28387     28389     28390
     28387     28391     28392     28387     28391     28393     28388     28387     28389
     28388     28387     28391     28389     28387     28391     28391     28374     28395
     28391     28393     28394     28392     28391     28393     28395     28398     28399
     28396     28395     28397     28396     28395     28398     28397     28395     28398
     28400     28404     28402     28400     28405     28406     28400     28405     28407
     28400     28405     28415     28401     28400     28404     28401     28400     28405
     28402     28418     28415     28402     28418     28419     28402     28418     28420
     28402     28422     28423     28402     28422     28424     28402     28422     28425
     28403     28402     28404     28403     28402     28418     28403     28402     28422
     28404     28400     28405     28404     28402     28418     28404     28402     28422
     28405     28407     28408     28405     28407     28409     28405     28415     28416
     28405     28415     28417     28405     28415     28418     28406     28405     28407
     28406     28405     28415     28407     28405     28415     28407     28409     28410
     28407     28409     28411     28408     28407     28409     28409     28411     28412
     28409     28411     28413     28409     28411     28414     28410     28409     28411
     28412     28411     28413     28412     28411     28414     28413     28411     28414
     28415     28417     28427     28415     28418     28419     28415     28418     28420
     28416     28415     28417     28416     28415     28418     28417     28415     28418
     28417     28427     28428     28417     28427     28431     28417     28427     28432
     28418     28402     28422     28418     28420     28421     28419     28418     28420
     28422     28425     28426     28423     28422     28424     28423     28422     28425
     28424     28422     28425     28427     28431     28429     28427     28432     28433
     28427     28432     28434     28427     28432     28435     28428     28427     28431
     28428     28427     28432     28429     28439     28435     28429     28439     28440
     28429     28439     28441     28429     28443     28444     28429     28443     28445
     28429     28443     28446     28430     28429     28431     28430     28429     28439
     28430     28429     28443     28431     28427     28432     28431     28429     28439
     28431     28429     28443     28432     28434     28448     28432     28435     28436
     28432     28435     28437     28432     28435     28439     28433     28432     28434
     28433     28432     28435     28434     28432     28435     28434     28448     28449
     28434     28448     28452     28434     28448     28453     28435     28437     28438
     28435     28439     28440     28435     28439     28441     28436     28435     28437
     28436     28435     28439     28437     28435     28439     28439     28429     28443
     28439     28441     28442     28440     28439     28441     28443     28446     28447
     28444     28443     28445     28444     28443     28446     28445     28443     28446
     28448     28452     28450     28448     28453     28454     28448     28453     28455
     28448     28453     28456     28449     28448     28452     28449     28448     28453
     28450     28460     28456     28450     28460     28461     28450     28460     28462
     28450     28464     28465     28450     28464     28466     28450     28464     28467
     28451     28450     28452     28451     28450     28460     28451     28450     28464
     28452     28448     28453     28452     28450     28460     28452     28450     28464
     28453     28455     28468     28453     28456     28457     28453     28456     28458
     28453     28456     28460     28454     28453     28455     28454     28453     28456
     28455     28453     28456     28455     28468     28469     28455     28468     28472
     28455     28468     28473     28456     28458     28459     28456     28460     28461
     28456     28460     28462     28457     28456     28458     28457     28456     28460
     28458     28456     28460     28460     28450     28464     28460     28462     28463
     28461     28460     28462     28465     28464     28466     28465     28464     28467
     28466     28464     28467     28468     28472     28470     28468     28473     28474
     28468     28473     28475     28468     28473     28476     28469     28468     28472
     28469     28468     28473     28470     28479     28476     28470     28479     28480
     28470     28479     28481     28470     28483     28484     28470     28483     28485
     28470     28483     28486     28471     28470     28472     28471     28470     28479
     28471     28470     28483     28472     28468     28473     28472     28470     28479
     28472     28470     28483     28473     28475     28487     28473     28476     28477
     28473     28476     28478     28473     28476     28479     28474     28473     28475
     28474     28473     28476     28475     28473     28476     28475     28487     28488
     28475     28487     28491     28475     28487     28492     28476     28478     28515
     28476     28479     28480     28476     28479     28481     28477     28476     28478
     28477     28476     28479     28478     28476     28479     28478     28515     28516
     28478     28515     28519     28478     28515     28520     28479     28470     28483
     28479     28481     28482     28480     28479     28481     28484     28483     28485
     28484     28483     28486     28485     28483     28486     28487     28491     28489
     28487     28492     28493     28487     28492     28494     28487     28492     28502
     28488     28487     28491     28488     28487     28492     28489     28506     28502
     28489     28506     28507     28489     28506     28508     28489     28510     28511
     28489     28510     28512     28489     28510     28513     28490     28489     28491
     28490     28489     28506     28490     28489     28510     28491     28487     28492
     28491     28489     28506     28491     28489     28510     28492     28494     28495
     28492     28494     28496     28492     28502     28503     28492     28502     28504
     28492     28502     28506     28493     28492     28494     28493     28492     28502
     28494     28492     28502     28494     28496     28497     28494     28496     28498
     28495     28494     28496     28496     28498     28499     28496     28498     28500
     28496     28498     28501     28497     28496     28498     28499     28498     28500
     28499     28498     28501     28500     28498     28501     28502     28504     28505
     28502     28506     28507     28502     28506     28508     28503     28502     28504
     28503     28502     28506     28504     28502     28506     28506     28489     28510
     28506     28508     28509     28507     28506     28508     28510     28513     28514
     28511     28510     28512     28511     28510     28513     28512     28510     28513
     28515     28519     28517     28515     28520     28521     28515     28520     28522
     28515     28520     28530     28516     28515     28519     28516     28515     28520
     28517     28533     28530     28517     28533     28534     28517     28533     28535
     28517     28537     28538     28517     28537     28539     28517     28537     28540
     28518     28517     28519     28518     28517     28533     28518     28517     28537
     28519     28515     28520     28519     28517     28533     28519     28517     28537
     28520     28522     28523     28520     28522     28524     28520     28530     28531
     28520     28530     28532     28520     28530     28533     28521     28520     28522
     28521     28520     28530     28522     28520     28530     28522     28524     28525
     28522     28524     28526     28523     28522     28524     28524     28526     28527
     28524     28526     28528     28524     28526     28529     28525     28524     28526
     28527     28526     28528     28527     28526     28529     28528     28526     28529
     28530     28532     28542     28530     28533     28534     28530     28533     28535
     28531     28530     28532     28531     28530     28533     28532     28530     28533
     28532     28542     28543     28532     28542     28546     28532     28542     28547
     28533     28517     28537     28533     28535     28536     28534     28533     28535
     28537     28540     28541     28538     28537     28539     28538     28537     28540
     28539     28537     28540     28542     28546     28544     28542     28547     28548
     28542     28547     28549     28542     28547     28550     28543     28542     28546
     28543     28542     28547     28544     28554     28550     28544     28554     28555
     28544     28554     28556     28544     28558     28559     28544     28558     28560
     28544     28558     28561     28545     28544     28546     28545     28544     28554
     28545     28544     28558     28546     28542     28547     28546     28544     28554
     28546     28544     28558     28547     28549     28563     28547     28550     28551
     28547     28550     28552     28547     28550     28554     28548     28547     28549
     28548     28547     28550     28549     28547     28550     28549     28563     28564
     28549     28563     28567     28549     28563     28568     28550     28552     28553
     28550     28554     28555     28550     28554     28556     28551     28550     28552
     28551     28550     28554     28552     28550     28554     28554     28544     28558
     28554     28556     28557     28555     28554     28556     28558     28561     28562
     28559     28558     28560     28559     28558     28561     28560     28558     28561
     28563     28567     28565     28563     28568     28569     28563     28568     28570
     28563     28568     28571     28564     28563     28567     28564     28563     28568
     28565     28575     28571     28565     28575     28576     28565     28575     28577
     28565     28579     28580     28565     28579     28581     28565     28579     28582
     28566     28565     28567     28566     28565     28575     28566     28565     28579
     28567     28563     28568     28567     28565     28575     28567     28565     28579
     28568     28570     28583     28568     28571     28572     28568     28571     28573
     28568     28571     28575     28569     28568     28570     28569     28568     28571
     28570     28568     28571     28570     28583     28584     28570     28583     28587
     28570     28583     28588     28571     28573     28574     28571     28575     28576
     28571     28575     28577     28572     28571     28573     28572     28571     28575
     28573     28571     28575     28575     28565     28579     28575     28577     28578
     28576     28575     28577     28580     28579     28581     28580     28579     28582
     28581     28579     28582     28583     28587     28585     28583     28588     28589
     28583     28588     28590     28583     28588     28591     28584     28583     28587
     28584     28583     28588     28585     28594     28591     28585     28594     28595
     28585     28594     28596     28585     28598     28599     28585     28598     28600
     28585     28598     28601     28586     28585     28587     28586     28585     28594
     28586     28585     28598     28587     28583     28588     28587     28585     28594
     28587     28585     28598     28588     28590     28602     28588     28591     28592
     28588     28591     28593     28588     28591     28594     28589     28588     28590
     28589     28588     28591     28590     28588     28591     28590     28602     28603
     28590     28602     28606     28590     28602     28607     28591     28593     28630
     28591     28594     28595     28591     28594     28596     28592     28591     28593
     28592     28591     28594     28593     28591     28594     28593     28630     28631
     28593     28630     28634     28593     28630     28635     28594     28585     28598
     28594     28596     28597     28595     28594     28596     28599     28598     28600
     28599     28598     28601     28600     28598     28601     28602     28606     28604
     28602     28607     28608     28602     28607     28609     28602     28607     28617
     28603     28602     28606     28603     28602     28607     28604     28621     28617
     28604     28621     28622     28604     28621     28623     28604     28625     28626
     28604     28625     28627     28604     28625     28628     28605     28604     28606
     28605     28604     28621     28605     28604     28625     28606     28602     28607
     28606     28604     28621     28606     28604     28625     28607     28609     28610
     28607     28609     28611     28607     28617     28618     28607     28617     28619
     28607     28617     28621     28608     28607     28609     28608     28607     28617
     28609     28607     28617     28609     28611     28612     28609     28611     28613
     28610     28609     28611     28611     28613     28614     28611     28613     28615
     28611     28613     28616     28612     28611     28613     28614     28613     28615
     28614     28613     28616     28615     28613     28616     28617     28619     28620
     28617     28621     28622     28617     28621     28623     28618     28617     28619
     28618     28617     28621     28619     28617     28621     28621     28604     28625
     28621     28623     28624     28622     28621     28623     28625     28628     28629
     28626     28625     28627     28626     28625     28628     28627     28625     28628
     28630     28634     28632     28630     28635     28636     28630     28635     28637
     28630     28635     28645     28631     28630     28634     28631     28630     28635
     28632     28648     28645     28632     28648     28649     28632     28648     28650
     28632     28652     28653     28632     28652     28654     28632     28652     28655
     28633     28632     28634     28633     28632     28648     28633     28632     28652
     28634     28630     28635     28634     28632     28648     28634     28632     28652
     28635     28637     28638     28635     28637     28639     28635     28645     28646
     28635     28645     28647     28635     28645     28648     28636     28635     28637
     28636     28635     28645     28637     28635     28645     28637     28639     28640
     28637     28639     28641     28638     28637     28639     28639     28641     28642
     28639     28641     28643     28639     28641     28644     28640     28639     28641
     28642     28641     28643     28642     28641     28644     28643     28641     28644
     28645     28647     28657     28645     28648     28649     28645     28648     28650
     28646     28645     28647     28646     28645     28648     28647     28645     28648
     28647     28657     28658     28647     28657     28661     28647     28657     28662
     28648     28632     28652     28648     28650     28651     28649     28648     28650
     28652     28655     28656     28653     28652     28654     28653     28652     28655
     28654     28652     28655     28657     28661     28659     28657     28662     28663
     28657     28662     28664     28657     28662     28665     28658     28657     28661
     28658     28657     28662     28659     28669     28665     28659     28669     28670
     28659     28669     28671     28659     28673     28674     28659     28673     28675
     28659     28673     28676     28660     28659     28661     28660     28659     28669
     28660     28659     28673     28661     28657     28662     28661     28659     28669
     28661     28659     28673     28662     28664     28678     28662     28665     28666
     28662     28665     28667     28662     28665     28669     28663     28662     28664
     28663     28662     28665     28664     28662     28665     28664     28678     28679
     28664     28678     28682     28664     28678     28683     28665     28667     28668
     28665     28669     28670     28665     28669     28671     28666     28665     28667
     28666     28665     28669     28667     28665     28669     28669     28659     28673
     28669     28671     28672     28670     28669     28671     28673     28676     28677
     28674     28673     28675     28674     28673     28676     28675     28673     28676
     28678     28682     28680     28678     28683     28684     28678     28683     28685
     28678     28683     28686     28679     28678     28682     28679     28678     28683
     28680     28690     28686     28680     28690     28691     28680     28690     28692
     28680     28694     28695     28680     28694     28696     28680     28694     28697
     28681     28680     28682     28681     28680     28690     28681     28680     28694
     28682     28678     28683     28682     28680     28690     28682     28680     28694
     28683     28685     28698     28683     28686     28687     28683     28686     28688
     28683     28686     28690     28684     28683     28685     28684     28683     28686
     28685     28683     28686     28685     28698     28699     28685     28698     28702
     28685     28698     28703     28686     28688     28689     28686     28690     28691
     28686     28690     28692     28687     28686     28688     28687     28686     28690
     28688     28686     28690     28690     28680     28694     28690     28692     28693
     28691     28690     28692     28695     28694     28696     28695     28694     28697
     28696     28694     28697     28698     28702     28700     28698     28703     28704
     28698     28703     28705     28698     28703     28706     28699     28698     28702
     28699     28698     28703     28700     28709     28706     28700     28709     28710
     28700     28709     28711     28700     28713     28714     28700     28713     28715
     28700     28713     28716     28701     28700     28702     28701     28700     28709
     28701     28700     28713     28702     28698     28703     28702     28700     28709
     28702     28700     28713     28703     28705     28717     28703     28706     28707
     28703     28706     28708     28703     28706     28709     28704     28703     28705
     28704     28703     28706     28705     28703     28706     28705     28717     28718
     28705     28717     28721     28705     28717     28722     28706     28708     28745
     28706     28709     28710     28706     28709     28711     28707     28706     28708
     28707     28706     28709     28708     28706     28709     28708     28745     28746
     28708     28745     28749     28708     28745     28750     28709     28700     28713
     28709     28711     28712     28710     28709     28711     28714     28713     28715
     28714     28713     28716     28715     28713     28716     28717     28721     28719
     28717     28722     28723     28717     28722     28724     28717     28722     28732
     28718     28717     28721     28718     28717     28722     28719     28736     28732
     28719     28736     28737     28719     28736     28738     28719     28740     28741
     28719     28740     28742     28719     28740     28743     28720     28719     28721
     28720     28719     28736     28720     28719     28740     28721     28717     28722
     28721     28719     28736     28721     28719     28740     28722     28724     28725
     28722     28724     28726     28722     28732     28733     28722     28732     28734
     28722     28732     28736     28723     28722     28724     28723     28722     28732
     28724     28722     28732     28724     28726     28727     28724     28726     28728
     28725     28724     28726     28726     28728     28729     28726     28728     28730
     28726     28728     28731     28727     28726     28728     28729     28728     28730
     28729     28728     28731     28730     28728     28731     28732     28734     28735
     28732     28736     28737     28732     28736     28738     28733     28732     28734
     28733     28732     28736     28734     28732     28736     28736     28719     28740
     28736     28738     28739     28737     28736     28738     28740     28743     28744
     28741     28740     28742     28741     28740     28743     28742     28740     28743
     28745     28749     28747     28745     28750     28751     28745     28750     28752
     28745     28750     28760     28746     28745     28749     28746     28745     28750
     28747     28763     28760     28747     28763     28764     28747     28763     28765
     28747     28767     28768     28747     28767     28769     28747     28767     28770
     28748     28747     28749     28748     28747     28763     28748     28747     28767
     28749     28745     28750     28749     28747     28763     28749     28747     28767
     28750     28752     28753     28750     28752     28754     28750     28760     28761
     28750     28760     28762     28750     28760     28763     28751     28750     28752
     28751     28750     28760     28752     28750     28760     28752     28754     28755
     28752     28754     28756     28753     28752     28754     28754     28756     28757
     28754     28756     28758     28754     28756     28759     28755     28754     28756
     28757     28756     28758     28757     28756     28759     28758     28756     28759
     28760     28762     28772     28760     28763     28764     28760     28763     28765
     28761     28760     28762     28761     28760     28763     28762     28760     28763
     28762     28772     28773     28762     28772     28776     28762     28772     28777
     28763     28747     28767     28763     28765     28766     28764     28763     28765
     28767     28770     28771     28768     28767     28769     28768     28767     28770
     28769     28767     28770     28772     28776     28774     28772     28777     28778
     28772     28777     28779     28772     28777     28780     28773     28772     28776
     28773     28772     28777     28774     28784     28780     28774     28784     28785
     28774     28784     28786     28774     28788     28789     28774     28788     28790
     28774     28788     28791     28775     28774     28776     28775     28774     28784
     28775     28774     28788     28776     28772     28777     28776     28774     28784
     28776     28774     28788     28777     28779     28793     28777     28780     28781
     28777     28780     28782     28777     28780     28784     28778     28777     28779
     28778     28777     28780     28779     28777     28780     28779     28793     28794
     28779     28793     28797     28779     28793     28798     28780     28782     28783
     28780     28784     28785     28780     28784     28786     28781     28780     28782
     28781     28780     28784     28782     28780     28784     28784     28774     28788
     28784     28786     28787     28785     28784     28786     28788     28791     28792
     28789     28788     28790     28789     28788     28791     28790     28788     28791
     28793     28797     28795     28793     28798     28799     28793     28798     28800
     28793     28798     28801     28794     28793     28797     28794     28793     28798
     28795     28805     28801     28795     28805     28806     28795     28805     28807
     28795     28809     28810     28795     28809     28811     28795     28809     28812
     28796     28795     28797     28796     28795     28805     28796     28795     28809
     28797     28793     28798     28797     28795     28805     28797     28795     28809
     28798     28800     28813     28798     28801     28802     28798     28801     28803
     28798     28801     28805     28799     28798     28800     28799     28798     28801
     28800     28798     28801     28800     28813     28814     28800     28813     28817
     28800     28813     28818     28801     28803     28804     28801     28805     28806
     28801     28805     28807     28802     28801     28803     28802     28801     28805
     28803     28801     28805     28805     28795     28809     28805     28807     28808
     28806     28805     28807     28810     28809     28811     28810     28809     28812
     28811     28809     28812     28813     28817     28815     28813     28818     28819
     28813     28818     28820     28813     28818     28821     28814     28813     28817
     28814     28813     28818     28815     28825     28821     28815     28825     28826
     28815     28825     28827     28815     28829     28830     28815     28829     28831
     28815     28829     28832     28816     28815     28817     28816     28815     28825
     28816     28815     28829     28817     28813     28818     28817     28815     28825
     28817     28815     28829     28818     28820     28833     28818     28821     28822
     28818     28821     28823     28818     28821     28825     28819     28818     28820
     28819     28818     28821     28820     28818     28821     28820     28833     28834
     28820     28833     28837     28820     28833     28838     28821     28823     28824
     28821     28825     28826     28821     28825     28827     28822     28821     28823
     28822     28821     28825     28823     28821     28825     28825     28815     28829
     28825     28827     28828     28826     28825     28827     28830     28829     28831
     28830     28829     28832     28831     28829     28832     28833     28837     28835
     28833     28838     28839     28833     28838     28840     28833     28838     28848
     28834     28833     28837     28834     28833     28838     28835     28852     28848
     28835     28852     28853     28835     28852     28854     28835     28856     28857
     28835     28856     28858     28835     28856     28859     28836     28835     28837
     28836     28835     28852     28836     28835     28856     28837     28833     28838
     28837     28835     28852     28837     28835     28856     28838     28840     28841
     28838     28840     28842     28838     28848     28849     28838     28848     28850
     28838     28848     28852     28839     28838     28840     28839     28838     28848
     28840     28838     28848     28840     28842     28843     28840     28842     28844
     28841     28840     28842     28842     28844     28845     28842     28844     28846
     28842     28844     28847     28843     28842     28844     28845     28844     28846
     28845     28844     28847     28846     28844     28847     28848     28850     28851
     28848     28852     28853     28848     28852     28854     28849     28848     28850
     28849     28848     28852     28850     28848     28852     28852     28835     28856
     28852     28854     28855     28853     28852     28854     28856     28859     28860
     28857     28856     28858     28857     28856     28859     28858     28856     28859
     28861     28863     28862     28861     28863     28864     28861     28863     28865
     28862     28863     28864     28862     28863     28865     28862     29160     29157
     28862     29160     29163     28862     29160     29164     28863     28862     29160
     28863     28865     28866     28863     28865     28867     28863     28865     28874
     28864     28863     28865     28865     28866     28868     28865     28874     28875
     28865     28874     28876     28865     28874     28881     28866     28865     28867
     28866     28865     28874     28866     28868     28869     28866     28868     28870
     28866     28868     28889     28867     28865     28874     28868     28870     28871
     28868     28889     28881     28868     28889     28890     28868     28889     28891
     28869     28868     28870     28869     28868     28889     28870     28868     28889
     28870     28871     28872     28870     28871     28873     28870     28871     28897
     28871     28897     28893     28871     28897     28898     28871     28897     28899
     28872     28871     28873     28872     28871     28897     28873     28871     28897
     28874     28876     28877     28874     28881     28882     28874     28881     28883
     28874     28881     28889     28875     28874     28876     28875     28874     28881
     28876     28874     28881     28876     28877     28878     28876     28877     28879
     28876     28877     28880     28878     28877     28879     28878     28877     28880
     28879     28877     28880     28881     28882     28884     28881     28889     28890
     28881     28889     28891     28882     28881     28883     28882     28881     28889
     28882     28884     28885     28882     28884     28886     28883     28881     28889
     28884     28886     28887     28884     28886     28888     28884     28886     28919
     28885     28884     28886     28886     28919     28920     28886     28919     28921
     28886     28919     28964     28887     28886     28888     28887     28886     28919
     28888     28886     28919     28889     28891     28892     28889     28891     28998
     28890     28889     28891     28891     28998     28999     28891     28998     29000
     28892     28891     28998     28893     28895     28896     28893     28897     28898
     28893     28897     28899     28893     28907     28908     28893     28907     28909
     28893     28907     28915     28894     28893     28895     28894     28893     28897
     28894     28893     28907     28895     28893     28897     28895     28893     28907
     28897     28893     28907     28897     28899     28900     28898     28897     28899
     28899     28900     28901     28899     28900     28902     28899     28900     28915
     28900     28902     28906     28900     28915     28907     28900     28915     28916
     28900     28915     28917     28901     28900     28902     28901     28900     28915
     28902     28900     28915     28902     28906     28903     28902     28906     28904
     28902     28906     28905     28903     28906     28904     28903     28906     28905
     28904     28906     28905     28907     28909     28910     28907     28915     28916
     28907     28915     28917     28908     28907     28909     28908     28907     28915
     28909     28907     28915     28909     28910     28911     28909     28910     28912
     28910     28912     28913     28910     28912     28914     28910     28912     29076
     28911     28910     28912     28912     29076     29077     28912     29076     29078
     28912     29076     29080     28913     28912     28914     28913     28912     29076
     28914     28912     29076     28915     28917     28918     28915     28917     29114
     28916     28915     28917     28917     29114     29115     28917     29114     29116
     28918     28917     29114     28919     28921     28922     28919     28964     28965
     28919     28964     28966     28919     28964     28967     28920     28919     28921
     28920     28919     28964     28921     28919     28964     28921     28922     28923
     28921     28922     28924     28922     28924     28925     28922     28924     28926
     28922     28924     28927     28923     28922     28924     28924     28927     28928
     28924     28927     28929     28924     28927     28930     28925     28924     28926
     28925     28924     28927     28926     28924     28927     28927     28930     28931
     28927     28930     28932     28927     28930     28933     28928     28927     28929
     28928     28927     28930     28929     28927     28930     28930     28933     28934
     28930     28933     28935     28930     28933     28936     28931     28930     28932
     28931     28930     28933     28932     28930     28933     28933     28936     28937
     28933     28936     28938     28933     28936     28939     28934     28933     28935
     28934     28933     28936     28935     28933     28936     28936     28939     28940
     28936     28939     28941     28936     28939     28942     28937     28936     28938
     28937     28936     28939     28938     28936     28939     28939     28942     28943
     28939     28942     28944     28939     28942     28945     28940     28939     28941
     28940     28939     28942     28941     28939     28942     28942     28945     28946
     28942     28945     28947     28942     28945     28948     28943     28942     28944
     28943     28942     28945     28944     28942     28945     28945     28948     28949
     28945     28948     28950     28945     28948     28951     28946     28945     28947
     28946     28945     28948     28947     28945     28948     28948     28951     28952
     28948     28951     28953     28948     28951     28954     28949     28948     28950
     28949     28948     28951     28950     28948     28951     28951     28954     28955
     28951     28954     28956     28951     28954     28957     28952     28951     28953
     28952     28951     28954     28953     28951     28954     28954     28957     28958
     28954     28957     28959     28954     28957     28960     28955     28954     28956
     28955     28954     28957     28956     28954     28957     28957     28960     28961
     28957     28960     28962     28957     28960     28963     28958     28957     28959
     28958     28957     28960     28959     28957     28960     28961     28960     28962
     28961     28960     28963     28962     28960     28963     28964     28967     28968
     28964     28967     28969     28964     28967     28970     28965     28964     28966
     28965     28964     28967     28966     28964     28967     28967     28970     28971
     28967     28970     28972     28967     28970     28973     28968     28967     28969
     28968     28967     28970     28969     28967     28970     28970     28973     28974
     28970     28973     28975     28970     28973     28976     28971     28970     28972
     28971     28970     28973     28972     28970     28973     28973     28976     28977
     28973     28976     28978     28973     28976     28979     28974     28973     28975
     28974     28973     28976     28975     28973     28976     28976     28979     28980
     28976     28979     28981     28976     28979     28982     28977     28976     28978
     28977     28976     28979     28978     28976     28979     28979     28982     28983
     28979     28982     28984     28979     28982     28985     28980     28979     28981
     28980     28979     28982     28981     28979     28982     28982     28985     28986
     28982     28985     28987     28982     28985     28988     28983     28982     28984
     28983     28982     28985     28984     28982     28985     28985     28988     28989
     28985     28988     28990     28985     28988     28991     28986     28985     28987
     28986     28985     28988     28987     28985     28988     28988     28991     28992
     28988     28991     28993     28988     28991     28994     28989     28988     28990
     28989     28988     28991     28990     28988     28991     28991     28994     28995
     28991     28994     28996     28991     28994     28997     28992     28991     28993
     28992     28991     28994     28993     28991     28994     28995     28994     28996
     28995     28994     28997     28996     28994     28997     28998     29000     29001
     28998     29000     29002     28998     29000     29003     28999     28998     29000
     29000     29003     29004     29000     29003     29005     29000     29003     29042
     29001     29000     29002     29001     29000     29003     29002     29000     29003
     29003     29005     29006     29003     29042     29043     29003     29042     29044
     29003     29042     29045     29004     29003     29005     29004     29003     29042
     29005     29003     29042     29005     29006     29007     29005     29006     29008
     29006     29008     29009     29006     29008     29010     29006     29008     29011
     29007     29006     29008     29008     29011     29012     29008     29011     29013
     29008     29011     29014     29009     29008     29010     29009     29008     29011
     29010     29008     29011     29011     29014     29015     29011     29014     29016
     29011     29014     29017     29012     29011     29013     29012     29011     29014
     29013     29011     29014     29014     29017     29018     29014     29017     29019
     29014     29017     29020     29015     29014     29016     29015     29014     29017
     29016     29014     29017     29017     29020     29021     29017     29020     29022
     29017     29020     29023     29018     29017     29019     29018     29017     29020
     29019     29017     29020     29020     29023     29024     29020     29023     29025
     29020     29023     29026     29021     29020     29022     29021     29020     29023
     29022     29020     29023     29023     29026     29027     29023     29026     29028
     29023     29026     29029     29024     29023     29025     29024     29023     29026
     29025     29023     29026     29026     29029     29030     29026     29029     29031
     29026     29029     29032     29027     29026     29028     29027     29026     29029
     29028     29026     29029     29029     29032     29033     29029     29032     29034
     29029     29032     29035     29030     29029     29031     29030     29029     29032
     29031     29029     29032     29032     29035     29036     29032     29035     29037
     29032     29035     29038     29033     29032     29034     29033     29032     29035
     29034     29032     29035     29035     29038     29039     29035     29038     29040
     29035     29038     29041     29036     29035     29037     29036     29035     29038
     29037     29035     29038     29039     29038     29040     29039     29038     29041
     29040     29038     29041     29042     29045     29046     29042     29045     29047
     29042     29045     29048     29043     29042     29044     29043     29042     29045
     29044     29042     29045     29045     29048     29049     29045     29048     29050
     29045     29048     29051     29046     29045     29047     29046     29045     29048
     29047     29045     29048     29048     29051     29052     29048     29051     29053
     29048     29051     29054     29049     29048     29050     29049     29048     29051
     29050     29048     29051     29051     29054     29055     29051     29054     29056
     29051     29054     29057     29052     29051     29053     29052     29051     29054
     29053     29051     29054     29054     29057     29058     29054     29057     29059
     29054     29057     29060     29055     29054     29056     29055     29054     29057
     29056     29054     29057     29057     29060     29061     29057     29060     29062
     29057     29060     29063     29058     29057     29059     29058     29057     29060
     29059     29057     29060     29060     29063     29064     29060     29063     29065
     29060     29063     29066     29061     29060     29062     29061     29060     29063
     29062     29060     29063     29063     29066     29067     29063     29066     29068
     29063     29066     29069     29064     29063     29065     29064     29063     29066
     29065     29063     29066     29066     29069     29070     29066     29069     29071
     29066     29069     29072     29067     29066     29068     29067     29066     29069
     29068     29066     29069     29069     29072     29073     29069     29072     29074
     29069     29072     29075     29070     29069     29071     29070     29069     29072
     29071     29069     29072     29073     29072     29074     29073     29072     29075
     29074     29072     29075     29076     29078     29079     29076     29080     29081
     29076     29080     29082     29076     29080     29083     29077     29076     29078
     29077     29076     29080     29078     29076     29080     29080     29083     29084
     29080     29083     29085     29080     29083     29086     29081     29080     29082
     29081     29080     29083     29082     29080     29083     29083     29086     29087
     29083     29086     29088     29083     29086     29089     29084     29083     29085
     29084     29083     29086     29085     29083     29086     29086     29089     29090
     29086     29089     29091     29086     29089     29092     29087     29086     29088
     29087     29086     29089     29088     29086     29089     29089     29092     29093
     29089     29092     29094     29089     29092     29095     29090     29089     29091
     29090     29089     29092     29091     29089     29092     29092     29095     29096
     29092     29095     29097     29092     29095     29098     29093     29092     29094
     29093     29092     29095     29094     29092     29095     29095     29098     29099
     29095     29098     29100     29095     29098     29101     29096     29095     29097
     29096     29095     29098     29097     29095     29098     29098     29101     29102
     29098     29101     29103     29098     29101     29104     29099     29098     29100
     29099     29098     29101     29100     29098     29101     29101     29104     29105
     29101     29104     29106     29101     29104     29107     29102     29101     29103
     29102     29101     29104     29103     29101     29104     29104     29107     29108
     29104     29107     29109     29104     29107     29110     29105     29104     29106
     29105     29104     29107     29106     29104     29107     29107     29110     29111
     29107     29110     29112     29107     29110     29113     29108     29107     29109
     29108     29107     29110     29109     29107     29110     29111     29110     29112
     29111     29110     29113     29112     29110     29113     29114     29116     29117
     29114     29116     29118     29114     29116     29119     29115     29114     29116
     29116     29119     29120     29116     29119     29121     29116     29119     29123
     29117     29116     29118     29117     29116     29119     29118     29116     29119
     29119     29121     29122     29119     29123     29124     29119     29123     29125
     29119     29123     29126     29120     29119     29121     29120     29119     29123
     29121     29119     29123     29123     29126     29127     29123     29126     29128
     29123     29126     29129     29124     29123     29125     29124     29123     29126
     29125     29123     29126     29126     29129     29130     29126     29129     29131
     29126     29129     29132     29127     29126     29128     29127     29126     29129
     29128     29126     29129     29129     29132     29133     29129     29132     29134
     29129     29132     29135     29130     29129     29131     29130     29129     29132
     29131     29129     29132     29132     29135     29136     29132     29135     29137
     29132     29135     29138     29133     29132     29134     29133     29132     29135
     29134     29132     29135     29135     29138     29139     29135     29138     29140
     29135     29138     29141     29136     29135     29137     29136     29135     29138
     29137     29135     29138     29138     29141     29142     29138     29141     29143
     29138     29141     29144     29139     29138     29140     29139     29138     29141
     29140     29138     29141     29141     29144     29145     29141     29144     29146
     29141     29144     29147     29142     29141     29143     29142     29141     29144
     29143     29141     29144     29144     29147     29148     29144     29147     29149
     29144     29147     29150     29145     29144     29146     29145     29144     29147
     29146     29144     29147     29147     29150     29151     29147     29150     29152
     29147     29150     29153     29148     29147     29149     29148     29147     29150
     29149     29147     29150     29150     29153     29154     29150     29153     29155
     29150     29153     29156     29151     29150     29152     29151     29150     29153
     29152     29150     29153     29154     29153     29155     29154     29153     29156
     29155     29153     29156     29157     29160     29163     29157     29160     29164
     29158     29157     29159     29158     29157     29160     29159     29157     29160
     29160     29163     29161     29160     29164     29165     29160     29164     29166
     29160     29164     29167     29161     29170     29167     29161     29170     29171
     29161     29170     29172     29161     29173     29174     29161     29173     29175
     29161     29173     29177     29162     29161     29163     29162     29161     29170
     29162     29161     29173     29163     29160     29164     29163     29161     29170
     29163     29161     29173     29164     29167     29168     29164     29167     29169
     29164     29167     29170     29165     29164     29166     29165     29164     29167
     29166     29164     29167     29167     29169     29185     29167     29170     29171
     29167     29170     29172     29168     29167     29169     29168     29167     29170
     29169     29167     29170     29169     29185     29182     29169     29185     29188
     29169     29185     29189     29170     29161     29173     29170     29172     29209
     29171     29170     29172     29172     29209     29210     29172     29209     29213
     29172     29209     29214     29173     29175     29176     29173     29177     29178
     29173     29177     29179     29173     29177     29180     29174     29173     29175
     29174     29173     29177     29175     29173     29177     29177     29180     29181
     29178     29177     29179     29178     29177     29180     29179     29177     29180
     29182     29185     29188     29182     29185     29189     29183     29182     29184
     29183     29182     29185     29184     29182     29185     29185     29188     29186
     29185     29189     29190     29185     29189     29191     29185     29189     29192
     29186     29196     29192     29186     29196     29197     29186     29196     29198
     29186     29200     29201     29186     29200     29202     29186     29200     29204
     29187     29186     29188     29187     29186     29196     29187     29186     29200
     29188     29185     29189     29188     29186     29196     29188     29186     29200
     29189     29192     29193     29189     29192     29194     29189     29192     29196
     29190     29189     29191     29190     29189     29192     29191     29189     29192
     29192     29194     29195     29192     29196     29197     29192     29196     29198
     29193     29192     29194     29193     29192     29196     29194     29192     29196
     29196     29186     29200     29196     29198     29199     29197     29196     29198
     29200     29202     29203     29200     29204     29205     29200     29204     29206
     29200     29204     29207     29201     29200     29202     29201     29200     29204
     29202     29200     29204     29204     29207     29208     29205     29204     29206
     29205     29204     29207     29206     29204     29207     29209     29213     29211
     29209     29214     29215     29209     29214     29216     29209     29214     29218
     29210     29209     29213     29210     29209     29214     29211     29221     29218
     29211     29221     29222     29211     29221     29223     29211     29228     29229
     29211     29228     29230     29211     29228     29232     29212     29211     29213
     29212     29211     29221     29212     29211     29228     29213     29209     29214
     29213     29211     29221     29213     29211     29228     29214     29216     29217
     29214     29218     29219     29214     29218     29220     29214     29218     29221
     29215     29214     29216     29215     29214     29218     29216     29214     29218
     29218     29220     29237     29218     29221     29222     29218     29221     29223
     29219     29218     29220     29219     29218     29221     29220     29218     29221
     29220     29237     29238     29220     29237     29241     29220     29237     29242
     29221     29211     29228     29221     29223     29224     29222     29221     29223
     29223     29224     29225     29223     29224     29226     29223     29224     29227
     29225     29224     29226     29225     29224     29227     29226     29224     29227
     29228     29230     29231     29228     29232     29233     29228     29232     29234
     29228     29232     29235     29229     29228     29230     29229     29228     29232
     29230     29228     29232     29232     29235     29236     29233     29232     29234
     29233     29232     29235     29234     29232     29235     29237     29241     29239
     29237     29242     29243     29237     29242     29244     29237     29242     29246
     29238     29237     29241     29238     29237     29242     29239     29249     29246
     29239     29249     29250     29239     29249     29251     29239     29256     29257
     29239     29256     29258     29239     29256     29260     29240     29239     29241
     29240     29239     29249     29240     29239     29256     29241     29237     29242
     29241     29239     29249     29241     29239     29256     29242     29244     29245
     29242     29246     29247     29242     29246     29248     29242     29246     29249
     29243     29242     29244     29243     29242     29246     29244     29242     29246
     29246     29248     29290     29246     29249     29250     29246     29249     29251
     29247     29246     29248     29247     29246     29249     29248     29246     29249
     29248     29290     29291     29248     29290     29294     29248     29290     29295
     29249     29239     29256     29249     29251     29252     29250     29249     29251
     29251     29252     29253     29251     29252     29254     29251     29252     29255
     29253     29252     29254     29253     29252     29255     29254     29252     29255
     29256     29258     29259     29256     29260     29261     29256     29260     29262
     29256     29260     29263     29257     29256     29258     29257     29256     29260
     29258     29256     29260     29260     29263     29264     29261     29260     29262
     29261     29260     29263     29262     29260     29263     29263     29264     29265
     29263     29264     29268     29263     29264     29269     29264     29268     29266
     29264     29269     29270     29264     29269     29271     29264     29269     29273
     29265     29264     29268     29265     29264     29269     29266     29277     29273
     29266     29277     29278     29266     29277     29279     29266     29281     29282
     29266     29281     29283     29266     29281     29285     29267     29266     29268
     29267     29266     29277     29267     29266     29281     29268     29264     29269
     29268     29266     29277     29268     29266     29281     29269     29271     29272
     29269     29273     29274     29269     29273     29275     29269     29273     29277
     29270     29269     29271     29270     29269     29273     29271     29269     29273
     29273     29275     29276     29273     29277     29278     29273     29277     29279
     29274     29273     29275     29274     29273     29277     29275     29273     29277
     29277     29266     29281     29277     29279     29280     29278     29277     29279
     29281     29283     29284     29281     29285     29286     29281     29285     29287
     29281     29285     29288     29282     29281     29283     29282     29281     29285
     29283     29281     29285     29285     29288     29289     29286     29285     29287
     29286     29285     29288     29287     29285     29288     29290     29294     29292
     29290     29295     29296     29290     29295     29297     29290     29295     29299
     29291     29290     29294     29291     29290     29295     29292     29302     29299
     29292     29302     29303     29292     29302     29304     29292     29306     29307
     29292     29306     29308     29292     29306     29309     29293     29292     29294
     29293     29292     29302     29293     29292     29306     29294     29290     29295
     29294     29292     29302     29294     29292     29306     29295     29297     29298
     29295     29299     29300     29295     29299     29301     29295     29299     29302
     29296     29295     29297     29296     29295     29299     29297     29295     29299
     29299     29301     29311     29299     29302     29303     29299     29302     29304
     29300     29299     29301     29300     29299     29302     29301     29299     29302
     29301     29311     29312     29301     29311     29315     29301     29311     29316
     29302     29292     29306     29302     29304     29305     29303     29302     29304
     29306     29309     29310     29307     29306     29308     29307     29306     29309
     29308     29306     29309     29311     29315     29313     29311     29316     29317
     29311     29316     29318     29311     29316     29319     29312     29311     29315
     29312     29311     29316     29313     29322     29319     29313     29322     29323
     29313     29322     29324     29313     29326     29327     29313     29326     29328
     29313     29326     29329     29314     29313     29315     29314     29313     29322
     29314     29313     29326     29315     29311     29316     29315     29313     29322
     29315     29313     29326     29316     29318     29331     29316     29319     29320
     29316     29319     29321     29316     29319     29322     29317     29316     29318
     29317     29316     29319     29318     29316     29319     29318     29331     29332
     29318     29331     29335     29318     29331     29336     29319     29321     29374
     29319     29322     29323     29319     29322     29324     29320     29319     29321
     29320     29319     29322     29321     29319     29322     29321     29374     29375
     29321     29374     29378     29321     29374     29379     29322     29313     29326
     29322     29324     29325     29323     29322     29324     29326     29329     29330
     29327     29326     29328     29327     29326     29329     29328     29326     29329
     29331     29335     29333     29331     29336     29337     29331     29336     29338
     29331     29336     29339     29332     29331     29335     29332     29331     29336
     29333     29343     29339     29333     29343     29344     29333     29343     29345
     29333     29347     29348     29333     29347     29349     29333     29347     29350
     29334     29333     29335     29334     29333     29343     29334     29333     29347
     29335     29331     29336     29335     29333     29343     29335     29333     29347
     29336     29338     29352     29336     29339     29340     29336     29339     29341
     29336     29339     29343     29337     29336     29338     29337     29336     29339
     29338     29336     29339     29338     29352     29353     29338     29352     29356
     29338     29352     29357     29339     29341     29342     29339     29343     29344
     29339     29343     29345     29340     29339     29341     29340     29339     29343
     29341     29339     29343     29343     29333     29347     29343     29345     29346
     29344     29343     29345     29347     29350     29351     29348     29347     29349
     29348     29347     29350     29349     29347     29350     29352     29356     29354
     29352     29357     29358     29352     29357     29359     29352     29357     29361
     29353     29352     29356     29353     29352     29357     29354     29365     29361
     29354     29365     29366     29354     29365     29367     29354     29369     29370
     29354     29369     29371     29354     29369     29372     29355     29354     29356
     29355     29354     29365     29355     29354     29369     29356     29352     29357
     29356     29354     29365     29356     29354     29369     29357     29359     29360
     29357     29361     29362     29357     29361     29363     29357     29361     29365
     29358     29357     29359     29358     29357     29361     29359     29357     29361
     29361     29363     29364     29361     29365     29366     29361     29365     29367
     29362     29361     29363     29362     29361     29365     29363     29361     29365
     29365     29354     29369     29365     29367     29368     29366     29365     29367
     29369     29372     29373     29370     29369     29371     29370     29369     29372
     29371     29369     29372     29374     29378     29376     29374     29379     29380
     29374     29379     29381     29374     29379     29383     29375     29374     29378
     29375     29374     29379     29376     29386     29383     29376     29386     29387
     29376     29386     29388     29376     29390     29391     29376     29390     29392
     29376     29390     29393     29377     29376     29378     29377     29376     29386
     29377     29376     29390     29378     29374     29379     29378     29376     29386
     29378     29376     29390     29379     29381     29382     29379     29383     29384
     29379     29383     29385     29379     29383     29386     29380     29379     29381
     29380     29379     29383     29381     29379     29383     29383     29385     29395
     29383     29386     29387     29383     29386     29388     29384     29383     29385
     29384     29383     29386     29385     29383     29386     29385     29395     29396
     29385     29395     29399     29385     29395     29400     29386     29376     29390
     29386     29388     29389     29387     29386     29388     29390     29393     29394
     29391     29390     29392     29391     29390     29393     29392     29390     29393
     29395     29399     29397     29395     29400     29401     29395     29400     29402
     29395     29400     29410     29396     29395     29399     29396     29395     29400
     29397     29413     29410     29397     29413     29414     29397     29413     29415
     29397     29417     29418     29397     29417     29419     29397     29417     29420
     29398     29397     29399     29398     29397     29413     29398     29397     29417
     29399     29395     29400     29399     29397     29413     29399     29397     29417
     29400     29402     29403     29400     29402     29404     29400     29410     29411
     29400     29410     29412     29400     29410     29413     29401     29400     29402
     29401     29400     29410     29402     29400     29410     29402     29404     29405
     29402     29404     29406     29403     29402     29404     29404     29406     29407
     29404     29406     29408     29404     29406     29409     29405     29404     29406
     29407     29406     29408     29407     29406     29409     29408     29406     29409
     29410     29412     29422     29410     29413     29414     29410     29413     29415
     29411     29410     29412     29411     29410     29413     29412     29410     29413
     29412     29422     29423     29412     29422     29426     29412     29422     29427
     29413     29397     29417     29413     29415     29416     29414     29413     29415
     29417     29420     29421     29418     29417     29419     29418     29417     29420
     29419     29417     29420     29422     29426     29424     29422     29427     29428
     29422     29427     29429     29422     29427     29430     29423     29422     29426
     29423     29422     29427     29424     29434     29430     29424     29434     29435
     29424     29434     29436     29424     29438     29439     29424     29438     29440
     29424     29438     29441     29425     29424     29426     29425     29424     29434
     29425     29424     29438     29426     29422     29427     29426     29424     29434
     29426     29424     29438     29427     29429     29443     29427     29430     29431
     29427     29430     29432     29427     29430     29434     29428     29427     29429
     29428     29427     29430     29429     29427     29430     29429     29443     29444
     29429     29443     29447     29429     29443     29448     29430     29432     29433
     29430     29434     29435     29430     29434     29436     29431     29430     29432
     29431     29430     29434     29432     29430     29434     29434     29424     29438
     29434     29436     29437     29435     29434     29436     29438     29441     29442
     29439     29438     29440     29439     29438     29441     29440     29438     29441
     29443     29447     29445     29443     29448     29449     29443     29448     29450
     29443     29448     29451     29444     29443     29447     29444     29443     29448
     29445     29455     29451     29445     29455     29456     29445     29455     29457
     29445     29459     29460     29445     29459     29461     29445     29459     29462
     29446     29445     29447     29446     29445     29455     29446     29445     29459
     29447     29443     29448     29447     29445     29455     29447     29445     29459
     29448     29450     29463     29448     29451     29452     29448     29451     29453
     29448     29451     29455     29449     29448     29450     29449     29448     29451
     29450     29448     29451     29450     29463     29464     29450     29463     29467
     29450     29463     29468     29451     29453     29454     29451     29455     29456
     29451     29455     29457     29452     29451     29453     29452     29451     29455
     29453     29451     29455     29455     29445     29459     29455     29457     29458
     29456     29455     29457     29460     29459     29461     29460     29459     29462
     29461     29459     29462     29463     29467     29465     29463     29468     29469
     29463     29468     29470     29463     29468     29471     29464     29463     29467
     29464     29463     29468     29465     29474     29471     29465     29474     29475
     29465     29474     29476     29465     29478     29479     29465     29478     29480
     29465     29478     29481     29466     29465     29467     29466     29465     29474
     29466     29465     29478     29467     29463     29468     29467     29465     29474
     29467     29465     29478     29468     29470     29482     29468     29471     29472
     29468     29471     29473     29468     29471     29474     29469     29468     29470
     29469     29468     29471     29470     29468     29471     29470     29482     29483
     29470     29482     29486     29470     29482     29487     29471     29473     29510
     29471     29474     29475     29471     29474     29476     29472     29471     29473
     29472     29471     29474     29473     29471     29474     29473     29510     29511
     29473     29510     29514     29473     29510     29515     29474     29465     29478
     29474     29476     29477     29475     29474     29476     29479     29478     29480
     29479     29478     29481     29480     29478     29481     29482     29486     29484
     29482     29487     29488     29482     29487     29489     29482     29487     29497
     29483     29482     29486     29483     29482     29487     29484     29501     29497
     29484     29501     29502     29484     29501     29503     29484     29505     29506
     29484     29505     29507     29484     29505     29508     29485     29484     29486
     29485     29484     29501     29485     29484     29505     29486     29482     29487
     29486     29484     29501     29486     29484     29505     29487     29489     29490
     29487     29489     29491     29487     29497     29498     29487     29497     29499
     29487     29497     29501     29488     29487     29489     29488     29487     29497
     29489     29487     29497     29489     29491     29492     29489     29491     29493
     29490     29489     29491     29491     29493     29494     29491     29493     29495
     29491     29493     29496     29492     29491     29493     29494     29493     29495
     29494     29493     29496     29495     29493     29496     29497     29499     29500
     29497     29501     29502     29497     29501     29503     29498     29497     29499
     29498     29497     29501     29499     29497     29501     29501     29484     29505
     29501     29503     29504     29502     29501     29503     29505     29508     29509
     29506     29505     29507     29506     29505     29508     29507     29505     29508
     29510     29514     29512     29510     29515     29516     29510     29515     29517
     29510     29515     29525     29511     29510     29514     29511     29510     29515
     29512     29528     29525     29512     29528     29529     29512     29528     29530
     29512     29532     29533     29512     29532     29534     29512     29532     29535
     29513     29512     29514     29513     29512     29528     29513     29512     29532
     29514     29510     29515     29514     29512     29528     29514     29512     29532
     29515     29517     29518     29515     29517     29519     29515     29525     29526
     29515     29525     29527     29515     29525     29528     29516     29515     29517
     29516     29515     29525     29517     29515     29525     29517     29519     29520
     29517     29519     29521     29518     29517     29519     29519     29521     29522
     29519     29521     29523     29519     29521     29524     29520     29519     29521
     29522     29521     29523     29522     29521     29524     29523     29521     29524
     29525     29527     29537     29525     29528     29529     29525     29528     29530
     29526     29525     29527     29526     29525     29528     29527     29525     29528
     29527     29537     29538     29527     29537     29541     29527     29537     29542
     29528     29512     29532     29528     29530     29531     29529     29528     29530
     29532     29535     29536     29533     29532     29534     29533     29532     29535
     29534     29532     29535     29537     29541     29539     29537     29542     29543
     29537     29542     29544     29537     29542     29545     29538     29537     29541
     29538     29537     29542     29539     29549     29545     29539     29549     29550
     29539     29549     29551     29539     29553     29554     29539     29553     29555
     29539     29553     29556     29540     29539     29541     29540     29539     29549
     29540     29539     29553     29541     29537     29542     29541     29539     29549
     29541     29539     29553     29542     29544     29558     29542     29545     29546
     29542     29545     29547     29542     29545     29549     29543     29542     29544
     29543     29542     29545     29544     29542     29545     29544     29558     29559
     29544     29558     29562     29544     29558     29563     29545     29547     29548
     29545     29549     29550     29545     29549     29551     29546     29545     29547
     29546     29545     29549     29547     29545     29549     29549     29539     29553
     29549     29551     29552     29550     29549     29551     29553     29556     29557
     29554     29553     29555     29554     29553     29556     29555     29553     29556
     29558     29562     29560     29558     29563     29564     29558     29563     29565
     29558     29563     29566     29559     29558     29562     29559     29558     29563
     29560     29570     29566     29560     29570     29571     29560     29570     29572
     29560     29574     29575     29560     29574     29576     29560     29574     29577
     29561     29560     29562     29561     29560     29570     29561     29560     29574
     29562     29558     29563     29562     29560     29570     29562     29560     29574
     29563     29565     29578     29563     29566     29567     29563     29566     29568
     29563     29566     29570     29564     29563     29565     29564     29563     29566
     29565     29563     29566     29565     29578     29579     29565     29578     29582
     29565     29578     29583     29566     29568     29569     29566     29570     29571
     29566     29570     29572     29567     29566     29568     29567     29566     29570
     29568     29566     29570     29570     29560     29574     29570     29572     29573
     29571     29570     29572     29575     29574     29576     29575     29574     29577
     29576     29574     29577     29578     29582     29580     29578     29583     29584
     29578     29583     29585     29578     29583     29586     29579     29578     29582
     29579     29578     29583     29580     29589     29586     29580     29589     29590
     29580     29589     29591     29580     29593     29594     29580     29593     29595
     29580     29593     29596     29581     29580     29582     29581     29580     29589
     29581     29580     29593     29582     29578     29583     29582     29580     29589
     29582     29580     29593     29583     29585     29597     29583     29586     29587
     29583     29586     29588     29583     29586     29589     29584     29583     29585
     29584     29583     29586     29585     29583     29586     29585     29597     29598
     29585     29597     29601     29585     29597     29602     29586     29588     29625
     29586     29589     29590     29586     29589     29591     29587     29586     29588
     29587     29586     29589     29588     29586     29589     29588     29625     29626
     29588     29625     29629     29588     29625     29630     29589     29580     29593
     29589     29591     29592     29590     29589     29591     29594     29593     29595
     29594     29593     29596     29595     29593     29596     29597     29601     29599
     29597     29602     29603     29597     29602     29604     29597     29602     29612
     29598     29597     29601     29598     29597     29602     29599     29616     29612
     29599     29616     29617     29599     29616     29618     29599     29620     29621
     29599     29620     29622     29599     29620     29623     29600     29599     29601
     29600     29599     29616     29600     29599     29620     29601     29597     29602
     29601     29599     29616     29601     29599     29620     29602     29604     29605
     29602     29604     29606     29602     29612     29613     29602     29612     29614
     29602     29612     29616     29603     29602     29604     29603     29602     29612
     29604     29602     29612     29604     29606     29607     29604     29606     29608
     29605     29604     29606     29606     29608     29609     29606     29608     29610
     29606     29608     29611     29607     29606     29608     29609     29608     29610
     29609     29608     29611     29610     29608     29611     29612     29614     29615
     29612     29616     29617     29612     29616     29618     29613     29612     29614
     29613     29612     29616     29614     29612     29616     29616     29599     29620
     29616     29618     29619     29617     29616     29618     29620     29623     29624
     29621     29620     29622     29621     29620     29623     29622     29620     29623
     29625     29629     29627     29625     29630     29631     29625     29630     29632
     29625     29630     29640     29626     29625     29629     29626     29625     29630
     29627     29643     29640     29627     29643     29644     29627     29643     29645
     29627     29647     29648     29627     29647     29649     29627     29647     29650
     29628     29627     29629     29628     29627     29643     29628     29627     29647
     29629     29625     29630     29629     29627     29643     29629     29627     29647
     29630     29632     29633     29630     29632     29634     29630     29640     29641
     29630     29640     29642     29630     29640     29643     29631     29630     29632
     29631     29630     29640     29632     29630     29640     29632     29634     29635
     29632     29634     29636     29633     29632     29634     29634     29636     29637
     29634     29636     29638     29634     29636     29639     29635     29634     29636
     29637     29636     29638     29637     29636     29639     29638     29636     29639
     29640     29642     29652     29640     29643     29644     29640     29643     29645
     29641     29640     29642     29641     29640     29643     29642     29640     29643
     29642     29652     29653     29642     29652     29656     29642     29652     29657
     29643     29627     29647     29643     29645     29646     29644     29643     29645
     29647     29650     29651     29648     29647     29649     29648     29647     29650
     29649     29647     29650     29652     29656     29654     29652     29657     29658
     29652     29657     29659     29652     29657     29660     29653     29652     29656
     29653     29652     29657     29654     29664     29660     29654     29664     29665
     29654     29664     29666     29654     29668     29669     29654     29668     29670
     29654     29668     29671     29655     29654     29656     29655     29654     29664
     29655     29654     29668     29656     29652     29657     29656     29654     29664
     29656     29654     29668     29657     29659     29673     29657     29660     29661
     29657     29660     29662     29657     29660     29664     29658     29657     29659
     29658     29657     29660     29659     29657     29660     29659     29673     29674
     29659     29673     29677     29659     29673     29678     29660     29662     29663
     29660     29664     29665     29660     29664     29666     29661     29660     29662
     29661     29660     29664     29662     29660     29664     29664     29654     29668
     29664     29666     29667     29665     29664     29666     29668     29671     29672
     29669     29668     29670     29669     29668     29671     29670     29668     29671
     29673     29677     29675     29673     29678     29679     29673     29678     29680
     29673     29678     29681     29674     29673     29677     29674     29673     29678
     29675     29685     29681     29675     29685     29686     29675     29685     29687
     29675     29689     29690     29675     29689     29691     29675     29689     29692
     29676     29675     29677     29676     29675     29685     29676     29675     29689
     29677     29673     29678     29677     29675     29685     29677     29675     29689
     29678     29680     29693     29678     29681     29682     29678     29681     29683
     29678     29681     29685     29679     29678     29680     29679     29678     29681
     29680     29678     29681     29680     29693     29694     29680     29693     29697
     29680     29693     29698     29681     29683     29684     29681     29685     29686
     29681     29685     29687     29682     29681     29683     29682     29681     29685
     29683     29681     29685     29685     29675     29689     29685     29687     29688
     29686     29685     29687     29690     29689     29691     29690     29689     29692
     29691     29689     29692     29693     29697     29695     29693     29698     29699
     29693     29698     29700     29693     29698     29701     29694     29693     29697
     29694     29693     29698     29695     29704     29701     29695     29704     29705
     29695     29704     29706     29695     29708     29709     29695     29708     29710
     29695     29708     29711     29696     29695     29697     29696     29695     29704
     29696     29695     29708     29697     29693     29698     29697     29695     29704
     29697     29695     29708     29698     29700     29712     29698     29701     29702
     29698     29701     29703     29698     29701     29704     29699     29698     29700
     29699     29698     29701     29700     29698     29701     29700     29712     29713
     29700     29712     29716     29700     29712     29717     29701     29703     29740
     29701     29704     29705     29701     29704     29706     29702     29701     29703
     29702     29701     29704     29703     29701     29704     29703     29740     29741
     29703     29740     29744     29703     29740     29745     29704     29695     29708
     29704     29706     29707     29705     29704     29706     29709     29708     29710
     29709     29708     29711     29710     29708     29711     29712     29716     29714
     29712     29717     29718     29712     29717     29719     29712     29717     29727
     29713     29712     29716     29713     29712     29717     29714     29731     29727
     29714     29731     29732     29714     29731     29733     29714     29735     29736
     29714     29735     29737     29714     29735     29738     29715     29714     29716
     29715     29714     29731     29715     29714     29735     29716     29712     29717
     29716     29714     29731     29716     29714     29735     29717     29719     29720
     29717     29719     29721     29717     29727     29728     29717     29727     29729
     29717     29727     29731     29718     29717     29719     29718     29717     29727
     29719     29717     29727     29719     29721     29722     29719     29721     29723
     29720     29719     29721     29721     29723     29724     29721     29723     29725
     29721     29723     29726     29722     29721     29723     29724     29723     29725
     29724     29723     29726     29725     29723     29726     29727     29729     29730
     29727     29731     29732     29727     29731     29733     29728     29727     29729
     29728     29727     29731     29729     29727     29731     29731     29714     29735
     29731     29733     29734     29732     29731     29733     29735     29738     29739
     29736     29735     29737     29736     29735     29738     29737     29735     29738
     29740     29744     29742     29740     29745     29746     29740     29745     29747
     29740     29745     29755     29741     29740     29744     29741     29740     29745
     29742     29758     29755     29742     29758     29759     29742     29758     29760
     29742     29762     29763     29742     29762     29764     29742     29762     29765
     29743     29742     29744     29743     29742     29758     29743     29742     29762
     29744     29740     29745     29744     29742     29758     29744     29742     29762
     29745     29747     29748     29745     29747     29749     29745     29755     29756
     29745     29755     29757     29745     29755     29758     29746     29745     29747
     29746     29745     29755     29747     29745     29755     29747     29749     29750
     29747     29749     29751     29748     29747     29749     29749     29751     29752
     29749     29751     29753     29749     29751     29754     29750     29749     29751
     29752     29751     29753     29752     29751     29754     29753     29751     29754
     29755     29757     29767     29755     29758     29759     29755     29758     29760
     29756     29755     29757     29756     29755     29758     29757     29755     29758
     29757     29767     29768     29757     29767     29771     29757     29767     29772
     29758     29742     29762     29758     29760     29761     29759     29758     29760
     29762     29765     29766     29763     29762     29764     29763     29762     29765
     29764     29762     29765     29767     29771     29769     29767     29772     29773
     29767     29772     29774     29767     29772     29775     29768     29767     29771
     29768     29767     29772     29769     29779     29775     29769     29779     29780
     29769     29779     29781     29769     29783     29784     29769     29783     29785
     29769     29783     29786     29770     29769     29771     29770     29769     29779
     29770     29769     29783     29771     29767     29772     29771     29769     29779
     29771     29769     29783     29772     29774     29788     29772     29775     29776
     29772     29775     29777     29772     29775     29779     29773     29772     29774
     29773     29772     29775     29774     29772     29775     29774     29788     29789
     29774     29788     29792     29774     29788     29793     29775     29777     29778
     29775     29779     29780     29775     29779     29781     29776     29775     29777
     29776     29775     29779     29777     29775     29779     29779     29769     29783
     29779     29781     29782     29780     29779     29781     29783     29786     29787
     29784     29783     29785     29784     29783     29786     29785     29783     29786
     29788     29792     29790     29788     29793     29794     29788     29793     29795
     29788     29793     29796     29789     29788     29792     29789     29788     29793
     29790     29800     29796     29790     29800     29801     29790     29800     29802
     29790     29804     29805     29790     29804     29806     29790     29804     29807
     29791     29790     29792     29791     29790     29800     29791     29790     29804
     29792     29788     29793     29792     29790     29800     29792     29790     29804
     29793     29795     29808     29793     29796     29797     29793     29796     29798
     29793     29796     29800     29794     29793     29795     29794     29793     29796
     29795     29793     29796     29795     29808     29809     29795     29808     29812
     29795     29808     29813     29796     29798     29799     29796     29800     29801
     29796     29800     29802     29797     29796     29798     29797     29796     29800
     29798     29796     29800     29800     29790     29804     29800     29802     29803
     29801     29800     29802     29805     29804     29806     29805     29804     29807
     29806     29804     29807     29808     29812     29810     29808     29813     29814
     29808     29813     29815     29808     29813     29816     29809     29808     29812
     29809     29808     29813     29810     29819     29816     29810     29819     29820
     29810     29819     29821     29810     29823     29824     29810     29823     29825
     29810     29823     29826     29811     29810     29812     29811     29810     29819
     29811     29810     29823     29812     29808     29813     29812     29810     29819
     29812     29810     29823     29813     29815     29827     29813     29816     29817
     29813     29816     29818     29813     29816     29819     29814     29813     29815
     29814     29813     29816     29815     29813     29816     29815     29827     29828
     29815     29827     29831     29815     29827     29832     29816     29818     29855
     29816     29819     29820     29816     29819     29821     29817     29816     29818
     29817     29816     29819     29818     29816     29819     29818     29855     29856
     29818     29855     29859     29818     29855     29860     29819     29810     29823
     29819     29821     29822     29820     29819     29821     29824     29823     29825
     29824     29823     29826     29825     29823     29826     29827     29831     29829
     29827     29832     29833     29827     29832     29834     29827     29832     29842
     29828     29827     29831     29828     29827     29832     29829     29846     29842
     29829     29846     29847     29829     29846     29848     29829     29850     29851
     29829     29850     29852     29829     29850     29853     29830     29829     29831
     29830     29829     29846     29830     29829     29850     29831     29827     29832
     29831     29829     29846     29831     29829     29850     29832     29834     29835
     29832     29834     29836     29832     29842     29843     29832     29842     29844
     29832     29842     29846     29833     29832     29834     29833     29832     29842
     29834     29832     29842     29834     29836     29837     29834     29836     29838
     29835     29834     29836     29836     29838     29839     29836     29838     29840
     29836     29838     29841     29837     29836     29838     29839     29838     29840
     29839     29838     29841     29840     29838     29841     29842     29844     29845
     29842     29846     29847     29842     29846     29848     29843     29842     29844
     29843     29842     29846     29844     29842     29846     29846     29829     29850
     29846     29848     29849     29847     29846     29848     29850     29853     29854
     29851     29850     29852     29851     29850     29853     29852     29850     29853
     29855     29859     29857     29855     29860     29861     29855     29860     29862
     29855     29860     29870     29856     29855     29859     29856     29855     29860
     29857     29873     29870     29857     29873     29874     29857     29873     29875
     29857     29877     29878     29857     29877     29879     29857     29877     29880
     29858     29857     29859     29858     29857     29873     29858     29857     29877
     29859     29855     29860     29859     29857     29873     29859     29857     29877
     29860     29862     29863     29860     29862     29864     29860     29870     29871
     29860     29870     29872     29860     29870     29873     29861     29860     29862
     29861     29860     29870     29862     29860     29870     29862     29864     29865
     29862     29864     29866     29863     29862     29864     29864     29866     29867
     29864     29866     29868     29864     29866     29869     29865     29864     29866
     29867     29866     29868     29867     29866     29869     29868     29866     29869
     29870     29872     29882     29870     29873     29874     29870     29873     29875
     29871     29870     29872     29871     29870     29873     29872     29870     29873
     29872     29882     29883     29872     29882     29886     29872     29882     29887
     29873     29857     29877     29873     29875     29876     29874     29873     29875
     29877     29880     29881     29878     29877     29879     29878     29877     29880
     29879     29877     29880     29882     29886     29884     29882     29887     29888
     29882     29887     29889     29882     29887     29890     29883     29882     29886
     29883     29882     29887     29884     29894     29890     29884     29894     29895
     29884     29894     29896     29884     29898     29899     29884     29898     29900
     29884     29898     29901     29885     29884     29886     29885     29884     29894
     29885     29884     29898     29886     29882     29887     29886     29884     29894
     29886     29884     29898     29887     29889     29903     29887     29890     29891
     29887     29890     29892     29887     29890     29894     29888     29887     29889
     29888     29887     29890     29889     29887     29890     29889     29903     29904
     29889     29903     29907     29889     29903     29908     29890     29892     29893
     29890     29894     29895     29890     29894     29896     29891     29890     29892
     29891     29890     29894     29892     29890     29894     29894     29884     29898
     29894     29896     29897     29895     29894     29896     29898     29901     29902
     29899     29898     29900     29899     29898     29901     29900     29898     29901
     29903     29907     29905     29903     29908     29909     29903     29908     29910
     29903     29908     29911     29904     29903     29907     29904     29903     29908
     29905     29915     29911     29905     29915     29916     29905     29915     29917
     29905     29919     29920     29905     29919     29921     29905     29919     29922
     29906     29905     29907     29906     29905     29915     29906     29905     29919
     29907     29903     29908     29907     29905     29915     29907     29905     29919
     29908     29910     29923     29908     29911     29912     29908     29911     29913
     29908     29911     29915     29909     29908     29910     29909     29908     29911
     29910     29908     29911     29910     29923     29924     29910     29923     29927
     29910     29923     29928     29911     29913     29914     29911     29915     29916
     29911     29915     29917     29912     29911     29913     29912     29911     29915
     29913     29911     29915     29915     29905     29919     29915     29917     29918
     29916     29915     29917     29920     29919     29921     29920     29919     29922
     29921     29919     29922     29923     29927     29925     29923     29928     29929
     29923     29928     29930     29923     29928     29931     29924     29923     29927
     29924     29923     29928     29925     29935     29931     29925     29935     29936
     29925     29935     29937     29925     29939     29940     29925     29939     29941
     29925     29939     29942     29926     29925     29927     29926     29925     29935
     29926     29925     29939     29927     29923     29928     29927     29925     29935
     29927     29925     29939     29928     29930     29943     29928     29931     29932
     29928     29931     29933     29928     29931     29935     29929     29928     29930
     29929     29928     29931     29930     29928     29931     29930     29943     29944
     29930     29943     29947     29930     29943     29948     29931     29933     29934
     29931     29935     29936     29931     29935     29937     29932     29931     29933
     29932     29931     29935     29933     29931     29935     29935     29925     29939
     29935     29937     29938     29936     29935     29937     29940     29939     29941
     29940     29939     29942     29941     29939     29942     29943     29947     29945
     29943     29948     29949     29943     29948     29950     29943     29948     29958
     29944     29943     29947     29944     29943     29948     29945     29962     29958
     29945     29962     29963     29945     29962     29964     29945     29966     29967
     29945     29966     29968     29945     29966     29969     29946     29945     29947
     29946     29945     29962     29946     29945     29966     29947     29943     29948
     29947     29945     29962     29947     29945     29966     29948     29950     29951
     29948     29950     29952     29948     29958     29959     29948     29958     29960
     29948     29958     29962     29949     29948     29950     29949     29948     29958
     29950     29948     29958     29950     29952     29953     29950     29952     29954
     29951     29950     29952     29952     29954     29955     29952     29954     29956
     29952     29954     29957     29953     29952     29954     29955     29954     29956
     29955     29954     29957     29956     29954     29957     29958     29960     29961
     29958     29962     29963     29958     29962     29964     29959     29958     29960
     29959     29958     29962     29960     29958     29962     29962     29945     29966
     29962     29964     29965     29963     29962     29964     29966     29969     29970
     29967     29966     29968     29967     29966     29969     29968     29966     29969
     29971     29973     29972     29971     29973     29974     29971     29973     29975
     29972     29973     29974     29972     29973     29975     29972     30270     30267
     29972     30270     30273     29972     30270     30274     29973     29972     30270
     29973     29975     29976     29973     29975     29977     29973     29975     29984
     29974     29973     29975     29975     29976     29978     29975     29984     29985
     29975     29984     29986     29975     29984     29991     29976     29975     29977
     29976     29975     29984     29976     29978     29979     29976     29978     29980
     29976     29978     29999     29977     29975     29984     29978     29980     29981
     29978     29999     29991     29978     29999     30000     29978     29999     30001
     29979     29978     29980     29979     29978     29999     29980     29978     29999
     29980     29981     29982     29980     29981     29983     29980     29981     30007
     29981     30007     30003     29981     30007     30008     29981     30007     30009
     29982     29981     29983     29982     29981     30007     29983     29981     30007
     29984     29986     29987     29984     29991     29992     29984     29991     29993
     29984     29991     29999     29985     29984     29986     29985     29984     29991
     29986     29984     29991     29986     29987     29988     29986     29987     29989
     29986     29987     29990     29988     29987     29989     29988     29987     29990
     29989     29987     29990     29991     29992     29994     29991     29999     30000
     29991     29999     30001     29992     29991     29993     29992     29991     29999
     29992     29994     29995     29992     29994     29996     29993     29991     29999
     29994     29996     29997     29994     29996     29998     29994     29996     30029
     29995     29994     29996     29996     30029     30030     29996     30029     30031
     29996     30029     30074     29997     29996     29998     29997     29996     30029
     29998     29996     30029     29999     30001     30002     29999     30001     30108
     30000     29999     30001     30001     30108     30109     30001     30108     30110
     30002     30001     30108     30003     30005     30006     30003     30007     30008
     30003     30007     30009     30003     30017     30018     30003     30017     30019
     30003     30017     30025     30004     30003     30005     30004     30003     30007
     30004     30003     30017     30005     30003     30007     30005     30003     30017
     30007     30003     30017     30007     30009     30010     30008     30007     30009
     30009     30010     30011     30009     30010     30012     30009     30010     30025
     30010     30012     30016     30010     30025     30017     30010     30025     30026
     30010     30025     30027     30011     30010     30012     30011     30010     30025
     30012     30010     30025     30012     30016     30013     30012     30016     30014
     30012     30016     30015     30013     30016     30014     30013     30016     30015
     30014     30016     30015     30017     30019     30020     30017     30025     30026
     30017     30025     30027     30018     30017     30019     30018     30017     30025
     30019     30017     30025     30019     30020     30021     30019     30020     30022
     30020     30022     30023     30020     30022     30024     30020     30022     30186
     30021     30020     30022     30022     30186     30187     30022     30186     30188
     30022     30186     30190     30023     30022     30024     30023     30022     30186
     30024     30022     30186     30025     30027     30028     30025     30027     30224
     30026     30025     30027     30027     30224     30225     30027     30224     30226
     30028     30027     30224     30029     30031     30032     30029     30074     30075
     30029     30074     30076     30029     30074     30077     30030     30029     30031
     30030     30029     30074     30031     30029     30074     30031     30032     30033
     30031     30032     30034     30032     30034     30035     30032     30034     30036
     30032     30034     30037     30033     30032     30034     30034     30037     30038
     30034     30037     30039     30034     30037     30040     30035     30034     30036
     30035     30034     30037     30036     30034     30037     30037     30040     30041
     30037     30040     30042     30037     30040     30043     30038     30037     30039
     30038     30037     30040     30039     30037     30040     30040     30043     30044
     30040     30043     30045     30040     30043     30046     30041     30040     30042
     30041     30040     30043     30042     30040     30043     30043     30046     30047
     30043     30046     30048     30043     30046     30049     30044     30043     30045
     30044     30043     30046     30045     30043     30046     30046     30049     30050
     30046     30049     30051     30046     30049     30052     30047     30046     30048
     30047     30046     30049     30048     30046     30049     30049     30052     30053
     30049     30052     30054     30049     30052     30055     30050     30049     30051
     30050     30049     30052     30051     30049     30052     30052     30055     30056
     30052     30055     30057     30052     30055     30058     30053     30052     30054
     30053     30052     30055     30054     30052     30055     30055     30058     30059
     30055     30058     30060     30055     30058     30061     30056     30055     30057
     30056     30055     30058     30057     30055     30058     30058     30061     30062
     30058     30061     30063     30058     30061     30064     30059     30058     30060
     30059     30058     30061     30060     30058     30061     30061     30064     30065
     30061     30064     30066     30061     30064     30067     30062     30061     30063
     30062     30061     30064     30063     30061     30064     30064     30067     30068
     30064     30067     30069     30064     30067     30070     30065     30064     30066
     30065     30064     30067     30066     30064     30067     30067     30070     30071
     30067     30070     30072     30067     30070     30073     30068     30067     30069
     30068     30067     30070     30069     30067     30070     30071     30070     30072
     30071     30070     30073     30072     30070     30073     30074     30077     30078
     30074     30077     30079     30074     30077     30080     30075     30074     30076
     30075     30074     30077     30076     30074     30077     30077     30080     30081
     30077     30080     30082     30077     30080     30083     30078     30077     30079
     30078     30077     30080     30079     30077     30080     30080     30083     30084
     30080     30083     30085     30080     30083     30086     30081     30080     30082
     30081     30080     30083     30082     30080     30083     30083     30086     30087
     30083     30086     30088     30083     30086     30089     30084     30083     30085
     30084     30083     30086     30085     30083     30086     30086     30089     30090
     30086     30089     30091     30086     30089     30092     30087     30086     30088
     30087     30086     30089     30088     30086     30089     30089     30092     30093
     30089     30092     30094     30089     30092     30095     30090     30089     30091
     30090     30089     30092     30091     30089     30092     30092     30095     30096
     30092     30095     30097     30092     30095     30098     30093     30092     30094
     30093     30092     30095     30094     30092     30095     30095     30098     30099
     30095     30098     30100     30095     30098     30101     30096     30095     30097
     30096     30095     30098     30097     30095     30098     30098     30101     30102
     30098     30101     30103     30098     30101     30104     30099     30098     30100
     30099     30098     30101     30100     30098     30101     30101     30104     30105
     30101     30104     30106     30101     30104     30107     30102     30101     30103
     30102     30101     30104     30103     30101     30104     30105     30104     30106
     30105     30104     30107     30106     30104     30107     30108     30110     30111
     30108     30110     30112     30108     30110     30113     30109     30108     30110
     30110     30113     30114     30110     30113     30115     30110     30113     30152
     30111     30110     30112     30111     30110     30113     30112     30110     30113
     30113     30115     30116     30113     30152     30153     30113     30152     30154
     30113     30152     30155     30114     30113     30115     30114     30113     30152
     30115     30113     30152     30115     30116     30117     30115     30116     30118
     30116     30118     30119     30116     30118     30120     30116     30118     30121
     30117     30116     30118     30118     30121     30122     30118     30121     30123
     30118     30121     30124     30119     30118     30120     30119     30118     30121
     30120     30118     30121     30121     30124     30125     30121     30124     30126
     30121     30124     30127     30122     30121     30123     30122     30121     30124
     30123     30121     30124     30124     30127     30128     30124     30127     30129
     30124     30127     30130     30125     30124     30126     30125     30124     30127
     30126     30124     30127     30127     30130     30131     30127     30130     30132
     30127     30130     30133     30128     30127     30129     30128     30127     30130
     30129     30127     30130     30130     30133     30134     30130     30133     30135
     30130     30133     30136     30131     30130     30132     30131     30130     30133
     30132     30130     30133     30133     30136     30137     30133     30136     30138
     30133     30136     30139     30134     30133     30135     30134     30133     30136
     30135     30133     30136     30136     30139     30140     30136     30139     30141
     30136     30139     30142     30137     30136     30138     30137     30136     30139
     30138     30136     30139     30139     30142     30143     30139     30142     30144
     30139     30142     30145     30140     30139     30141     30140     30139     30142
     30141     30139     30142     30142     30145     30146     30142     30145     30147
     30142     30145     30148     30143     30142     30144     30143     30142     30145
     30144     30142     30145     30145     30148     30149     30145     30148     30150
     30145     30148     30151     30146     30145     30147     30146     30145     30148
     30147     30145     30148     30149     30148     30150     30149     30148     30151
     30150     30148     30151     30152     30155     30156     30152     30155     30157
     30152     30155     30158     30153     30152     30154     30153     30152     30155
     30154     30152     30155     30155     30158     30159     30155     30158     30160
     30155     30158     30161     30156     30155     30157     30156     30155     30158
     30157     30155     30158     30158     30161     30162     30158     30161     30163
     30158     30161     30164     30159     30158     30160     30159     30158     30161
     30160     30158     30161     30161     30164     30165     30161     30164     30166
     30161     30164     30167     30162     30161     30163     30162     30161     30164
     30163     30161     30164     30164     30167     30168     30164     30167     30169
     30164     30167     30170     30165     30164     30166     30165     30164     30167
     30166     30164     30167     30167     30170     30171     30167     30170     30172
     30167     30170     30173     30168     30167     30169     30168     30167     30170
     30169     30167     30170     30170     30173     30174     30170     30173     30175
     30170     30173     30176     30171     30170     30172     30171     30170     30173
     30172     30170     30173     30173     30176     30177     30173     30176     30178
     30173     30176     30179     30174     30173     30175     30174     30173     30176
     30175     30173     30176     30176     30179     30180     30176     30179     30181
     30176     30179     30182     30177     30176     30178     30177     30176     30179
     30178     30176     30179     30179     30182     30183     30179     30182     30184
     30179     30182     30185     30180     30179     30181     30180     30179     30182
     30181     30179     30182     30183     30182     30184     30183     30182     30185
     30184     30182     30185     30186     30188     30189     30186     30190     30191
     30186     30190     30192     30186     30190     30193     30187     30186     30188
     30187     30186     30190     30188     30186     30190     30190     30193     30194
     30190     30193     30195     30190     30193     30196     30191     30190     30192
     30191     30190     30193     30192     30190     30193     30193     30196     30197
     30193     30196     30198     30193     30196     30199     30194     30193     30195
     30194     30193     30196     30195     30193     30196     30196     30199     30200
     30196     30199     30201     30196     30199     30202     30197     30196     30198
     30197     30196     30199     30198     30196     30199     30199     30202     30203
     30199     30202     30204     30199     30202     30205     30200     30199     30201
     30200     30199     30202     30201     30199     30202     30202     30205     30206
     30202     30205     30207     30202     30205     30208     30203     30202     30204
     30203     30202     30205     30204     30202     30205     30205     30208     30209
     30205     30208     30210     30205     30208     30211     30206     30205     30207
     30206     30205     30208     30207     30205     30208     30208     30211     30212
     30208     30211     30213     30208     30211     30214     30209     30208     30210
     30209     30208     30211     30210     30208     30211     30211     30214     30215
     30211     30214     30216     30211     30214     30217     30212     30211     30213
     30212     30211     30214     30213     30211     30214     30214     30217     30218
     30214     30217     30219     30214     30217     30220     30215     30214     30216
     30215     30214     30217     30216     30214     30217     30217     30220     30221
     30217     30220     30222     30217     30220     30223     30218     30217     30219
     30218     30217     30220     30219     30217     30220     30221     30220     30222
     30221     30220     30223     30222     30220     30223     30224     30226     30227
     30224     30226     30228     30224     30226     30229     30225     30224     30226
     30226     30229     30230     30226     30229     30231     30226     30229     30233
     30227     30226     30228     30227     30226     30229     30228     30226     30229
     30229     30231     30232     30229     30233     30234     30229     30233     30235
     30229     30233     30236     30230     30229     30231     30230     30229     30233
     30231     30229     30233     30233     30236     30237     30233     30236     30238
     30233     30236     30239     30234     30233     30235     30234     30233     30236
     30235     30233     30236     30236     30239     30240     30236     30239     30241
     30236     30239     30242     30237     30236     30238     30237     30236     30239
     30238     30236     30239     30239     30242     30243     30239     30242     30244
     30239     30242     30245     30240     30239     30241     30240     30239     30242
     30241     30239     30242     30242     30245     30246     30242     30245     30247
     30242     30245     30248     30243     30242     30244     30243     30242     30245
     30244     30242     30245     30245     30248     30249     30245     30248     30250
     30245     30248     30251     30246     30245     30247     30246     30245     30248
     30247     30245     30248     30248     30251     30252     30248     30251     30253
     30248     30251     30254     30249     30248     30250     30249     30248     30251
     30250     30248     30251     30251     30254     30255     30251     30254     30256
     30251     30254     30257     30252     30251     30253     30252     30251     30254
     30253     30251     30254     30254     30257     30258     30254     30257     30259
     30254     30257     30260     30255     30254     30256     30255     30254     30257
     30256     30254     30257     30257     30260     30261     30257     30260     30262
     30257     30260     30263     30258     30257     30259     30258     30257     30260
     30259     30257     30260     30260     30263     30264     30260     30263     30265
     30260     30263     30266     30261     30260     30262     30261     30260     30263
     30262     30260     30263     30264     30263     30265     30264     30263     30266
     30265     30263     30266     30267     30270     30273     30267     30270     30274
     30268     30267     30269     30268     30267     30270     30269     30267     30270
     30270     30273     30271     30270     30274     30275     30270     30274     30276
     30270     30274     30277     30271     30280     30277     30271     30280     30281
     30271     30280     30282     30271     30283     30284     30271     30283     30285
     30271     30283     30287     30272     30271     30273     30272     30271     30280
     30272     30271     30283     30273     30270     30274     30273     30271     30280
     30273     30271     30283     30274     30277     30278     30274     30277     30279
     30274     30277     30280     30275     30274     30276     30275     30274     30277
     30276     30274     30277     30277     30279     30295     30277     30280     30281
     30277     30280     30282     30278     30277     30279     30278     30277     30280
     30279     30277     30280     30279     30295     30292     30279     30295     30298
     30279     30295     30299     30280     30271     30283     30280     30282     30319
     30281     30280     30282     30282     30319     30320     30282     30319     30323
     30282     30319     30324     30283     30285     30286     30283     30287     30288
     30283     30287     30289     30283     30287     30290     30284     30283     30285
     30284     30283     30287     30285     30283     30287     30287     30290     30291
     30288     30287     30289     30288     30287     30290     30289     30287     30290
     30292     30295     30298     30292     30295     30299     30293     30292     30294
     30293     30292     30295     30294     30292     30295     30295     30298     30296
     30295     30299     30300     30295     30299     30301     30295     30299     30302
     30296     30306     30302     30296     30306     30307     30296     30306     30308
     30296     30310     30311     30296     30310     30312     30296     30310     30314
     30297     30296     30298     30297     30296     30306     30297     30296     30310
     30298     30295     30299     30298     30296     30306     30298     30296     30310
     30299     30302     30303     30299     30302     30304     30299     30302     30306
     30300     30299     30301     30300     30299     30302     30301     30299     30302
     30302     30304     30305     30302     30306     30307     30302     30306     30308
     30303     30302     30304     30303     30302     30306     30304     30302     30306
     30306     30296     30310     30306     30308     30309     30307     30306     30308
     30310     30312     30313     30310     30314     30315     30310     30314     30316
     30310     30314     30317     30311     30310     30312     30311     30310     30314
     30312     30310     30314     30314     30317     30318     30315     30314     30316
     30315     30314     30317     30316     30314     30317     30319     30323     30321
     30319     30324     30325     30319     30324     30326     30319     30324     30328
     30320     30319     30323     30320     30319     30324     30321     30331     30328
     30321     30331     30332     30321     30331     30333     30321     30338     30339
     30321     30338     30340     30321     30338     30342     30322     30321     30323
     30322     30321     30331     30322     30321     30338     30323     30319     30324
     30323     30321     30331     30323     30321     30338     30324     30326     30327
     30324     30328     30329     30324     30328     30330     30324     30328     30331
     30325     30324     30326     30325     30324     30328     30326     30324     30328
     30328     30330     30347     30328     30331     30332     30328     30331     30333
     30329     30328     30330     30329     30328     30331     30330     30328     30331
     30330     30347     30348     30330     30347     30351     30330     30347     30352
     30331     30321     30338     30331     30333     30334     30332     30331     30333
     30333     30334     30335     30333     30334     30336     30333     30334     30337
     30335     30334     30336     30335     30334     30337     30336     30334     30337
     30338     30340     30341     30338     30342     30343     30338     30342     30344
     30338     30342     30345     30339     30338     30340     30339     30338     30342
     30340     30338     30342     30342     30345     30346     30343     30342     30344
     30343     30342     30345     30344     30342     30345     30347     30351     30349
     30347     30352     30353     30347     30352     30354     30347     30352     30356
     30348     30347     30351     30348     30347     30352     30349     30359     30356
     30349     30359     30360     30349     30359     30361     30349     30366     30367
     30349     30366     30368     30349     30366     30370     30350     30349     30351
     30350     30349     30359     30350     30349     30366     30351     30347     30352
     30351     30349     30359     30351     30349     30366     30352     30354     30355
     30352     30356     30357     30352     30356     30358     30352     30356     30359
     30353     30352     30354     30353     30352     30356     30354     30352     30356
     30356     30358     30400     30356     30359     30360     30356     30359     30361
     30357     30356     30358     30357     30356     30359     30358     30356     30359
     30358     30400     30401     30358     30400     30404     30358     30400     30405
     30359     30349     30366     30359     30361     30362     30360     30359     30361
     30361     30362     30363     30361     30362     30364     30361     30362     30365
     30363     30362     30364     30363     30362     30365     30364     30362     30365
     30366     30368     30369     30366     30370     30371     30366     30370     30372
     30366     30370     30373     30367     30366     30368     30367     30366     30370
     30368     30366     30370     30370     30373     30374     30371     30370     30372
     30371     30370     30373     30372     30370     30373     30373     30374     30375
     30373     30374     30378     30373     30374     30379     30374     30378     30376
     30374     30379     30380     30374     30379     30381     30374     30379     30383
     30375     30374     30378     30375     30374     30379     30376     30387     30383
     30376     30387     30388     30376     30387     30389     30376     30391     30392
     30376     30391     30393     30376     30391     30395     30377     30376     30378
     30377     30376     30387     30377     30376     30391     30378     30374     30379
     30378     30376     30387     30378     30376     30391     30379     30381     30382
     30379     30383     30384     30379     30383     30385     30379     30383     30387
     30380     30379     30381     30380     30379     30383     30381     30379     30383
     30383     30385     30386     30383     30387     30388     30383     30387     30389
     30384     30383     30385     30384     30383     30387     30385     30383     30387
     30387     30376     30391     30387     30389     30390     30388     30387     30389
     30391     30393     30394     30391     30395     30396     30391     30395     30397
     30391     30395     30398     30392     30391     30393     30392     30391     30395
     30393     30391     30395     30395     30398     30399     30396     30395     30397
     30396     30395     30398     30397     30395     30398     30400     30404     30402
     30400     30405     30406     30400     30405     30407     30400     30405     30409
     30401     30400     30404     30401     30400     30405     30402     30412     30409
     30402     30412     30413     30402     30412     30414     30402     30416     30417
     30402     30416     30418     30402     30416     30419     30403     30402     30404
     30403     30402     30412     30403     30402     30416     30404     30400     30405
     30404     30402     30412     30404     30402     30416     30405     30407     30408
     30405     30409     30410     30405     30409     30411     30405     30409     30412
     30406     30405     30407     30406     30405     30409     30407     30405     30409
     30409     30411     30421     30409     30412     30413     30409     30412     30414
     30410     30409     30411     30410     30409     30412     30411     30409     30412
     30411     30421     30422     30411     30421     30425     30411     30421     30426
     30412     30402     30416     30412     30414     30415     30413     30412     30414
     30416     30419     30420     30417     30416     30418     30417     30416     30419
     30418     30416     30419     30421     30425     30423     30421     30426     30427
     30421     30426     30428     30421     30426     30429     30422     30421     30425
     30422     30421     30426     30423     30432     30429     30423     30432     30433
     30423     30432     30434     30423     30436     30437     30423     30436     30438
     30423     30436     30439     30424     30423     30425     30424     30423     30432
     30424     30423     30436     30425     30421     30426     30425     30423     30432
     30425     30423     30436     30426     30428     30441     30426     30429     30430
     30426     30429     30431     30426     30429     30432     30427     30426     30428
     30427     30426     30429     30428     30426     30429     30428     30441     30442
     30428     30441     30445     30428     30441     30446     30429     30431     30484
     30429     30432     30433     30429     30432     30434     30430     30429     30431
     30430     30429     30432     30431     30429     30432     30431     30484     30485
     30431     30484     30488     30431     30484     30489     30432     30423     30436
     30432     30434     30435     30433     30432     30434     30436     30439     30440
     30437     30436     30438     30437     30436     30439     30438     30436     30439
     30441     30445     30443     30441     30446     30447     30441     30446     30448
     30441     30446     30449     30442     30441     30445     30442     30441     30446
     30443     30453     30449     30443     30453     30454     30443     30453     30455
     30443     30457     30458     30443     30457     30459     30443     30457     30460
     30444     30443     30445     30444     30443     30453     30444     30443     30457
     30445     30441     30446     30445     30443     30453     30445     30443     30457
     30446     30448     30462     30446     30449     30450     30446     30449     30451
     30446     30449     30453     30447     30446     30448     30447     30446     30449
     30448     30446     30449     30448     30462     30463     30448     30462     30466
     30448     30462     30467     30449     30451     30452     30449     30453     30454
     30449     30453     30455     30450     30449     30451     30450     30449     30453
     30451     30449     30453     30453     30443     30457     30453     30455     30456
     30454     30453     30455     30457     30460     30461     30458     30457     30459
     30458     30457     30460     30459     30457     30460     30462     30466     30464
     30462     30467     30468     30462     30467     30469     30462     30467     30471
     30463     30462     30466     30463     30462     30467     30464     30475     30471
     30464     30475     30476     30464     30475     30477     30464     30479     30480
     30464     30479     30481     30464     30479     30482     30465     30464     30466
     30465     30464     30475     30465     30464     30479     30466     30462     30467
     30466     30464     30475     30466     30464     30479     30467     30469     30470
     30467     30471     30472     30467     30471     30473     30467     30471     30475
     30468     30467     30469     30468     30467     30471     30469     30467     30471
     30471     30473     30474     30471     30475     30476     30471     30475     30477
     30472     30471     30473     30472     30471     30475     30473     30471     30475
     30475     30464     30479     30475     30477     30478     30476     30475     30477
     30479     30482     30483     30480     30479     30481     30480     30479     30482
     30481     30479     30482     30484     30488     30486     30484     30489     30490
     30484     30489     30491     30484     30489     30493     30485     30484     30488
     30485     30484     30489     30486     30496     30493     30486     30496     30497
     30486     30496     30498     30486     30500     30501     30486     30500     30502
     30486     30500     30503     30487     30486     30488     30487     30486     30496
     30487     30486     30500     30488     30484     30489     30488     30486     30496
     30488     30486     30500     30489     30491     30492     30489     30493     30494
     30489     30493     30495     30489     30493     30496     30490     30489     30491
     30490     30489     30493     30491     30489     30493     30493     30495     30505
     30493     30496     30497     30493     30496     30498     30494     30493     30495
     30494     30493     30496     30495     30493     30496     30495     30505     30506
     30495     30505     30509     30495     30505     30510     30496     30486     30500
     30496     30498     30499     30497     30496     30498     30500     30503     30504
     30501     30500     30502     30501     30500     30503     30502     30500     30503
     30505     30509     30507     30505     30510     30511     30505     30510     30512
     30505     30510     30520     30506     30505     30509     30506     30505     30510
     30507     30523     30520     30507     30523     30524     30507     30523     30525
     30507     30527     30528     30507     30527     30529     30507     30527     30530
     30508     30507     30509     30508     30507     30523     30508     30507     30527
     30509     30505     30510     30509     30507     30523     30509     30507     30527
     30510     30512     30513     30510     30512     30514     30510     30520     30521
     30510     30520     30522     30510     30520     30523     30511     30510     30512
     30511     30510     30520     30512     30510     30520     30512     30514     30515
     30512     30514     30516     30513     30512     30514     30514     30516     30517
     30514     30516     30518     30514     30516     30519     30515     30514     30516
     30517     30516     30518     30517     30516     30519     30518     30516     30519
     30520     30522     30532     30520     30523     30524     30520     30523     30525
     30521     30520     30522     30521     30520     30523     30522     30520     30523
     30522     30532     30533     30522     30532     30536     30522     30532     30537
     30523     30507     30527     30523     30525     30526     30524     30523     30525
     30527     30530     30531     30528     30527     30529     30528     30527     30530
     30529     30527     30530     30532     30536     30534     30532     30537     30538
     30532     30537     30539     30532     30537     30540     30533     30532     30536
     30533     30532     30537     30534     30544     30540     30534     30544     30545
     30534     30544     30546     30534     30548     30549     30534     30548     30550
     30534     30548     30551     30535     30534     30536     30535     30534     30544
     30535     30534     30548     30536     30532     30537     30536     30534     30544
     30536     30534     30548     30537     30539     30553     30537     30540     30541
     30537     30540     30542     30537     30540     30544     30538     30537     30539
     30538     30537     30540     30539     30537     30540     30539     30553     30554
     30539     30553     30557     30539     30553     30558     30540     30542     30543
     30540     30544     30545     30540     30544     30546     30541     30540     30542
     30541     30540     30544     30542     30540     30544     30544     30534     30548
     30544     30546     30547     30545     30544     30546     30548     30551     30552
     30549     30548     30550     30549     30548     30551     30550     30548     30551
     30553     30557     30555     30553     30558     30559     30553     30558     30560
     30553     30558     30561     30554     30553     30557     30554     30553     30558
     30555     30565     30561     30555     30565     30566     30555     30565     30567
     30555     30569     30570     30555     30569     30571     30555     30569     30572
     30556     30555     30557     30556     30555     30565     30556     30555     30569
     30557     30553     30558     30557     30555     30565     30557     30555     30569
     30558     30560     30573     30558     30561     30562     30558     30561     30563
     30558     30561     30565     30559     30558     30560     30559     30558     30561
     30560     30558     30561     30560     30573     30574     30560     30573     30577
     30560     30573     30578     30561     30563     30564     30561     30565     30566
     30561     30565     30567     30562     30561     30563     30562     30561     30565
     30563     30561     30565     30565     30555     30569     30565     30567     30568
     30566     30565     30567     30570     30569     30571     30570     30569     30572
     30571     30569     30572     30573     30577     30575     30573     30578     30579
     30573     30578     30580     30573     30578     30581     30574     30573     30577
     30574     30573     30578     30575     30584     30581     30575     30584     30585
     30575     30584     30586     30575     30588     30589     30575     30588     30590
     30575     30588     30591     30576     30575     30577     30576     30575     30584
     30576     30575     30588     30577     30573     30578     30577     30575     30584
     30577     30575     30588     30578     30580     30592     30578     30581     30582
     30578     30581     30583     30578     30581     30584     30579     30578     30580
     30579     30578     30581     30580     30578     30581     30580     30592     30593
     30580     30592     30596     30580     30592     30597     30581     30583     30620
     30581     30584     30585     30581     30584     30586     30582     30581     30583
     30582     30581     30584     30583     30581     30584     30583     30620     30621
     30583     30620     30624     30583     30620     30625     30584     30575     30588
     30584     30586     30587     30585     30584     30586     30589     30588     30590
     30589     30588     30591     30590     30588     30591     30592     30596     30594
     30592     30597     30598     30592     30597     30599     30592     30597     30607
     30593     30592     30596     30593     30592     30597     30594     30611     30607
     30594     30611     30612     30594     30611     30613     30594     30615     30616
     30594     30615     30617     30594     30615     30618     30595     30594     30596
     30595     30594     30611     30595     30594     30615     30596     30592     30597
     30596     30594     30611     30596     30594     30615     30597     30599     30600
     30597     30599     30601     30597     30607     30608     30597     30607     30609
     30597     30607     30611     30598     30597     30599     30598     30597     30607
     30599     30597     30607     30599     30601     30602     30599     30601     30603
     30600     30599     30601     30601     30603     30604     30601     30603     30605
     30601     30603     30606     30602     30601     30603     30604     30603     30605
     30604     30603     30606     30605     30603     30606     30607     30609     30610
     30607     30611     30612     30607     30611     30613     30608     30607     30609
     30608     30607     30611     30609     30607     30611     30611     30594     30615
     30611     30613     30614     30612     30611     30613     30615     30618     30619
     30616     30615     30617     30616     30615     30618     30617     30615     30618
     30620     30624     30622     30620     30625     30626     30620     30625     30627
     30620     30625     30635     30621     30620     30624     30621     30620     30625
     30622     30638     30635     30622     30638     30639     30622     30638     30640
     30622     30642     30643     30622     30642     30644     30622     30642     30645
     30623     30622     30624     30623     30622     30638     30623     30622     30642
     30624     30620     30625     30624     30622     30638     30624     30622     30642
     30625     30627     30628     30625     30627     30629     30625     30635     30636
     30625     30635     30637     30625     30635     30638     30626     30625     30627
     30626     30625     30635     30627     30625     30635     30627     30629     30630
     30627     30629     30631     30628     30627     30629     30629     30631     30632
     30629     30631     30633     30629     30631     30634     30630     30629     30631
     30632     30631     30633     30632     30631     30634     30633     30631     30634
     30635     30637     30647     30635     30638     30639     30635     30638     30640
     30636     30635     30637     30636     30635     30638     30637     30635     30638
     30637     30647     30648     30637     30647     30651     30637     30647     30652
     30638     30622     30642     30638     30640     30641     30639     30638     30640
     30642     30645     30646     30643     30642     30644     30643     30642     30645
     30644     30642     30645     30647     30651     30649     30647     30652     30653
     30647     30652     30654     30647     30652     30655     30648     30647     30651
     30648     30647     30652     30649     30659     30655     30649     30659     30660
     30649     30659     30661     30649     30663     30664     30649     30663     30665
     30649     30663     30666     30650     30649     30651     30650     30649     30659
     30650     30649     30663     30651     30647     30652     30651     30649     30659
     30651     30649     30663     30652     30654     30668     30652     30655     30656
     30652     30655     30657     30652     30655     30659     30653     30652     30654
     30653     30652     30655     30654     30652     30655     30654     30668     30669
     30654     30668     30672     30654     30668     30673     30655     30657     30658
     30655     30659     30660     30655     30659     30661     30656     30655     30657
     30656     30655     30659     30657     30655     30659     30659     30649     30663
     30659     30661     30662     30660     30659     30661     30663     30666     30667
     30664     30663     30665     30664     30663     30666     30665     30663     30666
     30668     30672     30670     30668     30673     30674     30668     30673     30675
     30668     30673     30676     30669     30668     30672     30669     30668     30673
     30670     30680     30676     30670     30680     30681     30670     30680     30682
     30670     30684     30685     30670     30684     30686     30670     30684     30687
     30671     30670     30672     30671     30670     30680     30671     30670     30684
     30672     30668     30673     30672     30670     30680     30672     30670     30684
     30673     30675     30688     30673     30676     30677     30673     30676     30678
     30673     30676     30680     30674     30673     30675     30674     30673     30676
     30675     30673     30676     30675     30688     30689     30675     30688     30692
     30675     30688     30693     30676     30678     30679     30676     30680     30681
     30676     30680     30682     30677     30676     30678     30677     30676     30680
     30678     30676     30680     30680     30670     30684     30680     30682     30683
     30681     30680     30682     30685     30684     30686     30685     30684     30687
     30686     30684     30687     30688     30692     30690     30688     30693     30694
     30688     30693     30695     30688     30693     30696     30689     30688     30692
     30689     30688     30693     30690     30699     30696     30690     30699     30700
     30690     30699     30701     30690     30703     30704     30690     30703     30705
     30690     30703     30706     30691     30690     30692     30691     30690     30699
     30691     30690     30703     30692     30688     30693     30692     30690     30699
     30692     30690     30703     30693     30695     30707     30693     30696     30697
     30693     30696     30698     30693     30696     30699     30694     30693     30695
     30694     30693     30696     30695     30693     30696     30695     30707     30708
     30695     30707     30711     30695     30707     30712     30696     30698     30735
     30696     30699     30700     30696     30699     30701     30697     30696     30698
     30697     30696     30699     30698     30696     30699     30698     30735     30736
     30698     30735     30739     30698     30735     30740     30699     30690     30703
     30699     30701     30702     30700     30699     30701     30704     30703     30705
     30704     30703     30706     30705     30703     30706     30707     30711     30709
     30707     30712     30713     30707     30712     30714     30707     30712     30722
     30708     30707     30711     30708     30707     30712     30709     30726     30722
     30709     30726     30727     30709     30726     30728     30709     30730     30731
     30709     30730     30732     30709     30730     30733     30710     30709     30711
     30710     30709     30726     30710     30709     30730     30711     30707     30712
     30711     30709     30726     30711     30709     30730     30712     30714     30715
     30712     30714     30716     30712     30722     30723     30712     30722     30724
     30712     30722     30726     30713     30712     30714     30713     30712     30722
     30714     30712     30722     30714     30716     30717     30714     30716     30718
     30715     30714     30716     30716     30718     30719     30716     30718     30720
     30716     30718     30721     30717     30716     30718     30719     30718     30720
     30719     30718     30721     30720     30718     30721     30722     30724     30725
     30722     30726     30727     30722     30726     30728     30723     30722     30724
     30723     30722     30726     30724     30722     30726     30726     30709     30730
     30726     30728     30729     30727     30726     30728     30730     30733     30734
     30731     30730     30732     30731     30730     30733     30732     30730     30733
     30735     30739     30737     30735     30740     30741     30735     30740     30742
     30735     30740     30750     30736     30735     30739     30736     30735     30740
     30737     30753     30750     30737     30753     30754     30737     30753     30755
     30737     30757     30758     30737     30757     30759     30737     30757     30760
     30738     30737     30739     30738     30737     30753     30738     30737     30757
     30739     30735     30740     30739     30737     30753     30739     30737     30757
     30740     30742     30743     30740     30742     30744     30740     30750     30751
     30740     30750     30752     30740     30750     30753     30741     30740     30742
     30741     30740     30750     30742     30740     30750     30742     30744     30745
     30742     30744     30746     30743     30742     30744     30744     30746     30747
     30744     30746     30748     30744     30746     30749     30745     30744     30746
     30747     30746     30748     30747     30746     30749     30748     30746     30749
     30750     30752     30762     30750     30753     30754     30750     30753     30755
     30751     30750     30752     30751     30750     30753     30752     30750     30753
     30752     30762     30763     30752     30762     30766     30752     30762     30767
     30753     30737     30757     30753     30755     30756     30754     30753     30755
     30757     30760     30761     30758     30757     30759     30758     30757     30760
     30759     30757     30760     30762     30766     30764     30762     30767     30768
     30762     30767     30769     30762     30767     30770     30763     30762     30766
     30763     30762     30767     30764     30774     30770     30764     30774     30775
     30764     30774     30776     30764     30778     30779     30764     30778     30780
     30764     30778     30781     30765     30764     30766     30765     30764     30774
     30765     30764     30778     30766     30762     30767     30766     30764     30774
     30766     30764     30778     30767     30769     30783     30767     30770     30771
     30767     30770     30772     30767     30770     30774     30768     30767     30769
     30768     30767     30770     30769     30767     30770     30769     30783     30784
     30769     30783     30787     30769     30783     30788     30770     30772     30773
     30770     30774     30775     30770     30774     30776     30771     30770     30772
     30771     30770     30774     30772     30770     30774     30774     30764     30778
     30774     30776     30777     30775     30774     30776     30778     30781     30782
     30779     30778     30780     30779     30778     30781     30780     30778     30781
     30783     30787     30785     30783     30788     30789     30783     30788     30790
     30783     30788     30791     30784     30783     30787     30784     30783     30788
     30785     30795     30791     30785     30795     30796     30785     30795     30797
     30785     30799     30800     30785     30799     30801     30785     30799     30802
     30786     30785     30787     30786     30785     30795     30786     30785     30799
     30787     30783     30788     30787     30785     30795     30787     30785     30799
     30788     30790     30803     30788     30791     30792     30788     30791     30793
     30788     30791     30795     30789     30788     30790     30789     30788     30791
     30790     30788     30791     30790     30803     30804     30790     30803     30807
     30790     30803     30808     30791     30793     30794     30791     30795     30796
     30791     30795     30797     30792     30791     30793     30792     30791     30795
     30793     30791     30795     30795     30785     30799     30795     30797     30798
     30796     30795     30797     30800     30799     30801     30800     30799     30802
     30801     30799     30802     30803     30807     30805     30803     30808     30809
     30803     30808     30810     30803     30808     30811     30804     30803     30807
     30804     30803     30808     30805     30814     30811     30805     30814     30815
     30805     30814     30816     30805     30818     30819     30805     30818     30820
     30805     30818     30821     30806     30805     30807     30806     30805     30814
     30806     30805     30818     30807     30803     30808     30807     30805     30814
     30807     30805     30818     30808     30810     30822     30808     30811     30812
     30808     30811     30813     30808     30811     30814     30809     30808     30810
     30809     30808     30811     30810     30808     30811     30810     30822     30823
     30810     30822     30826     30810     30822     30827     30811     30813     30850
     30811     30814     30815     30811     30814     30816     30812     30811     30813
     30812     30811     30814     30813     30811     30814     30813     30850     30851
     30813     30850     30854     30813     30850     30855     30814     30805     30818
     30814     30816     30817     30815     30814     30816     30819     30818     30820
     30819     30818     30821     30820     30818     30821     30822     30826     30824
     30822     30827     30828     30822     30827     30829     30822     30827     30837
     30823     30822     30826     30823     30822     30827     30824     30841     30837
     30824     30841     30842     30824     30841     30843     30824     30845     30846
     30824     30845     30847     30824     30845     30848     30825     30824     30826
     30825     30824     30841     30825     30824     30845     30826     30822     30827
     30826     30824     30841     30826     30824     30845     30827     30829     30830
     30827     30829     30831     30827     30837     30838     30827     30837     30839
     30827     30837     30841     30828     30827     30829     30828     30827     30837
     30829     30827     30837     30829     30831     30832     30829     30831     30833
     30830     30829     30831     30831     30833     30834     30831     30833     30835
     30831     30833     30836     30832     30831     30833     30834     30833     30835
     30834     30833     30836     30835     30833     30836     30837     30839     30840
     30837     30841     30842     30837     30841     30843     30838     30837     30839
     30838     30837     30841     30839     30837     30841     30841     30824     30845
     30841     30843     30844     30842     30841     30843     30845     30848     30849
     30846     30845     30847     30846     30845     30848     30847     30845     30848
     30850     30854     30852     30850     30855     30856     30850     30855     30857
     30850     30855     30865     30851     30850     30854     30851     30850     30855
     30852     30868     30865     30852     30868     30869     30852     30868     30870
     30852     30872     30873     30852     30872     30874     30852     30872     30875
     30853     30852     30854     30853     30852     30868     30853     30852     30872
     30854     30850     30855     30854     30852     30868     30854     30852     30872
     30855     30857     30858     30855     30857     30859     30855     30865     30866
     30855     30865     30867     30855     30865     30868     30856     30855     30857
     30856     30855     30865     30857     30855     30865     30857     30859     30860
     30857     30859     30861     30858     30857     30859     30859     30861     30862
     30859     30861     30863     30859     30861     30864     30860     30859     30861
     30862     30861     30863     30862     30861     30864     30863     30861     30864
     30865     30867     30877     30865     30868     30869     30865     30868     30870
     30866     30865     30867     30866     30865     30868     30867     30865     30868
     30867     30877     30878     30867     30877     30881     30867     30877     30882
     30868     30852     30872     30868     30870     30871     30869     30868     30870
     30872     30875     30876     30873     30872     30874     30873     30872     30875
     30874     30872     30875     30877     30881     30879     30877     30882     30883
     30877     30882     30884     30877     30882     30885     30878     30877     30881
     30878     30877     30882     30879     30889     30885     30879     30889     30890
     30879     30889     30891     30879     30893     30894     30879     30893     30895
     30879     30893     30896     30880     30879     30881     30880     30879     30889
     30880     30879     30893     30881     30877     30882     30881     30879     30889
     30881     30879     30893     30882     30884     30898     30882     30885     30886
     30882     30885     30887     30882     30885     30889     30883     30882     30884
     30883     30882     30885     30884     30882     30885     30884     30898     30899
     30884     30898     30902     30884     30898     30903     30885     30887     30888
     30885     30889     30890     30885     30889     30891     30886     30885     30887
     30886     30885     30889     30887     30885     30889     30889     30879     30893
     30889     30891     30892     30890     30889     30891     30893     30896     30897
     30894     30893     30895     30894     30893     30896     30895     30893     30896
     30898     30902     30900     30898     30903     30904     30898     30903     30905
     30898     30903     30906     30899     30898     30902     30899     30898     30903
     30900     30910     30906     30900     30910     30911     30900     30910     30912
     30900     30914     30915     30900     30914     30916     30900     30914     30917
     30901     30900     30902     30901     30900     30910     30901     30900     30914
     30902     30898     30903     30902     30900     30910     30902     30900     30914
     30903     30905     30918     30903     30906     30907     30903     30906     30908
     30903     30906     30910     30904     30903     30905     30904     30903     30906
     30905     30903     30906     30905     30918     30919     30905     30918     30922
     30905     30918     30923     30906     30908     30909     30906     30910     30911
     30906     30910     30912     30907     30906     30908     30907     30906     30910
     30908     30906     30910     30910     30900     30914     30910     30912     30913
     30911     30910     30912     30915     30914     30916     30915     30914     30917
     30916     30914     30917     30918     30922     30920     30918     30923     30924
     30918     30923     30925     30918     30923     30926     30919     30918     30922
     30919     30918     30923     30920     30929     30926     30920     30929     30930
     30920     30929     30931     30920     30933     30934     30920     30933     30935
     30920     30933     30936     30921     30920     30922     30921     30920     30929
     30921     30920     30933     30922     30918     30923     30922     30920     30929
     30922     30920     30933     30923     30925     30937     30923     30926     30927
     30923     30926     30928     30923     30926     30929     30924     30923     30925
     30924     30923     30926     30925     30923     30926     30925     30937     30938
     30925     30937     30941     30925     30937     30942     30926     30928     30965
     30926     30929     30930     30926     30929     30931     30927     30926     30928
     30927     30926     30929     30928     30926     30929     30928     30965     30966
     30928     30965     30969     30928     30965     30970     30929     30920     30933
     30929     30931     30932     30930     30929     30931     30934     30933     30935
     30934     30933     30936     30935     30933     30936     30937     30941     30939
     30937     30942     30943     30937     30942     30944     30937     30942     30952
     30938     30937     30941     30938     30937     30942     30939     30956     30952
     30939     30956     30957     30939     30956     30958     30939     30960     30961
     30939     30960     30962     30939     30960     30963     30940     30939     30941
     30940     30939     30956     30940     30939     30960     30941     30937     30942
     30941     30939     30956     30941     30939     30960     30942     30944     30945
     30942     30944     30946     30942     30952     30953     30942     30952     30954
     30942     30952     30956     30943     30942     30944     30943     30942     30952
     30944     30942     30952     30944     30946     30947     30944     30946     30948
     30945     30944     30946     30946     30948     30949     30946     30948     30950
     30946     30948     30951     30947     30946     30948     30949     30948     30950
     30949     30948     30951     30950     30948     30951     30952     30954     30955
     30952     30956     30957     30952     30956     30958     30953     30952     30954
     30953     30952     30956     30954     30952     30956     30956     30939     30960
     30956     30958     30959     30957     30956     30958     30960     30963     30964
     30961     30960     30962     30961     30960     30963     30962     30960     30963
     30965     30969     30967     30965     30970     30971     30965     30970     30972
     30965     30970     30980     30966     30965     30969     30966     30965     30970
     30967     30983     30980     30967     30983     30984     30967     30983     30985
     30967     30987     30988     30967     30987     30989     30967     30987     30990
     30968     30967     30969     30968     30967     30983     30968     30967     30987
     30969     30965     30970     30969     30967     30983     30969     30967     30987
     30970     30972     30973     30970     30972     30974     30970     30980     30981
     30970     30980     30982     30970     30980     30983     30971     30970     30972
     30971     30970     30980     30972     30970     30980     30972     30974     30975
     30972     30974     30976     30973     30972     30974     30974     30976     30977
     30974     30976     30978     30974     30976     30979     30975     30974     30976
     30977     30976     30978     30977     30976     30979     30978     30976     30979
     30980     30982     30992     30980     30983     30984     30980     30983     30985
     30981     30980     30982     30981     30980     30983     30982     30980     30983
     30982     30992     30993     30982     30992     30996     30982     30992     30997
     30983     30967     30987     30983     30985     30986     30984     30983     30985
     30987     30990     30991     30988     30987     30989     30988     30987     30990
     30989     30987     30990     30992     30996     30994     30992     30997     30998
     30992     30997     30999     30992     30997     31000     30993     30992     30996
     30993     30992     30997     30994     31004     31000     30994     31004     31005
     30994     31004     31006     30994     31008     31009     30994     31008     31010
     30994     31008     31011     30995     30994     30996     30995     30994     31004
     30995     30994     31008     30996     30992     30997     30996     30994     31004
     30996     30994     31008     30997     30999     31013     30997     31000     31001
     30997     31000     31002     30997     31000     31004     30998     30997     30999
     30998     30997     31000     30999     30997     31000     30999     31013     31014
     30999     31013     31017     30999     31013     31018     31000     31002     31003
     31000     31004     31005     31000     31004     31006     31001     31000     31002
     31001     31000     31004     31002     31000     31004     31004     30994     31008
     31004     31006     31007     31005     31004     31006     31008     31011     31012
     31009     31008     31010     31009     31008     31011     31010     31008     31011
     31013     31017     31015     31013     31018     31019     31013     31018     31020
     31013     31018     31021     31014     31013     31017     31014     31013     31018
     31015     31025     31021     31015     31025     31026     31015     31025     31027
     31015     31029     31030     31015     31029     31031     31015     31029     31032
     31016     31015     31017     31016     31015     31025     31016     31015     31029
     31017     31013     31018     31017     31015     31025     31017     31015     31029
     31018     31020     31033     31018     31021     31022     31018     31021     31023
     31018     31021     31025     31019     31018     31020     31019     31018     31021
     31020     31018     31021     31020     31033     31034     31020     31033     31037
     31020     31033     31038     31021     31023     31024     31021     31025     31026
     31021     31025     31027     31022     31021     31023     31022     31021     31025
     31023     31021     31025     31025     31015     31029     31025     31027     31028
     31026     31025     31027     31030     31029     31031     31030     31029     31032
     31031     31029     31032     31033     31037     31035     31033     31038     31039
     31033     31038     31040     31033     31038     31041     31034     31033     31037
     31034     31033     31038     31035     31045     31041     31035     31045     31046
     31035     31045     31047     31035     31049     31050     31035     31049     31051
     31035     31049     31052     31036     31035     31037     31036     31035     31045
     31036     31035     31049     31037     31033     31038     31037     31035     31045
     31037     31035     31049     31038     31040     31053     31038     31041     31042
     31038     31041     31043     31038     31041     31045     31039     31038     31040
     31039     31038     31041     31040     31038     31041     31040     31053     31054
     31040     31053     31057     31040     31053     31058     31041     31043     31044
     31041     31045     31046     31041     31045     31047     31042     31041     31043
     31042     31041     31045     31043     31041     31045     31045     31035     31049
     31045     31047     31048     31046     31045     31047     31050     31049     31051
     31050     31049     31052     31051     31049     31052     31053     31057     31055
     31053     31058     31059     31053     31058     31060     31053     31058     31068
     31054     31053     31057     31054     31053     31058     31055     31072     31068
     31055     31072     31073     31055     31072     31074     31055     31076     31077
     31055     31076     31078     31055     31076     31079     31056     31055     31057
     31056     31055     31072     31056     31055     31076     31057     31053     31058
     31057     31055     31072     31057     31055     31076     31058     31060     31061
     31058     31060     31062     31058     31068     31069     31058     31068     31070
     31058     31068     31072     31059     31058     31060     31059     31058     31068
     31060     31058     31068     31060     31062     31063     31060     31062     31064
     31061     31060     31062     31062     31064     31065     31062     31064     31066
     31062     31064     31067     31063     31062     31064     31065     31064     31066
     31065     31064     31067     31066     31064     31067     31068     31070     31071
     31068     31072     31073     31068     31072     31074     31069     31068     31070
     31069     31068     31072     31070     31068     31072     31072     31055     31076
     31072     31074     31075     31073     31072     31074     31076     31079     31080
     31077     31076     31078     31077     31076     31079     31078     31076     31079
     31081     31083     31082     31081     31083     31084     31081     31083     31085
     31082     31083     31084     31082     31083     31085     31082     31380     31377
     31082     31380     31383     31082     31380     31384     31083     31082     31380
     31083     31085     31086     31083     31085     31087     31083     31085     31094
     31084     31083     31085     31085     31086     31088     31085     31094     31095
     31085     31094     31096     31085     31094     31101     31086     31085     31087
     31086     31085     31094     31086     31088     31089     31086     31088     31090
     31086     31088     31109     31087     31085     31094     31088     31090     31091
     31088     31109     31101     31088     31109     31110     31088     31109     31111
     31089     31088     31090     31089     31088     31109     31090     31088     31109
     31090     31091     31092     31090     31091     31093     31090     31091     31117
     31091     31117     31113     31091     31117     31118     31091     31117     31119
     31092     31091     31093     31092     31091     31117     31093     31091     31117
     31094     31096     31097     31094     31101     31102     31094     31101     31103
     31094     31101     31109     31095     31094     31096     31095     31094     31101
     31096     31094     31101     31096     31097     31098     31096     31097     31099
     31096     31097     31100     31098     31097     31099     31098     31097     31100
     31099     31097     31100     31101     31102     31104     31101     31109     31110
     31101     31109     31111     31102     31101     31103     31102     31101     31109
     31102     31104     31105     31102     31104     31106     31103     31101     31109
     31104     31106     31107     31104     31106     31108     31104     31106     31139
     31105     31104     31106     31106     31139     31140     31106     31139     31141
     31106     31139     31184     31107     31106     31108     31107     31106     31139
     31108     31106     31139     31109     31111     31112     31109     31111     31218
     31110     31109     31111     31111     31218     31219     31111     31218     31220
     31112     31111     31218     31113     31115     31116     31113     31117     31118
     31113     31117     31119     31113     31127     31128     31113     31127     31129
     31113     31127     31135     31114     31113     31115     31114     31113     31117
     31114     31113     31127     31115     31113     31117     31115     31113     31127
     31117     31113     31127     31117     31119     31120     31118     31117     31119
     31119     31120     31121     31119     31120     31122     31119     31120     31135
     31120     31122     31126     31120     31135     31127     31120     31135     31136
     31120     31135     31137     31121     31120     31122     31121     31120     31135
     31122     31120     31135     31122     31126     31123     31122     31126     31124
     31122     31126     31125     31123     31126     31124     31123     31126     31125
     31124     31126     31125     31127     31129     31130     31127     31135     31136
     31127     31135     31137     31128     31127     31129     31128     31127     31135
     31129     31127     31135     31129     31130     31131     31129     31130     31132
     31130     31132     31133     31130     31132     31134     31130     31132     31296
     31131     31130     31132     31132     31296     31297     31132     31296     31298
     31132     31296     31300     31133     31132     31134     31133     31132     31296
     31134     31132     31296     31135     31137     31138     31135     31137     31334
     31136     31135     31137     31137     31334     31335     31137     31334     31336
     31138     31137     31334     31139     31141     31142     31139     31184     31185
     31139     31184     31186     31139     31184     31187     31140     31139     31141
     31140     31139     31184     31141     31139     31184     31141     31142     31143
     31141     31142     31144     31142     31144     31145     31142     31144     31146
     31142     31144     31147     31143     31142     31144     31144     31147     31148
     31144     31147     31149     31144     31147     31150     31145     31144     31146
     31145     31144     31147     31146     31144     31147     31147     31150     31151
     31147     31150     31152     31147     31150     31153     31148     31147     31149
     31148     31147     31150     31149     31147     31150     31150     31153     31154
     31150     31153     31155     31150     31153     31156     31151     31150     31152
     31151     31150     31153     31152     31150     31153     31153     31156     31157
     31153     31156     31158     31153     31156     31159     31154     31153     31155
     31154     31153     31156     31155     31153     31156     31156     31159     31160
     31156     31159     31161     31156     31159     31162     31157     31156     31158
     31157     31156     31159     31158     31156     31159     31159     31162     31163
     31159     31162     31164     31159     31162     31165     31160     31159     31161
     31160     31159     31162     31161     31159     31162     31162     31165     31166
     31162     31165     31167     31162     31165     31168     31163     31162     31164
     31163     31162     31165     31164     31162     31165     31165     31168     31169
     31165     31168     31170     31165     31168     31171     31166     31165     31167
     31166     31165     31168     31167     31165     31168     31168     31171     31172
     31168     31171     31173     31168     31171     31174     31169     31168     31170
     31169     31168     31171     31170     31168     31171     31171     31174     31175
     31171     31174     31176     31171     31174     31177     31172     31171     31173
     31172     31171     31174     31173     31171     31174     31174     31177     31178
     31174     31177     31179     31174     31177     31180     31175     31174     31176
     31175     31174     31177     31176     31174     31177     31177     31180     31181
     31177     31180     31182     31177     31180     31183     31178     31177     31179
     31178     31177     31180     31179     31177     31180     31181     31180     31182
     31181     31180     31183     31182     31180     31183     31184     31187     31188
     31184     31187     31189     31184     31187     31190     31185     31184     31186
     31185     31184     31187     31186     31184     31187     31187     31190     31191
     31187     31190     31192     31187     31190     31193     31188     31187     31189
     31188     31187     31190     31189     31187     31190     31190     31193     31194
     31190     31193     31195     31190     31193     31196     31191     31190     31192
     31191     31190     31193     31192     31190     31193     31193     31196     31197
     31193     31196     31198     31193     31196     31199     31194     31193     31195
     31194     31193     31196     31195     31193     31196     31196     31199     31200
     31196     31199     31201     31196     31199     31202     31197     31196     31198
     31197     31196     31199     31198     31196     31199     31199     31202     31203
     31199     31202     31204     31199     31202     31205     31200     31199     31201
     31200     31199     31202     31201     31199     31202     31202     31205     31206
     31202     31205     31207     31202     31205     31208     31203     31202     31204
     31203     31202     31205     31204     31202     31205     31205     31208     31209
     31205     31208     31210     31205     31208     31211     31206     31205     31207
     31206     31205     31208     31207     31205     31208     31208     31211     31212
     31208     31211     31213     31208     31211     31214     31209     31208     31210
     31209     31208     31211     31210     31208     31211     31211     31214     31215
     31211     31214     31216     31211     31214     31217     31212     31211     31213
     31212     31211     31214     31213     31211     31214     31215     31214     31216
     31215     31214     31217     31216     31214     31217     31218     31220     31221
     31218     31220     31222     31218     31220     31223     31219     31218     31220
     31220     31223     31224     31220     31223     31225     31220     31223     31262
     31221     31220     31222     31221     31220     31223     31222     31220     31223
     31223     31225     31226     31223     31262     31263     31223     31262     31264
     31223     31262     31265     31224     31223     31225     31224     31223     31262
     31225     31223     31262     31225     31226     31227     31225     31226     31228
     31226     31228     31229     31226     31228     31230     31226     31228     31231
     31227     31226     31228     31228     31231     31232     31228     31231     31233
     31228     31231     31234     31229     31228     31230     31229     31228     31231
     31230     31228     31231     31231     31234     31235     31231     31234     31236
     31231     31234     31237     31232     31231     31233     31232     31231     31234
     31233     31231     31234     31234     31237     31238     31234     31237     31239
     31234     31237     31240     31235     31234     31236     31235     31234     31237
     31236     31234     31237     31237     31240     31241     31237     31240     31242
     31237     31240     31243     31238     31237     31239     31238     31237     31240
     31239     31237     31240     31240     31243     31244     31240     31243     31245
     31240     31243     31246     31241     31240     31242     31241     31240     31243
     31242     31240     31243     31243     31246     31247     31243     31246     31248
     31243     31246     31249     31244     31243     31245     31244     31243     31246
     31245     31243     31246     31246     31249     31250     31246     31249     31251
     31246     31249     31252     31247     31246     31248     31247     31246     31249
     31248     31246     31249     31249     31252     31253     31249     31252     31254
     31249     31252     31255     31250     31249     31251     31250     31249     31252
     31251     31249     31252     31252     31255     31256     31252     31255     31257
     31252     31255     31258     31253     31252     31254     31253     31252     31255
     31254     31252     31255     31255     31258     31259     31255     31258     31260
     31255     31258     31261     31256     31255     31257     31256     31255     31258
     31257     31255     31258     31259     31258     31260     31259     31258     31261
     31260     31258     31261     31262     31265     31266     31262     31265     31267
     31262     31265     31268     31263     31262     31264     31263     31262     31265
     31264     31262     31265     31265     31268     31269     31265     31268     31270
     31265     31268     31271     31266     31265     31267     31266     31265     31268
     31267     31265     31268     31268     31271     31272     31268     31271     31273
     31268     31271     31274     31269     31268     31270     31269     31268     31271
     31270     31268     31271     31271     31274     31275     31271     31274     31276
     31271     31274     31277     31272     31271     31273     31272     31271     31274
     31273     31271     31274     31274     31277     31278     31274     31277     31279
     31274     31277     31280     31275     31274     31276     31275     31274     31277
     31276     31274     31277     31277     31280     31281     31277     31280     31282
     31277     31280     31283     31278     31277     31279     31278     31277     31280
     31279     31277     31280     31280     31283     31284     31280     31283     31285
     31280     31283     31286     31281     31280     31282     31281     31280     31283
     31282     31280     31283     31283     31286     31287     31283     31286     31288
     31283     31286     31289     31284     31283     31285     31284     31283     31286
     31285     31283     31286     31286     31289     31290     31286     31289     31291
     31286     31289     31292     31287     31286     31288     31287     31286     31289
     31288     31286     31289     31289     31292     31293     31289     31292     31294
     31289     31292     31295     31290     31289     31291     31290     31289     31292
     31291     31289     31292     31293     31292     31294     31293     31292     31295
     31294     31292     31295     31296     31298     31299     31296     31300     31301
     31296     31300     31302     31296     31300     31303     31297     31296     31298
     31297     31296     31300     31298     31296     31300     31300     31303     31304
     31300     31303     31305     31300     31303     31306     31301     31300     31302
     31301     31300     31303     31302     31300     31303     31303     31306     31307
     31303     31306     31308     31303     31306     31309     31304     31303     31305
     31304     31303     31306     31305     31303     31306     31306     31309     31310
     31306     31309     31311     31306     31309     31312     31307     31306     31308
     31307     31306     31309     31308     31306     31309     31309     31312     31313
     31309     31312     31314     31309     31312     31315     31310     31309     31311
     31310     31309     31312     31311     31309     31312     31312     31315     31316
     31312     31315     31317     31312     31315     31318     31313     31312     31314
     31313     31312     31315     31314     31312     31315     31315     31318     31319
     31315     31318     31320     31315     31318     31321     31316     31315     31317
     31316     31315     31318     31317     31315     31318     31318     31321     31322
     31318     31321     31323     31318     31321     31324     31319     31318     31320
     31319     31318     31321     31320     31318     31321     31321     31324     31325
     31321     31324     31326     31321     31324     31327     31322     31321     31323
     31322     31321     31324     31323     31321     31324     31324     31327     31328
     31324     31327     31329     31324     31327     31330     31325     31324     31326
     31325     31324     31327     31326     31324     31327     31327     31330     31331
     31327     31330     31332     31327     31330     31333     31328     31327     31329
     31328     31327     31330     31329     31327     31330     31331     31330     31332
     31331     31330     31333     31332     31330     31333     31334     31336     31337
     31334     31336     31338     31334     31336     31339     31335     31334     31336
     31336     31339     31340     31336     31339     31341     31336     31339     31343
     31337     31336     31338     31337     31336     31339     31338     31336     31339
     31339     31341     31342     31339     31343     31344     31339     31343     31345
     31339     31343     31346     31340     31339     31341     31340     31339     31343
     31341     31339     31343     31343     31346     31347     31343     31346     31348
     31343     31346     31349     31344     31343     31345     31344     31343     31346
     31345     31343     31346     31346     31349     31350     31346     31349     31351
     31346     31349     31352     31347     31346     31348     31347     31346     31349
     31348     31346     31349     31349     31352     31353     31349     31352     31354
     31349     31352     31355     31350     31349     31351     31350     31349     31352
     31351     31349     31352     31352     31355     31356     31352     31355     31357
     31352     31355     31358     31353     31352     31354     31353     31352     31355
     31354     31352     31355     31355     31358     31359     31355     31358     31360
     31355     31358     31361     31356     31355     31357     31356     31355     31358
     31357     31355     31358     31358     31361     31362     31358     31361     31363
     31358     31361     31364     31359     31358     31360     31359     31358     31361
     31360     31358     31361     31361     31364     31365     31361     31364     31366
     31361     31364     31367     31362     31361     31363     31362     31361     31364
     31363     31361     31364     31364     31367     31368     31364     31367     31369
     31364     31367     31370     31365     31364     31366     31365     31364     31367
     31366     31364     31367     31367     31370     31371     31367     31370     31372
     31367     31370     31373     31368     31367     31369     31368     31367     31370
     31369     31367     31370     31370     31373     31374     31370     31373     31375
     31370     31373     31376     31371     31370     31372     31371     31370     31373
     31372     31370     31373     31374     31373     31375     31374     31373     31376
     31375     31373     31376     31377     31380     31383     31377     31380     31384
     31378     31377     31379     31378     31377     31380     31379     31377     31380
     31380     31383     31381     31380     31384     31385     31380     31384     31386
     31380     31384     31387     31381     31390     31387     31381     31390     31391
     31381     31390     31392     31381     31393     31394     31381     31393     31395
     31381     31393     31397     31382     31381     31383     31382     31381     31390
     31382     31381     31393     31383     31380     31384     31383     31381     31390
     31383     31381     31393     31384     31387     31388     31384     31387     31389
     31384     31387     31390     31385     31384     31386     31385     31384     31387
     31386     31384     31387     31387     31389     31405     31387     31390     31391
     31387     31390     31392     31388     31387     31389     31388     31387     31390
     31389     31387     31390     31389     31405     31402     31389     31405     31408
     31389     31405     31409     31390     31381     31393     31390     31392     31429
     31391     31390     31392     31392     31429     31430     31392     31429     31433
     31392     31429     31434     31393     31395     31396     31393     31397     31398
     31393     31397     31399     31393     31397     31400     31394     31393     31395
     31394     31393     31397     31395     31393     31397     31397     31400     31401
     31398     31397     31399     31398     31397     31400     31399     31397     31400
     31402     31405     31408     31402     31405     31409     31403     31402     31404
     31403     31402     31405     31404     31402     31405     31405     31408     31406
     31405     31409     31410     31405     31409     31411     31405     31409     31412
     31406     31416     31412     31406     31416     31417     31406     31416     31418
     31406     31420     31421     31406     31420     31422     31406     31420     31424
     31407     31406     31408     31407     31406     31416     31407     31406     31420
     31408     31405     31409     31408     31406     31416     31408     31406     31420
     31409     31412     31413     31409     31412     31414     31409     31412     31416
     31410     31409     31411     31410     31409     31412     31411     31409     31412
     31412     31414     31415     31412     31416     31417     31412     31416     31418
     31413     31412     31414     31413     31412     31416     31414     31412     31416
     31416     31406     31420     31416     31418     31419     31417     31416     31418
     31420     31422     31423     31420     31424     31425     31420     31424     31426
     31420     31424     31427     31421     31420     31422     31421     31420     31424
     31422     31420     31424     31424     31427     31428     31425     31424     31426
     31425     31424     31427     31426     31424     31427     31429     31433     31431
     31429     31434     31435     31429     31434     31436     31429     31434     31438
     31430     31429     31433     31430     31429     31434     31431     31441     31438
     31431     31441     31442     31431     31441     31443     31431     31448     31449
     31431     31448     31450     31431     31448     31452     31432     31431     31433
     31432     31431     31441     31432     31431     31448     31433     31429     31434
     31433     31431     31441     31433     31431     31448     31434     31436     31437
     31434     31438     31439     31434     31438     31440     31434     31438     31441
     31435     31434     31436     31435     31434     31438     31436     31434     31438
     31438     31440     31457     31438     31441     31442     31438     31441     31443
     31439     31438     31440     31439     31438     31441     31440     31438     31441
     31440     31457     31458     31440     31457     31461     31440     31457     31462
     31441     31431     31448     31441     31443     31444     31442     31441     31443
     31443     31444     31445     31443     31444     31446     31443     31444     31447
     31445     31444     31446     31445     31444     31447     31446     31444     31447
     31448     31450     31451     31448     31452     31453     31448     31452     31454
     31448     31452     31455     31449     31448     31450     31449     31448     31452
     31450     31448     31452     31452     31455     31456     31453     31452     31454
     31453     31452     31455     31454     31452     31455     31457     31461     31459
     31457     31462     31463     31457     31462     31464     31457     31462     31466
     31458     31457     31461     31458     31457     31462     31459     31469     31466
     31459     31469     31470     31459     31469     31471     31459     31476     31477
     31459     31476     31478     31459     31476     31480     31460     31459     31461
     31460     31459     31469     31460     31459     31476     31461     31457     31462
     31461     31459     31469     31461     31459     31476     31462     31464     31465
     31462     31466     31467     31462     31466     31468     31462     31466     31469
     31463     31462     31464     31463     31462     31466     31464     31462     31466
     31466     31468     31510     31466     31469     31470     31466     31469     31471
     31467     31466     31468     31467     31466     31469     31468     31466     31469
     31468     31510     31511     31468     31510     31514     31468     31510     31515
     31469     31459     31476     31469     31471     31472     31470     31469     31471
     31471     31472     31473     31471     31472     31474     31471     31472     31475
     31473     31472     31474     31473     31472     31475     31474     31472     31475
     31476     31478     31479     31476     31480     31481     31476     31480     31482
     31476     31480     31483     31477     31476     31478     31477     31476     31480
     31478     31476     31480     31480     31483     31484     31481     31480     31482
     31481     31480     31483     31482     31480     31483     31483     31484     31485
     31483     31484     31488     31483     31484     31489     31484     31488     31486
     31484     31489     31490     31484     31489     31491     31484     31489     31493
     31485     31484     31488     31485     31484     31489     31486     31497     31493
     31486     31497     31498     31486     31497     31499     31486     31501     31502
     31486     31501     31503     31486     31501     31505     31487     31486     31488
     31487     31486     31497     31487     31486     31501     31488     31484     31489
     31488     31486     31497     31488     31486     31501     31489     31491     31492
     31489     31493     31494     31489     31493     31495     31489     31493     31497
     31490     31489     31491     31490     31489     31493     31491     31489     31493
     31493     31495     31496     31493     31497     31498     31493     31497     31499
     31494     31493     31495     31494     31493     31497     31495     31493     31497
     31497     31486     31501     31497     31499     31500     31498     31497     31499
     31501     31503     31504     31501     31505     31506     31501     31505     31507
     31501     31505     31508     31502     31501     31503     31502     31501     31505
     31503     31501     31505     31505     31508     31509     31506     31505     31507
     31506     31505     31508     31507     31505     31508     31510     31514     31512
     31510     31515     31516     31510     31515     31517     31510     31515     31519
     31511     31510     31514     31511     31510     31515     31512     31522     31519
     31512     31522     31523     31512     31522     31524     31512     31526     31527
     31512     31526     31528     31512     31526     31529     31513     31512     31514
     31513     31512     31522     31513     31512     31526     31514     31510     31515
     31514     31512     31522     31514     31512     31526     31515     31517     31518
     31515     31519     31520     31515     31519     31521     31515     31519     31522
     31516     31515     31517     31516     31515     31519     31517     31515     31519
     31519     31521     31531     31519     31522     31523     31519     31522     31524
     31520     31519     31521     31520     31519     31522     31521     31519     31522
     31521     31531     31532     31521     31531     31535     31521     31531     31536
     31522     31512     31526     31522     31524     31525     31523     31522     31524
     31526     31529     31530     31527     31526     31528     31527     31526     31529
     31528     31526     31529     31531     31535     31533     31531     31536     31537
     31531     31536     31538     31531     31536     31539     31532     31531     31535
     31532     31531     31536     31533     31542     31539     31533     31542     31543
     31533     31542     31544     31533     31546     31547     31533     31546     31548
     31533     31546     31549     31534     31533     31535     31534     31533     31542
     31534     31533     31546     31535     31531     31536     31535     31533     31542
     31535     31533     31546     31536     31538     31551     31536     31539     31540
     31536     31539     31541     31536     31539     31542     31537     31536     31538
     31537     31536     31539     31538     31536     31539     31538     31551     31552
     31538     31551     31555     31538     31551     31556     31539     31541     31594
     31539     31542     31543     31539     31542     31544     31540     31539     31541
     31540     31539     31542     31541     31539     31542     31541     31594     31595
     31541     31594     31598     31541     31594     31599     31542     31533     31546
     31542     31544     31545     31543     31542     31544     31546     31549     31550
     31547     31546     31548     31547     31546     31549     31548     31546     31549
     31551     31555     31553     31551     31556     31557     31551     31556     31558
     31551     31556     31559     31552     31551     31555     31552     31551     31556
     31553     31563     31559     31553     31563     31564     31553     31563     31565
     31553     31567     31568     31553     31567     31569     31553     31567     31570
     31554     31553     31555     31554     31553     31563     31554     31553     31567
     31555     31551     31556     31555     31553     31563     31555     31553     31567
     31556     31558     31572     31556     31559     31560     31556     31559     31561
     31556     31559     31563     31557     31556     31558     31557     31556     31559
     31558     31556     31559     31558     31572     31573     31558     31572     31576
     31558     31572     31577     31559     31561     31562     31559     31563     31564
     31559     31563     31565     31560     31559     31561     31560     31559     31563
     31561     31559     31563     31563     31553     31567     31563     31565     31566
     31564     31563     31565     31567     31570     31571     31568     31567     31569
     31568     31567     31570     31569     31567     31570     31572     31576     31574
     31572     31577     31578     31572     31577     31579     31572     31577     31581
     31573     31572     31576     31573     31572     31577     31574     31585     31581
     31574     31585     31586     31574     31585     31587     31574     31589     31590
     31574     31589     31591     31574     31589     31592     31575     31574     31576
     31575     31574     31585     31575     31574     31589     31576     31572     31577
     31576     31574     31585     31576     31574     31589     31577     31579     31580
     31577     31581     31582     31577     31581     31583     31577     31581     31585
     31578     31577     31579     31578     31577     31581     31579     31577     31581
     31581     31583     31584     31581     31585     31586     31581     31585     31587
     31582     31581     31583     31582     31581     31585     31583     31581     31585
     31585     31574     31589     31585     31587     31588     31586     31585     31587
     31589     31592     31593     31590     31589     31591     31590     31589     31592
     31591     31589     31592     31594     31598     31596     31594     31599     31600
     31594     31599     31601     31594     31599     31603     31595     31594     31598
     31595     31594     31599     31596     31606     31603     31596     31606     31607
     31596     31606     31608     31596     31610     31611     31596     31610     31612
     31596     31610     31613     31597     31596     31598     31597     31596     31606
     31597     31596     31610     31598     31594     31599     31598     31596     31606
     31598     31596     31610     31599     31601     31602     31599     31603     31604
     31599     31603     31605     31599     31603     31606     31600     31599     31601
     31600     31599     31603     31601     31599     31603     31603     31605     31615
     31603     31606     31607     31603     31606     31608     31604     31603     31605
     31604     31603     31606     31605     31603     31606     31605     31615     31616
     31605     31615     31619     31605     31615     31620     31606     31596     31610
     31606     31608     31609     31607     31606     31608     31610     31613     31614
     31611     31610     31612     31611     31610     31613     31612     31610     31613
     31615     31619     31617     31615     31620     31621     31615     31620     31622
     31615     31620     31630     31616     31615     31619     31616     31615     31620
     31617     31633     31630     31617     31633     31634     31617     31633     31635
     31617     31637     31638     31617     31637     31639     31617     31637     31640
     31618     31617     31619     31618     31617     31633     31618     31617     31637
     31619     31615     31620     31619     31617     31633     31619     31617     31637
     31620     31622     31623     31620     31622     31624     31620     31630     31631
     31620     31630     31632     31620     31630     31633     31621     31620     31622
     31621     31620     31630     31622     31620     31630     31622     31624     31625
     31622     31624     31626     31623     31622     31624     31624     31626     31627
     31624     31626     31628     31624     31626     31629     31625     31624     31626
     31627     31626     31628     31627     31626     31629     31628     31626     31629
     31630     31632     31642     31630     31633     31634     31630     31633     31635
     31631     31630     31632     31631     31630     31633     31632     31630     31633
     31632     31642     31643     31632     31642     31646     31632     31642     31647
     31633     31617     31637     31633     31635     31636     31634     31633     31635
     31637     31640     31641     31638     31637     31639     31638     31637     31640
     31639     31637     31640     31642     31646     31644     31642     31647     31648
     31642     31647     31649     31642     31647     31650     31643     31642     31646
     31643     31642     31647     31644     31654     31650     31644     31654     31655
     31644     31654     31656     31644     31658     31659     31644     31658     31660
     31644     31658     31661     31645     31644     31646     31645     31644     31654
     31645     31644     31658     31646     31642     31647     31646     31644     31654
     31646     31644     31658     31647     31649     31663     31647     31650     31651
     31647     31650     31652     31647     31650     31654     31648     31647     31649
     31648     31647     31650     31649     31647     31650     31649     31663     31664
     31649     31663     31667     31649     31663     31668     31650     31652     31653
     31650     31654     31655     31650     31654     31656     31651     31650     31652
     31651     31650     31654     31652     31650     31654     31654     31644     31658
     31654     31656     31657     31655     31654     31656     31658     31661     31662
     31659     31658     31660     31659     31658     31661     31660     31658     31661
     31663     31667     31665     31663     31668     31669     31663     31668     31670
     31663     31668     31671     31664     31663     31667     31664     31663     31668
     31665     31675     31671     31665     31675     31676     31665     31675     31677
     31665     31679     31680     31665     31679     31681     31665     31679     31682
     31666     31665     31667     31666     31665     31675     31666     31665     31679
     31667     31663     31668     31667     31665     31675     31667     31665     31679
     31668     31670     31683     31668     31671     31672     31668     31671     31673
     31668     31671     31675     31669     31668     31670     31669     31668     31671
     31670     31668     31671     31670     31683     31684     31670     31683     31687
     31670     31683     31688     31671     31673     31674     31671     31675     31676
     31671     31675     31677     31672     31671     31673     31672     31671     31675
     31673     31671     31675     31675     31665     31679     31675     31677     31678
     31676     31675     31677     31680     31679     31681     31680     31679     31682
     31681     31679     31682     31683     31687     31685     31683     31688     31689
     31683     31688     31690     31683     31688     31691     31684     31683     31687
     31684     31683     31688     31685     31694     31691     31685     31694     31695
     31685     31694     31696     31685     31698     31699     31685     31698     31700
     31685     31698     31701     31686     31685     31687     31686     31685     31694
     31686     31685     31698     31687     31683     31688     31687     31685     31694
     31687     31685     31698     31688     31690     31702     31688     31691     31692
     31688     31691     31693     31688     31691     31694     31689     31688     31690
     31689     31688     31691     31690     31688     31691     31690     31702     31703
     31690     31702     31706     31690     31702     31707     31691     31693     31730
     31691     31694     31695     31691     31694     31696     31692     31691     31693
     31692     31691     31694     31693     31691     31694     31693     31730     31731
     31693     31730     31734     31693     31730     31735     31694     31685     31698
     31694     31696     31697     31695     31694     31696     31699     31698     31700
     31699     31698     31701     31700     31698     31701     31702     31706     31704
     31702     31707     31708     31702     31707     31709     31702     31707     31717
     31703     31702     31706     31703     31702     31707     31704     31721     31717
     31704     31721     31722     31704     31721     31723     31704     31725     31726
     31704     31725     31727     31704     31725     31728     31705     31704     31706
     31705     31704     31721     31705     31704     31725     31706     31702     31707
     31706     31704     31721     31706     31704     31725     31707     31709     31710
     31707     31709     31711     31707     31717     31718     31707     31717     31719
     31707     31717     31721     31708     31707     31709     31708     31707     31717
     31709     31707     31717     31709     31711     31712     31709     31711     31713
     31710     31709     31711     31711     31713     31714     31711     31713     31715
     31711     31713     31716     31712     31711     31713     31714     31713     31715
     31714     31713     31716     31715     31713     31716     31717     31719     31720
     31717     31721     31722     31717     31721     31723     31718     31717     31719
     31718     31717     31721     31719     31717     31721     31721     31704     31725
     31721     31723     31724     31722     31721     31723     31725     31728     31729
     31726     31725     31727     31726     31725     31728     31727     31725     31728
     31730     31734     31732     31730     31735     31736     31730     31735     31737
     31730     31735     31745     31731     31730     31734     31731     31730     31735
     31732     31748     31745     31732     31748     31749     31732     31748     31750
     31732     31752     31753     31732     31752     31754     31732     31752     31755
     31733     31732     31734     31733     31732     31748     31733     31732     31752
     31734     31730     31735     31734     31732     31748     31734     31732     31752
     31735     31737     31738     31735     31737     31739     31735     31745     31746
     31735     31745     31747     31735     31745     31748     31736     31735     31737
     31736     31735     31745     31737     31735     31745     31737     31739     31740
     31737     31739     31741     31738     31737     31739     31739     31741     31742
     31739     31741     31743     31739     31741     31744     31740     31739     31741
     31742     31741     31743     31742     31741     31744     31743     31741     31744
     31745     31747     31757     31745     31748     31749     31745     31748     31750
     31746     31745     31747     31746     31745     31748     31747     31745     31748
     31747     31757     31758     31747     31757     31761     31747     31757     31762
     31748     31732     31752     31748     31750     31751     31749     31748     31750
     31752     31755     31756     31753     31752     31754     31753     31752     31755
     31754     31752     31755     31757     31761     31759     31757     31762     31763
     31757     31762     31764     31757     31762     31765     31758     31757     31761
     31758     31757     31762     31759     31769     31765     31759     31769     31770
     31759     31769     31771     31759     31773     31774     31759     31773     31775
     31759     31773     31776     31760     31759     31761     31760     31759     31769
     31760     31759     31773     31761     31757     31762     31761     31759     31769
     31761     31759     31773     31762     31764     31778     31762     31765     31766
     31762     31765     31767     31762     31765     31769     31763     31762     31764
     31763     31762     31765     31764     31762     31765     31764     31778     31779
     31764     31778     31782     31764     31778     31783     31765     31767     31768
     31765     31769     31770     31765     31769     31771     31766     31765     31767
     31766     31765     31769     31767     31765     31769     31769     31759     31773
     31769     31771     31772     31770     31769     31771     31773     31776     31777
     31774     31773     31775     31774     31773     31776     31775     31773     31776
     31778     31782     31780     31778     31783     31784     31778     31783     31785
     31778     31783     31786     31779     31778     31782     31779     31778     31783
     31780     31790     31786     31780     31790     31791     31780     31790     31792
     31780     31794     31795     31780     31794     31796     31780     31794     31797
     31781     31780     31782     31781     31780     31790     31781     31780     31794
     31782     31778     31783     31782     31780     31790     31782     31780     31794
     31783     31785     31798     31783     31786     31787     31783     31786     31788
     31783     31786     31790     31784     31783     31785     31784     31783     31786
     31785     31783     31786     31785     31798     31799     31785     31798     31802
     31785     31798     31803     31786     31788     31789     31786     31790     31791
     31786     31790     31792     31787     31786     31788     31787     31786     31790
     31788     31786     31790     31790     31780     31794     31790     31792     31793
     31791     31790     31792     31795     31794     31796     31795     31794     31797
     31796     31794     31797     31798     31802     31800     31798     31803     31804
     31798     31803     31805     31798     31803     31806     31799     31798     31802
     31799     31798     31803     31800     31809     31806     31800     31809     31810
     31800     31809     31811     31800     31813     31814     31800     31813     31815
     31800     31813     31816     31801     31800     31802     31801     31800     31809
     31801     31800     31813     31802     31798     31803     31802     31800     31809
     31802     31800     31813     31803     31805     31817     31803     31806     31807
     31803     31806     31808     31803     31806     31809     31804     31803     31805
     31804     31803     31806     31805     31803     31806     31805     31817     31818
     31805     31817     31821     31805     31817     31822     31806     31808     31845
     31806     31809     31810     31806     31809     31811     31807     31806     31808
     31807     31806     31809     31808     31806     31809     31808     31845     31846
     31808     31845     31849     31808     31845     31850     31809     31800     31813
     31809     31811     31812     31810     31809     31811     31814     31813     31815
     31814     31813     31816     31815     31813     31816     31817     31821     31819
     31817     31822     31823     31817     31822     31824     31817     31822     31832
     31818     31817     31821     31818     31817     31822     31819     31836     31832
     31819     31836     31837     31819     31836     31838     31819     31840     31841
     31819     31840     31842     31819     31840     31843     31820     31819     31821
     31820     31819     31836     31820     31819     31840     31821     31817     31822
     31821     31819     31836     31821     31819     31840     31822     31824     31825
     31822     31824     31826     31822     31832     31833     31822     31832     31834
     31822     31832     31836     31823     31822     31824     31823     31822     31832
     31824     31822     31832     31824     31826     31827     31824     31826     31828
     31825     31824     31826     31826     31828     31829     31826     31828     31830
     31826     31828     31831     31827     31826     31828     31829     31828     31830
     31829     31828     31831     31830     31828     31831     31832     31834     31835
     31832     31836     31837     31832     31836     31838     31833     31832     31834
     31833     31832     31836     31834     31832     31836     31836     31819     31840
     31836     31838     31839     31837     31836     31838     31840     31843     31844
     31841     31840     31842     31841     31840     31843     31842     31840     31843
     31845     31849     31847     31845     31850     31851     31845     31850     31852
     31845     31850     31860     31846     31845     31849     31846     31845     31850
     31847     31863     31860     31847     31863     31864     31847     31863     31865
     31847     31867     31868     31847     31867     31869     31847     31867     31870
     31848     31847     31849     31848     31847     31863     31848     31847     31867
     31849     31845     31850     31849     31847     31863     31849     31847     31867
     31850     31852     31853     31850     31852     31854     31850     31860     31861
     31850     31860     31862     31850     31860     31863     31851     31850     31852
     31851     31850     31860     31852     31850     31860     31852     31854     31855
     31852     31854     31856     31853     31852     31854     31854     31856     31857
     31854     31856     31858     31854     31856     31859     31855     31854     31856
     31857     31856     31858     31857     31856     31859     31858     31856     31859
     31860     31862     31872     31860     31863     31864     31860     31863     31865
     31861     31860     31862     31861     31860     31863     31862     31860     31863
     31862     31872     31873     31862     31872     31876     31862     31872     31877
     31863     31847     31867     31863     31865     31866     31864     31863     31865
     31867     31870     31871     31868     31867     31869     31868     31867     31870
     31869     31867     31870     31872     31876     31874     31872     31877     31878
     31872     31877     31879     31872     31877     31880     31873     31872     31876
     31873     31872     31877     31874     31884     31880     31874     31884     31885
     31874     31884     31886     31874     31888     31889     31874     31888     31890
     31874     31888     31891     31875     31874     31876     31875     31874     31884
     31875     31874     31888     31876     31872     31877     31876     31874     31884
     31876     31874     31888     31877     31879     31893     31877     31880     31881
     31877     31880     31882     31877     31880     31884     31878     31877     31879
     31878     31877     31880     31879     31877     31880     31879     31893     31894
     31879     31893     31897     31879     31893     31898     31880     31882     31883
     31880     31884     31885     31880     31884     31886     31881     31880     31882
     31881     31880     31884     31882     31880     31884     31884     31874     31888
     31884     31886     31887     31885     31884     31886     31888     31891     31892
     31889     31888     31890     31889     31888     31891     31890     31888     31891
     31893     31897     31895     31893     31898     31899     31893     31898     31900
     31893     31898     31901     31894     31893     31897     31894     31893     31898
     31895     31905     31901     31895     31905     31906     31895     31905     31907
     31895     31909     31910     31895     31909     31911     31895     31909     31912
     31896     31895     31897     31896     31895     31905     31896     31895     31909
     31897     31893     31898     31897     31895     31905     31897     31895     31909
     31898     31900     31913     31898     31901     31902     31898     31901     31903
     31898     31901     31905     31899     31898     31900     31899     31898     31901
     31900     31898     31901     31900     31913     31914     31900     31913     31917
     31900     31913     31918     31901     31903     31904     31901     31905     31906
     31901     31905     31907     31902     31901     31903     31902     31901     31905
     31903     31901     31905     31905     31895     31909     31905     31907     31908
     31906     31905     31907     31910     31909     31911     31910     31909     31912
     31911     31909     31912     31913     31917     31915     31913     31918     31919
     31913     31918     31920     31913     31918     31921     31914     31913     31917
     31914     31913     31918     31915     31924     31921     31915     31924     31925
     31915     31924     31926     31915     31928     31929     31915     31928     31930
     31915     31928     31931     31916     31915     31917     31916     31915     31924
     31916     31915     31928     31917     31913     31918     31917     31915     31924
     31917     31915     31928     31918     31920     31932     31918     31921     31922
     31918     31921     31923     31918     31921     31924     31919     31918     31920
     31919     31918     31921     31920     31918     31921     31920     31932     31933
     31920     31932     31936     31920     31932     31937     31921     31923     31960
     31921     31924     31925     31921     31924     31926     31922     31921     31923
     31922     31921     31924     31923     31921     31924     31923     31960     31961
     31923     31960     31964     31923     31960     31965     31924     31915     31928
     31924     31926     31927     31925     31924     31926     31929     31928     31930
     31929     31928     31931     31930     31928     31931     31932     31936     31934
     31932     31937     31938     31932     31937     31939     31932     31937     31947
     31933     31932     31936     31933     31932     31937     31934     31951     31947
     31934     31951     31952     31934     31951     31953     31934     31955     31956
     31934     31955     31957     31934     31955     31958     31935     31934     31936
     31935     31934     31951     31935     31934     31955     31936     31932     31937
     31936     31934     31951     31936     31934     31955     31937     31939     31940
     31937     31939     31941     31937     31947     31948     31937     31947     31949
     31937     31947     31951     31938     31937     31939     31938     31937     31947
     31939     31937     31947     31939     31941     31942     31939     31941     31943
     31940     31939     31941     31941     31943     31944     31941     31943     31945
     31941     31943     31946     31942     31941     31943     31944     31943     31945
     31944     31943     31946     31945     31943     31946     31947     31949     31950
     31947     31951     31952     31947     31951     31953     31948     31947     31949
     31948     31947     31951     31949     31947     31951     31951     31934     31955
     31951     31953     31954     31952     31951     31953     31955     31958     31959
     31956     31955     31957     31956     31955     31958     31957     31955     31958
     31960     31964     31962     31960     31965     31966     31960     31965     31967
     31960     31965     31975     31961     31960     31964     31961     31960     31965
     31962     31978     31975     31962     31978     31979     31962     31978     31980
     31962     31982     31983     31962     31982     31984     31962     31982     31985
     31963     31962     31964     31963     31962     31978     31963     31962     31982
     31964     31960     31965     31964     31962     31978     31964     31962     31982
     31965     31967     31968     31965     31967     31969     31965     31975     31976
     31965     31975     31977     31965     31975     31978     31966     31965     31967
     31966     31965     31975     31967     31965     31975     31967     31969     31970
     31967     31969     31971     31968     31967     31969     31969     31971     31972
     31969     31971     31973     31969     31971     31974     31970     31969     31971
     31972     31971     31973     31972     31971     31974     31973     31971     31974
     31975     31977     31987     31975     31978     31979     31975     31978     31980
     31976     31975     31977     31976     31975     31978     31977     31975     31978
     31977     31987     31988     31977     31987     31991     31977     31987     31992
     31978     31962     31982     31978     31980     31981     31979     31978     31980
     31982     31985     31986     31983     31982     31984     31983     31982     31985
     31984     31982     31985     31987     31991     31989     31987     31992     31993
     31987     31992     31994     31987     31992     31995     31988     31987     31991
     31988     31987     31992     31989     31999     31995     31989     31999     32000
     31989     31999     32001     31989     32003     32004     31989     32003     32005
     31989     32003     32006     31990     31989     31991     31990     31989     31999
     31990     31989     32003     31991     31987     31992     31991     31989     31999
     31991     31989     32003     31992     31994     32008     31992     31995     31996
     31992     31995     31997     31992     31995     31999     31993     31992     31994
     31993     31992     31995     31994     31992     31995     31994     32008     32009
     31994     32008     32012     31994     32008     32013     31995     31997     31998
     31995     31999     32000     31995     31999     32001     31996     31995     31997
     31996     31995     31999     31997     31995     31999     31999     31989     32003
     31999     32001     32002     32000     31999     32001     32003     32006     32007
     32004     32003     32005     32004     32003     32006     32005     32003     32006
     32008     32012     32010     32008     32013     32014     32008     32013     32015
     32008     32013     32016     32009     32008     32012     32009     32008     32013
     32010     32020     32016     32010     32020     32021     32010     32020     32022
     32010     32024     32025     32010     32024     32026     32010     32024     32027
     32011     32010     32012     32011     32010     32020     32011     32010     32024
     32012     32008     32013     32012     32010     32020     32012     32010     32024
     32013     32015     32028     32013     32016     32017     32013     32016     32018
     32013     32016     32020     32014     32013     32015     32014     32013     32016
     32015     32013     32016     32015     32028     32029     32015     32028     32032
     32015     32028     32033     32016     32018     32019     32016     32020     32021
     32016     32020     32022     32017     32016     32018     32017     32016     32020
     32018     32016     32020     32020     32010     32024     32020     32022     32023
     32021     32020     32022     32025     32024     32026     32025     32024     32027
     32026     32024     32027     32028     32032     32030     32028     32033     32034
     32028     32033     32035     32028     32033     32036     32029     32028     32032
     32029     32028     32033     32030     32039     32036     32030     32039     32040
     32030     32039     32041     32030     32043     32044     32030     32043     32045
     32030     32043     32046     32031     32030     32032     32031     32030     32039
     32031     32030     32043     32032     32028     32033     32032     32030     32039
     32032     32030     32043     32033     32035     32047     32033     32036     32037
     32033     32036     32038     32033     32036     32039     32034     32033     32035
     32034     32033     32036     32035     32033     32036     32035     32047     32048
     32035     32047     32051     32035     32047     32052     32036     32038     32075
     32036     32039     32040     32036     32039     32041     32037     32036     32038
     32037     32036     32039     32038     32036     32039     32038     32075     32076
     32038     32075     32079     32038     32075     32080     32039     32030     32043
     32039     32041     32042     32040     32039     32041     32044     32043     32045
     32044     32043     32046     32045     32043     32046     32047     32051     32049
     32047     32052     32053     32047     32052     32054     32047     32052     32062
     32048     32047     32051     32048     32047     32052     32049     32066     32062
     32049     32066     32067     32049     32066     32068     32049     32070     32071
     32049     32070     32072     32049     32070     32073     32050     32049     32051
     32050     32049     32066     32050     32049     32070     32051     32047     32052
     32051     32049     32066     32051     32049     32070     32052     32054     32055
     32052     32054     32056     32052     32062     32063     32052     32062     32064
     32052     32062     32066     32053     32052     32054     32053     32052     32062
     32054     32052     32062     32054     32056     32057     32054     32056     32058
     32055     32054     32056     32056     32058     32059     32056     32058     32060
     32056     32058     32061     32057     32056     32058     32059     32058     32060
     32059     32058     32061     32060     32058     32061     32062     32064     32065
     32062     32066     32067     32062     32066     32068     32063     32062     32064
     32063     32062     32066     32064     32062     32066     32066     32049     32070
     32066     32068     32069     32067     32066     32068     32070     32073     32074
     32071     32070     32072     32071     32070     32073     32072     32070     32073
     32075     32079     32077     32075     32080     32081     32075     32080     32082
     32075     32080     32090     32076     32075     32079     32076     32075     32080
     32077     32093     32090     32077     32093     32094     32077     32093     32095
     32077     32097     32098     32077     32097     32099     32077     32097     32100
     32078     32077     32079     32078     32077     32093     32078     32077     32097
     32079     32075     32080     32079     32077     32093     32079     32077     32097
     32080     32082     32083     32080     32082     32084     32080     32090     32091
     32080     32090     32092     32080     32090     32093     32081     32080     32082
     32081     32080     32090     32082     32080     32090     32082     32084     32085
     32082     32084     32086     32083     32082     32084     32084     32086     32087
     32084     32086     32088     32084     32086     32089     32085     32084     32086
     32087     32086     32088     32087     32086     32089     32088     32086     32089
     32090     32092     32102     32090     32093     32094     32090     32093     32095
     32091     32090     32092     32091     32090     32093     32092     32090     32093
     32092     32102     32103     32092     32102     32106     32092     32102     32107
     32093     32077     32097     32093     32095     32096     32094     32093     32095
     32097     32100     32101     32098     32097     32099     32098     32097     32100
     32099     32097     32100     32102     32106     32104     32102     32107     32108
     32102     32107     32109     32102     32107     32110     32103     32102     32106
     32103     32102     32107     32104     32114     32110     32104     32114     32115
     32104     32114     32116     32104     32118     32119     32104     32118     32120
     32104     32118     32121     32105     32104     32106     32105     32104     32114
     32105     32104     32118     32106     32102     32107     32106     32104     32114
     32106     32104     32118     32107     32109     32123     32107     32110     32111
     32107     32110     32112     32107     32110     32114     32108     32107     32109
     32108     32107     32110     32109     32107     32110     32109     32123     32124
     32109     32123     32127     32109     32123     32128     32110     32112     32113
     32110     32114     32115     32110     32114     32116     32111     32110     32112
     32111     32110     32114     32112     32110     32114     32114     32104     32118
     32114     32116     32117     32115     32114     32116     32118     32121     32122
     32119     32118     32120     32119     32118     32121     32120     32118     32121
     32123     32127     32125     32123     32128     32129     32123     32128     32130
     32123     32128     32131     32124     32123     32127     32124     32123     32128
     32125     32135     32131     32125     32135     32136     32125     32135     32137
     32125     32139     32140     32125     32139     32141     32125     32139     32142
     32126     32125     32127     32126     32125     32135     32126     32125     32139
     32127     32123     32128     32127     32125     32135     32127     32125     32139
     32128     32130     32143     32128     32131     32132     32128     32131     32133
     32128     32131     32135     32129     32128     32130     32129     32128     32131
     32130     32128     32131     32130     32143     32144     32130     32143     32147
     32130     32143     32148     32131     32133     32134     32131     32135     32136
     32131     32135     32137     32132     32131     32133     32132     32131     32135
     32133     32131     32135     32135     32125     32139     32135     32137     32138
     32136     32135     32137     32140     32139     32141     32140     32139     32142
     32141     32139     32142     32143     32147     32145     32143     32148     32149
     32143     32148     32150     32143     32148     32151     32144     32143     32147
     32144     32143     32148     32145     32155     32151     32145     32155     32156
     32145     32155     32157     32145     32159     32160     32145     32159     32161
     32145     32159     32162     32146     32145     32147     32146     32145     32155
     32146     32145     32159     32147     32143     32148     32147     32145     32155
     32147     32145     32159     32148     32150     32163     32148     32151     32152
     32148     32151     32153     32148     32151     32155     32149     32148     32150
     32149     32148     32151     32150     32148     32151     32150     32163     32164
     32150     32163     32167     32150     32163     32168     32151     32153     32154
     32151     32155     32156     32151     32155     32157     32152     32151     32153
     32152     32151     32155     32153     32151     32155     32155     32145     32159
     32155     32157     32158     32156     32155     32157     32160     32159     32161
     32160     32159     32162     32161     32159     32162     32163     32167     32165
     32163     32168     32169     32163     32168     32170     32163     32168     32178
     32164     32163     32167     32164     32163     32168     32165     32182     32178
     32165     32182     32183     32165     32182     32184     32165     32186     32187
     32165     32186     32188     32165     32186     32189     32166     32165     32167
     32166     32165     32182     32166     32165     32186     32167     32163     32168
     32167     32165     32182     32167     32165     32186     32168     32170     32171
     32168     32170     32172     32168     32178     32179     32168     32178     32180
     32168     32178     32182     32169     32168     32170     32169     32168     32178
     32170     32168     32178     32170     32172     32173     32170     32172     32174
     32171     32170     32172     32172     32174     32175     32172     32174     32176
     32172     32174     32177     32173     32172     32174     32175     32174     32176
     32175     32174     32177     32176     32174     32177     32178     32180     32181
     32178     32182     32183     32178     32182     32184     32179     32178     32180
     32179     32178     32182     32180     32178     32182     32182     32165     32186
     32182     32184     32185     32183     32182     32184     32186     32189     32190
     32187     32186     32188     32187     32186     32189     32188     32186     32189
     32191     32193     32192     32191     32193     32194     32191     32193     32195
     32192     32193     32194     32192     32193     32195     32192     32490     32487
     32192     32490     32493     32192     32490     32494     32193     32192     32490
     32193     32195     32196     32193     32195     32197     32193     32195     32204
     32194     32193     32195     32195     32196     32198     32195     32204     32205
     32195     32204     32206     32195     32204     32211     32196     32195     32197
     32196     32195     32204     32196     32198     32199     32196     32198     32200
     32196     32198     32219     32197     32195     32204     32198     32200     32201
     32198     32219     32211     32198     32219     32220     32198     32219     32221
     32199     32198     32200     32199     32198     32219     32200     32198     32219
     32200     32201     32202     32200     32201     32203     32200     32201     32227
     32201     32227     32223     32201     32227     32228     32201     32227     32229
     32202     32201     32203     32202     32201     32227     32203     32201     32227
     32204     32206     32207     32204     32211     32212     32204     32211     32213
     32204     32211     32219     32205     32204     32206     32205     32204     32211
     32206     32204     32211     32206     32207     32208     32206     32207     32209
     32206     32207     32210     32208     32207     32209     32208     32207     32210
     32209     32207     32210     32211     32212     32214     32211     32219     32220
     32211     32219     32221     32212     32211     32213     32212     32211     32219
     32212     32214     32215     32212     32214     32216     32213     32211     32219
     32214     32216     32217     32214     32216     32218     32214     32216     32249
     32215     32214     32216     32216     32249     32250     32216     32249     32251
     32216     32249     32294     32217     32216     32218     32217     32216     32249
     32218     32216     32249     32219     32221     32222     32219     32221     32328
     32220     32219     32221     32221     32328     32329     32221     32328     32330
     32222     32221     32328     32223     32225     32226     32223     32227     32228
     32223     32227     32229     32223     32237     32238     32223     32237     32239
     32223     32237     32245     32224     32223     32225     32224     32223     32227
     32224     32223     32237     32225     32223     32227     32225     32223     32237
     32227     32223     32237     32227     32229     32230     32228     32227     32229
     32229     32230     32231     32229     32230     32232     32229     32230     32245
     32230     32232     32236     32230     32245     32237     32230     32245     32246
     32230     32245     32247     32231     32230     32232     32231     32230     32245
     32232     32230     32245     32232     32236     32233     32232     32236     32234
     32232     32236     32235     32233     32236     32234     32233     32236     32235
     32234     32236     32235     32237     32239     32240     32237     32245     32246
     32237     32245     32247     32238     32237     32239     32238     32237     32245
     32239     32237     32245     32239     32240     32241     32239     32240     32242
     32240     32242     32243     32240     32242     32244     32240     32242     32406
     32241     32240     32242     32242     32406     32407     32242     32406     32408
     32242     32406     32410     32243     32242     32244     32243     32242     32406
     32244     32242     32406     32245     32247     32248     32245     32247     32444
     32246     32245     32247     32247     32444     32445     32247     32444     32446
     32248     32247     32444     32249     32251     32252     32249     32294     32295
     32249     32294     32296     32249     32294     32297     32250     32249     32251
     32250     32249     32294     32251     32249     32294     32251     32252     32253
     32251     32252     32254     32252     32254     32255     32252     32254     32256
     32252     32254     32257     32253     32252     32254     32254     32257     32258
     32254     32257     32259     32254     32257     32260     32255     32254     32256
     32255     32254     32257     32256     32254     32257     32257     32260     32261
     32257     32260     32262     32257     32260     32263     32258     32257     32259
     32258     32257     32260     32259     32257     32260     32260     32263     32264
     32260     32263     32265     32260     32263     32266     32261     32260     32262
     32261     32260     32263     32262     32260     32263     32263     32266     32267
     32263     32266     32268     32263     32266     32269     32264     32263     32265
     32264     32263     32266     32265     32263     32266     32266     32269     32270
     32266     32269     32271     32266     32269     32272     32267     32266     32268
     32267     32266     32269     32268     32266     32269     32269     32272     32273
     32269     32272     32274     32269     32272     32275     32270     32269     32271
     32270     32269     32272     32271     32269     32272     32272     32275     32276
     32272     32275     32277     32272     32275     32278     32273     32272     32274
     32273     32272     32275     32274     32272     32275     32275     32278     32279
     32275     32278     32280     32275     32278     32281     32276     32275     32277
     32276     32275     32278     32277     32275     32278     32278     32281     32282
     32278     32281     32283     32278     32281     32284     32279     32278     32280
     32279     32278     32281     32280     32278     32281     32281     32284     32285
     32281     32284     32286     32281     32284     32287     32282     32281     32283
     32282     32281     32284     32283     32281     32284     32284     32287     32288
     32284     32287     32289     32284     32287     32290     32285     32284     32286
     32285     32284     32287     32286     32284     32287     32287     32290     32291
     32287     32290     32292     32287     32290     32293     32288     32287     32289
     32288     32287     32290     32289     32287     32290     32291     32290     32292
     32291     32290     32293     32292     32290     32293     32294     32297     32298
     32294     32297     32299     32294     32297     32300     32295     32294     32296
     32295     32294     32297     32296     32294     32297     32297     32300     32301
     32297     32300     32302     32297     32300     32303     32298     32297     32299
     32298     32297     32300     32299     32297     32300     32300     32303     32304
     32300     32303     32305     32300     32303     32306     32301     32300     32302
     32301     32300     32303     32302     32300     32303     32303     32306     32307
     32303     32306     32308     32303     32306     32309     32304     32303     32305
     32304     32303     32306     32305     32303     32306     32306     32309     32310
     32306     32309     32311     32306     32309     32312     32307     32306     32308
     32307     32306     32309     32308     32306     32309     32309     32312     32313
     32309     32312     32314     32309     32312     32315     32310     32309     32311
     32310     32309     32312     32311     32309     32312     32312     32315     32316
     32312     32315     32317     32312     32315     32318     32313     32312     32314
     32313     32312     32315     32314     32312     32315     32315     32318     32319
     32315     32318     32320     32315     32318     32321     32316     32315     32317
     32316     32315     32318     32317     32315     32318     32318     32321     32322
     32318     32321     32323     32318     32321     32324     32319     32318     32320
     32319     32318     32321     32320     32318     32321     32321     32324     32325
     32321     32324     32326     32321     32324     32327     32322     32321     32323
     32322     32321     32324     32323     32321     32324     32325     32324     32326
     32325     32324     32327     32326     32324     32327     32328     32330     32331
     32328     32330     32332     32328     32330     32333     32329     32328     32330
     32330     32333     32334     32330     32333     32335     32330     32333     32372
     32331     32330     32332     32331     32330     32333     32332     32330     32333
     32333     32335     32336     32333     32372     32373     32333     32372     32374
     32333     32372     32375     32334     32333     32335     32334     32333     32372
     32335     32333     32372     32335     32336     32337     32335     32336     32338
     32336     32338     32339     32336     32338     32340     32336     32338     32341
     32337     32336     32338     32338     32341     32342     32338     32341     32343
     32338     32341     32344     32339     32338     32340     32339     32338     32341
     32340     32338     32341     32341     32344     32345     32341     32344     32346
     32341     32344     32347     32342     32341     32343     32342     32341     32344
     32343     32341     32344     32344     32347     32348     32344     32347     32349
     32344     32347     32350     32345     32344     32346     32345     32344     32347
     32346     32344     32347     32347     32350     32351     32347     32350     32352
     32347     32350     32353     32348     32347     32349     32348     32347     32350
     32349     32347     32350     32350     32353     32354     32350     32353     32355
     32350     32353     32356     32351     32350     32352     32351     32350     32353
     32352     32350     32353     32353     32356     32357     32353     32356     32358
     32353     32356     32359     32354     32353     32355     32354     32353     32356
     32355     32353     32356     32356     32359     32360     32356     32359     32361
     32356     32359     32362     32357     32356     32358     32357     32356     32359
     32358     32356     32359     32359     32362     32363     32359     32362     32364
     32359     32362     32365     32360     32359     32361     32360     32359     32362
     32361     32359     32362     32362     32365     32366     32362     32365     32367
     32362     32365     32368     32363     32362     32364     32363     32362     32365
     32364     32362     32365     32365     32368     32369     32365     32368     32370
     32365     32368     32371     32366     32365     32367     32366     32365     32368
     32367     32365     32368     32369     32368     32370     32369     32368     32371
     32370     32368     32371     32372     32375     32376     32372     32375     32377
     32372     32375     32378     32373     32372     32374     32373     32372     32375
     32374     32372     32375     32375     32378     32379     32375     32378     32380
     32375     32378     32381     32376     32375     32377     32376     32375     32378
     32377     32375     32378     32378     32381     32382     32378     32381     32383
     32378     32381     32384     32379     32378     32380     32379     32378     32381
     32380     32378     32381     32381     32384     32385     32381     32384     32386
     32381     32384     32387     32382     32381     32383     32382     32381     32384
     32383     32381     32384     32384     32387     32388     32384     32387     32389
     32384     32387     32390     32385     32384     32386     32385     32384     32387
     32386     32384     32387     32387     32390     32391     32387     32390     32392
     32387     32390     32393     32388     32387     32389     32388     32387     32390
     32389     32387     32390     32390     32393     32394     32390     32393     32395
     32390     32393     32396     32391     32390     32392     32391     32390     32393
     32392     32390     32393     32393     32396     32397     32393     32396     32398
     32393     32396     32399     32394     32393     32395     32394     32393     32396
     32395     32393     32396     32396     32399     32400     32396     32399     32401
     32396     32399     32402     32397     32396     32398     32397     32396     32399
     32398     32396     32399     32399     32402     32403     32399     32402     32404
     32399     32402     32405     32400     32399     32401     32400     32399     32402
     32401     32399     32402     32403     32402     32404     32403     32402     32405
     32404     32402     32405     32406     32408     32409     32406     32410     32411
     32406     32410     32412     32406     32410     32413     32407     32406     32408
     32407     32406     32410     32408     32406     32410     32410     32413     32414
     32410     32413     32415     32410     32413     32416     32411     32410     32412
     32411     32410     32413     32412     32410     32413     32413     32416     32417
     32413     32416     32418     32413     32416     32419     32414     32413     32415
     32414     32413     32416     32415     32413     32416     32416     32419     32420
     32416     32419     32421     32416     32419     32422     32417     32416     32418
     32417     32416     32419     32418     32416     32419     32419     32422     32423
     32419     32422     32424     32419     32422     32425     32420     32419     32421
     32420     32419     32422     32421     32419     32422     32422     32425     32426
     32422     32425     32427     32422     32425     32428     32423     32422     32424
     32423     32422     32425     32424     32422     32425     32425     32428     32429
     32425     32428     32430     32425     32428     32431     32426     32425     32427
     32426     32425     32428     32427     32425     32428     32428     32431     32432
     32428     32431     32433     32428     32431     32434     32429     32428     32430
     32429     32428     32431     32430     32428     32431     32431     32434     32435
     32431     32434     32436     32431     32434     32437     32432     32431     32433
     32432     32431     32434     32433     32431     32434     32434     32437     32438
     32434     32437     32439     32434     32437     32440     32435     32434     32436
     32435     32434     32437     32436     32434     32437     32437     32440     32441
     32437     32440     32442     32437     32440     32443     32438     32437     32439
     32438     32437     32440     32439     32437     32440     32441     32440     32442
     32441     32440     32443     32442     32440     32443     32444     32446     32447
     32444     32446     32448     32444     32446     32449     32445     32444     32446
     32446     32449     32450     32446     32449     32451     32446     32449     32453
     32447     32446     32448     32447     32446     32449     32448     32446     32449
     32449     32451     32452     32449     32453     32454     32449     32453     32455
     32449     32453     32456     32450     32449     32451     32450     32449     32453
     32451     32449     32453     32453     32456     32457     32453     32456     32458
     32453     32456     32459     32454     32453     32455     32454     32453     32456
     32455     32453     32456     32456     32459     32460     32456     32459     32461
     32456     32459     32462     32457     32456     32458     32457     32456     32459
     32458     32456     32459     32459     32462     32463     32459     32462     32464
     32459     32462     32465     32460     32459     32461     32460     32459     32462
     32461     32459     32462     32462     32465     32466     32462     32465     32467
     32462     32465     32468     32463     32462     32464     32463     32462     32465
     32464     32462     32465     32465     32468     32469     32465     32468     32470
     32465     32468     32471     32466     32465     32467     32466     32465     32468
     32467     32465     32468     32468     32471     32472     32468     32471     32473
     32468     32471     32474     32469     32468     32470     32469     32468     32471
     32470     32468     32471     32471     32474     32475     32471     32474     32476
     32471     32474     32477     32472     32471     32473     32472     32471     32474
     32473     32471     32474     32474     32477     32478     32474     32477     32479
     32474     32477     32480     32475     32474     32476     32475     32474     32477
     32476     32474     32477     32477     32480     32481     32477     32480     32482
     32477     32480     32483     32478     32477     32479     32478     32477     32480
     32479     32477     32480     32480     32483     32484     32480     32483     32485
     32480     32483     32486     32481     32480     32482     32481     32480     32483
     32482     32480     32483     32484     32483     32485     32484     32483     32486
     32485     32483     32486     32487     32490     32493     32487     32490     32494
     32488     32487     32489     32488     32487     32490     32489     32487     32490
     32490     32493     32491     32490     32494     32495     32490     32494     32496
     32490     32494     32497     32491     32500     32497     32491     32500     32501
     32491     32500     32502     32491     32503     32504     32491     32503     32505
     32491     32503     32507     32492     32491     32493     32492     32491     32500
     32492     32491     32503     32493     32490     32494     32493     32491     32500
     32493     32491     32503     32494     32497     32498     32494     32497     32499
     32494     32497     32500     32495     32494     32496     32495     32494     32497
     32496     32494     32497     32497     32499     32515     32497     32500     32501
     32497     32500     32502     32498     32497     32499     32498     32497     32500
     32499     32497     32500     32499     32515     32512     32499     32515     32518
     32499     32515     32519     32500     32491     32503     32500     32502     32539
     32501     32500     32502     32502     32539     32540     32502     32539     32543
     32502     32539     32544     32503     32505     32506     32503     32507     32508
     32503     32507     32509     32503     32507     32510     32504     32503     32505
     32504     32503     32507     32505     32503     32507     32507     32510     32511
     32508     32507     32509     32508     32507     32510     32509     32507     32510
     32512     32515     32518     32512     32515     32519     32513     32512     32514
     32513     32512     32515     32514     32512     32515     32515     32518     32516
     32515     32519     32520     32515     32519     32521     32515     32519     32522
     32516     32526     32522     32516     32526     32527     32516     32526     32528
     32516     32530     32531     32516     32530     32532     32516     32530     32534
     32517     32516     32518     32517     32516     32526     32517     32516     32530
     32518     32515     32519     32518     32516     32526     32518     32516     32530
     32519     32522     32523     32519     32522     32524     32519     32522     32526
     32520     32519     32521     32520     32519     32522     32521     32519     32522
     32522     32524     32525     32522     32526     32527     32522     32526     32528
     32523     32522     32524     32523     32522     32526     32524     32522     32526
     32526     32516     32530     32526     32528     32529     32527     32526     32528
     32530     32532     32533     32530     32534     32535     32530     32534     32536
     32530     32534     32537     32531     32530     32532     32531     32530     32534
     32532     32530     32534     32534     32537     32538     32535     32534     32536
     32535     32534     32537     32536     32534     32537     32539     32543     32541
     32539     32544     32545     32539     32544     32546     32539     32544     32548
     32540     32539     32543     32540     32539     32544     32541     32551     32548
     32541     32551     32552     32541     32551     32553     32541     32558     32559
     32541     32558     32560     32541     32558     32562     32542     32541     32543
     32542     32541     32551     32542     32541     32558     32543     32539     32544
     32543     32541     32551     32543     32541     32558     32544     32546     32547
     32544     32548     32549     32544     32548     32550     32544     32548     32551
     32545     32544     32546     32545     32544     32548     32546     32544     32548
     32548     32550     32567     32548     32551     32552     32548     32551     32553
     32549     32548     32550     32549     32548     32551     32550     32548     32551
     32550     32567     32568     32550     32567     32571     32550     32567     32572
     32551     32541     32558     32551     32553     32554     32552     32551     32553
     32553     32554     32555     32553     32554     32556     32553     32554     32557
     32555     32554     32556     32555     32554     32557     32556     32554     32557
     32558     32560     32561     32558     32562     32563     32558     32562     32564
     32558     32562     32565     32559     32558     32560     32559     32558     32562
     32560     32558     32562     32562     32565     32566     32563     32562     32564
     32563     32562     32565     32564     32562     32565     32567     32571     32569
     32567     32572     32573     32567     32572     32574     32567     32572     32576
     32568     32567     32571     32568     32567     32572     32569     32579     32576
     32569     32579     32580     32569     32579     32581     32569     32586     32587
     32569     32586     32588     32569     32586     32590     32570     32569     32571
     32570     32569     32579     32570     32569     32586     32571     32567     32572
     32571     32569     32579     32571     32569     32586     32572     32574     32575
     32572     32576     32577     32572     32576     32578     32572     32576     32579
     32573     32572     32574     32573     32572     32576     32574     32572     32576
     32576     32578     32620     32576     32579     32580     32576     32579     32581
     32577     32576     32578     32577     32576     32579     32578     32576     32579
     32578     32620     32621     32578     32620     32624     32578     32620     32625
     32579     32569     32586     32579     32581     32582     32580     32579     32581
     32581     32582     32583     32581     32582     32584     32581     32582     32585
     32583     32582     32584     32583     32582     32585     32584     32582     32585
     32586     32588     32589     32586     32590     32591     32586     32590     32592
     32586     32590     32593     32587     32586     32588     32587     32586     32590
     32588     32586     32590     32590     32593     32594     32591     32590     32592
     32591     32590     32593     32592     32590     32593     32593     32594     32595
     32593     32594     32598     32593     32594     32599     32594     32598     32596
     32594     32599     32600     32594     32599     32601     32594     32599     32603
     32595     32594     32598     32595     32594     32599     32596     32607     32603
     32596     32607     32608     32596     32607     32609     32596     32611     32612
     32596     32611     32613     32596     32611     32615     32597     32596     32598
     32597     32596     32607     32597     32596     32611     32598     32594     32599
     32598     32596     32607     32598     32596     32611     32599     32601     32602
     32599     32603     32604     32599     32603     32605     32599     32603     32607
     32600     32599     32601     32600     32599     32603     32601     32599     32603
     32603     32605     32606     32603     32607     32608     32603     32607     32609
     32604     32603     32605     32604     32603     32607     32605     32603     32607
     32607     32596     32611     32607     32609     32610     32608     32607     32609
     32611     32613     32614     32611     32615     32616     32611     32615     32617
     32611     32615     32618     32612     32611     32613     32612     32611     32615
     32613     32611     32615     32615     32618     32619     32616     32615     32617
     32616     32615     32618     32617     32615     32618     32620     32624     32622
     32620     32625     32626     32620     32625     32627     32620     32625     32629
     32621     32620     32624     32621     32620     32625     32622     32632     32629
     32622     32632     32633     32622     32632     32634     32622     32636     32637
     32622     32636     32638     32622     32636     32639     32623     32622     32624
     32623     32622     32632     32623     32622     32636     32624     32620     32625
     32624     32622     32632     32624     32622     32636     32625     32627     32628
     32625     32629     32630     32625     32629     32631     32625     32629     32632
     32626     32625     32627     32626     32625     32629     32627     32625     32629
     32629     32631     32641     32629     32632     32633     32629     32632     32634
     32630     32629     32631     32630     32629     32632     32631     32629     32632
     32631     32641     32642     32631     32641     32645     32631     32641     32646
     32632     32622     32636     32632     32634     32635     32633     32632     32634
     32636     32639     32640     32637     32636     32638     32637     32636     32639
     32638     32636     32639     32641     32645     32643     32641     32646     32647
     32641     32646     32648     32641     32646     32649     32642     32641     32645
     32642     32641     32646     32643     32652     32649     32643     32652     32653
     32643     32652     32654     32643     32656     32657     32643     32656     32658
     32643     32656     32659     32644     32643     32645     32644     32643     32652
     32644     32643     32656     32645     32641     32646     32645     32643     32652
     32645     32643     32656     32646     32648     32661     32646     32649     32650
     32646     32649     32651     32646     32649     32652     32647     32646     32648
     32647     32646     32649     32648     32646     32649     32648     32661     32662
     32648     32661     32665     32648     32661     32666     32649     32651     32704
     32649     32652     32653     32649     32652     32654     32650     32649     32651
     32650     32649     32652     32651     32649     32652     32651     32704     32705
     32651     32704     32708     32651     32704     32709     32652     32643     32656
     32652     32654     32655     32653     32652     32654     32656     32659     32660
     32657     32656     32658     32657     32656     32659     32658     32656     32659
     32661     32665     32663     32661     32666     32667     32661     32666     32668
     32661     32666     32669     32662     32661     32665     32662     32661     32666
     32663     32673     32669     32663     32673     32674     32663     32673     32675
     32663     32677     32678     32663     32677     32679     32663     32677     32680
     32664     32663     32665     32664     32663     32673     32664     32663     32677
     32665     32661     32666     32665     32663     32673     32665     32663     32677
     32666     32668     32682     32666     32669     32670     32666     32669     32671
     32666     32669     32673     32667     32666     32668     32667     32666     32669
     32668     32666     32669     32668     32682     32683     32668     32682     32686
     32668     32682     32687     32669     32671     32672     32669     32673     32674
     32669     32673     32675     32670     32669     32671     32670     32669     32673
     32671     32669     32673     32673     32663     32677     32673     32675     32676
     32674     32673     32675     32677     32680     32681     32678     32677     32679
     32678     32677     32680     32679     32677     32680     32682     32686     32684
     32682     32687     32688     32682     32687     32689     32682     32687     32691
     32683     32682     32686     32683     32682     32687     32684     32695     32691
     32684     32695     32696     32684     32695     32697     32684     32699     32700
     32684     32699     32701     32684     32699     32702     32685     32684     32686
     32685     32684     32695     32685     32684     32699     32686     32682     32687
     32686     32684     32695     32686     32684     32699     32687     32689     32690
     32687     32691     32692     32687     32691     32693     32687     32691     32695
     32688     32687     32689     32688     32687     32691     32689     32687     32691
     32691     32693     32694     32691     32695     32696     32691     32695     32697
     32692     32691     32693     32692     32691     32695     32693     32691     32695
     32695     32684     32699     32695     32697     32698     32696     32695     32697
     32699     32702     32703     32700     32699     32701     32700     32699     32702
     32701     32699     32702     32704     32708     32706     32704     32709     32710
     32704     32709     32711     32704     32709     32713     32705     32704     32708
     32705     32704     32709     32706     32716     32713     32706     32716     32717
     32706     32716     32718     32706     32720     32721     32706     32720     32722
     32706     32720     32723     32707     32706     32708     32707     32706     32716
     32707     32706     32720     32708     32704     32709     32708     32706     32716
     32708     32706     32720     32709     32711     32712     32709     32713     32714
     32709     32713     32715     32709     32713     32716     32710     32709     32711
     32710     32709     32713     32711     32709     32713     32713     32715     32725
     32713     32716     32717     32713     32716     32718     32714     32713     32715
     32714     32713     32716     32715     32713     32716     32715     32725     32726
     32715     32725     32729     32715     32725     32730     32716     32706     32720
     32716     32718     32719     32717     32716     32718     32720     32723     32724
     32721     32720     32722     32721     32720     32723     32722     32720     32723
     32725     32729     32727     32725     32730     32731     32725     32730     32732
     32725     32730     32740     32726     32725     32729     32726     32725     32730
     32727     32743     32740     32727     32743     32744     32727     32743     32745
     32727     32747     32748     32727     32747     32749     32727     32747     32750
     32728     32727     32729     32728     32727     32743     32728     32727     32747
     32729     32725     32730     32729     32727     32743     32729     32727     32747
     32730     32732     32733     32730     32732     32734     32730     32740     32741
     32730     32740     32742     32730     32740     32743     32731     32730     32732
     32731     32730     32740     32732     32730     32740     32732     32734     32735
     32732     32734     32736     32733     32732     32734     32734     32736     32737
     32734     32736     32738     32734     32736     32739     32735     32734     32736
     32737     32736     32738     32737     32736     32739     32738     32736     32739
     32740     32742     32752     32740     32743     32744     32740     32743     32745
     32741     32740     32742     32741     32740     32743     32742     32740     32743
     32742     32752     32753     32742     32752     32756     32742     32752     32757
     32743     32727     32747     32743     32745     32746     32744     32743     32745
     32747     32750     32751     32748     32747     32749     32748     32747     32750
     32749     32747     32750     32752     32756     32754     32752     32757     32758
     32752     32757     32759     32752     32757     32760     32753     32752     32756
     32753     32752     32757     32754     32764     32760     32754     32764     32765
     32754     32764     32766     32754     32768     32769     32754     32768     32770
     32754     32768     32771     32755     32754     32756     32755     32754     32764
     32755     32754     32768     32756     32752     32757     32756     32754     32764
     32756     32754     32768     32757     32759     32773     32757     32760     32761
     32757     32760     32762     32757     32760     32764     32758     32757     32759
     32758     32757     32760     32759     32757     32760     32759     32773     32774
     32759     32773     32777     32759     32773     32778     32760     32762     32763
     32760     32764     32765     32760     32764     32766     32761     32760     32762
     32761     32760     32764     32762     32760     32764     32764     32754     32768
     32764     32766     32767     32765     32764     32766     32768     32771     32772
     32769     32768     32770     32769     32768     32771     32770     32768     32771
     32773     32777     32775     32773     32778     32779     32773     32778     32780
     32773     32778     32781     32774     32773     32777     32774     32773     32778
     32775     32785     32781     32775     32785     32786     32775     32785     32787
     32775     32789     32790     32775     32789     32791     32775     32789     32792
     32776     32775     32777     32776     32775     32785     32776     32775     32789
     32777     32773     32778     32777     32775     32785     32777     32775     32789
     32778     32780     32793     32778     32781     32782     32778     32781     32783
     32778     32781     32785     32779     32778     32780     32779     32778     32781
     32780     32778     32781     32780     32793     32794     32780     32793     32797
     32780     32793     32798     32781     32783     32784     32781     32785     32786
     32781     32785     32787     32782     32781     32783     32782     32781     32785
     32783     32781     32785     32785     32775     32789     32785     32787     32788
     32786     32785     32787     32790     32789     32791     32790     32789     32792
     32791     32789     32792     32793     32797     32795     32793     32798     32799
     32793     32798     32800     32793     32798     32801     32794     32793     32797
     32794     32793     32798     32795     32804     32801     32795     32804     32805
     32795     32804     32806     32795     32808     32809     32795     32808     32810
     32795     32808     32811     32796     32795     32797     32796     32795     32804
     32796     32795     32808     32797     32793     32798     32797     32795     32804
     32797     32795     32808     32798     32800     32812     32798     32801     32802
     32798     32801     32803     32798     32801     32804     32799     32798     32800
     32799     32798     32801     32800     32798     32801     32800     32812     32813
     32800     32812     32816     32800     32812     32817     32801     32803     32840
     32801     32804     32805     32801     32804     32806     32802     32801     32803
     32802     32801     32804     32803     32801     32804     32803     32840     32841
     32803     32840     32844     32803     32840     32845     32804     32795     32808
     32804     32806     32807     32805     32804     32806     32809     32808     32810
     32809     32808     32811     32810     32808     32811     32812     32816     32814
     32812     32817     32818     32812     32817     32819     32812     32817     32827
     32813     32812     32816     32813     32812     32817     32814     32831     32827
     32814     32831     32832     32814     32831     32833     32814     32835     32836
     32814     32835     32837     32814     32835     32838     32815     32814     32816
     32815     32814     32831     32815     32814     32835     32816     32812     32817
     32816     32814     32831     32816     32814     32835     32817     32819     32820
     32817     32819     32821     32817     32827     32828     32817     32827     32829
     32817     32827     32831     32818     32817     32819     32818     32817     32827
     32819     32817     32827     32819     32821     32822     32819     32821     32823
     32820     32819     32821     32821     32823     32824     32821     32823     32825
     32821     32823     32826     32822     32821     32823     32824     32823     32825
     32824     32823     32826     32825     32823     32826     32827     32829     32830
     32827     32831     32832     32827     32831     32833     32828     32827     32829
     32828     32827     32831     32829     32827     32831     32831     32814     32835
     32831     32833     32834     32832     32831     32833     32835     32838     32839
     32836     32835     32837     32836     32835     32838     32837     32835     32838
     32840     32844     32842     32840     32845     32846     32840     32845     32847
     32840     32845     32855     32841     32840     32844     32841     32840     32845
     32842     32858     32855     32842     32858     32859     32842     32858     32860
     32842     32862     32863     32842     32862     32864     32842     32862     32865
     32843     32842     32844     32843     32842     32858     32843     32842     32862
     32844     32840     32845     32844     32842     32858     32844     32842     32862
     32845     32847     32848     32845     32847     32849     32845     32855     32856
     32845     32855     32857     32845     32855     32858     32846     32845     32847
     32846     32845     32855     32847     32845     32855     32847     32849     32850
     32847     32849     32851     32848     32847     32849     32849     32851     32852
     32849     32851     32853     32849     32851     32854     32850     32849     32851
     32852     32851     32853     32852     32851     32854     32853     32851     32854
     32855     32857     32867     32855     32858     32859     32855     32858     32860
     32856     32855     32857     32856     32855     32858     32857     32855     32858
     32857     32867     32868     32857     32867     32871     32857     32867     32872
     32858     32842     32862     32858     32860     32861     32859     32858     32860
     32862     32865     32866     32863     32862     32864     32863     32862     32865
     32864     32862     32865     32867     32871     32869     32867     32872     32873
     32867     32872     32874     32867     32872     32875     32868     32867     32871
     32868     32867     32872     32869     32879     32875     32869     32879     32880
     32869     32879     32881     32869     32883     32884     32869     32883     32885
     32869     32883     32886     32870     32869     32871     32870     32869     32879
     32870     32869     32883     32871     32867     32872     32871     32869     32879
     32871     32869     32883     32872     32874     32888     32872     32875     32876
     32872     32875     32877     32872     32875     32879     32873     32872     32874
     32873     32872     32875     32874     32872     32875     32874     32888     32889
     32874     32888     32892     32874     32888     32893     32875     32877     32878
     32875     32879     32880     32875     32879     32881     32876     32875     32877
     32876     32875     32879     32877     32875     32879     32879     32869     32883
     32879     32881     32882     32880     32879     32881     32883     32886     32887
     32884     32883     32885     32884     32883     32886     32885     32883     32886
     32888     32892     32890     32888     32893     32894     32888     32893     32895
     32888     32893     32896     32889     32888     32892     32889     32888     32893
     32890     32900     32896     32890     32900     32901     32890     32900     32902
     32890     32904     32905     32890     32904     32906     32890     32904     32907
     32891     32890     32892     32891     32890     32900     32891     32890     32904
     32892     32888     32893     32892     32890     32900     32892     32890     32904
     32893     32895     32908     32893     32896     32897     32893     32896     32898
     32893     32896     32900     32894     32893     32895     32894     32893     32896
     32895     32893     32896     32895     32908     32909     32895     32908     32912
     32895     32908     32913     32896     32898     32899     32896     32900     32901
     32896     32900     32902     32897     32896     32898     32897     32896     32900
     32898     32896     32900     32900     32890     32904     32900     32902     32903
     32901     32900     32902     32905     32904     32906     32905     32904     32907
     32906     32904     32907     32908     32912     32910     32908     32913     32914
     32908     32913     32915     32908     32913     32916     32909     32908     32912
     32909     32908     32913     32910     32919     32916     32910     32919     32920
     32910     32919     32921     32910     32923     32924     32910     32923     32925
     32910     32923     32926     32911     32910     32912     32911     32910     32919
     32911     32910     32923     32912     32908     32913     32912     32910     32919
     32912     32910     32923     32913     32915     32927     32913     32916     32917
     32913     32916     32918     32913     32916     32919     32914     32913     32915
     32914     32913     32916     32915     32913     32916     32915     32927     32928
     32915     32927     32931     32915     32927     32932     32916     32918     32955
     32916     32919     32920     32916     32919     32921     32917     32916     32918
     32917     32916     32919     32918     32916     32919     32918     32955     32956
     32918     32955     32959     32918     32955     32960     32919     32910     32923
     32919     32921     32922     32920     32919     32921     32924     32923     32925
     32924     32923     32926     32925     32923     32926     32927     32931     32929
     32927     32932     32933     32927     32932     32934     32927     32932     32942
     32928     32927     32931     32928     32927     32932     32929     32946     32942
     32929     32946     32947     32929     32946     32948     32929     32950     32951
     32929     32950     32952     32929     32950     32953     32930     32929     32931
     32930     32929     32946     32930     32929     32950     32931     32927     32932
     32931     32929     32946     32931     32929     32950     32932     32934     32935
     32932     32934     32936     32932     32942     32943     32932     32942     32944
     32932     32942     32946     32933     32932     32934     32933     32932     32942
     32934     32932     32942     32934     32936     32937     32934     32936     32938
     32935     32934     32936     32936     32938     32939     32936     32938     32940
     32936     32938     32941     32937     32936     32938     32939     32938     32940
     32939     32938     32941     32940     32938     32941     32942     32944     32945
     32942     32946     32947     32942     32946     32948     32943     32942     32944
     32943     32942     32946     32944     32942     32946     32946     32929     32950
     32946     32948     32949     32947     32946     32948     32950     32953     32954
     32951     32950     32952     32951     32950     32953     32952     32950     32953
     32955     32959     32957     32955     32960     32961     32955     32960     32962
     32955     32960     32970     32956     32955     32959     32956     32955     32960
     32957     32973     32970     32957     32973     32974     32957     32973     32975
     32957     32977     32978     32957     32977     32979     32957     32977     32980
     32958     32957     32959     32958     32957     32973     32958     32957     32977
     32959     32955     32960     32959     32957     32973     32959     32957     32977
     32960     32962     32963     32960     32962     32964     32960     32970     32971
     32960     32970     32972     32960     32970     32973     32961     32960     32962
     32961     32960     32970     32962     32960     32970     32962     32964     32965
     32962     32964     32966     32963     32962     32964     32964     32966     32967
     32964     32966     32968     32964     32966     32969     32965     32964     32966
     32967     32966     32968     32967     32966     32969     32968     32966     32969
     32970     32972     32982     32970     32973     32974     32970     32973     32975
     32971     32970     32972     32971     32970     32973     32972     32970     32973
     32972     32982     32983     32972     32982     32986     32972     32982     32987
     32973     32957     32977     32973     32975     32976     32974     32973     32975
     32977     32980     32981     32978     32977     32979     32978     32977     32980
     32979     32977     32980     32982     32986     32984     32982     32987     32988
     32982     32987     32989     32982     32987     32990     32983     32982     32986
     32983     32982     32987     32984     32994     32990     32984     32994     32995
     32984     32994     32996     32984     32998     32999     32984     32998     33000
     32984     32998     33001     32985     32984     32986     32985     32984     32994
     32985     32984     32998     32986     32982     32987     32986     32984     32994
     32986     32984     32998     32987     32989     33003     32987     32990     32991
     32987     32990     32992     32987     32990     32994     32988     32987     32989
     32988     32987     32990     32989     32987     32990     32989     33003     33004
     32989     33003     33007     32989     33003     33008     32990     32992     32993
     32990     32994     32995     32990     32994     32996     32991     32990     32992
     32991     32990     32994     32992     32990     32994     32994     32984     32998
     32994     32996     32997     32995     32994     32996     32998     33001     33002
     32999     32998     33000     32999     32998     33001     33000     32998     33001
     33003     33007     33005     33003     33008     33009     33003     33008     33010
     33003     33008     33011     33004     33003     33007     33004     33003     33008
     33005     33015     33011     33005     33015     33016     33005     33015     33017
     33005     33019     33020     33005     33019     33021     33005     33019     33022
     33006     33005     33007     33006     33005     33015     33006     33005     33019
     33007     33003     33008     33007     33005     33015     33007     33005     33019
     33008     33010     33023     33008     33011     33012     33008     33011     33013
     33008     33011     33015     33009     33008     33010     33009     33008     33011
     33010     33008     33011     33010     33023     33024     33010     33023     33027
     33010     33023     33028     33011     33013     33014     33011     33015     33016
     33011     33015     33017     33012     33011     33013     33012     33011     33015
     33013     33011     33015     33015     33005     33019     33015     33017     33018
     33016     33015     33017     33020     33019     33021     33020     33019     33022
     33021     33019     33022     33023     33027     33025     33023     33028     33029
     33023     33028     33030     33023     33028     33031     33024     33023     33027
     33024     33023     33028     33025     33034     33031     33025     33034     33035
     33025     33034     33036     33025     33038     33039     33025     33038     33040
     33025     33038     33041     33026     33025     33027     33026     33025     33034
     33026     33025     33038     33027     33023     33028     33027     33025     33034
     33027     33025     33038     33028     33030     33042     33028     33031     33032
     33028     33031     33033     33028     33031     33034     33029     33028     33030
     33029     33028     33031     33030     33028     33031     33030     33042     33043
     33030     33042     33046     33030     33042     33047     33031     33033     33070
     33031     33034     33035     33031     33034     33036     33032     33031     33033
     33032     33031     33034     33033     33031     33034     33033     33070     33071
     33033     33070     33074     33033     33070     33075     33034     33025     33038
     33034     33036     33037     33035     33034     33036     33039     33038     33040
     33039     33038     33041     33040     33038     33041     33042     33046     33044
     33042     33047     33048     33042     33047     33049     33042     33047     33057
     33043     33042     33046     33043     33042     33047     33044     33061     33057
     33044     33061     33062     33044     33061     33063     33044     33065     33066
     33044     33065     33067     33044     33065     33068     33045     33044     33046
     33045     33044     33061     33045     33044     33065     33046     33042     33047
     33046     33044     33061     33046     33044     33065     33047     33049     33050
     33047     33049     33051     33047     33057     33058     33047     33057     33059
     33047     33057     33061     33048     33047     33049     33048     33047     33057
     33049     33047     33057     33049     33051     33052     33049     33051     33053
     33050     33049     33051     33051     33053     33054     33051     33053     33055
     33051     33053     33056     33052     33051     33053     33054     33053     33055
     33054     33053     33056     33055     33053     33056     33057     33059     33060
     33057     33061     33062     33057     33061     33063     33058     33057     33059
     33058     33057     33061     33059     33057     33061     33061     33044     33065
     33061     33063     33064     33062     33061     33063     33065     33068     33069
     33066     33065     33067     33066     33065     33068     33067     33065     33068
     33070     33074     33072     33070     33075     33076     33070     33075     33077
     33070     33075     33085     33071     33070     33074     33071     33070     33075
     33072     33088     33085     33072     33088     33089     33072     33088     33090
     33072     33092     33093     33072     33092     33094     33072     33092     33095
     33073     33072     33074     33073     33072     33088     33073     33072     33092
     33074     33070     33075     33074     33072     33088     33074     33072     33092
     33075     33077     33078     33075     33077     33079     33075     33085     33086
     33075     33085     33087     33075     33085     33088     33076     33075     33077
     33076     33075     33085     33077     33075     33085     33077     33079     33080
     33077     33079     33081     33078     33077     33079     33079     33081     33082
     33079     33081     33083     33079     33081     33084     33080     33079     33081
     33082     33081     33083     33082     33081     33084     33083     33081     33084
     33085     33087     33097     33085     33088     33089     33085     33088     33090
     33086     33085     33087     33086     33085     33088     33087     33085     33088
     33087     33097     33098     33087     33097     33101     33087     33097     33102
     33088     33072     33092     33088     33090     33091     33089     33088     33090
     33092     33095     33096     33093     33092     33094     33093     33092     33095
     33094     33092     33095     33097     33101     33099     33097     33102     33103
     33097     33102     33104     33097     33102     33105     33098     33097     33101
     33098     33097     33102     33099     33109     33105     33099     33109     33110
     33099     33109     33111     33099     33113     33114     33099     33113     33115
     33099     33113     33116     33100     33099     33101     33100     33099     33109
     33100     33099     33113     33101     33097     33102     33101     33099     33109
     33101     33099     33113     33102     33104     33118     33102     33105     33106
     33102     33105     33107     33102     33105     33109     33103     33102     33104
     33103     33102     33105     33104     33102     33105     33104     33118     33119
     33104     33118     33122     33104     33118     33123     33105     33107     33108
     33105     33109     33110     33105     33109     33111     33106     33105     33107
     33106     33105     33109     33107     33105     33109     33109     33099     33113
     33109     33111     33112     33110     33109     33111     33113     33116     33117
     33114     33113     33115     33114     33113     33116     33115     33113     33116
     33118     33122     33120     33118     33123     33124     33118     33123     33125
     33118     33123     33126     33119     33118     33122     33119     33118     33123
     33120     33130     33126     33120     33130     33131     33120     33130     33132
     33120     33134     33135     33120     33134     33136     33120     33134     33137
     33121     33120     33122     33121     33120     33130     33121     33120     33134
     33122     33118     33123     33122     33120     33130     33122     33120     33134
     33123     33125     33138     33123     33126     33127     33123     33126     33128
     33123     33126     33130     33124     33123     33125     33124     33123     33126
     33125     33123     33126     33125     33138     33139     33125     33138     33142
     33125     33138     33143     33126     33128     33129     33126     33130     33131
     33126     33130     33132     33127     33126     33128     33127     33126     33130
     33128     33126     33130     33130     33120     33134     33130     33132     33133
     33131     33130     33132     33135     33134     33136     33135     33134     33137
     33136     33134     33137     33138     33142     33140     33138     33143     33144
     33138     33143     33145     33138     33143     33146     33139     33138     33142
     33139     33138     33143     33140     33149     33146     33140     33149     33150
     33140     33149     33151     33140     33153     33154     33140     33153     33155
     33140     33153     33156     33141     33140     33142     33141     33140     33149
     33141     33140     33153     33142     33138     33143     33142     33140     33149
     33142     33140     33153     33143     33145     33157     33143     33146     33147
     33143     33146     33148     33143     33146     33149     33144     33143     33145
     33144     33143     33146     33145     33143     33146     33145     33157     33158
     33145     33157     33161     33145     33157     33162     33146     33148     33185
     33146     33149     33150     33146     33149     33151     33147     33146     33148
     33147     33146     33149     33148     33146     33149     33148     33185     33186
     33148     33185     33189     33148     33185     33190     33149     33140     33153
     33149     33151     33152     33150     33149     33151     33154     33153     33155
     33154     33153     33156     33155     33153     33156     33157     33161     33159
     33157     33162     33163     33157     33162     33164     33157     33162     33172
     33158     33157     33161     33158     33157     33162     33159     33176     33172
     33159     33176     33177     33159     33176     33178     33159     33180     33181
     33159     33180     33182     33159     33180     33183     33160     33159     33161
     33160     33159     33176     33160     33159     33180     33161     33157     33162
     33161     33159     33176     33161     33159     33180     33162     33164     33165
     33162     33164     33166     33162     33172     33173     33162     33172     33174
     33162     33172     33176     33163     33162     33164     33163     33162     33172
     33164     33162     33172     33164     33166     33167     33164     33166     33168
     33165     33164     33166     33166     33168     33169     33166     33168     33170
     33166     33168     33171     33167     33166     33168     33169     33168     33170
     33169     33168     33171     33170     33168     33171     33172     33174     33175
     33172     33176     33177     33172     33176     33178     33173     33172     33174
     33173     33172     33176     33174     33172     33176     33176     33159     33180
     33176     33178     33179     33177     33176     33178     33180     33183     33184
     33181     33180     33182     33181     33180     33183     33182     33180     33183
     33185     33189     33187     33185     33190     33191     33185     33190     33192
     33185     33190     33200     33186     33185     33189     33186     33185     33190
     33187     33203     33200     33187     33203     33204     33187     33203     33205
     33187     33207     33208     33187     33207     33209     33187     33207     33210
     33188     33187     33189     33188     33187     33203     33188     33187     33207
     33189     33185     33190     33189     33187     33203     33189     33187     33207
     33190     33192     33193     33190     33192     33194     33190     33200     33201
     33190     33200     33202     33190     33200     33203     33191     33190     33192
     33191     33190     33200     33192     33190     33200     33192     33194     33195
     33192     33194     33196     33193     33192     33194     33194     33196     33197
     33194     33196     33198     33194     33196     33199     33195     33194     33196
     33197     33196     33198     33197     33196     33199     33198     33196     33199
     33200     33202     33212     33200     33203     33204     33200     33203     33205
     33201     33200     33202     33201     33200     33203     33202     33200     33203
     33202     33212     33213     33202     33212     33216     33202     33212     33217
     33203     33187     33207     33203     33205     33206     33204     33203     33205
     33207     33210     33211     33208     33207     33209     33208     33207     33210
     33209     33207     33210     33212     33216     33214     33212     33217     33218
     33212     33217     33219     33212     33217     33220     33213     33212     33216
     33213     33212     33217     33214     33224     33220     33214     33224     33225
     33214     33224     33226     33214     33228     33229     33214     33228     33230
     33214     33228     33231     33215     33214     33216     33215     33214     33224
     33215     33214     33228     33216     33212     33217     33216     33214     33224
     33216     33214     33228     33217     33219     33233     33217     33220     33221
     33217     33220     33222     33217     33220     33224     33218     33217     33219
     33218     33217     33220     33219     33217     33220     33219     33233     33234
     33219     33233     33237     33219     33233     33238     33220     33222     33223
     33220     33224     33225     33220     33224     33226     33221     33220     33222
     33221     33220     33224     33222     33220     33224     33224     33214     33228
     33224     33226     33227     33225     33224     33226     33228     33231     33232
     33229     33228     33230     33229     33228     33231     33230     33228     33231
     33233     33237     33235     33233     33238     33239     33233     33238     33240
     33233     33238     33241     33234     33233     33237     33234     33233     33238
     33235     33245     33241     33235     33245     33246     33235     33245     33247
     33235     33249     33250     33235     33249     33251     33235     33249     33252
     33236     33235     33237     33236     33235     33245     33236     33235     33249
     33237     33233     33238     33237     33235     33245     33237     33235     33249
     33238     33240     33253     33238     33241     33242     33238     33241     33243
     33238     33241     33245     33239     33238     33240     33239     33238     33241
     33240     33238     33241     33240     33253     33254     33240     33253     33257
     33240     33253     33258     33241     33243     33244     33241     33245     33246
     33241     33245     33247     33242     33241     33243     33242     33241     33245
     33243     33241     33245     33245     33235     33249     33245     33247     33248
     33246     33245     33247     33250     33249     33251     33250     33249     33252
     33251     33249     33252     33253     33257     33255     33253     33258     33259
     33253     33258     33260     33253     33258     33261     33254     33253     33257
     33254     33253     33258     33255     33265     33261     33255     33265     33266
     33255     33265     33267     33255     33269     33270     33255     33269     33271
     33255     33269     33272     33256     33255     33257     33256     33255     33265
     33256     33255     33269     33257     33253     33258     33257     33255     33265
     33257     33255     33269     33258     33260     33273     33258     33261     33262
     33258     33261     33263     33258     33261     33265     33259     33258     33260
     33259     33258     33261     33260     33258     33261     33260     33273     33274
     33260     33273     33277     33260     33273     33278     33261     33263     33264
     33261     33265     33266     33261     33265     33267     33262     33261     33263
     33262     33261     33265     33263     33261     33265     33265     33255     33269
     33265     33267     33268     33266     33265     33267     33270     33269     33271
     33270     33269     33272     33271     33269     33272     33273     33277     33275
     33273     33278     33279     33273     33278     33280     33273     33278     33288
     33274     33273     33277     33274     33273     33278     33275     33292     33288
     33275     33292     33293     33275     33292     33294     33275     33296     33297
     33275     33296     33298     33275     33296     33299     33276     33275     33277
     33276     33275     33292     33276     33275     33296     33277     33273     33278
     33277     33275     33292     33277     33275     33296     33278     33280     33281
     33278     33280     33282     33278     33288     33289     33278     33288     33290
     33278     33288     33292     33279     33278     33280     33279     33278     33288
     33280     33278     33288     33280     33282     33283     33280     33282     33284
     33281     33280     33282     33282     33284     33285     33282     33284     33286
     33282     33284     33287     33283     33282     33284     33285     33284     33286
     33285     33284     33287     33286     33284     33287     33288     33290     33291
     33288     33292     33293     33288     33292     33294     33289     33288     33290
     33289     33288     33292     33290     33288     33292     33292     33275     33296
     33292     33294     33295     33293     33292     33294     33296     33299     33300
     33297     33296     33298     33297     33296     33299     33298     33296     33299
     33301     33303     33302     33301     33303     33304     33301     33303     33305
     33302     33303     33304     33302     33303     33305     33302     33600     33597
     33302     33600     33603     33302     33600     33604     33303     33302     33600
     33303     33305     33306     33303     33305     33307     33303     33305     33314
     33304     33303     33305     33305     33306     33308     33305     33314     33315
     33305     33314     33316     33305     33314     33321     33306     33305     33307
     33306     33305     33314     33306     33308     33309     33306     33308     33310
     33306     33308     33329     33307     33305     33314     33308     33310     33311
     33308     33329     33321     33308     33329     33330     33308     33329     33331
     33309     33308     33310     33309     33308     33329     33310     33308     33329
     33310     33311     33312     33310     33311     33313     33310     33311     33337
     33311     33337     33333     33311     33337     33338     33311     33337     33339
     33312     33311     33313     33312     33311     33337     33313     33311     33337
     33314     33316     33317     33314     33321     33322     33314     33321     33323
     33314     33321     33329     33315     33314     33316     33315     33314     33321
     33316     33314     33321     33316     33317     33318     33316     33317     33319
     33316     33317     33320     33318     33317     33319     33318     33317     33320
     33319     33317     33320     33321     33322     33324     33321     33329     33330
     33321     33329     33331     33322     33321     33323     33322     33321     33329
     33322     33324     33325     33322     33324     33326     33323     33321     33329
     33324     33326     33327     33324     33326     33328     33324     33326     33359
     33325     33324     33326     33326     33359     33360     33326     33359     33361
     33326     33359     33404     33327     33326     33328     33327     33326     33359
     33328     33326     33359     33329     33331     33332     33329     33331     33438
     33330     33329     33331     33331     33438     33439     33331     33438     33440
     33332     33331     33438     33333     33335     33336     33333     33337     33338
     33333     33337     33339     33333     33347     33348     33333     33347     33349
     33333     33347     33355     33334     33333     33335     33334     33333     33337
     33334     33333     33347     33335     33333     33337     33335     33333     33347
     33337     33333     33347     33337     33339     33340     33338     33337     33339
     33339     33340     33341     33339     33340     33342     33339     33340     33355
     33340     33342     33346     33340     33355     33347     33340     33355     33356
     33340     33355     33357     33341     33340     33342     33341     33340     33355
     33342     33340     33355     33342     33346     33343     33342     33346     33344
     33342     33346     33345     33343     33346     33344     33343     33346     33345
     33344     33346     33345     33347     33349     33350     33347     33355     33356
     33347     33355     33357     33348     33347     33349     33348     33347     33355
     33349     33347     33355     33349     33350     33351     33349     33350     33352
     33350     33352     33353     33350     33352     33354     33350     33352     33516
     33351     33350     33352     33352     33516     33517     33352     33516     33518
     33352     33516     33520     33353     33352     33354     33353     33352     33516
     33354     33352     33516     33355     33357     33358     33355     33357     33554
     33356     33355     33357     33357     33554     33555     33357     33554     33556
     33358     33357     33554     33359     33361     33362     33359     33404     33405
     33359     33404     33406     33359     33404     33407     33360     33359     33361
     33360     33359     33404     33361     33359     33404     33361     33362     33363
     33361     33362     33364     33362     33364     33365     33362     33364     33366
     33362     33364     33367     33363     33362     33364     33364     33367     33368
     33364     33367     33369     33364     33367     33370     33365     33364     33366
     33365     33364     33367     33366     33364     33367     33367     33370     33371
     33367     33370     33372     33367     33370     33373     33368     33367     33369
     33368     33367     33370     33369     33367     33370     33370     33373     33374
     33370     33373     33375     33370     33373     33376     33371     33370     33372
     33371     33370     33373     33372     33370     33373     33373     33376     33377
     33373     33376     33378     33373     33376     33379     33374     33373     33375
     33374     33373     33376     33375     33373     33376     33376     33379     33380
     33376     33379     33381     33376     33379     33382     33377     33376     33378
     33377     33376     33379     33378     33376     33379     33379     33382     33383
     33379     33382     33384     33379     33382     33385     33380     33379     33381
     33380     33379     33382     33381     33379     33382     33382     33385     33386
     33382     33385     33387     33382     33385     33388     33383     33382     33384
     33383     33382     33385     33384     33382     33385     33385     33388     33389
     33385     33388     33390     33385     33388     33391     33386     33385     33387
     33386     33385     33388     33387     33385     33388     33388     33391     33392
     33388     33391     33393     33388     33391     33394     33389     33388     33390
     33389     33388     33391     33390     33388     33391     33391     33394     33395
     33391     33394     33396     33391     33394     33397     33392     33391     33393
     33392     33391     33394     33393     33391     33394     33394     33397     33398
     33394     33397     33399     33394     33397     33400     33395     33394     33396
     33395     33394     33397     33396     33394     33397     33397     33400     33401
     33397     33400     33402     33397     33400     33403     33398     33397     33399
     33398     33397     33400     33399     33397     33400     33401     33400     33402
     33401     33400     33403     33402     33400     33403     33404     33407     33408
     33404     33407     33409     33404     33407     33410     33405     33404     33406
     33405     33404     33407     33406     33404     33407     33407     33410     33411
     33407     33410     33412     33407     33410     33413     33408     33407     33409
     33408     33407     33410     33409     33407     33410     33410     33413     33414
     33410     33413     33415     33410     33413     33416     33411     33410     33412
     33411     33410     33413     33412     33410     33413     33413     33416     33417
     33413     33416     33418     33413     33416     33419     33414     33413     33415
     33414     33413     33416     33415     33413     33416     33416     33419     33420
     33416     33419     33421     33416     33419     33422     33417     33416     33418
     33417     33416     33419     33418     33416     33419     33419     33422     33423
     33419     33422     33424     33419     33422     33425     33420     33419     33421
     33420     33419     33422     33421     33419     33422     33422     33425     33426
     33422     33425     33427     33422     33425     33428     33423     33422     33424
     33423     33422     33425     33424     33422     33425     33425     33428     33429
     33425     33428     33430     33425     33428     33431     33426     33425     33427
     33426     33425     33428     33427     33425     33428     33428     33431     33432
     33428     33431     33433     33428     33431     33434     33429     33428     33430
     33429     33428     33431     33430     33428     33431     33431     33434     33435
     33431     33434     33436     33431     33434     33437     33432     33431     33433
     33432     33431     33434     33433     33431     33434     33435     33434     33436
     33435     33434     33437     33436     33434     33437     33438     33440     33441
     33438     33440     33442     33438     33440     33443     33439     33438     33440
     33440     33443     33444     33440     33443     33445     33440     33443     33482
     33441     33440     33442     33441     33440     33443     33442     33440     33443
     33443     33445     33446     33443     33482     33483     33443     33482     33484
     33443     33482     33485     33444     33443     33445     33444     33443     33482
     33445     33443     33482     33445     33446     33447     33445     33446     33448
     33446     33448     33449     33446     33448     33450     33446     33448     33451
     33447     33446     33448     33448     33451     33452     33448     33451     33453
     33448     33451     33454     33449     33448     33450     33449     33448     33451
     33450     33448     33451     33451     33454     33455     33451     33454     33456
     33451     33454     33457     33452     33451     33453     33452     33451     33454
     33453     33451     33454     33454     33457     33458     33454     33457     33459
     33454     33457     33460     33455     33454     33456     33455     33454     33457
     33456     33454     33457     33457     33460     33461     33457     33460     33462
     33457     33460     33463     33458     33457     33459     33458     33457     33460
     33459     33457     33460     33460     33463     33464     33460     33463     33465
     33460     33463     33466     33461     33460     33462     33461     33460     33463
     33462     33460     33463     33463     33466     33467     33463     33466     33468
     33463     33466     33469     33464     33463     33465     33464     33463     33466
     33465     33463     33466     33466     33469     33470     33466     33469     33471
     33466     33469     33472     33467     33466     33468     33467     33466     33469
     33468     33466     33469     33469     33472     33473     33469     33472     33474
     33469     33472     33475     33470     33469     33471     33470     33469     33472
     33471     33469     33472     33472     33475     33476     33472     33475     33477
     33472     33475     33478     33473     33472     33474     33473     33472     33475
     33474     33472     33475     33475     33478     33479     33475     33478     33480
     33475     33478     33481     33476     33475     33477     33476     33475     33478
     33477     33475     33478     33479     33478     33480     33479     33478     33481
     33480     33478     33481     33482     33485     33486     33482     33485     33487
     33482     33485     33488     33483     33482     33484     33483     33482     33485
     33484     33482     33485     33485     33488     33489     33485     33488     33490
     33485     33488     33491     33486     33485     33487     33486     33485     33488
     33487     33485     33488     33488     33491     33492     33488     33491     33493
     33488     33491     33494     33489     33488     33490     33489     33488     33491
     33490     33488     33491     33491     33494     33495     33491     33494     33496
     33491     33494     33497     33492     33491     33493     33492     33491     33494
     33493     33491     33494     33494     33497     33498     33494     33497     33499
     33494     33497     33500     33495     33494     33496     33495     33494     33497
     33496     33494     33497     33497     33500     33501     33497     33500     33502
     33497     33500     33503     33498     33497     33499     33498     33497     33500
     33499     33497     33500     33500     33503     33504     33500     33503     33505
     33500     33503     33506     33501     33500     33502     33501     33500     33503
     33502     33500     33503     33503     33506     33507     33503     33506     33508
     33503     33506     33509     33504     33503     33505     33504     33503     33506
     33505     33503     33506     33506     33509     33510     33506     33509     33511
     33506     33509     33512     33507     33506     33508     33507     33506     33509
     33508     33506     33509     33509     33512     33513     33509     33512     33514
     33509     33512     33515     33510     33509     33511     33510     33509     33512
     33511     33509     33512     33513     33512     33514     33513     33512     33515
     33514     33512     33515     33516     33518     33519     33516     33520     33521
     33516     33520     33522     33516     33520     33523     33517     33516     33518
     33517     33516     33520     33518     33516     33520     33520     33523     33524
     33520     33523     33525     33520     33523     33526     33521     33520     33522
     33521     33520     33523     33522     33520     33523     33523     33526     33527
     33523     33526     33528     33523     33526     33529     33524     33523     33525
     33524     33523     33526     33525     33523     33526     33526     33529     33530
     33526     33529     33531     33526     33529     33532     33527     33526     33528
     33527     33526     33529     33528     33526     33529     33529     33532     33533
     33529     33532     33534     33529     33532     33535     33530     33529     33531
     33530     33529     33532     33531     33529     33532     33532     33535     33536
     33532     33535     33537     33532     33535     33538     33533     33532     33534
     33533     33532     33535     33534     33532     33535     33535     33538     33539
     33535     33538     33540     33535     33538     33541     33536     33535     33537
     33536     33535     33538     33537     33535     33538     33538     33541     33542
     33538     33541     33543     33538     33541     33544     33539     33538     33540
     33539     33538     33541     33540     33538     33541     33541     33544     33545
     33541     33544     33546     33541     33544     33547     33542     33541     33543
     33542     33541     33544     33543     33541     33544     33544     33547     33548
     33544     33547     33549     33544     33547     33550     33545     33544     33546
     33545     33544     33547     33546     33544     33547     33547     33550     33551
     33547     33550     33552     33547     33550     33553     33548     33547     33549
     33548     33547     33550     33549     33547     33550     33551     33550     33552
     33551     33550     33553     33552     33550     33553     33554     33556     33557
     33554     33556     33558     33554     33556     33559     33555     33554     33556
     33556     33559     33560     33556     33559     33561     33556     33559     33563
     33557     33556     33558     33557     33556     33559     33558     33556     33559
     33559     33561     33562     33559     33563     33564     33559     33563     33565
     33559     33563     33566     33560     33559     33561     33560     33559     33563
     33561     33559     33563     33563     33566     33567     33563     33566     33568
     33563     33566     33569     33564     33563     33565     33564     33563     33566
     33565     33563     33566     33566     33569     33570     33566     33569     33571
     33566     33569     33572     33567     33566     33568     33567     33566     33569
     33568     33566     33569     33569     33572     33573     33569     33572     33574
     33569     33572     33575     33570     33569     33571     33570     33569     33572
     33571     33569     33572     33572     33575     33576     33572     33575     33577
     33572     33575     33578     33573     33572     33574     33573     33572     33575
     33574     33572     33575     33575     33578     33579     33575     33578     33580
     33575     33578     33581     33576     33575     33577     33576     33575     33578
     33577     33575     33578     33578     33581     33582     33578     33581     33583
     33578     33581     33584     33579     33578     33580     33579     33578     33581
     33580     33578     33581     33581     33584     33585     33581     33584     33586
     33581     33584     33587     33582     33581     33583     33582     33581     33584
     33583     33581     33584     33584     33587     33588     33584     33587     33589
     33584     33587     33590     33585     33584     33586     33585     33584     33587
     33586     33584     33587     33587     33590     33591     33587     33590     33592
     33587     33590     33593     33588     33587     33589     33588     33587     33590
     33589     33587     33590     33590     33593     33594     33590     33593     33595
     33590     33593     33596     33591     33590     33592     33591     33590     33593
     33592     33590     33593     33594     33593     33595     33594     33593     33596
     33595     33593     33596     33597     33600     33603     33597     33600     33604
     33598     33597     33599     33598     33597     33600     33599     33597     33600
     33600     33603     33601     33600     33604     33605     33600     33604     33606
     33600     33604     33607     33601     33610     33607     33601     33610     33611
     33601     33610     33612     33601     33613     33614     33601     33613     33615
     33601     33613     33617     33602     33601     33603     33602     33601     33610
     33602     33601     33613     33603     33600     33604     33603     33601     33610
     33603     33601     33613     33604     33607     33608     33604     33607     33609
     33604     33607     33610     33605     33604     33606     33605     33604     33607
     33606     33604     33607     33607     33609     33625     33607     33610     33611
     33607     33610     33612     33608     33607     33609     33608     33607     33610
     33609     33607     33610     33609     33625     33622     33609     33625     33628
     33609     33625     33629     33610     33601     33613     33610     33612     33649
     33611     33610     33612     33612     33649     33650     33612     33649     33653
     33612     33649     33654     33613     33615     33616     33613     33617     33618
     33613     33617     33619     33613     33617     33620     33614     33613     33615
     33614     33613     33617     33615     33613     33617     33617     33620     33621
     33618     33617     33619     33618     33617     33620     33619     33617     33620
     33622     33625     33628     33622     33625     33629     33623     33622     33624
     33623     33622     33625     33624     33622     33625     33625     33628     33626
     33625     33629     33630     33625     33629     33631     33625     33629     33632
     33626     33636     33632     33626     33636     33637     33626     33636     33638
     33626     33640     33641     33626     33640     33642     33626     33640     33644
     33627     33626     33628     33627     33626     33636     33627     33626     33640
     33628     33625     33629     33628     33626     33636     33628     33626     33640
     33629     33632     33633     33629     33632     33634     33629     33632     33636
     33630     33629     33631     33630     33629     33632     33631     33629     33632
     33632     33634     33635     33632     33636     33637     33632     33636     33638
     33633     33632     33634     33633     33632     33636     33634     33632     33636
     33636     33626     33640     33636     33638     33639     33637     33636     33638
     33640     33642     33643     33640     33644     33645     33640     33644     33646
     33640     33644     33647     33641     33640     33642     33641     33640     33644
     33642     33640     33644     33644     33647     33648     33645     33644     33646
     33645     33644     33647     33646     33644     33647     33649     33653     33651
     33649     33654     33655     33649     33654     33656     33649     33654     33658
     33650     33649     33653     33650     33649     33654     33651     33661     33658
     33651     33661     33662     33651     33661     33663     33651     33668     33669
     33651     33668     33670     33651     33668     33672     33652     33651     33653
     33652     33651     33661     33652     33651     33668     33653     33649     33654
     33653     33651     33661     33653     33651     33668     33654     33656     33657
     33654     33658     33659     33654     33658     33660     33654     33658     33661
     33655     33654     33656     33655     33654     33658     33656     33654     33658
     33658     33660     33677     33658     33661     33662     33658     33661     33663
     33659     33658     33660     33659     33658     33661     33660     33658     33661
     33660     33677     33678     33660     33677     33681     33660     33677     33682
     33661     33651     33668     33661     33663     33664     33662     33661     33663
     33663     33664     33665     33663     33664     33666     33663     33664     33667
     33665     33664     33666     33665     33664     33667     33666     33664     33667
     33668     33670     33671     33668     33672     33673     33668     33672     33674
     33668     33672     33675     33669     33668     33670     33669     33668     33672
     33670     33668     33672     33672     33675     33676     33673     33672     33674
     33673     33672     33675     33674     33672     33675     33677     33681     33679
     33677     33682     33683     33677     33682     33684     33677     33682     33686
     33678     33677     33681     33678     33677     33682     33679     33689     33686
     33679     33689     33690     33679     33689     33691     33679     33696     33697
     33679     33696     33698     33679     33696     33700     33680     33679     33681
     33680     33679     33689     33680     33679     33696     33681     33677     33682
     33681     33679     33689     33681     33679     33696     33682     33684     33685
     33682     33686     33687     33682     33686     33688     33682     33686     33689
     33683     33682     33684     33683     33682     33686     33684     33682     33686
     33686     33688     33730     33686     33689     33690     33686     33689     33691
     33687     33686     33688     33687     33686     33689     33688     33686     33689
     33688     33730     33731     33688     33730     33734     33688     33730     33735
     33689     33679     33696     33689     33691     33692     33690     33689     33691
     33691     33692     33693     33691     33692     33694     33691     33692     33695
     33693     33692     33694     33693     33692     33695     33694     33692     33695
     33696     33698     33699     33696     33700     33701     33696     33700     33702
     33696     33700     33703     33697     33696     33698     33697     33696     33700
     33698     33696     33700     33700     33703     33704     33701     33700     33702
     33701     33700     33703     33702     33700     33703     33703     33704     33705
     33703     33704     33708     33703     33704     33709     33704     33708     33706
     33704     33709     33710     33704     33709     33711     33704     33709     33713
     33705     33704     33708     33705     33704     33709     33706     33717     33713
     33706     33717     33718     33706     33717     33719     33706     33721     33722
     33706     33721     33723     33706     33721     33725     33707     33706     33708
     33707     33706     33717     33707     33706     33721     33708     33704     33709
     33708     33706     33717     33708     33706     33721     33709     33711     33712
     33709     33713     33714     33709     33713     33715     33709     33713     33717
     33710     33709     33711     33710     33709     33713     33711     33709     33713
     33713     33715     33716     33713     33717     33718     33713     33717     33719
     33714     33713     33715     33714     33713     33717     33715     33713     33717
     33717     33706     33721     33717     33719     33720     33718     33717     33719
     33721     33723     33724     33721     33725     33726     33721     33725     33727
     33721     33725     33728     33722     33721     33723     33722     33721     33725
     33723     33721     33725     33725     33728     33729     33726     33725     33727
     33726     33725     33728     33727     33725     33728     33730     33734     33732
     33730     33735     33736     33730     33735     33737     33730     33735     33739
     33731     33730     33734     33731     33730     33735     33732     33742     33739
     33732     33742     33743     33732     33742     33744     33732     33746     33747
     33732     33746     33748     33732     33746     33749     33733     33732     33734
     33733     33732     33742     33733     33732     33746     33734     33730     33735
     33734     33732     33742     33734     33732     33746     33735     33737     33738
     33735     33739     33740     33735     33739     33741     33735     33739     33742
     33736     33735     33737     33736     33735     33739     33737     33735     33739
     33739     33741     33751     33739     33742     33743     33739     33742     33744
     33740     33739     33741     33740     33739     33742     33741     33739     33742
     33741     33751     33752     33741     33751     33755     33741     33751     33756
     33742     33732     33746     33742     33744     33745     33743     33742     33744
     33746     33749     33750     33747     33746     33748     33747     33746     33749
     33748     33746     33749     33751     33755     33753     33751     33756     33757
     33751     33756     33758     33751     33756     33759     33752     33751     33755
     33752     33751     33756     33753     33762     33759     33753     33762     33763
     33753     33762     33764     33753     33766     33767     33753     33766     33768
     33753     33766     33769     33754     33753     33755     33754     33753     33762
     33754     33753     33766     33755     33751     33756     33755     33753     33762
     33755     33753     33766     33756     33758     33771     33756     33759     33760
     33756     33759     33761     33756     33759     33762     33757     33756     33758
     33757     33756     33759     33758     33756     33759     33758     33771     33772
     33758     33771     33775     33758     33771     33776     33759     33761     33814
     33759     33762     33763     33759     33762     33764     33760     33759     33761
     33760     33759     33762     33761     33759     33762     33761     33814     33815
     33761     33814     33818     33761     33814     33819     33762     33753     33766
     33762     33764     33765     33763     33762     33764     33766     33769     33770
     33767     33766     33768     33767     33766     33769     33768     33766     33769
     33771     33775     33773     33771     33776     33777     33771     33776     33778
     33771     33776     33779     33772     33771     33775     33772     33771     33776
     33773     33783     33779     33773     33783     33784     33773     33783     33785
     33773     33787     33788     33773     33787     33789     33773     33787     33790
     33774     33773     33775     33774     33773     33783     33774     33773     33787
     33775     33771     33776     33775     33773     33783     33775     33773     33787
     33776     33778     33792     33776     33779     33780     33776     33779     33781
     33776     33779     33783     33777     33776     33778     33777     33776     33779
     33778     33776     33779     33778     33792     33793     33778     33792     33796
     33778     33792     33797     33779     33781     33782     33779     33783     33784
     33779     33783     33785     33780     33779     33781     33780     33779     33783
     33781     33779     33783     33783     33773     33787     33783     33785     33786
     33784     33783     33785     33787     33790     33791     33788     33787     33789
     33788     33787     33790     33789     33787     33790     33792     33796     33794
     33792     33797     33798     33792     33797     33799     33792     33797     33801
     33793     33792     33796     33793     33792     33797     33794     33805     33801
     33794     33805     33806     33794     33805     33807     33794     33809     33810
     33794     33809     33811     33794     33809     33812     33795     33794     33796
     33795     33794     33805     33795     33794     33809     33796     33792     33797
     33796     33794     33805     33796     33794     33809     33797     33799     33800
     33797     33801     33802     33797     33801     33803     33797     33801     33805
     33798     33797     33799     33798     33797     33801     33799     33797     33801
     33801     33803     33804     33801     33805     33806     33801     33805     33807
     33802     33801     33803     33802     33801     33805     33803     33801     33805
     33805     33794     33809     33805     33807     33808     33806     33805     33807
     33809     33812     33813     33810     33809     33811     33810     33809     33812
     33811     33809     33812     33814     33818     33816     33814     33819     33820
     33814     33819     33821     33814     33819     33823     33815     33814     33818
     33815     33814     33819     33816     33826     33823     33816     33826     33827
     33816     33826     33828     33816     33830     33831     33816     33830     33832
     33816     33830     33833     33817     33816     33818     33817     33816     33826
     33817     33816     33830     33818     33814     33819     33818     33816     33826
     33818     33816     33830     33819     33821     33822     33819     33823     33824
     33819     33823     33825     33819     33823     33826     33820     33819     33821
     33820     33819     33823     33821     33819     33823     33823     33825     33835
     33823     33826     33827     33823     33826     33828     33824     33823     33825
     33824     33823     33826     33825     33823     33826     33825     33835     33836
     33825     33835     33839     33825     33835     33840     33826     33816     33830
     33826     33828     33829     33827     33826     33828     33830     33833     33834
     33831     33830     33832     33831     33830     33833     33832     33830     33833
     33835     33839     33837     33835     33840     33841     33835     33840     33842
     33835     33840     33850     33836     33835     33839     33836     33835     33840
     33837     33853     33850     33837     33853     33854     33837     33853     33855
     33837     33857     33858     33837     33857     33859     33837     33857     33860
     33838     33837     33839     33838     33837     33853     33838     33837     33857
     33839     33835     33840     33839     33837     33853     33839     33837     33857
     33840     33842     33843     33840     33842     33844     33840     33850     33851
     33840     33850     33852     33840     33850     33853     33841     33840     33842
     33841     33840     33850     33842     33840     33850     33842     33844     33845
     33842     33844     33846     33843     33842     33844     33844     33846     33847
     33844     33846     33848     33844     33846     33849     33845     33844     33846
     33847     33846     33848     33847     33846     33849     33848     33846     33849
     33850     33852     33862     33850     33853     33854     33850     33853     33855
     33851     33850     33852     33851     33850     33853     33852     33850     33853
     33852     33862     33863     33852     33862     33866     33852     33862     33867
     33853     33837     33857     33853     33855     33856     33854     33853     33855
     33857     33860     33861     33858     33857     33859     33858     33857     33860
     33859     33857     33860     33862     33866     33864     33862     33867     33868
     33862     33867     33869     33862     33867     33870     33863     33862     33866
     33863     33862     33867     33864     33874     33870     33864     33874     33875
     33864     33874     33876     33864     33878     33879     33864     33878     33880
     33864     33878     33881     33865     33864     33866     33865     33864     33874
     33865     33864     33878     33866     33862     33867     33866     33864     33874
     33866     33864     33878     33867     33869     33883     33867     33870     33871
     33867     33870     33872     33867     33870     33874     33868     33867     33869
     33868     33867     33870     33869     33867     33870     33869     33883     33884
     33869     33883     33887     33869     33883     33888     33870     33872     33873
     33870     33874     33875     33870     33874     33876     33871     33870     33872
     33871     33870     33874     33872     33870     33874     33874     33864     33878
     33874     33876     33877     33875     33874     33876     33878     33881     33882
     33879     33878     33880     33879     33878     33881     33880     33878     33881
     33883     33887     33885     33883     33888     33889     33883     33888     33890
     33883     33888     33891     33884     33883     33887     33884     33883     33888
     33885     33895     33891     33885     33895     33896     33885     33895     33897
     33885     33899     33900     33885     33899     33901     33885     33899     33902
     33886     33885     33887     33886     33885     33895     33886     33885     33899
     33887     33883     33888     33887     33885     33895     33887     33885     33899
     33888     33890     33903     33888     33891     33892     33888     33891     33893
     33888     33891     33895     33889     33888     33890     33889     33888     33891
     33890     33888     33891     33890     33903     33904     33890     33903     33907
     33890     33903     33908     33891     33893     33894     33891     33895     33896
     33891     33895     33897     33892     33891     33893     33892     33891     33895
     33893     33891     33895     33895     33885     33899     33895     33897     33898
     33896     33895     33897     33900     33899     33901     33900     33899     33902
     33901     33899     33902     33903     33907     33905     33903     33908     33909
     33903     33908     33910     33903     33908     33911     33904     33903     33907
     33904     33903     33908     33905     33914     33911     33905     33914     33915
     33905     33914     33916     33905     33918     33919     33905     33918     33920
     33905     33918     33921     33906     33905     33907     33906     33905     33914
     33906     33905     33918     33907     33903     33908     33907     33905     33914
     33907     33905     33918     33908     33910     33922     33908     33911     33912
     33908     33911     33913     33908     33911     33914     33909     33908     33910
     33909     33908     33911     33910     33908     33911     33910     33922     33923
     33910     33922     33926     33910     33922     33927     33911     33913     33950
     33911     33914     33915     33911     33914     33916     33912     33911     33913
     33912     33911     33914     33913     33911     33914     33913     33950     33951
     33913     33950     33954     33913     33950     33955     33914     33905     33918
     33914     33916     33917     33915     33914     33916     33919     33918     33920
     33919     33918     33921     33920     33918     33921     33922     33926     33924
     33922     33927     33928     33922     33927     33929     33922     33927     33937
     33923     33922     33926     33923     33922     33927     33924     33941     33937
     33924     33941     33942     33924     33941     33943     33924     33945     33946
     33924     33945     33947     33924     33945     33948     33925     33924     33926
     33925     33924     33941     33925     33924     33945     33926     33922     33927
     33926     33924     33941     33926     33924     33945     33927     33929     33930
     33927     33929     33931     33927     33937     33938     33927     33937     33939
     33927     33937     33941     33928     33927     33929     33928     33927     33937
     33929     33927     33937     33929     33931     33932     33929     33931     33933
     33930     33929     33931     33931     33933     33934     33931     33933     33935
     33931     33933     33936     33932     33931     33933     33934     33933     33935
     33934     33933     33936     33935     33933     33936     33937     33939     33940
     33937     33941     33942     33937     33941     33943     33938     33937     33939
     33938     33937     33941     33939     33937     33941     33941     33924     33945
     33941     33943     33944     33942     33941     33943     33945     33948     33949
     33946     33945     33947     33946     33945     33948     33947     33945     33948
     33950     33954     33952     33950     33955     33956     33950     33955     33957
     33950     33955     33965     33951     33950     33954     33951     33950     33955
     33952     33968     33965     33952     33968     33969     33952     33968     33970
     33952     33972     33973     33952     33972     33974     33952     33972     33975
     33953     33952     33954     33953     33952     33968     33953     33952     33972
     33954     33950     33955     33954     33952     33968     33954     33952     33972
     33955     33957     33958     33955     33957     33959     33955     33965     33966
     33955     33965     33967     33955     33965     33968     33956     33955     33957
     33956     33955     33965     33957     33955     33965     33957     33959     33960
     33957     33959     33961     33958     33957     33959     33959     33961     33962
     33959     33961     33963     33959     33961     33964     33960     33959     33961
     33962     33961     33963     33962     33961     33964     33963     33961     33964
     33965     33967     33977     33965     33968     33969     33965     33968     33970
     33966     33965     33967     33966     33965     33968     33967     33965     33968
     33967     33977     33978     33967     33977     33981     33967     33977     33982
     33968     33952     33972     33968     33970     33971     33969     33968     33970
     33972     33975     33976     33973     33972     33974     33973     33972     33975
     33974     33972     33975     33977     33981     33979     33977     33982     33983
     33977     33982     33984     33977     33982     33985     33978     33977     33981
     33978     33977     33982     33979     33989     33985     33979     33989     33990
     33979     33989     33991     33979     33993     33994     33979     33993     33995
     33979     33993     33996     33980     33979     33981     33980     33979     33989
     33980     33979     33993     33981     33977     33982     33981     33979     33989
     33981     33979     33993     33982     33984     33998     33982     33985     33986
     33982     33985     33987     33982     33985     33989     33983     33982     33984
     33983     33982     33985     33984     33982     33985     33984     33998     33999
     33984     33998     34002     33984     33998     34003     33985     33987     33988
     33985     33989     33990     33985     33989     33991     33986     33985     33987
     33986     33985     33989     33987     33985     33989     33989     33979     33993
     33989     33991     33992     33990     33989     33991     33993     33996     33997
     33994     33993     33995     33994     33993     33996     33995     33993     33996
     33998     34002     34000     33998     34003     34004     33998     34003     34005
     33998     34003     34006     33999     33998     34002     33999     33998     34003
     34000     34010     34006     34000     34010     34011     34000     34010     34012
     34000     34014     34015     34000     34014     34016     34000     34014     34017
     34001     34000     34002     34001     34000     34010     34001     34000     34014
     34002     33998     34003     34002     34000     34010     34002     34000     34014
     34003     34005     34018     34003     34006     34007     34003     34006     34008
     34003     34006     34010     34004     34003     34005     34004     34003     34006
     34005     34003     34006     34005     34018     34019     34005     34018     34022
     34005     34018     34023     34006     34008     34009     34006     34010     34011
     34006     34010     34012     34007     34006     34008     34007     34006     34010
     34008     34006     34010     34010     34000     34014     34010     34012     34013
     34011     34010     34012     34015     34014     34016     34015     34014     34017
     34016     34014     34017     34018     34022     34020     34018     34023     34024
     34018     34023     34025     34018     34023     34026     34019     34018     34022
     34019     34018     34023     34020     34029     34026     34020     34029     34030
     34020     34029     34031     34020     34033     34034     34020     34033     34035
     34020     34033     34036     34021     34020     34022     34021     34020     34029
     34021     34020     34033     34022     34018     34023     34022     34020     34029
     34022     34020     34033     34023     34025     34037     34023     34026     34027
     34023     34026     34028     34023     34026     34029     34024     34023     34025
     34024     34023     34026     34025     34023     34026     34025     34037     34038
     34025     34037     34041     34025     34037     34042     34026     34028     34065
     34026     34029     34030     34026     34029     34031     34027     34026     34028
     34027     34026     34029     34028     34026     34029     34028     34065     34066
     34028     34065     34069     34028     34065     34070     34029     34020     34033
     34029     34031     34032     34030     34029     34031     34034     34033     34035
     34034     34033     34036     34035     34033     34036     34037     34041     34039
     34037     34042     34043     34037     34042     34044     34037     34042     34052
     34038     34037     34041     34038     34037     34042     34039     34056     34052
     34039     34056     34057     34039     34056     34058     34039     34060     34061
     34039     34060     34062     34039     34060     34063     34040     34039     34041
     34040     34039     34056     34040     34039     34060     34041     34037     34042
     34041     34039     34056     34041     34039     34060     34042     34044     34045
     34042     34044     34046     34042     34052     34053     34042     34052     34054
     34042     34052     34056     34043     34042     34044     34043     34042     34052
     34044     34042     34052     34044     34046     34047     34044     34046     34048
     34045     34044     34046     34046     34048     34049     34046     34048     34050
     34046     34048     34051     34047     34046     34048     34049     34048     34050
     34049     34048     34051     34050     34048     34051     34052     34054     34055
     34052     34056     34057     34052     34056     34058     34053     34052     34054
     34053     34052     34056     34054     34052     34056     34056     34039     34060
     34056     34058     34059     34057     34056     34058     34060     34063     34064
     34061     34060     34062     34061     34060     34063     34062     34060     34063
     34065     34069     34067     34065     34070     34071     34065     34070     34072
     34065     34070     34080     34066     34065     34069     34066     34065     34070
     34067     34083     34080     34067     34083     34084     34067     34083     34085
     34067     34087     34088     34067     34087     34089     34067     34087     34090
     34068     34067     34069     34068     34067     34083     34068     34067     34087
     34069     34065     34070     34069     34067     34083     34069     34067     34087
     34070     34072     34073     34070     34072     34074     34070     34080     34081
     34070     34080     34082     34070     34080     34083     34071     34070     34072
     34071     34070     34080     34072     34070     34080     34072     34074     34075
     34072     34074     34076     34073     34072     34074     34074     34076     34077
     34074     34076     34078     34074     34076     34079     34075     34074     34076
     34077     34076     34078     34077     34076     34079     34078     34076     34079
     34080     34082     34092     34080     34083     34084     34080     34083     34085
     34081     34080     34082     34081     34080     34083     34082     34080     34083
     34082     34092     34093     34082     34092     34096     34082     34092     34097
     34083     34067     34087     34083     34085     34086     34084     34083     34085
     34087     34090     34091     34088     34087     34089     34088     34087     34090
     34089     34087     34090     34092     34096     34094     34092     34097     34098
     34092     34097     34099     34092     34097     34100     34093     34092     34096
     34093     34092     34097     34094     34104     34100     34094     34104     34105
     34094     34104     34106     34094     34108     34109     34094     34108     34110
     34094     34108     34111     34095     34094     34096     34095     34094     34104
     34095     34094     34108     34096     34092     34097     34096     34094     34104
     34096     34094     34108     34097     34099     34113     34097     34100     34101
     34097     34100     34102     34097     34100     34104     34098     34097     34099
     34098     34097     34100     34099     34097     34100     34099     34113     34114
     34099     34113     34117     34099     34113     34118     34100     34102     34103
     34100     34104     34105     34100     34104     34106     34101     34100     34102
     34101     34100     34104     34102     34100     34104     34104     34094     34108
     34104     34106     34107     34105     34104     34106     34108     34111     34112
     34109     34108     34110     34109     34108     34111     34110     34108     34111
     34113     34117     34115     34113     34118     34119     34113     34118     34120
     34113     34118     34121     34114     34113     34117     34114     34113     34118
     34115     34125     34121     34115     34125     34126     34115     34125     34127
     34115     34129     34130     34115     34129     34131     34115     34129     34132
     34116     34115     34117     34116     34115     34125     34116     34115     34129
     34117     34113     34118     34117     34115     34125     34117     34115     34129
     34118     34120     34133     34118     34121     34122     34118     34121     34123
     34118     34121     34125     34119     34118     34120     34119     34118     34121
     34120     34118     34121     34120     34133     34134     34120     34133     34137
     34120     34133     34138     34121     34123     34124     34121     34125     34126
     34121     34125     34127     34122     34121     34123     34122     34121     34125
     34123     34121     34125     34125     34115     34129     34125     34127     34128
     34126     34125     34127     34130     34129     34131     34130     34129     34132
     34131     34129     34132     34133     34137     34135     34133     34138     34139
     34133     34138     34140     34133     34138     34141     34134     34133     34137
     34134     34133     34138     34135     34144     34141     34135     34144     34145
     34135     34144     34146     34135     34148     34149     34135     34148     34150
     34135     34148     34151     34136     34135     34137     34136     34135     34144
     34136     34135     34148     34137     34133     34138     34137     34135     34144
     34137     34135     34148     34138     34140     34152     34138     34141     34142
     34138     34141     34143     34138     34141     34144     34139     34138     34140
     34139     34138     34141     34140     34138     34141     34140     34152     34153
     34140     34152     34156     34140     34152     34157     34141     34143     34180
     34141     34144     34145     34141     34144     34146     34142     34141     34143
     34142     34141     34144     34143     34141     34144     34143     34180     34181
     34143     34180     34184     34143     34180     34185     34144     34135     34148
     34144     34146     34147     34145     34144     34146     34149     34148     34150
     34149     34148     34151     34150     34148     34151     34152     34156     34154
     34152     34157     34158     34152     34157     34159     34152     34157     34167
     34153     34152     34156     34153     34152     34157     34154     34171     34167
     34154     34171     34172     34154     34171     34173     34154     34175     34176
     34154     34175     34177     34154     34175     34178     34155     34154     34156
     34155     34154     34171     34155     34154     34175     34156     34152     34157
     34156     34154     34171     34156     34154     34175     34157     34159     34160
     34157     34159     34161     34157     34167     34168     34157     34167     34169
     34157     34167     34171     34158     34157     34159     34158     34157     34167
     34159     34157     34167     34159     34161     34162     34159     34161     34163
     34160     34159     34161     34161     34163     34164     34161     34163     34165
     34161     34163     34166     34162     34161     34163     34164     34163     34165
     34164     34163     34166     34165     34163     34166     34167     34169     34170
     34167     34171     34172     34167     34171     34173     34168     34167     34169
     34168     34167     34171     34169     34167     34171     34171     34154     34175
     34171     34173     34174     34172     34171     34173     34175     34178     34179
     34176     34175     34177     34176     34175     34178     34177     34175     34178
     34180     34184     34182     34180     34185     34186     34180     34185     34187
     34180     34185     34195     34181     34180     34184     34181     34180     34185
     34182     34198     34195     34182     34198     34199     34182     34198     34200
     34182     34202     34203     34182     34202     34204     34182     34202     34205
     34183     34182     34184     34183     34182     34198     34183     34182     34202
     34184     34180     34185     34184     34182     34198     34184     34182     34202
     34185     34187     34188     34185     34187     34189     34185     34195     34196
     34185     34195     34197     34185     34195     34198     34186     34185     34187
     34186     34185     34195     34187     34185     34195     34187     34189     34190
     34187     34189     34191     34188     34187     34189     34189     34191     34192
     34189     34191     34193     34189     34191     34194     34190     34189     34191
     34192     34191     34193     34192     34191     34194     34193     34191     34194
     34195     34197     34207     34195     34198     34199     34195     34198     34200
     34196     34195     34197     34196     34195     34198     34197     34195     34198
     34197     34207     34208     34197     34207     34211     34197     34207     34212
     34198     34182     34202     34198     34200     34201     34199     34198     34200
     34202     34205     34206     34203     34202     34204     34203     34202     34205
     34204     34202     34205     34207     34211     34209     34207     34212     34213
     34207     34212     34214     34207     34212     34215     34208     34207     34211
     34208     34207     34212     34209     34219     34215     34209     34219     34220
     34209     34219     34221     34209     34223     34224     34209     34223     34225
     34209     34223     34226     34210     34209     34211     34210     34209     34219
     34210     34209     34223     34211     34207     34212     34211     34209     34219
     34211     34209     34223     34212     34214     34228     34212     34215     34216
     34212     34215     34217     34212     34215     34219     34213     34212     34214
     34213     34212     34215     34214     34212     34215     34214     34228     34229
     34214     34228     34232     34214     34228     34233     34215     34217     34218
     34215     34219     34220     34215     34219     34221     34216     34215     34217
     34216     34215     34219     34217     34215     34219     34219     34209     34223
     34219     34221     34222     34220     34219     34221     34223     34226     34227
     34224     34223     34225     34224     34223     34226     34225     34223     34226
     34228     34232     34230     34228     34233     34234     34228     34233     34235
     34228     34233     34236     34229     34228     34232     34229     34228     34233
     34230     34240     34236     34230     34240     34241     34230     34240     34242
     34230     34244     34245     34230     34244     34246     34230     34244     34247
     34231     34230     34232     34231     34230     34240     34231     34230     34244
     34232     34228     34233     34232     34230     34240     34232     34230     34244
     34233     34235     34248     34233     34236     34237     34233     34236     34238
     34233     34236     34240     34234     34233     34235     34234     34233     34236
     34235     34233     34236     34235     34248     34249     34235     34248     34252
     34235     34248     34253     34236     34238     34239     34236     34240     34241
     34236     34240     34242     34237     34236     34238     34237     34236     34240
     34238     34236     34240     34240     34230     34244     34240     34242     34243
     34241     34240     34242     34245     34244     34246     34245     34244     34247
     34246     34244     34247     34248     34252     34250     34248     34253     34254
     34248     34253     34255     34248     34253     34256     34249     34248     34252
     34249     34248     34253     34250     34259     34256     34250     34259     34260
     34250     34259     34261     34250     34263     34264     34250     34263     34265
     34250     34263     34266     34251     34250     34252     34251     34250     34259
     34251     34250     34263     34252     34248     34253     34252     34250     34259
     34252     34250     34263     34253     34255     34267     34253     34256     34257
     34253     34256     34258     34253     34256     34259     34254     34253     34255
     34254     34253     34256     34255     34253     34256     34255     34267     34268
     34255     34267     34271     34255     34267     34272     34256     34258     34295
     34256     34259     34260     34256     34259     34261     34257     34256     34258
     34257     34256     34259     34258     34256     34259     34258     34295     34296
     34258     34295     34299     34258     34295     34300     34259     34250     34263
     34259     34261     34262     34260     34259     34261     34264     34263     34265
     34264     34263     34266     34265     34263     34266     34267     34271     34269
     34267     34272     34273     34267     34272     34274     34267     34272     34282
     34268     34267     34271     34268     34267     34272     34269     34286     34282
     34269     34286     34287     34269     34286     34288     34269     34290     34291
     34269     34290     34292     34269     34290     34293     34270     34269     34271
     34270     34269     34286     34270     34269     34290     34271     34267     34272
     34271     34269     34286     34271     34269     34290     34272     34274     34275
     34272     34274     34276     34272     34282     34283     34272     34282     34284
     34272     34282     34286     34273     34272     34274     34273     34272     34282
     34274     34272     34282     34274     34276     34277     34274     34276     34278
     34275     34274     34276     34276     34278     34279     34276     34278     34280
     34276     34278     34281     34277     34276     34278     34279     34278     34280
     34279     34278     34281     34280     34278     34281     34282     34284     34285
     34282     34286     34287     34282     34286     34288     34283     34282     34284
     34283     34282     34286     34284     34282     34286     34286     34269     34290
     34286     34288     34289     34287     34286     34288     34290     34293     34294
     34291     34290     34292     34291     34290     34293     34292     34290     34293
     34295     34299     34297     34295     34300     34301     34295     34300     34302
     34295     34300     34310     34296     34295     34299     34296     34295     34300
     34297     34313     34310     34297     34313     34314     34297     34313     34315
     34297     34317     34318     34297     34317     34319     34297     34317     34320
     34298     34297     34299     34298     34297     34313     34298     34297     34317
     34299     34295     34300     34299     34297     34313     34299     34297     34317
     34300     34302     34303     34300     34302     34304     34300     34310     34311
     34300     34310     34312     34300     34310     34313     34301     34300     34302
     34301     34300     34310     34302     34300     34310     34302     34304     34305
     34302     34304     34306     34303     34302     34304     34304     34306     34307
     34304     34306     34308     34304     34306     34309     34305     34304     34306
     34307     34306     34308     34307     34306     34309     34308     34306     34309
     34310     34312     34322     34310     34313     34314     34310     34313     34315
     34311     34310     34312     34311     34310     34313     34312     34310     34313
     34312     34322     34323     34312     34322     34326     34312     34322     34327
     34313     34297     34317     34313     34315     34316     34314     34313     34315
     34317     34320     34321     34318     34317     34319     34318     34317     34320
     34319     34317     34320     34322     34326     34324     34322     34327     34328
     34322     34327     34329     34322     34327     34330     34323     34322     34326
     34323     34322     34327     34324     34334     34330     34324     34334     34335
     34324     34334     34336     34324     34338     34339     34324     34338     34340
     34324     34338     34341     34325     34324     34326     34325     34324     34334
     34325     34324     34338     34326     34322     34327     34326     34324     34334
     34326     34324     34338     34327     34329     34343     34327     34330     34331
     34327     34330     34332     34327     34330     34334     34328     34327     34329
     34328     34327     34330     34329     34327     34330     34329     34343     34344
     34329     34343     34347     34329     34343     34348     34330     34332     34333
     34330     34334     34335     34330     34334     34336     34331     34330     34332
     34331     34330     34334     34332     34330     34334     34334     34324     34338
     34334     34336     34337     34335     34334     34336     34338     34341     34342
     34339     34338     34340     34339     34338     34341     34340     34338     34341
     34343     34347     34345     34343     34348     34349     34343     34348     34350
     34343     34348     34351     34344     34343     34347     34344     34343     34348
     34345     34355     34351     34345     34355     34356     34345     34355     34357
     34345     34359     34360     34345     34359     34361     34345     34359     34362
     34346     34345     34347     34346     34345     34355     34346     34345     34359
     34347     34343     34348     34347     34345     34355     34347     34345     34359
     34348     34350     34363     34348     34351     34352     34348     34351     34353
     34348     34351     34355     34349     34348     34350     34349     34348     34351
     34350     34348     34351     34350     34363     34364     34350     34363     34367
     34350     34363     34368     34351     34353     34354     34351     34355     34356
     34351     34355     34357     34352     34351     34353     34352     34351     34355
     34353     34351     34355     34355     34345     34359     34355     34357     34358
     34356     34355     34357     34360     34359     34361     34360     34359     34362
     34361     34359     34362     34363     34367     34365     34363     34368     34369
     34363     34368     34370     34363     34368     34371     34364     34363     34367
     34364     34363     34368     34365     34375     34371     34365     34375     34376
     34365     34375     34377     34365     34379     34380     34365     34379     34381
     34365     34379     34382     34366     34365     34367     34366     34365     34375
     34366     34365     34379     34367     34363     34368     34367     34365     34375
     34367     34365     34379     34368     34370     34383     34368     34371     34372
     34368     34371     34373     34368     34371     34375     34369     34368     34370
     34369     34368     34371     34370     34368     34371     34370     34383     34384
     34370     34383     34387     34370     34383     34388     34371     34373     34374
     34371     34375     34376     34371     34375     34377     34372     34371     34373
     34372     34371     34375     34373     34371     34375     34375     34365     34379
     34375     34377     34378     34376     34375     34377     34380     34379     34381
     34380     34379     34382     34381     34379     34382     34383     34387     34385
     34383     34388     34389     34383     34388     34390     34383     34388     34398
     34384     34383     34387     34384     34383     34388     34385     34402     34398
     34385     34402     34403     34385     34402     34404     34385     34406     34407
     34385     34406     34408     34385     34406     34409     34386     34385     34387
     34386     34385     34402     34386     34385     34406     34387     34383     34388
     34387     34385     34402     34387     34385     34406     34388     34390     34391
     34388     34390     34392     34388     34398     34399     34388     34398     34400
     34388     34398     34402     34389     34388     34390     34389     34388     34398
     34390     34388     34398     34390     34392     34393     34390     34392     34394
     34391     34390     34392     34392     34394     34395     34392     34394     34396
     34392     34394     34397     34393     34392     34394     34395     34394     34396
     34395     34394     34397     34396     34394     34397     34398     34400     34401
     34398     34402     34403     34398     34402     34404     34399     34398     34400
     34399     34398     34402     34400     34398     34402     34402     34385     34406
     34402     34404     34405     34403     34402     34404     34406     34409     34410
     34407     34406     34408     34407     34406     34409     34408     34406     34409
     34411     34413     34412     34411     34413     34414     34411     34413     34415
     34412     34413     34414     34412     34413     34415     34412     34710     34707
     34412     34710     34713     34412     34710     34714     34413     34412     34710
     34413     34415     34416     34413     34415     34417     34413     34415     34424
     34414     34413     34415     34415     34416     34418     34415     34424     34425
     34415     34424     34426     34415     34424     34431     34416     34415     34417
     34416     34415     34424     34416     34418     34419     34416     34418     34420
     34416     34418     34439     34417     34415     34424     34418     34420     34421
     34418     34439     34431     34418     34439     34440     34418     34439     34441
     34419     34418     34420     34419     34418     34439     34420     34418     34439
     34420     34421     34422     34420     34421     34423     34420     34421     34447
     34421     34447     34443     34421     34447     34448     34421     34447     34449
     34422     34421     34423     34422     34421     34447     34423     34421     34447
     34424     34426     34427     34424     34431     34432     34424     34431     34433
     34424     34431     34439     34425     34424     34426     34425     34424     34431
     34426     34424     34431     34426     34427     34428     34426     34427     34429
     34426     34427     34430     34428     34427     34429     34428     34427     34430
     34429     34427     34430     34431     34432     34434     34431     34439     34440
     34431     34439     34441     34432     34431     34433     34432     34431     34439
     34432     34434     34435     34432     34434     34436     34433     34431     34439
     34434     34436     34437     34434     34436     34438     34434     34436     34469
     34435     34434     34436     34436     34469     34470     34436     34469     34471
     34436     34469     34514     34437     34436     34438     34437     34436     34469
     34438     34436     34469     34439     34441     34442     34439     34441     34548
     34440     34439     34441     34441     34548     34549     34441     34548     34550
     34442     34441     34548     34443     34445     34446     34443     34447     34448
     34443     34447     34449     34443     34457     34458     34443     34457     34459
     34443     34457     34465     34444     34443     34445     34444     34443     34447
     34444     34443     34457     34445     34443     34447     34445     34443     34457
     34447     34443     34457     34447     34449     34450     34448     34447     34449
     34449     34450     34451     34449     34450     34452     34449     34450     34465
     34450     34452     34456     34450     34465     34457     34450     34465     34466
     34450     34465     34467     34451     34450     34452     34451     34450     34465
     34452     34450     34465     34452     34456     34453     34452     34456     34454
     34452     34456     34455     34453     34456     34454     34453     34456     34455
     34454     34456     34455     34457     34459     34460     34457     34465     34466
     34457     34465     34467     34458     34457     34459     34458     34457     34465
     34459     34457     34465     34459     34460     34461     34459     34460     34462
     34460     34462     34463     34460     34462     34464     34460     34462     34626
     34461     34460     34462     34462     34626     34627     34462     34626     34628
     34462     34626     34630     34463     34462     34464     34463     34462     34626
     34464     34462     34626     34465     34467     34468     34465     34467     34664
     34466     34465     34467     34467     34664     34665     34467     34664     34666
     34468     34467     34664     34469     34471     34472     34469     34514     34515
     34469     34514     34516     34469     34514     34517     34470     34469     34471
     34470     34469     34514     34471     34469     34514     34471     34472     34473
     34471     34472     34474     34472     34474     34475     34472     34474     34476
     34472     34474     34477     34473     34472     34474     34474     34477     34478
     34474     34477     34479     34474     34477     34480     34475     34474     34476
     34475     34474     34477     34476     34474     34477     34477     34480     34481
     34477     34480     34482     34477     34480     34483     34478     34477     34479
     34478     34477     34480     34479     34477     34480     34480     34483     34484
     34480     34483     34485     34480     34483     34486     34481     34480     34482
     34481     34480     34483     34482     34480     34483     34483     34486     34487
     34483     34486     34488     34483     34486     34489     34484     34483     34485
     34484     34483     34486     34485     34483     34486     34486     34489     34490
     34486     34489     34491     34486     34489     34492     34487     34486     34488
     34487     34486     34489     34488     34486     34489     34489     34492     34493
     34489     34492     34494     34489     34492     34495     34490     34489     34491
     34490     34489     34492     34491     34489     34492     34492     34495     34496
     34492     34495     34497     34492     34495     34498     34493     34492     34494
     34493     34492     34495     34494     34492     34495     34495     34498     34499
     34495     34498     34500     34495     34498     34501     34496     34495     34497
     34496     34495     34498     34497     34495     34498     34498     34501     34502
     34498     34501     34503     34498     34501     34504     34499     34498     34500
     34499     34498     34501     34500     34498     34501     34501     34504     34505
     34501     34504     34506     34501     34504     34507     34502     34501     34503
     34502     34501     34504     34503     34501     34504     34504     34507     34508
     34504     34507     34509     34504     34507     34510     34505     34504     34506
     34505     34504     34507     34506     34504     34507     34507     34510     34511
     34507     34510     34512     34507     34510     34513     34508     34507     34509
     34508     34507     34510     34509     34507     34510     34511     34510     34512
     34511     34510     34513     34512     34510     34513     34514     34517     34518
     34514     34517     34519     34514     34517     34520     34515     34514     34516
     34515     34514     34517     34516     34514     34517     34517     34520     34521
     34517     34520     34522     34517     34520     34523     34518     34517     34519
     34518     34517     34520     34519     34517     34520     34520     34523     34524
     34520     34523     34525     34520     34523     34526     34521     34520     34522
     34521     34520     34523     34522     34520     34523     34523     34526     34527
     34523     34526     34528     34523     34526     34529     34524     34523     34525
     34524     34523     34526     34525     34523     34526     34526     34529     34530
     34526     34529     34531     34526     34529     34532     34527     34526     34528
     34527     34526     34529     34528     34526     34529     34529     34532     34533
     34529     34532     34534     34529     34532     34535     34530     34529     34531
     34530     34529     34532     34531     34529     34532     34532     34535     34536
     34532     34535     34537     34532     34535     34538     34533     34532     34534
     34533     34532     34535     34534     34532     34535     34535     34538     34539
     34535     34538     34540     34535     34538     34541     34536     34535     34537
     34536     34535     34538     34537     34535     34538     34538     34541     34542
     34538     34541     34543     34538     34541     34544     34539     34538     34540
     34539     34538     34541     34540     34538     34541     34541     34544     34545
     34541     34544     34546     34541     34544     34547     34542     34541     34543
     34542     34541     34544     34543     34541     34544     34545     34544     34546
     34545     34544     34547     34546     34544     34547     34548     34550     34551
     34548     34550     34552     34548     34550     34553     34549     34548     34550
     34550     34553     34554     34550     34553     34555     34550     34553     34592
     34551     34550     34552     34551     34550     34553     34552     34550     34553
     34553     34555     34556     34553     34592     34593     34553     34592     34594
     34553     34592     34595     34554     34553     34555     34554     34553     34592
     34555     34553     34592     34555     34556     34557     34555     34556     34558
     34556     34558     34559     34556     34558     34560     34556     34558     34561
     34557     34556     34558     34558     34561     34562     34558     34561     34563
     34558     34561     34564     34559     34558     34560     34559     34558     34561
     34560     34558     34561     34561     34564     34565     34561     34564     34566
     34561     34564     34567     34562     34561     34563     34562     34561     34564
     34563     34561     34564     34564     34567     34568     34564     34567     34569
     34564     34567     34570     34565     34564     34566     34565     34564     34567
     34566     34564     34567     34567     34570     34571     34567     34570     34572
     34567     34570     34573     34568     34567     34569     34568     34567     34570
     34569     34567     34570     34570     34573     34574     34570     34573     34575
     34570     34573     34576     34571     34570     34572     34571     34570     34573
     34572     34570     34573     34573     34576     34577     34573     34576     34578
     34573     34576     34579     34574     34573     34575     34574     34573     34576
     34575     34573     34576     34576     34579     34580     34576     34579     34581
     34576     34579     34582     34577     34576     34578     34577     34576     34579
     34578     34576     34579     34579     34582     34583     34579     34582     34584
     34579     34582     34585     34580     34579     34581     34580     34579     34582
     34581     34579     34582     34582     34585     34586     34582     34585     34587
     34582     34585     34588     34583     34582     34584     34583     34582     34585
     34584     34582     34585     34585     34588     34589     34585     34588     34590
     34585     34588     34591     34586     34585     34587     34586     34585     34588
     34587     34585     34588     34589     34588     34590     34589     34588     34591
     34590     34588     34591     34592     34595     34596     34592     34595     34597
     34592     34595     34598     34593     34592     34594     34593     34592     34595
     34594     34592     34595     34595     34598     34599     34595     34598     34600
     34595     34598     34601     34596     34595     34597     34596     34595     34598
     34597     34595     34598     34598     34601     34602     34598     34601     34603
     34598     34601     34604     34599     34598     34600     34599     34598     34601
     34600     34598     34601     34601     34604     34605     34601     34604     34606
     34601     34604     34607     34602     34601     34603     34602     34601     34604
     34603     34601     34604     34604     34607     34608     34604     34607     34609
     34604     34607     34610     34605     34604     34606     34605     34604     34607
     34606     34604     34607     34607     34610     34611     34607     34610     34612
     34607     34610     34613     34608     34607     34609     34608     34607     34610
     34609     34607     34610     34610     34613     34614     34610     34613     34615
     34610     34613     34616     34611     34610     34612     34611     34610     34613
     34612     34610     34613     34613     34616     34617     34613     34616     34618
     34613     34616     34619     34614     34613     34615     34614     34613     34616
     34615     34613     34616     34616     34619     34620     34616     34619     34621
     34616     34619     34622     34617     34616     34618     34617     34616     34619
     34618     34616     34619     34619     34622     34623     34619     34622     34624
     34619     34622     34625     34620     34619     34621     34620     34619     34622
     34621     34619     34622     34623     34622     34624     34623     34622     34625
     34624     34622     34625     34626     34628     34629     34626     34630     34631
     34626     34630     34632     34626     34630     34633     34627     34626     34628
     34627     34626     34630     34628     34626     34630     34630     34633     34634
     34630     34633     34635     34630     34633     34636     34631     34630     34632
     34631     34630     34633     34632     34630     34633     34633     34636     34637
     34633     34636     34638     34633     34636     34639     34634     34633     34635
     34634     34633     34636     34635     34633     34636     34636     34639     34640
     34636     34639     34641     34636     34639     34642     34637     34636     34638
     34637     34636     34639     34638     34636     34639     34639     34642     34643
     34639     34642     34644     34639     34642     34645     34640     34639     34641
     34640     34639     34642     34641     34639     34642     34642     34645     34646
     34642     34645     34647     34642     34645     34648     34643     34642     34644
     34643     34642     34645     34644     34642     34645     34645     34648     34649
     34645     34648     34650     34645     34648     34651     34646     34645     34647
     34646     34645     34648     34647     34645     34648     34648     34651     34652
     34648     34651     34653     34648     34651     34654     34649     34648     34650
     34649     34648     34651     34650     34648     34651     34651     34654     34655
     34651     34654     34656     34651     34654     34657     34652     34651     34653
     34652     34651     34654     34653     34651     34654     34654     34657     34658
     34654     34657     34659     34654     34657     34660     34655     34654     34656
     34655     34654     34657     34656     34654     34657     34657     34660     34661
     34657     34660     34662     34657     34660     34663     34658     34657     34659
     34658     34657     34660     34659     34657     34660     34661     34660     34662
     34661     34660     34663     34662     34660     34663     34664     34666     34667
     34664     34666     34668     34664     34666     34669     34665     34664     34666
     34666     34669     34670     34666     34669     34671     34666     34669     34673
     34667     34666     34668     34667     34666     34669     34668     34666     34669
     34669     34671     34672     34669     34673     34674     34669     34673     34675
     34669     34673     34676     34670     34669     34671     34670     34669     34673
     34671     34669     34673     34673     34676     34677     34673     34676     34678
     34673     34676     34679     34674     34673     34675     34674     34673     34676
     34675     34673     34676     34676     34679     34680     34676     34679     34681
     34676     34679     34682     34677     34676     34678     34677     34676     34679
     34678     34676     34679     34679     34682     34683     34679     34682     34684
     34679     34682     34685     34680     34679     34681     34680     34679     34682
     34681     34679     34682     34682     34685     34686     34682     34685     34687
     34682     34685     34688     34683     34682     34684     34683     34682     34685
     34684     34682     34685     34685     34688     34689     34685     34688     34690
     34685     34688     34691     34686     34685     34687     34686     34685     34688
     34687     34685     34688     34688     34691     34692     34688     34691     34693
     34688     34691     34694     34689     34688     34690     34689     34688     34691
     34690     34688     34691     34691     34694     34695     34691     34694     34696
     34691     34694     34697     34692     34691     34693     34692     34691     34694
     34693     34691     34694     34694     34697     34698     34694     34697     34699
     34694     34697     34700     34695     34694     34696     34695     34694     34697
     34696     34694     34697     34697     34700     34701     34697     34700     34702
     34697     34700     34703     34698     34697     34699     34698     34697     34700
     34699     34697     34700     34700     34703     34704     34700     34703     34705
     34700     34703     34706     34701     34700     34702     34701     34700     34703
     34702     34700     34703     34704     34703     34705     34704     34703     34706
     34705     34703     34706     34707     34710     34713     34707     34710     34714
     34708     34707     34709     34708     34707     34710     34709     34707     34710
     34710     34713     34711     34710     34714     34715     34710     34714     34716
     34710     34714     34717     34711     34720     34717     34711     34720     34721
     34711     34720     34722     34711     34723     34724     34711     34723     34725
     34711     34723     34727     34712     34711     34713     34712     34711     34720
     34712     34711     34723     34713     34710     34714     34713     34711     34720
     34713     34711     34723     34714     34717     34718     34714     34717     34719
     34714     34717     34720     34715     34714     34716     34715     34714     34717
     34716     34714     34717     34717     34719     34735     34717     34720     34721
     34717     34720     34722     34718     34717     34719     34718     34717     34720
     34719     34717     34720     34719     34735     34732     34719     34735     34738
     34719     34735     34739     34720     34711     34723     34720     34722     34759
     34721     34720     34722     34722     34759     34760     34722     34759     34763
     34722     34759     34764     34723     34725     34726     34723     34727     34728
     34723     34727     34729     34723     34727     34730     34724     34723     34725
     34724     34723     34727     34725     34723     34727     34727     34730     34731
     34728     34727     34729     34728     34727     34730     34729     34727     34730
     34732     34735     34738     34732     34735     34739     34733     34732     34734
     34733     34732     34735     34734     34732     34735     34735     34738     34736
     34735     34739     34740     34735     34739     34741     34735     34739     34742
     34736     34746     34742     34736     34746     34747     34736     34746     34748
     34736     34750     34751     34736     34750     34752     34736     34750     34754
     34737     34736     34738     34737     34736     34746     34737     34736     34750
     34738     34735     34739     34738     34736     34746     34738     34736     34750
     34739     34742     34743     34739     34742     34744     34739     34742     34746
     34740     34739     34741     34740     34739     34742     34741     34739     34742
     34742     34744     34745     34742     34746     34747     34742     34746     34748
     34743     34742     34744     34743     34742     34746     34744     34742     34746
     34746     34736     34750     34746     34748     34749     34747     34746     34748
     34750     34752     34753     34750     34754     34755     34750     34754     34756
     34750     34754     34757     34751     34750     34752     34751     34750     34754
     34752     34750     34754     34754     34757     34758     34755     34754     34756
     34755     34754     34757     34756     34754     34757     34759     34763     34761
     34759     34764     34765     34759     34764     34766     34759     34764     34768
     34760     34759     34763     34760     34759     34764     34761     34771     34768
     34761     34771     34772     34761     34771     34773     34761     34778     34779
     34761     34778     34780     34761     34778     34782     34762     34761     34763
     34762     34761     34771     34762     34761     34778     34763     34759     34764
     34763     34761     34771     34763     34761     34778     34764     34766     34767
     34764     34768     34769     34764     34768     34770     34764     34768     34771
     34765     34764     34766     34765     34764     34768     34766     34764     34768
     34768     34770     34787     34768     34771     34772     34768     34771     34773
     34769     34768     34770     34769     34768     34771     34770     34768     34771
     34770     34787     34788     34770     34787     34791     34770     34787     34792
     34771     34761     34778     34771     34773     34774     34772     34771     34773
     34773     34774     34775     34773     34774     34776     34773     34774     34777
     34775     34774     34776     34775     34774     34777     34776     34774     34777
     34778     34780     34781     34778     34782     34783     34778     34782     34784
     34778     34782     34785     34779     34778     34780     34779     34778     34782
     34780     34778     34782     34782     34785     34786     34783     34782     34784
     34783     34782     34785     34784     34782     34785     34787     34791     34789
     34787     34792     34793     34787     34792     34794     34787     34792     34796
     34788     34787     34791     34788     34787     34792     34789     34799     34796
     34789     34799     34800     34789     34799     34801     34789     34806     34807
     34789     34806     34808     34789     34806     34810     34790     34789     34791
     34790     34789     34799     34790     34789     34806     34791     34787     34792
     34791     34789     34799     34791     34789     34806     34792     34794     34795
     34792     34796     34797     34792     34796     34798     34792     34796     34799
     34793     34792     34794     34793     34792     34796     34794     34792     34796
     34796     34798     34840     34796     34799     34800     34796     34799     34801
     34797     34796     34798     34797     34796     34799     34798     34796     34799
     34798     34840     34841     34798     34840     34844     34798     34840     34845
     34799     34789     34806     34799     34801     34802     34800     34799     34801
     34801     34802     34803     34801     34802     34804     34801     34802     34805
     34803     34802     34804     34803     34802     34805     34804     34802     34805
     34806     34808     34809     34806     34810     34811     34806     34810     34812
     34806     34810     34813     34807     34806     34808     34807     34806     34810
     34808     34806     34810     34810     34813     34814     34811     34810     34812
     34811     34810     34813     34812     34810     34813     34813     34814     34815
     34813     34814     34818     34813     34814     34819     34814     34818     34816
     34814     34819     34820     34814     34819     34821     34814     34819     34823
     34815     34814     34818     34815     34814     34819     34816     34827     34823
     34816     34827     34828     34816     34827     34829     34816     34831     34832
     34816     34831     34833     34816     34831     34835     34817     34816     34818
     34817     34816     34827     34817     34816     34831     34818     34814     34819
     34818     34816     34827     34818     34816     34831     34819     34821     34822
     34819     34823     34824     34819     34823     34825     34819     34823     34827
     34820     34819     34821     34820     34819     34823     34821     34819     34823
     34823     34825     34826     34823     34827     34828     34823     34827     34829
     34824     34823     34825     34824     34823     34827     34825     34823     34827
     34827     34816     34831     34827     34829     34830     34828     34827     34829
     34831     34833     34834     34831     34835     34836     34831     34835     34837
     34831     34835     34838     34832     34831     34833     34832     34831     34835
     34833     34831     34835     34835     34838     34839     34836     34835     34837
     34836     34835     34838     34837     34835     34838     34840     34844     34842
     34840     34845     34846     34840     34845     34847     34840     34845     34849
     34841     34840     34844     34841     34840     34845     34842     34852     34849
     34842     34852     34853     34842     34852     34854     34842     34856     34857
     34842     34856     34858     34842     34856     34859     34843     34842     34844
     34843     34842     34852     34843     34842     34856     34844     34840     34845
     34844     34842     34852     34844     34842     34856     34845     34847     34848
     34845     34849     34850     34845     34849     34851     34845     34849     34852
     34846     34845     34847     34846     34845     34849     34847     34845     34849
     34849     34851     34861     34849     34852     34853     34849     34852     34854
     34850     34849     34851     34850     34849     34852     34851     34849     34852
     34851     34861     34862     34851     34861     34865     34851     34861     34866
     34852     34842     34856     34852     34854     34855     34853     34852     34854
     34856     34859     34860     34857     34856     34858     34857     34856     34859
     34858     34856     34859     34861     34865     34863     34861     34866     34867
     34861     34866     34868     34861     34866     34869     34862     34861     34865
     34862     34861     34866     34863     34872     34869     34863     34872     34873
     34863     34872     34874     34863     34876     34877     34863     34876     34878
     34863     34876     34879     34864     34863     34865     34864     34863     34872
     34864     34863     34876     34865     34861     34866     34865     34863     34872
     34865     34863     34876     34866     34868     34881     34866     34869     34870
     34866     34869     34871     34866     34869     34872     34867     34866     34868
     34867     34866     34869     34868     34866     34869     34868     34881     34882
     34868     34881     34885     34868     34881     34886     34869     34871     34924
     34869     34872     34873     34869     34872     34874     34870     34869     34871
     34870     34869     34872     34871     34869     34872     34871     34924     34925
     34871     34924     34928     34871     34924     34929     34872     34863     34876
     34872     34874     34875     34873     34872     34874     34876     34879     34880
     34877     34876     34878     34877     34876     34879     34878     34876     34879
     34881     34885     34883     34881     34886     34887     34881     34886     34888
     34881     34886     34889     34882     34881     34885     34882     34881     34886
     34883     34893     34889     34883     34893     34894     34883     34893     34895
     34883     34897     34898     34883     34897     34899     34883     34897     34900
     34884     34883     34885     34884     34883     34893     34884     34883     34897
     34885     34881     34886     34885     34883     34893     34885     34883     34897
     34886     34888     34902     34886     34889     34890     34886     34889     34891
     34886     34889     34893     34887     34886     34888     34887     34886     34889
     34888     34886     34889     34888     34902     34903     34888     34902     34906
     34888     34902     34907     34889     34891     34892     34889     34893     34894
     34889     34893     34895     34890     34889     34891     34890     34889     34893
     34891     34889     34893     34893     34883     34897     34893     34895     34896
     34894     34893     34895     34897     34900     34901     34898     34897     34899
     34898     34897     34900     34899     34897     34900     34902     34906     34904
     34902     34907     34908     34902     34907     34909     34902     34907     34911
     34903     34902     34906     34903     34902     34907     34904     34915     34911
     34904     34915     34916     34904     34915     34917     34904     34919     34920
     34904     34919     34921     34904     34919     34922     34905     34904     34906
     34905     34904     34915     34905     34904     34919     34906     34902     34907
     34906     34904     34915     34906     34904     34919     34907     34909     34910
     34907     34911     34912     34907     34911     34913     34907     34911     34915
     34908     34907     34909     34908     34907     34911     34909     34907     34911
     34911     34913     34914     34911     34915     34916     34911     34915     34917
     34912     34911     34913     34912     34911     34915     34913     34911     34915
     34915     34904     34919     34915     34917     34918     34916     34915     34917
     34919     34922     34923     34920     34919     34921     34920     34919     34922
     34921     34919     34922     34924     34928     34926     34924     34929     34930
     34924     34929     34931     34924     34929     34933     34925     34924     34928
     34925     34924     34929     34926     34936     34933     34926     34936     34937
     34926     34936     34938     34926     34940     34941     34926     34940     34942
     34926     34940     34943     34927     34926     34928     34927     34926     34936
     34927     34926     34940     34928     34924     34929     34928     34926     34936
     34928     34926     34940     34929     34931     34932     34929     34933     34934
     34929     34933     34935     34929     34933     34936     34930     34929     34931
     34930     34929     34933     34931     34929     34933     34933     34935     34945
     34933     34936     34937     34933     34936     34938     34934     34933     34935
     34934     34933     34936     34935     34933     34936     34935     34945     34946
     34935     34945     34949     34935     34945     34950     34936     34926     34940
     34936     34938     34939     34937     34936     34938     34940     34943     34944
     34941     34940     34942     34941     34940     34943     34942     34940     34943
     34945     34949     34947     34945     34950     34951     34945     34950     34952
     34945     34950     34960     34946     34945     34949     34946     34945     34950
     34947     34963     34960     34947     34963     34964     34947     34963     34965
     34947     34967     34968     34947     34967     34969     34947     34967     34970
     34948     34947     34949     34948     34947     34963     34948     34947     34967
     34949     34945     34950     34949     34947     34963     34949     34947     34967
     34950     34952     34953     34950     34952     34954     34950     34960     34961
     34950     34960     34962     34950     34960     34963     34951     34950     34952
     34951     34950     34960     34952     34950     34960     34952     34954     34955
     34952     34954     34956     34953     34952     34954     34954     34956     34957
     34954     34956     34958     34954     34956     34959     34955     34954     34956
     34957     34956     34958     34957     34956     34959     34958     34956     34959
     34960     34962     34972     34960     34963     34964     34960     34963     34965
     34961     34960     34962     34961     34960     34963     34962     34960     34963
     34962     34972     34973     34962     34972     34976     34962     34972     34977
     34963     34947     34967     34963     34965     34966     34964     34963     34965
     34967     34970     34971     34968     34967     34969     34968     34967     34970
     34969     34967     34970     34972     34976     34974     34972     34977     34978
     34972     34977     34979     34972     34977     34980     34973     34972     34976
     34973     34972     34977     34974     34984     34980     34974     34984     34985
     34974     34984     34986     34974     34988     34989     34974     34988     34990
     34974     34988     34991     34975     34974     34976     34975     34974     34984
     34975     34974     34988     34976     34972     34977     34976     34974     34984
     34976     34974     34988     34977     34979     34993     34977     34980     34981
     34977     34980     34982     34977     34980     34984     34978     34977     34979
     34978     34977     34980     34979     34977     34980     34979     34993     34994
     34979     34993     34997     34979     34993     34998     34980     34982     34983
     34980     34984     34985     34980     34984     34986     34981     34980     34982
     34981     34980     34984     34982     34980     34984     34984     34974     34988
     34984     34986     34987     34985     34984     34986     34988     34991     34992
     34989     34988     34990     34989     34988     34991     34990     34988     34991
     34993     34997     34995     34993     34998     34999     34993     34998     35000
     34993     34998     35001     34994     34993     34997     34994     34993     34998
     34995     35005     35001     34995     35005     35006     34995     35005     35007
     34995     35009     35010     34995     35009     35011     34995     35009     35012
     34996     34995     34997     34996     34995     35005     34996     34995     35009
     34997     34993     34998     34997     34995     35005     34997     34995     35009
     34998     35000     35013     34998     35001     35002     34998     35001     35003
     34998     35001     35005     34999     34998     35000     34999     34998     35001
     35000     34998     35001     35000     35013     35014     35000     35013     35017
     35000     35013     35018     35001     35003     35004     35001     35005     35006
     35001     35005     35007     35002     35001     35003     35002     35001     35005
     35003     35001     35005     35005     34995     35009     35005     35007     35008
     35006     35005     35007     35010     35009     35011     35010     35009     35012
     35011     35009     35012     35013     35017     35015     35013     35018     35019
     35013     35018     35020     35013     35018     35021     35014     35013     35017
     35014     35013     35018     35015     35024     35021     35015     35024     35025
     35015     35024     35026     35015     35028     35029     35015     35028     35030
     35015     35028     35031     35016     35015     35017     35016     35015     35024
     35016     35015     35028     35017     35013     35018     35017     35015     35024
     35017     35015     35028     35018     35020     35032     35018     35021     35022
     35018     35021     35023     35018     35021     35024     35019     35018     35020
     35019     35018     35021     35020     35018     35021     35020     35032     35033
     35020     35032     35036     35020     35032     35037     35021     35023     35060
     35021     35024     35025     35021     35024     35026     35022     35021     35023
     35022     35021     35024     35023     35021     35024     35023     35060     35061
     35023     35060     35064     35023     35060     35065     35024     35015     35028
     35024     35026     35027     35025     35024     35026     35029     35028     35030
     35029     35028     35031     35030     35028     35031     35032     35036     35034
     35032     35037     35038     35032     35037     35039     35032     35037     35047
     35033     35032     35036     35033     35032     35037     35034     35051     35047
     35034     35051     35052     35034     35051     35053     35034     35055     35056
     35034     35055     35057     35034     35055     35058     35035     35034     35036
     35035     35034     35051     35035     35034     35055     35036     35032     35037
     35036     35034     35051     35036     35034     35055     35037     35039     35040
     35037     35039     35041     35037     35047     35048     35037     35047     35049
     35037     35047     35051     35038     35037     35039     35038     35037     35047
     35039     35037     35047     35039     35041     35042     35039     35041     35043
     35040     35039     35041     35041     35043     35044     35041     35043     35045
     35041     35043     35046     35042     35041     35043     35044     35043     35045
     35044     35043     35046     35045     35043     35046     35047     35049     35050
     35047     35051     35052     35047     35051     35053     35048     35047     35049
     35048     35047     35051     35049     35047     35051     35051     35034     35055
     35051     35053     35054     35052     35051     35053     35055     35058     35059
     35056     35055     35057     35056     35055     35058     35057     35055     35058
     35060     35064     35062     35060     35065     35066     35060     35065     35067
     35060     35065     35075     35061     35060     35064     35061     35060     35065
     35062     35078     35075     35062     35078     35079     35062     35078     35080
     35062     35082     35083     35062     35082     35084     35062     35082     35085
     35063     35062     35064     35063     35062     35078     35063     35062     35082
     35064     35060     35065     35064     35062     35078     35064     35062     35082
     35065     35067     35068     35065     35067     35069     35065     35075     35076
     35065     35075     35077     35065     35075     35078     35066     35065     35067
     35066     35065     35075     35067     35065     35075     35067     35069     35070
     35067     35069     35071     35068     35067     35069     35069     35071     35072
     35069     35071     35073     35069     35071     35074     35070     35069     35071
     35072     35071     35073     35072     35071     35074     35073     35071     35074
     35075     35077     35087     35075     35078     35079     35075     35078     35080
     35076     35075     35077     35076     35075     35078     35077     35075     35078
     35077     35087     35088     35077     35087     35091     35077     35087     35092
     35078     35062     35082     35078     35080     35081     35079     35078     35080
     35082     35085     35086     35083     35082     35084     35083     35082     35085
     35084     35082     35085     35087     35091     35089     35087     35092     35093
     35087     35092     35094     35087     35092     35095     35088     35087     35091
     35088     35087     35092     35089     35099     35095     35089     35099     35100
     35089     35099     35101     35089     35103     35104     35089     35103     35105
     35089     35103     35106     35090     35089     35091     35090     35089     35099
     35090     35089     35103     35091     35087     35092     35091     35089     35099
     35091     35089     35103     35092     35094     35108     35092     35095     35096
     35092     35095     35097     35092     35095     35099     35093     35092     35094
     35093     35092     35095     35094     35092     35095     35094     35108     35109
     35094     35108     35112     35094     35108     35113     35095     35097     35098
     35095     35099     35100     35095     35099     35101     35096     35095     35097
     35096     35095     35099     35097     35095     35099     35099     35089     35103
     35099     35101     35102     35100     35099     35101     35103     35106     35107
     35104     35103     35105     35104     35103     35106     35105     35103     35106
     35108     35112     35110     35108     35113     35114     35108     35113     35115
     35108     35113     35116     35109     35108     35112     35109     35108     35113
     35110     35120     35116     35110     35120     35121     35110     35120     35122
     35110     35124     35125     35110     35124     35126     35110     35124     35127
     35111     35110     35112     35111     35110     35120     35111     35110     35124
     35112     35108     35113     35112     35110     35120     35112     35110     35124
     35113     35115     35128     35113     35116     35117     35113     35116     35118
     35113     35116     35120     35114     35113     35115     35114     35113     35116
     35115     35113     35116     35115     35128     35129     35115     35128     35132
     35115     35128     35133     35116     35118     35119     35116     35120     35121
     35116     35120     35122     35117     35116     35118     35117     35116     35120
     35118     35116     35120     35120     35110     35124     35120     35122     35123
     35121     35120     35122     35125     35124     35126     35125     35124     35127
     35126     35124     35127     35128     35132     35130     35128     35133     35134
     35128     35133     35135     35128     35133     35136     35129     35128     35132
     35129     35128     35133     35130     35139     35136     35130     35139     35140
     35130     35139     35141     35130     35143     35144     35130     35143     35145
     35130     35143     35146     35131     35130     35132     35131     35130     35139
     35131     35130     35143     35132     35128     35133     35132     35130     35139
     35132     35130     35143     35133     35135     35147     35133     35136     35137
     35133     35136     35138     35133     35136     35139     35134     35133     35135
     35134     35133     35136     35135     35133     35136     35135     35147     35148
     35135     35147     35151     35135     35147     35152     35136     35138     35175
     35136     35139     35140     35136     35139     35141     35137     35136     35138
     35137     35136     35139     35138     35136     35139     35138     35175     35176
     35138     35175     35179     35138     35175     35180     35139     35130     35143
     35139     35141     35142     35140     35139     35141     35144     35143     35145
     35144     35143     35146     35145     35143     35146     35147     35151     35149
     35147     35152     35153     35147     35152     35154     35147     35152     35162
     35148     35147     35151     35148     35147     35152     35149     35166     35162
     35149     35166     35167     35149     35166     35168     35149     35170     35171
     35149     35170     35172     35149     35170     35173     35150     35149     35151
     35150     35149     35166     35150     35149     35170     35151     35147     35152
     35151     35149     35166     35151     35149     35170     35152     35154     35155
     35152     35154     35156     35152     35162     35163     35152     35162     35164
     35152     35162     35166     35153     35152     35154     35153     35152     35162
     35154     35152     35162     35154     35156     35157     35154     35156     35158
     35155     35154     35156     35156     35158     35159     35156     35158     35160
     35156     35158     35161     35157     35156     35158     35159     35158     35160
     35159     35158     35161     35160     35158     35161     35162     35164     35165
     35162     35166     35167     35162     35166     35168     35163     35162     35164
     35163     35162     35166     35164     35162     35166     35166     35149     35170
     35166     35168     35169     35167     35166     35168     35170     35173     35174
     35171     35170     35172     35171     35170     35173     35172     35170     35173
     35175     35179     35177     35175     35180     35181     35175     35180     35182
     35175     35180     35190     35176     35175     35179     35176     35175     35180
     35177     35193     35190     35177     35193     35194     35177     35193     35195
     35177     35197     35198     35177     35197     35199     35177     35197     35200
     35178     35177     35179     35178     35177     35193     35178     35177     35197
     35179     35175     35180     35179     35177     35193     35179     35177     35197
     35180     35182     35183     35180     35182     35184     35180     35190     35191
     35180     35190     35192     35180     35190     35193     35181     35180     35182
     35181     35180     35190     35182     35180     35190     35182     35184     35185
     35182     35184     35186     35183     35182     35184     35184     35186     35187
     35184     35186     35188     35184     35186     35189     35185     35184     35186
     35187     35186     35188     35187     35186     35189     35188     35186     35189
     35190     35192     35202     35190     35193     35194     35190     35193     35195
     35191     35190     35192     35191     35190     35193     35192     35190     35193
     35192     35202     35203     35192     35202     35206     35192     35202     35207
     35193     35177     35197     35193     35195     35196     35194     35193     35195
     35197     35200     35201     35198     35197     35199     35198     35197     35200
     35199     35197     35200     35202     35206     35204     35202     35207     35208
     35202     35207     35209     35202     35207     35210     35203     35202     35206
     35203     35202     35207     35204     35214     35210     35204     35214     35215
     35204     35214     35216     35204     35218     35219     35204     35218     35220
     35204     35218     35221     35205     35204     35206     35205     35204     35214
     35205     35204     35218     35206     35202     35207     35206     35204     35214
     35206     35204     35218     35207     35209     35223     35207     35210     35211
     35207     35210     35212     35207     35210     35214     35208     35207     35209
     35208     35207     35210     35209     35207     35210     35209     35223     35224
     35209     35223     35227     35209     35223     35228     35210     35212     35213
     35210     35214     35215     35210     35214     35216     35211     35210     35212
     35211     35210     35214     35212     35210     35214     35214     35204     35218
     35214     35216     35217     35215     35214     35216     35218     35221     35222
     35219     35218     35220     35219     35218     35221     35220     35218     35221
     35223     35227     35225     35223     35228     35229     35223     35228     35230
     35223     35228     35231     35224     35223     35227     35224     35223     35228
     35225     35235     35231     35225     35235     35236     35225     35235     35237
     35225     35239     35240     35225     35239     35241     35225     35239     35242
     35226     35225     35227     35226     35225     35235     35226     35225     35239
     35227     35223     35228     35227     35225     35235     35227     35225     35239
     35228     35230     35243     35228     35231     35232     35228     35231     35233
     35228     35231     35235     35229     35228     35230     35229     35228     35231
     35230     35228     35231     35230     35243     35244     35230     35243     35247
     35230     35243     35248     35231     35233     35234     35231     35235     35236
     35231     35235     35237     35232     35231     35233     35232     35231     35235
     35233     35231     35235     35235     35225     35239     35235     35237     35238
     35236     35235     35237     35240     35239     35241     35240     35239     35242
     35241     35239     35242     35243     35247     35245     35243     35248     35249
     35243     35248     35250     35243     35248     35251     35244     35243     35247
     35244     35243     35248     35245     35254     35251     35245     35254     35255
     35245     35254     35256     35245     35258     35259     35245     35258     35260
     35245     35258     35261     35246     35245     35247     35246     35245     35254
     35246     35245     35258     35247     35243     35248     35247     35245     35254
     35247     35245     35258     35248     35250     35262     35248     35251     35252
     35248     35251     35253     35248     35251     35254     35249     35248     35250
     35249     35248     35251     35250     35248     35251     35250     35262     35263
     35250     35262     35266     35250     35262     35267     35251     35253     35290
     35251     35254     35255     35251     35254     35256     35252     35251     35253
     35252     35251     35254     35253     35251     35254     35253     35290     35291
     35253     35290     35294     35253     35290     35295     35254     35245     35258
     35254     35256     35257     35255     35254     35256     35259     35258     35260
     35259     35258     35261     35260     35258     35261     35262     35266     35264
     35262     35267     35268     35262     35267     35269     35262     35267     35277
     35263     35262     35266     35263     35262     35267     35264     35281     35277
     35264     35281     35282     35264     35281     35283     35264     35285     35286
     35264     35285     35287     35264     35285     35288     35265     35264     35266
     35265     35264     35281     35265     35264     35285     35266     35262     35267
     35266     35264     35281     35266     35264     35285     35267     35269     35270
     35267     35269     35271     35267     35277     35278     35267     35277     35279
     35267     35277     35281     35268     35267     35269     35268     35267     35277
     35269     35267     35277     35269     35271     35272     35269     35271     35273
     35270     35269     35271     35271     35273     35274     35271     35273     35275
     35271     35273     35276     35272     35271     35273     35274     35273     35275
     35274     35273     35276     35275     35273     35276     35277     35279     35280
     35277     35281     35282     35277     35281     35283     35278     35277     35279
     35278     35277     35281     35279     35277     35281     35281     35264     35285
     35281     35283     35284     35282     35281     35283     35285     35288     35289
     35286     35285     35287     35286     35285     35288     35287     35285     35288
     35290     35294     35292     35290     35295     35296     35290     35295     35297
     35290     35295     35305     35291     35290     35294     35291     35290     35295
     35292     35308     35305     35292     35308     35309     35292     35308     35310
     35292     35312     35313     35292     35312     35314     35292     35312     35315
     35293     35292     35294     35293     35292     35308     35293     35292     35312
     35294     35290     35295     35294     35292     35308     35294     35292     35312
     35295     35297     35298     35295     35297     35299     35295     35305     35306
     35295     35305     35307     35295     35305     35308     35296     35295     35297
     35296     35295     35305     35297     35295     35305     35297     35299     35300
     35297     35299     35301     35298     35297     35299     35299     35301     35302
     35299     35301     35303     35299     35301     35304     35300     35299     35301
     35302     35301     35303     35302     35301     35304     35303     35301     35304
     35305     35307     35317     35305     35308     35309     35305     35308     35310
     35306     35305     35307     35306     35305     35308     35307     35305     35308
     35307     35317     35318     35307     35317     35321     35307     35317     35322
     35308     35292     35312     35308     35310     35311     35309     35308     35310
     35312     35315     35316     35313     35312     35314     35313     35312     35315
     35314     35312     35315     35317     35321     35319     35317     35322     35323
     35317     35322     35324     35317     35322     35325     35318     35317     35321
     35318     35317     35322     35319     35329     35325     35319     35329     35330
     35319     35329     35331     35319     35333     35334     35319     35333     35335
     35319     35333     35336     35320     35319     35321     35320     35319     35329
     35320     35319     35333     35321     35317     35322     35321     35319     35329
     35321     35319     35333     35322     35324     35338     35322     35325     35326
     35322     35325     35327     35322     35325     35329     35323     35322     35324
     35323     35322     35325     35324     35322     35325     35324     35338     35339
     35324     35338     35342     35324     35338     35343     35325     35327     35328
     35325     35329     35330     35325     35329     35331     35326     35325     35327
     35326     35325     35329     35327     35325     35329     35329     35319     35333
     35329     35331     35332     35330     35329     35331     35333     35336     35337
     35334     35333     35335     35334     35333     35336     35335     35333     35336
     35338     35342     35340     35338     35343     35344     35338     35343     35345
     35338     35343     35346     35339     35338     35342     35339     35338     35343
     35340     35350     35346     35340     35350     35351     35340     35350     35352
     35340     35354     35355     35340     35354     35356     35340     35354     35357
     35341     35340     35342     35341     35340     35350     35341     35340     35354
     35342     35338     35343     35342     35340     35350     35342     35340     35354
     35343     35345     35358     35343     35346     35347     35343     35346     35348
     35343     35346     35350     35344     35343     35345     35344     35343     35346
     35345     35343     35346     35345     35358     35359     35345     35358     35362
     35345     35358     35363     35346     35348     35349     35346     35350     35351
     35346     35350     35352     35347     35346     35348     35347     35346     35350
     35348     35346     35350     35350     35340     35354     35350     35352     35353
     35351     35350     35352     35355     35354     35356     35355     35354     35357
     35356     35354     35357     35358     35362     35360     35358     35363     35364
     35358     35363     35365     35358     35363     35366     35359     35358     35362
     35359     35358     35363     35360     35369     35366     35360     35369     35370
     35360     35369     35371     35360     35373     35374     35360     35373     35375
     35360     35373     35376     35361     35360     35362     35361     35360     35369
     35361     35360     35373     35362     35358     35363     35362     35360     35369
     35362     35360     35373     35363     35365     35377     35363     35366     35367
     35363     35366     35368     35363     35366     35369     35364     35363     35365
     35364     35363     35366     35365     35363     35366     35365     35377     35378
     35365     35377     35381     35365     35377     35382     35366     35368     35405
     35366     35369     35370     35366     35369     35371     35367     35366     35368
     35367     35366     35369     35368     35366     35369     35368     35405     35406
     35368     35405     35409     35368     35405     35410     35369     35360     35373
     35369     35371     35372     35370     35369     35371     35374     35373     35375
     35374     35373     35376     35375     35373     35376     35377     35381     35379
     35377     35382     35383     35377     35382     35384     35377     35382     35392
     35378     35377     35381     35378     35377     35382     35379     35396     35392
     35379     35396     35397     35379     35396     35398     35379     35400     35401
     35379     35400     35402     35379     35400     35403     35380     35379     35381
     35380     35379     35396     35380     35379     35400     35381     35377     35382
     35381     35379     35396     35381     35379     35400     35382     35384     35385
     35382     35384     35386     35382     35392     35393     35382     35392     35394
     35382     35392     35396     35383     35382     35384     35383     35382     35392
     35384     35382     35392     35384     35386     35387     35384     35386     35388
     35385     35384     35386     35386     35388     35389     35386     35388     35390
     35386     35388     35391     35387     35386     35388     35389     35388     35390
     35389     35388     35391     35390     35388     35391     35392     35394     35395
     35392     35396     35397     35392     35396     35398     35393     35392     35394
     35393     35392     35396     35394     35392     35396     35396     35379     35400
     35396     35398     35399     35397     35396     35398     35400     35403     35404
     35401     35400     35402     35401     35400     35403     35402     35400     35403
     35405     35409     35407     35405     35410     35411     35405     35410     35412
     35405     35410     35420     35406     35405     35409     35406     35405     35410
     35407     35423     35420     35407     35423     35424     35407     35423     35425
     35407     35427     35428     35407     35427     35429     35407     35427     35430
     35408     35407     35409     35408     35407     35423     35408     35407     35427
     35409     35405     35410     35409     35407     35423     35409     35407     35427
     35410     35412     35413     35410     35412     35414     35410     35420     35421
     35410     35420     35422     35410     35420     35423     35411     35410     35412
     35411     35410     35420     35412     35410     35420     35412     35414     35415
     35412     35414     35416     35413     35412     35414     35414     35416     35417
     35414     35416     35418     35414     35416     35419     35415     35414     35416
     35417     35416     35418     35417     35416     35419     35418     35416     35419
     35420     35422     35432     35420     35423     35424     35420     35423     35425
     35421     35420     35422     35421     35420     35423     35422     35420     35423
     35422     35432     35433     35422     35432     35436     35422     35432     35437
     35423     35407     35427     35423     35425     35426     35424     35423     35425
     35427     35430     35431     35428     35427     35429     35428     35427     35430
     35429     35427     35430     35432     35436     35434     35432     35437     35438
     35432     35437     35439     35432     35437     35440     35433     35432     35436
     35433     35432     35437     35434     35444     35440     35434     35444     35445
     35434     35444     35446     35434     35448     35449     35434     35448     35450
     35434     35448     35451     35435     35434     35436     35435     35434     35444
     35435     35434     35448     35436     35432     35437     35436     35434     35444
     35436     35434     35448     35437     35439     35453     35437     35440     35441
     35437     35440     35442     35437     35440     35444     35438     35437     35439
     35438     35437     35440     35439     35437     35440     35439     35453     35454
     35439     35453     35457     35439     35453     35458     35440     35442     35443
     35440     35444     35445     35440     35444     35446     35441     35440     35442
     35441     35440     35444     35442     35440     35444     35444     35434     35448
     35444     35446     35447     35445     35444     35446     35448     35451     35452
     35449     35448     35450     35449     35448     35451     35450     35448     35451
     35453     35457     35455     35453     35458     35459     35453     35458     35460
     35453     35458     35461     35454     35453     35457     35454     35453     35458
     35455     35465     35461     35455     35465     35466     35455     35465     35467
     35455     35469     35470     35455     35469     35471     35455     35469     35472
     35456     35455     35457     35456     35455     35465     35456     35455     35469
     35457     35453     35458     35457     35455     35465     35457     35455     35469
     35458     35460     35473     35458     35461     35462     35458     35461     35463
     35458     35461     35465     35459     35458     35460     35459     35458     35461
     35460     35458     35461     35460     35473     35474     35460     35473     35477
     35460     35473     35478     35461     35463     35464     35461     35465     35466
     35461     35465     35467     35462     35461     35463     35462     35461     35465
     35463     35461     35465     35465     35455     35469     35465     35467     35468
     35466     35465     35467     35470     35469     35471     35470     35469     35472
     35471     35469     35472     35473     35477     35475     35473     35478     35479
     35473     35478     35480     35473     35478     35481     35474     35473     35477
     35474     35473     35478     35475     35485     35481     35475     35485     35486
     35475     35485     35487     35475     35489     35490     35475     35489     35491
     35475     35489     35492     35476     35475     35477     35476     35475     35485
     35476     35475     35489     35477     35473     35478     35477     35475     35485
     35477     35475     35489     35478     35480     35493     35478     35481     35482
     35478     35481     35483     35478     35481     35485     35479     35478     35480
     35479     35478     35481     35480     35478     35481     35480     35493     35494
     35480     35493     35497     35480     35493     35498     35481     35483     35484
     35481     35485     35486     35481     35485     35487     35482     35481     35483
     35482     35481     35485     35483     35481     35485     35485     35475     35489
     35485     35487     35488     35486     35485     35487     35490     35489     35491
     35490     35489     35492     35491     35489     35492     35493     35497     35495
     35493     35498     35499     35493     35498     35500     35493     35498     35508
     35494     35493     35497     35494     35493     35498     35495     35512     35508
     35495     35512     35513     35495     35512     35514     35495     35516     35517
     35495     35516     35518     35495     35516     35519     35496     35495     35497
     35496     35495     35512     35496     35495     35516     35497     35493     35498
     35497     35495     35512     35497     35495     35516     35498     35500     35501
     35498     35500     35502     35498     35508     35509     35498     35508     35510
     35498     35508     35512     35499     35498     35500     35499     35498     35508
     35500     35498     35508     35500     35502     35503     35500     35502     35504
     35501     35500     35502     35502     35504     35505     35502     35504     35506
     35502     35504     35507     35503     35502     35504     35505     35504     35506
     35505     35504     35507     35506     35504     35507     35508     35510     35511
     35508     35512     35513     35508     35512     35514     35509     35508     35510
     35509     35508     35512     35510     35508     35512     35512     35495     35516
     35512     35514     35515     35513     35512     35514     35516     35519     35520
     35517     35516     35518     35517     35516     35519     35518     35516     35519
     35521     35523     35522     35521     35523     35524     35521     35523     35525
     35522     35523     35524     35522     35523     35525     35522     35820     35817
     35522     35820     35823     35522     35820     35824     35523     35522     35820
     35523     35525     35526     35523     35525     35527     35523     35525     35534
     35524     35523     35525     35525     35526     35528     35525     35534     35535
     35525     35534     35536     35525     35534     35541     35526     35525     35527
     35526     35525     35534     35526     35528     35529     35526     35528     35530
     35526     35528     35549     35527     35525     35534     35528     35530     35531
     35528     35549     35541     35528     35549     35550     35528     35549     35551
     35529     35528     35530     35529     35528     35549     35530     35528     35549
     35530     35531     35532     35530     35531     35533     35530     35531     35557
     35531     35557     35553     35531     35557     35558     35531     35557     35559
     35532     35531     35533     35532     35531     35557     35533     35531     35557
     35534     35536     35537     35534     35541     35542     35534     35541     35543
     35534     35541     35549     35535     35534     35536     35535     35534     35541
     35536     35534     35541     35536     35537     35538     35536     35537     35539
     35536     35537     35540     35538     35537     35539     35538     35537     35540
     35539     35537     35540     35541     35542     35544     35541     35549     35550
     35541     35549     35551     35542     35541     35543     35542     35541     35549
     35542     35544     35545     35542     35544     35546     35543     35541     35549
     35544     35546     35547     35544     35546     35548     35544     35546     35579
     35545     35544     35546     35546     35579     35580     35546     35579     35581
     35546     35579     35624     35547     35546     35548     35547     35546     35579
     35548     35546     35579     35549     35551     35552     35549     35551     35658
     35550     35549     35551     35551     35658     35659     35551     35658     35660
     35552     35551     35658     35553     35555     35556     35553     35557     35558
     35553     35557     35559     35553     35567     35568     35553     35567     35569
     35553     35567     35575     35554     35553     35555     35554     35553     35557
     35554     35553     35567     35555     35553     35557     35555     35553     35567
     35557     35553     35567     35557     35559     35560     35558     35557     35559
     35559     35560     35561     35559     35560     35562     35559     35560     35575
     35560     35562     35566     35560     35575     35567     35560     35575     35576
     35560     35575     35577     35561     35560     35562     35561     35560     35575
     35562     35560     35575     35562     35566     35563     35562     35566     35564
     35562     35566     35565     35563     35566     35564     35563     35566     35565
     35564     35566     35565     35567     35569     35570     35567     35575     35576
     35567     35575     35577     35568     35567     35569     35568     35567     35575
     35569     35567     35575     35569     35570     35571     35569     35570     35572
     35570     35572     35573     35570     35572     35574     35570     35572     35736
     35571     35570     35572     35572     35736     35737     35572     35736     35738
     35572     35736     35740     35573     35572     35574     35573     35572     35736
     35574     35572     35736     35575     35577     35578     35575     35577     35774
     35576     35575     35577     35577     35774     35775     35577     35774     35776
     35578     35577     35774     35579     35581     35582     35579     35624     35625
     35579     35624     35626     35579     35624     35627     35580     35579     35581
     35580     35579     35624     35581     35579     35624     35581     35582     35583
     35581     35582     35584     35582     35584     35585     35582     35584     35586
     35582     35584     35587     35583     35582     35584     35584     35587     35588
     35584     35587     35589     35584     35587     35590     35585     35584     35586
     35585     35584     35587     35586     35584     35587     35587     35590     35591
     35587     35590     35592     35587     35590     35593     35588     35587     35589
     35588     35587     35590     35589     35587     35590     35590     35593     35594
     35590     35593     35595     35590     35593     35596     35591     35590     35592
     35591     35590     35593     35592     35590     35593     35593     35596     35597
     35593     35596     35598     35593     35596     35599     35594     35593     35595
     35594     35593     35596     35595     35593     35596     35596     35599     35600
     35596     35599     35601     35596     35599     35602     35597     35596     35598
     35597     35596     35599     35598     35596     35599     35599     35602     35603
     35599     35602     35604     35599     35602     35605     35600     35599     35601
     35600     35599     35602     35601     35599     35602     35602     35605     35606
     35602     35605     35607     35602     35605     35608     35603     35602     35604
     35603     35602     35605     35604     35602     35605     35605     35608     35609
     35605     35608     35610     35605     35608     35611     35606     35605     35607
     35606     35605     35608     35607     35605     35608     35608     35611     35612
     35608     35611     35613     35608     35611     35614     35609     35608     35610
     35609     35608     35611     35610     35608     35611     35611     35614     35615
     35611     35614     35616     35611     35614     35617     35612     35611     35613
     35612     35611     35614     35613     35611     35614     35614     35617     35618
     35614     35617     35619     35614     35617     35620     35615     35614     35616
     35615     35614     35617     35616     35614     35617     35617     35620     35621
     35617     35620     35622     35617     35620     35623     35618     35617     35619
     35618     35617     35620     35619     35617     35620     35621     35620     35622
     35621     35620     35623     35622     35620     35623     35624     35627     35628
     35624     35627     35629     35624     35627     35630     35625     35624     35626
     35625     35624     35627     35626     35624     35627     35627     35630     35631
     35627     35630     35632     35627     35630     35633     35628     35627     35629
     35628     35627     35630     35629     35627     35630     35630     35633     35634
     35630     35633     35635     35630     35633     35636     35631     35630     35632
     35631     35630     35633     35632     35630     35633     35633     35636     35637
     35633     35636     35638     35633     35636     35639     35634     35633     35635
     35634     35633     35636     35635     35633     35636     35636     35639     35640
     35636     35639     35641     35636     35639     35642     35637     35636     35638
     35637     35636     35639     35638     35636     35639     35639     35642     35643
     35639     35642     35644     35639     35642     35645     35640     35639     35641
     35640     35639     35642     35641     35639     35642     35642     35645     35646
     35642     35645     35647     35642     35645     35648     35643     35642     35644
     35643     35642     35645     35644     35642     35645     35645     35648     35649
     35645     35648     35650     35645     35648     35651     35646     35645     35647
     35646     35645     35648     35647     35645     35648     35648     35651     35652
     35648     35651     35653     35648     35651     35654     35649     35648     35650
     35649     35648     35651     35650     35648     35651     35651     35654     35655
     35651     35654     35656     35651     35654     35657     35652     35651     35653
     35652     35651     35654     35653     35651     35654     35655     35654     35656
     35655     35654     35657     35656     35654     35657     35658     35660     35661
     35658     35660     35662     35658     35660     35663     35659     35658     35660
     35660     35663     35664     35660     35663     35665     35660     35663     35702
     35661     35660     35662     35661     35660     35663     35662     35660     35663
     35663     35665     35666     35663     35702     35703     35663     35702     35704
     35663     35702     35705     35664     35663     35665     35664     35663     35702
     35665     35663     35702     35665     35666     35667     35665     35666     35668
     35666     35668     35669     35666     35668     35670     35666     35668     35671
     35667     35666     35668     35668     35671     35672     35668     35671     35673
     35668     35671     35674     35669     35668     35670     35669     35668     35671
     35670     35668     35671     35671     35674     35675     35671     35674     35676
     35671     35674     35677     35672     35671     35673     35672     35671     35674
     35673     35671     35674     35674     35677     35678     35674     35677     35679
     35674     35677     35680     35675     35674     35676     35675     35674     35677
     35676     35674     35677     35677     35680     35681     35677     35680     35682
     35677     35680     35683     35678     35677     35679     35678     35677     35680
     35679     35677     35680     35680     35683     35684     35680     35683     35685
     35680     35683     35686     35681     35680     35682     35681     35680     35683
     35682     35680     35683     35683     35686     35687     35683     35686     35688
     35683     35686     35689     35684     35683     35685     35684     35683     35686
     35685     35683     35686     35686     35689     35690     35686     35689     35691
     35686     35689     35692     35687     35686     35688     35687     35686     35689
     35688     35686     35689     35689     35692     35693     35689     35692     35694
     35689     35692     35695     35690     35689     35691     35690     35689     35692
     35691     35689     35692     35692     35695     35696     35692     35695     35697
     35692     35695     35698     35693     35692     35694     35693     35692     35695
     35694     35692     35695     35695     35698     35699     35695     35698     35700
     35695     35698     35701     35696     35695     35697     35696     35695     35698
     35697     35695     35698     35699     35698     35700     35699     35698     35701
     35700     35698     35701     35702     35705     35706     35702     35705     35707
     35702     35705     35708     35703     35702     35704     35703     35702     35705
     35704     35702     35705     35705     35708     35709     35705     35708     35710
     35705     35708     35711     35706     35705     35707     35706     35705     35708
     35707     35705     35708     35708     35711     35712     35708     35711     35713
     35708     35711     35714     35709     35708     35710     35709     35708     35711
     35710     35708     35711     35711     35714     35715     35711     35714     35716
     35711     35714     35717     35712     35711     35713     35712     35711     35714
     35713     35711     35714     35714     35717     35718     35714     35717     35719
     35714     35717     35720     35715     35714     35716     35715     35714     35717
     35716     35714     35717     35717     35720     35721     35717     35720     35722
     35717     35720     35723     35718     35717     35719     35718     35717     35720
     35719     35717     35720     35720     35723     35724     35720     35723     35725
     35720     35723     35726     35721     35720     35722     35721     35720     35723
     35722     35720     35723     35723     35726     35727     35723     35726     35728
     35723     35726     35729     35724     35723     35725     35724     35723     35726
     35725     35723     35726     35726     35729     35730     35726     35729     35731
     35726     35729     35732     35727     35726     35728     35727     35726     35729
     35728     35726     35729     35729     35732     35733     35729     35732     35734
     35729     35732     35735     35730     35729     35731     35730     35729     35732
     35731     35729     35732     35733     35732     35734     35733     35732     35735
     35734     35732     35735     35736     35738     35739     35736     35740     35741
     35736     35740     35742     35736     35740     35743     35737     35736     35738
     35737     35736     35740     35738     35736     35740     35740     35743     35744
     35740     35743     35745     35740     35743     35746     35741     35740     35742
     35741     35740     35743     35742     35740     35743     35743     35746     35747
     35743     35746     35748     35743     35746     35749     35744     35743     35745
     35744     35743     35746     35745     35743     35746     35746     35749     35750
     35746     35749     35751     35746     35749     35752     35747     35746     35748
     35747     35746     35749     35748     35746     35749     35749     35752     35753
     35749     35752     35754     35749     35752     35755     35750     35749     35751
     35750     35749     35752     35751     35749     35752     35752     35755     35756
     35752     35755     35757     35752     35755     35758     35753     35752     35754
     35753     35752     35755     35754     35752     35755     35755     35758     35759
     35755     35758     35760     35755     35758     35761     35756     35755     35757
     35756     35755     35758     35757     35755     35758     35758     35761     35762
     35758     35761     35763     35758     35761     35764     35759     35758     35760
     35759     35758     35761     35760     35758     35761     35761     35764     35765
     35761     35764     35766     35761     35764     35767     35762     35761     35763
     35762     35761     35764     35763     35761     35764     35764     35767     35768
     35764     35767     35769     35764     35767     35770     35765     35764     35766
     35765     35764     35767     35766     35764     35767     35767     35770     35771
     35767     35770     35772     35767     35770     35773     35768     35767     35769
     35768     35767     35770     35769     35767     35770     35771     35770     35772
     35771     35770     35773     35772     35770     35773     35774     35776     35777
     35774     35776     35778     35774     35776     35779     35775     35774     35776
     35776     35779     35780     35776     35779     35781     35776     35779     35783
     35777     35776     35778     35777     35776     35779     35778     35776     35779
     35779     35781     35782     35779     35783     35784     35779     35783     35785
     35779     35783     35786     35780     35779     35781     35780     35779     35783
     35781     35779     35783     35783     35786     35787     35783     35786     35788
     35783     35786     35789     35784     35783     35785     35784     35783     35786
     35785     35783     35786     35786     35789     35790     35786     35789     35791
     35786     35789     35792     35787     35786     35788     35787     35786     35789
     35788     35786     35789     35789     35792     35793     35789     35792     35794
     35789     35792     35795     35790     35789     35791     35790     35789     35792
     35791     35789     35792     35792     35795     35796     35792     35795     35797
     35792     35795     35798     35793     35792     35794     35793     35792     35795
     35794     35792     35795     35795     35798     35799     35795     35798     35800
     35795     35798     35801     35796     35795     35797     35796     35795     35798
     35797     35795     35798     35798     35801     35802     35798     35801     35803
     35798     35801     35804     35799     35798     35800     35799     35798     35801
     35800     35798     35801     35801     35804     35805     35801     35804     35806
     35801     35804     35807     35802     35801     35803     35802     35801     35804
     35803     35801     35804     35804     35807     35808     35804     35807     35809
     35804     35807     35810     35805     35804     35806     35805     35804     35807
     35806     35804     35807     35807     35810     35811     35807     35810     35812
     35807     35810     35813     35808     35807     35809     35808     35807     35810
     35809     35807     35810     35810     35813     35814     35810     35813     35815
     35810     35813     35816     35811     35810     35812     35811     35810     35813
     35812     35810     35813     35814     35813     35815     35814     35813     35816
     35815     35813     35816     35817     35820     35823     35817     35820     35824
     35818     35817     35819     35818     35817     35820     35819     35817     35820
     35820     35823     35821     35820     35824     35825     35820     35824     35826
     35820     35824     35827     35821     35830     35827     35821     35830     35831
     35821     35830     35832     35821     35833     35834     35821     35833     35835
     35821     35833     35837     35822     35821     35823     35822     35821     35830
     35822     35821     35833     35823     35820     35824     35823     35821     35830
     35823     35821     35833     35824     35827     35828     35824     35827     35829
     35824     35827     35830     35825     35824     35826     35825     35824     35827
     35826     35824     35827     35827     35829     35845     35827     35830     35831
     35827     35830     35832     35828     35827     35829     35828     35827     35830
     35829     35827     35830     35829     35845     35842     35829     35845     35848
     35829     35845     35849     35830     35821     35833     35830     35832     35869
     35831     35830     35832     35832     35869     35870     35832     35869     35873
     35832     35869     35874     35833     35835     35836     35833     35837     35838
     35833     35837     35839     35833     35837     35840     35834     35833     35835
     35834     35833     35837     35835     35833     35837     35837     35840     35841
     35838     35837     35839     35838     35837     35840     35839     35837     35840
     35842     35845     35848     35842     35845     35849     35843     35842     35844
     35843     35842     35845     35844     35842     35845     35845     35848     35846
     35845     35849     35850     35845     35849     35851     35845     35849     35852
     35846     35856     35852     35846     35856     35857     35846     35856     35858
     35846     35860     35861     35846     35860     35862     35846     35860     35864
     35847     35846     35848     35847     35846     35856     35847     35846     35860
     35848     35845     35849     35848     35846     35856     35848     35846     35860
     35849     35852     35853     35849     35852     35854     35849     35852     35856
     35850     35849     35851     35850     35849     35852     35851     35849     35852
     35852     35854     35855     35852     35856     35857     35852     35856     35858
     35853     35852     35854     35853     35852     35856     35854     35852     35856
     35856     35846     35860     35856     35858     35859     35857     35856     35858
     35860     35862     35863     35860     35864     35865     35860     35864     35866
     35860     35864     35867     35861     35860     35862     35861     35860     35864
     35862     35860     35864     35864     35867     35868     35865     35864     35866
     35865     35864     35867     35866     35864     35867     35869     35873     35871
     35869     35874     35875     35869     35874     35876     35869     35874     35878
     35870     35869     35873     35870     35869     35874     35871     35881     35878
     35871     35881     35882     35871     35881     35883     35871     35888     35889
     35871     35888     35890     35871     35888     35892     35872     35871     35873
     35872     35871     35881     35872     35871     35888     35873     35869     35874
     35873     35871     35881     35873     35871     35888     35874     35876     35877
     35874     35878     35879     35874     35878     35880     35874     35878     35881
     35875     35874     35876     35875     35874     35878     35876     35874     35878
     35878     35880     35897     35878     35881     35882     35878     35881     35883
     35879     35878     35880     35879     35878     35881     35880     35878     35881
     35880     35897     35898     35880     35897     35901     35880     35897     35902
     35881     35871     35888     35881     35883     35884     35882     35881     35883
     35883     35884     35885     35883     35884     35886     35883     35884     35887
     35885     35884     35886     35885     35884     35887     35886     35884     35887
     35888     35890     35891     35888     35892     35893     35888     35892     35894
     35888     35892     35895     35889     35888     35890     35889     35888     35892
     35890     35888     35892     35892     35895     35896     35893     35892     35894
     35893     35892     35895     35894     35892     35895     35897     35901     35899
     35897     35902     35903     35897     35902     35904     35897     35902     35906
     35898     35897     35901     35898     35897     35902     35899     35909     35906
     35899     35909     35910     35899     35909     35911     35899     35916     35917
     35899     35916     35918     35899     35916     35920     35900     35899     35901
     35900     35899     35909     35900     35899     35916     35901     35897     35902
     35901     35899     35909     35901     35899     35916     35902     35904     35905
     35902     35906     35907     35902     35906     35908     35902     35906     35909
     35903     35902     35904     35903     35902     35906     35904     35902     35906
     35906     35908     35950     35906     35909     35910     35906     35909     35911
     35907     35906     35908     35907     35906     35909     35908     35906     35909
     35908     35950     35951     35908     35950     35954     35908     35950     35955
     35909     35899     35916     35909     35911     35912     35910     35909     35911
     35911     35912     35913     35911     35912     35914     35911     35912     35915
     35913     35912     35914     35913     35912     35915     35914     35912     35915
     35916     35918     35919     35916     35920     35921     35916     35920     35922
     35916     35920     35923     35917     35916     35918     35917     35916     35920
     35918     35916     35920     35920     35923     35924     35921     35920     35922
     35921     35920     35923     35922     35920     35923     35923     35924     35925
     35923     35924     35928     35923     35924     35929     35924     35928     35926
     35924     35929     35930     35924     35929     35931     35924     35929     35933
     35925     35924     35928     35925     35924     35929     35926     35937     35933
     35926     35937     35938     35926     35937     35939     35926     35941     35942
     35926     35941     35943     35926     35941     35945     35927     35926     35928
     35927     35926     35937     35927     35926     35941     35928     35924     35929
     35928     35926     35937     35928     35926     35941     35929     35931     35932
     35929     35933     35934     35929     35933     35935     35929     35933     35937
     35930     35929     35931     35930     35929     35933     35931     35929     35933
     35933     35935     35936     35933     35937     35938     35933     35937     35939
     35934     35933     35935     35934     35933     35937     35935     35933     35937
     35937     35926     35941     35937     35939     35940     35938     35937     35939
     35941     35943     35944     35941     35945     35946     35941     35945     35947
     35941     35945     35948     35942     35941     35943     35942     35941     35945
     35943     35941     35945     35945     35948     35949     35946     35945     35947
     35946     35945     35948     35947     35945     35948     35950     35954     35952
     35950     35955     35956     35950     35955     35957     35950     35955     35959
     35951     35950     35954     35951     35950     35955     35952     35962     35959
     35952     35962     35963     35952     35962     35964     35952     35966     35967
     35952     35966     35968     35952     35966     35969     35953     35952     35954
     35953     35952     35962     35953     35952     35966     35954     35950     35955
     35954     35952     35962     35954     35952     35966     35955     35957     35958
     35955     35959     35960     35955     35959     35961     35955     35959     35962
     35956     35955     35957     35956     35955     35959     35957     35955     35959
     35959     35961     35971     35959     35962     35963     35959     35962     35964
     35960     35959     35961     35960     35959     35962     35961     35959     35962
     35961     35971     35972     35961     35971     35975     35961     35971     35976
     35962     35952     35966     35962     35964     35965     35963     35962     35964
     35966     35969     35970     35967     35966     35968     35967     35966     35969
     35968     35966     35969     35971     35975     35973     35971     35976     35977
     35971     35976     35978     35971     35976     35979     35972     35971     35975
     35972     35971     35976     35973     35982     35979     35973     35982     35983
     35973     35982     35984     35973     35986     35987     35973     35986     35988
     35973     35986     35989     35974     35973     35975     35974     35973     35982
     35974     35973     35986     35975     35971     35976     35975     35973     35982
     35975     35973     35986     35976     35978     35991     35976     35979     35980
     35976     35979     35981     35976     35979     35982     35977     35976     35978
     35977     35976     35979     35978     35976     35979     35978     35991     35992
     35978     35991     35995     35978     35991     35996     35979     35981     36034
     35979     35982     35983     35979     35982     35984     35980     35979     35981
     35980     35979     35982     35981     35979     35982     35981     36034     36035
     35981     36034     36038     35981     36034     36039     35982     35973     35986
     35982     35984     35985     35983     35982     35984     35986     35989     35990
     35987     35986     35988     35987     35986     35989     35988     35986     35989
     35991     35995     35993     35991     35996     35997     35991     35996     35998
     35991     35996     35999     35992     35991     35995     35992     35991     35996
     35993     36003     35999     35993     36003     36004     35993     36003     36005
     35993     36007     36008     35993     36007     36009     35993     36007     36010
     35994     35993     35995     35994     35993     36003     35994     35993     36007
     35995     35991     35996     35995     35993     36003     35995     35993     36007
     35996     35998     36012     35996     35999     36000     35996     35999     36001
     35996     35999     36003     35997     35996     35998     35997     35996     35999
     35998     35996     35999     35998     36012     36013     35998     36012     36016
     35998     36012     36017     35999     36001     36002     35999     36003     36004
     35999     36003     36005     36000     35999     36001     36000     35999     36003
     36001     35999     36003     36003     35993     36007     36003     36005     36006
     36004     36003     36005     36007     36010     36011     36008     36007     36009
     36008     36007     36010     36009     36007     36010     36012     36016     36014
     36012     36017     36018     36012     36017     36019     36012     36017     36021
     36013     36012     36016     36013     36012     36017     36014     36025     36021
     36014     36025     36026     36014     36025     36027     36014     36029     36030
     36014     36029     36031     36014     36029     36032     36015     36014     36016
     36015     36014     36025     36015     36014     36029     36016     36012     36017
     36016     36014     36025     36016     36014     36029     36017     36019     36020
     36017     36021     36022     36017     36021     36023     36017     36021     36025
     36018     36017     36019     36018     36017     36021     36019     36017     36021
     36021     36023     36024     36021     36025     36026     36021     36025     36027
     36022     36021     36023     36022     36021     36025     36023     36021     36025
     36025     36014     36029     36025     36027     36028     36026     36025     36027
     36029     36032     36033     36030     36029     36031     36030     36029     36032
     36031     36029     36032     36034     36038     36036     36034     36039     36040
     36034     36039     36041     36034     36039     36043     36035     36034     36038
     36035     36034     36039     36036     36046     36043     36036     36046     36047
     36036     36046     36048     36036     36050     36051     36036     36050     36052
     36036     36050     36053     36037     36036     36038     36037     36036     36046
     36037     36036     36050     36038     36034     36039     36038     36036     36046
     36038     36036     36050     36039     36041     36042     36039     36043     36044
     36039     36043     36045     36039     36043     36046     36040     36039     36041
     36040     36039     36043     36041     36039     36043     36043     36045     36055
     36043     36046     36047     36043     36046     36048     36044     36043     36045
     36044     36043     36046     36045     36043     36046     36045     36055     36056
     36045     36055     36059     36045     36055     36060     36046     36036     36050
     36046     36048     36049     36047     36046     36048     36050     36053     36054
     36051     36050     36052     36051     36050     36053     36052     36050     36053
     36055     36059     36057     36055     36060     36061     36055     36060     36062
     36055     36060     36070     36056     36055     36059     36056     36055     36060
     36057     36073     36070     36057     36073     36074     36057     36073     36075
     36057     36077     36078     36057     36077     36079     36057     36077     36080
     36058     36057     36059     36058     36057     36073     36058     36057     36077
     36059     36055     36060     36059     36057     36073     36059     36057     36077
     36060     36062     36063     36060     36062     36064     36060     36070     36071
     36060     36070     36072     36060     36070     36073     36061     36060     36062
     36061     36060     36070     36062     36060     36070     36062     36064     36065
     36062     36064     36066     36063     36062     36064     36064     36066     36067
     36064     36066     36068     36064     36066     36069     36065     36064     36066
     36067     36066     36068     36067     36066     36069     36068     36066     36069
     36070     36072     36082     36070     36073     36074     36070     36073     36075
     36071     36070     36072     36071     36070     36073     36072     36070     36073
     36072     36082     36083     36072     36082     36086     36072     36082     36087
     36073     36057     36077     36073     36075     36076     36074     36073     36075
     36077     36080     36081     36078     36077     36079     36078     36077     36080
     36079     36077     36080     36082     36086     36084     36082     36087     36088
     36082     36087     36089     36082     36087     36090     36083     36082     36086
     36083     36082     36087     36084     36094     36090     36084     36094     36095
     36084     36094     36096     36084     36098     36099     36084     36098     36100
     36084     36098     36101     36085     36084     36086     36085     36084     36094
     36085     36084     36098     36086     36082     36087     36086     36084     36094
     36086     36084     36098     36087     36089     36103     36087     36090     36091
     36087     36090     36092     36087     36090     36094     36088     36087     36089
     36088     36087     36090     36089     36087     36090     36089     36103     36104
     36089     36103     36107     36089     36103     36108     36090     36092     36093
     36090     36094     36095     36090     36094     36096     36091     36090     36092
     36091     36090     36094     36092     36090     36094     36094     36084     36098
     36094     36096     36097     36095     36094     36096     36098     36101     36102
     36099     36098     36100     36099     36098     36101     36100     36098     36101
     36103     36107     36105     36103     36108     36109     36103     36108     36110
     36103     36108     36111     36104     36103     36107     36104     36103     36108
     36105     36115     36111     36105     36115     36116     36105     36115     36117
     36105     36119     36120     36105     36119     36121     36105     36119     36122
     36106     36105     36107     36106     36105     36115     36106     36105     36119
     36107     36103     36108     36107     36105     36115     36107     36105     36119
     36108     36110     36123     36108     36111     36112     36108     36111     36113
     36108     36111     36115     36109     36108     36110     36109     36108     36111
     36110     36108     36111     36110     36123     36124     36110     36123     36127
     36110     36123     36128     36111     36113     36114     36111     36115     36116
     36111     36115     36117     36112     36111     36113     36112     36111     36115
     36113     36111     36115     36115     36105     36119     36115     36117     36118
     36116     36115     36117     36120     36119     36121     36120     36119     36122
     36121     36119     36122     36123     36127     36125     36123     36128     36129
     36123     36128     36130     36123     36128     36131     36124     36123     36127
     36124     36123     36128     36125     36134     36131     36125     36134     36135
     36125     36134     36136     36125     36138     36139     36125     36138     36140
     36125     36138     36141     36126     36125     36127     36126     36125     36134
     36126     36125     36138     36127     36123     36128     36127     36125     36134
     36127     36125     36138     36128     36130     36142     36128     36131     36132
     36128     36131     36133     36128     36131     36134     36129     36128     36130
     36129     36128     36131     36130     36128     36131     36130     36142     36143
     36130     36142     36146     36130     36142     36147     36131     36133     36170
     36131     36134     36135     36131     36134     36136     36132     36131     36133
     36132     36131     36134     36133     36131     36134     36133     36170     36171
     36133     36170     36174     36133     36170     36175     36134     36125     36138
     36134     36136     36137     36135     36134     36136     36139     36138     36140
     36139     36138     36141     36140     36138     36141     36142     36146     36144
     36142     36147     36148     36142     36147     36149     36142     36147     36157
     36143     36142     36146     36143     36142     36147     36144     36161     36157
     36144     36161     36162     36144     36161     36163     36144     36165     36166
     36144     36165     36167     36144     36165     36168     36145     36144     36146
     36145     36144     36161     36145     36144     36165     36146     36142     36147
     36146     36144     36161     36146     36144     36165     36147     36149     36150
     36147     36149     36151     36147     36157     36158     36147     36157     36159
     36147     36157     36161     36148     36147     36149     36148     36147     36157
     36149     36147     36157     36149     36151     36152     36149     36151     36153
     36150     36149     36151     36151     36153     36154     36151     36153     36155
     36151     36153     36156     36152     36151     36153     36154     36153     36155
     36154     36153     36156     36155     36153     36156     36157     36159     36160
     36157     36161     36162     36157     36161     36163     36158     36157     36159
     36158     36157     36161     36159     36157     36161     36161     36144     36165
     36161     36163     36164     36162     36161     36163     36165     36168     36169
     36166     36165     36167     36166     36165     36168     36167     36165     36168
     36170     36174     36172     36170     36175     36176     36170     36175     36177
     36170     36175     36185     36171     36170     36174     36171     36170     36175
     36172     36188     36185     36172     36188     36189     36172     36188     36190
     36172     36192     36193     36172     36192     36194     36172     36192     36195
     36173     36172     36174     36173     36172     36188     36173     36172     36192
     36174     36170     36175     36174     36172     36188     36174     36172     36192
     36175     36177     36178     36175     36177     36179     36175     36185     36186
     36175     36185     36187     36175     36185     36188     36176     36175     36177
     36176     36175     36185     36177     36175     36185     36177     36179     36180
     36177     36179     36181     36178     36177     36179     36179     36181     36182
     36179     36181     36183     36179     36181     36184     36180     36179     36181
     36182     36181     36183     36182     36181     36184     36183     36181     36184
     36185     36187     36197     36185     36188     36189     36185     36188     36190
     36186     36185     36187     36186     36185     36188     36187     36185     36188
     36187     36197     36198     36187     36197     36201     36187     36197     36202
     36188     36172     36192     36188     36190     36191     36189     36188     36190
     36192     36195     36196     36193     36192     36194     36193     36192     36195
     36194     36192     36195     36197     36201     36199     36197     36202     36203
     36197     36202     36204     36197     36202     36205     36198     36197     36201
     36198     36197     36202     36199     36209     36205     36199     36209     36210
     36199     36209     36211     36199     36213     36214     36199     36213     36215
     36199     36213     36216     36200     36199     36201     36200     36199     36209
     36200     36199     36213     36201     36197     36202     36201     36199     36209
     36201     36199     36213     36202     36204     36218     36202     36205     36206
     36202     36205     36207     36202     36205     36209     36203     36202     36204
     36203     36202     36205     36204     36202     36205     36204     36218     36219
     36204     36218     36222     36204     36218     36223     36205     36207     36208
     36205     36209     36210     36205     36209     36211     36206     36205     36207
     36206     36205     36209     36207     36205     36209     36209     36199     36213
     36209     36211     36212     36210     36209     36211     36213     36216     36217
     36214     36213     36215     36214     36213     36216     36215     36213     36216
     36218     36222     36220     36218     36223     36224     36218     36223     36225
     36218     36223     36226     36219     36218     36222     36219     36218     36223
     36220     36230     36226     36220     36230     36231     36220     36230     36232
     36220     36234     36235     36220     36234     36236     36220     36234     36237
     36221     36220     36222     36221     36220     36230     36221     36220     36234
     36222     36218     36223     36222     36220     36230     36222     36220     36234
     36223     36225     36238     36223     36226     36227     36223     36226     36228
     36223     36226     36230     36224     36223     36225     36224     36223     36226
     36225     36223     36226     36225     36238     36239     36225     36238     36242
     36225     36238     36243     36226     36228     36229     36226     36230     36231
     36226     36230     36232     36227     36226     36228     36227     36226     36230
     36228     36226     36230     36230     36220     36234     36230     36232     36233
     36231     36230     36232     36235     36234     36236     36235     36234     36237
     36236     36234     36237     36238     36242     36240     36238     36243     36244
     36238     36243     36245     36238     36243     36246     36239     36238     36242
     36239     36238     36243     36240     36249     36246     36240     36249     36250
     36240     36249     36251     36240     36253     36254     36240     36253     36255
     36240     36253     36256     36241     36240     36242     36241     36240     36249
     36241     36240     36253     36242     36238     36243     36242     36240     36249
     36242     36240     36253     36243     36245     36257     36243     36246     36247
     36243     36246     36248     36243     36246     36249     36244     36243     36245
     36244     36243     36246     36245     36243     36246     36245     36257     36258
     36245     36257     36261     36245     36257     36262     36246     36248     36285
     36246     36249     36250     36246     36249     36251     36247     36246     36248
     36247     36246     36249     36248     36246     36249     36248     36285     36286
     36248     36285     36289     36248     36285     36290     36249     36240     36253
     36249     36251     36252     36250     36249     36251     36254     36253     36255
     36254     36253     36256     36255     36253     36256     36257     36261     36259
     36257     36262     36263     36257     36262     36264     36257     36262     36272
     36258     36257     36261     36258     36257     36262     36259     36276     36272
     36259     36276     36277     36259     36276     36278     36259     36280     36281
     36259     36280     36282     36259     36280     36283     36260     36259     36261
     36260     36259     36276     36260     36259     36280     36261     36257     36262
     36261     36259     36276     36261     36259     36280     36262     36264     36265
     36262     36264     36266     36262     36272     36273     36262     36272     36274
     36262     36272     36276     36263     36262     36264     36263     36262     36272
     36264     36262     36272     36264     36266     36267     36264     36266     36268
     36265     36264     36266     36266     36268     36269     36266     36268     36270
     36266     36268     36271     36267     36266     36268     36269     36268     36270
     36269     36268     36271     36270     36268     36271     36272     36274     36275
     36272     36276     36277     36272     36276     36278     36273     36272     36274
     36273     36272     36276     36274     36272     36276     36276     36259     36280
     36276     36278     36279     36277     36276     36278     36280     36283     36284
     36281     36280     36282     36281     36280     36283     36282     36280     36283
     36285     36289     36287     36285     36290     36291     36285     36290     36292
     36285     36290     36300     36286     36285     36289     36286     36285     36290
     36287     36303     36300     36287     36303     36304     36287     36303     36305
     36287     36307     36308     36287     36307     36309     36287     36307     36310
     36288     36287     36289     36288     36287     36303     36288     36287     36307
     36289     36285     36290     36289     36287     36303     36289     36287     36307
     36290     36292     36293     36290     36292     36294     36290     36300     36301
     36290     36300     36302     36290     36300     36303     36291     36290     36292
     36291     36290     36300     36292     36290     36300     36292     36294     36295
     36292     36294     36296     36293     36292     36294     36294     36296     36297
     36294     36296     36298     36294     36296     36299     36295     36294     36296
     36297     36296     36298     36297     36296     36299     36298     36296     36299
     36300     36302     36312     36300     36303     36304     36300     36303     36305
     36301     36300     36302     36301     36300     36303     36302     36300     36303
     36302     36312     36313     36302     36312     36316     36302     36312     36317
     36303     36287     36307     36303     36305     36306     36304     36303     36305
     36307     36310     36311     36308     36307     36309     36308     36307     36310
     36309     36307     36310     36312     36316     36314     36312     36317     36318
     36312     36317     36319     36312     36317     36320     36313     36312     36316
     36313     36312     36317     36314     36324     36320     36314     36324     36325
     36314     36324     36326     36314     36328     36329     36314     36328     36330
     36314     36328     36331     36315     36314     36316     36315     36314     36324
     36315     36314     36328     36316     36312     36317     36316     36314     36324
     36316     36314     36328     36317     36319     36333     36317     36320     36321
     36317     36320     36322     36317     36320     36324     36318     36317     36319
     36318     36317     36320     36319     36317     36320     36319     36333     36334
     36319     36333     36337     36319     36333     36338     36320     36322     36323
     36320     36324     36325     36320     36324     36326     36321     36320     36322
     36321     36320     36324     36322     36320     36324     36324     36314     36328
     36324     36326     36327     36325     36324     36326     36328     36331     36332
     36329     36328     36330     36329     36328     36331     36330     36328     36331
     36333     36337     36335     36333     36338     36339     36333     36338     36340
     36333     36338     36341     36334     36333     36337     36334     36333     36338
     36335     36345     36341     36335     36345     36346     36335     36345     36347
     36335     36349     36350     36335     36349     36351     36335     36349     36352
     36336     36335     36337     36336     36335     36345     36336     36335     36349
     36337     36333     36338     36337     36335     36345     36337     36335     36349
     36338     36340     36353     36338     36341     36342     36338     36341     36343
     36338     36341     36345     36339     36338     36340     36339     36338     36341
     36340     36338     36341     36340     36353     36354     36340     36353     36357
     36340     36353     36358     36341     36343     36344     36341     36345     36346
     36341     36345     36347     36342     36341     36343     36342     36341     36345
     36343     36341     36345     36345     36335     36349     36345     36347     36348
     36346     36345     36347     36350     36349     36351     36350     36349     36352
     36351     36349     36352     36353     36357     36355     36353     36358     36359
     36353     36358     36360     36353     36358     36361     36354     36353     36357
     36354     36353     36358     36355     36364     36361     36355     36364     36365
     36355     36364     36366     36355     36368     36369     36355     36368     36370
     36355     36368     36371     36356     36355     36357     36356     36355     36364
     36356     36355     36368     36357     36353     36358     36357     36355     36364
     36357     36355     36368     36358     36360     36372     36358     36361     36362
     36358     36361     36363     36358     36361     36364     36359     36358     36360
     36359     36358     36361     36360     36358     36361     36360     36372     36373
     36360     36372     36376     36360     36372     36377     36361     36363     36400
     36361     36364     36365     36361     36364     36366     36362     36361     36363
     36362     36361     36364     36363     36361     36364     36363     36400     36401
     36363     36400     36404     36363     36400     36405     36364     36355     36368
     36364     36366     36367     36365     36364     36366     36369     36368     36370
     36369     36368     36371     36370     36368     36371     36372     36376     36374
     36372     36377     36378     36372     36377     36379     36372     36377     36387
     36373     36372     36376     36373     36372     36377     36374     36391     36387
     36374     36391     36392     36374     36391     36393     36374     36395     36396
     36374     36395     36397     36374     36395     36398     36375     36374     36376
     36375     36374     36391     36375     36374     36395     36376     36372     36377
     36376     36374     36391     36376     36374     36395     36377     36379     36380
     36377     36379     36381     36377     36387     36388     36377     36387     36389
     36377     36387     36391     36378     36377     36379     36378     36377     36387
     36379     36377     36387     36379     36381     36382     36379     36381     36383
     36380     36379     36381     36381     36383     36384     36381     36383     36385
     36381     36383     36386     36382     36381     36383     36384     36383     36385
     36384     36383     36386     36385     36383     36386     36387     36389     36390
     36387     36391     36392     36387     36391     36393     36388     36387     36389
     36388     36387     36391     36389     36387     36391     36391     36374     36395
     36391     36393     36394     36392     36391     36393     36395     36398     36399
     36396     36395     36397     36396     36395     36398     36397     36395     36398
     36400     36404     36402     36400     36405     36406     36400     36405     36407
     36400     36405     36415     36401     36400     36404     36401     36400     36405
     36402     36418     36415     36402     36418     36419     36402     36418     36420
     36402     36422     36423     36402     36422     36424     36402     36422     36425
     36403     36402     36404     36403     36402     36418     36403     36402     36422
     36404     36400     36405     36404     36402     36418     36404     36402     36422
     36405     36407     36408     36405     36407     36409     36405     36415     36416
     36405     36415     36417     36405     36415     36418     36406     36405     36407
     36406     36405     36415     36407     36405     36415     36407     36409     36410
     36407     36409     36411     36408     36407     36409     36409     36411     36412
     36409     36411     36413     36409     36411     36414     36410     36409     36411
     36412     36411     36413     36412     36411     36414     36413     36411     36414
     36415     36417     36427     36415     36418     36419     36415     36418     36420
     36416     36415     36417     36416     36415     36418     36417     36415     36418
     36417     36427     36428     36417     36427     36431     36417     36427     36432
     36418     36402     36422     36418     36420     36421     36419     36418     36420
     36422     36425     36426     36423     36422     36424     36423     36422     36425
     36424     36422     36425     36427     36431     36429     36427     36432     36433
     36427     36432     36434     36427     36432     36435     36428     36427     36431
     36428     36427     36432     36429     36439     36435     36429     36439     36440
     36429     36439     36441     36429     36443     36444     36429     36443     36445
     36429     36443     36446     36430     36429     36431     36430     36429     36439
     36430     36429     36443     36431     36427     36432     36431     36429     36439
     36431     36429     36443     36432     36434     36448     36432     36435     36436
     36432     36435     36437     36432     36435     36439     36433     36432     36434
     36433     36432     36435     36434     36432     36435     36434     36448     36449
     36434     36448     36452     36434     36448     36453     36435     36437     36438
     36435     36439     36440     36435     36439     36441     36436     36435     36437
     36436     36435     36439     36437     36435     36439     36439     36429     36443
     36439     36441     36442     36440     36439     36441     36443     36446     36447
     36444     36443     36445     36444     36443     36446     36445     36443     36446
     36448     36452     36450     36448     36453     36454     36448     36453     36455
     36448     36453     36456     36449     36448     36452     36449     36448     36453
     36450     36460     36456     36450     36460     36461     36450     36460     36462
     36450     36464     36465     36450     36464     36466     36450     36464     36467
     36451     36450     36452     36451     36450     36460     36451     36450     36464
     36452     36448     36453     36452     36450     36460     36452     36450     36464
     36453     36455     36468     36453     36456     36457     36453     36456     36458
     36453     36456     36460     36454     36453     36455     36454     36453     36456
     36455     36453     36456     36455     36468     36469     36455     36468     36472
     36455     36468     36473     36456     36458     36459     36456     36460     36461
     36456     36460     36462     36457     36456     36458     36457     36456     36460
     36458     36456     36460     36460     36450     36464     36460     36462     36463
     36461     36460     36462     36465     36464     36466     36465     36464     36467
     36466     36464     36467     36468     36472     36470     36468     36473     36474
     36468     36473     36475     36468     36473     36476     36469     36468     36472
     36469     36468     36473     36470     36479     36476     36470     36479     36480
     36470     36479     36481     36470     36483     36484     36470     36483     36485
     36470     36483     36486     36471     36470     36472     36471     36470     36479
     36471     36470     36483     36472     36468     36473     36472     36470     36479
     36472     36470     36483     36473     36475     36487     36473     36476     36477
     36473     36476     36478     36473     36476     36479     36474     36473     36475
     36474     36473     36476     36475     36473     36476     36475     36487     36488
     36475     36487     36491     36475     36487     36492     36476     36478     36515
     36476     36479     36480     36476     36479     36481     36477     36476     36478
     36477     36476     36479     36478     36476     36479     36478     36515     36516
     36478     36515     36519     36478     36515     36520     36479     36470     36483
     36479     36481     36482     36480     36479     36481     36484     36483     36485
     36484     36483     36486     36485     36483     36486     36487     36491     36489
     36487     36492     36493     36487     36492     36494     36487     36492     36502
     36488     36487     36491     36488     36487     36492     36489     36506     36502
     36489     36506     36507     36489     36506     36508     36489     36510     36511
     36489     36510     36512     36489     36510     36513     36490     36489     36491
     36490     36489     36506     36490     36489     36510     36491     36487     36492
     36491     36489     36506     36491     36489     36510     36492     36494     36495
     36492     36494     36496     36492     36502     36503     36492     36502     36504
     36492     36502     36506     36493     36492     36494     36493     36492     36502
     36494     36492     36502     36494     36496     36497     36494     36496     36498
     36495     36494     36496     36496     36498     36499     36496     36498     36500
     36496     36498     36501     36497     36496     36498     36499     36498     36500
     36499     36498     36501     36500     36498     36501     36502     36504     36505
     36502     36506     36507     36502     36506     36508     36503     36502     36504
     36503     36502     36506     36504     36502     36506     36506     36489     36510
     36506     36508     36509     36507     36506     36508     36510     36513     36514
     36511     36510     36512     36511     36510     36513     36512     36510     36513
     36515     36519     36517     36515     36520     36521     36515     36520     36522
     36515     36520     36530     36516     36515     36519     36516     36515     36520
     36517     36533     36530     36517     36533     36534     36517     36533     36535
     36517     36537     36538     36517     36537     36539     36517     36537     36540
     36518     36517     36519     36518     36517     36533     36518     36517     36537
     36519     36515     36520     36519     36517     36533     36519     36517     36537
     36520     36522     36523     36520     36522     36524     36520     36530     36531
     36520     36530     36532     36520     36530     36533     36521     36520     36522
     36521     36520     36530     36522     36520     36530     36522     36524     36525
     36522     36524     36526     36523     36522     36524     36524     36526     36527
     36524     36526     36528     36524     36526     36529     36525     36524     36526
     36527     36526     36528     36527     36526     36529     36528     36526     36529
     36530     36532     36542     36530     36533     36534     36530     36533     36535
     36531     36530     36532     36531     36530     36533     36532     36530     36533
     36532     36542     36543     36532     36542     36546     36532     36542     36547
     36533     36517     36537     36533     36535     36536     36534     36533     36535
     36537     36540     36541     36538     36537     36539     36538     36537     36540
     36539     36537     36540     36542     36546     36544     36542     36547     36548
     36542     36547     36549     36542     36547     36550     36543     36542     36546
     36543     36542     36547     36544     36554     36550     36544     36554     36555
     36544     36554     36556     36544     36558     36559     36544     36558     36560
     36544     36558     36561     36545     36544     36546     36545     36544     36554
     36545     36544     36558     36546     36542     36547     36546     36544     36554
     36546     36544     36558     36547     36549     36563     36547     36550     36551
     36547     36550     36552     36547     36550     36554     36548     36547     36549
     36548     36547     36550     36549     36547     36550     36549     36563     36564
     36549     36563     36567     36549     36563     36568     36550     36552     36553
     36550     36554     36555     36550     36554     36556     36551     36550     36552
     36551     36550     36554     36552     36550     36554     36554     36544     36558
     36554     36556     36557     36555     36554     36556     36558     36561     36562
     36559     36558     36560     36559     36558     36561     36560     36558     36561
     36563     36567     36565     36563     36568     36569     36563     36568     36570
     36563     36568     36571     36564     36563     36567     36564     36563     36568
     36565     36575     36571     36565     36575     36576     36565     36575     36577
     36565     36579     36580     36565     36579     36581     36565     36579     36582
     36566     36565     36567     36566     36565     36575     36566     36565     36579
     36567     36563     36568     36567     36565     36575     36567     36565     36579
     36568     36570     36583     36568     36571     36572     36568     36571     36573
     36568     36571     36575     36569     36568     36570     36569     36568     36571
     36570     36568     36571     36570     36583     36584     36570     36583     36587
     36570     36583     36588     36571     36573     36574     36571     36575     36576
     36571     36575     36577     36572     36571     36573     36572     36571     36575
     36573     36571     36575     36575     36565     36579     36575     36577     36578
     36576     36575     36577     36580     36579     36581     36580     36579     36582
     36581     36579     36582     36583     36587     36585     36583     36588     36589
     36583     36588     36590     36583     36588     36591     36584     36583     36587
     36584     36583     36588     36585     36595     36591     36585     36595     36596
     36585     36595     36597     36585     36599     36600     36585     36599     36601
     36585     36599     36602     36586     36585     36587     36586     36585     36595
     36586     36585     36599     36587     36583     36588     36587     36585     36595
     36587     36585     36599     36588     36590     36603     36588     36591     36592
     36588     36591     36593     36588     36591     36595     36589     36588     36590
     36589     36588     36591     36590     36588     36591     36590     36603     36604
     36590     36603     36607     36590     36603     36608     36591     36593     36594
     36591     36595     36596     36591     36595     36597     36592     36591     36593
     36592     36591     36595     36593     36591     36595     36595     36585     36599
     36595     36597     36598     36596     36595     36597     36600     36599     36601
     36600     36599     36602     36601     36599     36602     36603     36607     36605
     36603     36608     36609     36603     36608     36610     36603     36608     36618
     36604     36603     36607     36604     36603     36608     36605     36622     36618
     36605     36622     36623     36605     36622     36624     36605     36626     36627
     36605     36626     36628     36605     36626     36629     36606     36605     36607
     36606     36605     36622     36606     36605     36626     36607     36603     36608
     36607     36605     36622     36607     36605     36626     36608     36610     36611
     36608     36610     36612     36608     36618     36619     36608     36618     36620
     36608     36618     36622     36609     36608     36610     36609     36608     36618
     36610     36608     36618     36610     36612     36613     36610     36612     36614
     36611     36610     36612     36612     36614     36615     36612     36614     36616
     36612     36614     36617     36613     36612     36614     36615     36614     36616
     36615     36614     36617     36616     36614     36617     36618     36620     36621
     36618     36622     36623     36618     36622     36624     36619     36618     36620
     36619     36618     36622     36620     36618     36622     36622     36605     36626
     36622     36624     36625     36623     36622     36624     36626     36629     36630
     36627     36626     36628     36627     36626     36629     36628     36626     36629
     36631     36633     36632     36631     36633     36634     36631     36633     36635
     36632     36633     36634     36632     36633     36635     36632     36930     36927
     36632     36930     36933     36632     36930     36934     36633     36632     36930
     36633     36635     36636     36633     36635     36637     36633     36635     36644
     36634     36633     36635     36635     36636     36638     36635     36644     36645
     36635     36644     36646     36635     36644     36651     36636     36635     36637
     36636     36635     36644     36636     36638     36639     36636     36638     36640
     36636     36638     36659     36637     36635     36644     36638     36640     36641
     36638     36659     36651     36638     36659     36660     36638     36659     36661
     36639     36638     36640     36639     36638     36659     36640     36638     36659
     36640     36641     36642     36640     36641     36643     36640     36641     36667
     36641     36667     36663     36641     36667     36668     36641     36667     36669
     36642     36641     36643     36642     36641     36667     36643     36641     36667
     36644     36646     36647     36644     36651     36652     36644     36651     36653
     36644     36651     36659     36645     36644     36646     36645     36644     36651
     36646     36644     36651     36646     36647     36648     36646     36647     36649
     36646     36647     36650     36648     36647     36649     36648     36647     36650
     36649     36647     36650     36651     36652     36654     36651     36659     36660
     36651     36659     36661     36652     36651     36653     36652     36651     36659
     36652     36654     36655     36652     36654     36656     36653     36651     36659
     36654     36656     36657     36654     36656     36658     36654     36656     36689
     36655     36654     36656     36656     36689     36690     36656     36689     36691
     36656     36689     36734     36657     36656     36658     36657     36656     36689
     36658     36656     36689     36659     36661     36662     36659     36661     36768
     36660     36659     36661     36661     36768     36769     36661     36768     36770
     36662     36661     36768     36663     36665     36666     36663     36667     36668
     36663     36667     36669     36663     36677     36678     36663     36677     36679
     36663     36677     36685     36664     36663     36665     36664     36663     36667
     36664     36663     36677     36665     36663     36667     36665     36663     36677
     36667     36663     36677     36667     36669     36670     36668     36667     36669
     36669     36670     36671     36669     36670     36672     36669     36670     36685
     36670     36672     36676     36670     36685     36677     36670     36685     36686
     36670     36685     36687     36671     36670     36672     36671     36670     36685
     36672     36670     36685     36672     36676     36673     36672     36676     36674
     36672     36676     36675     36673     36676     36674     36673     36676     36675
     36674     36676     36675     36677     36679     36680     36677     36685     36686
     36677     36685     36687     36678     36677     36679     36678     36677     36685
     36679     36677     36685     36679     36680     36681     36679     36680     36682
     36680     36682     36683     36680     36682     36684     36680     36682     36846
     36681     36680     36682     36682     36846     36847     36682     36846     36848
     36682     36846     36850     36683     36682     36684     36683     36682     36846
     36684     36682     36846     36685     36687     36688     36685     36687     36884
     36686     36685     36687     36687     36884     36885     36687     36884     36886
     36688     36687     36884     36689     36691     36692     36689     36734     36735
     36689     36734     36736     36689     36734     36737     36690     36689     36691
     36690     36689     36734     36691     36689     36734     36691     36692     36693
     36691     36692     36694     36692     36694     36695     36692     36694     36696
     36692     36694     36697     36693     36692     36694     36694     36697     36698
     36694     36697     36699     36694     36697     36700     36695     36694     36696
     36695     36694     36697     36696     36694     36697     36697     36700     36701
     36697     36700     36702     36697     36700     36703     36698     36697     36699
     36698     36697     36700     36699     36697     36700     36700     36703     36704
     36700     36703     36705     36700     36703     36706     36701     36700     36702
     36701     36700     36703     36702     36700     36703     36703     36706     36707
     36703     36706     36708     36703     36706     36709     36704     36703     36705
     36704     36703     36706     36705     36703     36706     36706     36709     36710
     36706     36709     36711     36706     36709     36712     36707     36706     36708
     36707     36706     36709     36708     36706     36709     36709     36712     36713
     36709     36712     36714     36709     36712     36715     36710     36709     36711
     36710     36709     36712     36711     36709     36712     36712     36715     36716
     36712     36715     36717     36712     36715     36718     36713     36712     36714
     36713     36712     36715     36714     36712     36715     36715     36718     36719
     36715     36718     36720     36715     36718     36721     36716     36715     36717
     36716     36715     36718     36717     36715     36718     36718     36721     36722
     36718     36721     36723     36718     36721     36724     36719     36718     36720
     36719     36718     36721     36720     36718     36721     36721     36724     36725
     36721     36724     36726     36721     36724     36727     36722     36721     36723
     36722     36721     36724     36723     36721     36724     36724     36727     36728
     36724     36727     36729     36724     36727     36730     36725     36724     36726
     36725     36724     36727     36726     36724     36727     36727     36730     36731
     36727     36730     36732     36727     36730     36733     36728     36727     36729
     36728     36727     36730     36729     36727     36730     36731     36730     36732
     36731     36730     36733     36732     36730     36733     36734     36737     36738
     36734     36737     36739     36734     36737     36740     36735     36734     36736
     36735     36734     36737     36736     36734     36737     36737     36740     36741
     36737     36740     36742     36737     36740     36743     36738     36737     36739
     36738     36737     36740     36739     36737     36740     36740     36743     36744
     36740     36743     36745     36740     36743     36746     36741     36740     36742
     36741     36740     36743     36742     36740     36743     36743     36746     36747
     36743     36746     36748     36743     36746     36749     36744     36743     36745
     36744     36743     36746     36745     36743     36746     36746     36749     36750
     36746     36749     36751     36746     36749     36752     36747     36746     36748
     36747     36746     36749     36748     36746     36749     36749     36752     36753
     36749     36752     36754     36749     36752     36755     36750     36749     36751
     36750     36749     36752     36751     36749     36752     36752     36755     36756
     36752     36755     36757     36752     36755     36758     36753     36752     36754
     36753     36752     36755     36754     36752     36755     36755     36758     36759
     36755     36758     36760     36755     36758     36761     36756     36755     36757
     36756     36755     36758     36757     36755     36758     36758     36761     36762
     36758     36761     36763     36758     36761     36764     36759     36758     36760
     36759     36758     36761     36760     36758     36761     36761     36764     36765
     36761     36764     36766     36761     36764     36767     36762     36761     36763
     36762     36761     36764     36763     36761     36764     36765     36764     36766
     36765     36764     36767     36766     36764     36767     36768     36770     36771
     36768     36770     36772     36768     36770     36773     36769     36768     36770
     36770     36773     36774     36770     36773     36775     36770     36773     36812
     36771     36770     36772     36771     36770     36773     36772     36770     36773
     36773     36775     36776     36773     36812     36813     36773     36812     36814
     36773     36812     36815     36774     36773     36775     36774     36773     36812
     36775     36773     36812     36775     36776     36777     36775     36776     36778
     36776     36778     36779     36776     36778     36780     36776     36778     36781
     36777     36776     36778     36778     36781     36782     36778     36781     36783
     36778     36781     36784     36779     36778     36780     36779     36778     36781
     36780     36778     36781     36781     36784     36785     36781     36784     36786
     36781     36784     36787     36782     36781     36783     36782     36781     36784
     36783     36781     36784     36784     36787     36788     36784     36787     36789
     36784     36787     36790     36785     36784     36786     36785     36784     36787
     36786     36784     36787     36787     36790     36791     36787     36790     36792
     36787     36790     36793     36788     36787     36789     36788     36787     36790
     36789     36787     36790     36790     36793     36794     36790     36793     36795
     36790     36793     36796     36791     36790     36792     36791     36790     36793
     36792     36790     36793     36793     36796     36797     36793     36796     36798
     36793     36796     36799     36794     36793     36795     36794     36793     36796
     36795     36793     36796     36796     36799     36800     36796     36799     36801
     36796     36799     36802     36797     36796     36798     36797     36796     36799
     36798     36796     36799     36799     36802     36803     36799     36802     36804
     36799     36802     36805     36800     36799     36801     36800     36799     36802
     36801     36799     36802     36802     36805     36806     36802     36805     36807
     36802     36805     36808     36803     36802     36804     36803     36802     36805
     36804     36802     36805     36805     36808     36809     36805     36808     36810
     36805     36808     36811     36806     36805     36807     36806     36805     36808
     36807     36805     36808     36809     36808     36810     36809     36808     36811
     36810     36808     36811     36812     36815     36816     36812     36815     36817
     36812     36815     36818     36813     36812     36814     36813     36812     36815
     36814     36812     36815     36815     36818     36819     36815     36818     36820
     36815     36818     36821     36816     36815     36817     36816     36815     36818
     36817     36815     36818     36818     36821     36822     36818     36821     36823
     36818     36821     36824     36819     36818     36820     36819     36818     36821
     36820     36818     36821     36821     36824     36825     36821     36824     36826
     36821     36824     36827     36822     36821     36823     36822     36821     36824
     36823     36821     36824     36824     36827     36828     36824     36827     36829
     36824     36827     36830     36825     36824     36826     36825     36824     36827
     36826     36824     36827     36827     36830     36831     36827     36830     36832
     36827     36830     36833     36828     36827     36829     36828     36827     36830
     36829     36827     36830     36830     36833     36834     36830     36833     36835
     36830     36833     36836     36831     36830     36832     36831     36830     36833
     36832     36830     36833     36833     36836     36837     36833     36836     36838
     36833     36836     36839     36834     36833     36835     36834     36833     36836
     36835     36833     36836     36836     36839     36840     36836     36839     36841
     36836     36839     36842     36837     36836     36838     36837     36836     36839
     36838     36836     36839     36839     36842     36843     36839     36842     36844
     36839     36842     36845     36840     36839     36841     36840     36839     36842
     36841     36839     36842     36843     36842     36844     36843     36842     36845
     36844     36842     36845     36846     36848     36849     36846     36850     36851
     36846     36850     36852     36846     36850     36853     36847     36846     36848
     36847     36846     36850     36848     36846     36850     36850     36853     36854
     36850     36853     36855     36850     36853     36856     36851     36850     36852
     36851     36850     36853     36852     36850     36853     36853     36856     36857
     36853     36856     36858     36853     36856     36859     36854     36853     36855
     36854     36853     36856     36855     36853     36856     36856     36859     36860
     36856     36859     36861     36856     36859     36862     36857     36856     36858
     36857     36856     36859     36858     36856     36859     36859     36862     36863
     36859     36862     36864     36859     36862     36865     36860     36859     36861
     36860     36859     36862     36861     36859     36862     36862     36865     36866
     36862     36865     36867     36862     36865     36868     36863     36862     36864
     36863     36862     36865     36864     36862     36865     36865     36868     36869
     36865     36868     36870     36865     36868     36871     36866     36865     36867
     36866     36865     36868     36867     36865     36868     36868     36871     36872
     36868     36871     36873     36868     36871     36874     36869     36868     36870
     36869     36868     36871     36870     36868     36871     36871     36874     36875
     36871     36874     36876     36871     36874     36877     36872     36871     36873
     36872     36871     36874     36873     36871     36874     36874     36877     36878
     36874     36877     36879     36874     36877     36880     36875     36874     36876
     36875     36874     36877     36876     36874     36877     36877     36880     36881
     36877     36880     36882     36877     36880     36883     36878     36877     36879
     36878     36877     36880     36879     36877     36880     36881     36880     36882
     36881     36880     36883     36882     36880     36883     36884     36886     36887
     36884     36886     36888     36884     36886     36889     36885     36884     36886
     36886     36889     36890     36886     36889     36891     36886     36889     36893
     36887     36886     36888     36887     36886     36889     36888     36886     36889
     36889     36891     36892     36889     36893     36894     36889     36893     36895
     36889     36893     36896     36890     36889     36891     36890     36889     36893
     36891     36889     36893     36893     36896     36897     36893     36896     36898
     36893     36896     36899     36894     36893     36895     36894     36893     36896
     36895     36893     36896     36896     36899     36900     36896     36899     36901
     36896     36899     36902     36897     36896     36898     36897     36896     36899
     36898     36896     36899     36899     36902     36903     36899     36902     36904
     36899     36902     36905     36900     36899     36901     36900     36899     36902
     36901     36899     36902     36902     36905     36906     36902     36905     36907
     36902     36905     36908     36903     36902     36904     36903     36902     36905
     36904     36902     36905     36905     36908     36909     36905     36908     36910
     36905     36908     36911     36906     36905     36907     36906     36905     36908
     36907     36905     36908     36908     36911     36912     36908     36911     36913
     36908     36911     36914     36909     36908     36910     36909     36908     36911
     36910     36908     36911     36911     36914     36915     36911     36914     36916
     36911     36914     36917     36912     36911     36913     36912     36911     36914
     36913     36911     36914     36914     36917     36918     36914     36917     36919
     36914     36917     36920     36915     36914     36916     36915     36914     36917
     36916     36914     36917     36917     36920     36921     36917     36920     36922
     36917     36920     36923     36918     36917     36919     36918     36917     36920
     36919     36917     36920     36920     36923     36924     36920     36923     36925
     36920     36923     36926     36921     36920     36922     36921     36920     36923
     36922     36920     36923     36924     36923     36925     36924     36923     36926
     36925     36923     36926     36927     36930     36933     36927     36930     36934
     36928     36927     36929     36928     36927     36930     36929     36927     36930
     36930     36933     36931     36930     36934     36935     36930     36934     36936
     36930     36934     36937     36931     36940     36937     36931     36940     36941
     36931     36940     36942     36931     36943     36944     36931     36943     36945
     36931     36943     36947     36932     36931     36933     36932     36931     36940
     36932     36931     36943     36933     36930     36934     36933     36931     36940
     36933     36931     36943     36934     36937     36938     36934     36937     36939
     36934     36937     36940     36935     36934     36936     36935     36934     36937
     36936     36934     36937     36937     36939     36955     36937     36940     36941
     36937     36940     36942     36938     36937     36939     36938     36937     36940
     36939     36937     36940     36939     36955     36952     36939     36955     36958
     36939     36955     36959     36940     36931     36943     36940     36942     36979
     36941     36940     36942     36942     36979     36980     36942     36979     36983
     36942     36979     36984     36943     36945     36946     36943     36947     36948
     36943     36947     36949     36943     36947     36950     36944     36943     36945
     36944     36943     36947     36945     36943     36947     36947     36950     36951
     36948     36947     36949     36948     36947     36950     36949     36947     36950
     36952     36955     36958     36952     36955     36959     36953     36952     36954
     36953     36952     36955     36954     36952     36955     36955     36958     36956
     36955     36959     36960     36955     36959     36961     36955     36959     36962
     36956     36966     36962     36956     36966     36967     36956     36966     36968
     36956     36970     36971     36956     36970     36972     36956     36970     36974
     36957     36956     36958     36957     36956     36966     36957     36956     36970
     36958     36955     36959     36958     36956     36966     36958     36956     36970
     36959     36962     36963     36959     36962     36964     36959     36962     36966
     36960     36959     36961     36960     36959     36962     36961     36959     36962
     36962     36964     36965     36962     36966     36967     36962     36966     36968
     36963     36962     36964     36963     36962     36966     36964     36962     36966
     36966     36956     36970     36966     36968     36969     36967     36966     36968
     36970     36972     36973     36970     36974     36975     36970     36974     36976
     36970     36974     36977     36971     36970     36972     36971     36970     36974
     36972     36970     36974     36974     36977     36978     36975     36974     36976
     36975     36974     36977     36976     36974     36977     36979     36983     36981
     36979     36984     36985     36979     36984     36986     36979     36984     36988
     36980     36979     36983     36980     36979     36984     36981     36991     36988
     36981     36991     36992     36981     36991     36993     36981     36998     36999
     36981     36998     37000     36981     36998     37002     36982     36981     36983
     36982     36981     36991     36982     36981     36998     36983     36979     36984
     36983     36981     36991     36983     36981     36998     36984     36986     36987
     36984     36988     36989     36984     36988     36990     36984     36988     36991
     36985     36984     36986     36985     36984     36988     36986     36984     36988
     36988     36990     37007     36988     36991     36992     36988     36991     36993
     36989     36988     36990     36989     36988     36991     36990     36988     36991
     36990     37007     37008     36990     37007     37011     36990     37007     37012
     36991     36981     36998     36991     36993     36994     36992     36991     36993
     36993     36994     36995     36993     36994     36996     36993     36994     36997
     36995     36994     36996     36995     36994     36997     36996     36994     36997
     36998     37000     37001     36998     37002     37003     36998     37002     37004
     36998     37002     37005     36999     36998     37000     36999     36998     37002
     37000     36998     37002     37002     37005     37006     37003     37002     37004
     37003     37002     37005     37004     37002     37005     37007     37011     37009
     37007     37012     37013     37007     37012     37014     37007     37012     37016
     37008     37007     37011     37008     37007     37012     37009     37019     37016
     37009     37019     37020     37009     37019     37021     37009     37026     37027
     37009     37026     37028     37009     37026     37030     37010     37009     37011
     37010     37009     37019     37010     37009     37026     37011     37007     37012
     37011     37009     37019     37011     37009     37026     37012     37014     37015
     37012     37016     37017     37012     37016     37018     37012     37016     37019
     37013     37012     37014     37013     37012     37016     37014     37012     37016
     37016     37018     37060     37016     37019     37020     37016     37019     37021
     37017     37016     37018     37017     37016     37019     37018     37016     37019
     37018     37060     37061     37018     37060     37064     37018     37060     37065
     37019     37009     37026     37019     37021     37022     37020     37019     37021
     37021     37022     37023     37021     37022     37024     37021     37022     37025
     37023     37022     37024     37023     37022     37025     37024     37022     37025
     37026     37028     37029     37026     37030     37031     37026     37030     37032
     37026     37030     37033     37027     37026     37028     37027     37026     37030
     37028     37026     37030     37030     37033     37034     37031     37030     37032
     37031     37030     37033     37032     37030     37033     37033     37034     37035
     37033     37034     37038     37033     37034     37039     37034     37038     37036
     37034     37039     37040     37034     37039     37041     37034     37039     37043
     37035     37034     37038     37035     37034     37039     37036     37047     37043
     37036     37047     37048     37036     37047     37049     37036     37051     37052
     37036     37051     37053     37036     37051     37055     37037     37036     37038
     37037     37036     37047     37037     37036     37051     37038     37034     37039
     37038     37036     37047     37038     37036     37051     37039     37041     37042
     37039     37043     37044     37039     37043     37045     37039     37043     37047
     37040     37039     37041     37040     37039     37043     37041     37039     37043
     37043     37045     37046     37043     37047     37048     37043     37047     37049
     37044     37043     37045     37044     37043     37047     37045     37043     37047
     37047     37036     37051     37047     37049     37050     37048     37047     37049
     37051     37053     37054     37051     37055     37056     37051     37055     37057
     37051     37055     37058     37052     37051     37053     37052     37051     37055
     37053     37051     37055     37055     37058     37059     37056     37055     37057
     37056     37055     37058     37057     37055     37058     37060     37064     37062
     37060     37065     37066     37060     37065     37067     37060     37065     37069
     37061     37060     37064     37061     37060     37065     37062     37072     37069
     37062     37072     37073     37062     37072     37074     37062     37076     37077
     37062     37076     37078     37062     37076     37079     37063     37062     37064
     37063     37062     37072     37063     37062     37076     37064     37060     37065
     37064     37062     37072     37064     37062     37076     37065     37067     37068
     37065     37069     37070     37065     37069     37071     37065     37069     37072
     37066     37065     37067     37066     37065     37069     37067     37065     37069
     37069     37071     37081     37069     37072     37073     37069     37072     37074
     37070     37069     37071     37070     37069     37072     37071     37069     37072
     37071     37081     37082     37071     37081     37085     37071     37081     37086
     37072     37062     37076     37072     37074     37075     37073     37072     37074
     37076     37079     37080     37077     37076     37078     37077     37076     37079
     37078     37076     37079     37081     37085     37083     37081     37086     37087
     37081     37086     37088     37081     37086     37089     37082     37081     37085
     37082     37081     37086     37083     37092     37089     37083     37092     37093
     37083     37092     37094     37083     37096     37097     37083     37096     37098
     37083     37096     37099     37084     37083     37085     37084     37083     37092
     37084     37083     37096     37085     37081     37086     37085     37083     37092
     37085     37083     37096     37086     37088     37101     37086     37089     37090
     37086     37089     37091     37086     37089     37092     37087     37086     37088
     37087     37086     37089     37088     37086     37089     37088     37101     37102
     37088     37101     37105     37088     37101     37106     37089     37091     37144
     37089     37092     37093     37089     37092     37094     37090     37089     37091
     37090     37089     37092     37091     37089     37092     37091     37144     37145
     37091     37144     37148     37091     37144     37149     37092     37083     37096
     37092     37094     37095     37093     37092     37094     37096     37099     37100
     37097     37096     37098     37097     37096     37099     37098     37096     37099
     37101     37105     37103     37101     37106     37107     37101     37106     37108
     37101     37106     37109     37102     37101     37105     37102     37101     37106
     37103     37113     37109     37103     37113     37114     37103     37113     37115
     37103     37117     37118     37103     37117     37119     37103     37117     37120
     37104     37103     37105     37104     37103     37113     37104     37103     37117
     37105     37101     37106     37105     37103     37113     37105     37103     37117
     37106     37108     37122     37106     37109     37110     37106     37109     37111
     37106     37109     37113     37107     37106     37108     37107     37106     37109
     37108     37106     37109     37108     37122     37123     37108     37122     37126
     37108     37122     37127     37109     37111     37112     37109     37113     37114
     37109     37113     37115     37110     37109     37111     37110     37109     37113
     37111     37109     37113     37113     37103     37117     37113     37115     37116
     37114     37113     37115     37117     37120     37121     37118     37117     37119
     37118     37117     37120     37119     37117     37120     37122     37126     37124
     37122     37127     37128     37122     37127     37129     37122     37127     37131
     37123     37122     37126     37123     37122     37127     37124     37135     37131
     37124     37135     37136     37124     37135     37137     37124     37139     37140
     37124     37139     37141     37124     37139     37142     37125     37124     37126
     37125     37124     37135     37125     37124     37139     37126     37122     37127
     37126     37124     37135     37126     37124     37139     37127     37129     37130
     37127     37131     37132     37127     37131     37133     37127     37131     37135
     37128     37127     37129     37128     37127     37131     37129     37127     37131
     37131     37133     37134     37131     37135     37136     37131     37135     37137
     37132     37131     37133     37132     37131     37135     37133     37131     37135
     37135     37124     37139     37135     37137     37138     37136     37135     37137
     37139     37142     37143     37140     37139     37141     37140     37139     37142
     37141     37139     37142     37144     37148     37146     37144     37149     37150
     37144     37149     37151     37144     37149     37153     37145     37144     37148
     37145     37144     37149     37146     37156     37153     37146     37156     37157
     37146     37156     37158     37146     37160     37161     37146     37160     37162
     37146     37160     37163     37147     37146     37148     37147     37146     37156
     37147     37146     37160     37148     37144     37149     37148     37146     37156
     37148     37146     37160     37149     37151     37152     37149     37153     37154
     37149     37153     37155     37149     37153     37156     37150     37149     37151
     37150     37149     37153     37151     37149     37153     37153     37155     37165
     37153     37156     37157     37153     37156     37158     37154     37153     37155
     37154     37153     37156     37155     37153     37156     37155     37165     37166
     37155     37165     37169     37155     37165     37170     37156     37146     37160
     37156     37158     37159     37157     37156     37158     37160     37163     37164
     37161     37160     37162     37161     37160     37163     37162     37160     37163
     37165     37169     37167     37165     37170     37171     37165     37170     37172
     37165     37170     37180     37166     37165     37169     37166     37165     37170
     37167     37183     37180     37167     37183     37184     37167     37183     37185
     37167     37187     37188     37167     37187     37189     37167     37187     37190
     37168     37167     37169     37168     37167     37183     37168     37167     37187
     37169     37165     37170     37169     37167     37183     37169     37167     37187
     37170     37172     37173     37170     37172     37174     37170     37180     37181
     37170     37180     37182     37170     37180     37183     37171     37170     37172
     37171     37170     37180     37172     37170     37180     37172     37174     37175
     37172     37174     37176     37173     37172     37174     37174     37176     37177
     37174     37176     37178     37174     37176     37179     37175     37174     37176
     37177     37176     37178     37177     37176     37179     37178     37176     37179
     37180     37182     37192     37180     37183     37184     37180     37183     37185
     37181     37180     37182     37181     37180     37183     37182     37180     37183
     37182     37192     37193     37182     37192     37196     37182     37192     37197
     37183     37167     37187     37183     37185     37186     37184     37183     37185
     37187     37190     37191     37188     37187     37189     37188     37187     37190
     37189     37187     37190     37192     37196     37194     37192     37197     37198
     37192     37197     37199     37192     37197     37200     37193     37192     37196
     37193     37192     37197     37194     37204     37200     37194     37204     37205
     37194     37204     37206     37194     37208     37209     37194     37208     37210
     37194     37208     37211     37195     37194     37196     37195     37194     37204
     37195     37194     37208     37196     37192     37197     37196     37194     37204
     37196     37194     37208     37197     37199     37213     37197     37200     37201
     37197     37200     37202     37197     37200     37204     37198     37197     37199
     37198     37197     37200     37199     37197     37200     37199     37213     37214
     37199     37213     37217     37199     37213     37218     37200     37202     37203
     37200     37204     37205     37200     37204     37206     37201     37200     37202
     37201     37200     37204     37202     37200     37204     37204     37194     37208
     37204     37206     37207     37205     37204     37206     37208     37211     37212
     37209     37208     37210     37209     37208     37211     37210     37208     37211
     37213     37217     37215     37213     37218     37219     37213     37218     37220
     37213     37218     37221     37214     37213     37217     37214     37213     37218
     37215     37225     37221     37215     37225     37226     37215     37225     37227
     37215     37229     37230     37215     37229     37231     37215     37229     37232
     37216     37215     37217     37216     37215     37225     37216     37215     37229
     37217     37213     37218     37217     37215     37225     37217     37215     37229
     37218     37220     37233     37218     37221     37222     37218     37221     37223
     37218     37221     37225     37219     37218     37220     37219     37218     37221
     37220     37218     37221     37220     37233     37234     37220     37233     37237
     37220     37233     37238     37221     37223     37224     37221     37225     37226
     37221     37225     37227     37222     37221     37223     37222     37221     37225
     37223     37221     37225     37225     37215     37229     37225     37227     37228
     37226     37225     37227     37230     37229     37231     37230     37229     37232
     37231     37229     37232     37233     37237     37235     37233     37238     37239
     37233     37238     37240     37233     37238     37241     37234     37233     37237
     37234     37233     37238     37235     37244     37241     37235     37244     37245
     37235     37244     37246     37235     37248     37249     37235     37248     37250
     37235     37248     37251     37236     37235     37237     37236     37235     37244
     37236     37235     37248     37237     37233     37238     37237     37235     37244
     37237     37235     37248     37238     37240     37252     37238     37241     37242
     37238     37241     37243     37238     37241     37244     37239     37238     37240
     37239     37238     37241     37240     37238     37241     37240     37252     37253
     37240     37252     37256     37240     37252     37257     37241     37243     37280
     37241     37244     37245     37241     37244     37246     37242     37241     37243
     37242     37241     37244     37243     37241     37244     37243     37280     37281
     37243     37280     37284     37243     37280     37285     37244     37235     37248
     37244     37246     37247     37245     37244     37246     37249     37248     37250
     37249     37248     37251     37250     37248     37251     37252     37256     37254
     37252     37257     37258     37252     37257     37259     37252     37257     37267
     37253     37252     37256     37253     37252     37257     37254     37271     37267
     37254     37271     37272     37254     37271     37273     37254     37275     37276
     37254     37275     37277     37254     37275     37278     37255     37254     37256
     37255     37254     37271     37255     37254     37275     37256     37252     37257
     37256     37254     37271     37256     37254     37275     37257     37259     37260
     37257     37259     37261     37257     37267     37268     37257     37267     37269
     37257     37267     37271     37258     37257     37259     37258     37257     37267
     37259     37257     37267     37259     37261     37262     37259     37261     37263
     37260     37259     37261     37261     37263     37264     37261     37263     37265
     37261     37263     37266     37262     37261     37263     37264     37263     37265
     37264     37263     37266     37265     37263     37266     37267     37269     37270
     37267     37271     37272     37267     37271     37273     37268     37267     37269
     37268     37267     37271     37269     37267     37271     37271     37254     37275
     37271     37273     37274     37272     37271     37273     37275     37278     37279
     37276     37275     37277     37276     37275     37278     37277     37275     37278
     37280     37284     37282     37280     37285     37286     37280     37285     37287
     37280     37285     37295     37281     37280     37284     37281     37280     37285
     37282     37298     37295     37282     37298     37299     37282     37298     37300
     37282     37302     37303     37282     37302     37304     37282     37302     37305
     37283     37282     37284     37283     37282     37298     37283     37282     37302
     37284     37280     37285     37284     37282     37298     37284     37282     37302
     37285     37287     37288     37285     37287     37289     37285     37295     37296
     37285     37295     37297     37285     37295     37298     37286     37285     37287
     37286     37285     37295     37287     37285     37295     37287     37289     37290
     37287     37289     37291     37288     37287     37289     37289     37291     37292
     37289     37291     37293     37289     37291     37294     37290     37289     37291
     37292     37291     37293     37292     37291     37294     37293     37291     37294
     37295     37297     37307     37295     37298     37299     37295     37298     37300
     37296     37295     37297     37296     37295     37298     37297     37295     37298
     37297     37307     37308     37297     37307     37311     37297     37307     37312
     37298     37282     37302     37298     37300     37301     37299     37298     37300
     37302     37305     37306     37303     37302     37304     37303     37302     37305
     37304     37302     37305     37307     37311     37309     37307     37312     37313
     37307     37312     37314     37307     37312     37315     37308     37307     37311
     37308     37307     37312     37309     37319     37315     37309     37319     37320
     37309     37319     37321     37309     37323     37324     37309     37323     37325
     37309     37323     37326     37310     37309     37311     37310     37309     37319
     37310     37309     37323     37311     37307     37312     37311     37309     37319
     37311     37309     37323     37312     37314     37328     37312     37315     37316
     37312     37315     37317     37312     37315     37319     37313     37312     37314
     37313     37312     37315     37314     37312     37315     37314     37328     37329
     37314     37328     37332     37314     37328     37333     37315     37317     37318
     37315     37319     37320     37315     37319     37321     37316     37315     37317
     37316     37315     37319     37317     37315     37319     37319     37309     37323
     37319     37321     37322     37320     37319     37321     37323     37326     37327
     37324     37323     37325     37324     37323     37326     37325     37323     37326
     37328     37332     37330     37328     37333     37334     37328     37333     37335
     37328     37333     37336     37329     37328     37332     37329     37328     37333
     37330     37340     37336     37330     37340     37341     37330     37340     37342
     37330     37344     37345     37330     37344     37346     37330     37344     37347
     37331     37330     37332     37331     37330     37340     37331     37330     37344
     37332     37328     37333     37332     37330     37340     37332     37330     37344
     37333     37335     37348     37333     37336     37337     37333     37336     37338
     37333     37336     37340     37334     37333     37335     37334     37333     37336
     37335     37333     37336     37335     37348     37349     37335     37348     37352
     37335     37348     37353     37336     37338     37339     37336     37340     37341
     37336     37340     37342     37337     37336     37338     37337     37336     37340
     37338     37336     37340     37340     37330     37344     37340     37342     37343
     37341     37340     37342     37345     37344     37346     37345     37344     37347
     37346     37344     37347     37348     37352     37350     37348     37353     37354
     37348     37353     37355     37348     37353     37356     37349     37348     37352
     37349     37348     37353     37350     37359     37356     37350     37359     37360
     37350     37359     37361     37350     37363     37364     37350     37363     37365
     37350     37363     37366     37351     37350     37352     37351     37350     37359
     37351     37350     37363     37352     37348     37353     37352     37350     37359
     37352     37350     37363     37353     37355     37367     37353     37356     37357
     37353     37356     37358     37353     37356     37359     37354     37353     37355
     37354     37353     37356     37355     37353     37356     37355     37367     37368
     37355     37367     37371     37355     37367     37372     37356     37358     37395
     37356     37359     37360     37356     37359     37361     37357     37356     37358
     37357     37356     37359     37358     37356     37359     37358     37395     37396
     37358     37395     37399     37358     37395     37400     37359     37350     37363
     37359     37361     37362     37360     37359     37361     37364     37363     37365
     37364     37363     37366     37365     37363     37366     37367     37371     37369
     37367     37372     37373     37367     37372     37374     37367     37372     37382
     37368     37367     37371     37368     37367     37372     37369     37386     37382
     37369     37386     37387     37369     37386     37388     37369     37390     37391
     37369     37390     37392     37369     37390     37393     37370     37369     37371
     37370     37369     37386     37370     37369     37390     37371     37367     37372
     37371     37369     37386     37371     37369     37390     37372     37374     37375
     37372     37374     37376     37372     37382     37383     37372     37382     37384
     37372     37382     37386     37373     37372     37374     37373     37372     37382
     37374     37372     37382     37374     37376     37377     37374     37376     37378
     37375     37374     37376     37376     37378     37379     37376     37378     37380
     37376     37378     37381     37377     37376     37378     37379     37378     37380
     37379     37378     37381     37380     37378     37381     37382     37384     37385
     37382     37386     37387     37382     37386     37388     37383     37382     37384
     37383     37382     37386     37384     37382     37386     37386     37369     37390
     37386     37388     37389     37387     37386     37388     37390     37393     37394
     37391     37390     37392     37391     37390     37393     37392     37390     37393
     37395     37399     37397     37395     37400     37401     37395     37400     37402
     37395     37400     37410     37396     37395     37399     37396     37395     37400
     37397     37413     37410     37397     37413     37414     37397     37413     37415
     37397     37417     37418     37397     37417     37419     37397     37417     37420
     37398     37397     37399     37398     37397     37413     37398     37397     37417
     37399     37395     37400     37399     37397     37413     37399     37397     37417
     37400     37402     37403     37400     37402     37404     37400     37410     37411
     37400     37410     37412     37400     37410     37413     37401     37400     37402
     37401     37400     37410     37402     37400     37410     37402     37404     37405
     37402     37404     37406     37403     37402     37404     37404     37406     37407
     37404     37406     37408     37404     37406     37409     37405     37404     37406
     37407     37406     37408     37407     37406     37409     37408     37406     37409
     37410     37412     37422     37410     37413     37414     37410     37413     37415
     37411     37410     37412     37411     37410     37413     37412     37410     37413
     37412     37422     37423     37412     37422     37426     37412     37422     37427
     37413     37397     37417     37413     37415     37416     37414     37413     37415
     37417     37420     37421     37418     37417     37419     37418     37417     37420
     37419     37417     37420     37422     37426     37424     37422     37427     37428
     37422     37427     37429     37422     37427     37430     37423     37422     37426
     37423     37422     37427     37424     37434     37430     37424     37434     37435
     37424     37434     37436     37424     37438     37439     37424     37438     37440
     37424     37438     37441     37425     37424     37426     37425     37424     37434
     37425     37424     37438     37426     37422     37427     37426     37424     37434
     37426     37424     37438     37427     37429     37443     37427     37430     37431
     37427     37430     37432     37427     37430     37434     37428     37427     37429
     37428     37427     37430     37429     37427     37430     37429     37443     37444
     37429     37443     37447     37429     37443     37448     37430     37432     37433
     37430     37434     37435     37430     37434     37436     37431     37430     37432
     37431     37430     37434     37432     37430     37434     37434     37424     37438
     37434     37436     37437     37435     37434     37436     37438     37441     37442
     37439     37438     37440     37439     37438     37441     37440     37438     37441
     37443     37447     37445     37443     37448     37449     37443     37448     37450
     37443     37448     37451     37444     37443     37447     37444     37443     37448
     37445     37455     37451     37445     37455     37456     37445     37455     37457
     37445     37459     37460     37445     37459     37461     37445     37459     37462
     37446     37445     37447     37446     37445     37455     37446     37445     37459
     37447     37443     37448     37447     37445     37455     37447     37445     37459
     37448     37450     37463     37448     37451     37452     37448     37451     37453
     37448     37451     37455     37449     37448     37450     37449     37448     37451
     37450     37448     37451     37450     37463     37464     37450     37463     37467
     37450     37463     37468     37451     37453     37454     37451     37455     37456
     37451     37455     37457     37452     37451     37453     37452     37451     37455
     37453     37451     37455     37455     37445     37459     37455     37457     37458
     37456     37455     37457     37460     37459     37461     37460     37459     37462
     37461     37459     37462     37463     37467     37465     37463     37468     37469
     37463     37468     37470     37463     37468     37471     37464     37463     37467
     37464     37463     37468     37465     37474     37471     37465     37474     37475
     37465     37474     37476     37465     37478     37479     37465     37478     37480
     37465     37478     37481     37466     37465     37467     37466     37465     37474
     37466     37465     37478     37467     37463     37468     37467     37465     37474
     37467     37465     37478     37468     37470     37482     37468     37471     37472
     37468     37471     37473     37468     37471     37474     37469     37468     37470
     37469     37468     37471     37470     37468     37471     37470     37482     37483
     37470     37482     37486     37470     37482     37487     37471     37473     37510
     37471     37474     37475     37471     37474     37476     37472     37471     37473
     37472     37471     37474     37473     37471     37474     37473     37510     37511
     37473     37510     37514     37473     37510     37515     37474     37465     37478
     37474     37476     37477     37475     37474     37476     37479     37478     37480
     37479     37478     37481     37480     37478     37481     37482     37486     37484
     37482     37487     37488     37482     37487     37489     37482     37487     37497
     37483     37482     37486     37483     37482     37487     37484     37501     37497
     37484     37501     37502     37484     37501     37503     37484     37505     37506
     37484     37505     37507     37484     37505     37508     37485     37484     37486
     37485     37484     37501     37485     37484     37505     37486     37482     37487
     37486     37484     37501     37486     37484     37505     37487     37489     37490
     37487     37489     37491     37487     37497     37498     37487     37497     37499
     37487     37497     37501     37488     37487     37489     37488     37487     37497
     37489     37487     37497     37489     37491     37492     37489     37491     37493
     37490     37489     37491     37491     37493     37494     37491     37493     37495
     37491     37493     37496     37492     37491     37493     37494     37493     37495
     37494     37493     37496     37495     37493     37496     37497     37499     37500
     37497     37501     37502     37497     37501     37503     37498     37497     37499
     37498     37497     37501     37499     37497     37501     37501     37484     37505
     37501     37503     37504     37502     37501     37503     37505     37508     37509
     37506     37505     37507     37506     37505     37508     37507     37505     37508
     37510     37514     37512     37510     37515     37516     37510     37515     37517
     37510     37515     37525     37511     37510     37514     37511     37510     37515
     37512     37528     37525     37512     37528     37529     37512     37528     37530
     37512     37532     37533     37512     37532     37534     37512     37532     37535
     37513     37512     37514     37513     37512     37528     37513     37512     37532
     37514     37510     37515     37514     37512     37528     37514     37512     37532
     37515     37517     37518     37515     37517     37519     37515     37525     37526
     37515     37525     37527     37515     37525     37528     37516     37515     37517
     37516     37515     37525     37517     37515     37525     37517     37519     37520
     37517     37519     37521     37518     37517     37519     37519     37521     37522
     37519     37521     37523     37519     37521     37524     37520     37519     37521
     37522     37521     37523     37522     37521     37524     37523     37521     37524
     37525     37527     37537     37525     37528     37529     37525     37528     37530
     37526     37525     37527     37526     37525     37528     37527     37525     37528
     37527     37537     37538     37527     37537     37541     37527     37537     37542
     37528     37512     37532     37528     37530     37531     37529     37528     37530
     37532     37535     37536     37533     37532     37534     37533     37532     37535
     37534     37532     37535     37537     37541     37539     37537     37542     37543
     37537     37542     37544     37537     37542     37545     37538     37537     37541
     37538     37537     37542     37539     37549     37545     37539     37549     37550
     37539     37549     37551     37539     37553     37554     37539     37553     37555
     37539     37553     37556     37540     37539     37541     37540     37539     37549
     37540     37539     37553     37541     37537     37542     37541     37539     37549
     37541     37539     37553     37542     37544     37558     37542     37545     37546
     37542     37545     37547     37542     37545     37549     37543     37542     37544
     37543     37542     37545     37544     37542     37545     37544     37558     37559
     37544     37558     37562     37544     37558     37563     37545     37547     37548
     37545     37549     37550     37545     37549     37551     37546     37545     37547
     37546     37545     37549     37547     37545     37549     37549     37539     37553
     37549     37551     37552     37550     37549     37551     37553     37556     37557
     37554     37553     37555     37554     37553     37556     37555     37553     37556
     37558     37562     37560     37558     37563     37564     37558     37563     37565
     37558     37563     37566     37559     37558     37562     37559     37558     37563
     37560     37570     37566     37560     37570     37571     37560     37570     37572
     37560     37574     37575     37560     37574     37576     37560     37574     37577
     37561     37560     37562     37561     37560     37570     37561     37560     37574
     37562     37558     37563     37562     37560     37570     37562     37560     37574
     37563     37565     37578     37563     37566     37567     37563     37566     37568
     37563     37566     37570     37564     37563     37565     37564     37563     37566
     37565     37563     37566     37565     37578     37579     37565     37578     37582
     37565     37578     37583     37566     37568     37569     37566     37570     37571
     37566     37570     37572     37567     37566     37568     37567     37566     37570
     37568     37566     37570     37570     37560     37574     37570     37572     37573
     37571     37570     37572     37575     37574     37576     37575     37574     37577
     37576     37574     37577     37578     37582     37580     37578     37583     37584
     37578     37583     37585     37578     37583     37586     37579     37578     37582
     37579     37578     37583     37580     37589     37586     37580     37589     37590
     37580     37589     37591     37580     37593     37594     37580     37593     37595
     37580     37593     37596     37581     37580     37582     37581     37580     37589
     37581     37580     37593     37582     37578     37583     37582     37580     37589
     37582     37580     37593     37583     37585     37597     37583     37586     37587
     37583     37586     37588     37583     37586     37589     37584     37583     37585
     37584     37583     37586     37585     37583     37586     37585     37597     37598
     37585     37597     37601     37585     37597     37602     37586     37588     37625
     37586     37589     37590     37586     37589     37591     37587     37586     37588
     37587     37586     37589     37588     37586     37589     37588     37625     37626
     37588     37625     37629     37588     37625     37630     37589     37580     37593
     37589     37591     37592     37590     37589     37591     37594     37593     37595
     37594     37593     37596     37595     37593     37596     37597     37601     37599
     37597     37602     37603     37597     37602     37604     37597     37602     37612
     37598     37597     37601     37598     37597     37602     37599     37616     37612
     37599     37616     37617     37599     37616     37618     37599     37620     37621
     37599     37620     37622     37599     37620     37623     37600     37599     37601
     37600     37599     37616     37600     37599     37620     37601     37597     37602
     37601     37599     37616     37601     37599     37620     37602     37604     37605
     37602     37604     37606     37602     37612     37613     37602     37612     37614
     37602     37612     37616     37603     37602     37604     37603     37602     37612
     37604     37602     37612     37604     37606     37607     37604     37606     37608
     37605     37604     37606     37606     37608     37609     37606     37608     37610
     37606     37608     37611     37607     37606     37608     37609     37608     37610
     37609     37608     37611     37610     37608     37611     37612     37614     37615
     37612     37616     37617     37612     37616     37618     37613     37612     37614
     37613     37612     37616     37614     37612     37616     37616     37599     37620
     37616     37618     37619     37617     37616     37618     37620     37623     37624
     37621     37620     37622     37621     37620     37623     37622     37620     37623
     37625     37629     37627     37625     37630     37631     37625     37630     37632
     37625     37630     37640     37626     37625     37629     37626     37625     37630
     37627     37643     37640     37627     37643     37644     37627     37643     37645
     37627     37647     37648     37627     37647     37649     37627     37647     37650
     37628     37627     37629     37628     37627     37643     37628     37627     37647
     37629     37625     37630     37629     37627     37643     37629     37627     37647
     37630     37632     37633     37630     37632     37634     37630     37640     37641
     37630     37640     37642     37630     37640     37643     37631     37630     37632
     37631     37630     37640     37632     37630     37640     37632     37634     37635
     37632     37634     37636     37633     37632     37634     37634     37636     37637
     37634     37636     37638     37634     37636     37639     37635     37634     37636
     37637     37636     37638     37637     37636     37639     37638     37636     37639
     37640     37642     37652     37640     37643     37644     37640     37643     37645
     37641     37640     37642     37641     37640     37643     37642     37640     37643
     37642     37652     37653     37642     37652     37656     37642     37652     37657
     37643     37627     37647     37643     37645     37646     37644     37643     37645
     37647     37650     37651     37648     37647     37649     37648     37647     37650
     37649     37647     37650     37652     37656     37654     37652     37657     37658
     37652     37657     37659     37652     37657     37660     37653     37652     37656
     37653     37652     37657     37654     37664     37660     37654     37664     37665
     37654     37664     37666     37654     37668     37669     37654     37668     37670
     37654     37668     37671     37655     37654     37656     37655     37654     37664
     37655     37654     37668     37656     37652     37657     37656     37654     37664
     37656     37654     37668     37657     37659     37673     37657     37660     37661
     37657     37660     37662     37657     37660     37664     37658     37657     37659
     37658     37657     37660     37659     37657     37660     37659     37673     37674
     37659     37673     37677     37659     37673     37678     37660     37662     37663
     37660     37664     37665     37660     37664     37666     37661     37660     37662
     37661     37660     37664     37662     37660     37664     37664     37654     37668
     37664     37666     37667     37665     37664     37666     37668     37671     37672
     37669     37668     37670     37669     37668     37671     37670     37668     37671
     37673     37677     37675     37673     37678     37679     37673     37678     37680
     37673     37678     37681     37674     37673     37677     37674     37673     37678
     37675     37685     37681     37675     37685     37686     37675     37685     37687
     37675     37689     37690     37675     37689     37691     37675     37689     37692
     37676     37675     37677     37676     37675     37685     37676     37675     37689
     37677     37673     37678     37677     37675     37685     37677     37675     37689
     37678     37680     37693     37678     37681     37682     37678     37681     37683
     37678     37681     37685     37679     37678     37680     37679     37678     37681
     37680     37678     37681     37680     37693     37694     37680     37693     37697
     37680     37693     37698     37681     37683     37684     37681     37685     37686
     37681     37685     37687     37682     37681     37683     37682     37681     37685
     37683     37681     37685     37685     37675     37689     37685     37687     37688
     37686     37685     37687     37690     37689     37691     37690     37689     37692
     37691     37689     37692     37693     37697     37695     37693     37698     37699
     37693     37698     37700     37693     37698     37701     37694     37693     37697
     37694     37693     37698     37695     37705     37701     37695     37705     37706
     37695     37705     37707     37695     37709     37710     37695     37709     37711
     37695     37709     37712     37696     37695     37697     37696     37695     37705
     37696     37695     37709     37697     37693     37698     37697     37695     37705
     37697     37695     37709     37698     37700     37713     37698     37701     37702
     37698     37701     37703     37698     37701     37705     37699     37698     37700
     37699     37698     37701     37700     37698     37701     37700     37713     37714
     37700     37713     37717     37700     37713     37718     37701     37703     37704
     37701     37705     37706     37701     37705     37707     37702     37701     37703
     37702     37701     37705     37703     37701     37705     37705     37695     37709
     37705     37707     37708     37706     37705     37707     37710     37709     37711
     37710     37709     37712     37711     37709     37712     37713     37717     37715
     37713     37718     37719     37713     37718     37720     37713     37718     37728
     37714     37713     37717     37714     37713     37718     37715     37732     37728
     37715     37732     37733     37715     37732     37734     37715     37736     37737
     37715     37736     37738     37715     37736     37739     37716     37715     37717
     37716     37715     37732     37716     37715     37736     37717     37713     37718
     37717     37715     37732     37717     37715     37736     37718     37720     37721
     37718     37720     37722     37718     37728     37729     37718     37728     37730
     37718     37728     37732     37719     37718     37720     37719     37718     37728
     37720     37718     37728     37720     37722     37723     37720     37722     37724
     37721     37720     37722     37722     37724     37725     37722     37724     37726
     37722     37724     37727     37723     37722     37724     37725     37724     37726
     37725     37724     37727     37726     37724     37727     37728     37730     37731
     37728     37732     37733     37728     37732     37734     37729     37728     37730
     37729     37728     37732     37730     37728     37732     37732     37715     37736
     37732     37734     37735     37733     37732     37734     37736     37739     37740
     37737     37736     37738     37737     37736     37739     37738     37736     37739
     37741     37743     37742     37741     37743     37744     37741     37743     37745
     37742     37743     37744     37742     37743     37745     37742     38040     38037
     37742     38040     38043     37742     38040     38044     37743     37742     38040
     37743     37745     37746     37743     37745     37747     37743     37745     37754
     37744     37743     37745     37745     37746     37748     37745     37754     37755
     37745     37754     37756     37745     37754     37761     37746     37745     37747
     37746     37745     37754     37746     37748     37749     37746     37748     37750
     37746     37748     37769     37747     37745     37754     37748     37750     37751
     37748     37769     37761     37748     37769     37770     37748     37769     37771
     37749     37748     37750     37749     37748     37769     37750     37748     37769
     37750     37751     37752     37750     37751     37753     37750     37751     37777
     37751     37777     37773     37751     37777     37778     37751     37777     37779
     37752     37751     37753     37752     37751     37777     37753     37751     37777
     37754     37756     37757     37754     37761     37762     37754     37761     37763
     37754     37761     37769     37755     37754     37756     37755     37754     37761
     37756     37754     37761     37756     37757     37758     37756     37757     37759
     37756     37757     37760     37758     37757     37759     37758     37757     37760
     37759     37757     37760     37761     37762     37764     37761     37769     37770
     37761     37769     37771     37762     37761     37763     37762     37761     37769
     37762     37764     37765     37762     37764     37766     37763     37761     37769
     37764     37766     37767     37764     37766     37768     37764     37766     37799
     37765     37764     37766     37766     37799     37800     37766     37799     37801
     37766     37799     37844     37767     37766     37768     37767     37766     37799
     37768     37766     37799     37769     37771     37772     37769     37771     37878
     37770     37769     37771     37771     37878     37879     37771     37878     37880
     37772     37771     37878     37773     37775     37776     37773     37777     37778
     37773     37777     37779     37773     37787     37788     37773     37787     37789
     37773     37787     37795     37774     37773     37775     37774     37773     37777
     37774     37773     37787     37775     37773     37777     37775     37773     37787
     37777     37773     37787     37777     37779     37780     37778     37777     37779
     37779     37780     37781     37779     37780     37782     37779     37780     37795
     37780     37782     37786     37780     37795     37787     37780     37795     37796
     37780     37795     37797     37781     37780     37782     37781     37780     37795
     37782     37780     37795     37782     37786     37783     37782     37786     37784
     37782     37786     37785     37783     37786     37784     37783     37786     37785
     37784     37786     37785     37787     37789     37790     37787     37795     37796
     37787     37795     37797     37788     37787     37789     37788     37787     37795
     37789     37787     37795     37789     37790     37791     37789     37790     37792
     37790     37792     37793     37790     37792     37794     37790     37792     37956
     37791     37790     37792     37792     37956     37957     37792     37956     37958
     37792     37956     37960     37793     37792     37794     37793     37792     37956
     37794     37792     37956     37795     37797     37798     37795     37797     37994
     37796     37795     37797     37797     37994     37995     37797     37994     37996
     37798     37797     37994     37799     37801     37802     37799     37844     37845
     37799     37844     37846     37799     37844     37847     37800     37799     37801
     37800     37799     37844     37801     37799     37844     37801     37802     37803
     37801     37802     37804     37802     37804     37805     37802     37804     37806
     37802     37804     37807     37803     37802     37804     37804     37807     37808
     37804     37807     37809     37804     37807     37810     37805     37804     37806
     37805     37804     37807     37806     37804     37807     37807     37810     37811
     37807     37810     37812     37807     37810     37813     37808     37807     37809
     37808     37807     37810     37809     37807     37810     37810     37813     37814
     37810     37813     37815     37810     37813     37816     37811     37810     37812
     37811     37810     37813     37812     37810     37813     37813     37816     37817
     37813     37816     37818     37813     37816     37819     37814     37813     37815
     37814     37813     37816     37815     37813     37816     37816     37819     37820
     37816     37819     37821     37816     37819     37822     37817     37816     37818
     37817     37816     37819     37818     37816     37819     37819     37822     37823
     37819     37822     37824     37819     37822     37825     37820     37819     37821
     37820     37819     37822     37821     37819     37822     37822     37825     37826
     37822     37825     37827     37822     37825     37828     37823     37822     37824
     37823     37822     37825     37824     37822     37825     37825     37828     37829
     37825     37828     37830     37825     37828     37831     37826     37825     37827
     37826     37825     37828     37827     37825     37828     37828     37831     37832
     37828     37831     37833     37828     37831     37834     37829     37828     37830
     37829     37828     37831     37830     37828     37831     37831     37834     37835
     37831     37834     37836     37831     37834     37837     37832     37831     37833
     37832     37831     37834     37833     37831     37834     37834     37837     37838
     37834     37837     37839     37834     37837     37840     37835     37834     37836
     37835     37834     37837     37836     37834     37837     37837     37840     37841
     37837     37840     37842     37837     37840     37843     37838     37837     37839
     37838     37837     37840     37839     37837     37840     37841     37840     37842
     37841     37840     37843     37842     37840     37843     37844     37847     37848
     37844     37847     37849     37844     37847     37850     37845     37844     37846
     37845     37844     37847     37846     37844     37847     37847     37850     37851
     37847     37850     37852     37847     37850     37853     37848     37847     37849
     37848     37847     37850     37849     37847     37850     37850     37853     37854
     37850     37853     37855     37850     37853     37856     37851     37850     37852
     37851     37850     37853     37852     37850     37853     37853     37856     37857
     37853     37856     37858     37853     37856     37859     37854     37853     37855
     37854     37853     37856     37855     37853     37856     37856     37859     37860
     37856     37859     37861     37856     37859     37862     37857     37856     37858
     37857     37856     37859     37858     37856     37859     37859     37862     37863
     37859     37862     37864     37859     37862     37865     37860     37859     37861
     37860     37859     37862     37861     37859     37862     37862     37865     37866
     37862     37865     37867     37862     37865     37868     37863     37862     37864
     37863     37862     37865     37864     37862     37865     37865     37868     37869
     37865     37868     37870     37865     37868     37871     37866     37865     37867
     37866     37865     37868     37867     37865     37868     37868     37871     37872
     37868     37871     37873     37868     37871     37874     37869     37868     37870
     37869     37868     37871     37870     37868     37871     37871     37874     37875
     37871     37874     37876     37871     37874     37877     37872     37871     37873
     37872     37871     37874     37873     37871     37874     37875     37874     37876
     37875     37874     37877     37876     37874     37877     37878     37880     37881
     37878     37880     37882     37878     37880     37883     37879     37878     37880
     37880     37883     37884     37880     37883     37885     37880     37883     37922
     37881     37880     37882     37881     37880     37883     37882     37880     37883
     37883     37885     37886     37883     37922     37923     37883     37922     37924
     37883     37922     37925     37884     37883     37885     37884     37883     37922
     37885     37883     37922     37885     37886     37887     37885     37886     37888
     37886     37888     37889     37886     37888     37890     37886     37888     37891
     37887     37886     37888     37888     37891     37892     37888     37891     37893
     37888     37891     37894     37889     37888     37890     37889     37888     37891
     37890     37888     37891     37891     37894     37895     37891     37894     37896
     37891     37894     37897     37892     37891     37893     37892     37891     37894
     37893     37891     37894     37894     37897     37898     37894     37897     37899
     37894     37897     37900     37895     37894     37896     37895     37894     37897
     37896     37894     37897     37897     37900     37901     37897     37900     37902
     37897     37900     37903     37898     37897     37899     37898     37897     37900
     37899     37897     37900     37900     37903     37904     37900     37903     37905
     37900     37903     37906     37901     37900     37902     37901     37900     37903
     37902     37900     37903     37903     37906     37907     37903     37906     37908
     37903     37906     37909     37904     37903     37905     37904     37903     37906
     37905     37903     37906     37906     37909     37910     37906     37909     37911
     37906     37909     37912     37907     37906     37908     37907     37906     37909
     37908     37906     37909     37909     37912     37913     37909     37912     37914
     37909     37912     37915     37910     37909     37911     37910     37909     37912
     37911     37909     37912     37912     37915     37916     37912     37915     37917
     37912     37915     37918     37913     37912     37914     37913     37912     37915
     37914     37912     37915     37915     37918     37919     37915     37918     37920
     37915     37918     37921     37916     37915     37917     37916     37915     37918
     37917     37915     37918     37919     37918     37920     37919     37918     37921
     37920     37918     37921     37922     37925     37926     37922     37925     37927
     37922     37925     37928     37923     37922     37924     37923     37922     37925
     37924     37922     37925     37925     37928     37929     37925     37928     37930
     37925     37928     37931     37926     37925     37927     37926     37925     37928
     37927     37925     37928     37928     37931     37932     37928     37931     37933
     37928     37931     37934     37929     37928     37930     37929     37928     37931
     37930     37928     37931     37931     37934     37935     37931     37934     37936
     37931     37934     37937     37932     37931     37933     37932     37931     37934
     37933     37931     37934     37934     37937     37938     37934     37937     37939
     37934     37937     37940     37935     37934     37936     37935     37934     37937
     37936     37934     37937     37937     37940     37941     37937     37940     37942
     37937     37940     37943     37938     37937     37939     37938     37937     37940
     37939     37937     37940     37940     37943     37944     37940     37943     37945
     37940     37943     37946     37941     37940     37942     37941     37940     37943
     37942     37940     37943     37943     37946     37947     37943     37946     37948
     37943     37946     37949     37944     37943     37945     37944     37943     37946
     37945     37943     37946     37946     37949     37950     37946     37949     37951
     37946     37949     37952     37947     37946     37948     37947     37946     37949
     37948     37946     37949     37949     37952     37953     37949     37952     37954
     37949     37952     37955     37950     37949     37951     37950     37949     37952
     37951     37949     37952     37953     37952     37954     37953     37952     37955
     37954     37952     37955     37956     37958     37959     37956     37960     37961
     37956     37960     37962     37956     37960     37963     37957     37956     37958
     37957     37956     37960     37958     37956     37960     37960     37963     37964
     37960     37963     37965     37960     37963     37966     37961     37960     37962
     37961     37960     37963     37962     37960     37963     37963     37966     37967
     37963     37966     37968     37963     37966     37969     37964     37963     37965
     37964     37963     37966     37965     37963     37966     37966     37969     37970
     37966     37969     37971     37966     37969     37972     37967     37966     37968
     37967     37966     37969     37968     37966     37969     37969     37972     37973
     37969     37972     37974     37969     37972     37975     37970     37969     37971
     37970     37969     37972     37971     37969     37972     37972     37975     37976
     37972     37975     37977     37972     37975     37978     37973     37972     37974
     37973     37972     37975     37974     37972     37975     37975     37978     37979
     37975     37978     37980     37975     37978     37981     37976     37975     37977
     37976     37975     37978     37977     37975     37978     37978     37981     37982
     37978     37981     37983     37978     37981     37984     37979     37978     37980
     37979     37978     37981     37980     37978     37981     37981     37984     37985
     37981     37984     37986     37981     37984     37987     37982     37981     37983
     37982     37981     37984     37983     37981     37984     37984     37987     37988
     37984     37987     37989     37984     37987     37990     37985     37984     37986
     37985     37984     37987     37986     37984     37987     37987     37990     37991
     37987     37990     37992     37987     37990     37993     37988     37987     37989
     37988     37987     37990     37989     37987     37990     37991     37990     37992
     37991     37990     37993     37992     37990     37993     37994     37996     37997
     37994     37996     37998     37994     37996     37999     37995     37994     37996
     37996     37999     38000     37996     37999     38001     37996     37999     38003
     37997     37996     37998     37997     37996     37999     37998     37996     37999
     37999     38001     38002     37999     38003     38004     37999     38003     38005
     37999     38003     38006     38000     37999     38001     38000     37999     38003
     38001     37999     38003     38003     38006     38007     38003     38006     38008
     38003     38006     38009     38004     38003     38005     38004     38003     38006
     38005     38003     38006     38006     38009     38010     38006     38009     38011
     38006     38009     38012     38007     38006     38008     38007     38006     38009
     38008     38006     38009     38009     38012     38013     38009     38012     38014
     38009     38012     38015     38010     38009     38011     38010     38009     38012
     38011     38009     38012     38012     38015     38016     38012     38015     38017
     38012     38015     38018     38013     38012     38014     38013     38012     38015
     38014     38012     38015     38015     38018     38019     38015     38018     38020
     38015     38018     38021     38016     38015     38017     38016     38015     38018
     38017     38015     38018     38018     38021     38022     38018     38021     38023
     38018     38021     38024     38019     38018     38020     38019     38018     38021
     38020     38018     38021     38021     38024     38025     38021     38024     38026
     38021     38024     38027     38022     38021     38023     38022     38021     38024
     38023     38021     38024     38024     38027     38028     38024     38027     38029
     38024     38027     38030     38025     38024     38026     38025     38024     38027
     38026     38024     38027     38027     38030     38031     38027     38030     38032
     38027     38030     38033     38028     38027     38029     38028     38027     38030
     38029     38027     38030     38030     38033     38034     38030     38033     38035
     38030     38033     38036     38031     38030     38032     38031     38030     38033
     38032     38030     38033     38034     38033     38035     38034     38033     38036
     38035     38033     38036     38037     38040     38043     38037     38040     38044
     38038     38037     38039     38038     38037     38040     38039     38037     38040
     38040     38043     38041     38040     38044     38045     38040     38044     38046
     38040     38044     38047     38041     38050     38047     38041     38050     38051
     38041     38050     38052     38041     38053     38054     38041     38053     38055
     38041     38053     38057     38042     38041     38043     38042     38041     38050
     38042     38041     38053     38043     38040     38044     38043     38041     38050
     38043     38041     38053     38044     38047     38048     38044     38047     38049
     38044     38047     38050     38045     38044     38046     38045     38044     38047
     38046     38044     38047     38047     38049     38065     38047     38050     38051
     38047     38050     38052     38048     38047     38049     38048     38047     38050
     38049     38047     38050     38049     38065     38062     38049     38065     38068
     38049     38065     38069     38050     38041     38053     38050     38052     38089
     38051     38050     38052     38052     38089     38090     38052     38089     38093
     38052     38089     38094     38053     38055     38056     38053     38057     38058
     38053     38057     38059     38053     38057     38060     38054     38053     38055
     38054     38053     38057     38055     38053     38057     38057     38060     38061
     38058     38057     38059     38058     38057     38060     38059     38057     38060
     38062     38065     38068     38062     38065     38069     38063     38062     38064
     38063     38062     38065     38064     38062     38065     38065     38068     38066
     38065     38069     38070     38065     38069     38071     38065     38069     38072
     38066     38076     38072     38066     38076     38077     38066     38076     38078
     38066     38080     38081     38066     38080     38082     38066     38080     38084
     38067     38066     38068     38067     38066     38076     38067     38066     38080
     38068     38065     38069     38068     38066     38076     38068     38066     38080
     38069     38072     38073     38069     38072     38074     38069     38072     38076
     38070     38069     38071     38070     38069     38072     38071     38069     38072
     38072     38074     38075     38072     38076     38077     38072     38076     38078
     38073     38072     38074     38073     38072     38076     38074     38072     38076
     38076     38066     38080     38076     38078     38079     38077     38076     38078
     38080     38082     38083     38080     38084     38085     38080     38084     38086
     38080     38084     38087     38081     38080     38082     38081     38080     38084
     38082     38080     38084     38084     38087     38088     38085     38084     38086
     38085     38084     38087     38086     38084     38087     38089     38093     38091
     38089     38094     38095     38089     38094     38096     38089     38094     38098
     38090     38089     38093     38090     38089     38094     38091     38101     38098
     38091     38101     38102     38091     38101     38103     38091     38108     38109
     38091     38108     38110     38091     38108     38112     38092     38091     38093
     38092     38091     38101     38092     38091     38108     38093     38089     38094
     38093     38091     38101     38093     38091     38108     38094     38096     38097
     38094     38098     38099     38094     38098     38100     38094     38098     38101
     38095     38094     38096     38095     38094     38098     38096     38094     38098
     38098     38100     38117     38098     38101     38102     38098     38101     38103
     38099     38098     38100     38099     38098     38101     38100     38098     38101
     38100     38117     38118     38100     38117     38121     38100     38117     38122
     38101     38091     38108     38101     38103     38104     38102     38101     38103
     38103     38104     38105     38103     38104     38106     38103     38104     38107
     38105     38104     38106     38105     38104     38107     38106     38104     38107
     38108     38110     38111     38108     38112     38113     38108     38112     38114
     38108     38112     38115     38109     38108     38110     38109     38108     38112
     38110     38108     38112     38112     38115     38116     38113     38112     38114
     38113     38112     38115     38114     38112     38115     38117     38121     38119
     38117     38122     38123     38117     38122     38124     38117     38122     38126
     38118     38117     38121     38118     38117     38122     38119     38129     38126
     38119     38129     38130     38119     38129     38131     38119     38136     38137
     38119     38136     38138     38119     38136     38140     38120     38119     38121
     38120     38119     38129     38120     38119     38136     38121     38117     38122
     38121     38119     38129     38121     38119     38136     38122     38124     38125
     38122     38126     38127     38122     38126     38128     38122     38126     38129
     38123     38122     38124     38123     38122     38126     38124     38122     38126
     38126     38128     38170     38126     38129     38130     38126     38129     38131
     38127     38126     38128     38127     38126     38129     38128     38126     38129
     38128     38170     38171     38128     38170     38174     38128     38170     38175
     38129     38119     38136     38129     38131     38132     38130     38129     38131
     38131     38132     38133     38131     38132     38134     38131     38132     38135
     38133     38132     38134     38133     38132     38135     38134     38132     38135
     38136     38138     38139     38136     38140     38141     38136     38140     38142
     38136     38140     38143     38137     38136     38138     38137     38136     38140
     38138     38136     38140     38140     38143     38144     38141     38140     38142
     38141     38140     38143     38142     38140     38143     38143     38144     38145
     38143     38144     38148     38143     38144     38149     38144     38148     38146
     38144     38149     38150     38144     38149     38151     38144     38149     38153
     38145     38144     38148     38145     38144     38149     38146     38157     38153
     38146     38157     38158     38146     38157     38159     38146     38161     38162
     38146     38161     38163     38146     38161     38165     38147     38146     38148
     38147     38146     38157     38147     38146     38161     38148     38144     38149
     38148     38146     38157     38148     38146     38161     38149     38151     38152
     38149     38153     38154     38149     38153     38155     38149     38153     38157
     38150     38149     38151     38150     38149     38153     38151     38149     38153
     38153     38155     38156     38153     38157     38158     38153     38157     38159
     38154     38153     38155     38154     38153     38157     38155     38153     38157
     38157     38146     38161     38157     38159     38160     38158     38157     38159
     38161     38163     38164     38161     38165     38166     38161     38165     38167
     38161     38165     38168     38162     38161     38163     38162     38161     38165
     38163     38161     38165     38165     38168     38169     38166     38165     38167
     38166     38165     38168     38167     38165     38168     38170     38174     38172
     38170     38175     38176     38170     38175     38177     38170     38175     38179
     38171     38170     38174     38171     38170     38175     38172     38182     38179
     38172     38182     38183     38172     38182     38184     38172     38186     38187
     38172     38186     38188     38172     38186     38189     38173     38172     38174
     38173     38172     38182     38173     38172     38186     38174     38170     38175
     38174     38172     38182     38174     38172     38186     38175     38177     38178
     38175     38179     38180     38175     38179     38181     38175     38179     38182
     38176     38175     38177     38176     38175     38179     38177     38175     38179
     38179     38181     38191     38179     38182     38183     38179     38182     38184
     38180     38179     38181     38180     38179     38182     38181     38179     38182
     38181     38191     38192     38181     38191     38195     38181     38191     38196
     38182     38172     38186     38182     38184     38185     38183     38182     38184
     38186     38189     38190     38187     38186     38188     38187     38186     38189
     38188     38186     38189     38191     38195     38193     38191     38196     38197
     38191     38196     38198     38191     38196     38199     38192     38191     38195
     38192     38191     38196     38193     38202     38199     38193     38202     38203
     38193     38202     38204     38193     38206     38207     38193     38206     38208
     38193     38206     38209     38194     38193     38195     38194     38193     38202
     38194     38193     38206     38195     38191     38196     38195     38193     38202
     38195     38193     38206     38196     38198     38211     38196     38199     38200
     38196     38199     38201     38196     38199     38202     38197     38196     38198
     38197     38196     38199     38198     38196     38199     38198     38211     38212
     38198     38211     38215     38198     38211     38216     38199     38201     38254
     38199     38202     38203     38199     38202     38204     38200     38199     38201
     38200     38199     38202     38201     38199     38202     38201     38254     38255
     38201     38254     38258     38201     38254     38259     38202     38193     38206
     38202     38204     38205     38203     38202     38204     38206     38209     38210
     38207     38206     38208     38207     38206     38209     38208     38206     38209
     38211     38215     38213     38211     38216     38217     38211     38216     38218
     38211     38216     38219     38212     38211     38215     38212     38211     38216
     38213     38223     38219     38213     38223     38224     38213     38223     38225
     38213     38227     38228     38213     38227     38229     38213     38227     38230
     38214     38213     38215     38214     38213     38223     38214     38213     38227
     38215     38211     38216     38215     38213     38223     38215     38213     38227
     38216     38218     38232     38216     38219     38220     38216     38219     38221
     38216     38219     38223     38217     38216     38218     38217     38216     38219
     38218     38216     38219     38218     38232     38233     38218     38232     38236
     38218     38232     38237     38219     38221     38222     38219     38223     38224
     38219     38223     38225     38220     38219     38221     38220     38219     38223
     38221     38219     38223     38223     38213     38227     38223     38225     38226
     38224     38223     38225     38227     38230     38231     38228     38227     38229
     38228     38227     38230     38229     38227     38230     38232     38236     38234
     38232     38237     38238     38232     38237     38239     38232     38237     38241
     38233     38232     38236     38233     38232     38237     38234     38245     38241
     38234     38245     38246     38234     38245     38247     38234     38249     38250
     38234     38249     38251     38234     38249     38252     38235     38234     38236
     38235     38234     38245     38235     38234     38249     38236     38232     38237
     38236     38234     38245     38236     38234     38249     38237     38239     38240
     38237     38241     38242     38237     38241     38243     38237     38241     38245
     38238     38237     38239     38238     38237     38241     38239     38237     38241
     38241     38243     38244     38241     38245     38246     38241     38245     38247
     38242     38241     38243     38242     38241     38245     38243     38241     38245
     38245     38234     38249     38245     38247     38248     38246     38245     38247
     38249     38252     38253     38250     38249     38251     38250     38249     38252
     38251     38249     38252     38254     38258     38256     38254     38259     38260
     38254     38259     38261     38254     38259     38263     38255     38254     38258
     38255     38254     38259     38256     38266     38263     38256     38266     38267
     38256     38266     38268     38256     38270     38271     38256     38270     38272
     38256     38270     38273     38257     38256     38258     38257     38256     38266
     38257     38256     38270     38258     38254     38259     38258     38256     38266
     38258     38256     38270     38259     38261     38262     38259     38263     38264
     38259     38263     38265     38259     38263     38266     38260     38259     38261
     38260     38259     38263     38261     38259     38263     38263     38265     38275
     38263     38266     38267     38263     38266     38268     38264     38263     38265
     38264     38263     38266     38265     38263     38266     38265     38275     38276
     38265     38275     38279     38265     38275     38280     38266     38256     38270
     38266     38268     38269     38267     38266     38268     38270     38273     38274
     38271     38270     38272     38271     38270     38273     38272     38270     38273
     38275     38279     38277     38275     38280     38281     38275     38280     38282
     38275     38280     38290     38276     38275     38279     38276     38275     38280
     38277     38293     38290     38277     38293     38294     38277     38293     38295
     38277     38297     38298     38277     38297     38299     38277     38297     38300
     38278     38277     38279     38278     38277     38293     38278     38277     38297
     38279     38275     38280     38279     38277     38293     38279     38277     38297
     38280     38282     38283     38280     38282     38284     38280     38290     38291
     38280     38290     38292     38280     38290     38293     38281     38280     38282
     38281     38280     38290     38282     38280     38290     38282     38284     38285
     38282     38284     38286     38283     38282     38284     38284     38286     38287
     38284     38286     38288     38284     38286     38289     38285     38284     38286
     38287     38286     38288     38287     38286     38289     38288     38286     38289
     38290     38292     38302     38290     38293     38294     38290     38293     38295
     38291     38290     38292     38291     38290     38293     38292     38290     38293
     38292     38302     38303     38292     38302     38306     38292     38302     38307
     38293     38277     38297     38293     38295     38296     38294     38293     38295
     38297     38300     38301     38298     38297     38299     38298     38297     38300
     38299     38297     38300     38302     38306     38304     38302     38307     38308
     38302     38307     38309     38302     38307     38310     38303     38302     38306
     38303     38302     38307     38304     38314     38310     38304     38314     38315
     38304     38314     38316     38304     38318     38319     38304     38318     38320
     38304     38318     38321     38305     38304     38306     38305     38304     38314
     38305     38304     38318     38306     38302     38307     38306     38304     38314
     38306     38304     38318     38307     38309     38323     38307     38310     38311
     38307     38310     38312     38307     38310     38314     38308     38307     38309
     38308     38307     38310     38309     38307     38310     38309     38323     38324
     38309     38323     38327     38309     38323     38328     38310     38312     38313
     38310     38314     38315     38310     38314     38316     38311     38310     38312
     38311     38310     38314     38312     38310     38314     38314     38304     38318
     38314     38316     38317     38315     38314     38316     38318     38321     38322
     38319     38318     38320     38319     38318     38321     38320     38318     38321
     38323     38327     38325     38323     38328     38329     38323     38328     38330
     38323     38328     38331     38324     38323     38327     38324     38323     38328
     38325     38335     38331     38325     38335     38336     38325     38335     38337
     38325     38339     38340     38325     38339     38341     38325     38339     38342
     38326     38325     38327     38326     38325     38335     38326     38325     38339
     38327     38323     38328     38327     38325     38335     38327     38325     38339
     38328     38330     38343     38328     38331     38332     38328     38331     38333
     38328     38331     38335     38329     38328     38330     38329     38328     38331
     38330     38328     38331     38330     38343     38344     38330     38343     38347
     38330     38343     38348     38331     38333     38334     38331     38335     38336
     38331     38335     38337     38332     38331     38333     38332     38331     38335
     38333     38331     38335     38335     38325     38339     38335     38337     38338
     38336     38335     38337     38340     38339     38341     38340     38339     38342
     38341     38339     38342     38343     38347     38345     38343     38348     38349
     38343     38348     38350     38343     38348     38351     38344     38343     38347
     38344     38343     38348     38345     38354     38351     38345     38354     38355
     38345     38354     38356     38345     38358     38359     38345     38358     38360
     38345     38358     38361     38346     38345     38347     38346     38345     38354
     38346     38345     38358     38347     38343     38348     38347     38345     38354
     38347     38345     38358     38348     38350     38362     38348     38351     38352
     38348     38351     38353     38348     38351     38354     38349     38348     38350
     38349     38348     38351     38350     38348     38351     38350     38362     38363
     38350     38362     38366     38350     38362     38367     38351     38353     38390
     38351     38354     38355     38351     38354     38356     38352     38351     38353
     38352     38351     38354     38353     38351     38354     38353     38390     38391
     38353     38390     38394     38353     38390     38395     38354     38345     38358
     38354     38356     38357     38355     38354     38356     38359     38358     38360
     38359     38358     38361     38360     38358     38361     38362     38366     38364
     38362     38367     38368     38362     38367     38369     38362     38367     38377
     38363     38362     38366     38363     38362     38367     38364     38381     38377
     38364     38381     38382     38364     38381     38383     38364     38385     38386
     38364     38385     38387     38364     38385     38388     38365     38364     38366
     38365     38364     38381     38365     38364     38385     38366     38362     38367
     38366     38364     38381     38366     38364     38385     38367     38369     38370
     38367     38369     38371     38367     38377     38378     38367     38377     38379
     38367     38377     38381     38368     38367     38369     38368     38367     38377
     38369     38367     38377     38369     38371     38372     38369     38371     38373
     38370     38369     38371     38371     38373     38374     38371     38373     38375
     38371     38373     38376     38372     38371     38373     38374     38373     38375
     38374     38373     38376     38375     38373     38376     38377     38379     38380
     38377     38381     38382     38377     38381     38383     38378     38377     38379
     38378     38377     38381     38379     38377     38381     38381     38364     38385
     38381     38383     38384     38382     38381     38383     38385     38388     38389
     38386     38385     38387     38386     38385     38388     38387     38385     38388
     38390     38394     38392     38390     38395     38396     38390     38395     38397
     38390     38395     38405     38391     38390     38394     38391     38390     38395
     38392     38408     38405     38392     38408     38409     38392     38408     38410
     38392     38412     38413     38392     38412     38414     38392     38412     38415
     38393     38392     38394     38393     38392     38408     38393     38392     38412
     38394     38390     38395     38394     38392     38408     38394     38392     38412
     38395     38397     38398     38395     38397     38399     38395     38405     38406
     38395     38405     38407     38395     38405     38408     38396     38395     38397
     38396     38395     38405     38397     38395     38405     38397     38399     38400
     38397     38399     38401     38398     38397     38399     38399     38401     38402
     38399     38401     38403     38399     38401     38404     38400     38399     38401
     38402     38401     38403     38402     38401     38404     38403     38401     38404
     38405     38407     38417     38405     38408     38409     38405     38408     38410
     38406     38405     38407     38406     38405     38408     38407     38405     38408
     38407     38417     38418     38407     38417     38421     38407     38417     38422
     38408     38392     38412     38408     38410     38411     38409     38408     38410
     38412     38415     38416     38413     38412     38414     38413     38412     38415
     38414     38412     38415     38417     38421     38419     38417     38422     38423
     38417     38422     38424     38417     38422     38425     38418     38417     38421
     38418     38417     38422     38419     38429     38425     38419     38429     38430
     38419     38429     38431     38419     38433     38434     38419     38433     38435
     38419     38433     38436     38420     38419     38421     38420     38419     38429
     38420     38419     38433     38421     38417     38422     38421     38419     38429
     38421     38419     38433     38422     38424     38438     38422     38425     38426
     38422     38425     38427     38422     38425     38429     38423     38422     38424
     38423     38422     38425     38424     38422     38425     38424     38438     38439
     38424     38438     38442     38424     38438     38443     38425     38427     38428
     38425     38429     38430     38425     38429     38431     38426     38425     38427
     38426     38425     38429     38427     38425     38429     38429     38419     38433
     38429     38431     38432     38430     38429     38431     38433     38436     38437
     38434     38433     38435     38434     38433     38436     38435     38433     38436
     38438     38442     38440     38438     38443     38444     38438     38443     38445
     38438     38443     38446     38439     38438     38442     38439     38438     38443
     38440     38450     38446     38440     38450     38451     38440     38450     38452
     38440     38454     38455     38440     38454     38456     38440     38454     38457
     38441     38440     38442     38441     38440     38450     38441     38440     38454
     38442     38438     38443     38442     38440     38450     38442     38440     38454
     38443     38445     38458     38443     38446     38447     38443     38446     38448
     38443     38446     38450     38444     38443     38445     38444     38443     38446
     38445     38443     38446     38445     38458     38459     38445     38458     38462
     38445     38458     38463     38446     38448     38449     38446     38450     38451
     38446     38450     38452     38447     38446     38448     38447     38446     38450
     38448     38446     38450     38450     38440     38454     38450     38452     38453
     38451     38450     38452     38455     38454     38456     38455     38454     38457
     38456     38454     38457     38458     38462     38460     38458     38463     38464
     38458     38463     38465     38458     38463     38466     38459     38458     38462
     38459     38458     38463     38460     38469     38466     38460     38469     38470
     38460     38469     38471     38460     38473     38474     38460     38473     38475
     38460     38473     38476     38461     38460     38462     38461     38460     38469
     38461     38460     38473     38462     38458     38463     38462     38460     38469
     38462     38460     38473     38463     38465     38477     38463     38466     38467
     38463     38466     38468     38463     38466     38469     38464     38463     38465
     38464     38463     38466     38465     38463     38466     38465     38477     38478
     38465     38477     38481     38465     38477     38482     38466     38468     38505
     38466     38469     38470     38466     38469     38471     38467     38466     38468
     38467     38466     38469     38468     38466     38469     38468     38505     38506
     38468     38505     38509     38468     38505     38510     38469     38460     38473
     38469     38471     38472     38470     38469     38471     38474     38473     38475
     38474     38473     38476     38475     38473     38476     38477     38481     38479
     38477     38482     38483     38477     38482     38484     38477     38482     38492
     38478     38477     38481     38478     38477     38482     38479     38496     38492
     38479     38496     38497     38479     38496     38498     38479     38500     38501
     38479     38500     38502     38479     38500     38503     38480     38479     38481
     38480     38479     38496     38480     38479     38500     38481     38477     38482
     38481     38479     38496     38481     38479     38500     38482     38484     38485
     38482     38484     38486     38482     38492     38493     38482     38492     38494
     38482     38492     38496     38483     38482     38484     38483     38482     38492
     38484     38482     38492     38484     38486     38487     38484     38486     38488
     38485     38484     38486     38486     38488     38489     38486     38488     38490
     38486     38488     38491     38487     38486     38488     38489     38488     38490
     38489     38488     38491     38490     38488     38491     38492     38494     38495
     38492     38496     38497     38492     38496     38498     38493     38492     38494
     38493     38492     38496     38494     38492     38496     38496     38479     38500
     38496     38498     38499     38497     38496     38498     38500     38503     38504
     38501     38500     38502     38501     38500     38503     38502     38500     38503
     38505     38509     38507     38505     38510     38511     38505     38510     38512
     38505     38510     38520     38506     38505     38509     38506     38505     38510
     38507     38523     38520     38507     38523     38524     38507     38523     38525
     38507     38527     38528     38507     38527     38529     38507     38527     38530
     38508     38507     38509     38508     38507     38523     38508     38507     38527
     38509     38505     38510     38509     38507     38523     38509     38507     38527
     38510     38512     38513     38510     38512     38514     38510     38520     38521
     38510     38520     38522     38510     38520     38523     38511     38510     38512
     38511     38510     38520     38512     38510     38520     38512     38514     38515
     38512     38514     38516     38513     38512     38514     38514     38516     38517
     38514     38516     38518     38514     38516     38519     38515     38514     38516
     38517     38516     38518     38517     38516     38519     38518     38516     38519
     38520     38522     38532     38520     38523     38524     38520     38523     38525
     38521     38520     38522     38521     38520     38523     38522     38520     38523
     38522     38532     38533     38522     38532     38536     38522     38532     38537
     38523     38507     38527     38523     38525     38526     38524     38523     38525
     38527     38530     38531     38528     38527     38529     38528     38527     38530
     38529     38527     38530     38532     38536     38534     38532     38537     38538
     38532     38537     38539     38532     38537     38540     38533     38532     38536
     38533     38532     38537     38534     38544     38540     38534     38544     38545
     38534     38544     38546     38534     38548     38549     38534     38548     38550
     38534     38548     38551     38535     38534     38536     38535     38534     38544
     38535     38534     38548     38536     38532     38537     38536     38534     38544
     38536     38534     38548     38537     38539     38553     38537     38540     38541
     38537     38540     38542     38537     38540     38544     38538     38537     38539
     38538     38537     38540     38539     38537     38540     38539     38553     38554
     38539     38553     38557     38539     38553     38558     38540     38542     38543
     38540     38544     38545     38540     38544     38546     38541     38540     38542
     38541     38540     38544     38542     38540     38544     38544     38534     38548
     38544     38546     38547     38545     38544     38546     38548     38551     38552
     38549     38548     38550     38549     38548     38551     38550     38548     38551
     38553     38557     38555     38553     38558     38559     38553     38558     38560
     38553     38558     38561     38554     38553     38557     38554     38553     38558
     38555     38565     38561     38555     38565     38566     38555     38565     38567
     38555     38569     38570     38555     38569     38571     38555     38569     38572
     38556     38555     38557     38556     38555     38565     38556     38555     38569
     38557     38553     38558     38557     38555     38565     38557     38555     38569
     38558     38560     38573     38558     38561     38562     38558     38561     38563
     38558     38561     38565     38559     38558     38560     38559     38558     38561
     38560     38558     38561     38560     38573     38574     38560     38573     38577
     38560     38573     38578     38561     38563     38564     38561     38565     38566
     38561     38565     38567     38562     38561     38563     38562     38561     38565
     38563     38561     38565     38565     38555     38569     38565     38567     38568
     38566     38565     38567     38570     38569     38571     38570     38569     38572
     38571     38569     38572     38573     38577     38575     38573     38578     38579
     38573     38578     38580     38573     38578     38581     38574     38573     38577
     38574     38573     38578     38575     38584     38581     38575     38584     38585
     38575     38584     38586     38575     38588     38589     38575     38588     38590
     38575     38588     38591     38576     38575     38577     38576     38575     38584
     38576     38575     38588     38577     38573     38578     38577     38575     38584
     38577     38575     38588     38578     38580     38592     38578     38581     38582
     38578     38581     38583     38578     38581     38584     38579     38578     38580
     38579     38578     38581     38580     38578     38581     38580     38592     38593
     38580     38592     38596     38580     38592     38597     38581     38583     38620
     38581     38584     38585     38581     38584     38586     38582     38581     38583
     38582     38581     38584     38583     38581     38584     38583     38620     38621
     38583     38620     38624     38583     38620     38625     38584     38575     38588
     38584     38586     38587     38585     38584     38586     38589     38588     38590
     38589     38588     38591     38590     38588     38591     38592     38596     38594
     38592     38597     38598     38592     38597     38599     38592     38597     38607
     38593     38592     38596     38593     38592     38597     38594     38611     38607
     38594     38611     38612     38594     38611     38613     38594     38615     38616
     38594     38615     38617     38594     38615     38618     38595     38594     38596
     38595     38594     38611     38595     38594     38615     38596     38592     38597
     38596     38594     38611     38596     38594     38615     38597     38599     38600
     38597     38599     38601     38597     38607     38608     38597     38607     38609
     38597     38607     38611     38598     38597     38599     38598     38597     38607
     38599     38597     38607     38599     38601     38602     38599     38601     38603
     38600     38599     38601     38601     38603     38604     38601     38603     38605
     38601     38603     38606     38602     38601     38603     38604     38603     38605
     38604     38603     38606     38605     38603     38606     38607     38609     38610
     38607     38611     38612     38607     38611     38613     38608     38607     38609
     38608     38607     38611     38609     38607     38611     38611     38594     38615
     38611     38613     38614     38612     38611     38613     38615     38618     38619
     38616     38615     38617     38616     38615     38618     38617     38615     38618
     38620     38624     38622     38620     38625     38626     38620     38625     38627
     38620     38625     38635     38621     38620     38624     38621     38620     38625
     38622     38638     38635     38622     38638     38639     38622     38638     38640
     38622     38642     38643     38622     38642     38644     38622     38642     38645
     38623     38622     38624     38623     38622     38638     38623     38622     38642
     38624     38620     38625     38624     38622     38638     38624     38622     38642
     38625     38627     38628     38625     38627     38629     38625     38635     38636
     38625     38635     38637     38625     38635     38638     38626     38625     38627
     38626     38625     38635     38627     38625     38635     38627     38629     38630
     38627     38629     38631     38628     38627     38629     38629     38631     38632
     38629     38631     38633     38629     38631     38634     38630     38629     38631
     38632     38631     38633     38632     38631     38634     38633     38631     38634
     38635     38637     38647     38635     38638     38639     38635     38638     38640
     38636     38635     38637     38636     38635     38638     38637     38635     38638
     38637     38647     38648     38637     38647     38651     38637     38647     38652
     38638     38622     38642     38638     38640     38641     38639     38638     38640
     38642     38645     38646     38643     38642     38644     38643     38642     38645
     38644     38642     38645     38647     38651     38649     38647     38652     38653
     38647     38652     38654     38647     38652     38655     38648     38647     38651
     38648     38647     38652     38649     38659     38655     38649     38659     38660
     38649     38659     38661     38649     38663     38664     38649     38663     38665
     38649     38663     38666     38650     38649     38651     38650     38649     38659
     38650     38649     38663     38651     38647     38652     38651     38649     38659
     38651     38649     38663     38652     38654     38668     38652     38655     38656
     38652     38655     38657     38652     38655     38659     38653     38652     38654
     38653     38652     38655     38654     38652     38655     38654     38668     38669
     38654     38668     38672     38654     38668     38673     38655     38657     38658
     38655     38659     38660     38655     38659     38661     38656     38655     38657
     38656     38655     38659     38657     38655     38659     38659     38649     38663
     38659     38661     38662     38660     38659     38661     38663     38666     38667
     38664     38663     38665     38664     38663     38666     38665     38663     38666
     38668     38672     38670     38668     38673     38674     38668     38673     38675
     38668     38673     38676     38669     38668     38672     38669     38668     38673
     38670     38680     38676     38670     38680     38681     38670     38680     38682
     38670     38684     38685     38670     38684     38686     38670     38684     38687
     38671     38670     38672     38671     38670     38680     38671     38670     38684
     38672     38668     38673     38672     38670     38680     38672     38670     38684
     38673     38675     38688     38673     38676     38677     38673     38676     38678
     38673     38676     38680     38674     38673     38675     38674     38673     38676
     38675     38673     38676     38675     38688     38689     38675     38688     38692
     38675     38688     38693     38676     38678     38679     38676     38680     38681
     38676     38680     38682     38677     38676     38678     38677     38676     38680
     38678     38676     38680     38680     38670     38684     38680     38682     38683
     38681     38680     38682     38685     38684     38686     38685     38684     38687
     38686     38684     38687     38688     38692     38690     38688     38693     38694
     38688     38693     38695     38688     38693     38696     38689     38688     38692
     38689     38688     38693     38690     38699     38696     38690     38699     38700
     38690     38699     38701     38690     38703     38704     38690     38703     38705
     38690     38703     38706     38691     38690     38692     38691     38690     38699
     38691     38690     38703     38692     38688     38693     38692     38690     38699
     38692     38690     38703     38693     38695     38707     38693     38696     38697
     38693     38696     38698     38693     38696     38699     38694     38693     38695
     38694     38693     38696     38695     38693     38696     38695     38707     38708
     38695     38707     38711     38695     38707     38712     38696     38698     38735
     38696     38699     38700     38696     38699     38701     38697     38696     38698
     38697     38696     38699     38698     38696     38699     38698     38735     38736
     38698     38735     38739     38698     38735     38740     38699     38690     38703
     38699     38701     38702     38700     38699     38701     38704     38703     38705
     38704     38703     38706     38705     38703     38706     38707     38711     38709
     38707     38712     38713     38707     38712     38714     38707     38712     38722
     38708     38707     38711     38708     38707     38712     38709     38726     38722
     38709     38726     38727     38709     38726     38728     38709     38730     38731
     38709     38730     38732     38709     38730     38733     38710     38709     38711
     38710     38709     38726     38710     38709     38730     38711     38707     38712
     38711     38709     38726     38711     38709     38730     38712     38714     38715
     38712     38714     38716     38712     38722     38723     38712     38722     38724
     38712     38722     38726     38713     38712     38714     38713     38712     38722
     38714     38712     38722     38714     38716     38717     38714     38716     38718
     38715     38714     38716     38716     38718     38719     38716     38718     38720
     38716     38718     38721     38717     38716     38718     38719     38718     38720
     38719     38718     38721     38720     38718     38721     38722     38724     38725
     38722     38726     38727     38722     38726     38728     38723     38722     38724
     38723     38722     38726     38724     38722     38726     38726     38709     38730
     38726     38728     38729     38727     38726     38728     38730     38733     38734
     38731     38730     38732     38731     38730     38733     38732     38730     38733
     38735     38739     38737     38735     38740     38741     38735     38740     38742
     38735     38740     38750     38736     38735     38739     38736     38735     38740
     38737     38753     38750     38737     38753     38754     38737     38753     38755
     38737     38757     38758     38737     38757     38759     38737     38757     38760
     38738     38737     38739     38738     38737     38753     38738     38737     38757
     38739     38735     38740     38739     38737     38753     38739     38737     38757
     38740     38742     38743     38740     38742     38744     38740     38750     38751
     38740     38750     38752     38740     38750     38753     38741     38740     38742
     38741     38740     38750     38742     38740     38750     38742     38744     38745
     38742     38744     38746     38743     38742     38744     38744     38746     38747
     38744     38746     38748     38744     38746     38749     38745     38744     38746
     38747     38746     38748     38747     38746     38749     38748     38746     38749
     38750     38752     38762     38750     38753     38754     38750     38753     38755
     38751     38750     38752     38751     38750     38753     38752     38750     38753
     38752     38762     38763     38752     38762     38766     38752     38762     38767
     38753     38737     38757     38753     38755     38756     38754     38753     38755
     38757     38760     38761     38758     38757     38759     38758     38757     38760
     38759     38757     38760     38762     38766     38764     38762     38767     38768
     38762     38767     38769     38762     38767     38770     38763     38762     38766
     38763     38762     38767     38764     38774     38770     38764     38774     38775
     38764     38774     38776     38764     38778     38779     38764     38778     38780
     38764     38778     38781     38765     38764     38766     38765     38764     38774
     38765     38764     38778     38766     38762     38767     38766     38764     38774
     38766     38764     38778     38767     38769     38783     38767     38770     38771
     38767     38770     38772     38767     38770     38774     38768     38767     38769
     38768     38767     38770     38769     38767     38770     38769     38783     38784
     38769     38783     38787     38769     38783     38788     38770     38772     38773
     38770     38774     38775     38770     38774     38776     38771     38770     38772
     38771     38770     38774     38772     38770     38774     38774     38764     38778
     38774     38776     38777     38775     38774     38776     38778     38781     38782
     38779     38778     38780     38779     38778     38781     38780     38778     38781
     38783     38787     38785     38783     38788     38789     38783     38788     38790
     38783     38788     38791     38784     38783     38787     38784     38783     38788
     38785     38795     38791     38785     38795     38796     38785     38795     38797
     38785     38799     38800     38785     38799     38801     38785     38799     38802
     38786     38785     38787     38786     38785     38795     38786     38785     38799
     38787     38783     38788     38787     38785     38795     38787     38785     38799
     38788     38790     38803     38788     38791     38792     38788     38791     38793
     38788     38791     38795     38789     38788     38790     38789     38788     38791
     38790     38788     38791     38790     38803     38804     38790     38803     38807
     38790     38803     38808     38791     38793     38794     38791     38795     38796
     38791     38795     38797     38792     38791     38793     38792     38791     38795
     38793     38791     38795     38795     38785     38799     38795     38797     38798
     38796     38795     38797     38800     38799     38801     38800     38799     38802
     38801     38799     38802     38803     38807     38805     38803     38808     38809
     38803     38808     38810     38803     38808     38811     38804     38803     38807
     38804     38803     38808     38805     38815     38811     38805     38815     38816
     38805     38815     38817     38805     38819     38820     38805     38819     38821
     38805     38819     38822     38806     38805     38807     38806     38805     38815
     38806     38805     38819     38807     38803     38808     38807     38805     38815
     38807     38805     38819     38808     38810     38823     38808     38811     38812
     38808     38811     38813     38808     38811     38815     38809     38808     38810
     38809     38808     38811     38810     38808     38811     38810     38823     38824
     38810     38823     38827     38810     38823     38828     38811     38813     38814
     38811     38815     38816     38811     38815     38817     38812     38811     38813
     38812     38811     38815     38813     38811     38815     38815     38805     38819
     38815     38817     38818     38816     38815     38817     38820     38819     38821
     38820     38819     38822     38821     38819     38822     38823     38827     38825
     38823     38828     38829     38823     38828     38830     38823     38828     38838
     38824     38823     38827     38824     38823     38828     38825     38842     38838
     38825     38842     38843     38825     38842     38844     38825     38846     38847
     38825     38846     38848     38825     38846     38849     38826     38825     38827
     38826     38825     38842     38826     38825     38846     38827     38823     38828
     38827     38825     38842     38827     38825     38846     38828     38830     38831
     38828     38830     38832     38828     38838     38839     38828     38838     38840
     38828     38838     38842     38829     38828     38830     38829     38828     38838
     38830     38828     38838     38830     38832     38833     38830     38832     38834
     38831     38830     38832     38832     38834     38835     38832     38834     38836
     38832     38834     38837     38833     38832     38834     38835     38834     38836
     38835     38834     38837     38836     38834     38837     38838     38840     38841
     38838     38842     38843     38838     38842     38844     38839     38838     38840
     38839     38838     38842     38840     38838     38842     38842     38825     38846
     38842     38844     38845     38843     38842     38844     38846     38849     38850
     38847     38846     38848     38847     38846     38849     38848     38846     38849
     38851     38854     38855     38851     38856     38857     38851     38856     38858
     38851     38856     38860     38852     38851     38853     38852     38851     38854
     38852     38851     38856     38853     38851     38854     38853     38851     38856
     38854     38851     38856     38856     38858     38859     38856     38860     38861
     38856     38860     38862     38856     38860     38866     38857     38856     38858
     38857     38856     38860     38858     38856     38860     38860     38866     38863
     38861     38860     38862     38861     38860     38866     38862     38860     38866
     38863     38867     38868     38864     38863     38865     38864     38863     38866
     38864     38863     38867     38865     38863     38866     38865     38863     38867
     38866     38863     38867     38867     38868     38869     38867     38868     38870
     38867     38868     38871     38868     38871     38872     38868     38871     38873
     38868     38871     38879     38869     38868     38870     38869     38868     38871
     38870     38868     38871     38871     38873     38874     38871     38879     38880
     38871     38879     38881     38871     38879     38882     38872     38871     38873
     38872     38871     38879     38873     38871     38879     38873     38874     38875
     38873     38874     38876     38874     38876     38877     38874     38876     38878
     38874     38876     38888     38875     38874     38876     38876     38888     38889
     38876     38888     38890     38876     38888     38891     38877     38876     38878
     38877     38876     38888     38878     38876     38888     38879     38882     38883
     38880     38879     38881     38880     38879     38882     38881     38879     38882
     38882     38883     38884     38882     38883     38885     38883     38885     38886
     38883     38885     38887     38883     38885     38935     38884     38883     38885
     38885     38935     38936     38885     38935     38937     38885     38935     38938
     38886     38885     38887     38886     38885     38935     38887     38885     38935
     38888     38891     38892     38888     38891     38893     38888     38891     38894
     38889     38888     38890     38889     38888     38891     38890     38888     38891
     38891     38894     38895     38891     38894     38896     38891     38894     38897
     38892     38891     38893     38892     38891     38894     38893     38891     38894
     38894     38897     38898     38894     38897     38899     38894     38897     38900
     38895     38894     38896     38895     38894     38897     38896     38894     38897
     38897     38900     38901     38897     38900     38902     38897     38900     38903
     38898     38897     38899     38898     38897     38900     38899     38897     38900
     38900     38903     38904     38900     38903     38905     38900     38903     38906
     38901     38900     38902     38901     38900     38903     38902     38900     38903
     38903     38906     38907     38903     38906     38908     38903     38906     38909
     38904     38903     38905     38904     38903     38906     38905     38903     38906
     38906     38909     38910     38906     38909     38911     38906     38909     38912
     38907     38906     38908     38907     38906     38909     38908     38906     38909
     38909     38912     38913     38909     38912     38914     38910     38909     38911
     38910     38909     38912     38911     38909     38912     38912     38914     38915
     38912     38914     38916     38913     38912     38914     38914     38916     38917
     38914     38916     38918     38914     38916     38919     38915     38914     38916
     38916     38919     38920     38916     38919     38921     38916     38919     38922
     38917     38916     38918     38917     38916     38919     38918     38916     38919
     38919     38922     38923     38919     38922     38924     38919     38922     38925
     38920     38919     38921     38920     38919     38922     38921     38919     38922
     38922     38925     38926     38922     38925     38927     38922     38925     38928
     38923     38922     38924     38923     38922     38925     38924     38922     38925
     38925     38928     38929     38925     38928     38930     38925     38928     38931
     38926     38925     38927     38926     38925     38928     38927     38925     38928
     38928     38931     38932     38928     38931     38933     38928     38931     38934
     38929     38928     38930     38929     38928     38931     38930     38928     38931
     38932     38931     38933     38932     38931     38934     38933     38931     38934
     38935     38938     38939     38935     38938     38940     38935     38938     38941
     38936     38935     38937     38936     38935     38938     38937     38935     38938
     38938     38941     38942     38938     38941     38943     38938     38941     38944
     38939     38938     38940     38939     38938     38941     38940     38938     38941
     38941     38944     38945     38941     38944     38946     38941     38944     38947
     38942     38941     38943     38942     38941     38944     38943     38941     38944
     38944     38947     38948     38944     38947     38949     38944     38947     38950
     38945     38944     38946     38945     38944     38947     38946     38944     38947
     38947     38950     38951     38947     38950     38952     38947     38950     38953
     38948     38947     38949     38948     38947     38950     38949     38947     38950
     38950     38953     38954     38950     38953     38955     38950     38953     38956
     38951     38950     38952     38951     38950     38953     38952     38950     38953
     38953     38956     38957     38953     38956     38958     38953     38956     38959
     38954     38953     38955     38954     38953     38956     38955     38953     38956
     38956     38959     38960     38956     38959     38961     38956     38959     38962
     38957     38956     38958     38957     38956     38959     38958     38956     38959
     38959     38962     38963     38959     38962     38964     38959     38962     38965
     38960     38959     38961     38960     38959     38962     38961     38959     38962
     38962     38965     38966     38962     38965     38967     38962     38965     38968
     38963     38962     38964     38963     38962     38965     38964     38962     38965
     38965     38968     38969     38965     38968     38970     38965     38968     38971
     38966     38965     38967     38966     38965     38968     38967     38965     38968
     38968     38971     38972     38968     38971     38973     38968     38971     38974
     38969     38968     38970     38969     38968     38971     38970     38968     38971
     38971     38974     38975     38971     38974     38976     38971     38974     38977
     38972     38971     38973     38972     38971     38974     38973     38971     38974
     38975     38974     38976     38975     38974     38977     38976     38974     38977
     38978     38982     38983     38978     38982     38984     38978     38982     38985
     38979     38978     38980     38979     38978     38981     38979     38978     38982
     38980     38978     38981     38980     38978     38982     38981     38978     38982
     38982     38985     38986     38982     38985     38987     38982     38985     38992
     38983     38982     38984     38983     38982     38985     38984     38982     38985
     38985     38992     38988     38986     38985     38987     38986     38985     38992
     38987     38985     38992     38988     38991     38993     38989     38988     38990
     38989     38988     38991     38989     38988     38992     38990     38988     38991
     38990     38988     38992     38991     38988     38992     38991     38993     38994
     38991     38993     38995     38991     38993     38996     38993     38996     38997
     38993     38996     38998     38993     38996     39004     38994     38993     38995
     38994     38993     38996     38995     38993     38996     38996     38998     38999
     38996     39004     39005     38996     39004     39006     38996     39004     39007
     38997     38996     38998     38997     38996     39004     38998     38996     39004
     38998     38999     39000     38998     38999     39001     38999     39001     39002
     38999     39001     39003     38999     39001     39013     39000     38999     39001
     39001     39013     39014     39001     39013     39015     39001     39013     39016
     39002     39001     39003     39002     39001     39013     39003     39001     39013
     39004     39007     39008     39005     39004     39006     39005     39004     39007
     39006     39004     39007     39007     39008     39009     39007     39008     39010
     39008     39010     39011     39008     39010     39012     39008     39010     39054
     39009     39008     39010     39010     39054     39055     39010     39054     39056
     39010     39054     39057     39011     39010     39012     39011     39010     39054
     39012     39010     39054     39013     39016     39017     39013     39016     39018
     39013     39016     39019     39014     39013     39015     39014     39013     39016
     39015     39013     39016     39016     39019     39020     39016     39019     39021
     39016     39019     39022     39017     39016     39018     39017     39016     39019
     39018     39016     39019     39019     39022     39023     39019     39022     39024
     39019     39022     39025     39020     39019     39021     39020     39019     39022
     39021     39019     39022     39022     39025     39026     39022     39025     39027
     39022     39025     39028     39023     39022     39024     39023     39022     39025
     39024     39022     39025     39025     39028     39029     39025     39028     39030
     39025     39028     39031     39026     39025     39027     39026     39025     39028
     39027     39025     39028     39028     39031     39032     39028     39031     39033
     39029     39028     39030     39029     39028     39031     39030     39028     39031
     39031     39033     39034     39031     39033     39035     39032     39031     39033
     39033     39035     39036     39033     39035     39037     39033     39035     39038
     39034     39033     39035     39035     39038     39039     39035     39038     39040
     39035     39038     39041     39036     39035     39037     39036     39035     39038
     39037     39035     39038     39038     39041     39042     39038     39041     39043
     39038     39041     39044     39039     39038     39040     39039     39038     39041
     39040     39038     39041     39041     39044     39045     39041     39044     39046
     39041     39044     39047     39042     39041     39043     39042     39041     39044
     39043     39041     39044     39044     39047     39048     39044     39047     39049
     39044     39047     39050     39045     39044     39046     39045     39044     39047
     39046     39044     39047     39047     39050     39051     39047     39050     39052
     39047     39050     39053     39048     39047     39049     39048     39047     39050
     39049     39047     39050     39051     39050     39052     39051     39050     39053
     39052     39050     39053     39054     39057     39058     39054     39057     39059
     39054     39057     39060     39055     39054     39056     39055     39054     39057
     39056     39054     39057     39057     39060     39061     39057     39060     39062
     39057     39060     39063     39058     39057     39059     39058     39057     39060
     39059     39057     39060     39060     39063     39064     39060     39063     39065
     39060     39063     39066     39061     39060     39062     39061     39060     39063
     39062     39060     39063     39063     39066     39067     39063     39066     39068
     39063     39066     39069     39064     39063     39065     39064     39063     39066
     39065     39063     39066     39066     39069     39070     39066     39069     39071
     39066     39069     39072     39067     39066     39068     39067     39066     39069
     39068     39066     39069     39069     39072     39073     39069     39072     39074
     39069     39072     39075     39070     39069     39071     39070     39069     39072
     39071     39069     39072     39072     39075     39076     39072     39075     39077
     39072     39075     39078     39073     39072     39074     39073     39072     39075
     39074     39072     39075     39075     39078     39079     39075     39078     39080
     39075     39078     39081     39076     39075     39077     39076     39075     39078
     39077     39075     39078     39078     39081     39082     39078     39081     39083
     39078     39081     39084     39079     39078     39080     39079     39078     39081
     39080     39078     39081     39081     39084     39085     39081     39084     39086
     39081     39084     39087     39082     39081     39083     39082     39081     39084
     39083     39081     39084     39084     39087     39088     39084     39087     39089
     39084     39087     39090     39085     39084     39086     39085     39084     39087
     39086     39084     39087     39087     39090     39091     39087     39090     39092
     39087     39090     39093     39088     39087     39089     39088     39087     39090
     39089     39087     39090     39090     39093     39094     39090     39093     39095
     39090     39093     39096     39091     39090     39092     39091     39090     39093
     39092     39090     39093     39094     39093     39095     39094     39093     39096
     39095     39093     39096     39097     39101     39102     39097     39101     39103
     39097     39101     39104     39098     39097     39099     39098     39097     39100
     39098     39097     39101     39099     39097     39100     39099     39097     39101
     39100     39097     39101     39101     39104     39105     39101     39104     39106
     39101     39104     39111     39102     39101     39103     39102     39101     39104
     39103     39101     39104     39104     39111     39107     39105     39104     39106
     39105     39104     39111     39106     39104     39111     39107     39110     39112
     39108     39107     39109     39108     39107     39110     39108     39107     39111
     39109     39107     39110     39109     39107     39111     39110     39107     39111
     39110     39112     39113     39110     39112     39114     39110     39112     39115
     39112     39115     39116     39112     39115     39117     39112     39115     39123
     39113     39112     39114     39113     39112     39115     39114     39112     39115
     39115     39117     39118     39115     39123     39124     39115     39123     39125
     39115     39123     39126     39116     39115     39117     39116     39115     39123
     39117     39115     39123     39117     39118     39119     39117     39118     39120
     39118     39120     39121     39118     39120     39122     39118     39120     39132
     39119     39118     39120     39120     39132     39133     39120     39132     39134
     39120     39132     39135     39121     39120     39122     39121     39120     39132
     39122     39120     39132     39123     39126     39127     39124     39123     39125
     39124     39123     39126     39125     39123     39126     39126     39127     39128
     39126     39127     39129     39127     39129     39130     39127     39129     39131
     39127     39129     39173     39128     39127     39129     39129     39173     39174
     39129     39173     39175     39129     39173     39176     39130     39129     39131
     39130     39129     39173     39131     39129     39173     39132     39135     39136
     39132     39135     39137     39132     39135     39138     39133     39132     39134
     39133     39132     39135     39134     39132     39135     39135     39138     39139
     39135     39138     39140     39135     39138     39141     39136     39135     39137
     39136     39135     39138     39137     39135     39138     39138     39141     39142
     39138     39141     39143     39138     39141     39144     39139     39138     39140
     39139     39138     39141     39140     39138     39141     39141     39144     39145
     39141     39144     39146     39141     39144     39147     39142     39141     39143
     39142     39141     39144     39143     39141     39144     39144     39147     39148
     39144     39147     39149     39144     39147     39150     39145     39144     39146
     39145     39144     39147     39146     39144     39147     39147     39150     39151
     39147     39150     39152     39148     39147     39149     39148     39147     39150
     39149     39147     39150     39150     39152     39153     39150     39152     39154
     39151     39150     39152     39152     39154     39155     39152     39154     39156
     39152     39154     39157     39153     39152     39154     39154     39157     39158
     39154     39157     39159     39154     39157     39160     39155     39154     39156
     39155     39154     39157     39156     39154     39157     39157     39160     39161
     39157     39160     39162     39157     39160     39163     39158     39157     39159
     39158     39157     39160     39159     39157     39160     39160     39163     39164
     39160     39163     39165     39160     39163     39166     39161     39160     39162
     39161     39160     39163     39162     39160     39163     39163     39166     39167
     39163     39166     39168     39163     39166     39169     39164     39163     39165
     39164     39163     39166     39165     39163     39166     39166     39169     39170
     39166     39169     39171     39166     39169     39172     39167     39166     39168
     39167     39166     39169     39168     39166     39169     39170     39169     39171
     39170     39169     39172     39171     39169     39172     39173     39176     39177
     39173     39176     39178     39173     39176     39179     39174     39173     39175
     39174     39173     39176     39175     39173     39176     39176     39179     39180
     39176     39179     39181     39176     39179     39182     39177     39176     39178
     39177     39176     39179     39178     39176     39179     39179     39182     39183
     39179     39182     39184     39179     39182     39185     39180     39179     39181
     39180     39179     39182     39181     39179     39182     39182     39185     39186
     39182     39185     39187     39182     39185     39188     39183     39182     39184
     39183     39182     39185     39184     39182     39185     39185     39188     39189
     39185     39188     39190     39185     39188     39191     39186     39185     39187
     39186     39185     39188     39187     39185     39188     39188     39191     39192
     39188     39191     39193     39188     39191     39194     39189     39188     39190
     39189     39188     39191     39190     39188     39191     39191     39194     39195
     39191     39194     39196     39191     39194     39197     39192     39191     39193
     39192     39191     39194     39193     39191     39194     39194     39197     39198
     39194     39197     39199     39194     39197     39200     39195     39194     39196
     39195     39194     39197     39196     39194     39197     39197     39200     39201
     39197     39200     39202     39197     39200     39203     39198     39197     39199
     39198     39197     39200     39199     39197     39200     39200     39203     39204
     39200     39203     39205     39200     39203     39206     39201     39200     39202
     39201     39200     39203     39202     39200     39203     39203     39206     39207
     39203     39206     39208     39203     39206     39209     39204     39203     39205
     39204     39203     39206     39205     39203     39206     39206     39209     39210
     39206     39209     39211     39206     39209     39212     39207     39206     39208
     39207     39206     39209     39208     39206     39209     39209     39212     39213
     39209     39212     39214     39209     39212     39215     39210     39209     39211
     39210     39209     39212     39211     39209     39212     39213     39212     39214
     39213     39212     39215     39214     39212     39215     39216     39219     39220
     39216     39221     39222     39216     39221     39223     39216     39221     39225
     39217     39216     39218     39217     39216     39219     39217     39216     39221
     39218     39216     39219     39218     39216     39221     39219     39216     39221
     39221     39223     39224     39221     39225     39226     39221     39225     39227
     39221     39225     39231     39222     39221     39223     39222     39221     39225
     39223     39221     39225     39225     39231     39228     39226     39225     39227
     39226     39225     39231     39227     39225     39231     39228     39232     39233
     39229     39228     39230     39229     39228     39231     39229     39228     39232
     39230     39228     39231     39230     39228     39232     39231     39228     39232
     39232     39233     39234     39232     39233     39235     39232     39233     39236
     39233     39236     39237     39233     39236     39238     39233     39236     39244
     39234     39233     39235     39234     39233     39236     39235     39233     39236
     39236     39238     39239     39236     39244     39245     39236     39244     39246
     39236     39244     39247     39237     39236     39238     39237     39236     39244
     39238     39236     39244     39238     39239     39240     39238     39239     39241
     39239     39241     39242     39239     39241     39243     39239     39241     39253
     39240     39239     39241     39241     39253     39254     39241     39253     39255
     39241     39253     39256     39242     39241     39243     39242     39241     39253
     39243     39241     39253     39244     39247     39248     39245     39244     39246
     39245     39244     39247     39246     39244     39247     39247     39248     39249
     39247     39248     39250     39248     39250     39251     39248     39250     39252
     39248     39250     39300     39249     39248     39250     39250     39300     39301
     39250     39300     39302     39250     39300     39303     39251     39250     39252
     39251     39250     39300     39252     39250     39300     39253     39256     39257
     39253     39256     39258     39253     39256     39259     39254     39253     39255
     39254     39253     39256     39255     39253     39256     39256     39259     39260
     39256     39259     39261     39256     39259     39262     39257     39256     39258
     39257     39256     39259     39258     39256     39259     39259     39262     39263
     39259     39262     39264     39259     39262     39265     39260     39259     39261
     39260     39259     39262     39261     39259     39262     39262     39265     39266
     39262     39265     39267     39262     39265     39268     39263     39262     39264
     39263     39262     39265     39264     39262     39265     39265     39268     39269
     39265     39268     39270     39265     39268     39271     39266     39265     39267
     39266     39265     39268     39267     39265     39268     39268     39271     39272
     39268     39271     39273     39268     39271     39274     39269     39268     39270
     39269     39268     39271     39270     39268     39271     39271     39274     39275
     39271     39274     39276     39271     39274     39277     39272     39271     39273
     39272     39271     39274     39273     39271     39274     39274     39277     39278
     39274     39277     39279     39275     39274     39276     39275     39274     39277
     39276     39274     39277     39277     39279     39280     39277     39279     39281
     39278     39277     39279     39279     39281     39282     39279     39281     39283
     39279     39281     39284     39280     39279     39281     39281     39284     39285
     39281     39284     39286     39281     39284     39287     39282     39281     39283
     39282     39281     39284     39283     39281     39284     39284     39287     39288
     39284     39287     39289     39284     39287     39290     39285     39284     39286
     39285     39284     39287     39286     39284     39287     39287     39290     39291
     39287     39290     39292     39287     39290     39293     39288     39287     39289
     39288     39287     39290     39289     39287     39290     39290     39293     39294
     39290     39293     39295     39290     39293     39296     39291     39290     39292
     39291     39290     39293     39292     39290     39293     39293     39296     39297
     39293     39296     39298     39293     39296     39299     39294     39293     39295
     39294     39293     39296     39295     39293     39296     39297     39296     39298
     39297     39296     39299     39298     39296     39299     39300     39303     39304
     39300     39303     39305     39300     39303     39306     39301     39300     39302
     39301     39300     39303     39302     39300     39303     39303     39306     39307
     39303     39306     39308     39303     39306     39309     39304     39303     39305
     39304     39303     39306     39305     39303     39306     39306     39309     39310
     39306     39309     39311     39306     39309     39312     39307     39306     39308
     39307     39306     39309     39308     39306     39309     39309     39312     39313
     39309     39312     39314     39309     39312     39315     39310     39309     39311
     39310     39309     39312     39311     39309     39312     39312     39315     39316
     39312     39315     39317     39312     39315     39318     39313     39312     39314
     39313     39312     39315     39314     39312     39315     39315     39318     39319
     39315     39318     39320     39315     39318     39321     39316     39315     39317
     39316     39315     39318     39317     39315     39318     39318     39321     39322
     39318     39321     39323     39318     39321     39324     39319     39318     39320
     39319     39318     39321     39320     39318     39321     39321     39324     39325
     39321     39324     39326     39321     39324     39327     39322     39321     39323
     39322     39321     39324     39323     39321     39324     39324     39327     39328
     39324     39327     39329     39324     39327     39330     39325     39324     39326
     39325     39324     39327     39326     39324     39327     39327     39330     39331
     39327     39330     39332     39327     39330     39333     39328     39327     39329
     39328     39327     39330     39329     39327     39330     39330     39333     39334
     39330     39333     39335     39330     39333     39336     39331     39330     39332
     39331     39330     39333     39332     39330     39333     39333     39336     39337
     39333     39336     39338     39333     39336     39339     39334     39333     39335
     39334     39333     39336     39335     39333     39336     39336     39339     39340
     39336     39339     39341     39336     39339     39342     39337     39336     39338
     39337     39336     39339     39338     39336     39339     39340     39339     39341
     39340     39339     39342     39341     39339     39342     39343     39347     39348
     39343     39347     39349     39343     39347     39350     39344     39343     39345
     39344     39343     39346     39344     39343     39347     39345     39343     39346
     39345     39343     39347     39346     39343     39347     39347     39350     39351
     39347     39350     39352     39347     39350     39357     39348     39347     39349
     39348     39347     39350     39349     39347     39350     39350     39357     39353
     39351     39350     39352     39351     39350     39357     39352     39350     39357
     39353     39356     39358     39354     39353     39355     39354     39353     39356
     39354     39353     39357     39355     39353     39356     39355     39353     39357
     39356     39353     39357     39356     39358     39359     39356     39358     39360
     39356     39358     39361     39358     39361     39362     39358     39361     39363
     39358     39361     39369     39359     39358     39360     39359     39358     39361
     39360     39358     39361     39361     39363     39364     39361     39369     39370
     39361     39369     39371     39361     39369     39372     39362     39361     39363
     39362     39361     39369     39363     39361     39369     39363     39364     39365
     39363     39364     39366     39364     39366     39367     39364     39366     39368
     39364     39366     39378     39365     39364     39366     39366     39378     39379
     39366     39378     39380     39366     39378     39381     39367     39366     39368
     39367     39366     39378     39368     39366     39378     39369     39372     39373
     39370     39369     39371     39370     39369     39372     39371     39369     39372
     39372     39373     39374     39372     39373     39375     39373     39375     39376
     39373     39375     39377     39373     39375     39419     39374     39373     39375
     39375     39419     39420     39375     39419     39421     39375     39419     39422
     39376     39375     39377     39376     39375     39419     39377     39375     39419
     39378     39381     39382     39378     39381     39383     39378     39381     39384
     39379     39378     39380     39379     39378     39381     39380     39378     39381
     39381     39384     39385     39381     39384     39386     39381     39384     39387
     39382     39381     39383     39382     39381     39384     39383     39381     39384
     39384     39387     39388     39384     39387     39389     39384     39387     39390
     39385     39384     39386     39385     39384     39387     39386     39384     39387
     39387     39390     39391     39387     39390     39392     39387     39390     39393
     39388     39387     39389     39388     39387     39390     39389     39387     39390
     39390     39393     39394     39390     39393     39395     39390     39393     39396
     39391     39390     39392     39391     39390     39393     39392     39390     39393
     39393     39396     39397     39393     39396     39398     39394     39393     39395
     39394     39393     39396     39395     39393     39396     39396     39398     39399
     39396     39398     39400     39397     39396     39398     39398     39400     39401
     39398     39400     39402     39398     39400     39403     39399     39398     39400
     39400     39403     39404     39400     39403     39405     39400     39403     39406
     39401     39400     39402     39401     39400     39403     39402     39400     39403
     39403     39406     39407     39403     39406     39408     39403     39406     39409
     39404     39403     39405     39404     39403     39406     39405     39403     39406
     39406     39409     39410     39406     39409     39411     39406     39409     39412
     39407     39406     39408     39407     39406     39409     39408     39406     39409
     39409     39412     39413     39409     39412     39414     39409     39412     39415
     39410     39409     39411     39410     39409     39412     39411     39409     39412
     39412     39415     39416     39412     39415     39417     39412     39415     39418
     39413     39412     39414     39413     39412     39415     39414     39412     39415
     39416     39415     39417     39416     39415     39418     39417     39415     39418
     39419     39422     39423     39419     39422     39424     39419     39422     39425
     39420     39419     39421     39420     39419     39422     39421     39419     39422
     39422     39425     39426     39422     39425     39427     39422     39425     39428
     39423     39422     39424     39423     39422     39425     39424     39422     39425
     39425     39428     39429     39425     39428     39430     39425     39428     39431
     39426     39425     39427     39426     39425     39428     39427     39425     39428
     39428     39431     39432     39428     39431     39433     39428     39431     39434
     39429     39428     39430     39429     39428     39431     39430     39428     39431
     39431     39434     39435     39431     39434     39436     39431     39434     39437
     39432     39431     39433     39432     39431     39434     39433     39431     39434
     39434     39437     39438     39434     39437     39439     39434     39437     39440
     39435     39434     39436     39435     39434     39437     39436     39434     39437
     39437     39440     39441     39437     39440     39442     39437     39440     39443
     39438     39437     39439     39438     39437     39440     39439     39437     39440
     39440     39443     39444     39440     39443     39445     39440     39443     39446
     39441     39440     39442     39441     39440     39443     39442     39440     39443
     39443     39446     39447     39443     39446     39448     39443     39446     39449
     39444     39443     39445     39444     39443     39446     39445     39443     39446
     39446     39449     39450     39446     39449     39451     39446     39449     39452
     39447     39446     39448     39447     39446     39449     39448     39446     39449
     39449     39452     39453     39449     39452     39454     39449     39452     39455
     39450     39449     39451     39450     39449     39452     39451     39449     39452
     39452     39455     39456     39452     39455     39457     39452     39455     39458
     39453     39452     39454     39453     39452     39455     39454     39452     39455
     39455     39458     39459     39455     39458     39460     39455     39458     39461
     39456     39455     39457     39456     39455     39458     39457     39455     39458
     39459     39458     39460     39459     39458     39461     39460     39458     39461
     39462     39466     39467     39462     39466     39468     39462     39466     39469
     39463     39462     39464     39463     39462     39465     39463     39462     39466
     39464     39462     39465     39464     39462     39466     39465     39462     39466
     39466     39469     39470     39466     39469     39471     39466     39469     39476
     39467     39466     39468     39467     39466     39469     39468     39466     39469
     39469     39476     39472     39470     39469     39471     39470     39469     39476
     39471     39469     39476     39472     39475     39477     39473     39472     39474
     39473     39472     39475     39473     39472     39476     39474     39472     39475
     39474     39472     39476     39475     39472     39476     39475     39477     39478
     39475     39477     39479     39475     39477     39480     39477     39480     39481
     39477     39480     39482     39477     39480     39488     39478     39477     39479
     39478     39477     39480     39479     39477     39480     39480     39482     39483
     39480     39488     39489     39480     39488     39490     39480     39488     39491
     39481     39480     39482     39481     39480     39488     39482     39480     39488
     39482     39483     39484     39482     39483     39485     39483     39485     39486
     39483     39485     39487     39483     39485     39497     39484     39483     39485
     39485     39497     39498     39485     39497     39499     39485     39497     39500
     39486     39485     39487     39486     39485     39497     39487     39485     39497
     39488     39491     39492     39489     39488     39490     39489     39488     39491
     39490     39488     39491     39491     39492     39493     39491     39492     39494
     39492     39494     39495     39492     39494     39496     39492     39494     39538
     39493     39492     39494     39494     39538     39539     39494     39538     39540
     39494     39538     39541     39495     39494     39496     39495     39494     39538
     39496     39494     39538     39497     39500     39501     39497     39500     39502
     39497     39500     39503     39498     39497     39499     39498     39497     39500
     39499     39497     39500     39500     39503     39504     39500     39503     39505
     39500     39503     39506     39501     39500     39502     39501     39500     39503
     39502     39500     39503     39503     39506     39507     39503     39506     39508
     39503     39506     39509     39504     39503     39505     39504     39503     39506
     39505     39503     39506     39506     39509     39510     39506     39509     39511
     39506     39509     39512     39507     39506     39508     39507     39506     39509
     39508     39506     39509     39509     39512     39513     39509     39512     39514
     39509     39512     39515     39510     39509     39511     39510     39509     39512
     39511     39509     39512     39512     39515     39516     39512     39515     39517
     39513     39512     39514     39513     39512     39515     39514     39512     39515
     39515     39517     39518     39515     39517     39519     39516     39515     39517
     39517     39519     39520     39517     39519     39521     39517     39519     39522
     39518     39517     39519     39519     39522     39523     39519     39522     39524
     39519     39522     39525     39520     39519     39521     39520     39519     39522
     39521     39519     39522     39522     39525     39526     39522     39525     39527
     39522     39525     39528     39523     39522     39524     39523     39522     39525
     39524     39522     39525     39525     39528     39529     39525     39528     39530
     39525     39528     39531     39526     39525     39527     39526     39525     39528
     39527     39525     39528     39528     39531     39532     39528     39531     39533
     39528     39531     39534     39529     39528     39530     39529     39528     39531
     39530     39528     39531     39531     39534     39535     39531     39534     39536
     39531     39534     39537     39532     39531     39533     39532     39531     39534
     39533     39531     39534     39535     39534     39536     39535     39534     39537
     39536     39534     39537     39538     39541     39542     39538     39541     39543
     39538     39541     39544     39539     39538     39540     39539     39538     39541
     39540     39538     39541     39541     39544     39545     39541     39544     39546
     39541     39544     39547     39542     39541     39543     39542     39541     39544
     39543     39541     39544     39544     39547     39548     39544     39547     39549
     39544     39547     39550     39545     39544     39546     39545     39544     39547
     39546     39544     39547     39547     39550     39551     39547     39550     39552
     39547     39550     39553     39548     39547     39549     39548     39547     39550
     39549     39547     39550     39550     39553     39554     39550     39553     39555
     39550     39553     39556     39551     39550     39552     39551     39550     39553
     39552     39550     39553     39553     39556     39557     39553     39556     39558
     39553     39556     39559     39554     39553     39555     39554     39553     39556
     39555     39553     39556     39556     39559     39560     39556     39559     39561
     39556     39559     39562     39557     39556     39558     39557     39556     39559
     39558     39556     39559     39559     39562     39563     39559     39562     39564
     39559     39562     39565     39560     39559     39561     39560     39559     39562
     39561     39559     39562     39562     39565     39566     39562     39565     39567
     39562     39565     39568     39563     39562     39564     39563     39562     39565
     39564     39562     39565     39565     39568     39569     39565     39568     39570
     39565     39568     39571     39566     39565     39567     39566     39565     39568
     39567     39565     39568     39568     39571     39572     39568     39571     39573
     39568     39571     39574     39569     39568     39570     39569     39568     39571
     39570     39568     39571     39571     39574     39575     39571     39574     39576
     39571     39574     39577     39572     39571     39573     39572     39571     39574
     39573     39571     39574     39574     39577     39578     39574     39577     39579
     39574     39577     39580     39575     39574     39576     39575     39574     39577
     39576     39574     39577     39578     39577     39579     39578     39577     39580
     39579     39577     39580     39581     39585     39586     39581     39585     39587
     39581     39585     39588     39582     39581     39583     39582     39581     39584
     39582     39581     39585     39583     39581     39584     39583     39581     39585
     39584     39581     39585     39585     39588     39589     39585     39588     39590
     39585     39588     39595     39586     39585     39587     39586     39585     39588
     39587     39585     39588     39588     39595     39591     39589     39588     39590
     39589     39588     39595     39590     39588     39595     39591     39594     39596
     39592     39591     39593     39592     39591     39594     39592     39591     39595
     39593     39591     39594     39593     39591     39595     39594     39591     39595
     39594     39596     39597     39594     39596     39598     39594     39596     39599
     39596     39599     39600     39596     39599     39601     39596     39599     39607
     39597     39596     39598     39597     39596     39599     39598     39596     39599
     39599     39601     39602     39599     39607     39608     39599     39607     39609
     39599     39607     39610     39600     39599     39601     39600     39599     39607
     39601     39599     39607     39601     39602     39603     39601     39602     39604
     39602     39604     39605     39602     39604     39606     39602     39604     39616
     39603     39602     39604     39604     39616     39617     39604     39616     39618
     39604     39616     39619     39605     39604     39606     39605     39604     39616
     39606     39604     39616     39607     39610     39611     39608     39607     39609
     39608     39607     39610     39609     39607     39610     39610     39611     39612
     39610     39611     39613     39611     39613     39614     39611     39613     39615
     39611     39613     39657     39612     39611     39613     39613     39657     39658
     39613     39657     39659     39613     39657     39660     39614     39613     39615
     39614     39613     39657     39615     39613     39657     39616     39619     39620
     39616     39619     39621     39616     39619     39622     39617     39616     39618
     39617     39616     39619     39618     39616     39619     39619     39622     39623
     39619     39622     39624     39619     39622     39625     39620     39619     39621
     39620     39619     39622     39621     39619     39622     39622     39625     39626
     39622     39625     39627     39622     39625     39628     39623     39622     39624
     39623     39622     39625     39624     39622     39625     39625     39628     39629
     39625     39628     39630     39625     39628     39631     39626     39625     39627
     39626     39625     39628     39627     39625     39628     39628     39631     39632
     39628     39631     39633     39628     39631     39634     39629     39628     39630
     39629     39628     39631     39630     39628     39631     39631     39634     39635
     39631     39634     39636     39632     39631     39633     39632     39631     39634
     39633     39631     39634     39634     39636     39637     39634     39636     39638
     39635     39634     39636     39636     39638     39639     39636     39638     39640
     39636     39638     39641     39637     39636     39638     39638     39641     39642
     39638     39641     39643     39638     39641     39644     39639     39638     39640
     39639     39638     39641     39640     39638     39641     39641     39644     39645
     39641     39644     39646     39641     39644     39647     39642     39641     39643
     39642     39641     39644     39643     39641     39644     39644     39647     39648
     39644     39647     39649     39644     39647     39650     39645     39644     39646
     39645     39644     39647     39646     39644     39647     39647     39650     39651
     39647     39650     39652     39647     39650     39653     39648     39647     39649
     39648     39647     39650     39649     39647     39650     39650     39653     39654
     39650     39653     39655     39650     39653     39656     39651     39650     39652
     39651     39650     39653     39652     39650     39653     39654     39653     39655
     39654     39653     39656     39655     39653     39656     39657     39660     39661
     39657     39660     39662     39657     39660     39663     39658     39657     39659
     39658     39657     39660     39659     39657     39660     39660     39663     39664
     39660     39663     39665     39660     39663     39666     39661     39660     39662
     39661     39660     39663     39662     39660     39663     39663     39666     39667
     39663     39666     39668     39663     39666     39669     39664     39663     39665
     39664     39663     39666     39665     39663     39666     39666     39669     39670
     39666     39669     39671     39666     39669     39672     39667     39666     39668
     39667     39666     39669     39668     39666     39669     39669     39672     39673
     39669     39672     39674     39669     39672     39675     39670     39669     39671
     39670     39669     39672     39671     39669     39672     39672     39675     39676
     39672     39675     39677     39672     39675     39678     39673     39672     39674
     39673     39672     39675     39674     39672     39675     39675     39678     39679
     39675     39678     39680     39675     39678     39681     39676     39675     39677
     39676     39675     39678     39677     39675     39678     39678     39681     39682
     39678     39681     39683     39678     39681     39684     39679     39678     39680
     39679     39678     39681     39680     39678     39681     39681     39684     39685
     39681     39684     39686     39681     39684     39687     39682     39681     39683
     39682     39681     39684     39683     39681     39684     39684     39687     39688
     39684     39687     39689     39684     39687     39690     39685     39684     39686
     39685     39684     39687     39686     39684     39687     39687     39690     39691
     39687     39690     39692     39687     39690     39693     39688     39687     39689
     39688     39687     39690     39689     39687     39690     39690     39693     39694
     39690     39693     39695     39690     39693     39696     39691     39690     39692
     39691     39690     39693     39692     39690     39693     39693     39696     39697
     39693     39696     39698     39693     39696     39699     39694     39693     39695
     39694     39693     39696     39695     39693     39696     39697     39696     39698
     39697     39696     39699     39698     39696     39699     39700     39704     39705
     39700     39704     39706     39700     39704     39707     39701     39700     39702
     39701     39700     39703     39701     39700     39704     39702     39700     39703
     39702     39700     39704     39703     39700     39704     39704     39707     39708
     39704     39707     39709     39704     39707     39714     39705     39704     39706
     39705     39704     39707     39706     39704     39707     39707     39714     39710
     39708     39707     39709     39708     39707     39714     39709     39707     39714
     39710     39713     39715     39711     39710     39712     39711     39710     39713
     39711     39710     39714     39712     39710     39713     39712     39710     39714
     39713     39710     39714     39713     39715     39716     39713     39715     39717
     39713     39715     39718     39715     39718     39719     39715     39718     39720
     39715     39718     39726     39716     39715     39717     39716     39715     39718
     39717     39715     39718     39718     39720     39721     39718     39726     39727
     39718     39726     39728     39718     39726     39729     39719     39718     39720
     39719     39718     39726     39720     39718     39726     39720     39721     39722
     39720     39721     39723     39721     39723     39724     39721     39723     39725
     39721     39723     39735     39722     39721     39723     39723     39735     39736
     39723     39735     39737     39723     39735     39738     39724     39723     39725
     39724     39723     39735     39725     39723     39735     39726     39729     39730
     39727     39726     39728     39727     39726     39729     39728     39726     39729
     39729     39730     39731     39729     39730     39732     39730     39732     39733
     39730     39732     39734     39730     39732     39776     39731     39730     39732
     39732     39776     39777     39732     39776     39778     39732     39776     39779
     39733     39732     39734     39733     39732     39776     39734     39732     39776
     39735     39738     39739     39735     39738     39740     39735     39738     39741
     39736     39735     39737     39736     39735     39738     39737     39735     39738
     39738     39741     39742     39738     39741     39743     39738     39741     39744
     39739     39738     39740     39739     39738     39741     39740     39738     39741
     39741     39744     39745     39741     39744     39746     39741     39744     39747
     39742     39741     39743     39742     39741     39744     39743     39741     39744
     39744     39747     39748     39744     39747     39749     39744     39747     39750
     39745     39744     39746     39745     39744     39747     39746     39744     39747
     39747     39750     39751     39747     39750     39752     39747     39750     39753
     39748     39747     39749     39748     39747     39750     39749     39747     39750
     39750     39753     39754     39750     39753     39755     39751     39750     39752
     39751     39750     39753     39752     39750     39753     39753     39755     39756
     39753     39755     39757     39754     39753     39755     39755     39757     39758
     39755     39757     39759     39755     39757     39760     39756     39755     39757
     39757     39760     39761     39757     39760     39762     39757     39760     39763
     39758     39757     39759     39758     39757     39760     39759     39757     39760
     39760     39763     39764     39760     39763     39765     39760     39763     39766
     39761     39760     39762     39761     39760     39763     39762     39760     39763
     39763     39766     39767     39763     39766     39768     39763     39766     39769
     39764     39763     39765     39764     39763     39766     39765     39763     39766
     39766     39769     39770     39766     39769     39771     39766     39769     39772
     39767     39766     39768     39767     39766     39769     39768     39766     39769
     39769     39772     39773     39769     39772     39774     39769     39772     39775
     39770     39769     39771     39770     39769     39772     39771     39769     39772
     39773     39772     39774     39773     39772     39775     39774     39772     39775
     39776     39779     39780     39776     39779     39781     39776     39779     39782
     39777     39776     39778     39777     39776     39779     39778     39776     39779
     39779     39782     39783     39779     39782     39784     39779     39782     39785
     39780     39779     39781     39780     39779     39782     39781     39779     39782
     39782     39785     39786     39782     39785     39787     39782     39785     39788
     39783     39782     39784     39783     39782     39785     39784     39782     39785
     39785     39788     39789     39785     39788     39790     39785     39788     39791
     39786     39785     39787     39786     39785     39788     39787     39785     39788
     39788     39791     39792     39788     39791     39793     39788     39791     39794
     39789     39788     39790     39789     39788     39791     39790     39788     39791
     39791     39794     39795     39791     39794     39796     39791     39794     39797
     39792     39791     39793     39792     39791     39794     39793     39791     39794
     39794     39797     39798     39794     39797     39799     39794     39797     39800
     39795     39794     39796     39795     39794     39797     39796     39794     39797
     39797     39800     39801     39797     39800     39802     39797     39800     39803
     39798     39797     39799     39798     39797     39800     39799     39797     39800
     39800     39803     39804     39800     39803     39805     39800     39803     39806
     39801     39800     39802     39801     39800     39803     39802     39800     39803
     39803     39806     39807     39803     39806     39808     39803     39806     39809
     39804     39803     39805     39804     39803     39806     39805     39803     39806
     39806     39809     39810     39806     39809     39811     39806     39809     39812
     39807     39806     39808     39807     39806     39809     39808     39806     39809
     39809     39812     39813     39809     39812     39814     39809     39812     39815
     39810     39809     39811     39810     39809     39812     39811     39809     39812
     39812     39815     39816     39812     39815     39817     39812     39815     39818
     39813     39812     39814     39813     39812     39815     39814     39812     39815
     39816     39815     39817     39816     39815     39818     39817     39815     39818
     39819     39823     39824     39819     39823     39825     39819     39823     39826
     39820     39819     39821     39820     39819     39822     39820     39819     39823
     39821     39819     39822     39821     39819     39823     39822     39819     39823
     39823     39826     39827     39823     39826     39828     39823     39826     39833
     39824     39823     39825     39824     39823     39826     39825     39823     39826
     39826     39833     39829     39827     39826     39828     39827     39826     39833
     39828     39826     39833     39829     39832     39834     39830     39829     39831
     39830     39829     39832     39830     39829     39833     39831     39829     39832
     39831     39829     39833     39832     39829     39833     39832     39834     39835
     39832     39834     39836     39832     39834     39837     39834     39837     39838
     39834     39837     39839     39834     39837     39845     39835     39834     39836
     39835     39834     39837     39836     39834     39837     39837     39839     39840
     39837     39845     39846     39837     39845     39847     39837     39845     39848
     39838     39837     39839     39838     39837     39845     39839     39837     39845
     39839     39840     39841     39839     39840     39842     39840     39842     39843
     39840     39842     39844     39840     39842     39854     39841     39840     39842
     39842     39854     39855     39842     39854     39856     39842     39854     39857
     39843     39842     39844     39843     39842     39854     39844     39842     39854
     39845     39848     39849     39846     39845     39847     39846     39845     39848
     39847     39845     39848     39848     39849     39850     39848     39849     39851
     39849     39851     39852     39849     39851     39853     39849     39851     39895
     39850     39849     39851     39851     39895     39896     39851     39895     39897
     39851     39895     39898     39852     39851     39853     39852     39851     39895
     39853     39851     39895     39854     39857     39858     39854     39857     39859
     39854     39857     39860     39855     39854     39856     39855     39854     39857
     39856     39854     39857     39857     39860     39861     39857     39860     39862
     39857     39860     39863     39858     39857     39859     39858     39857     39860
     39859     39857     39860     39860     39863     39864     39860     39863     39865
     39860     39863     39866     39861     39860     39862     39861     39860     39863
     39862     39860     39863     39863     39866     39867     39863     39866     39868
     39863     39866     39869     39864     39863     39865     39864     39863     39866
     39865     39863     39866     39866     39869     39870     39866     39869     39871
     39866     39869     39872     39867     39866     39868     39867     39866     39869
     39868     39866     39869     39869     39872     39873     39869     39872     39874
     39870     39869     39871     39870     39869     39872     39871     39869     39872
     39872     39874     39875     39872     39874     39876     39873     39872     39874
     39874     39876     39877     39874     39876     39878     39874     39876     39879
     39875     39874     39876     39876     39879     39880     39876     39879     39881
     39876     39879     39882     39877     39876     39878     39877     39876     39879
     39878     39876     39879     39879     39882     39883     39879     39882     39884
     39879     39882     39885     39880     39879     39881     39880     39879     39882
     39881     39879     39882     39882     39885     39886     39882     39885     39887
     39882     39885     39888     39883     39882     39884     39883     39882     39885
     39884     39882     39885     39885     39888     39889     39885     39888     39890
     39885     39888     39891     39886     39885     39887     39886     39885     39888
     39887     39885     39888     39888     39891     39892     39888     39891     39893
     39888     39891     39894     39889     39888     39890     39889     39888     39891
     39890     39888     39891     39892     39891     39893     39892     39891     39894
     39893     39891     39894     39895     39898     39899     39895     39898     39900
     39895     39898     39901     39896     39895     39897     39896     39895     39898
     39897     39895     39898     39898     39901     39902     39898     39901     39903
     39898     39901     39904     39899     39898     39900     39899     39898     39901
     39900     39898     39901     39901     39904     39905     39901     39904     39906
     39901     39904     39907     39902     39901     39903     39902     39901     39904
     39903     39901     39904     39904     39907     39908     39904     39907     39909
     39904     39907     39910     39905     39904     39906     39905     39904     39907
     39906     39904     39907     39907     39910     39911     39907     39910     39912
     39907     39910     39913     39908     39907     39909     39908     39907     39910
     39909     39907     39910     39910     39913     39914     39910     39913     39915
     39910     39913     39916     39911     39910     39912     39911     39910     39913
     39912     39910     39913     39913     39916     39917     39913     39916     39918
     39913     39916     39919     39914     39913     39915     39914     39913     39916
     39915     39913     39916     39916     39919     39920     39916     39919     39921
     39916     39919     39922     39917     39916     39918     39917     39916     39919
     39918     39916     39919     39919     39922     39923     39919     39922     39924
     39919     39922     39925     39920     39919     39921     39920     39919     39922
     39921     39919     39922     39922     39925     39926     39922     39925     39927
     39922     39925     39928     39923     39922     39924     39923     39922     39925
     39924     39922     39925     39925     39928     39929     39925     39928     39930
     39925     39928     39931     39926     39925     39927     39926     39925     39928
     39927     39925     39928     39928     39931     39932     39928     39931     39933
     39928     39931     39934     39929     39928     39930     39929     39928     39931
     39930     39928     39931     39931     39934     39935     39931     39934     39936
     39931     39934     39937     39932     39931     39933     39932     39931     39934
     39933     39931     39934     39935     39934     39936     39935     39934     39937
     39936     39934     39937     39938     39941     39942     39938     39943     39944
     39938     39943     39945     39938     39943     39947     39939     39938     39940
     39939     39938     39941     39939     39938     39943     39940     39938     39941
     39940     39938     39943     39941     39938     39943     39943     39945     39946
     39943     39947     39948     39943     39947     39949     39943     39947     39953
     39944     39943     39945     39944     39943     39947     39945     39943     39947
     39947     39953     39950     39948     39947     39949     39948     39947     39953
     39949     39947     39953     39950     39954     39955     39951     39950     39952
     39951     39950     39953     39951     39950     39954     39952     39950     39953
     39952     39950     39954     39953     39950     39954     39954     39955     39956
     39954     39955     39957     39954     39955     39958     39955     39958     39959
     39955     39958     39960     39955     39958     39966     39956     39955     39957
     39956     39955     39958     39957     39955     39958     39958     39960     39961
     39958     39966     39967     39958     39966     39968     39958     39966     39969
     39959     39958     39960     39959     39958     39966     39960     39958     39966
     39960     39961     39962     39960     39961     39963     39961     39963     39964
     39961     39963     39965     39961     39963     39975     39962     39961     39963
     39963     39975     39976     39963     39975     39977     39963     39975     39978
     39964     39963     39965     39964     39963     39975     39965     39963     39975
     39966     39969     39970     39967     39966     39968     39967     39966     39969
     39968     39966     39969     39969     39970     39971     39969     39970     39972
     39970     39972     39973     39970     39972     39974     39970     39972     40022
     39971     39970     39972     39972     40022     40023     39972     40022     40024
     39972     40022     40025     39973     39972     39974     39973     39972     40022
     39974     39972     40022     39975     39978     39979     39975     39978     39980
     39975     39978     39981     39976     39975     39977     39976     39975     39978
     39977     39975     39978     39978     39981     39982     39978     39981     39983
     39978     39981     39984     39979     39978     39980     39979     39978     39981
     39980     39978     39981     39981     39984     39985     39981     39984     39986
     39981     39984     39987     39982     39981     39983     39982     39981     39984
     39983     39981     39984     39984     39987     39988     39984     39987     39989
     39984     39987     39990     39985     39984     39986     39985     39984     39987
     39986     39984     39987     39987     39990     39991     39987     39990     39992
     39987     39990     39993     39988     39987     39989     39988     39987     39990
     39989     39987     39990     39990     39993     39994     39990     39993     39995
     39990     39993     39996     39991     39990     39992     39991     39990     39993
     39992     39990     39993     39993     39996     39997     39993     39996     39998
     39993     39996     39999     39994     39993     39995     39994     39993     39996
     39995     39993     39996     39996     39999     40000     39996     39999     40001
     39997     39996     39998     39997     39996     39999     39998     39996     39999
     39999     40001     40002     39999     40001     40003     40000     39999     40001
     40001     40003     40004     40001     40003     40005     40001     40003     40006
     40002     40001     40003     40003     40006     40007     40003     40006     40008
     40003     40006     40009     40004     40003     40005     40004     40003     40006
     40005     40003     40006     40006     40009     40010     40006     40009     40011
     40006     40009     40012     40007     40006     40008     40007     40006     40009
     40008     40006     40009     40009     40012     40013     40009     40012     40014
     40009     40012     40015     40010     40009     40011     40010     40009     40012
     40011     40009     40012     40012     40015     40016     40012     40015     40017
     40012     40015     40018     40013     40012     40014     40013     40012     40015
     40014     40012     40015     40015     40018     40019     40015     40018     40020
     40015     40018     40021     40016     40015     40017     40016     40015     40018
     40017     40015     40018     40019     40018     40020     40019     40018     40021
     40020     40018     40021     40022     40025     40026     40022     40025     40027
     40022     40025     40028     40023     40022     40024     40023     40022     40025
     40024     40022     40025     40025     40028     40029     40025     40028     40030
     40025     40028     40031     40026     40025     40027     40026     40025     40028
     40027     40025     40028     40028     40031     40032     40028     40031     40033
     40028     40031     40034     40029     40028     40030     40029     40028     40031
     40030     40028     40031     40031     40034     40035     40031     40034     40036
     40031     40034     40037     40032     40031     40033     40032     40031     40034
     40033     40031     40034     40034     40037     40038     40034     40037     40039
     40034     40037     40040     40035     40034     40036     40035     40034     40037
     40036     40034     40037     40037     40040     40041     40037     40040     40042
     40037     40040     40043     40038     40037     40039     40038     40037     40040
     40039     40037     40040     40040     40043     40044     40040     40043     40045
     40040     40043     40046     40041     40040     40042     40041     40040     40043
     40042     40040     40043     40043     40046     40047     40043     40046     40048
     40043     40046     40049     40044     40043     40045     40044     40043     40046
     40045     40043     40046     40046     40049     40050     40046     40049     40051
     40046     40049     40052     40047     40046     40048     40047     40046     40049
     40048     40046     40049     40049     40052     40053     40049     40052     40054
     40049     40052     40055     40050     40049     40051     40050     40049     40052
     40051     40049     40052     40052     40055     40056     40052     40055     40057
     40052     40055     40058     40053     40052     40054     40053     40052     40055
     40054     40052     40055     40055     40058     40059     40055     40058     40060
     40055     40058     40061     40056     40055     40057     40056     40055     40058
     40057     40055     40058     40058     40061     40062     40058     40061     40063
     40058     40061     40064     40059     40058     40060     40059     40058     40061
     40060     40058     40061     40062     40061     40063     40062     40061     40064
     40063     40061     40064     40065     40069     40070     40065     40069     40071
     40065     40069     40072     40066     40065     40067     40066     40065     40068
     40066     40065     40069     40067     40065     40068     40067     40065     40069
     40068     40065     40069     40069     40072     40073     40069     40072     40074
     40069     40072     40079     40070     40069     40071     40070     40069     40072
     40071     40069     40072     40072     40079     40075     40073     40072     40074
     40073     40072     40079     40074     40072     40079     40075     40078     40080
     40076     40075     40077     40076     40075     40078     40076     40075     40079
     40077     40075     40078     40077     40075     40079     40078     40075     40079
     40078     40080     40081     40078     40080     40082     40078     40080     40083
     40080     40083     40084     40080     40083     40085     40080     40083     40091
     40081     40080     40082     40081     40080     40083     40082     40080     40083
     40083     40085     40086     40083     40091     40092     40083     40091     40093
     40083     40091     40094     40084     40083     40085     40084     40083     40091
     40085     40083     40091     40085     40086     40087     40085     40086     40088
     40086     40088     40089     40086     40088     40090     40086     40088     40100
     40087     40086     40088     40088     40100     40101     40088     40100     40102
     40088     40100     40103     40089     40088     40090     40089     40088     40100
     40090     40088     40100     40091     40094     40095     40092     40091     40093
     40092     40091     40094     40093     40091     40094     40094     40095     40096
     40094     40095     40097     40095     40097     40098     40095     40097     40099
     40095     40097     40141     40096     40095     40097     40097     40141     40142
     40097     40141     40143     40097     40141     40144     40098     40097     40099
     40098     40097     40141     40099     40097     40141     40100     40103     40104
     40100     40103     40105     40100     40103     40106     40101     40100     40102
     40101     40100     40103     40102     40100     40103     40103     40106     40107
     40103     40106     40108     40103     40106     40109     40104     40103     40105
     40104     40103     40106     40105     40103     40106     40106     40109     40110
     40106     40109     40111     40106     40109     40112     40107     40106     40108
     40107     40106     40109     40108     40106     40109     40109     40112     40113
     40109     40112     40114     40109     40112     40115     40110     40109     40111
     40110     40109     40112     40111     40109     40112     40112     40115     40116
     40112     40115     40117     40112     40115     40118     40113     40112     40114
     40113     40112     40115     40114     40112     40115     40115     40118     40119
     40115     40118     40120     40116     40115     40117     40116     40115     40118
     40117     40115     40118     40118     40120     40121     40118     40120     40122
     40119     40118     40120     40120     40122     40123     40120     40122     40124
     40120     40122     40125     40121     40120     40122     40122     40125     40126
     40122     40125     40127     40122     40125     40128     40123     40122     40124
     40123     40122     40125     40124     40122     40125     40125     40128     40129
     40125     40128     40130     40125     40128     40131     40126     40125     40127
     40126     40125     40128     40127     40125     40128     40128     40131     40132
     40128     40131     40133     40128     40131     40134     40129     40128     40130
     40129     40128     40131     40130     40128     40131     40131     40134     40135
     40131     40134     40136     40131     40134     40137     40132     40131     40133
     40132     40131     40134     40133     40131     40134     40134     40137     40138
     40134     40137     40139     40134     40137     40140     40135     40134     40136
     40135     40134     40137     40136     40134     40137     40138     40137     40139
     40138     40137     40140     40139     40137     40140     40141     40144     40145
     40141     40144     40146     40141     40144     40147     40142     40141     40143
     40142     40141     40144     40143     40141     40144     40144     40147     40148
     40144     40147     40149     40144     40147     40150     40145     40144     40146
     40145     40144     40147     40146     40144     40147     40147     40150     40151
     40147     40150     40152     40147     40150     40153     40148     40147     40149
     40148     40147     40150     40149     40147     40150     40150     40153     40154
     40150     40153     40155     40150     40153     40156     40151     40150     40152
     40151     40150     40153     40152     40150     40153     40153     40156     40157
     40153     40156     40158     40153     40156     40159     40154     40153     40155
     40154     40153     40156     40155     40153     40156     40156     40159     40160
     40156     40159     40161     40156     40159     40162     40157     40156     40158
     40157     40156     40159     40158     40156     40159     40159     40162     40163
     40159     40162     40164     40159     40162     40165     40160     40159     40161
     40160     40159     40162     40161     40159     40162     40162     40165     40166
     40162     40165     40167     40162     40165     40168     40163     40162     40164
     40163     40162     40165     40164     40162     40165     40165     40168     40169
     40165     40168     40170     40165     40168     40171     40166     40165     40167
     40166     40165     40168     40167     40165     40168     40168     40171     40172
     40168     40171     40173     40168     40171     40174     40169     40168     40170
     40169     40168     40171     40170     40168     40171     40171     40174     40175
     40171     40174     40176     40171     40174     40177     40172     40171     40173
     40172     40171     40174     40173     40171     40174     40174     40177     40178
     40174     40177     40179     40174     40177     40180     40175     40174     40176
     40175     40174     40177     40176     40174     40177     40177     40180     40181
     40177     40180     40182     40177     40180     40183     40178     40177     40179
     40178     40177     40180     40179     40177     40180     40181     40180     40182
     40181     40180     40183     40182     40180     40183     40184     40188     40189
     40184     40188     40190     40184     40188     40191     40185     40184     40186
     40185     40184     40187     40185     40184     40188     40186     40184     40187
     40186     40184     40188     40187     40184     40188     40188     40191     40192
     40188     40191     40193     40188     40191     40198     40189     40188     40190
     40189     40188     40191     40190     40188     40191     40191     40198     40194
     40192     40191     40193     40192     40191     40198     40193     40191     40198
     40194     40197     40199     40195     40194     40196     40195     40194     40197
     40195     40194     40198     40196     40194     40197     40196     40194     40198
     40197     40194     40198     40197     40199     40200     40197     40199     40201
     40197     40199     40202     40199     40202     40203     40199     40202     40204
     40199     40202     40210     40200     40199     40201     40200     40199     40202
     40201     40199     40202     40202     40204     40205     40202     40210     40211
     40202     40210     40212     40202     40210     40213     40203     40202     40204
     40203     40202     40210     40204     40202     40210     40204     40205     40206
     40204     40205     40207     40205     40207     40208     40205     40207     40209
     40205     40207     40219     40206     40205     40207     40207     40219     40220
     40207     40219     40221     40207     40219     40222     40208     40207     40209
     40208     40207     40219     40209     40207     40219     40210     40213     40214
     40211     40210     40212     40211     40210     40213     40212     40210     40213
     40213     40214     40215     40213     40214     40216     40214     40216     40217
     40214     40216     40218     40214     40216     40260     40215     40214     40216
     40216     40260     40261     40216     40260     40262     40216     40260     40263
     40217     40216     40218     40217     40216     40260     40218     40216     40260
     40219     40222     40223     40219     40222     40224     40219     40222     40225
     40220     40219     40221     40220     40219     40222     40221     40219     40222
     40222     40225     40226     40222     40225     40227     40222     40225     40228
     40223     40222     40224     40223     40222     40225     40224     40222     40225
     40225     40228     40229     40225     40228     40230     40225     40228     40231
     40226     40225     40227     40226     40225     40228     40227     40225     40228
     40228     40231     40232     40228     40231     40233     40228     40231     40234
     40229     40228     40230     40229     40228     40231     40230     40228     40231
     40231     40234     40235     40231     40234     40236     40231     40234     40237
     40232     40231     40233     40232     40231     40234     40233     40231     40234
     40234     40237     40238     40234     40237     40239     40235     40234     40236
     40235     40234     40237     40236     40234     40237     40237     40239     40240
     40237     40239     40241     40238     40237     40239     40239     40241     40242
     40239     40241     40243     40239     40241     40244     40240     40239     40241
     40241     40244     40245     40241     40244     40246     40241     40244     40247
     40242     40241     40243     40242     40241     40244     40243     40241     40244
     40244     40247     40248     40244     40247     40249     40244     40247     40250
     40245     40244     40246     40245     40244     40247     40246     40244     40247
     40247     40250     40251     40247     40250     40252     40247     40250     40253
     40248     40247     40249     40248     40247     40250     40249     40247     40250
     40250     40253     40254     40250     40253     40255     40250     40253     40256
     40251     40250     40252     40251     40250     40253     40252     40250     40253
     40253     40256     40257     40253     40256     40258     40253     40256     40259
     40254     40253     40255     40254     40253     40256     40255     40253     40256
     40257     40256     40258     40257     40256     40259     40258     40256     40259
     40260     40263     40264     40260     40263     40265     40260     40263     40266
     40261     40260     40262     40261     40260     40263     40262     40260     40263
     40263     40266     40267     40263     40266     40268     40263     40266     40269
     40264     40263     40265     40264     40263     40266     40265     40263     40266
     40266     40269     40270     40266     40269     40271     40266     40269     40272
     40267     40266     40268     40267     40266     40269     40268     40266     40269
     40269     40272     40273     40269     40272     40274     40269     40272     40275
     40270     40269     40271     40270     40269     40272     40271     40269     40272
     40272     40275     40276     40272     40275     40277     40272     40275     40278
     40273     40272     40274     40273     40272     40275     40274     40272     40275
     40275     40278     40279     40275     40278     40280     40275     40278     40281
     40276     40275     40277     40276     40275     40278     40277     40275     40278
     40278     40281     40282     40278     40281     40283     40278     40281     40284
     40279     40278     40280     40279     40278     40281     40280     40278     40281
     40281     40284     40285     40281     40284     40286     40281     40284     40287
     40282     40281     40283     40282     40281     40284     40283     40281     40284
     40284     40287     40288     40284     40287     40289     40284     40287     40290
     40285     40284     40286     40285     40284     40287     40286     40284     40287
     40287     40290     40291     40287     40290     40292     40287     40290     40293
     40288     40287     40289     40288     40287     40290     40289     40287     40290
     40290     40293     40294     40290     40293     40295     40290     40293     40296
     40291     40290     40292     40291     40290     40293     40292     40290     40293
     40293     40296     40297     40293     40296     40298     40293     40296     40299
     40294     40293     40295     40294     40293     40296     40295     40293     40296
     40296     40299     40300     40296     40299     40301     40296     40299     40302
     40297     40296     40298     40297     40296     40299     40298     40296     40299
     40300     40299     40301     40300     40299     40302     40301     40299     40302
     40303     40307     40308     40303     40307     40309     40303     40307     40310
     40304     40303     40305     40304     40303     40306     40304     40303     40307
     40305     40303     40306     40305     40303     40307     40306     40303     40307
     40307     40310     40311     40307     40310     40312     40307     40310     40317
     40308     40307     40309     40308     40307     40310     40309     40307     40310
     40310     40317     40313     40311     40310     40312     40311     40310     40317
     40312     40310     40317     40313     40316     40318     40314     40313     40315
     40314     40313     40316     40314     40313     40317     40315     40313     40316
     40315     40313     40317     40316     40313     40317     40316     40318     40319
     40316     40318     40320     40316     40318     40321     40318     40321     40322
     40318     40321     40323     40318     40321     40329     40319     40318     40320
     40319     40318     40321     40320     40318     40321     40321     40323     40324
     40321     40329     40330     40321     40329     40331     40321     40329     40332
     40322     40321     40323     40322     40321     40329     40323     40321     40329
     40323     40324     40325     40323     40324     40326     40324     40326     40327
     40324     40326     40328     40324     40326     40338     40325     40324     40326
     40326     40338     40339     40326     40338     40340     40326     40338     40341
     40327     40326     40328     40327     40326     40338     40328     40326     40338
     40329     40332     40333     40330     40329     40331     40330     40329     40332
     40331     40329     40332     40332     40333     40334     40332     40333     40335
     40333     40335     40336     40333     40335     40337     40333     40335     40379
     40334     40333     40335     40335     40379     40380     40335     40379     40381
     40335     40379     40382     40336     40335     40337     40336     40335     40379
     40337     40335     40379     40338     40341     40342     40338     40341     40343
     40338     40341     40344     40339     40338     40340     40339     40338     40341
     40340     40338     40341     40341     40344     40345     40341     40344     40346
     40341     40344     40347     40342     40341     40343     40342     40341     40344
     40343     40341     40344     40344     40347     40348     40344     40347     40349
     40344     40347     40350     40345     40344     40346     40345     40344     40347
     40346     40344     40347     40347     40350     40351     40347     40350     40352
     40347     40350     40353     40348     40347     40349     40348     40347     40350
     40349     40347     40350     40350     40353     40354     40350     40353     40355
     40350     40353     40356     40351     40350     40352     40351     40350     40353
     40352     40350     40353     40353     40356     40357     40353     40356     40358
     40354     40353     40355     40354     40353     40356     40355     40353     40356
     40356     40358     40359     40356     40358     40360     40357     40356     40358
     40358     40360     40361     40358     40360     40362     40358     40360     40363
     40359     40358     40360     40360     40363     40364     40360     40363     40365
     40360     40363     40366     40361     40360     40362     40361     40360     40363
     40362     40360     40363     40363     40366     40367     40363     40366     40368
     40363     40366     40369     40364     40363     40365     40364     40363     40366
     40365     40363     40366     40366     40369     40370     40366     40369     40371
     40366     40369     40372     40367     40366     40368     40367     40366     40369
     40368     40366     40369     40369     40372     40373     40369     40372     40374
     40369     40372     40375     40370     40369     40371     40370     40369     40372
     40371     40369     40372     40372     40375     40376     40372     40375     40377
     40372     40375     40378     40373     40372     40374     40373     40372     40375
     40374     40372     40375     40376     40375     40377     40376     40375     40378
     40377     40375     40378     40379     40382     40383     40379     40382     40384
     40379     40382     40385     40380     40379     40381     40380     40379     40382
     40381     40379     40382     40382     40385     40386     40382     40385     40387
     40382     40385     40388     40383     40382     40384     40383     40382     40385
     40384     40382     40385     40385     40388     40389     40385     40388     40390
     40385     40388     40391     40386     40385     40387     40386     40385     40388
     40387     40385     40388     40388     40391     40392     40388     40391     40393
     40388     40391     40394     40389     40388     40390     40389     40388     40391
     40390     40388     40391     40391     40394     40395     40391     40394     40396
     40391     40394     40397     40392     40391     40393     40392     40391     40394
     40393     40391     40394     40394     40397     40398     40394     40397     40399
     40394     40397     40400     40395     40394     40396     40395     40394     40397
     40396     40394     40397     40397     40400     40401     40397     40400     40402
     40397     40400     40403     40398     40397     40399     40398     40397     40400
     40399     40397     40400     40400     40403     40404     40400     40403     40405
     40400     40403     40406     40401     40400     40402     40401     40400     40403
     40402     40400     40403     40403     40406     40407     40403     40406     40408
     40403     40406     40409     40404     40403     40405     40404     40403     40406
     40405     40403     40406     40406     40409     40410     40406     40409     40411
     40406     40409     40412     40407     40406     40408     40407     40406     40409
     40408     40406     40409     40409     40412     40413     40409     40412     40414
     40409     40412     40415     40410     40409     40411     40410     40409     40412
     40411     40409     40412     40412     40415     40416     40412     40415     40417
     40412     40415     40418     40413     40412     40414     40413     40412     40415
     40414     40412     40415     40415     40418     40419     40415     40418     40420
     40415     40418     40421     40416     40415     40417     40416     40415     40418
     40417     40415     40418     40419     40418     40420     40419     40418     40421
     40420     40418     40421     40422     40426     40427     40422     40426     40428
     40422     40426     40429     40423     40422     40424     40423     40422     40425
     40423     40422     40426     40424     40422     40425     40424     40422     40426
     40425     40422     40426     40426     40429     40430     40426     40429     40431
     40426     40429     40436     40427     40426     40428     40427     40426     40429
     40428     40426     40429     40429     40436     40432     40430     40429     40431
     40430     40429     40436     40431     40429     40436     40432     40435     40437
     40433     40432     40434     40433     40432     40435     40433     40432     40436
     40434     40432     40435     40434     40432     40436     40435     40432     40436
     40435     40437     40438     40435     40437     40439     40435     40437     40440
     40437     40440     40441     40437     40440     40442     40437     40440     40448
     40438     40437     40439     40438     40437     40440     40439     40437     40440
     40440     40442     40443     40440     40448     40449     40440     40448     40450
     40440     40448     40451     40441     40440     40442     40441     40440     40448
     40442     40440     40448     40442     40443     40444     40442     40443     40445
     40443     40445     40446     40443     40445     40447     40443     40445     40457
     40444     40443     40445     40445     40457     40458     40445     40457     40459
     40445     40457     40460     40446     40445     40447     40446     40445     40457
     40447     40445     40457     40448     40451     40452     40449     40448     40450
     40449     40448     40451     40450     40448     40451     40451     40452     40453
     40451     40452     40454     40452     40454     40455     40452     40454     40456
     40452     40454     40498     40453     40452     40454     40454     40498     40499
     40454     40498     40500     40454     40498     40501     40455     40454     40456
     40455     40454     40498     40456     40454     40498     40457     40460     40461
     40457     40460     40462     40457     40460     40463     40458     40457     40459
     40458     40457     40460     40459     40457     40460     40460     40463     40464
     40460     40463     40465     40460     40463     40466     40461     40460     40462
     40461     40460     40463     40462     40460     40463     40463     40466     40467
     40463     40466     40468     40463     40466     40469     40464     40463     40465
     40464     40463     40466     40465     40463     40466     40466     40469     40470
     40466     40469     40471     40466     40469     40472     40467     40466     40468
     40467     40466     40469     40468     40466     40469     40469     40472     40473
     40469     40472     40474     40469     40472     40475     40470     40469     40471
     40470     40469     40472     40471     40469     40472     40472     40475     40476
     40472     40475     40477     40473     40472     40474     40473     40472     40475
     40474     40472     40475     40475     40477     40478     40475     40477     40479
     40476     40475     40477     40477     40479     40480     40477     40479     40481
     40477     40479     40482     40478     40477     40479     40479     40482     40483
     40479     40482     40484     40479     40482     40485     40480     40479     40481
     40480     40479     40482     40481     40479     40482     40482     40485     40486
     40482     40485     40487     40482     40485     40488     40483     40482     40484
     40483     40482     40485     40484     40482     40485     40485     40488     40489
     40485     40488     40490     40485     40488     40491     40486     40485     40487
     40486     40485     40488     40487     40485     40488     40488     40491     40492
     40488     40491     40493     40488     40491     40494     40489     40488     40490
     40489     40488     40491     40490     40488     40491     40491     40494     40495
     40491     40494     40496     40491     40494     40497     40492     40491     40493
     40492     40491     40494     40493     40491     40494     40495     40494     40496
     40495     40494     40497     40496     40494     40497     40498     40501     40502
     40498     40501     40503     40498     40501     40504     40499     40498     40500
     40499     40498     40501     40500     40498     40501     40501     40504     40505
     40501     40504     40506     40501     40504     40507     40502     40501     40503
     40502     40501     40504     40503     40501     40504     40504     40507     40508
     40504     40507     40509     40504     40507     40510     40505     40504     40506
     40505     40504     40507     40506     40504     40507     40507     40510     40511
     40507     40510     40512     40507     40510     40513     40508     40507     40509
     40508     40507     40510     40509     40507     40510     40510     40513     40514
     40510     40513     40515     40510     40513     40516     40511     40510     40512
     40511     40510     40513     40512     40510     40513     40513     40516     40517
     40513     40516     40518     40513     40516     40519     40514     40513     40515
     40514     40513     40516     40515     40513     40516     40516     40519     40520
     40516     40519     40521     40516     40519     40522     40517     40516     40518
     40517     40516     40519     40518     40516     40519     40519     40522     40523
     40519     40522     40524     40519     40522     40525     40520     40519     40521
     40520     40519     40522     40521     40519     40522     40522     40525     40526
     40522     40525     40527     40522     40525     40528     40523     40522     40524
     40523     40522     40525     40524     40522     40525     40525     40528     40529
     40525     40528     40530     40525     40528     40531     40526     40525     40527
     40526     40525     40528     40527     40525     40528     40528     40531     40532
     40528     40531     40533     40528     40531     40534     40529     40528     40530
     40529     40528     40531     40530     40528     40531     40531     40534     40535
     40531     40534     40536     40531     40534     40537     40532     40531     40533
     40532     40531     40534     40533     40531     40534     40534     40537     40538
     40534     40537     40539     40534     40537     40540     40535     40534     40536
     40535     40534     40537     40536     40534     40537     40538     40537     40539
     40538     40537     40540     40539     40537     40540     40541     40545     40546
     40541     40545     40547     40541     40545     40548     40542     40541     40543
     40542     40541     40544     40542     40541     40545     40543     40541     40544
     40543     40541     40545     40544     40541     40545     40545     40548     40549
     40545     40548     40550     40545     40548     40555     40546     40545     40547
     40546     40545     40548     40547     40545     40548     40548     40555     40551
     40549     40548     40550     40549     40548     40555     40550     40548     40555
     40551     40554     40556     40552     40551     40553     40552     40551     40554
     40552     40551     40555     40553     40551     40554     40553     40551     40555
     40554     40551     40555     40554     40556     40557     40554     40556     40558
     40554     40556     40559     40556     40559     40560     40556     40559     40561
     40556     40559     40567     40557     40556     40558     40557     40556     40559
     40558     40556     40559     40559     40561     40562     40559     40567     40568
     40559     40567     40569     40559     40567     40570     40560     40559     40561
     40560     40559     40567     40561     40559     40567     40561     40562     40563
     40561     40562     40564     40562     40564     40565     40562     40564     40566
     40562     40564     40576     40563     40562     40564     40564     40576     40577
     40564     40576     40578     40564     40576     40579     40565     40564     40566
     40565     40564     40576     40566     40564     40576     40567     40570     40571
     40568     40567     40569     40568     40567     40570     40569     40567     40570
     40570     40571     40572     40570     40571     40573     40571     40573     40574
     40571     40573     40575     40571     40573     40617     40572     40571     40573
     40573     40617     40618     40573     40617     40619     40573     40617     40620
     40574     40573     40575     40574     40573     40617     40575     40573     40617
     40576     40579     40580     40576     40579     40581     40576     40579     40582
     40577     40576     40578     40577     40576     40579     40578     40576     40579
     40579     40582     40583     40579     40582     40584     40579     40582     40585
     40580     40579     40581     40580     40579     40582     40581     40579     40582
     40582     40585     40586     40582     40585     40587     40582     40585     40588
     40583     40582     40584     40583     40582     40585     40584     40582     40585
     40585     40588     40589     40585     40588     40590     40585     40588     40591
     40586     40585     40587     40586     40585     40588     40587     40585     40588
     40588     40591     40592     40588     40591     40593     40588     40591     40594
     40589     40588     40590     40589     40588     40591     40590     40588     40591
     40591     40594     40595     40591     40594     40596     40592     40591     40593
     40592     40591     40594     40593     40591     40594     40594     40596     40597
     40594     40596     40598     40595     40594     40596     40596     40598     40599
     40596     40598     40600     40596     40598     40601     40597     40596     40598
     40598     40601     40602     40598     40601     40603     40598     40601     40604
     40599     40598     40600     40599     40598     40601     40600     40598     40601
     40601     40604     40605     40601     40604     40606     40601     40604     40607
     40602     40601     40603     40602     40601     40604     40603     40601     40604
     40604     40607     40608     40604     40607     40609     40604     40607     40610
     40605     40604     40606     40605     40604     40607     40606     40604     40607
     40607     40610     40611     40607     40610     40612     40607     40610     40613
     40608     40607     40609     40608     40607     40610     40609     40607     40610
     40610     40613     40614     40610     40613     40615     40610     40613     40616
     40611     40610     40612     40611     40610     40613     40612     40610     40613
     40614     40613     40615     40614     40613     40616     40615     40613     40616
     40617     40620     40621     40617     40620     40622     40617     40620     40623
     40618     40617     40619     40618     40617     40620     40619     40617     40620
     40620     40623     40624     40620     40623     40625     40620     40623     40626
     40621     40620     40622     40621     40620     40623     40622     40620     40623
     40623     40626     40627     40623     40626     40628     40623     40626     40629
     40624     40623     40625     40624     40623     40626     40625     40623     40626
     40626     40629     40630     40626     40629     40631     40626     40629     40632
     40627     40626     40628     40627     40626     40629     40628     40626     40629
     40629     40632     40633     40629     40632     40634     40629     40632     40635
     40630     40629     40631     40630     40629     40632     40631     40629     40632
     40632     40635     40636     40632     40635     40637     40632     40635     40638
     40633     40632     40634     40633     40632     40635     40634     40632     40635
     40635     40638     40639     40635     40638     40640     40635     40638     40641
     40636     40635     40637     40636     40635     40638     40637     40635     40638
     40638     40641     40642     40638     40641     40643     40638     40641     40644
     40639     40638     40640     40639     40638     40641     40640     40638     40641
     40641     40644     40645     40641     40644     40646     40641     40644     40647
     40642     40641     40643     40642     40641     40644     40643     40641     40644
     40644     40647     40648     40644     40647     40649     40644     40647     40650
     40645     40644     40646     40645     40644     40647     40646     40644     40647
     40647     40650     40651     40647     40650     40652     40647     40650     40653
     40648     40647     40649     40648     40647     40650     40649     40647     40650
     40650     40653     40654     40650     40653     40655     40650     40653     40656
     40651     40650     40652     40651     40650     40653     40652     40650     40653
     40653     40656     40657     40653     40656     40658     40653     40656     40659
     40654     40653     40655     40654     40653     40656     40655     40653     40656
     40657     40656     40658     40657     40656     40659     40658     40656     40659
     40660     40664     40665     40660     40664     40666     40660     40664     40667
     40661     40660     40662     40661     40660     40663     40661     40660     40664
     40662     40660     40663     40662     40660     40664     40663     40660     40664
     40664     40667     40668     40664     40667     40669     40664     40667     40674
     40665     40664     40666     40665     40664     40667     40666     40664     40667
     40667     40674     40670     40668     40667     40669     40668     40667     40674
     40669     40667     40674     40670     40673     40675     40671     40670     40672
     40671     40670     40673     40671     40670     40674     40672     40670     40673
     40672     40670     40674     40673     40670     40674     40673     40675     40676
     40673     40675     40677     40673     40675     40678     40675     40678     40679
     40675     40678     40680     40675     40678     40686     40676     40675     40677
     40676     40675     40678     40677     40675     40678     40678     40680     40681
     40678     40686     40687     40678     40686     40688     40678     40686     40689
     40679     40678     40680     40679     40678     40686     40680     40678     40686
     40680     40681     40682     40680     40681     40683     40681     40683     40684
     40681     40683     40685     40681     40683     40695     40682     40681     40683
     40683     40695     40696     40683     40695     40697     40683     40695     40698
     40684     40683     40685     40684     40683     40695     40685     40683     40695
     40686     40689     40690     40687     40686     40688     40687     40686     40689
     40688     40686     40689     40689     40690     40691     40689     40690     40692
     40690     40692     40693     40690     40692     40694     40690     40692     40736
     40691     40690     40692     40692     40736     40737     40692     40736     40738
     40692     40736     40739     40693     40692     40694     40693     40692     40736
     40694     40692     40736     40695     40698     40699     40695     40698     40700
     40695     40698     40701     40696     40695     40697     40696     40695     40698
     40697     40695     40698     40698     40701     40702     40698     40701     40703
     40698     40701     40704     40699     40698     40700     40699     40698     40701
     40700     40698     40701     40701     40704     40705     40701     40704     40706
     40701     40704     40707     40702     40701     40703     40702     40701     40704
     40703     40701     40704     40704     40707     40708     40704     40707     40709
     40704     40707     40710     40705     40704     40706     40705     40704     40707
     40706     40704     40707     40707     40710     40711     40707     40710     40712
     40707     40710     40713     40708     40707     40709     40708     40707     40710
     40709     40707     40710     40710     40713     40714     40710     40713     40715
     40711     40710     40712     40711     40710     40713     40712     40710     40713
     40713     40715     40716     40713     40715     40717     40714     40713     40715
     40715     40717     40718     40715     40717     40719     40715     40717     40720
     40716     40715     40717     40717     40720     40721     40717     40720     40722
     40717     40720     40723     40718     40717     40719     40718     40717     40720
     40719     40717     40720     40720     40723     40724     40720     40723     40725
     40720     40723     40726     40721     40720     40722     40721     40720     40723
     40722     40720     40723     40723     40726     40727     40723     40726     40728
     40723     40726     40729     40724     40723     40725     40724     40723     40726
     40725     40723     40726     40726     40729     40730     40726     40729     40731
     40726     40729     40732     40727     40726     40728     40727     40726     40729
     40728     40726     40729     40729     40732     40733     40729     40732     40734
     40729     40732     40735     40730     40729     40731     40730     40729     40732
     40731     40729     40732     40733     40732     40734     40733     40732     40735
     40734     40732     40735     40736     40739     40740     40736     40739     40741
     40736     40739     40742     40737     40736     40738     40737     40736     40739
     40738     40736     40739     40739     40742     40743     40739     40742     40744
     40739     40742     40745     40740     40739     40741     40740     40739     40742
     40741     40739     40742     40742     40745     40746     40742     40745     40747
     40742     40745     40748     40743     40742     40744     40743     40742     40745
     40744     40742     40745     40745     40748     40749     40745     40748     40750
     40745     40748     40751     40746     40745     40747     40746     40745     40748
     40747     40745     40748     40748     40751     40752     40748     40751     40753
     40748     40751     40754     40749     40748     40750     40749     40748     40751
     40750     40748     40751     40751     40754     40755     40751     40754     40756
     40751     40754     40757     40752     40751     40753     40752     40751     40754
     40753     40751     40754     40754     40757     40758     40754     40757     40759
     40754     40757     40760     40755     40754     40756     40755     40754     40757
     40756     40754     40757     40757     40760     40761     40757     40760     40762
     40757     40760     40763     40758     40757     40759     40758     40757     40760
     40759     40757     40760     40760     40763     40764     40760     40763     40765
     40760     40763     40766     40761     40760     40762     40761     40760     40763
     40762     40760     40763     40763     40766     40767     40763     40766     40768
     40763     40766     40769     40764     40763     40765     40764     40763     40766
     40765     40763     40766     40766     40769     40770     40766     40769     40771
     40766     40769     40772     40767     40766     40768     40767     40766     40769
     40768     40766     40769     40769     40772     40773     40769     40772     40774
     40769     40772     40775     40770     40769     40771     40770     40769     40772
     40771     40769     40772     40772     40775     40776     40772     40775     40777
     40772     40775     40778     40773     40772     40774     40773     40772     40775
     40774     40772     40775     40776     40775     40777     40776     40775     40778
     40777     40775     40778     40779     40782     40783     40779     40784     40785
     40779     40784     40786     40779     40784     40788     40780     40779     40781
     40780     40779     40782     40780     40779     40784     40781     40779     40782
     40781     40779     40784     40782     40779     40784     40784     40786     40787
     40784     40788     40789     40784     40788     40790     40784     40788     40794
     40785     40784     40786     40785     40784     40788     40786     40784     40788
     40788     40794     40791     40789     40788     40790     40789     40788     40794
     40790     40788     40794     40791     40795     40796     40792     40791     40793
     40792     40791     40794     40792     40791     40795     40793     40791     40794
     40793     40791     40795     40794     40791     40795     40795     40796     40797
     40795     40796     40798     40795     40796     40799     40796     40799     40800
     40796     40799     40801     40796     40799     40807     40797     40796     40798
     40797     40796     40799     40798     40796     40799     40799     40801     40802
     40799     40807     40808     40799     40807     40809     40799     40807     40810
     40800     40799     40801     40800     40799     40807     40801     40799     40807
     40801     40802     40803     40801     40802     40804     40802     40804     40805
     40802     40804     40806     40802     40804     40816     40803     40802     40804
     40804     40816     40817     40804     40816     40818     40804     40816     40819
     40805     40804     40806     40805     40804     40816     40806     40804     40816
     40807     40810     40811     40808     40807     40809     40808     40807     40810
     40809     40807     40810     40810     40811     40812     40810     40811     40813
     40811     40813     40814     40811     40813     40815     40811     40813     40863
     40812     40811     40813     40813     40863     40864     40813     40863     40865
     40813     40863     40866     40814     40813     40815     40814     40813     40863
     40815     40813     40863     40816     40819     40820     40816     40819     40821
     40816     40819     40822     40817     40816     40818     40817     40816     40819
     40818     40816     40819     40819     40822     40823     40819     40822     40824
     40819     40822     40825     40820     40819     40821     40820     40819     40822
     40821     40819     40822     40822     40825     40826     40822     40825     40827
     40822     40825     40828     40823     40822     40824     40823     40822     40825
     40824     40822     40825     40825     40828     40829     40825     40828     40830
     40825     40828     40831     40826     40825     40827     40826     40825     40828
     40827     40825     40828     40828     40831     40832     40828     40831     40833
     40828     40831     40834     40829     40828     40830     40829     40828     40831
     40830     40828     40831     40831     40834     40835     40831     40834     40836
     40831     40834     40837     40832     40831     40833     40832     40831     40834
     40833     40831     40834     40834     40837     40838     40834     40837     40839
     40834     40837     40840     40835     40834     40836     40835     40834     40837
     40836     40834     40837     40837     40840     40841     40837     40840     40842
     40838     40837     40839     40838     40837     40840     40839     40837     40840
     40840     40842     40843     40840     40842     40844     40841     40840     40842
     40842     40844     40845     40842     40844     40846     40842     40844     40847
     40843     40842     40844     40844     40847     40848     40844     40847     40849
     40844     40847     40850     40845     40844     40846     40845     40844     40847
     40846     40844     40847     40847     40850     40851     40847     40850     40852
     40847     40850     40853     40848     40847     40849     40848     40847     40850
     40849     40847     40850     40850     40853     40854     40850     40853     40855
     40850     40853     40856     40851     40850     40852     40851     40850     40853
     40852     40850     40853     40853     40856     40857     40853     40856     40858
     40853     40856     40859     40854     40853     40855     40854     40853     40856
     40855     40853     40856     40856     40859     40860     40856     40859     40861
     40856     40859     40862     40857     40856     40858     40857     40856     40859
     40858     40856     40859     40860     40859     40861     40860     40859     40862
     40861     40859     40862     40863     40866     40867     40863     40866     40868
     40863     40866     40869     40864     40863     40865     40864     40863     40866
     40865     40863     40866     40866     40869     40870     40866     40869     40871
     40866     40869     40872     40867     40866     40868     40867     40866     40869
     40868     40866     40869     40869     40872     40873     40869     40872     40874
     40869     40872     40875     40870     40869     40871     40870     40869     40872
     40871     40869     40872     40872     40875     40876     40872     40875     40877
     40872     40875     40878     40873     40872     40874     40873     40872     40875
     40874     40872     40875     40875     40878     40879     40875     40878     40880
     40875     40878     40881     40876     40875     40877     40876     40875     40878
     40877     40875     40878     40878     40881     40882     40878     40881     40883
     40878     40881     40884     40879     40878     40880     40879     40878     40881
     40880     40878     40881     40881     40884     40885     40881     40884     40886
     40881     40884     40887     40882     40881     40883     40882     40881     40884
     40883     40881     40884     40884     40887     40888     40884     40887     40889
     40884     40887     40890     40885     40884     40886     40885     40884     40887
     40886     40884     40887     40887     40890     40891     40887     40890     40892
     40887     40890     40893     40888     40887     40889     40888     40887     40890
     40889     40887     40890     40890     40893     40894     40890     40893     40895
     40890     40893     40896     40891     40890     40892     40891     40890     40893
     40892     40890     40893     40893     40896     40897     40893     40896     40898
     40893     40896     40899     40894     40893     40895     40894     40893     40896
     40895     40893     40896     40896     40899     40900     40896     40899     40901
     40896     40899     40902     40897     40896     40898     40897     40896     40899
     40898     40896     40899     40899     40902     40903     40899     40902     40904
     40899     40902     40905     40900     40899     40901     40900     40899     40902
     40901     40899     40902     40903     40902     40904     40903     40902     40905
     40904     40902     40905     40906     40909     40910     40906     40911     40912
     40906     40911     40913     40906     40911     40915     40907     40906     40908
     40907     40906     40909     40907     40906     40911     40908     40906     40909
     40908     40906     40911     40909     40906     40911     40911     40913     40914
     40911     40915     40916     40911     40915     40917     40911     40915     40921
     40912     40911     40913     40912     40911     40915     40913     40911     40915
     40915     40921     40918     40916     40915     40917     40916     40915     40921
     40917     40915     40921     40918     40922     40923     40919     40918     40920
     40919     40918     40921     40919     40918     40922     40920     40918     40921
     40920     40918     40922     40921     40918     40922     40922     40923     40924
     40922     40923     40925     40922     40923     40926     40923     40926     40927
     40923     40926     40928     40923     40926     40934     40924     40923     40925
     40924     40923     40926     40925     40923     40926     40926     40928     40929
     40926     40934     40935     40926     40934     40936     40926     40934     40937
     40927     40926     40928     40927     40926     40934     40928     40926     40934
     40928     40929     40930     40928     40929     40931     40929     40931     40932
     40929     40931     40933     40929     40931     40943     40930     40929     40931
     40931     40943     40944     40931     40943     40945     40931     40943     40946
     40932     40931     40933     40932     40931     40943     40933     40931     40943
     40934     40937     40938     40935     40934     40936     40935     40934     40937
     40936     40934     40937     40937     40938     40939     40937     40938     40940
     40938     40940     40941     40938     40940     40942     40938     40940     40990
     40939     40938     40940     40940     40990     40991     40940     40990     40992
     40940     40990     40993     40941     40940     40942     40941     40940     40990
     40942     40940     40990     40943     40946     40947     40943     40946     40948
     40943     40946     40949     40944     40943     40945     40944     40943     40946
     40945     40943     40946     40946     40949     40950     40946     40949     40951
     40946     40949     40952     40947     40946     40948     40947     40946     40949
     40948     40946     40949     40949     40952     40953     40949     40952     40954
     40949     40952     40955     40950     40949     40951     40950     40949     40952
     40951     40949     40952     40952     40955     40956     40952     40955     40957
     40952     40955     40958     40953     40952     40954     40953     40952     40955
     40954     40952     40955     40955     40958     40959     40955     40958     40960
     40955     40958     40961     40956     40955     40957     40956     40955     40958
     40957     40955     40958     40958     40961     40962     40958     40961     40963
     40958     40961     40964     40959     40958     40960     40959     40958     40961
     40960     40958     40961     40961     40964     40965     40961     40964     40966
     40961     40964     40967     40962     40961     40963     40962     40961     40964
     40963     40961     40964     40964     40967     40968     40964     40967     40969
     40965     40964     40966     40965     40964     40967     40966     40964     40967
     40967     40969     40970     40967     40969     40971     40968     40967     40969
     40969     40971     40972     40969     40971     40973     40969     40971     40974
     40970     40969     40971     40971     40974     40975     40971     40974     40976
     40971     40974     40977     40972     40971     40973     40972     40971     40974
     40973     40971     40974     40974     40977     40978     40974     40977     40979
     40974     40977     40980     40975     40974     40976     40975     40974     40977
     40976     40974     40977     40977     40980     40981     40977     40980     40982
     40977     40980     40983     40978     40977     40979     40978     40977     40980
     40979     40977     40980     40980     40983     40984     40980     40983     40985
     40980     40983     40986     40981     40980     40982     40981     40980     40983
     40982     40980     40983     40983     40986     40987     40983     40986     40988
     40983     40986     40989     40984     40983     40985     40984     40983     40986
     40985     40983     40986     40987     40986     40988     40987     40986     40989
     40988     40986     40989     40990     40993     40994     40990     40993     40995
     40990     40993     40996     40991     40990     40992     40991     40990     40993
     40992     40990     40993     40993     40996     40997     40993     40996     40998
     40993     40996     40999     40994     40993     40995     40994     40993     40996
     40995     40993     40996     40996     40999     41000     40996     40999     41001
     40996     40999     41002     40997     40996     40998     40997     40996     40999
     40998     40996     40999     40999     41002     41003     40999     41002     41004
     40999     41002     41005     41000     40999     41001     41000     40999     41002
     41001     40999     41002     41002     41005     41006     41002     41005     41007
     41002     41005     41008     41003     41002     41004     41003     41002     41005
     41004     41002     41005     41005     41008     41009     41005     41008     41010
     41005     41008     41011     41006     41005     41007     41006     41005     41008
     41007     41005     41008     41008     41011     41012     41008     41011     41013
     41008     41011     41014     41009     41008     41010     41009     41008     41011
     41010     41008     41011     41011     41014     41015     41011     41014     41016
     41011     41014     41017     41012     41011     41013     41012     41011     41014
     41013     41011     41014     41014     41017     41018     41014     41017     41019
     41014     41017     41020     41015     41014     41016     41015     41014     41017
     41016     41014     41017     41017     41020     41021     41017     41020     41022
     41017     41020     41023     41018     41017     41019     41018     41017     41020
     41019     41017     41020     41020     41023     41024     41020     41023     41025
     41020     41023     41026     41021     41020     41022     41021     41020     41023
     41022     41020     41023     41023     41026     41027     41023     41026     41028
     41023     41026     41029     41024     41023     41025     41024     41023     41026
     41025     41023     41026     41026     41029     41030     41026     41029     41031
     41026     41029     41032     41027     41026     41028     41027     41026     41029
     41028     41026     41029     41030     41029     41031     41030     41029     41032
     41031     41029     41032     41033     41037     41038     41033     41037     41039
     41033     41037     41040     41034     41033     41035     41034     41033     41036
     41034     41033     41037     41035     41033     41036     41035     41033     41037
     41036     41033     41037     41037     41040     41041     41037     41040     41042
     41037     41040     41047     41038     41037     41039     41038     41037     41040
     41039     41037     41040     41040     41047     41043     41041     41040     41042
     41041     41040     41047     41042     41040     41047     41043     41046     41048
     41044     41043     41045     41044     41043     41046     41044     41043     41047
     41045     41043     41046     41045     41043     41047     41046     41043     41047
     41046     41048     41049     41046     41048     41050     41046     41048     41051
     41048     41051     41052     41048     41051     41053     41048     41051     41059
     41049     41048     41050     41049     41048     41051     41050     41048     41051
     41051     41053     41054     41051     41059     41060     41051     41059     41061
     41051     41059     41062     41052     41051     41053     41052     41051     41059
     41053     41051     41059     41053     41054     41055     41053     41054     41056
     41054     41056     41057     41054     41056     41058     41054     41056     41068
     41055     41054     41056     41056     41068     41069     41056     41068     41070
     41056     41068     41071     41057     41056     41058     41057     41056     41068
     41058     41056     41068     41059     41062     41063     41060     41059     41061
     41060     41059     41062     41061     41059     41062     41062     41063     41064
     41062     41063     41065     41063     41065     41066     41063     41065     41067
     41063     41065     41109     41064     41063     41065     41065     41109     41110
     41065     41109     41111     41065     41109     41112     41066     41065     41067
     41066     41065     41109     41067     41065     41109     41068     41071     41072
     41068     41071     41073     41068     41071     41074     41069     41068     41070
     41069     41068     41071     41070     41068     41071     41071     41074     41075
     41071     41074     41076     41071     41074     41077     41072     41071     41073
     41072     41071     41074     41073     41071     41074     41074     41077     41078
     41074     41077     41079     41074     41077     41080     41075     41074     41076
     41075     41074     41077     41076     41074     41077     41077     41080     41081
     41077     41080     41082     41077     41080     41083     41078     41077     41079
     41078     41077     41080     41079     41077     41080     41080     41083     41084
     41080     41083     41085     41080     41083     41086     41081     41080     41082
     41081     41080     41083     41082     41080     41083     41083     41086     41087
     41083     41086     41088     41084     41083     41085     41084     41083     41086
     41085     41083     41086     41086     41088     41089     41086     41088     41090
     41087     41086     41088     41088     41090     41091     41088     41090     41092
     41088     41090     41093     41089     41088     41090     41090     41093     41094
     41090     41093     41095     41090     41093     41096     41091     41090     41092
     41091     41090     41093     41092     41090     41093     41093     41096     41097
     41093     41096     41098     41093     41096     41099     41094     41093     41095
     41094     41093     41096     41095     41093     41096     41096     41099     41100
     41096     41099     41101     41096     41099     41102     41097     41096     41098
     41097     41096     41099     41098     41096     41099     41099     41102     41103
     41099     41102     41104     41099     41102     41105     41100     41099     41101
     41100     41099     41102     41101     41099     41102     41102     41105     41106
     41102     41105     41107     41102     41105     41108     41103     41102     41104
     41103     41102     41105     41104     41102     41105     41106     41105     41107
     41106     41105     41108     41107     41105     41108     41109     41112     41113
     41109     41112     41114     41109     41112     41115     41110     41109     41111
     41110     41109     41112     41111     41109     41112     41112     41115     41116
     41112     41115     41117     41112     41115     41118     41113     41112     41114
     41113     41112     41115     41114     41112     41115     41115     41118     41119
     41115     41118     41120     41115     41118     41121     41116     41115     41117
     41116     41115     41118     41117     41115     41118     41118     41121     41122
     41118     41121     41123     41118     41121     41124     41119     41118     41120
     41119     41118     41121     41120     41118     41121     41121     41124     41125
     41121     41124     41126     41121     41124     41127     41122     41121     41123
     41122     41121     41124     41123     41121     41124     41124     41127     41128
     41124     41127     41129     41124     41127     41130     41125     41124     41126
     41125     41124     41127     41126     41124     41127     41127     41130     41131
     41127     41130     41132     41127     41130     41133     41128     41127     41129
     41128     41127     41130     41129     41127     41130     41130     41133     41134
     41130     41133     41135     41130     41133     41136     41131     41130     41132
     41131     41130     41133     41132     41130     41133     41133     41136     41137
     41133     41136     41138     41133     41136     41139     41134     41133     41135
     41134     41133     41136     41135     41133     41136     41136     41139     41140
     41136     41139     41141     41136     41139     41142     41137     41136     41138
     41137     41136     41139     41138     41136     41139     41139     41142     41143
     41139     41142     41144     41139     41142     41145     41140     41139     41141
     41140     41139     41142     41141     41139     41142     41142     41145     41146
     41142     41145     41147     41142     41145     41148     41143     41142     41144
     41143     41142     41145     41144     41142     41145     41145     41148     41149
     41145     41148     41150     41145     41148     41151     41146     41145     41147
     41146     41145     41148     41147     41145     41148     41149     41148     41150
     41149     41148     41151     41150     41148     41151     41152     41156     41157
     41152     41156     41158     41152     41156     41159     41153     41152     41154
     41153     41152     41155     41153     41152     41156     41154     41152     41155
     41154     41152     41156     41155     41152     41156     41156     41159     41160
     41156     41159     41161     41156     41159     41166     41157     41156     41158
     41157     41156     41159     41158     41156     41159     41159     41166     41162
     41160     41159     41161     41160     41159     41166     41161     41159     41166
     41162     41165     41167     41163     41162     41164     41163     41162     41165
     41163     41162     41166     41164     41162     41165     41164     41162     41166
     41165     41162     41166     41165     41167     41168     41165     41167     41169
     41165     41167     41170     41167     41170     41171     41167     41170     41172
     41167     41170     41178     41168     41167     41169     41168     41167     41170
     41169     41167     41170     41170     41172     41173     41170     41178     41179
     41170     41178     41180     41170     41178     41181     41171     41170     41172
     41171     41170     41178     41172     41170     41178     41172     41173     41174
     41172     41173     41175     41173     41175     41176     41173     41175     41177
     41173     41175     41187     41174     41173     41175     41175     41187     41188
     41175     41187     41189     41175     41187     41190     41176     41175     41177
     41176     41175     41187     41177     41175     41187     41178     41181     41182
     41179     41178     41180     41179     41178     41181     41180     41178     41181
     41181     41182     41183     41181     41182     41184     41182     41184     41185
     41182     41184     41186     41182     41184     41228     41183     41182     41184
     41184     41228     41229     41184     41228     41230     41184     41228     41231
     41185     41184     41186     41185     41184     41228     41186     41184     41228
     41187     41190     41191     41187     41190     41192     41187     41190     41193
     41188     41187     41189     41188     41187     41190     41189     41187     41190
     41190     41193     41194     41190     41193     41195     41190     41193     41196
     41191     41190     41192     41191     41190     41193     41192     41190     41193
     41193     41196     41197     41193     41196     41198     41193     41196     41199
     41194     41193     41195     41194     41193     41196     41195     41193     41196
     41196     41199     41200     41196     41199     41201     41196     41199     41202
     41197     41196     41198     41197     41196     41199     41198     41196     41199
     41199     41202     41203     41199     41202     41204     41199     41202     41205
     41200     41199     41201     41200     41199     41202     41201     41199     41202
     41202     41205     41206     41202     41205     41207     41203     41202     41204
     41203     41202     41205     41204     41202     41205     41205     41207     41208
     41205     41207     41209     41206     41205     41207     41207     41209     41210
     41207     41209     41211     41207     41209     41212     41208     41207     41209
     41209     41212     41213     41209     41212     41214     41209     41212     41215
     41210     41209     41211     41210     41209     41212     41211     41209     41212
     41212     41215     41216     41212     41215     41217     41212     41215     41218
     41213     41212     41214     41213     41212     41215     41214     41212     41215
     41215     41218     41219     41215     41218     41220     41215     41218     41221
     41216     41215     41217     41216     41215     41218     41217     41215     41218
     41218     41221     41222     41218     41221     41223     41218     41221     41224
     41219     41218     41220     41219     41218     41221     41220     41218     41221
     41221     41224     41225     41221     41224     41226     41221     41224     41227
     41222     41221     41223     41222     41221     41224     41223     41221     41224
     41225     41224     41226     41225     41224     41227     41226     41224     41227
     41228     41231     41232     41228     41231     41233     41228     41231     41234
     41229     41228     41230     41229     41228     41231     41230     41228     41231
     41231     41234     41235     41231     41234     41236     41231     41234     41237
     41232     41231     41233     41232     41231     41234     41233     41231     41234
     41234     41237     41238     41234     41237     41239     41234     41237     41240
     41235     41234     41236     41235     41234     41237     41236     41234     41237
     41237     41240     41241     41237     41240     41242     41237     41240     41243
     41238     41237     41239     41238     41237     41240     41239     41237     41240
     41240     41243     41244     41240     41243     41245     41240     41243     41246
     41241     41240     41242     41241     41240     41243     41242     41240     41243
     41243     41246     41247     41243     41246     41248     41243     41246     41249
     41244     41243     41245     41244     41243     41246     41245     41243     41246
     41246     41249     41250     41246     41249     41251     41246     41249     41252
     41247     41246     41248     41247     41246     41249     41248     41246     41249
     41249     41252     41253     41249     41252     41254     41249     41252     41255
     41250     41249     41251     41250     41249     41252     41251     41249     41252
     41252     41255     41256     41252     41255     41257     41252     41255     41258
     41253     41252     41254     41253     41252     41255     41254     41252     41255
     41255     41258     41259     41255     41258     41260     41255     41258     41261
     41256     41255     41257     41256     41255     41258     41257     41255     41258
     41258     41261     41262     41258     41261     41263     41258     41261     41264
     41259     41258     41260     41259     41258     41261     41260     41258     41261
     41261     41264     41265     41261     41264     41266     41261     41264     41267
     41262     41261     41263     41262     41261     41264     41263     41261     41264
     41264     41267     41268     41264     41267     41269     41264     41267     41270
     41265     41264     41266     41265     41264     41267     41266     41264     41267
     41268     41267     41269     41268     41267     41270     41269     41267     41270
     41271     41277     41274     41271     41282     41283     41271     41282     41284
     41271     41282     41286     41272     41271     41273     41272     41271     41277
     41272     41271     41282     41273     41271     41277     41273     41271     41282
     41274     41278     41279     41275     41274     41276     41275     41274     41277
     41275     41274     41278     41276     41274     41277     41276     41274     41278
     41277     41271     41282     41277     41274     41278     41278     41279     41280
     41278     41279     41281     41278     41279     41314     41279     41314     41315
     41279     41314     41316     41279     41314     41322     41280     41279     41281
     41280     41279     41314     41281     41279     41314     41282     41284     41285
     41282     41286     41287     41282     41286     41288     41282     41286     41292
     41283     41282     41284     41283     41282     41286     41284     41282     41286
     41286     41292     41289     41287     41286     41288     41287     41286     41292
     41288     41286     41292     41289     41293     41294     41290     41289     41291
     41290     41289     41292     41290     41289     41293     41291     41289     41292
     41291     41289     41293     41292     41289     41293     41293     41294     41295
     41293     41294     41296     41293     41294     41297     41294     41297     41298
     41294     41297     41299     41294     41297     41305     41295     41294     41296
     41295     41294     41297     41296     41294     41297     41297     41299     41300
     41297     41305     41306     41297     41305     41307     41297     41305     41308
     41298     41297     41299     41298     41297     41305     41299     41297     41305
     41299     41300     41301     41299     41300     41302     41300     41302     41303
     41300     41302     41304     41300     41302     41331     41301     41300     41302
     41302     41331     41332     41302     41331     41333     41302     41331     41334
     41303     41302     41304     41303     41302     41331     41304     41302     41331
     41305     41308     41309     41306     41305     41307     41306     41305     41308
     41307     41305     41308     41308     41309     41310     41308     41309     41311
     41309     41311     41312     41309     41311     41313     41309     41311     41378
     41310     41309     41311     41311     41378     41379     41311     41378     41380
     41311     41378     41381     41312     41311     41313     41312     41311     41378
     41313     41311     41378     41314     41316     41317     41314     41322     41323
     41314     41322     41324     41314     41322     41325     41315     41314     41316
     41315     41314     41322     41316     41314     41322     41316     41317     41318
     41316     41317     41319     41317     41319     41320     41317     41319     41321
     41317     41319     41421     41318     41317     41319     41319     41421     41422
     41319     41421     41423     41319     41421     41424     41320     41319     41321
     41320     41319     41421     41321     41319     41421     41322     41325     41326
     41323     41322     41324     41323     41322     41325     41324     41322     41325
     41325     41326     41327     41325     41326     41328     41326     41328     41329
     41326     41328     41330     41326     41328     41468     41327     41326     41328
     41328     41468     41469     41328     41468     41470     41328     41468     41471
     41329     41328     41330     41329     41328     41468     41330     41328     41468
     41331     41334     41335     41331     41334     41336     41331     41334     41337
     41332     41331     41333     41332     41331     41334     41333     41331     41334
     41334     41337     41338     41334     41337     41339     41334     41337     41340
     41335     41334     41336     41335     41334     41337     41336     41334     41337
     41337     41340     41341     41337     41340     41342     41337     41340     41343
     41338     41337     41339     41338     41337     41340     41339     41337     41340
     41340     41343     41344     41340     41343     41345     41340     41343     41346
     41341     41340     41342     41341     41340     41343     41342     41340     41343
     41343     41346     41347     41343     41346     41348     41343     41346     41349
     41344     41343     41345     41344     41343     41346     41345     41343     41346
     41346     41349     41350     41346     41349     41351     41346     41349     41352
     41347     41346     41348     41347     41346     41349     41348     41346     41349
     41349     41352     41353     41349     41352     41354     41349     41352     41355
     41350     41349     41351     41350     41349     41352     41351     41349     41352
     41352     41355     41356     41352     41355     41357     41353     41352     41354
     41353     41352     41355     41354     41352     41355     41355     41357     41358
     41355     41357     41359     41356     41355     41357     41357     41359     41360
     41357     41359     41361     41357     41359     41362     41358     41357     41359
     41359     41362     41363     41359     41362     41364     41359     41362     41365
     41360     41359     41361     41360     41359     41362     41361     41359     41362
     41362     41365     41366     41362     41365     41367     41362     41365     41368
     41363     41362     41364     41363     41362     41365     41364     41362     41365
     41365     41368     41369     41365     41368     41370     41365     41368     41371
     41366     41365     41367     41366     41365     41368     41367     41365     41368
     41368     41371     41372     41368     41371     41373     41368     41371     41374
     41369     41368     41370     41369     41368     41371     41370     41368     41371
     41371     41374     41375     41371     41374     41376     41371     41374     41377
     41372     41371     41373     41372     41371     41374     41373     41371     41374
     41375     41374     41376     41375     41374     41377     41376     41374     41377
     41378     41381     41382     41378     41381     41383     41378     41381     41384
     41379     41378     41380     41379     41378     41381     41380     41378     41381
     41381     41384     41385     41381     41384     41386     41381     41384     41387
     41382     41381     41383     41382     41381     41384     41383     41381     41384
     41384     41387     41388     41384     41387     41389     41384     41387     41390
     41385     41384     41386     41385     41384     41387     41386     41384     41387
     41387     41390     41391     41387     41390     41392     41387     41390     41393
     41388     41387     41389     41388     41387     41390     41389     41387     41390
     41390     41393     41394     41390     41393     41395     41390     41393     41396
     41391     41390     41392     41391     41390     41393     41392     41390     41393
     41393     41396     41397     41393     41396     41398     41393     41396     41399
     41394     41393     41395     41394     41393     41396     41395     41393     41396
     41396     41399     41400     41396     41399     41401     41396     41399     41402
     41397     41396     41398     41397     41396     41399     41398     41396     41399
     41399     41402     41403     41399     41402     41404     41399     41402     41405
     41400     41399     41401     41400     41399     41402     41401     41399     41402
     41402     41405     41406     41402     41405     41407     41402     41405     41408
     41403     41402     41404     41403     41402     41405     41404     41402     41405
     41405     41408     41409     41405     41408     41410     41405     41408     41411
     41406     41405     41407     41406     41405     41408     41407     41405     41408
     41408     41411     41412     41408     41411     41413     41408     41411     41414
     41409     41408     41410     41409     41408     41411     41410     41408     41411
     41411     41414     41415     41411     41414     41416     41411     41414     41417
     41412     41411     41413     41412     41411     41414     41413     41411     41414
     41414     41417     41418     41414     41417     41419     41414     41417     41420
     41415     41414     41416     41415     41414     41417     41416     41414     41417
     41418     41417     41419     41418     41417     41420     41419     41417     41420
     41421     41424     41425     41421     41424     41426     41421     41424     41427
     41422     41421     41423     41422     41421     41424     41423     41421     41424
     41424     41427     41428     41424     41427     41429     41424     41427     41430
     41425     41424     41426     41425     41424     41427     41426     41424     41427
     41427     41430     41431     41427     41430     41432     41427     41430     41433
     41428     41427     41429     41428     41427     41430     41429     41427     41430
     41430     41433     41434     41430     41433     41435     41430     41433     41436
     41431     41430     41432     41431     41430     41433     41432     41430     41433
     41433     41436     41437     41433     41436     41438     41433     41436     41439
     41434     41433     41435     41434     41433     41436     41435     41433     41436
     41436     41439     41440     41436     41439     41441     41436     41439     41442
     41437     41436     41438     41437     41436     41439     41438     41436     41439
     41439     41442     41443     41439     41442     41444     41439     41442     41445
     41440     41439     41441     41440     41439     41442     41441     41439     41442
     41442     41445     41446     41442     41445     41447     41443     41442     41444
     41443     41442     41445     41444     41442     41445     41445     41447     41448
     41445     41447     41449     41446     41445     41447     41447     41449     41450
     41447     41449     41451     41447     41449     41452     41448     41447     41449
     41449     41452     41453     41449     41452     41454     41449     41452     41455
     41450     41449     41451     41450     41449     41452     41451     41449     41452
     41452     41455     41456     41452     41455     41457     41452     41455     41458
     41453     41452     41454     41453     41452     41455     41454     41452     41455
     41455     41458     41459     41455     41458     41460     41455     41458     41461
     41456     41455     41457     41456     41455     41458     41457     41455     41458
     41458     41461     41462     41458     41461     41463     41458     41461     41464
     41459     41458     41460     41459     41458     41461     41460     41458     41461
     41461     41464     41465     41461     41464     41466     41461     41464     41467
     41462     41461     41463     41462     41461     41464     41463     41461     41464
     41465     41464     41466     41465     41464     41467     41466     41464     41467
     41468     41471     41472     41468     41471     41473     41468     41471     41474
     41469     41468     41470     41469     41468     41471     41470     41468     41471
     41471     41474     41475     41471     41474     41476     41471     41474     41477
     41472     41471     41473     41472     41471     41474     41473     41471     41474
     41474     41477     41478     41474     41477     41479     41474     41477     41480
     41475     41474     41476     41475     41474     41477     41476     41474     41477
     41477     41480     41481     41477     41480     41482     41477     41480     41483
     41478     41477     41479     41478     41477     41480     41479     41477     41480
     41480     41483     41484     41480     41483     41485     41480     41483     41486
     41481     41480     41482     41481     41480     41483     41482     41480     41483
     41483     41486     41487     41483     41486     41488     41483     41486     41489
     41484     41483     41485     41484     41483     41486     41485     41483     41486
     41486     41489     41490     41486     41489     41491     41486     41489     41492
     41487     41486     41488     41487     41486     41489     41488     41486     41489
     41489     41492     41493     41489     41492     41494     41489     41492     41495
     41490     41489     41491     41490     41489     41492     41491     41489     41492
     41492     41495     41496     41492     41495     41497     41492     41495     41498
     41493     41492     41494     41493     41492     41495     41494     41492     41495
     41495     41498     41499     41495     41498     41500     41495     41498     41501
     41496     41495     41497     41496     41495     41498     41497     41495     41498
     41498     41501     41502     41498     41501     41503     41498     41501     41504
     41499     41498     41500     41499     41498     41501     41500     41498     41501
     41501     41504     41505     41501     41504     41506     41501     41504     41507
     41502     41501     41503     41502     41501     41504     41503     41501     41504
     41504     41507     41508     41504     41507     41509     41504     41507     41510
     41505     41504     41506     41505     41504     41507     41506     41504     41507
     41508     41507     41509     41508     41507     41510     41509     41507     41510
     41511     41515     41516     41511     41515     41517     41511     41515     41518
     41512     41511     41513     41512     41511     41514     41512     41511     41515
     41513     41511     41514     41513     41511     41515     41514     41511     41515
     41515     41518     41519     41515     41518     41520     41515     41518     41525
     41516     41515     41517     41516     41515     41518     41517     41515     41518
     41518     41525     41521     41519     41518     41520     41519     41518     41525
     41520     41518     41525     41521     41524     41526     41522     41521     41523
     41522     41521     41524     41522     41521     41525     41523     41521     41524
     41523     41521     41525     41524     41521     41525     41524     41526     41527
     41524     41526     41528     41524     41526     41529     41526     41529     41530
     41526     41529     41531     41526     41529     41537     41527     41526     41528
     41527     41526     41529     41528     41526     41529     41529     41531     41532
     41529     41537     41538     41529     41537     41539     41529     41537     41540
     41530     41529     41531     41530     41529     41537     41531     41529     41537
     41531     41532     41533     41531     41532     41534     41532     41534     41535
     41532     41534     41536     41532     41534     41546     41533     41532     41534
     41534     41546     41547     41534     41546     41548     41534     41546     41549
     41535     41534     41536     41535     41534     41546     41536     41534     41546
     41537     41540     41541     41538     41537     41539     41538     41537     41540
     41539     41537     41540     41540     41541     41542     41540     41541     41543
     41541     41543     41544     41541     41543     41545     41541     41543     41587
     41542     41541     41543     41543     41587     41588     41543     41587     41589
     41543     41587     41590     41544     41543     41545     41544     41543     41587
     41545     41543     41587     41546     41549     41550     41546     41549     41551
     41546     41549     41552     41547     41546     41548     41547     41546     41549
     41548     41546     41549     41549     41552     41553     41549     41552     41554
     41549     41552     41555     41550     41549     41551     41550     41549     41552
     41551     41549     41552     41552     41555     41556     41552     41555     41557
     41552     41555     41558     41553     41552     41554     41553     41552     41555
     41554     41552     41555     41555     41558     41559     41555     41558     41560
     41555     41558     41561     41556     41555     41557     41556     41555     41558
     41557     41555     41558     41558     41561     41562     41558     41561     41563
     41558     41561     41564     41559     41558     41560     41559     41558     41561
     41560     41558     41561     41561     41564     41565     41561     41564     41566
     41562     41561     41563     41562     41561     41564     41563     41561     41564
     41564     41566     41567     41564     41566     41568     41565     41564     41566
     41566     41568     41569     41566     41568     41570     41566     41568     41571
     41567     41566     41568     41568     41571     41572     41568     41571     41573
     41568     41571     41574     41569     41568     41570     41569     41568     41571
     41570     41568     41571     41571     41574     41575     41571     41574     41576
     41571     41574     41577     41572     41571     41573     41572     41571     41574
     41573     41571     41574     41574     41577     41578     41574     41577     41579
     41574     41577     41580     41575     41574     41576     41575     41574     41577
     41576     41574     41577     41577     41580     41581     41577     41580     41582
     41577     41580     41583     41578     41577     41579     41578     41577     41580
     41579     41577     41580     41580     41583     41584     41580     41583     41585
     41580     41583     41586     41581     41580     41582     41581     41580     41583
     41582     41580     41583     41584     41583     41585     41584     41583     41586
     41585     41583     41586     41587     41590     41591     41587     41590     41592
     41587     41590     41593     41588     41587     41589     41588     41587     41590
     41589     41587     41590     41590     41593     41594     41590     41593     41595
     41590     41593     41596     41591     41590     41592     41591     41590     41593
     41592     41590     41593     41593     41596     41597     41593     41596     41598
     41593     41596     41599     41594     41593     41595     41594     41593     41596
     41595     41593     41596     41596     41599     41600     41596     41599     41601
     41596     41599     41602     41597     41596     41598     41597     41596     41599
     41598     41596     41599     41599     41602     41603     41599     41602     41604
     41599     41602     41605     41600     41599     41601     41600     41599     41602
     41601     41599     41602     41602     41605     41606     41602     41605     41607
     41602     41605     41608     41603     41602     41604     41603     41602     41605
     41604     41602     41605     41605     41608     41609     41605     41608     41610
     41605     41608     41611     41606     41605     41607     41606     41605     41608
     41607     41605     41608     41608     41611     41612     41608     41611     41613
     41608     41611     41614     41609     41608     41610     41609     41608     41611
     41610     41608     41611     41611     41614     41615     41611     41614     41616
     41611     41614     41617     41612     41611     41613     41612     41611     41614
     41613     41611     41614     41614     41617     41618     41614     41617     41619
     41614     41617     41620     41615     41614     41616     41615     41614     41617
     41616     41614     41617     41617     41620     41621     41617     41620     41622
     41617     41620     41623     41618     41617     41619     41618     41617     41620
     41619     41617     41620     41620     41623     41624     41620     41623     41625
     41620     41623     41626     41621     41620     41622     41621     41620     41623
     41622     41620     41623     41623     41626     41627     41623     41626     41628
     41623     41626     41629     41624     41623     41625     41624     41623     41626
     41625     41623     41626     41627     41626     41628     41627     41626     41629
     41628     41626     41629     41630     41633     41634     41630     41635     41636
     41630     41635     41637     41630     41635     41639     41631     41630     41632
     41631     41630     41633     41631     41630     41635     41632     41630     41633
     41632     41630     41635     41633     41630     41635     41635     41637     41638
     41635     41639     41640     41635     41639     41641     41635     41639     41645
     41636     41635     41637     41636     41635     41639     41637     41635     41639
     41639     41645     41642     41640     41639     41641     41640     41639     41645
     41641     41639     41645     41642     41646     41647     41643     41642     41644
     41643     41642     41645     41643     41642     41646     41644     41642     41645
     41644     41642     41646     41645     41642     41646     41646     41647     41648
     41646     41647     41649     41646     41647     41650     41647     41650     41651
     41647     41650     41652     41647     41650     41658     41648     41647     41649
     41648     41647     41650     41649     41647     41650     41650     41652     41653
     41650     41658     41659     41650     41658     41660     41650     41658     41661
     41651     41650     41652     41651     41650     41658     41652     41650     41658
     41652     41653     41654     41652     41653     41655     41653     41655     41656
     41653     41655     41657     41653     41655     41667     41654     41653     41655
     41655     41667     41668     41655     41667     41669     41655     41667     41670
     41656     41655     41657     41656     41655     41667     41657     41655     41667
     41658     41661     41662     41659     41658     41660     41659     41658     41661
     41660     41658     41661     41661     41662     41663     41661     41662     41664
     41662     41664     41665     41662     41664     41666     41662     41664     41714
     41663     41662     41664     41664     41714     41715     41664     41714     41716
     41664     41714     41717     41665     41664     41666     41665     41664     41714
     41666     41664     41714     41667     41670     41671     41667     41670     41672
     41667     41670     41673     41668     41667     41669     41668     41667     41670
     41669     41667     41670     41670     41673     41674     41670     41673     41675
     41670     41673     41676     41671     41670     41672     41671     41670     41673
     41672     41670     41673     41673     41676     41677     41673     41676     41678
     41673     41676     41679     41674     41673     41675     41674     41673     41676
     41675     41673     41676     41676     41679     41680     41676     41679     41681
     41676     41679     41682     41677     41676     41678     41677     41676     41679
     41678     41676     41679     41679     41682     41683     41679     41682     41684
     41679     41682     41685     41680     41679     41681     41680     41679     41682
     41681     41679     41682     41682     41685     41686     41682     41685     41687
     41682     41685     41688     41683     41682     41684     41683     41682     41685
     41684     41682     41685     41685     41688     41689     41685     41688     41690
     41685     41688     41691     41686     41685     41687     41686     41685     41688
     41687     41685     41688     41688     41691     41692     41688     41691     41693
     41689     41688     41690     41689     41688     41691     41690     41688     41691
     41691     41693     41694     41691     41693     41695     41692     41691     41693
     41693     41695     41696     41693     41695     41697     41693     41695     41698
     41694     41693     41695     41695     41698     41699     41695     41698     41700
     41695     41698     41701     41696     41695     41697     41696     41695     41698
     41697     41695     41698     41698     41701     41702     41698     41701     41703
     41698     41701     41704     41699     41698     41700     41699     41698     41701
     41700     41698     41701     41701     41704     41705     41701     41704     41706
     41701     41704     41707     41702     41701     41703     41702     41701     41704
     41703     41701     41704     41704     41707     41708     41704     41707     41709
     41704     41707     41710     41705     41704     41706     41705     41704     41707
     41706     41704     41707     41707     41710     41711     41707     41710     41712
     41707     41710     41713     41708     41707     41709     41708     41707     41710
     41709     41707     41710     41711     41710     41712     41711     41710     41713
     41712     41710     41713     41714     41717     41718     41714     41717     41719
     41714     41717     41720     41715     41714     41716     41715     41714     41717
     41716     41714     41717     41717     41720     41721     41717     41720     41722
     41717     41720     41723     41718     41717     41719     41718     41717     41720
     41719     41717     41720     41720     41723     41724     41720     41723     41725
     41720     41723     41726     41721     41720     41722     41721     41720     41723
     41722     41720     41723     41723     41726     41727     41723     41726     41728
     41723     41726     41729     41724     41723     41725     41724     41723     41726
     41725     41723     41726     41726     41729     41730     41726     41729     41731
     41726     41729     41732     41727     41726     41728     41727     41726     41729
     41728     41726     41729     41729     41732     41733     41729     41732     41734
     41729     41732     41735     41730     41729     41731     41730     41729     41732
     41731     41729     41732     41732     41735     41736     41732     41735     41737
     41732     41735     41738     41733     41732     41734     41733     41732     41735
     41734     41732     41735     41735     41738     41739     41735     41738     41740
     41735     41738     41741     41736     41735     41737     41736     41735     41738
     41737     41735     41738     41738     41741     41742     41738     41741     41743
     41738     41741     41744     41739     41738     41740     41739     41738     41741
     41740     41738     41741     41741     41744     41745     41741     41744     41746
     41741     41744     41747     41742     41741     41743     41742     41741     41744
     41743     41741     41744     41744     41747     41748     41744     41747     41749
     41744     41747     41750     41745     41744     41746     41745     41744     41747
     41746     41744     41747     41747     41750     41751     41747     41750     41752
     41747     41750     41753     41748     41747     41749     41748     41747     41750
     41749     41747     41750     41750     41753     41754     41750     41753     41755
     41750     41753     41756     41751     41750     41752     41751     41750     41753
     41752     41750     41753     41754     41753     41755     41754     41753     41756
     41755     41753     41756     41757     41761     41762     41757     41761     41763
     41757     41761     41764     41758     41757     41759     41758     41757     41760
     41758     41757     41761     41759     41757     41760     41759     41757     41761
     41760     41757     41761     41761     41764     41765     41761     41764     41766
     41761     41764     41771     41762     41761     41763     41762     41761     41764
     41763     41761     41764     41764     41771     41767     41765     41764     41766
     41765     41764     41771     41766     41764     41771     41767     41770     41772
     41768     41767     41769     41768     41767     41770     41768     41767     41771
     41769     41767     41770     41769     41767     41771     41770     41767     41771
     41770     41772     41773     41770     41772     41774     41770     41772     41775
     41772     41775     41776     41772     41775     41777     41772     41775     41783
     41773     41772     41774     41773     41772     41775     41774     41772     41775
     41775     41777     41778     41775     41783     41784     41775     41783     41785
     41775     41783     41786     41776     41775     41777     41776     41775     41783
     41777     41775     41783     41777     41778     41779     41777     41778     41780
     41778     41780     41781     41778     41780     41782     41778     41780     41792
     41779     41778     41780     41780     41792     41793     41780     41792     41794
     41780     41792     41795     41781     41780     41782     41781     41780     41792
     41782     41780     41792     41783     41786     41787     41784     41783     41785
     41784     41783     41786     41785     41783     41786     41786     41787     41788
     41786     41787     41789     41787     41789     41790     41787     41789     41791
     41787     41789     41833     41788     41787     41789     41789     41833     41834
     41789     41833     41835     41789     41833     41836     41790     41789     41791
     41790     41789     41833     41791     41789     41833     41792     41795     41796
     41792     41795     41797     41792     41795     41798     41793     41792     41794
     41793     41792     41795     41794     41792     41795     41795     41798     41799
     41795     41798     41800     41795     41798     41801     41796     41795     41797
     41796     41795     41798     41797     41795     41798     41798     41801     41802
     41798     41801     41803     41798     41801     41804     41799     41798     41800
     41799     41798     41801     41800     41798     41801     41801     41804     41805
     41801     41804     41806     41801     41804     41807     41802     41801     41803
     41802     41801     41804     41803     41801     41804     41804     41807     41808
     41804     41807     41809     41804     41807     41810     41805     41804     41806
     41805     41804     41807     41806     41804     41807     41807     41810     41811
     41807     41810     41812     41808     41807     41809     41808     41807     41810
     41809     41807     41810     41810     41812     41813     41810     41812     41814
     41811     41810     41812     41812     41814     41815     41812     41814     41816
     41812     41814     41817     41813     41812     41814     41814     41817     41818
     41814     41817     41819     41814     41817     41820     41815     41814     41816
     41815     41814     41817     41816     41814     41817     41817     41820     41821
     41817     41820     41822     41817     41820     41823     41818     41817     41819
     41818     41817     41820     41819     41817     41820     41820     41823     41824
     41820     41823     41825     41820     41823     41826     41821     41820     41822
     41821     41820     41823     41822     41820     41823     41823     41826     41827
     41823     41826     41828     41823     41826     41829     41824     41823     41825
     41824     41823     41826     41825     41823     41826     41826     41829     41830
     41826     41829     41831     41826     41829     41832     41827     41826     41828
     41827     41826     41829     41828     41826     41829     41830     41829     41831
     41830     41829     41832     41831     41829     41832     41833     41836     41837
     41833     41836     41838     41833     41836     41839     41834     41833     41835
     41834     41833     41836     41835     41833     41836     41836     41839     41840
     41836     41839     41841     41836     41839     41842     41837     41836     41838
     41837     41836     41839     41838     41836     41839     41839     41842     41843
     41839     41842     41844     41839     41842     41845     41840     41839     41841
     41840     41839     41842     41841     41839     41842     41842     41845     41846
     41842     41845     41847     41842     41845     41848     41843     41842     41844
     41843     41842     41845     41844     41842     41845     41845     41848     41849
     41845     41848     41850     41845     41848     41851     41846     41845     41847
     41846     41845     41848     41847     41845     41848     41848     41851     41852
     41848     41851     41853     41848     41851     41854     41849     41848     41850
     41849     41848     41851     41850     41848     41851     41851     41854     41855
     41851     41854     41856     41851     41854     41857     41852     41851     41853
     41852     41851     41854     41853     41851     41854     41854     41857     41858
     41854     41857     41859     41854     41857     41860     41855     41854     41856
     41855     41854     41857     41856     41854     41857     41857     41860     41861
     41857     41860     41862     41857     41860     41863     41858     41857     41859
     41858     41857     41860     41859     41857     41860     41860     41863     41864
     41860     41863     41865     41860     41863     41866     41861     41860     41862
     41861     41860     41863     41862     41860     41863     41863     41866     41867
     41863     41866     41868     41863     41866     41869     41864     41863     41865
     41864     41863     41866     41865     41863     41866     41866     41869     41870
     41866     41869     41871     41866     41869     41872     41867     41866     41868
     41867     41866     41869     41868     41866     41869     41869     41872     41873
     41869     41872     41874     41869     41872     41875     41870     41869     41871
     41870     41869     41872     41871     41869     41872     41873     41872     41874
     41873     41872     41875     41874     41872     41875     41876     41880     41881
     41876     41880     41882     41876     41880     41883     41877     41876     41878
     41877     41876     41879     41877     41876     41880     41878     41876     41879
     41878     41876     41880     41879     41876     41880     41880     41883     41884
     41880     41883     41885     41880     41883     41890     41881     41880     41882
     41881     41880     41883     41882     41880     41883     41883     41890     41886
     41884     41883     41885     41884     41883     41890     41885     41883     41890
     41886     41889     41891     41887     41886     41888     41887     41886     41889
     41887     41886     41890     41888     41886     41889     41888     41886     41890
     41889     41886     41890     41889     41891     41892     41889     41891     41893
     41889     41891     41894     41891     41894     41895     41891     41894     41896
     41891     41894     41902     41892     41891     41893     41892     41891     41894
     41893     41891     41894     41894     41896     41897     41894     41902     41903
     41894     41902     41904     41894     41902     41905     41895     41894     41896
     41895     41894     41902     41896     41894     41902     41896     41897     41898
     41896     41897     41899     41897     41899     41900     41897     41899     41901
     41897     41899     41911     41898     41897     41899     41899     41911     41912
     41899     41911     41913     41899     41911     41914     41900     41899     41901
     41900     41899     41911     41901     41899     41911     41902     41905     41906
     41903     41902     41904     41903     41902     41905     41904     41902     41905
     41905     41906     41907     41905     41906     41908     41906     41908     41909
     41906     41908     41910     41906     41908     41952     41907     41906     41908
     41908     41952     41953     41908     41952     41954     41908     41952     41955
     41909     41908     41910     41909     41908     41952     41910     41908     41952
     41911     41914     41915     41911     41914     41916     41911     41914     41917
     41912     41911     41913     41912     41911     41914     41913     41911     41914
     41914     41917     41918     41914     41917     41919     41914     41917     41920
     41915     41914     41916     41915     41914     41917     41916     41914     41917
     41917     41920     41921     41917     41920     41922     41917     41920     41923
     41918     41917     41919     41918     41917     41920     41919     41917     41920
     41920     41923     41924     41920     41923     41925     41920     41923     41926
     41921     41920     41922     41921     41920     41923     41922     41920     41923
     41923     41926     41927     41923     41926     41928     41923     41926     41929
     41924     41923     41925     41924     41923     41926     41925     41923     41926
     41926     41929     41930     41926     41929     41931     41927     41926     41928
     41927     41926     41929     41928     41926     41929     41929     41931     41932
     41929     41931     41933     41930     41929     41931     41931     41933     41934
     41931     41933     41935     41931     41933     41936     41932     41931     41933
     41933     41936     41937     41933     41936     41938     41933     41936     41939
     41934     41933     41935     41934     41933     41936     41935     41933     41936
     41936     41939     41940     41936     41939     41941     41936     41939     41942
     41937     41936     41938     41937     41936     41939     41938     41936     41939
     41939     41942     41943     41939     41942     41944     41939     41942     41945
     41940     41939     41941     41940     41939     41942     41941     41939     41942
     41942     41945     41946     41942     41945     41947     41942     41945     41948
     41943     41942     41944     41943     41942     41945     41944     41942     41945
     41945     41948     41949     41945     41948     41950     41945     41948     41951
     41946     41945     41947     41946     41945     41948     41947     41945     41948
     41949     41948     41950     41949     41948     41951     41950     41948     41951
     41952     41955     41956     41952     41955     41957     41952     41955     41958
     41953     41952     41954     41953     41952     41955     41954     41952     41955
     41955     41958     41959     41955     41958     41960     41955     41958     41961
     41956     41955     41957     41956     41955     41958     41957     41955     41958
     41958     41961     41962     41958     41961     41963     41958     41961     41964
     41959     41958     41960     41959     41958     41961     41960     41958     41961
     41961     41964     41965     41961     41964     41966     41961     41964     41967
     41962     41961     41963     41962     41961     41964     41963     41961     41964
     41964     41967     41968     41964     41967     41969     41964     41967     41970
     41965     41964     41966     41965     41964     41967     41966     41964     41967
     41967     41970     41971     41967     41970     41972     41967     41970     41973
     41968     41967     41969     41968     41967     41970     41969     41967     41970
     41970     41973     41974     41970     41973     41975     41970     41973     41976
     41971     41970     41972     41971     41970     41973     41972     41970     41973
     41973     41976     41977     41973     41976     41978     41973     41976     41979
     41974     41973     41975     41974     41973     41976     41975     41973     41976
     41976     41979     41980     41976     41979     41981     41976     41979     41982
     41977     41976     41978     41977     41976     41979     41978     41976     41979
     41979     41982     41983     41979     41982     41984     41979     41982     41985
     41980     41979     41981     41980     41979     41982     41981     41979     41982
     41982     41985     41986     41982     41985     41987     41982     41985     41988
     41983     41982     41984     41983     41982     41985     41984     41982     41985
     41985     41988     41989     41985     41988     41990     41985     41988     41991
     41986     41985     41987     41986     41985     41988     41987     41985     41988
     41988     41991     41992     41988     41991     41993     41988     41991     41994
     41989     41988     41990     41989     41988     41991     41990     41988     41991
     41992     41991     41993     41992     41991     41994     41993     41991     41994
     41995     41999     42000     41995     41999     42001     41995     41999     42002
     41996     41995     41997     41996     41995     41998     41996     41995     41999
     41997     41995     41998     41997     41995     41999     41998     41995     41999
     41999     42002     42003     41999     42002     42004     41999     42002     42009
     42000     41999     42001     42000     41999     42002     42001     41999     42002
     42002     42009     42005     42003     42002     42004     42003     42002     42009
     42004     42002     42009     42005     42008     42010     42006     42005     42007
     42006     42005     42008     42006     42005     42009     42007     42005     42008
     42007     42005     42009     42008     42005     42009     42008     42010     42011
     42008     42010     42012     42008     42010     42013     42010     42013     42014
     42010     42013     42015     42010     42013     42021     42011     42010     42012
     42011     42010     42013     42012     42010     42013     42013     42015     42016
     42013     42021     42022     42013     42021     42023     42013     42021     42024
     42014     42013     42015     42014     42013     42021     42015     42013     42021
     42015     42016     42017     42015     42016     42018     42016     42018     42019
     42016     42018     42020     42016     42018     42030     42017     42016     42018
     42018     42030     42031     42018     42030     42032     42018     42030     42033
     42019     42018     42020     42019     42018     42030     42020     42018     42030
     42021     42024     42025     42022     42021     42023     42022     42021     42024
     42023     42021     42024     42024     42025     42026     42024     42025     42027
     42025     42027     42028     42025     42027     42029     42025     42027     42071
     42026     42025     42027     42027     42071     42072     42027     42071     42073
     42027     42071     42074     42028     42027     42029     42028     42027     42071
     42029     42027     42071     42030     42033     42034     42030     42033     42035
     42030     42033     42036     42031     42030     42032     42031     42030     42033
     42032     42030     42033     42033     42036     42037     42033     42036     42038
     42033     42036     42039     42034     42033     42035     42034     42033     42036
     42035     42033     42036     42036     42039     42040     42036     42039     42041
     42036     42039     42042     42037     42036     42038     42037     42036     42039
     42038     42036     42039     42039     42042     42043     42039     42042     42044
     42039     42042     42045     42040     42039     42041     42040     42039     42042
     42041     42039     42042     42042     42045     42046     42042     42045     42047
     42042     42045     42048     42043     42042     42044     42043     42042     42045
     42044     42042     42045     42045     42048     42049     42045     42048     42050
     42046     42045     42047     42046     42045     42048     42047     42045     42048
     42048     42050     42051     42048     42050     42052     42049     42048     42050
     42050     42052     42053     42050     42052     42054     42050     42052     42055
     42051     42050     42052     42052     42055     42056     42052     42055     42057
     42052     42055     42058     42053     42052     42054     42053     42052     42055
     42054     42052     42055     42055     42058     42059     42055     42058     42060
     42055     42058     42061     42056     42055     42057     42056     42055     42058
     42057     42055     42058     42058     42061     42062     42058     42061     42063
     42058     42061     42064     42059     42058     42060     42059     42058     42061
     42060     42058     42061     42061     42064     42065     42061     42064     42066
     42061     42064     42067     42062     42061     42063     42062     42061     42064
     42063     42061     42064     42064     42067     42068     42064     42067     42069
     42064     42067     42070     42065     42064     42066     42065     42064     42067
     42066     42064     42067     42068     42067     42069     42068     42067     42070
     42069     42067     42070     42071     42074     42075     42071     42074     42076
     42071     42074     42077     42072     42071     42073     42072     42071     42074
     42073     42071     42074     42074     42077     42078     42074     42077     42079
     42074     42077     42080     42075     42074     42076     42075     42074     42077
     42076     42074     42077     42077     42080     42081     42077     42080     42082
     42077     42080     42083     42078     42077     42079     42078     42077     42080
     42079     42077     42080     42080     42083     42084     42080     42083     42085
     42080     42083     42086     42081     42080     42082     42081     42080     42083
     42082     42080     42083     42083     42086     42087     42083     42086     42088
     42083     42086     42089     42084     42083     42085     42084     42083     42086
     42085     42083     42086     42086     42089     42090     42086     42089     42091
     42086     42089     42092     42087     42086     42088     42087     42086     42089
     42088     42086     42089     42089     42092     42093     42089     42092     42094
     42089     42092     42095     42090     42089     42091     42090     42089     42092
     42091     42089     42092     42092     42095     42096     42092     42095     42097
     42092     42095     42098     42093     42092     42094     42093     42092     42095
     42094     42092     42095     42095     42098     42099     42095     42098     42100
     42095     42098     42101     42096     42095     42097     42096     42095     42098
     42097     42095     42098     42098     42101     42102     42098     42101     42103
     42098     42101     42104     42099     42098     42100     42099     42098     42101
     42100     42098     42101     42101     42104     42105     42101     42104     42106
     42101     42104     42107     42102     42101     42103     42102     42101     42104
     42103     42101     42104     42104     42107     42108     42104     42107     42109
     42104     42107     42110     42105     42104     42106     42105     42104     42107
     42106     42104     42107     42107     42110     42111     42107     42110     42112
     42107     42110     42113     42108     42107     42109     42108     42107     42110
     42109     42107     42110     42111     42110     42112     42111     42110     42113
     42112     42110     42113     42114     42118     42119     42114     42118     42120
     42114     42118     42121     42115     42114     42116     42115     42114     42117
     42115     42114     42118     42116     42114     42117     42116     42114     42118
     42117     42114     42118     42118     42121     42122     42118     42121     42123
     42118     42121     42128     42119     42118     42120     42119     42118     42121
     42120     42118     42121     42121     42128     42124     42122     42121     42123
     42122     42121     42128     42123     42121     42128     42124     42127     42129
     42125     42124     42126     42125     42124     42127     42125     42124     42128
     42126     42124     42127     42126     42124     42128     42127     42124     42128
     42127     42129     42130     42127     42129     42131     42127     42129     42132
     42129     42132     42133     42129     42132     42134     42129     42132     42140
     42130     42129     42131     42130     42129     42132     42131     42129     42132
     42132     42134     42135     42132     42140     42141     42132     42140     42142
     42132     42140     42143     42133     42132     42134     42133     42132     42140
     42134     42132     42140     42134     42135     42136     42134     42135     42137
     42135     42137     42138     42135     42137     42139     42135     42137     42149
     42136     42135     42137     42137     42149     42150     42137     42149     42151
     42137     42149     42152     42138     42137     42139     42138     42137     42149
     42139     42137     42149     42140     42143     42144     42141     42140     42142
     42141     42140     42143     42142     42140     42143     42143     42144     42145
     42143     42144     42146     42144     42146     42147     42144     42146     42148
     42144     42146     42190     42145     42144     42146     42146     42190     42191
     42146     42190     42192     42146     42190     42193     42147     42146     42148
     42147     42146     42190     42148     42146     42190     42149     42152     42153
     42149     42152     42154     42149     42152     42155     42150     42149     42151
     42150     42149     42152     42151     42149     42152     42152     42155     42156
     42152     42155     42157     42152     42155     42158     42153     42152     42154
     42153     42152     42155     42154     42152     42155     42155     42158     42159
     42155     42158     42160     42155     42158     42161     42156     42155     42157
     42156     42155     42158     42157     42155     42158     42158     42161     42162
     42158     42161     42163     42158     42161     42164     42159     42158     42160
     42159     42158     42161     42160     42158     42161     42161     42164     42165
     42161     42164     42166     42161     42164     42167     42162     42161     42163
     42162     42161     42164     42163     42161     42164     42164     42167     42168
     42164     42167     42169     42165     42164     42166     42165     42164     42167
     42166     42164     42167     42167     42169     42170     42167     42169     42171
     42168     42167     42169     42169     42171     42172     42169     42171     42173
     42169     42171     42174     42170     42169     42171     42171     42174     42175
     42171     42174     42176     42171     42174     42177     42172     42171     42173
     42172     42171     42174     42173     42171     42174     42174     42177     42178
     42174     42177     42179     42174     42177     42180     42175     42174     42176
     42175     42174     42177     42176     42174     42177     42177     42180     42181
     42177     42180     42182     42177     42180     42183     42178     42177     42179
     42178     42177     42180     42179     42177     42180     42180     42183     42184
     42180     42183     42185     42180     42183     42186     42181     42180     42182
     42181     42180     42183     42182     42180     42183     42183     42186     42187
     42183     42186     42188     42183     42186     42189     42184     42183     42185
     42184     42183     42186     42185     42183     42186     42187     42186     42188
     42187     42186     42189     42188     42186     42189     42190     42193     42194
     42190     42193     42195     42190     42193     42196     42191     42190     42192
     42191     42190     42193     42192     42190     42193     42193     42196     42197
     42193     42196     42198     42193     42196     42199     42194     42193     42195
     42194     42193     42196     42195     42193     42196     42196     42199     42200
     42196     42199     42201     42196     42199     42202     42197     42196     42198
     42197     42196     42199     42198     42196     42199     42199     42202     42203
     42199     42202     42204     42199     42202     42205     42200     42199     42201
     42200     42199     42202     42201     42199     42202     42202     42205     42206
     42202     42205     42207     42202     42205     42208     42203     42202     42204
     42203     42202     42205     42204     42202     42205     42205     42208     42209
     42205     42208     42210     42205     42208     42211     42206     42205     42207
     42206     42205     42208     42207     42205     42208     42208     42211     42212
     42208     42211     42213     42208     42211     42214     42209     42208     42210
     42209     42208     42211     42210     42208     42211     42211     42214     42215
     42211     42214     42216     42211     42214     42217     42212     42211     42213
     42212     42211     42214     42213     42211     42214     42214     42217     42218
     42214     42217     42219     42214     42217     42220     42215     42214     42216
     42215     42214     42217     42216     42214     42217     42217     42220     42221
     42217     42220     42222     42217     42220     42223     42218     42217     42219
     42218     42217     42220     42219     42217     42220     42220     42223     42224
     42220     42223     42225     42220     42223     42226     42221     42220     42222
     42221     42220     42223     42222     42220     42223     42223     42226     42227
     42223     42226     42228     42223     42226     42229     42224     42223     42225
     42224     42223     42226     42225     42223     42226     42226     42229     42230
     42226     42229     42231     42226     42229     42232     42227     42226     42228
     42227     42226     42229     42228     42226     42229     42230     42229     42231
     42230     42229     42232     42231     42229     42232     42233     42237     42238
     42233     42237     42239     42233     42237     42240     42234     42233     42235
     42234     42233     42236     42234     42233     42237     42235     42233     42236
     42235     42233     42237     42236     42233     42237     42237     42240     42241
     42237     42240     42242     42237     42240     42247     42238     42237     42239
     42238     42237     42240     42239     42237     42240     42240     42247     42243
     42241     42240     42242     42241     42240     42247     42242     42240     42247
     42243     42246     42248     42244     42243     42245     42244     42243     42246
     42244     42243     42247     42245     42243     42246     42245     42243     42247
     42246     42243     42247     42246     42248     42249     42246     42248     42250
     42246     42248     42251     42248     42251     42252     42248     42251     42253
     42248     42251     42259     42249     42248     42250     42249     42248     42251
     42250     42248     42251     42251     42253     42254     42251     42259     42260
     42251     42259     42261     42251     42259     42262     42252     42251     42253
     42252     42251     42259     42253     42251     42259     42253     42254     42255
     42253     42254     42256     42254     42256     42257     42254     42256     42258
     42254     42256     42268     42255     42254     42256     42256     42268     42269
     42256     42268     42270     42256     42268     42271     42257     42256     42258
     42257     42256     42268     42258     42256     42268     42259     42262     42263
     42260     42259     42261     42260     42259     42262     42261     42259     42262
     42262     42263     42264     42262     42263     42265     42263     42265     42266
     42263     42265     42267     42263     42265     42309     42264     42263     42265
     42265     42309     42310     42265     42309     42311     42265     42309     42312
     42266     42265     42267     42266     42265     42309     42267     42265     42309
     42268     42271     42272     42268     42271     42273     42268     42271     42274
     42269     42268     42270     42269     42268     42271     42270     42268     42271
     42271     42274     42275     42271     42274     42276     42271     42274     42277
     42272     42271     42273     42272     42271     42274     42273     42271     42274
     42274     42277     42278     42274     42277     42279     42274     42277     42280
     42275     42274     42276     42275     42274     42277     42276     42274     42277
     42277     42280     42281     42277     42280     42282     42277     42280     42283
     42278     42277     42279     42278     42277     42280     42279     42277     42280
     42280     42283     42284     42280     42283     42285     42280     42283     42286
     42281     42280     42282     42281     42280     42283     42282     42280     42283
     42283     42286     42287     42283     42286     42288     42284     42283     42285
     42284     42283     42286     42285     42283     42286     42286     42288     42289
     42286     42288     42290     42287     42286     42288     42288     42290     42291
     42288     42290     42292     42288     42290     42293     42289     42288     42290
     42290     42293     42294     42290     42293     42295     42290     42293     42296
     42291     42290     42292     42291     42290     42293     42292     42290     42293
     42293     42296     42297     42293     42296     42298     42293     42296     42299
     42294     42293     42295     42294     42293     42296     42295     42293     42296
     42296     42299     42300     42296     42299     42301     42296     42299     42302
     42297     42296     42298     42297     42296     42299     42298     42296     42299
     42299     42302     42303     42299     42302     42304     42299     42302     42305
     42300     42299     42301     42300     42299     42302     42301     42299     42302
     42302     42305     42306     42302     42305     42307     42302     42305     42308
     42303     42302     42304     42303     42302     42305     42304     42302     42305
     42306     42305     42307     42306     42305     42308     42307     42305     42308
     42309     42312     42313     42309     42312     42314     42309     42312     42315
     42310     42309     42311     42310     42309     42312     42311     42309     42312
     42312     42315     42316     42312     42315     42317     42312     42315     42318
     42313     42312     42314     42313     42312     42315     42314     42312     42315
     42315     42318     42319     42315     42318     42320     42315     42318     42321
     42316     42315     42317     42316     42315     42318     42317     42315     42318
     42318     42321     42322     42318     42321     42323     42318     42321     42324
     42319     42318     42320     42319     42318     42321     42320     42318     42321
     42321     42324     42325     42321     42324     42326     42321     42324     42327
     42322     42321     42323     42322     42321     42324     42323     42321     42324
     42324     42327     42328     42324     42327     42329     42324     42327     42330
     42325     42324     42326     42325     42324     42327     42326     42324     42327
     42327     42330     42331     42327     42330     42332     42327     42330     42333
     42328     42327     42329     42328     42327     42330     42329     42327     42330
     42330     42333     42334     42330     42333     42335     42330     42333     42336
     42331     42330     42332     42331     42330     42333     42332     42330     42333
     42333     42336     42337     42333     42336     42338     42333     42336     42339
     42334     42333     42335     42334     42333     42336     42335     42333     42336
     42336     42339     42340     42336     42339     42341     42336     42339     42342
     42337     42336     42338     42337     42336     42339     42338     42336     42339
     42339     42342     42343     42339     42342     42344     42339     42342     42345
     42340     42339     42341     42340     42339     42342     42341     42339     42342
     42342     42345     42346     42342     42345     42347     42342     42345     42348
     42343     42342     42344     42343     42342     42345     42344     42342     42345
     42345     42348     42349     42345     42348     42350     42345     42348     42351
     42346     42345     42347     42346     42345     42348     42347     42345     42348
     42349     42348     42350     42349     42348     42351     42350     42348     42351
     42352     42356     42357     42352     42356     42358     42352     42356     42359
     42353     42352     42354     42353     42352     42355     42353     42352     42356
     42354     42352     42355     42354     42352     42356     42355     42352     42356
     42356     42359     42360     42356     42359     42361     42356     42359     42366
     42357     42356     42358     42357     42356     42359     42358     42356     42359
     42359     42366     42362     42360     42359     42361     42360     42359     42366
     42361     42359     42366     42362     42365     42367     42363     42362     42364
     42363     42362     42365     42363     42362     42366     42364     42362     42365
     42364     42362     42366     42365     42362     42366     42365     42367     42368
     42365     42367     42369     42365     42367     42370     42367     42370     42371
     42367     42370     42372     42367     42370     42378     42368     42367     42369
     42368     42367     42370     42369     42367     42370     42370     42372     42373
     42370     42378     42379     42370     42378     42380     42370     42378     42381
     42371     42370     42372     42371     42370     42378     42372     42370     42378
     42372     42373     42374     42372     42373     42375     42373     42375     42376
     42373     42375     42377     42373     42375     42387     42374     42373     42375
     42375     42387     42388     42375     42387     42389     42375     42387     42390
     42376     42375     42377     42376     42375     42387     42377     42375     42387
     42378     42381     42382     42379     42378     42380     42379     42378     42381
     42380     42378     42381     42381     42382     42383     42381     42382     42384
     42382     42384     42385     42382     42384     42386     42382     42384     42428
     42383     42382     42384     42384     42428     42429     42384     42428     42430
     42384     42428     42431     42385     42384     42386     42385     42384     42428
     42386     42384     42428     42387     42390     42391     42387     42390     42392
     42387     42390     42393     42388     42387     42389     42388     42387     42390
     42389     42387     42390     42390     42393     42394     42390     42393     42395
     42390     42393     42396     42391     42390     42392     42391     42390     42393
     42392     42390     42393     42393     42396     42397     42393     42396     42398
     42393     42396     42399     42394     42393     42395     42394     42393     42396
     42395     42393     42396     42396     42399     42400     42396     42399     42401
     42396     42399     42402     42397     42396     42398     42397     42396     42399
     42398     42396     42399     42399     42402     42403     42399     42402     42404
     42399     42402     42405     42400     42399     42401     42400     42399     42402
     42401     42399     42402     42402     42405     42406     42402     42405     42407
     42403     42402     42404     42403     42402     42405     42404     42402     42405
     42405     42407     42408     42405     42407     42409     42406     42405     42407
     42407     42409     42410     42407     42409     42411     42407     42409     42412
     42408     42407     42409     42409     42412     42413     42409     42412     42414
     42409     42412     42415     42410     42409     42411     42410     42409     42412
     42411     42409     42412     42412     42415     42416     42412     42415     42417
     42412     42415     42418     42413     42412     42414     42413     42412     42415
     42414     42412     42415     42415     42418     42419     42415     42418     42420
     42415     42418     42421     42416     42415     42417     42416     42415     42418
     42417     42415     42418     42418     42421     42422     42418     42421     42423
     42418     42421     42424     42419     42418     42420     42419     42418     42421
     42420     42418     42421     42421     42424     42425     42421     42424     42426
     42421     42424     42427     42422     42421     42423     42422     42421     42424
     42423     42421     42424     42425     42424     42426     42425     42424     42427
     42426     42424     42427     42428     42431     42432     42428     42431     42433
     42428     42431     42434     42429     42428     42430     42429     42428     42431
     42430     42428     42431     42431     42434     42435     42431     42434     42436
     42431     42434     42437     42432     42431     42433     42432     42431     42434
     42433     42431     42434     42434     42437     42438     42434     42437     42439
     42434     42437     42440     42435     42434     42436     42435     42434     42437
     42436     42434     42437     42437     42440     42441     42437     42440     42442
     42437     42440     42443     42438     42437     42439     42438     42437     42440
     42439     42437     42440     42440     42443     42444     42440     42443     42445
     42440     42443     42446     42441     42440     42442     42441     42440     42443
     42442     42440     42443     42443     42446     42447     42443     42446     42448
     42443     42446     42449     42444     42443     42445     42444     42443     42446
     42445     42443     42446     42446     42449     42450     42446     42449     42451
     42446     42449     42452     42447     42446     42448     42447     42446     42449
     42448     42446     42449     42449     42452     42453     42449     42452     42454
     42449     42452     42455     42450     42449     42451     42450     42449     42452
     42451     42449     42452     42452     42455     42456     42452     42455     42457
     42452     42455     42458     42453     42452     42454     42453     42452     42455
     42454     42452     42455     42455     42458     42459     42455     42458     42460
     42455     42458     42461     42456     42455     42457     42456     42455     42458
     42457     42455     42458     42458     42461     42462     42458     42461     42463
     42458     42461     42464     42459     42458     42460     42459     42458     42461
     42460     42458     42461     42461     42464     42465     42461     42464     42466
     42461     42464     42467     42462     42461     42463     42462     42461     42464
     42463     42461     42464     42464     42467     42468     42464     42467     42469
     42464     42467     42470     42465     42464     42466     42465     42464     42467
     42466     42464     42467     42468     42467     42469     42468     42467     42470
     42469     42467     42470     42471     42474     42475     42471     42476     42477
     42471     42476     42478     42471     42476     42480     42472     42471     42473
     42472     42471     42474     42472     42471     42476     42473     42471     42474
     42473     42471     42476     42474     42471     42476     42476     42478     42479
     42476     42480     42481     42476     42480     42482     42476     42480     42486
     42477     42476     42478     42477     42476     42480     42478     42476     42480
     42480     42486     42483     42481     42480     42482     42481     42480     42486
     42482     42480     42486     42483     42487     42488     42484     42483     42485
     42484     42483     42486     42484     42483     42487     42485     42483     42486
     42485     42483     42487     42486     42483     42487     42487     42488     42489
     42487     42488     42490     42487     42488     42491     42488     42491     42492
     42488     42491     42493     42488     42491     42499     42489     42488     42490
     42489     42488     42491     42490     42488     42491     42491     42493     42494
     42491     42499     42500     42491     42499     42501     42491     42499     42502
     42492     42491     42493     42492     42491     42499     42493     42491     42499
     42493     42494     42495     42493     42494     42496     42494     42496     42497
     42494     42496     42498     42494     42496     42508     42495     42494     42496
     42496     42508     42509     42496     42508     42510     42496     42508     42511
     42497     42496     42498     42497     42496     42508     42498     42496     42508
     42499     42502     42503     42500     42499     42501     42500     42499     42502
     42501     42499     42502     42502     42503     42504     42502     42503     42505
     42503     42505     42506     42503     42505     42507     42503     42505     42555
     42504     42503     42505     42505     42555     42556     42505     42555     42557
     42505     42555     42558     42506     42505     42507     42506     42505     42555
     42507     42505     42555     42508     42511     42512     42508     42511     42513
     42508     42511     42514     42509     42508     42510     42509     42508     42511
     42510     42508     42511     42511     42514     42515     42511     42514     42516
     42511     42514     42517     42512     42511     42513     42512     42511     42514
     42513     42511     42514     42514     42517     42518     42514     42517     42519
     42514     42517     42520     42515     42514     42516     42515     42514     42517
     42516     42514     42517     42517     42520     42521     42517     42520     42522
     42517     42520     42523     42518     42517     42519     42518     42517     42520
     42519     42517     42520     42520     42523     42524     42520     42523     42525
     42520     42523     42526     42521     42520     42522     42521     42520     42523
     42522     42520     42523     42523     42526     42527     42523     42526     42528
     42523     42526     42529     42524     42523     42525     42524     42523     42526
     42525     42523     42526     42526     42529     42530     42526     42529     42531
     42526     42529     42532     42527     42526     42528     42527     42526     42529
     42528     42526     42529     42529     42532     42533     42529     42532     42534
     42530     42529     42531     42530     42529     42532     42531     42529     42532
     42532     42534     42535     42532     42534     42536     42533     42532     42534
     42534     42536     42537     42534     42536     42538     42534     42536     42539
     42535     42534     42536     42536     42539     42540     42536     42539     42541
     42536     42539     42542     42537     42536     42538     42537     42536     42539
     42538     42536     42539     42539     42542     42543     42539     42542     42544
     42539     42542     42545     42540     42539     42541     42540     42539     42542
     42541     42539     42542     42542     42545     42546     42542     42545     42547
     42542     42545     42548     42543     42542     42544     42543     42542     42545
     42544     42542     42545     42545     42548     42549     42545     42548     42550
     42545     42548     42551     42546     42545     42547     42546     42545     42548
     42547     42545     42548     42548     42551     42552     42548     42551     42553
     42548     42551     42554     42549     42548     42550     42549     42548     42551
     42550     42548     42551     42552     42551     42553     42552     42551     42554
     42553     42551     42554     42555     42558     42559     42555     42558     42560
     42555     42558     42561     42556     42555     42557     42556     42555     42558
     42557     42555     42558     42558     42561     42562     42558     42561     42563
     42558     42561     42564     42559     42558     42560     42559     42558     42561
     42560     42558     42561     42561     42564     42565     42561     42564     42566
     42561     42564     42567     42562     42561     42563     42562     42561     42564
     42563     42561     42564     42564     42567     42568     42564     42567     42569
     42564     42567     42570     42565     42564     42566     42565     42564     42567
     42566     42564     42567     42567     42570     42571     42567     42570     42572
     42567     42570     42573     42568     42567     42569     42568     42567     42570
     42569     42567     42570     42570     42573     42574     42570     42573     42575
     42570     42573     42576     42571     42570     42572     42571     42570     42573
     42572     42570     42573     42573     42576     42577     42573     42576     42578
     42573     42576     42579     42574     42573     42575     42574     42573     42576
     42575     42573     42576     42576     42579     42580     42576     42579     42581
     42576     42579     42582     42577     42576     42578     42577     42576     42579
     42578     42576     42579     42579     42582     42583     42579     42582     42584
     42579     42582     42585     42580     42579     42581     42580     42579     42582
     42581     42579     42582     42582     42585     42586     42582     42585     42587
     42582     42585     42588     42583     42582     42584     42583     42582     42585
     42584     42582     42585     42585     42588     42589     42585     42588     42590
     42585     42588     42591     42586     42585     42587     42586     42585     42588
     42587     42585     42588     42588     42591     42592     42588     42591     42593
     42588     42591     42594     42589     42588     42590     42589     42588     42591
     42590     42588     42591     42591     42594     42595     42591     42594     42596
     42591     42594     42597     42592     42591     42593     42592     42591     42594
     42593     42591     42594     42595     42594     42596     42595     42594     42597
     42596     42594     42597     42598     42602     42603     42598     42602     42604
     42598     42602     42605     42599     42598     42600     42599     42598     42601
     42599     42598     42602     42600     42598     42601     42600     42598     42602
     42601     42598     42602     42602     42605     42606     42602     42605     42607
     42602     42605     42612     42603     42602     42604     42603     42602     42605
     42604     42602     42605     42605     42612     42608     42606     42605     42607
     42606     42605     42612     42607     42605     42612     42608     42611     42613
     42609     42608     42610     42609     42608     42611     42609     42608     42612
     42610     42608     42611     42610     42608     42612     42611     42608     42612
     42611     42613     42614     42611     42613     42615     42611     42613     42616
     42613     42616     42617     42613     42616     42618     42613     42616     42624
     42614     42613     42615     42614     42613     42616     42615     42613     42616
     42616     42618     42619     42616     42624     42625     42616     42624     42626
     42616     42624     42627     42617     42616     42618     42617     42616     42624
     42618     42616     42624     42618     42619     42620     42618     42619     42621
     42619     42621     42622     42619     42621     42623     42619     42621     42633
     42620     42619     42621     42621     42633     42634     42621     42633     42635
     42621     42633     42636     42622     42621     42623     42622     42621     42633
     42623     42621     42633     42624     42627     42628     42625     42624     42626
     42625     42624     42627     42626     42624     42627     42627     42628     42629
     42627     42628     42630     42628     42630     42631     42628     42630     42632
     42628     42630     42674     42629     42628     42630     42630     42674     42675
     42630     42674     42676     42630     42674     42677     42631     42630     42632
     42631     42630     42674     42632     42630     42674     42633     42636     42637
     42633     42636     42638     42633     42636     42639     42634     42633     42635
     42634     42633     42636     42635     42633     42636     42636     42639     42640
     42636     42639     42641     42636     42639     42642     42637     42636     42638
     42637     42636     42639     42638     42636     42639     42639     42642     42643
     42639     42642     42644     42639     42642     42645     42640     42639     42641
     42640     42639     42642     42641     42639     42642     42642     42645     42646
     42642     42645     42647     42642     42645     42648     42643     42642     42644
     42643     42642     42645     42644     42642     42645     42645     42648     42649
     42645     42648     42650     42645     42648     42651     42646     42645     42647
     42646     42645     42648     42647     42645     42648     42648     42651     42652
     42648     42651     42653     42649     42648     42650     42649     42648     42651
     42650     42648     42651     42651     42653     42654     42651     42653     42655
     42652     42651     42653     42653     42655     42656     42653     42655     42657
     42653     42655     42658     42654     42653     42655     42655     42658     42659
     42655     42658     42660     42655     42658     42661     42656     42655     42657
     42656     42655     42658     42657     42655     42658     42658     42661     42662
     42658     42661     42663     42658     42661     42664     42659     42658     42660
     42659     42658     42661     42660     42658     42661     42661     42664     42665
     42661     42664     42666     42661     42664     42667     42662     42661     42663
     42662     42661     42664     42663     42661     42664     42664     42667     42668
     42664     42667     42669     42664     42667     42670     42665     42664     42666
     42665     42664     42667     42666     42664     42667     42667     42670     42671
     42667     42670     42672     42667     42670     42673     42668     42667     42669
     42668     42667     42670     42669     42667     42670     42671     42670     42672
     42671     42670     42673     42672     42670     42673     42674     42677     42678
     42674     42677     42679     42674     42677     42680     42675     42674     42676
     42675     42674     42677     42676     42674     42677     42677     42680     42681
     42677     42680     42682     42677     42680     42683     42678     42677     42679
     42678     42677     42680     42679     42677     42680     42680     42683     42684
     42680     42683     42685     42680     42683     42686     42681     42680     42682
     42681     42680     42683     42682     42680     42683     42683     42686     42687
     42683     42686     42688     42683     42686     42689     42684     42683     42685
     42684     42683     42686     42685     42683     42686     42686     42689     42690
     42686     42689     42691     42686     42689     42692     42687     42686     42688
     42687     42686     42689     42688     42686     42689     42689     42692     42693
     42689     42692     42694     42689     42692     42695     42690     42689     42691
     42690     42689     42692     42691     42689     42692     42692     42695     42696
     42692     42695     42697     42692     42695     42698     42693     42692     42694
     42693     42692     42695     42694     42692     42695     42695     42698     42699
     42695     42698     42700     42695     42698     42701     42696     42695     42697
     42696     42695     42698     42697     42695     42698     42698     42701     42702
     42698     42701     42703     42698     42701     42704     42699     42698     42700
     42699     42698     42701     42700     42698     42701     42701     42704     42705
     42701     42704     42706     42701     42704     42707     42702     42701     42703
     42702     42701     42704     42703     42701     42704     42704     42707     42708
     42704     42707     42709     42704     42707     42710     42705     42704     42706
     42705     42704     42707     42706     42704     42707     42707     42710     42711
     42707     42710     42712     42707     42710     42713     42708     42707     42709
     42708     42707     42710     42709     42707     42710     42710     42713     42714
     42710     42713     42715     42710     42713     42716     42711     42710     42712
     42711     42710     42713     42712     42710     42713     42714     42713     42715
     42714     42713     42716     42715     42713     42716     42717     42721     42722
     42717     42721     42723     42717     42721     42724     42718     42717     42719
     42718     42717     42720     42718     42717     42721     42719     42717     42720
     42719     42717     42721     42720     42717     42721     42721     42724     42725
     42721     42724     42726     42721     42724     42731     42722     42721     42723
     42722     42721     42724     42723     42721     42724     42724     42731     42727
     42725     42724     42726     42725     42724     42731     42726     42724     42731
     42727     42730     42732     42728     42727     42729     42728     42727     42730
     42728     42727     42731     42729     42727     42730     42729     42727     42731
     42730     42727     42731     42730     42732     42733     42730     42732     42734
     42730     42732     42735     42732     42735     42736     42732     42735     42737
     42732     42735     42743     42733     42732     42734     42733     42732     42735
     42734     42732     42735     42735     42737     42738     42735     42743     42744
     42735     42743     42745     42735     42743     42746     42736     42735     42737
     42736     42735     42743     42737     42735     42743     42737     42738     42739
     42737     42738     42740     42738     42740     42741     42738     42740     42742
     42738     42740     42752     42739     42738     42740     42740     42752     42753
     42740     42752     42754     42740     42752     42755     42741     42740     42742
     42741     42740     42752     42742     42740     42752     42743     42746     42747
     42744     42743     42745     42744     42743     42746     42745     42743     42746
     42746     42747     42748     42746     42747     42749     42747     42749     42750
     42747     42749     42751     42747     42749     42793     42748     42747     42749
     42749     42793     42794     42749     42793     42795     42749     42793     42796
     42750     42749     42751     42750     42749     42793     42751     42749     42793
     42752     42755     42756     42752     42755     42757     42752     42755     42758
     42753     42752     42754     42753     42752     42755     42754     42752     42755
     42755     42758     42759     42755     42758     42760     42755     42758     42761
     42756     42755     42757     42756     42755     42758     42757     42755     42758
     42758     42761     42762     42758     42761     42763     42758     42761     42764
     42759     42758     42760     42759     42758     42761     42760     42758     42761
     42761     42764     42765     42761     42764     42766     42761     42764     42767
     42762     42761     42763     42762     42761     42764     42763     42761     42764
     42764     42767     42768     42764     42767     42769     42764     42767     42770
     42765     42764     42766     42765     42764     42767     42766     42764     42767
     42767     42770     42771     42767     42770     42772     42768     42767     42769
     42768     42767     42770     42769     42767     42770     42770     42772     42773
     42770     42772     42774     42771     42770     42772     42772     42774     42775
     42772     42774     42776     42772     42774     42777     42773     42772     42774
     42774     42777     42778     42774     42777     42779     42774     42777     42780
     42775     42774     42776     42775     42774     42777     42776     42774     42777
     42777     42780     42781     42777     42780     42782     42777     42780     42783
     42778     42777     42779     42778     42777     42780     42779     42777     42780
     42780     42783     42784     42780     42783     42785     42780     42783     42786
     42781     42780     42782     42781     42780     42783     42782     42780     42783
     42783     42786     42787     42783     42786     42788     42783     42786     42789
     42784     42783     42785     42784     42783     42786     42785     42783     42786
     42786     42789     42790     42786     42789     42791     42786     42789     42792
     42787     42786     42788     42787     42786     42789     42788     42786     42789
     42790     42789     42791     42790     42789     42792     42791     42789     42792
     42793     42796     42797     42793     42796     42798     42793     42796     42799
     42794     42793     42795     42794     42793     42796     42795     42793     42796
     42796     42799     42800     42796     42799     42801     42796     42799     42802
     42797     42796     42798     42797     42796     42799     42798     42796     42799
     42799     42802     42803     42799     42802     42804     42799     42802     42805
     42800     42799     42801     42800     42799     42802     42801     42799     42802
     42802     42805     42806     42802     42805     42807     42802     42805     42808
     42803     42802     42804     42803     42802     42805     42804     42802     42805
     42805     42808     42809     42805     42808     42810     42805     42808     42811
     42806     42805     42807     42806     42805     42808     42807     42805     42808
     42808     42811     42812     42808     42811     42813     42808     42811     42814
     42809     42808     42810     42809     42808     42811     42810     42808     42811
     42811     42814     42815     42811     42814     42816     42811     42814     42817
     42812     42811     42813     42812     42811     42814     42813     42811     42814
     42814     42817     42818     42814     42817     42819     42814     42817     42820
     42815     42814     42816     42815     42814     42817     42816     42814     42817
     42817     42820     42821     42817     42820     42822     42817     42820     42823
     42818     42817     42819     42818     42817     42820     42819     42817     42820
     42820     42823     42824     42820     42823     42825     42820     42823     42826
     42821     42820     42822     42821     42820     42823     42822     42820     42823
     42823     42826     42827     42823     42826     42828     42823     42826     42829
     42824     42823     42825     42824     42823     42826     42825     42823     42826
     42826     42829     42830     42826     42829     42831     42826     42829     42832
     42827     42826     42828     42827     42826     42829     42828     42826     42829
     42829     42832     42833     42829     42832     42834     42829     42832     42835
     42830     42829     42831     42830     42829     42832     42831     42829     42832
     42833     42832     42834     42833     42832     42835     42834     42832     42835
     42836     42840     42841     42836     42840     42842     42836     42840     42843
     42837     42836     42838     42837     42836     42839     42837     42836     42840
     42838     42836     42839     42838     42836     42840     42839     42836     42840
     42840     42843     42844     42840     42843     42845     42840     42843     42850
     42841     42840     42842     42841     42840     42843     42842     42840     42843
     42843     42850     42846     42844     42843     42845     42844     42843     42850
     42845     42843     42850     42846     42849     42851     42847     42846     42848
     42847     42846     42849     42847     42846     42850     42848     42846     42849
     42848     42846     42850     42849     42846     42850     42849     42851     42852
     42849     42851     42853     42849     42851     42854     42851     42854     42855
     42851     42854     42856     42851     42854     42862     42852     42851     42853
     42852     42851     42854     42853     42851     42854     42854     42856     42857
     42854     42862     42863     42854     42862     42864     42854     42862     42865
     42855     42854     42856     42855     42854     42862     42856     42854     42862
     42856     42857     42858     42856     42857     42859     42857     42859     42860
     42857     42859     42861     42857     42859     42871     42858     42857     42859
     42859     42871     42872     42859     42871     42873     42859     42871     42874
     42860     42859     42861     42860     42859     42871     42861     42859     42871
     42862     42865     42866     42863     42862     42864     42863     42862     42865
     42864     42862     42865     42865     42866     42867     42865     42866     42868
     42866     42868     42869     42866     42868     42870     42866     42868     42912
     42867     42866     42868     42868     42912     42913     42868     42912     42914
     42868     42912     42915     42869     42868     42870     42869     42868     42912
     42870     42868     42912     42871     42874     42875     42871     42874     42876
     42871     42874     42877     42872     42871     42873     42872     42871     42874
     42873     42871     42874     42874     42877     42878     42874     42877     42879
     42874     42877     42880     42875     42874     42876     42875     42874     42877
     42876     42874     42877     42877     42880     42881     42877     42880     42882
     42877     42880     42883     42878     42877     42879     42878     42877     42880
     42879     42877     42880     42880     42883     42884     42880     42883     42885
     42880     42883     42886     42881     42880     42882     42881     42880     42883
     42882     42880     42883     42883     42886     42887     42883     42886     42888
     42883     42886     42889     42884     42883     42885     42884     42883     42886
     42885     42883     42886     42886     42889     42890     42886     42889     42891
     42887     42886     42888     42887     42886     42889     42888     42886     42889
     42889     42891     42892     42889     42891     42893     42890     42889     42891
     42891     42893     42894     42891     42893     42895     42891     42893     42896
     42892     42891     42893     42893     42896     42897     42893     42896     42898
     42893     42896     42899     42894     42893     42895     42894     42893     42896
     42895     42893     42896     42896     42899     42900     42896     42899     42901
     42896     42899     42902     42897     42896     42898     42897     42896     42899
     42898     42896     42899     42899     42902     42903     42899     42902     42904
     42899     42902     42905     42900     42899     42901     42900     42899     42902
     42901     42899     42902     42902     42905     42906     42902     42905     42907
     42902     42905     42908     42903     42902     42904     42903     42902     42905
     42904     42902     42905     42905     42908     42909     42905     42908     42910
     42905     42908     42911     42906     42905     42907     42906     42905     42908
     42907     42905     42908     42909     42908     42910     42909     42908     42911
     42910     42908     42911     42912     42915     42916     42912     42915     42917
     42912     42915     42918     42913     42912     42914     42913     42912     42915
     42914     42912     42915     42915     42918     42919     42915     42918     42920
     42915     42918     42921     42916     42915     42917     42916     42915     42918
     42917     42915     42918     42918     42921     42922     42918     42921     42923
     42918     42921     42924     42919     42918     42920     42919     42918     42921
     42920     42918     42921     42921     42924     42925     42921     42924     42926
     42921     42924     42927     42922     42921     42923     42922     42921     42924
     42923     42921     42924     42924     42927     42928     42924     42927     42929
     42924     42927     42930     42925     42924     42926     42925     42924     42927
     42926     42924     42927     42927     42930     42931     42927     42930     42932
     42927     42930     42933     42928     42927     42929     42928     42927     42930
     42929     42927     42930     42930     42933     42934     42930     42933     42935
     42930     42933     42936     42931     42930     42932     42931     42930     42933
     42932     42930     42933     42933     42936     42937     42933     42936     42938
     42933     42936     42939     42934     42933     42935     42934     42933     42936
     42935     42933     42936     42936     42939     42940     42936     42939     42941
     42936     42939     42942     42937     42936     42938     42937     42936     42939
     42938     42936     42939     42939     42942     42943     42939     42942     42944
     42939     42942     42945     42940     42939     42941     42940     42939     42942
     42941     42939     42942     42942     42945     42946     42942     42945     42947
     42942     42945     42948     42943     42942     42944     42943     42942     42945
     42944     42942     42945     42945     42948     42949     42945     42948     42950
     42945     42948     42951     42946     42945     42947     42946     42945     42948
     42947     42945     42948     42948     42951     42952     42948     42951     42953
     42948     42951     42954     42949     42948     42950     42949     42948     42951
     42950     42948     42951     42952     42951     42953     42952     42951     42954
     42953     42951     42954     42955     42959     42960     42955     42959     42961
     42955     42959     42962     42956     42955     42957     42956     42955     42958
     42956     42955     42959     42957     42955     42958     42957     42955     42959
     42958     42955     42959     42959     42962     42963     42959     42962     42964
     42959     42962     42969     42960     42959     42961     42960     42959     42962
     42961     42959     42962     42962     42969     42965     42963     42962     42964
     42963     42962     42969     42964     42962     42969     42965     42968     42970
     42966     42965     42967     42966     42965     42968     42966     42965     42969
     42967     42965     42968     42967     42965     42969     42968     42965     42969
     42968     42970     42971     42968     42970     42972     42968     42970     42973
     42970     42973     42974     42970     42973     42975     42970     42973     42981
     42971     42970     42972     42971     42970     42973     42972     42970     42973
     42973     42975     42976     42973     42981     42982     42973     42981     42983
     42973     42981     42984     42974     42973     42975     42974     42973     42981
     42975     42973     42981     42975     42976     42977     42975     42976     42978
     42976     42978     42979     42976     42978     42980     42976     42978     42990
     42977     42976     42978     42978     42990     42991     42978     42990     42992
     42978     42990     42993     42979     42978     42980     42979     42978     42990
     42980     42978     42990     42981     42984     42985     42982     42981     42983
     42982     42981     42984     42983     42981     42984     42984     42985     42986
     42984     42985     42987     42985     42987     42988     42985     42987     42989
     42985     42987     43031     42986     42985     42987     42987     43031     43032
     42987     43031     43033     42987     43031     43034     42988     42987     42989
     42988     42987     43031     42989     42987     43031     42990     42993     42994
     42990     42993     42995     42990     42993     42996     42991     42990     42992
     42991     42990     42993     42992     42990     42993     42993     42996     42997
     42993     42996     42998     42993     42996     42999     42994     42993     42995
     42994     42993     42996     42995     42993     42996     42996     42999     43000
     42996     42999     43001     42996     42999     43002     42997     42996     42998
     42997     42996     42999     42998     42996     42999     42999     43002     43003
     42999     43002     43004     42999     43002     43005     43000     42999     43001
     43000     42999     43002     43001     42999     43002     43002     43005     43006
     43002     43005     43007     43002     43005     43008     43003     43002     43004
     43003     43002     43005     43004     43002     43005     43005     43008     43009
     43005     43008     43010     43006     43005     43007     43006     43005     43008
     43007     43005     43008     43008     43010     43011     43008     43010     43012
     43009     43008     43010     43010     43012     43013     43010     43012     43014
     43010     43012     43015     43011     43010     43012     43012     43015     43016
     43012     43015     43017     43012     43015     43018     43013     43012     43014
     43013     43012     43015     43014     43012     43015     43015     43018     43019
     43015     43018     43020     43015     43018     43021     43016     43015     43017
     43016     43015     43018     43017     43015     43018     43018     43021     43022
     43018     43021     43023     43018     43021     43024     43019     43018     43020
     43019     43018     43021     43020     43018     43021     43021     43024     43025
     43021     43024     43026     43021     43024     43027     43022     43021     43023
     43022     43021     43024     43023     43021     43024     43024     43027     43028
     43024     43027     43029     43024     43027     43030     43025     43024     43026
     43025     43024     43027     43026     43024     43027     43028     43027     43029
     43028     43027     43030     43029     43027     43030     43031     43034     43035
     43031     43034     43036     43031     43034     43037     43032     43031     43033
     43032     43031     43034     43033     43031     43034     43034     43037     43038
     43034     43037     43039     43034     43037     43040     43035     43034     43036
     43035     43034     43037     43036     43034     43037     43037     43040     43041
     43037     43040     43042     43037     43040     43043     43038     43037     43039
     43038     43037     43040     43039     43037     43040     43040     43043     43044
     43040     43043     43045     43040     43043     43046     43041     43040     43042
     43041     43040     43043     43042     43040     43043     43043     43046     43047
     43043     43046     43048     43043     43046     43049     43044     43043     43045
     43044     43043     43046     43045     43043     43046     43046     43049     43050
     43046     43049     43051     43046     43049     43052     43047     43046     43048
     43047     43046     43049     43048     43046     43049     43049     43052     43053
     43049     43052     43054     43049     43052     43055     43050     43049     43051
     43050     43049     43052     43051     43049     43052     43052     43055     43056
     43052     43055     43057     43052     43055     43058     43053     43052     43054
     43053     43052     43055     43054     43052     43055     43055     43058     43059
     43055     43058     43060     43055     43058     43061     43056     43055     43057
     43056     43055     43058     43057     43055     43058     43058     43061     43062
     43058     43061     43063     43058     43061     43064     43059     43058     43060
     43059     43058     43061     43060     43058     43061     43061     43064     43065
     43061     43064     43066     43061     43064     43067     43062     43061     43063
     43062     43061     43064     43063     43061     43064     43064     43067     43068
     43064     43067     43069     43064     43067     43070     43065     43064     43066
     43065     43064     43067     43066     43064     43067     43067     43070     43071
     43067     43070     43072     43067     43070     43073     43068     43067     43069
     43068     43067     43070     43069     43067     43070     43071     43070     43072
     43071     43070     43073     43072     43070     43073     43074     43078     43079
     43074     43078     43080     43074     43078     43081     43075     43074     43076
     43075     43074     43077     43075     43074     43078     43076     43074     43077
     43076     43074     43078     43077     43074     43078     43078     43081     43082
     43078     43081     43083     43078     43081     43088     43079     43078     43080
     43079     43078     43081     43080     43078     43081     43081     43088     43084
     43082     43081     43083     43082     43081     43088     43083     43081     43088
     43084     43087     43089     43085     43084     43086     43085     43084     43087
     43085     43084     43088     43086     43084     43087     43086     43084     43088
     43087     43084     43088     43087     43089     43090     43087     43089     43091
     43087     43089     43092     43089     43092     43093     43089     43092     43094
     43089     43092     43100     43090     43089     43091     43090     43089     43092
     43091     43089     43092     43092     43094     43095     43092     43100     43101
     43092     43100     43102     43092     43100     43103     43093     43092     43094
     43093     43092     43100     43094     43092     43100     43094     43095     43096
     43094     43095     43097     43095     43097     43098     43095     43097     43099
     43095     43097     43109     43096     43095     43097     43097     43109     43110
     43097     43109     43111     43097     43109     43112     43098     43097     43099
     43098     43097     43109     43099     43097     43109     43100     43103     43104
     43101     43100     43102     43101     43100     43103     43102     43100     43103
     43103     43104     43105     43103     43104     43106     43104     43106     43107
     43104     43106     43108     43104     43106     43150     43105     43104     43106
     43106     43150     43151     43106     43150     43152     43106     43150     43153
     43107     43106     43108     43107     43106     43150     43108     43106     43150
     43109     43112     43113     43109     43112     43114     43109     43112     43115
     43110     43109     43111     43110     43109     43112     43111     43109     43112
     43112     43115     43116     43112     43115     43117     43112     43115     43118
     43113     43112     43114     43113     43112     43115     43114     43112     43115
     43115     43118     43119     43115     43118     43120     43115     43118     43121
     43116     43115     43117     43116     43115     43118     43117     43115     43118
     43118     43121     43122     43118     43121     43123     43118     43121     43124
     43119     43118     43120     43119     43118     43121     43120     43118     43121
     43121     43124     43125     43121     43124     43126     43121     43124     43127
     43122     43121     43123     43122     43121     43124     43123     43121     43124
     43124     43127     43128     43124     43127     43129     43125     43124     43126
     43125     43124     43127     43126     43124     43127     43127     43129     43130
     43127     43129     43131     43128     43127     43129     43129     43131     43132
     43129     43131     43133     43129     43131     43134     43130     43129     43131
     43131     43134     43135     43131     43134     43136     43131     43134     43137
     43132     43131     43133     43132     43131     43134     43133     43131     43134
     43134     43137     43138     43134     43137     43139     43134     43137     43140
     43135     43134     43136     43135     43134     43137     43136     43134     43137
     43137     43140     43141     43137     43140     43142     43137     43140     43143
     43138     43137     43139     43138     43137     43140     43139     43137     43140
     43140     43143     43144     43140     43143     43145     43140     43143     43146
     43141     43140     43142     43141     43140     43143     43142     43140     43143
     43143     43146     43147     43143     43146     43148     43143     43146     43149
     43144     43143     43145     43144     43143     43146     43145     43143     43146
     43147     43146     43148     43147     43146     43149     43148     43146     43149
     43150     43153     43154     43150     43153     43155     43150     43153     43156
     43151     43150     43152     43151     43150     43153     43152     43150     43153
     43153     43156     43157     43153     43156     43158     43153     43156     43159
     43154     43153     43155     43154     43153     43156     43155     43153     43156
     43156     43159     43160     43156     43159     43161     43156     43159     43162
     43157     43156     43158     43157     43156     43159     43158     43156     43159
     43159     43162     43163     43159     43162     43164     43159     43162     43165
     43160     43159     43161     43160     43159     43162     43161     43159     43162
     43162     43165     43166     43162     43165     43167     43162     43165     43168
     43163     43162     43164     43163     43162     43165     43164     43162     43165
     43165     43168     43169     43165     43168     43170     43165     43168     43171
     43166     43165     43167     43166     43165     43168     43167     43165     43168
     43168     43171     43172     43168     43171     43173     43168     43171     43174
     43169     43168     43170     43169     43168     43171     43170     43168     43171
     43171     43174     43175     43171     43174     43176     43171     43174     43177
     43172     43171     43173     43172     43171     43174     43173     43171     43174
     43174     43177     43178     43174     43177     43179     43174     43177     43180
     43175     43174     43176     43175     43174     43177     43176     43174     43177
     43177     43180     43181     43177     43180     43182     43177     43180     43183
     43178     43177     43179     43178     43177     43180     43179     43177     43180
     43180     43183     43184     43180     43183     43185     43180     43183     43186
     43181     43180     43182     43181     43180     43183     43182     43180     43183
     43183     43186     43187     43183     43186     43188     43183     43186     43189
     43184     43183     43185     43184     43183     43186     43185     43183     43186
     43186     43189     43190     43186     43189     43191     43186     43189     43192
     43187     43186     43188     43187     43186     43189     43188     43186     43189
     43190     43189     43191     43190     43189     43192     43191     43189     43192
     43193     43196     43197     43193     43198     43199     43193     43198     43200
     43193     43198     43202     43194     43193     43195     43194     43193     43196
     43194     43193     43198     43195     43193     43196     43195     43193     43198
     43196     43193     43198     43198     43200     43201     43198     43202     43203
     43198     43202     43204     43198     43202     43208     43199     43198     43200
     43199     43198     43202     43200     43198     43202     43202     43208     43205
     43203     43202     43204     43203     43202     43208     43204     43202     43208
     43205     43209     43210     43206     43205     43207     43206     43205     43208
     43206     43205     43209     43207     43205     43208     43207     43205     43209
     43208     43205     43209     43209     43210     43211     43209     43210     43212
     43209     43210     43213     43210     43213     43214     43210     43213     43215
     43210     43213     43221     43211     43210     43212     43211     43210     43213
     43212     43210     43213     43213     43215     43216     43213     43221     43222
     43213     43221     43223     43213     43221     43224     43214     43213     43215
     43214     43213     43221     43215     43213     43221     43215     43216     43217
     43215     43216     43218     43216     43218     43219     43216     43218     43220
     43216     43218     43230     43217     43216     43218     43218     43230     43231
     43218     43230     43232     43218     43230     43233     43219     43218     43220
     43219     43218     43230     43220     43218     43230     43221     43224     43225
     43222     43221     43223     43222     43221     43224     43223     43221     43224
     43224     43225     43226     43224     43225     43227     43225     43227     43228
     43225     43227     43229     43225     43227     43277     43226     43225     43227
     43227     43277     43278     43227     43277     43279     43227     43277     43280
     43228     43227     43229     43228     43227     43277     43229     43227     43277
     43230     43233     43234     43230     43233     43235     43230     43233     43236
     43231     43230     43232     43231     43230     43233     43232     43230     43233
     43233     43236     43237     43233     43236     43238     43233     43236     43239
     43234     43233     43235     43234     43233     43236     43235     43233     43236
     43236     43239     43240     43236     43239     43241     43236     43239     43242
     43237     43236     43238     43237     43236     43239     43238     43236     43239
     43239     43242     43243     43239     43242     43244     43239     43242     43245
     43240     43239     43241     43240     43239     43242     43241     43239     43242
     43242     43245     43246     43242     43245     43247     43242     43245     43248
     43243     43242     43244     43243     43242     43245     43244     43242     43245
     43245     43248     43249     43245     43248     43250     43245     43248     43251
     43246     43245     43247     43246     43245     43248     43247     43245     43248
     43248     43251     43252     43248     43251     43253     43248     43251     43254
     43249     43248     43250     43249     43248     43251     43250     43248     43251
     43251     43254     43255     43251     43254     43256     43252     43251     43253
     43252     43251     43254     43253     43251     43254     43254     43256     43257
     43254     43256     43258     43255     43254     43256     43256     43258     43259
     43256     43258     43260     43256     43258     43261     43257     43256     43258
     43258     43261     43262     43258     43261     43263     43258     43261     43264
     43259     43258     43260     43259     43258     43261     43260     43258     43261
     43261     43264     43265     43261     43264     43266     43261     43264     43267
     43262     43261     43263     43262     43261     43264     43263     43261     43264
     43264     43267     43268     43264     43267     43269     43264     43267     43270
     43265     43264     43266     43265     43264     43267     43266     43264     43267
     43267     43270     43271     43267     43270     43272     43267     43270     43273
     43268     43267     43269     43268     43267     43270     43269     43267     43270
     43270     43273     43274     43270     43273     43275     43270     43273     43276
     43271     43270     43272     43271     43270     43273     43272     43270     43273
     43274     43273     43275     43274     43273     43276     43275     43273     43276
     43277     43280     43281     43277     43280     43282     43277     43280     43283
     43278     43277     43279     43278     43277     43280     43279     43277     43280
     43280     43283     43284     43280     43283     43285     43280     43283     43286
     43281     43280     43282     43281     43280     43283     43282     43280     43283
     43283     43286     43287     43283     43286     43288     43283     43286     43289
     43284     43283     43285     43284     43283     43286     43285     43283     43286
     43286     43289     43290     43286     43289     43291     43286     43289     43292
     43287     43286     43288     43287     43286     43289     43288     43286     43289
     43289     43292     43293     43289     43292     43294     43289     43292     43295
     43290     43289     43291     43290     43289     43292     43291     43289     43292
     43292     43295     43296     43292     43295     43297     43292     43295     43298
     43293     43292     43294     43293     43292     43295     43294     43292     43295
     43295     43298     43299     43295     43298     43300     43295     43298     43301
     43296     43295     43297     43296     43295     43298     43297     43295     43298
     43298     43301     43302     43298     43301     43303     43298     43301     43304
     43299     43298     43300     43299     43298     43301     43300     43298     43301
     43301     43304     43305     43301     43304     43306     43301     43304     43307
     43302     43301     43303     43302     43301     43304     43303     43301     43304
     43304     43307     43308     43304     43307     43309     43304     43307     43310
     43305     43304     43306     43305     43304     43307     43306     43304     43307
     43307     43310     43311     43307     43310     43312     43307     43310     43313
     43308     43307     43309     43308     43307     43310     43309     43307     43310
     43310     43313     43314     43310     43313     43315     43310     43313     43316
     43311     43310     43312     43311     43310     43313     43312     43310     43313
     43313     43316     43317     43313     43316     43318     43313     43316     43319
     43314     43313     43315     43314     43313     43316     43315     43313     43316
     43317     43316     43318     43317     43316     43319     43318     43316     43319
     43320     43323     43324     43320     43325     43326     43320     43325     43327
     43320     43325     43329     43321     43320     43322     43321     43320     43323
     43321     43320     43325     43322     43320     43323     43322     43320     43325
     43323     43320     43325     43325     43327     43328     43325     43329     43330
     43325     43329     43331     43325     43329     43335     43326     43325     43327
     43326     43325     43329     43327     43325     43329     43329     43335     43332
     43330     43329     43331     43330     43329     43335     43331     43329     43335
     43332     43336     43337     43333     43332     43334     43333     43332     43335
     43333     43332     43336     43334     43332     43335     43334     43332     43336
     43335     43332     43336     43336     43337     43338     43336     43337     43339
     43336     43337     43340     43337     43340     43341     43337     43340     43342
     43337     43340     43348     43338     43337     43339     43338     43337     43340
     43339     43337     43340     43340     43342     43343     43340     43348     43349
     43340     43348     43350     43340     43348     43351     43341     43340     43342
     43341     43340     43348     43342     43340     43348     43342     43343     43344
     43342     43343     43345     43343     43345     43346     43343     43345     43347
     43343     43345     43357     43344     43343     43345     43345     43357     43358
     43345     43357     43359     43345     43357     43360     43346     43345     43347
     43346     43345     43357     43347     43345     43357     43348     43351     43352
     43349     43348     43350     43349     43348     43351     43350     43348     43351
     43351     43352     43353     43351     43352     43354     43352     43354     43355
     43352     43354     43356     43352     43354     43404     43353     43352     43354
     43354     43404     43405     43354     43404     43406     43354     43404     43407
     43355     43354     43356     43355     43354     43404     43356     43354     43404
     43357     43360     43361     43357     43360     43362     43357     43360     43363
     43358     43357     43359     43358     43357     43360     43359     43357     43360
     43360     43363     43364     43360     43363     43365     43360     43363     43366
     43361     43360     43362     43361     43360     43363     43362     43360     43363
     43363     43366     43367     43363     43366     43368     43363     43366     43369
     43364     43363     43365     43364     43363     43366     43365     43363     43366
     43366     43369     43370     43366     43369     43371     43366     43369     43372
     43367     43366     43368     43367     43366     43369     43368     43366     43369
     43369     43372     43373     43369     43372     43374     43369     43372     43375
     43370     43369     43371     43370     43369     43372     43371     43369     43372
     43372     43375     43376     43372     43375     43377     43372     43375     43378
     43373     43372     43374     43373     43372     43375     43374     43372     43375
     43375     43378     43379     43375     43378     43380     43375     43378     43381
     43376     43375     43377     43376     43375     43378     43377     43375     43378
     43378     43381     43382     43378     43381     43383     43379     43378     43380
     43379     43378     43381     43380     43378     43381     43381     43383     43384
     43381     43383     43385     43382     43381     43383     43383     43385     43386
     43383     43385     43387     43383     43385     43388     43384     43383     43385
     43385     43388     43389     43385     43388     43390     43385     43388     43391
     43386     43385     43387     43386     43385     43388     43387     43385     43388
     43388     43391     43392     43388     43391     43393     43388     43391     43394
     43389     43388     43390     43389     43388     43391     43390     43388     43391
     43391     43394     43395     43391     43394     43396     43391     43394     43397
     43392     43391     43393     43392     43391     43394     43393     43391     43394
     43394     43397     43398     43394     43397     43399     43394     43397     43400
     43395     43394     43396     43395     43394     43397     43396     43394     43397
     43397     43400     43401     43397     43400     43402     43397     43400     43403
     43398     43397     43399     43398     43397     43400     43399     43397     43400
     43401     43400     43402     43401     43400     43403     43402     43400     43403
     43404     43407     43408     43404     43407     43409     43404     43407     43410
     43405     43404     43406     43405     43404     43407     43406     43404     43407
     43407     43410     43411     43407     43410     43412     43407     43410     43413
     43408     43407     43409     43408     43407     43410     43409     43407     43410
     43410     43413     43414     43410     43413     43415     43410     43413     43416
     43411     43410     43412     43411     43410     43413     43412     43410     43413
     43413     43416     43417     43413     43416     43418     43413     43416     43419
     43414     43413     43415     43414     43413     43416     43415     43413     43416
     43416     43419     43420     43416     43419     43421     43416     43419     43422
     43417     43416     43418     43417     43416     43419     43418     43416     43419
     43419     43422     43423     43419     43422     43424     43419     43422     43425
     43420     43419     43421     43420     43419     43422     43421     43419     43422
     43422     43425     43426     43422     43425     43427     43422     43425     43428
     43423     43422     43424     43423     43422     43425     43424     43422     43425
     43425     43428     43429     43425     43428     43430     43425     43428     43431
     43426     43425     43427     43426     43425     43428     43427     43425     43428
     43428     43431     43432     43428     43431     43433     43428     43431     43434
     43429     43428     43430     43429     43428     43431     43430     43428     43431
     43431     43434     43435     43431     43434     43436     43431     43434     43437
     43432     43431     43433     43432     43431     43434     43433     43431     43434
     43434     43437     43438     43434     43437     43439     43434     43437     43440
     43435     43434     43436     43435     43434     43437     43436     43434     43437
     43437     43440     43441     43437     43440     43442     43437     43440     43443
     43438     43437     43439     43438     43437     43440     43439     43437     43440
     43440     43443     43444     43440     43443     43445     43440     43443     43446
     43441     43440     43442     43441     43440     43443     43442     43440     43443
     43444     43443     43445     43444     43443     43446     43445     43443     43446
     43447     43451     43452     43447     43451     43453     43447     43451     43454
     43448     43447     43449     43448     43447     43450     43448     43447     43451
     43449     43447     43450     43449     43447     43451     43450     43447     43451
     43451     43454     43455     43451     43454     43456     43451     43454     43461
     43452     43451     43453     43452     43451     43454     43453     43451     43454
     43454     43461     43457     43455     43454     43456     43455     43454     43461
     43456     43454     43461     43457     43460     43462     43458     43457     43459
     43458     43457     43460     43458     43457     43461     43459     43457     43460
     43459     43457     43461     43460     43457     43461     43460     43462     43463
     43460     43462     43464     43460     43462     43465     43462     43465     43466
     43462     43465     43467     43462     43465     43473     43463     43462     43464
     43463     43462     43465     43464     43462     43465     43465     43467     43468
     43465     43473     43474     43465     43473     43475     43465     43473     43476
     43466     43465     43467     43466     43465     43473     43467     43465     43473
     43467     43468     43469     43467     43468     43470     43468     43470     43471
     43468     43470     43472     43468     43470     43482     43469     43468     43470
     43470     43482     43483     43470     43482     43484     43470     43482     43485
     43471     43470     43472     43471     43470     43482     43472     43470     43482
     43473     43476     43477     43474     43473     43475     43474     43473     43476
     43475     43473     43476     43476     43477     43478     43476     43477     43479
     43477     43479     43480     43477     43479     43481     43477     43479     43523
     43478     43477     43479     43479     43523     43524     43479     43523     43525
     43479     43523     43526     43480     43479     43481     43480     43479     43523
     43481     43479     43523     43482     43485     43486     43482     43485     43487
     43482     43485     43488     43483     43482     43484     43483     43482     43485
     43484     43482     43485     43485     43488     43489     43485     43488     43490
     43485     43488     43491     43486     43485     43487     43486     43485     43488
     43487     43485     43488     43488     43491     43492     43488     43491     43493
     43488     43491     43494     43489     43488     43490     43489     43488     43491
     43490     43488     43491     43491     43494     43495     43491     43494     43496
     43491     43494     43497     43492     43491     43493     43492     43491     43494
     43493     43491     43494     43494     43497     43498     43494     43497     43499
     43494     43497     43500     43495     43494     43496     43495     43494     43497
     43496     43494     43497     43497     43500     43501     43497     43500     43502
     43498     43497     43499     43498     43497     43500     43499     43497     43500
     43500     43502     43503     43500     43502     43504     43501     43500     43502
     43502     43504     43505     43502     43504     43506     43502     43504     43507
     43503     43502     43504     43504     43507     43508     43504     43507     43509
     43504     43507     43510     43505     43504     43506     43505     43504     43507
     43506     43504     43507     43507     43510     43511     43507     43510     43512
     43507     43510     43513     43508     43507     43509     43508     43507     43510
     43509     43507     43510     43510     43513     43514     43510     43513     43515
     43510     43513     43516     43511     43510     43512     43511     43510     43513
     43512     43510     43513     43513     43516     43517     43513     43516     43518
     43513     43516     43519     43514     43513     43515     43514     43513     43516
     43515     43513     43516     43516     43519     43520     43516     43519     43521
     43516     43519     43522     43517     43516     43518     43517     43516     43519
     43518     43516     43519     43520     43519     43521     43520     43519     43522
     43521     43519     43522     43523     43526     43527     43523     43526     43528
     43523     43526     43529     43524     43523     43525     43524     43523     43526
     43525     43523     43526     43526     43529     43530     43526     43529     43531
     43526     43529     43532     43527     43526     43528     43527     43526     43529
     43528     43526     43529     43529     43532     43533     43529     43532     43534
     43529     43532     43535     43530     43529     43531     43530     43529     43532
     43531     43529     43532     43532     43535     43536     43532     43535     43537
     43532     43535     43538     43533     43532     43534     43533     43532     43535
     43534     43532     43535     43535     43538     43539     43535     43538     43540
     43535     43538     43541     43536     43535     43537     43536     43535     43538
     43537     43535     43538     43538     43541     43542     43538     43541     43543
     43538     43541     43544     43539     43538     43540     43539     43538     43541
     43540     43538     43541     43541     43544     43545     43541     43544     43546
     43541     43544     43547     43542     43541     43543     43542     43541     43544
     43543     43541     43544     43544     43547     43548     43544     43547     43549
     43544     43547     43550     43545     43544     43546     43545     43544     43547
     43546     43544     43547     43547     43550     43551     43547     43550     43552
     43547     43550     43553     43548     43547     43549     43548     43547     43550
     43549     43547     43550     43550     43553     43554     43550     43553     43555
     43550     43553     43556     43551     43550     43552     43551     43550     43553
     43552     43550     43553     43553     43556     43557     43553     43556     43558
     43553     43556     43559     43554     43553     43555     43554     43553     43556
     43555     43553     43556     43556     43559     43560     43556     43559     43561
     43556     43559     43562     43557     43556     43558     43557     43556     43559
     43558     43556     43559     43559     43562     43563     43559     43562     43564
     43559     43562     43565     43560     43559     43561     43560     43559     43562
     43561     43559     43562     43563     43562     43564     43563     43562     43565
     43564     43562     43565     43566     43569     43570     43566     43571     43572
     43566     43571     43573     43566     43571     43575     43567     43566     43568
     43567     43566     43569     43567     43566     43571     43568     43566     43569
     43568     43566     43571     43569     43566     43571     43571     43573     43574
     43571     43575     43576     43571     43575     43577     43571     43575     43581
     43572     43571     43573     43572     43571     43575     43573     43571     43575
     43575     43581     43578     43576     43575     43577     43576     43575     43581
     43577     43575     43581     43578     43582     43583     43579     43578     43580
     43579     43578     43581     43579     43578     43582     43580     43578     43581
     43580     43578     43582     43581     43578     43582     43582     43583     43584
     43582     43583     43585     43582     43583     43586     43583     43586     43587
     43583     43586     43588     43583     43586     43594     43584     43583     43585
     43584     43583     43586     43585     43583     43586     43586     43588     43589
     43586     43594     43595     43586     43594     43596     43586     43594     43597
     43587     43586     43588     43587     43586     43594     43588     43586     43594
     43588     43589     43590     43588     43589     43591     43589     43591     43592
     43589     43591     43593     43589     43591     43603     43590     43589     43591
     43591     43603     43604     43591     43603     43605     43591     43603     43606
     43592     43591     43593     43592     43591     43603     43593     43591     43603
     43594     43597     43598     43595     43594     43596     43595     43594     43597
     43596     43594     43597     43597     43598     43599     43597     43598     43600
     43598     43600     43601     43598     43600     43602     43598     43600     43650
     43599     43598     43600     43600     43650     43651     43600     43650     43652
     43600     43650     43653     43601     43600     43602     43601     43600     43650
     43602     43600     43650     43603     43606     43607     43603     43606     43608
     43603     43606     43609     43604     43603     43605     43604     43603     43606
     43605     43603     43606     43606     43609     43610     43606     43609     43611
     43606     43609     43612     43607     43606     43608     43607     43606     43609
     43608     43606     43609     43609     43612     43613     43609     43612     43614
     43609     43612     43615     43610     43609     43611     43610     43609     43612
     43611     43609     43612     43612     43615     43616     43612     43615     43617
     43612     43615     43618     43613     43612     43614     43613     43612     43615
     43614     43612     43615     43615     43618     43619     43615     43618     43620
     43615     43618     43621     43616     43615     43617     43616     43615     43618
     43617     43615     43618     43618     43621     43622     43618     43621     43623
     43618     43621     43624     43619     43618     43620     43619     43618     43621
     43620     43618     43621     43621     43624     43625     43621     43624     43626
     43621     43624     43627     43622     43621     43623     43622     43621     43624
     43623     43621     43624     43624     43627     43628     43624     43627     43629
     43625     43624     43626     43625     43624     43627     43626     43624     43627
     43627     43629     43630     43627     43629     43631     43628     43627     43629
     43629     43631     43632     43629     43631     43633     43629     43631     43634
     43630     43629     43631     43631     43634     43635     43631     43634     43636
     43631     43634     43637     43632     43631     43633     43632     43631     43634
     43633     43631     43634     43634     43637     43638     43634     43637     43639
     43634     43637     43640     43635     43634     43636     43635     43634     43637
     43636     43634     43637     43637     43640     43641     43637     43640     43642
     43637     43640     43643     43638     43637     43639     43638     43637     43640
     43639     43637     43640     43640     43643     43644     43640     43643     43645
     43640     43643     43646     43641     43640     43642     43641     43640     43643
     43642     43640     43643     43643     43646     43647     43643     43646     43648
     43643     43646     43649     43644     43643     43645     43644     43643     43646
     43645     43643     43646     43647     43646     43648     43647     43646     43649
     43648     43646     43649     43650     43653     43654     43650     43653     43655
     43650     43653     43656     43651     43650     43652     43651     43650     43653
     43652     43650     43653     43653     43656     43657     43653     43656     43658
     43653     43656     43659     43654     43653     43655     43654     43653     43656
     43655     43653     43656     43656     43659     43660     43656     43659     43661
     43656     43659     43662     43657     43656     43658     43657     43656     43659
     43658     43656     43659     43659     43662     43663     43659     43662     43664
     43659     43662     43665     43660     43659     43661     43660     43659     43662
     43661     43659     43662     43662     43665     43666     43662     43665     43667
     43662     43665     43668     43663     43662     43664     43663     43662     43665
     43664     43662     43665     43665     43668     43669     43665     43668     43670
     43665     43668     43671     43666     43665     43667     43666     43665     43668
     43667     43665     43668     43668     43671     43672     43668     43671     43673
     43668     43671     43674     43669     43668     43670     43669     43668     43671
     43670     43668     43671     43671     43674     43675     43671     43674     43676
     43671     43674     43677     43672     43671     43673     43672     43671     43674
     43673     43671     43674     43674     43677     43678     43674     43677     43679
     43674     43677     43680     43675     43674     43676     43675     43674     43677
     43676     43674     43677     43677     43680     43681     43677     43680     43682
     43677     43680     43683     43678     43677     43679     43678     43677     43680
     43679     43677     43680     43680     43683     43684     43680     43683     43685
     43680     43683     43686     43681     43680     43682     43681     43680     43683
     43682     43680     43683     43683     43686     43687     43683     43686     43688
     43683     43686     43689     43684     43683     43685     43684     43683     43686
     43685     43683     43686     43686     43689     43690     43686     43689     43691
     43686     43689     43692     43687     43686     43688     43687     43686     43689
     43688     43686     43689     43690     43689     43691     43690     43689     43692
     43691     43689     43692     43693     43697     43698     43693     43697     43699
     43693     43697     43700     43694     43693     43695     43694     43693     43696
     43694     43693     43697     43695     43693     43696     43695     43693     43697
     43696     43693     43697     43697     43700     43701     43697     43700     43702
     43697     43700     43707     43698     43697     43699     43698     43697     43700
     43699     43697     43700     43700     43707     43703     43701     43700     43702
     43701     43700     43707     43702     43700     43707     43703     43706     43708
     43704     43703     43705     43704     43703     43706     43704     43703     43707
     43705     43703     43706     43705     43703     43707     43706     43703     43707
     43706     43708     43709     43706     43708     43710     43706     43708     43711
     43708     43711     43712     43708     43711     43713     43708     43711     43719
     43709     43708     43710     43709     43708     43711     43710     43708     43711
     43711     43713     43714     43711     43719     43720     43711     43719     43721
     43711     43719     43722     43712     43711     43713     43712     43711     43719
     43713     43711     43719     43713     43714     43715     43713     43714     43716
     43714     43716     43717     43714     43716     43718     43714     43716     43728
     43715     43714     43716     43716     43728     43729     43716     43728     43730
     43716     43728     43731     43717     43716     43718     43717     43716     43728
     43718     43716     43728     43719     43722     43723     43720     43719     43721
     43720     43719     43722     43721     43719     43722     43722     43723     43724
     43722     43723     43725     43723     43725     43726     43723     43725     43727
     43723     43725     43769     43724     43723     43725     43725     43769     43770
     43725     43769     43771     43725     43769     43772     43726     43725     43727
     43726     43725     43769     43727     43725     43769     43728     43731     43732
     43728     43731     43733     43728     43731     43734     43729     43728     43730
     43729     43728     43731     43730     43728     43731     43731     43734     43735
     43731     43734     43736     43731     43734     43737     43732     43731     43733
     43732     43731     43734     43733     43731     43734     43734     43737     43738
     43734     43737     43739     43734     43737     43740     43735     43734     43736
     43735     43734     43737     43736     43734     43737     43737     43740     43741
     43737     43740     43742     43737     43740     43743     43738     43737     43739
     43738     43737     43740     43739     43737     43740     43740     43743     43744
     43740     43743     43745     43740     43743     43746     43741     43740     43742
     43741     43740     43743     43742     43740     43743     43743     43746     43747
     43743     43746     43748     43744     43743     43745     43744     43743     43746
     43745     43743     43746     43746     43748     43749     43746     43748     43750
     43747     43746     43748     43748     43750     43751     43748     43750     43752
     43748     43750     43753     43749     43748     43750     43750     43753     43754
     43750     43753     43755     43750     43753     43756     43751     43750     43752
     43751     43750     43753     43752     43750     43753     43753     43756     43757
     43753     43756     43758     43753     43756     43759     43754     43753     43755
     43754     43753     43756     43755     43753     43756     43756     43759     43760
     43756     43759     43761     43756     43759     43762     43757     43756     43758
     43757     43756     43759     43758     43756     43759     43759     43762     43763
     43759     43762     43764     43759     43762     43765     43760     43759     43761
     43760     43759     43762     43761     43759     43762     43762     43765     43766
     43762     43765     43767     43762     43765     43768     43763     43762     43764
     43763     43762     43765     43764     43762     43765     43766     43765     43767
     43766     43765     43768     43767     43765     43768     43769     43772     43773
     43769     43772     43774     43769     43772     43775     43770     43769     43771
     43770     43769     43772     43771     43769     43772     43772     43775     43776
     43772     43775     43777     43772     43775     43778     43773     43772     43774
     43773     43772     43775     43774     43772     43775     43775     43778     43779
     43775     43778     43780     43775     43778     43781     43776     43775     43777
     43776     43775     43778     43777     43775     43778     43778     43781     43782
     43778     43781     43783     43778     43781     43784     43779     43778     43780
     43779     43778     43781     43780     43778     43781     43781     43784     43785
     43781     43784     43786     43781     43784     43787     43782     43781     43783
     43782     43781     43784     43783     43781     43784     43784     43787     43788
     43784     43787     43789     43784     43787     43790     43785     43784     43786
     43785     43784     43787     43786     43784     43787     43787     43790     43791
     43787     43790     43792     43787     43790     43793     43788     43787     43789
     43788     43787     43790     43789     43787     43790     43790     43793     43794
     43790     43793     43795     43790     43793     43796     43791     43790     43792
     43791     43790     43793     43792     43790     43793     43793     43796     43797
     43793     43796     43798     43793     43796     43799     43794     43793     43795
     43794     43793     43796     43795     43793     43796     43796     43799     43800
     43796     43799     43801     43796     43799     43802     43797     43796     43798
     43797     43796     43799     43798     43796     43799     43799     43802     43803
     43799     43802     43804     43799     43802     43805     43800     43799     43801
     43800     43799     43802     43801     43799     43802     43802     43805     43806
     43802     43805     43807     43802     43805     43808     43803     43802     43804
     43803     43802     43805     43804     43802     43805     43805     43808     43809
     43805     43808     43810     43805     43808     43811     43806     43805     43807
     43806     43805     43808     43807     43805     43808     43809     43808     43810
     43809     43808     43811     43810     43808     43811     43812     43816     43817
     43812     43816     43818     43812     43816     43819     43813     43812     43814
     43813     43812     43815     43813     43812     43816     43814     43812     43815
     43814     43812     43816     43815     43812     43816     43816     43819     43820
     43816     43819     43821     43816     43819     43826     43817     43816     43818
     43817     43816     43819     43818     43816     43819     43819     43826     43822
     43820     43819     43821     43820     43819     43826     43821     43819     43826
     43822     43825     43827     43823     43822     43824     43823     43822     43825
     43823     43822     43826     43824     43822     43825     43824     43822     43826
     43825     43822     43826     43825     43827     43828     43825     43827     43829
     43825     43827     43830     43827     43830     43831     43827     43830     43832
     43827     43830     43838     43828     43827     43829     43828     43827     43830
     43829     43827     43830     43830     43832     43833     43830     43838     43839
     43830     43838     43840     43830     43838     43841     43831     43830     43832
     43831     43830     43838     43832     43830     43838     43832     43833     43834
     43832     43833     43835     43833     43835     43836     43833     43835     43837
     43833     43835     43847     43834     43833     43835     43835     43847     43848
     43835     43847     43849     43835     43847     43850     43836     43835     43837
     43836     43835     43847     43837     43835     43847     43838     43841     43842
     43839     43838     43840     43839     43838     43841     43840     43838     43841
     43841     43842     43843     43841     43842     43844     43842     43844     43845
     43842     43844     43846     43842     43844     43888     43843     43842     43844
     43844     43888     43889     43844     43888     43890     43844     43888     43891
     43845     43844     43846     43845     43844     43888     43846     43844     43888
     43847     43850     43851     43847     43850     43852     43847     43850     43853
     43848     43847     43849     43848     43847     43850     43849     43847     43850
     43850     43853     43854     43850     43853     43855     43850     43853     43856
     43851     43850     43852     43851     43850     43853     43852     43850     43853
     43853     43856     43857     43853     43856     43858     43853     43856     43859
     43854     43853     43855     43854     43853     43856     43855     43853     43856
     43856     43859     43860     43856     43859     43861     43856     43859     43862
     43857     43856     43858     43857     43856     43859     43858     43856     43859
     43859     43862     43863     43859     43862     43864     43859     43862     43865
     43860     43859     43861     43860     43859     43862     43861     43859     43862
     43862     43865     43866     43862     43865     43867     43863     43862     43864
     43863     43862     43865     43864     43862     43865     43865     43867     43868
     43865     43867     43869     43866     43865     43867     43867     43869     43870
     43867     43869     43871     43867     43869     43872     43868     43867     43869
     43869     43872     43873     43869     43872     43874     43869     43872     43875
     43870     43869     43871     43870     43869     43872     43871     43869     43872
     43872     43875     43876     43872     43875     43877     43872     43875     43878
     43873     43872     43874     43873     43872     43875     43874     43872     43875
     43875     43878     43879     43875     43878     43880     43875     43878     43881
     43876     43875     43877     43876     43875     43878     43877     43875     43878
     43878     43881     43882     43878     43881     43883     43878     43881     43884
     43879     43878     43880     43879     43878     43881     43880     43878     43881
     43881     43884     43885     43881     43884     43886     43881     43884     43887
     43882     43881     43883     43882     43881     43884     43883     43881     43884
     43885     43884     43886     43885     43884     43887     43886     43884     43887
     43888     43891     43892     43888     43891     43893     43888     43891     43894
     43889     43888     43890     43889     43888     43891     43890     43888     43891
     43891     43894     43895     43891     43894     43896     43891     43894     43897
     43892     43891     43893     43892     43891     43894     43893     43891     43894
     43894     43897     43898     43894     43897     43899     43894     43897     43900
     43895     43894     43896     43895     43894     43897     43896     43894     43897
     43897     43900     43901     43897     43900     43902     43897     43900     43903
     43898     43897     43899     43898     43897     43900     43899     43897     43900
     43900     43903     43904     43900     43903     43905     43900     43903     43906
     43901     43900     43902     43901     43900     43903     43902     43900     43903
     43903     43906     43907     43903     43906     43908     43903     43906     43909
     43904     43903     43905     43904     43903     43906     43905     43903     43906
     43906     43909     43910     43906     43909     43911     43906     43909     43912
     43907     43906     43908     43907     43906     43909     43908     43906     43909
     43909     43912     43913     43909     43912     43914     43909     43912     43915
     43910     43909     43911     43910     43909     43912     43911     43909     43912
     43912     43915     43916     43912     43915     43917     43912     43915     43918
     43913     43912     43914     43913     43912     43915     43914     43912     43915
     43915     43918     43919     43915     43918     43920     43915     43918     43921
     43916     43915     43917     43916     43915     43918     43917     43915     43918
     43918     43921     43922     43918     43921     43923     43918     43921     43924
     43919     43918     43920     43919     43918     43921     43920     43918     43921
     43921     43924     43925     43921     43924     43926     43921     43924     43927
     43922     43921     43923     43922     43921     43924     43923     43921     43924
     43924     43927     43928     43924     43927     43929     43924     43927     43930
     43925     43924     43926     43925     43924     43927     43926     43924     43927
     43928     43927     43929     43928     43927     43930     43929     43927     43930
     43931     43937     43934     43931     43942     43943     43931     43942     43944
     43931     43942     43946     43932     43931     43933     43932     43931     43937
     43932     43931     43942     43933     43931     43937     43933     43931     43942
     43934     43938     43939     43935     43934     43936     43935     43934     43937
     43935     43934     43938     43936     43934     43937     43936     43934     43938
     43937     43931     43942     43937     43934     43938     43938     43939     43940
     43938     43939     43941     43938     43939     43974     43939     43974     43975
     43939     43974     43976     43939     43974     43982     43940     43939     43941
     43940     43939     43974     43941     43939     43974     43942     43944     43945
     43942     43946     43947     43942     43946     43948     43942     43946     43952
     43943     43942     43944     43943     43942     43946     43944     43942     43946
     43946     43952     43949     43947     43946     43948     43947     43946     43952
     43948     43946     43952     43949     43953     43954     43950     43949     43951
     43950     43949     43952     43950     43949     43953     43951     43949     43952
     43951     43949     43953     43952     43949     43953     43953     43954     43955
     43953     43954     43956     43953     43954     43957     43954     43957     43958
     43954     43957     43959     43954     43957     43965     43955     43954     43956
     43955     43954     43957     43956     43954     43957     43957     43959     43960
     43957     43965     43966     43957     43965     43967     43957     43965     43968
     43958     43957     43959     43958     43957     43965     43959     43957     43965
     43959     43960     43961     43959     43960     43962     43960     43962     43963
     43960     43962     43964     43960     43962     43991     43961     43960     43962
     43962     43991     43992     43962     43991     43993     43962     43991     43994
     43963     43962     43964     43963     43962     43991     43964     43962     43991
     43965     43968     43969     43966     43965     43967     43966     43965     43968
     43967     43965     43968     43968     43969     43970     43968     43969     43971
     43969     43971     43972     43969     43971     43973     43969     43971     44038
     43970     43969     43971     43971     44038     44039     43971     44038     44040
     43971     44038     44041     43972     43971     43973     43972     43971     44038
     43973     43971     44038     43974     43976     43977     43974     43982     43983
     43974     43982     43984     43974     43982     43985     43975     43974     43976
     43975     43974     43982     43976     43974     43982     43976     43977     43978
     43976     43977     43979     43977     43979     43980     43977     43979     43981
     43977     43979     44081     43978     43977     43979     43979     44081     44082
     43979     44081     44083     43979     44081     44084     43980     43979     43981
     43980     43979     44081     43981     43979     44081     43982     43985     43986
     43983     43982     43984     43983     43982     43985     43984     43982     43985
     43985     43986     43987     43985     43986     43988     43986     43988     43989
     43986     43988     43990     43986     43988     44128     43987     43986     43988
     43988     44128     44129     43988     44128     44130     43988     44128     44131
     43989     43988     43990     43989     43988     44128     43990     43988     44128
     43991     43994     43995     43991     43994     43996     43991     43994     43997
     43992     43991     43993     43992     43991     43994     43993     43991     43994
     43994     43997     43998     43994     43997     43999     43994     43997     44000
     43995     43994     43996     43995     43994     43997     43996     43994     43997
     43997     44000     44001     43997     44000     44002     43997     44000     44003
     43998     43997     43999     43998     43997     44000     43999     43997     44000
     44000     44003     44004     44000     44003     44005     44000     44003     44006
     44001     44000     44002     44001     44000     44003     44002     44000     44003
     44003     44006     44007     44003     44006     44008     44003     44006     44009
     44004     44003     44005     44004     44003     44006     44005     44003     44006
     44006     44009     44010     44006     44009     44011     44006     44009     44012
     44007     44006     44008     44007     44006     44009     44008     44006     44009
     44009     44012     44013     44009     44012     44014     44009     44012     44015
     44010     44009     44011     44010     44009     44012     44011     44009     44012
     44012     44015     44016     44012     44015     44017     44013     44012     44014
     44013     44012     44015     44014     44012     44015     44015     44017     44018
     44015     44017     44019     44016     44015     44017     44017     44019     44020
     44017     44019     44021     44017     44019     44022     44018     44017     44019
     44019     44022     44023     44019     44022     44024     44019     44022     44025
     44020     44019     44021     44020     44019     44022     44021     44019     44022
     44022     44025     44026     44022     44025     44027     44022     44025     44028
     44023     44022     44024     44023     44022     44025     44024     44022     44025
     44025     44028     44029     44025     44028     44030     44025     44028     44031
     44026     44025     44027     44026     44025     44028     44027     44025     44028
     44028     44031     44032     44028     44031     44033     44028     44031     44034
     44029     44028     44030     44029     44028     44031     44030     44028     44031
     44031     44034     44035     44031     44034     44036     44031     44034     44037
     44032     44031     44033     44032     44031     44034     44033     44031     44034
     44035     44034     44036     44035     44034     44037     44036     44034     44037
     44038     44041     44042     44038     44041     44043     44038     44041     44044
     44039     44038     44040     44039     44038     44041     44040     44038     44041
     44041     44044     44045     44041     44044     44046     44041     44044     44047
     44042     44041     44043     44042     44041     44044     44043     44041     44044
     44044     44047     44048     44044     44047     44049     44044     44047     44050
     44045     44044     44046     44045     44044     44047     44046     44044     44047
     44047     44050     44051     44047     44050     44052     44047     44050     44053
     44048     44047     44049     44048     44047     44050     44049     44047     44050
     44050     44053     44054     44050     44053     44055     44050     44053     44056
     44051     44050     44052     44051     44050     44053     44052     44050     44053
     44053     44056     44057     44053     44056     44058     44053     44056     44059
     44054     44053     44055     44054     44053     44056     44055     44053     44056
     44056     44059     44060     44056     44059     44061     44056     44059     44062
     44057     44056     44058     44057     44056     44059     44058     44056     44059
     44059     44062     44063     44059     44062     44064     44059     44062     44065
     44060     44059     44061     44060     44059     44062     44061     44059     44062
     44062     44065     44066     44062     44065     44067     44062     44065     44068
     44063     44062     44064     44063     44062     44065     44064     44062     44065
     44065     44068     44069     44065     44068     44070     44065     44068     44071
     44066     44065     44067     44066     44065     44068     44067     44065     44068
     44068     44071     44072     44068     44071     44073     44068     44071     44074
     44069     44068     44070     44069     44068     44071     44070     44068     44071
     44071     44074     44075     44071     44074     44076     44071     44074     44077
     44072     44071     44073     44072     44071     44074     44073     44071     44074
     44074     44077     44078     44074     44077     44079     44074     44077     44080
     44075     44074     44076     44075     44074     44077     44076     44074     44077
     44078     44077     44079     44078     44077     44080     44079     44077     44080
     44081     44084     44085     44081     44084     44086     44081     44084     44087
     44082     44081     44083     44082     44081     44084     44083     44081     44084
     44084     44087     44088     44084     44087     44089     44084     44087     44090
     44085     44084     44086     44085     44084     44087     44086     44084     44087
     44087     44090     44091     44087     44090     44092     44087     44090     44093
     44088     44087     44089     44088     44087     44090     44089     44087     44090
     44090     44093     44094     44090     44093     44095     44090     44093     44096
     44091     44090     44092     44091     44090     44093     44092     44090     44093
     44093     44096     44097     44093     44096     44098     44093     44096     44099
     44094     44093     44095     44094     44093     44096     44095     44093     44096
     44096     44099     44100     44096     44099     44101     44096     44099     44102
     44097     44096     44098     44097     44096     44099     44098     44096     44099
     44099     44102     44103     44099     44102     44104     44099     44102     44105
     44100     44099     44101     44100     44099     44102     44101     44099     44102
     44102     44105     44106     44102     44105     44107     44103     44102     44104
     44103     44102     44105     44104     44102     44105     44105     44107     44108
     44105     44107     44109     44106     44105     44107     44107     44109     44110
     44107     44109     44111     44107     44109     44112     44108     44107     44109
     44109     44112     44113     44109     44112     44114     44109     44112     44115
     44110     44109     44111     44110     44109     44112     44111     44109     44112
     44112     44115     44116     44112     44115     44117     44112     44115     44118
     44113     44112     44114     44113     44112     44115     44114     44112     44115
     44115     44118     44119     44115     44118     44120     44115     44118     44121
     44116     44115     44117     44116     44115     44118     44117     44115     44118
     44118     44121     44122     44118     44121     44123     44118     44121     44124
     44119     44118     44120     44119     44118     44121     44120     44118     44121
     44121     44124     44125     44121     44124     44126     44121     44124     44127
     44122     44121     44123     44122     44121     44124     44123     44121     44124
     44125     44124     44126     44125     44124     44127     44126     44124     44127
     44128     44131     44132     44128     44131     44133     44128     44131     44134
     44129     44128     44130     44129     44128     44131     44130     44128     44131
     44131     44134     44135     44131     44134     44136     44131     44134     44137
     44132     44131     44133     44132     44131     44134     44133     44131     44134
     44134     44137     44138     44134     44137     44139     44134     44137     44140
     44135     44134     44136     44135     44134     44137     44136     44134     44137
     44137     44140     44141     44137     44140     44142     44137     44140     44143
     44138     44137     44139     44138     44137     44140     44139     44137     44140
     44140     44143     44144     44140     44143     44145     44140     44143     44146
     44141     44140     44142     44141     44140     44143     44142     44140     44143
     44143     44146     44147     44143     44146     44148     44143     44146     44149
     44144     44143     44145     44144     44143     44146     44145     44143     44146
     44146     44149     44150     44146     44149     44151     44146     44149     44152
     44147     44146     44148     44147     44146     44149     44148     44146     44149
     44149     44152     44153     44149     44152     44154     44149     44152     44155
     44150     44149     44151     44150     44149     44152     44151     44149     44152
     44152     44155     44156     44152     44155     44157     44152     44155     44158
     44153     44152     44154     44153     44152     44155     44154     44152     44155
     44155     44158     44159     44155     44158     44160     44155     44158     44161
     44156     44155     44157     44156     44155     44158     44157     44155     44158
     44158     44161     44162     44158     44161     44163     44158     44161     44164
     44159     44158     44160     44159     44158     44161     44160     44158     44161
     44161     44164     44165     44161     44164     44166     44161     44164     44167
     44162     44161     44163     44162     44161     44164     44163     44161     44164
     44164     44167     44168     44164     44167     44169     44164     44167     44170
     44165     44164     44166     44165     44164     44167     44166     44164     44167
     44168     44167     44169     44168     44167     44170     44169     44167     44170
     44171     44175     44176     44171     44175     44177     44171     44175     44178
     44172     44171     44173     44172     44171     44174     44172     44171     44175
     44173     44171     44174     44173     44171     44175     44174     44171     44175
     44175     44178     44179     44175     44178     44180     44175     44178     44185
     44176     44175     44177     44176     44175     44178     44177     44175     44178
     44178     44185     44181     44179     44178     44180     44179     44178     44185
     44180     44178     44185     44181     44184     44186     44182     44181     44183
     44182     44181     44184     44182     44181     44185     44183     44181     44184
     44183     44181     44185     44184     44181     44185     44184     44186     44187
     44184     44186     44188     44184     44186     44189     44186     44189     44190
     44186     44189     44191     44186     44189     44197     44187     44186     44188
     44187     44186     44189     44188     44186     44189     44189     44191     44192
     44189     44197     44198     44189     44197     44199     44189     44197     44200
     44190     44189     44191     44190     44189     44197     44191     44189     44197
     44191     44192     44193     44191     44192     44194     44192     44194     44195
     44192     44194     44196     44192     44194     44206     44193     44192     44194
     44194     44206     44207     44194     44206     44208     44194     44206     44209
     44195     44194     44196     44195     44194     44206     44196     44194     44206
     44197     44200     44201     44198     44197     44199     44198     44197     44200
     44199     44197     44200     44200     44201     44202     44200     44201     44203
     44201     44203     44204     44201     44203     44205     44201     44203     44247
     44202     44201     44203     44203     44247     44248     44203     44247     44249
     44203     44247     44250     44204     44203     44205     44204     44203     44247
     44205     44203     44247     44206     44209     44210     44206     44209     44211
     44206     44209     44212     44207     44206     44208     44207     44206     44209
     44208     44206     44209     44209     44212     44213     44209     44212     44214
     44209     44212     44215     44210     44209     44211     44210     44209     44212
     44211     44209     44212     44212     44215     44216     44212     44215     44217
     44212     44215     44218     44213     44212     44214     44213     44212     44215
     44214     44212     44215     44215     44218     44219     44215     44218     44220
     44215     44218     44221     44216     44215     44217     44216     44215     44218
     44217     44215     44218     44218     44221     44222     44218     44221     44223
     44218     44221     44224     44219     44218     44220     44219     44218     44221
     44220     44218     44221     44221     44224     44225     44221     44224     44226
     44222     44221     44223     44222     44221     44224     44223     44221     44224
     44224     44226     44227     44224     44226     44228     44225     44224     44226
     44226     44228     44229     44226     44228     44230     44226     44228     44231
     44227     44226     44228     44228     44231     44232     44228     44231     44233
     44228     44231     44234     44229     44228     44230     44229     44228     44231
     44230     44228     44231     44231     44234     44235     44231     44234     44236
     44231     44234     44237     44232     44231     44233     44232     44231     44234
     44233     44231     44234     44234     44237     44238     44234     44237     44239
     44234     44237     44240     44235     44234     44236     44235     44234     44237
     44236     44234     44237     44237     44240     44241     44237     44240     44242
     44237     44240     44243     44238     44237     44239     44238     44237     44240
     44239     44237     44240     44240     44243     44244     44240     44243     44245
     44240     44243     44246     44241     44240     44242     44241     44240     44243
     44242     44240     44243     44244     44243     44245     44244     44243     44246
     44245     44243     44246     44247     44250     44251     44247     44250     44252
     44247     44250     44253     44248     44247     44249     44248     44247     44250
     44249     44247     44250     44250     44253     44254     44250     44253     44255
     44250     44253     44256     44251     44250     44252     44251     44250     44253
     44252     44250     44253     44253     44256     44257     44253     44256     44258
     44253     44256     44259     44254     44253     44255     44254     44253     44256
     44255     44253     44256     44256     44259     44260     44256     44259     44261
     44256     44259     44262     44257     44256     44258     44257     44256     44259
     44258     44256     44259     44259     44262     44263     44259     44262     44264
     44259     44262     44265     44260     44259     44261     44260     44259     44262
     44261     44259     44262     44262     44265     44266     44262     44265     44267
     44262     44265     44268     44263     44262     44264     44263     44262     44265
     44264     44262     44265     44265     44268     44269     44265     44268     44270
     44265     44268     44271     44266     44265     44267     44266     44265     44268
     44267     44265     44268     44268     44271     44272     44268     44271     44273
     44268     44271     44274     44269     44268     44270     44269     44268     44271
     44270     44268     44271     44271     44274     44275     44271     44274     44276
     44271     44274     44277     44272     44271     44273     44272     44271     44274
     44273     44271     44274     44274     44277     44278     44274     44277     44279
     44274     44277     44280     44275     44274     44276     44275     44274     44277
     44276     44274     44277     44277     44280     44281     44277     44280     44282
     44277     44280     44283     44278     44277     44279     44278     44277     44280
     44279     44277     44280     44280     44283     44284     44280     44283     44285
     44280     44283     44286     44281     44280     44282     44281     44280     44283
     44282     44280     44283     44283     44286     44287     44283     44286     44288
     44283     44286     44289     44284     44283     44285     44284     44283     44286
     44285     44283     44286     44287     44286     44288     44287     44286     44289
     44288     44286     44289     44290     44294     44295     44290     44294     44296
     44290     44294     44297     44291     44290     44292     44291     44290     44293
     44291     44290     44294     44292     44290     44293     44292     44290     44294
     44293     44290     44294     44294     44297     44298     44294     44297     44299
     44294     44297     44304     44295     44294     44296     44295     44294     44297
     44296     44294     44297     44297     44304     44300     44298     44297     44299
     44298     44297     44304     44299     44297     44304     44300     44303     44305
     44301     44300     44302     44301     44300     44303     44301     44300     44304
     44302     44300     44303     44302     44300     44304     44303     44300     44304
     44303     44305     44306     44303     44305     44307     44303     44305     44308
     44305     44308     44309     44305     44308     44310     44305     44308     44316
     44306     44305     44307     44306     44305     44308     44307     44305     44308
     44308     44310     44311     44308     44316     44317     44308     44316     44318
     44308     44316     44319     44309     44308     44310     44309     44308     44316
     44310     44308     44316     44310     44311     44312     44310     44311     44313
     44311     44313     44314     44311     44313     44315     44311     44313     44325
     44312     44311     44313     44313     44325     44326     44313     44325     44327
     44313     44325     44328     44314     44313     44315     44314     44313     44325
     44315     44313     44325     44316     44319     44320     44317     44316     44318
     44317     44316     44319     44318     44316     44319     44319     44320     44321
     44319     44320     44322     44320     44322     44323     44320     44322     44324
     44320     44322     44366     44321     44320     44322     44322     44366     44367
     44322     44366     44368     44322     44366     44369     44323     44322     44324
     44323     44322     44366     44324     44322     44366     44325     44328     44329
     44325     44328     44330     44325     44328     44331     44326     44325     44327
     44326     44325     44328     44327     44325     44328     44328     44331     44332
     44328     44331     44333     44328     44331     44334     44329     44328     44330
     44329     44328     44331     44330     44328     44331     44331     44334     44335
     44331     44334     44336     44331     44334     44337     44332     44331     44333
     44332     44331     44334     44333     44331     44334     44334     44337     44338
     44334     44337     44339     44334     44337     44340     44335     44334     44336
     44335     44334     44337     44336     44334     44337     44337     44340     44341
     44337     44340     44342     44337     44340     44343     44338     44337     44339
     44338     44337     44340     44339     44337     44340     44340     44343     44344
     44340     44343     44345     44341     44340     44342     44341     44340     44343
     44342     44340     44343     44343     44345     44346     44343     44345     44347
     44344     44343     44345     44345     44347     44348     44345     44347     44349
     44345     44347     44350     44346     44345     44347     44347     44350     44351
     44347     44350     44352     44347     44350     44353     44348     44347     44349
     44348     44347     44350     44349     44347     44350     44350     44353     44354
     44350     44353     44355     44350     44353     44356     44351     44350     44352
     44351     44350     44353     44352     44350     44353     44353     44356     44357
     44353     44356     44358     44353     44356     44359     44354     44353     44355
     44354     44353     44356     44355     44353     44356     44356     44359     44360
     44356     44359     44361     44356     44359     44362     44357     44356     44358
     44357     44356     44359     44358     44356     44359     44359     44362     44363
     44359     44362     44364     44359     44362     44365     44360     44359     44361
     44360     44359     44362     44361     44359     44362     44363     44362     44364
     44363     44362     44365     44364     44362     44365     44366     44369     44370
     44366     44369     44371     44366     44369     44372     44367     44366     44368
     44367     44366     44369     44368     44366     44369     44369     44372     44373
     44369     44372     44374     44369     44372     44375     44370     44369     44371
     44370     44369     44372     44371     44369     44372     44372     44375     44376
     44372     44375     44377     44372     44375     44378     44373     44372     44374
     44373     44372     44375     44374     44372     44375     44375     44378     44379
     44375     44378     44380     44375     44378     44381     44376     44375     44377
     44376     44375     44378     44377     44375     44378     44378     44381     44382
     44378     44381     44383     44378     44381     44384     44379     44378     44380
     44379     44378     44381     44380     44378     44381     44381     44384     44385
     44381     44384     44386     44381     44384     44387     44382     44381     44383
     44382     44381     44384     44383     44381     44384     44384     44387     44388
     44384     44387     44389     44384     44387     44390     44385     44384     44386
     44385     44384     44387     44386     44384     44387     44387     44390     44391
     44387     44390     44392     44387     44390     44393     44388     44387     44389
     44388     44387     44390     44389     44387     44390     44390     44393     44394
     44390     44393     44395     44390     44393     44396     44391     44390     44392
     44391     44390     44393     44392     44390     44393     44393     44396     44397
     44393     44396     44398     44393     44396     44399     44394     44393     44395
     44394     44393     44396     44395     44393     44396     44396     44399     44400
     44396     44399     44401     44396     44399     44402     44397     44396     44398
     44397     44396     44399     44398     44396     44399     44399     44402     44403
     44399     44402     44404     44399     44402     44405     44400     44399     44401
     44400     44399     44402     44401     44399     44402     44402     44405     44406
     44402     44405     44407     44402     44405     44408     44403     44402     44404
     44403     44402     44405     44404     44402     44405     44406     44405     44407
     44406     44405     44408     44407     44405     44408     44409     44413     44414
     44409     44413     44415     44409     44413     44416     44410     44409     44411
     44410     44409     44412     44410     44409     44413     44411     44409     44412
     44411     44409     44413     44412     44409     44413     44413     44416     44417
     44413     44416     44418     44413     44416     44423     44414     44413     44415
     44414     44413     44416     44415     44413     44416     44416     44423     44419
     44417     44416     44418     44417     44416     44423     44418     44416     44423
     44419     44422     44424     44420     44419     44421     44420     44419     44422
     44420     44419     44423     44421     44419     44422     44421     44419     44423
     44422     44419     44423     44422     44424     44425     44422     44424     44426
     44422     44424     44427     44424     44427     44428     44424     44427     44429
     44424     44427     44435     44425     44424     44426     44425     44424     44427
     44426     44424     44427     44427     44429     44430     44427     44435     44436
     44427     44435     44437     44427     44435     44438     44428     44427     44429
     44428     44427     44435     44429     44427     44435     44429     44430     44431
     44429     44430     44432     44430     44432     44433     44430     44432     44434
     44430     44432     44444     44431     44430     44432     44432     44444     44445
     44432     44444     44446     44432     44444     44447     44433     44432     44434
     44433     44432     44444     44434     44432     44444     44435     44438     44439
     44436     44435     44437     44436     44435     44438     44437     44435     44438
     44438     44439     44440     44438     44439     44441     44439     44441     44442
     44439     44441     44443     44439     44441     44485     44440     44439     44441
     44441     44485     44486     44441     44485     44487     44441     44485     44488
     44442     44441     44443     44442     44441     44485     44443     44441     44485
     44444     44447     44448     44444     44447     44449     44444     44447     44450
     44445     44444     44446     44445     44444     44447     44446     44444     44447
     44447     44450     44451     44447     44450     44452     44447     44450     44453
     44448     44447     44449     44448     44447     44450     44449     44447     44450
     44450     44453     44454     44450     44453     44455     44450     44453     44456
     44451     44450     44452     44451     44450     44453     44452     44450     44453
     44453     44456     44457     44453     44456     44458     44453     44456     44459
     44454     44453     44455     44454     44453     44456     44455     44453     44456
     44456     44459     44460     44456     44459     44461     44456     44459     44462
     44457     44456     44458     44457     44456     44459     44458     44456     44459
     44459     44462     44463     44459     44462     44464     44460     44459     44461
     44460     44459     44462     44461     44459     44462     44462     44464     44465
     44462     44464     44466     44463     44462     44464     44464     44466     44467
     44464     44466     44468     44464     44466     44469     44465     44464     44466
     44466     44469     44470     44466     44469     44471     44466     44469     44472
     44467     44466     44468     44467     44466     44469     44468     44466     44469
     44469     44472     44473     44469     44472     44474     44469     44472     44475
     44470     44469     44471     44470     44469     44472     44471     44469     44472
     44472     44475     44476     44472     44475     44477     44472     44475     44478
     44473     44472     44474     44473     44472     44475     44474     44472     44475
     44475     44478     44479     44475     44478     44480     44475     44478     44481
     44476     44475     44477     44476     44475     44478     44477     44475     44478
     44478     44481     44482     44478     44481     44483     44478     44481     44484
     44479     44478     44480     44479     44478     44481     44480     44478     44481
     44482     44481     44483     44482     44481     44484     44483     44481     44484
     44485     44488     44489     44485     44488     44490     44485     44488     44491
     44486     44485     44487     44486     44485     44488     44487     44485     44488
     44488     44491     44492     44488     44491     44493     44488     44491     44494
     44489     44488     44490     44489     44488     44491     44490     44488     44491
     44491     44494     44495     44491     44494     44496     44491     44494     44497
     44492     44491     44493     44492     44491     44494     44493     44491     44494
     44494     44497     44498     44494     44497     44499     44494     44497     44500
     44495     44494     44496     44495     44494     44497     44496     44494     44497
     44497     44500     44501     44497     44500     44502     44497     44500     44503
     44498     44497     44499     44498     44497     44500     44499     44497     44500
     44500     44503     44504     44500     44503     44505     44500     44503     44506
     44501     44500     44502     44501     44500     44503     44502     44500     44503
     44503     44506     44507     44503     44506     44508     44503     44506     44509
     44504     44503     44505     44504     44503     44506     44505     44503     44506
     44506     44509     44510     44506     44509     44511     44506     44509     44512
     44507     44506     44508     44507     44506     44509     44508     44506     44509
     44509     44512     44513     44509     44512     44514     44509     44512     44515
     44510     44509     44511     44510     44509     44512     44511     44509     44512
     44512     44515     44516     44512     44515     44517     44512     44515     44518
     44513     44512     44514     44513     44512     44515     44514     44512     44515
     44515     44518     44519     44515     44518     44520     44515     44518     44521
     44516     44515     44517     44516     44515     44518     44517     44515     44518
     44518     44521     44522     44518     44521     44523     44518     44521     44524
     44519     44518     44520     44519     44518     44521     44520     44518     44521
     44521     44524     44525     44521     44524     44526     44521     44524     44527
     44522     44521     44523     44522     44521     44524     44523     44521     44524
     44525     44524     44526     44525     44524     44527     44526     44524     44527
     44528     44532     44533     44528     44532     44534     44528     44532     44535
     44529     44528     44530     44529     44528     44531     44529     44528     44532
     44530     44528     44531     44530     44528     44532     44531     44528     44532
     44532     44535     44536     44532     44535     44537     44532     44535     44542
     44533     44532     44534     44533     44532     44535     44534     44532     44535
     44535     44542     44538     44536     44535     44537     44536     44535     44542
     44537     44535     44542     44538     44541     44543     44539     44538     44540
     44539     44538     44541     44539     44538     44542     44540     44538     44541
     44540     44538     44542     44541     44538     44542     44541     44543     44544
     44541     44543     44545     44541     44543     44546     44543     44546     44547
     44543     44546     44548     44543     44546     44554     44544     44543     44545
     44544     44543     44546     44545     44543     44546     44546     44548     44549
     44546     44554     44555     44546     44554     44556     44546     44554     44557
     44547     44546     44548     44547     44546     44554     44548     44546     44554
     44548     44549     44550     44548     44549     44551     44549     44551     44552
     44549     44551     44553     44549     44551     44563     44550     44549     44551
     44551     44563     44564     44551     44563     44565     44551     44563     44566
     44552     44551     44553     44552     44551     44563     44553     44551     44563
     44554     44557     44558     44555     44554     44556     44555     44554     44557
     44556     44554     44557     44557     44558     44559     44557     44558     44560
     44558     44560     44561     44558     44560     44562     44558     44560     44604
     44559     44558     44560     44560     44604     44605     44560     44604     44606
     44560     44604     44607     44561     44560     44562     44561     44560     44604
     44562     44560     44604     44563     44566     44567     44563     44566     44568
     44563     44566     44569     44564     44563     44565     44564     44563     44566
     44565     44563     44566     44566     44569     44570     44566     44569     44571
     44566     44569     44572     44567     44566     44568     44567     44566     44569
     44568     44566     44569     44569     44572     44573     44569     44572     44574
     44569     44572     44575     44570     44569     44571     44570     44569     44572
     44571     44569     44572     44572     44575     44576     44572     44575     44577
     44572     44575     44578     44573     44572     44574     44573     44572     44575
     44574     44572     44575     44575     44578     44579     44575     44578     44580
     44575     44578     44581     44576     44575     44577     44576     44575     44578
     44577     44575     44578     44578     44581     44582     44578     44581     44583
     44579     44578     44580     44579     44578     44581     44580     44578     44581
     44581     44583     44584     44581     44583     44585     44582     44581     44583
     44583     44585     44586     44583     44585     44587     44583     44585     44588
     44584     44583     44585     44585     44588     44589     44585     44588     44590
     44585     44588     44591     44586     44585     44587     44586     44585     44588
     44587     44585     44588     44588     44591     44592     44588     44591     44593
     44588     44591     44594     44589     44588     44590     44589     44588     44591
     44590     44588     44591     44591     44594     44595     44591     44594     44596
     44591     44594     44597     44592     44591     44593     44592     44591     44594
     44593     44591     44594     44594     44597     44598     44594     44597     44599
     44594     44597     44600     44595     44594     44596     44595     44594     44597
     44596     44594     44597     44597     44600     44601     44597     44600     44602
     44597     44600     44603     44598     44597     44599     44598     44597     44600
     44599     44597     44600     44601     44600     44602     44601     44600     44603
     44602     44600     44603     44604     44607     44608     44604     44607     44609
     44604     44607     44610     44605     44604     44606     44605     44604     44607
     44606     44604     44607     44607     44610     44611     44607     44610     44612
     44607     44610     44613     44608     44607     44609     44608     44607     44610
     44609     44607     44610     44610     44613     44614     44610     44613     44615
     44610     44613     44616     44611     44610     44612     44611     44610     44613
     44612     44610     44613     44613     44616     44617     44613     44616     44618
     44613     44616     44619     44614     44613     44615     44614     44613     44616
     44615     44613     44616     44616     44619     44620     44616     44619     44621
     44616     44619     44622     44617     44616     44618     44617     44616     44619
     44618     44616     44619     44619     44622     44623     44619     44622     44624
     44619     44622     44625     44620     44619     44621     44620     44619     44622
     44621     44619     44622     44622     44625     44626     44622     44625     44627
     44622     44625     44628     44623     44622     44624     44623     44622     44625
     44624     44622     44625     44625     44628     44629     44625     44628     44630
     44625     44628     44631     44626     44625     44627     44626     44625     44628
     44627     44625     44628     44628     44631     44632     44628     44631     44633
     44628     44631     44634     44629     44628     44630     44629     44628     44631
     44630     44628     44631     44631     44634     44635     44631     44634     44636
     44631     44634     44637     44632     44631     44633     44632     44631     44634
     44633     44631     44634     44634     44637     44638     44634     44637     44639
     44634     44637     44640     44635     44634     44636     44635     44634     44637
     44636     44634     44637     44637     44640     44641     44637     44640     44642
     44637     44640     44643     44638     44637     44639     44638     44637     44640
     44639     44637     44640     44640     44643     44644     44640     44643     44645
     44640     44643     44646     44641     44640     44642     44641     44640     44643
     44642     44640     44643     44644     44643     44645     44644     44643     44646
     44645     44643     44646     44647     44651     44652     44647     44651     44653
     44647     44651     44654     44648     44647     44649     44648     44647     44650
     44648     44647     44651     44649     44647     44650     44649     44647     44651
     44650     44647     44651     44651     44654     44655     44651     44654     44656
     44651     44654     44661     44652     44651     44653     44652     44651     44654
     44653     44651     44654     44654     44661     44657     44655     44654     44656
     44655     44654     44661     44656     44654     44661     44657     44660     44662
     44658     44657     44659     44658     44657     44660     44658     44657     44661
     44659     44657     44660     44659     44657     44661     44660     44657     44661
     44660     44662     44663     44660     44662     44664     44660     44662     44665
     44662     44665     44666     44662     44665     44667     44662     44665     44673
     44663     44662     44664     44663     44662     44665     44664     44662     44665
     44665     44667     44668     44665     44673     44674     44665     44673     44675
     44665     44673     44676     44666     44665     44667     44666     44665     44673
     44667     44665     44673     44667     44668     44669     44667     44668     44670
     44668     44670     44671     44668     44670     44672     44668     44670     44682
     44669     44668     44670     44670     44682     44683     44670     44682     44684
     44670     44682     44685     44671     44670     44672     44671     44670     44682
     44672     44670     44682     44673     44676     44677     44674     44673     44675
     44674     44673     44676     44675     44673     44676     44676     44677     44678
     44676     44677     44679     44677     44679     44680     44677     44679     44681
     44677     44679     44723     44678     44677     44679     44679     44723     44724
     44679     44723     44725     44679     44723     44726     44680     44679     44681
     44680     44679     44723     44681     44679     44723     44682     44685     44686
     44682     44685     44687     44682     44685     44688     44683     44682     44684
     44683     44682     44685     44684     44682     44685     44685     44688     44689
     44685     44688     44690     44685     44688     44691     44686     44685     44687
     44686     44685     44688     44687     44685     44688     44688     44691     44692
     44688     44691     44693     44688     44691     44694     44689     44688     44690
     44689     44688     44691     44690     44688     44691     44691     44694     44695
     44691     44694     44696     44691     44694     44697     44692     44691     44693
     44692     44691     44694     44693     44691     44694     44694     44697     44698
     44694     44697     44699     44694     44697     44700     44695     44694     44696
     44695     44694     44697     44696     44694     44697     44697     44700     44701
     44697     44700     44702     44698     44697     44699     44698     44697     44700
     44699     44697     44700     44700     44702     44703     44700     44702     44704
     44701     44700     44702     44702     44704     44705     44702     44704     44706
     44702     44704     44707     44703     44702     44704     44704     44707     44708
     44704     44707     44709     44704     44707     44710     44705     44704     44706
     44705     44704     44707     44706     44704     44707     44707     44710     44711
     44707     44710     44712     44707     44710     44713     44708     44707     44709
     44708     44707     44710     44709     44707     44710     44710     44713     44714
     44710     44713     44715     44710     44713     44716     44711     44710     44712
     44711     44710     44713     44712     44710     44713     44713     44716     44717
     44713     44716     44718     44713     44716     44719     44714     44713     44715
     44714     44713     44716     44715     44713     44716     44716     44719     44720
     44716     44719     44721     44716     44719     44722     44717     44716     44718
     44717     44716     44719     44718     44716     44719     44720     44719     44721
     44720     44719     44722     44721     44719     44722     44723     44726     44727
     44723     44726     44728     44723     44726     44729     44724     44723     44725
     44724     44723     44726     44725     44723     44726     44726     44729     44730
     44726     44729     44731     44726     44729     44732     44727     44726     44728
     44727     44726     44729     44728     44726     44729     44729     44732     44733
     44729     44732     44734     44729     44732     44735     44730     44729     44731
     44730     44729     44732     44731     44729     44732     44732     44735     44736
     44732     44735     44737     44732     44735     44738     44733     44732     44734
     44733     44732     44735     44734     44732     44735     44735     44738     44739
     44735     44738     44740     44735     44738     44741     44736     44735     44737
     44736     44735     44738     44737     44735     44738     44738     44741     44742
     44738     44741     44743     44738     44741     44744     44739     44738     44740
     44739     44738     44741     44740     44738     44741     44741     44744     44745
     44741     44744     44746     44741     44744     44747     44742     44741     44743
     44742     44741     44744     44743     44741     44744     44744     44747     44748
     44744     44747     44749     44744     44747     44750     44745     44744     44746
     44745     44744     44747     44746     44744     44747     44747     44750     44751
     44747     44750     44752     44747     44750     44753     44748     44747     44749
     44748     44747     44750     44749     44747     44750     44750     44753     44754
     44750     44753     44755     44750     44753     44756     44751     44750     44752
     44751     44750     44753     44752     44750     44753     44753     44756     44757
     44753     44756     44758     44753     44756     44759     44754     44753     44755
     44754     44753     44756     44755     44753     44756     44756     44759     44760
     44756     44759     44761     44756     44759     44762     44757     44756     44758
     44757     44756     44759     44758     44756     44759     44759     44762     44763
     44759     44762     44764     44759     44762     44765     44760     44759     44761
     44760     44759     44762     44761     44759     44762     44763     44762     44764
     44763     44762     44765     44764     44762     44765     44766     44772     44769
     44766     44777     44778     44766     44777     44779     44766     44777     44781
     44767     44766     44768     44767     44766     44772     44767     44766     44777
     44768     44766     44772     44768     44766     44777     44769     44773     44774
     44770     44769     44771     44770     44769     44772     44770     44769     44773
     44771     44769     44772     44771     44769     44773     44772     44766     44777
     44772     44769     44773     44773     44774     44775     44773     44774     44776
     44773     44774     44809     44774     44809     44810     44774     44809     44811
     44774     44809     44817     44775     44774     44776     44775     44774     44809
     44776     44774     44809     44777     44779     44780     44777     44781     44782
     44777     44781     44783     44777     44781     44787     44778     44777     44779
     44778     44777     44781     44779     44777     44781     44781     44787     44784
     44782     44781     44783     44782     44781     44787     44783     44781     44787
     44784     44788     44789     44785     44784     44786     44785     44784     44787
     44785     44784     44788     44786     44784     44787     44786     44784     44788
     44787     44784     44788     44788     44789     44790     44788     44789     44791
     44788     44789     44792     44789     44792     44793     44789     44792     44794
     44789     44792     44800     44790     44789     44791     44790     44789     44792
     44791     44789     44792     44792     44794     44795     44792     44800     44801
     44792     44800     44802     44792     44800     44803     44793     44792     44794
     44793     44792     44800     44794     44792     44800     44794     44795     44796
     44794     44795     44797     44795     44797     44798     44795     44797     44799
     44795     44797     44826     44796     44795     44797     44797     44826     44827
     44797     44826     44828     44797     44826     44829     44798     44797     44799
     44798     44797     44826     44799     44797     44826     44800     44803     44804
     44801     44800     44802     44801     44800     44803     44802     44800     44803
     44803     44804     44805     44803     44804     44806     44804     44806     44807
     44804     44806     44808     44804     44806     44873     44805     44804     44806
     44806     44873     44874     44806     44873     44875     44806     44873     44876
     44807     44806     44808     44807     44806     44873     44808     44806     44873
     44809     44811     44812     44809     44817     44818     44809     44817     44819
     44809     44817     44820     44810     44809     44811     44810     44809     44817
     44811     44809     44817     44811     44812     44813     44811     44812     44814
     44812     44814     44815     44812     44814     44816     44812     44814     44916
     44813     44812     44814     44814     44916     44917     44814     44916     44918
     44814     44916     44919     44815     44814     44816     44815     44814     44916
     44816     44814     44916     44817     44820     44821     44818     44817     44819
     44818     44817     44820     44819     44817     44820     44820     44821     44822
     44820     44821     44823     44821     44823     44824     44821     44823     44825
     44821     44823     44963     44822     44821     44823     44823     44963     44964
     44823     44963     44965     44823     44963     44966     44824     44823     44825
     44824     44823     44963     44825     44823     44963     44826     44829     44830
     44826     44829     44831     44826     44829     44832     44827     44826     44828
     44827     44826     44829     44828     44826     44829     44829     44832     44833
     44829     44832     44834     44829     44832     44835     44830     44829     44831
     44830     44829     44832     44831     44829     44832     44832     44835     44836
     44832     44835     44837     44832     44835     44838     44833     44832     44834
     44833     44832     44835     44834     44832     44835     44835     44838     44839
     44835     44838     44840     44835     44838     44841     44836     44835     44837
     44836     44835     44838     44837     44835     44838     44838     44841     44842
     44838     44841     44843     44838     44841     44844     44839     44838     44840
     44839     44838     44841     44840     44838     44841     44841     44844     44845
     44841     44844     44846     44841     44844     44847     44842     44841     44843
     44842     44841     44844     44843     44841     44844     44844     44847     44848
     44844     44847     44849     44844     44847     44850     44845     44844     44846
     44845     44844     44847     44846     44844     44847     44847     44850     44851
     44847     44850     44852     44848     44847     44849     44848     44847     44850
     44849     44847     44850     44850     44852     44853     44850     44852     44854
     44851     44850     44852     44852     44854     44855     44852     44854     44856
     44852     44854     44857     44853     44852     44854     44854     44857     44858
     44854     44857     44859     44854     44857     44860     44855     44854     44856
     44855     44854     44857     44856     44854     44857     44857     44860     44861
     44857     44860     44862     44857     44860     44863     44858     44857     44859
     44858     44857     44860     44859     44857     44860     44860     44863     44864
     44860     44863     44865     44860     44863     44866     44861     44860     44862
     44861     44860     44863     44862     44860     44863     44863     44866     44867
     44863     44866     44868     44863     44866     44869     44864     44863     44865
     44864     44863     44866     44865     44863     44866     44866     44869     44870
     44866     44869     44871     44866     44869     44872     44867     44866     44868
     44867     44866     44869     44868     44866     44869     44870     44869     44871
     44870     44869     44872     44871     44869     44872     44873     44876     44877
     44873     44876     44878     44873     44876     44879     44874     44873     44875
     44874     44873     44876     44875     44873     44876     44876     44879     44880
     44876     44879     44881     44876     44879     44882     44877     44876     44878
     44877     44876     44879     44878     44876     44879     44879     44882     44883
     44879     44882     44884     44879     44882     44885     44880     44879     44881
     44880     44879     44882     44881     44879     44882     44882     44885     44886
     44882     44885     44887     44882     44885     44888     44883     44882     44884
     44883     44882     44885     44884     44882     44885     44885     44888     44889
     44885     44888     44890     44885     44888     44891     44886     44885     44887
     44886     44885     44888     44887     44885     44888     44888     44891     44892
     44888     44891     44893     44888     44891     44894     44889     44888     44890
     44889     44888     44891     44890     44888     44891     44891     44894     44895
     44891     44894     44896     44891     44894     44897     44892     44891     44893
     44892     44891     44894     44893     44891     44894     44894     44897     44898
     44894     44897     44899     44894     44897     44900     44895     44894     44896
     44895     44894     44897     44896     44894     44897     44897     44900     44901
     44897     44900     44902     44897     44900     44903     44898     44897     44899
     44898     44897     44900     44899     44897     44900     44900     44903     44904
     44900     44903     44905     44900     44903     44906     44901     44900     44902
     44901     44900     44903     44902     44900     44903     44903     44906     44907
     44903     44906     44908     44903     44906     44909     44904     44903     44905
     44904     44903     44906     44905     44903     44906     44906     44909     44910
     44906     44909     44911     44906     44909     44912     44907     44906     44908
     44907     44906     44909     44908     44906     44909     44909     44912     44913
     44909     44912     44914     44909     44912     44915     44910     44909     44911
     44910     44909     44912     44911     44909     44912     44913     44912     44914
     44913     44912     44915     44914     44912     44915     44916     44919     44920
     44916     44919     44921     44916     44919     44922     44917     44916     44918
     44917     44916     44919     44918     44916     44919     44919     44922     44923
     44919     44922     44924     44919     44922     44925     44920     44919     44921
     44920     44919     44922     44921     44919     44922     44922     44925     44926
     44922     44925     44927     44922     44925     44928     44923     44922     44924
     44923     44922     44925     44924     44922     44925     44925     44928     44929
     44925     44928     44930     44925     44928     44931     44926     44925     44927
     44926     44925     44928     44927     44925     44928     44928     44931     44932
     44928     44931     44933     44928     44931     44934     44929     44928     44930
     44929     44928     44931     44930     44928     44931     44931     44934     44935
     44931     44934     44936     44931     44934     44937     44932     44931     44933
     44932     44931     44934     44933     44931     44934     44934     44937     44938
     44934     44937     44939     44934     44937     44940     44935     44934     44936
     44935     44934     44937     44936     44934     44937     44937     44940     44941
     44937     44940     44942     44938     44937     44939     44938     44937     44940
     44939     44937     44940     44940     44942     44943     44940     44942     44944
     44941     44940     44942     44942     44944     44945     44942     44944     44946
     44942     44944     44947     44943     44942     44944     44944     44947     44948
     44944     44947     44949     44944     44947     44950     44945     44944     44946
     44945     44944     44947     44946     44944     44947     44947     44950     44951
     44947     44950     44952     44947     44950     44953     44948     44947     44949
     44948     44947     44950     44949     44947     44950     44950     44953     44954
     44950     44953     44955     44950     44953     44956     44951     44950     44952
     44951     44950     44953     44952     44950     44953     44953     44956     44957
     44953     44956     44958     44953     44956     44959     44954     44953     44955
     44954     44953     44956     44955     44953     44956     44956     44959     44960
     44956     44959     44961     44956     44959     44962     44957     44956     44958
     44957     44956     44959     44958     44956     44959     44960     44959     44961
     44960     44959     44962     44961     44959     44962     44963     44966     44967
     44963     44966     44968     44963     44966     44969     44964     44963     44965
     44964     44963     44966     44965     44963     44966     44966     44969     44970
     44966     44969     44971     44966     44969     44972     44967     44966     44968
     44967     44966     44969     44968     44966     44969     44969     44972     44973
     44969     44972     44974     44969     44972     44975     44970     44969     44971
     44970     44969     44972     44971     44969     44972     44972     44975     44976
     44972     44975     44977     44972     44975     44978     44973     44972     44974
     44973     44972     44975     44974     44972     44975     44975     44978     44979
     44975     44978     44980     44975     44978     44981     44976     44975     44977
     44976     44975     44978     44977     44975     44978     44978     44981     44982
     44978     44981     44983     44978     44981     44984     44979     44978     44980
     44979     44978     44981     44980     44978     44981     44981     44984     44985
     44981     44984     44986     44981     44984     44987     44982     44981     44983
     44982     44981     44984     44983     44981     44984     44984     44987     44988
     44984     44987     44989     44984     44987     44990     44985     44984     44986
     44985     44984     44987     44986     44984     44987     44987     44990     44991
     44987     44990     44992     44987     44990     44993     44988     44987     44989
     44988     44987     44990     44989     44987     44990     44990     44993     44994
     44990     44993     44995     44990     44993     44996     44991     44990     44992
     44991     44990     44993     44992     44990     44993     44993     44996     44997
     44993     44996     44998     44993     44996     44999     44994     44993     44995
     44994     44993     44996     44995     44993     44996     44996     44999     45000
     44996     44999     45001     44996     44999     45002     44997     44996     44998
     44997     44996     44999     44998     44996     44999     44999     45002     45003
     44999     45002     45004     44999     45002     45005     45000     44999     45001
     45000     44999     45002     45001     44999     45002     45003     45002     45004
     45003     45002     45005     45004     45002     45005     45006     45010     45011
     45006     45010     45012     45006     45010     45013     45007     45006     45008
     45007     45006     45009     45007     45006     45010     45008     45006     45009
     45008     45006     45010     45009     45006     45010     45010     45013     45014
     45010     45013     45015     45010     45013     45020     45011     45010     45012
     45011     45010     45013     45012     45010     45013     45013     45020     45016
     45014     45013     45015     45014     45013     45020     45015     45013     45020
     45016     45019     45021     45017     45016     45018     45017     45016     45019
     45017     45016     45020     45018     45016     45019     45018     45016     45020
     45019     45016     45020     45019     45021     45022     45019     45021     45023
     45019     45021     45024     45021     45024     45025     45021     45024     45026
     45021     45024     45032     45022     45021     45023     45022     45021     45024
     45023     45021     45024     45024     45026     45027     45024     45032     45033
     45024     45032     45034     45024     45032     45035     45025     45024     45026
     45025     45024     45032     45026     45024     45032     45026     45027     45028
     45026     45027     45029     45027     45029     45030     45027     45029     45031
     45027     45029     45041     45028     45027     45029     45029     45041     45042
     45029     45041     45043     45029     45041     45044     45030     45029     45031
     45030     45029     45041     45031     45029     45041     45032     45035     45036
     45033     45032     45034     45033     45032     45035     45034     45032     45035
     45035     45036     45037     45035     45036     45038     45036     45038     45039
     45036     45038     45040     45036     45038     45082     45037     45036     45038
     45038     45082     45083     45038     45082     45084     45038     45082     45085
     45039     45038     45040     45039     45038     45082     45040     45038     45082
     45041     45044     45045     45041     45044     45046     45041     45044     45047
     45042     45041     45043     45042     45041     45044     45043     45041     45044
     45044     45047     45048     45044     45047     45049     45044     45047     45050
     45045     45044     45046     45045     45044     45047     45046     45044     45047
     45047     45050     45051     45047     45050     45052     45047     45050     45053
     45048     45047     45049     45048     45047     45050     45049     45047     45050
     45050     45053     45054     45050     45053     45055     45050     45053     45056
     45051     45050     45052     45051     45050     45053     45052     45050     45053
     45053     45056     45057     45053     45056     45058     45053     45056     45059
     45054     45053     45055     45054     45053     45056     45055     45053     45056
     45056     45059     45060     45056     45059     45061     45057     45056     45058
     45057     45056     45059     45058     45056     45059     45059     45061     45062
     45059     45061     45063     45060     45059     45061     45061     45063     45064
     45061     45063     45065     45061     45063     45066     45062     45061     45063
     45063     45066     45067     45063     45066     45068     45063     45066     45069
     45064     45063     45065     45064     45063     45066     45065     45063     45066
     45066     45069     45070     45066     45069     45071     45066     45069     45072
     45067     45066     45068     45067     45066     45069     45068     45066     45069
     45069     45072     45073     45069     45072     45074     45069     45072     45075
     45070     45069     45071     45070     45069     45072     45071     45069     45072
     45072     45075     45076     45072     45075     45077     45072     45075     45078
     45073     45072     45074     45073     45072     45075     45074     45072     45075
     45075     45078     45079     45075     45078     45080     45075     45078     45081
     45076     45075     45077     45076     45075     45078     45077     45075     45078
     45079     45078     45080     45079     45078     45081     45080     45078     45081
     45082     45085     45086     45082     45085     45087     45082     45085     45088
     45083     45082     45084     45083     45082     45085     45084     45082     45085
     45085     45088     45089     45085     45088     45090     45085     45088     45091
     45086     45085     45087     45086     45085     45088     45087     45085     45088
     45088     45091     45092     45088     45091     45093     45088     45091     45094
     45089     45088     45090     45089     45088     45091     45090     45088     45091
     45091     45094     45095     45091     45094     45096     45091     45094     45097
     45092     45091     45093     45092     45091     45094     45093     45091     45094
     45094     45097     45098     45094     45097     45099     45094     45097     45100
     45095     45094     45096     45095     45094     45097     45096     45094     45097
     45097     45100     45101     45097     45100     45102     45097     45100     45103
     45098     45097     45099     45098     45097     45100     45099     45097     45100
     45100     45103     45104     45100     45103     45105     45100     45103     45106
     45101     45100     45102     45101     45100     45103     45102     45100     45103
     45103     45106     45107     45103     45106     45108     45103     45106     45109
     45104     45103     45105     45104     45103     45106     45105     45103     45106
     45106     45109     45110     45106     45109     45111     45106     45109     45112
     45107     45106     45108     45107     45106     45109     45108     45106     45109
     45109     45112     45113     45109     45112     45114     45109     45112     45115
     45110     45109     45111     45110     45109     45112     45111     45109     45112
     45112     45115     45116     45112     45115     45117     45112     45115     45118
     45113     45112     45114     45113     45112     45115     45114     45112     45115
     45115     45118     45119     45115     45118     45120     45115     45118     45121
     45116     45115     45117     45116     45115     45118     45117     45115     45118
     45118     45121     45122     45118     45121     45123     45118     45121     45124
     45119     45118     45120     45119     45118     45121     45120     45118     45121
     45122     45121     45123     45122     45121     45124     45123     45121     45124
     45125     45129     45130     45125     45129     45131     45125     45129     45132
     45126     45125     45127     45126     45125     45128     45126     45125     45129
     45127     45125     45128     45127     45125     45129     45128     45125     45129
     45129     45132     45133     45129     45132     45134     45129     45132     45139
     45130     45129     45131     45130     45129     45132     45131     45129     45132
     45132     45139     45135     45133     45132     45134     45133     45132     45139
     45134     45132     45139     45135     45138     45140     45136     45135     45137
     45136     45135     45138     45136     45135     45139     45137     45135     45138
     45137     45135     45139     45138     45135     45139     45138     45140     45141
     45138     45140     45142     45138     45140     45143     45140     45143     45144
     45140     45143     45145     45140     45143     45151     45141     45140     45142
     45141     45140     45143     45142     45140     45143     45143     45145     45146
     45143     45151     45152     45143     45151     45153     45143     45151     45154
     45144     45143     45145     45144     45143     45151     45145     45143     45151
     45145     45146     45147     45145     45146     45148     45146     45148     45149
     45146     45148     45150     45146     45148     45160     45147     45146     45148
     45148     45160     45161     45148     45160     45162     45148     45160     45163
     45149     45148     45150     45149     45148     45160     45150     45148     45160
     45151     45154     45155     45152     45151     45153     45152     45151     45154
     45153     45151     45154     45154     45155     45156     45154     45155     45157
     45155     45157     45158     45155     45157     45159     45155     45157     45201
     45156     45155     45157     45157     45201     45202     45157     45201     45203
     45157     45201     45204     45158     45157     45159     45158     45157     45201
     45159     45157     45201     45160     45163     45164     45160     45163     45165
     45160     45163     45166     45161     45160     45162     45161     45160     45163
     45162     45160     45163     45163     45166     45167     45163     45166     45168
     45163     45166     45169     45164     45163     45165     45164     45163     45166
     45165     45163     45166     45166     45169     45170     45166     45169     45171
     45166     45169     45172     45167     45166     45168     45167     45166     45169
     45168     45166     45169     45169     45172     45173     45169     45172     45174
     45169     45172     45175     45170     45169     45171     45170     45169     45172
     45171     45169     45172     45172     45175     45176     45172     45175     45177
     45172     45175     45178     45173     45172     45174     45173     45172     45175
     45174     45172     45175     45175     45178     45179     45175     45178     45180
     45176     45175     45177     45176     45175     45178     45177     45175     45178
     45178     45180     45181     45178     45180     45182     45179     45178     45180
     45180     45182     45183     45180     45182     45184     45180     45182     45185
     45181     45180     45182     45182     45185     45186     45182     45185     45187
     45182     45185     45188     45183     45182     45184     45183     45182     45185
     45184     45182     45185     45185     45188     45189     45185     45188     45190
     45185     45188     45191     45186     45185     45187     45186     45185     45188
     45187     45185     45188     45188     45191     45192     45188     45191     45193
     45188     45191     45194     45189     45188     45190     45189     45188     45191
     45190     45188     45191     45191     45194     45195     45191     45194     45196
     45191     45194     45197     45192     45191     45193     45192     45191     45194
     45193     45191     45194     45194     45197     45198     45194     45197     45199
     45194     45197     45200     45195     45194     45196     45195     45194     45197
     45196     45194     45197     45198     45197     45199     45198     45197     45200
     45199     45197     45200     45201     45204     45205     45201     45204     45206
     45201     45204     45207     45202     45201     45203     45202     45201     45204
     45203     45201     45204     45204     45207     45208     45204     45207     45209
     45204     45207     45210     45205     45204     45206     45205     45204     45207
     45206     45204     45207     45207     45210     45211     45207     45210     45212
     45207     45210     45213     45208     45207     45209     45208     45207     45210
     45209     45207     45210     45210     45213     45214     45210     45213     45215
     45210     45213     45216     45211     45210     45212     45211     45210     45213
     45212     45210     45213     45213     45216     45217     45213     45216     45218
     45213     45216     45219     45214     45213     45215     45214     45213     45216
     45215     45213     45216     45216     45219     45220     45216     45219     45221
     45216     45219     45222     45217     45216     45218     45217     45216     45219
     45218     45216     45219     45219     45222     45223     45219     45222     45224
     45219     45222     45225     45220     45219     45221     45220     45219     45222
     45221     45219     45222     45222     45225     45226     45222     45225     45227
     45222     45225     45228     45223     45222     45224     45223     45222     45225
     45224     45222     45225     45225     45228     45229     45225     45228     45230
     45225     45228     45231     45226     45225     45227     45226     45225     45228
     45227     45225     45228     45228     45231     45232     45228     45231     45233
     45228     45231     45234     45229     45228     45230     45229     45228     45231
     45230     45228     45231     45231     45234     45235     45231     45234     45236
     45231     45234     45237     45232     45231     45233     45232     45231     45234
     45233     45231     45234     45234     45237     45238     45234     45237     45239
     45234     45237     45240     45235     45234     45236     45235     45234     45237
     45236     45234     45237     45237     45240     45241     45237     45240     45242
     45237     45240     45243     45238     45237     45239     45238     45237     45240
     45239     45237     45240     45241     45240     45242     45241     45240     45243
     45242     45240     45243     45244     45248     45249     45244     45248     45250
     45244     45248     45251     45245     45244     45246     45245     45244     45247
     45245     45244     45248     45246     45244     45247     45246     45244     45248
     45247     45244     45248     45248     45251     45252     45248     45251     45253
     45248     45251     45258     45249     45248     45250     45249     45248     45251
     45250     45248     45251     45251     45258     45254     45252     45251     45253
     45252     45251     45258     45253     45251     45258     45254     45257     45259
     45255     45254     45256     45255     45254     45257     45255     45254     45258
     45256     45254     45257     45256     45254     45258     45257     45254     45258
     45257     45259     45260     45257     45259     45261     45257     45259     45262
     45259     45262     45263     45259     45262     45264     45259     45262     45270
     45260     45259     45261     45260     45259     45262     45261     45259     45262
     45262     45264     45265     45262     45270     45271     45262     45270     45272
     45262     45270     45273     45263     45262     45264     45263     45262     45270
     45264     45262     45270     45264     45265     45266     45264     45265     45267
     45265     45267     45268     45265     45267     45269     45265     45267     45279
     45266     45265     45267     45267     45279     45280     45267     45279     45281
     45267     45279     45282     45268     45267     45269     45268     45267     45279
     45269     45267     45279     45270     45273     45274     45271     45270     45272
     45271     45270     45273     45272     45270     45273     45273     45274     45275
     45273     45274     45276     45274     45276     45277     45274     45276     45278
     45274     45276     45320     45275     45274     45276     45276     45320     45321
     45276     45320     45322     45276     45320     45323     45277     45276     45278
     45277     45276     45320     45278     45276     45320     45279     45282     45283
     45279     45282     45284     45279     45282     45285     45280     45279     45281
     45280     45279     45282     45281     45279     45282     45282     45285     45286
     45282     45285     45287     45282     45285     45288     45283     45282     45284
     45283     45282     45285     45284     45282     45285     45285     45288     45289
     45285     45288     45290     45285     45288     45291     45286     45285     45287
     45286     45285     45288     45287     45285     45288     45288     45291     45292
     45288     45291     45293     45288     45291     45294     45289     45288     45290
     45289     45288     45291     45290     45288     45291     45291     45294     45295
     45291     45294     45296     45291     45294     45297     45292     45291     45293
     45292     45291     45294     45293     45291     45294     45294     45297     45298
     45294     45297     45299     45295     45294     45296     45295     45294     45297
     45296     45294     45297     45297     45299     45300     45297     45299     45301
     45298     45297     45299     45299     45301     45302     45299     45301     45303
     45299     45301     45304     45300     45299     45301     45301     45304     45305
     45301     45304     45306     45301     45304     45307     45302     45301     45303
     45302     45301     45304     45303     45301     45304     45304     45307     45308
     45304     45307     45309     45304     45307     45310     45305     45304     45306
     45305     45304     45307     45306     45304     45307     45307     45310     45311
     45307     45310     45312     45307     45310     45313     45308     45307     45309
     45308     45307     45310     45309     45307     45310     45310     45313     45314
     45310     45313     45315     45310     45313     45316     45311     45310     45312
     45311     45310     45313     45312     45310     45313     45313     45316     45317
     45313     45316     45318     45313     45316     45319     45314     45313     45315
     45314     45313     45316     45315     45313     45316     45317     45316     45318
     45317     45316     45319     45318     45316     45319     45320     45323     45324
     45320     45323     45325     45320     45323     45326     45321     45320     45322
     45321     45320     45323     45322     45320     45323     45323     45326     45327
     45323     45326     45328     45323     45326     45329     45324     45323     45325
     45324     45323     45326     45325     45323     45326     45326     45329     45330
     45326     45329     45331     45326     45329     45332     45327     45326     45328
     45327     45326     45329     45328     45326     45329     45329     45332     45333
     45329     45332     45334     45329     45332     45335     45330     45329     45331
     45330     45329     45332     45331     45329     45332     45332     45335     45336
     45332     45335     45337     45332     45335     45338     45333     45332     45334
     45333     45332     45335     45334     45332     45335     45335     45338     45339
     45335     45338     45340     45335     45338     45341     45336     45335     45337
     45336     45335     45338     45337     45335     45338     45338     45341     45342
     45338     45341     45343     45338     45341     45344     45339     45338     45340
     45339     45338     45341     45340     45338     45341     45341     45344     45345
     45341     45344     45346     45341     45344     45347     45342     45341     45343
     45342     45341     45344     45343     45341     45344     45344     45347     45348
     45344     45347     45349     45344     45347     45350     45345     45344     45346
     45345     45344     45347     45346     45344     45347     45347     45350     45351
     45347     45350     45352     45347     45350     45353     45348     45347     45349
     45348     45347     45350     45349     45347     45350     45350     45353     45354
     45350     45353     45355     45350     45353     45356     45351     45350     45352
     45351     45350     45353     45352     45350     45353     45353     45356     45357
     45353     45356     45358     45353     45356     45359     45354     45353     45355
     45354     45353     45356     45355     45353     45356     45356     45359     45360
     45356     45359     45361     45356     45359     45362     45357     45356     45358
     45357     45356     45359     45358     45356     45359     45360     45359     45361
     45360     45359     45362     45361     45359     45362     45363     45367     45368
     45363     45367     45369     45363     45367     45370     45364     45363     45365
     45364     45363     45366     45364     45363     45367     45365     45363     45366
     45365     45363     45367     45366     45363     45367     45367     45370     45371
     45367     45370     45372     45367     45370     45377     45368     45367     45369
     45368     45367     45370     45369     45367     45370     45370     45377     45373
     45371     45370     45372     45371     45370     45377     45372     45370     45377
     45373     45376     45378     45374     45373     45375     45374     45373     45376
     45374     45373     45377     45375     45373     45376     45375     45373     45377
     45376     45373     45377     45376     45378     45379     45376     45378     45380
     45376     45378     45381     45378     45381     45382     45378     45381     45383
     45378     45381     45389     45379     45378     45380     45379     45378     45381
     45380     45378     45381     45381     45383     45384     45381     45389     45390
     45381     45389     45391     45381     45389     45392     45382     45381     45383
     45382     45381     45389     45383     45381     45389     45383     45384     45385
     45383     45384     45386     45384     45386     45387     45384     45386     45388
     45384     45386     45398     45385     45384     45386     45386     45398     45399
     45386     45398     45400     45386     45398     45401     45387     45386     45388
     45387     45386     45398     45388     45386     45398     45389     45392     45393
     45390     45389     45391     45390     45389     45392     45391     45389     45392
     45392     45393     45394     45392     45393     45395     45393     45395     45396
     45393     45395     45397     45393     45395     45439     45394     45393     45395
     45395     45439     45440     45395     45439     45441     45395     45439     45442
     45396     45395     45397     45396     45395     45439     45397     45395     45439
     45398     45401     45402     45398     45401     45403     45398     45401     45404
     45399     45398     45400     45399     45398     45401     45400     45398     45401
     45401     45404     45405     45401     45404     45406     45401     45404     45407
     45402     45401     45403     45402     45401     45404     45403     45401     45404
     45404     45407     45408     45404     45407     45409     45404     45407     45410
     45405     45404     45406     45405     45404     45407     45406     45404     45407
     45407     45410     45411     45407     45410     45412     45407     45410     45413
     45408     45407     45409     45408     45407     45410     45409     45407     45410
     45410     45413     45414     45410     45413     45415     45410     45413     45416
     45411     45410     45412     45411     45410     45413     45412     45410     45413
     45413     45416     45417     45413     45416     45418     45414     45413     45415
     45414     45413     45416     45415     45413     45416     45416     45418     45419
     45416     45418     45420     45417     45416     45418     45418     45420     45421
     45418     45420     45422     45418     45420     45423     45419     45418     45420
     45420     45423     45424     45420     45423     45425     45420     45423     45426
     45421     45420     45422     45421     45420     45423     45422     45420     45423
     45423     45426     45427     45423     45426     45428     45423     45426     45429
     45424     45423     45425     45424     45423     45426     45425     45423     45426
     45426     45429     45430     45426     45429     45431     45426     45429     45432
     45427     45426     45428     45427     45426     45429     45428     45426     45429
     45429     45432     45433     45429     45432     45434     45429     45432     45435
     45430     45429     45431     45430     45429     45432     45431     45429     45432
     45432     45435     45436     45432     45435     45437     45432     45435     45438
     45433     45432     45434     45433     45432     45435     45434     45432     45435
     45436     45435     45437     45436     45435     45438     45437     45435     45438
     45439     45442     45443     45439     45442     45444     45439     45442     45445
     45440     45439     45441     45440     45439     45442     45441     45439     45442
     45442     45445     45446     45442     45445     45447     45442     45445     45448
     45443     45442     45444     45443     45442     45445     45444     45442     45445
     45445     45448     45449     45445     45448     45450     45445     45448     45451
     45446     45445     45447     45446     45445     45448     45447     45445     45448
     45448     45451     45452     45448     45451     45453     45448     45451     45454
     45449     45448     45450     45449     45448     45451     45450     45448     45451
     45451     45454     45455     45451     45454     45456     45451     45454     45457
     45452     45451     45453     45452     45451     45454     45453     45451     45454
     45454     45457     45458     45454     45457     45459     45454     45457     45460
     45455     45454     45456     45455     45454     45457     45456     45454     45457
     45457     45460     45461     45457     45460     45462     45457     45460     45463
     45458     45457     45459     45458     45457     45460     45459     45457     45460
     45460     45463     45464     45460     45463     45465     45460     45463     45466
     45461     45460     45462     45461     45460     45463     45462     45460     45463
     45463     45466     45467     45463     45466     45468     45463     45466     45469
     45464     45463     45465     45464     45463     45466     45465     45463     45466
     45466     45469     45470     45466     45469     45471     45466     45469     45472
     45467     45466     45468     45467     45466     45469     45468     45466     45469
     45469     45472     45473     45469     45472     45474     45469     45472     45475
     45470     45469     45471     45470     45469     45472     45471     45469     45472
     45472     45475     45476     45472     45475     45477     45472     45475     45478
     45473     45472     45474     45473     45472     45475     45474     45472     45475
     45475     45478     45479     45475     45478     45480     45475     45478     45481
     45476     45475     45477     45476     45475     45478     45477     45475     45478
     45479     45478     45480     45479     45478     45481     45480     45478     45481
     45482     45486     45487     45482     45486     45488     45482     45486     45489
     45483     45482     45484     45483     45482     45485     45483     45482     45486
     45484     45482     45485     45484     45482     45486     45485     45482     45486
     45486     45489     45490     45486     45489     45491     45486     45489     45496
     45487     45486     45488     45487     45486     45489     45488     45486     45489
     45489     45496     45492     45490     45489     45491     45490     45489     45496
     45491     45489     45496     45492     45495     45497     45493     45492     45494
     45493     45492     45495     45493     45492     45496     45494     45492     45495
     45494     45492     45496     45495     45492     45496     45495     45497     45498
     45495     45497     45499     45495     45497     45500     45497     45500     45501
     45497     45500     45502     45497     45500     45508     45498     45497     45499
     45498     45497     45500     45499     45497     45500     45500     45502     45503
     45500     45508     45509     45500     45508     45510     45500     45508     45511
     45501     45500     45502     45501     45500     45508     45502     45500     45508
     45502     45503     45504     45502     45503     45505     45503     45505     45506
     45503     45505     45507     45503     45505     45517     45504     45503     45505
     45505     45517     45518     45505     45517     45519     45505     45517     45520
     45506     45505     45507     45506     45505     45517     45507     45505     45517
     45508     45511     45512     45509     45508     45510     45509     45508     45511
     45510     45508     45511     45511     45512     45513     45511     45512     45514
     45512     45514     45515     45512     45514     45516     45512     45514     45558
     45513     45512     45514     45514     45558     45559     45514     45558     45560
     45514     45558     45561     45515     45514     45516     45515     45514     45558
     45516     45514     45558     45517     45520     45521     45517     45520     45522
     45517     45520     45523     45518     45517     45519     45518     45517     45520
     45519     45517     45520     45520     45523     45524     45520     45523     45525
     45520     45523     45526     45521     45520     45522     45521     45520     45523
     45522     45520     45523     45523     45526     45527     45523     45526     45528
     45523     45526     45529     45524     45523     45525     45524     45523     45526
     45525     45523     45526     45526     45529     45530     45526     45529     45531
     45526     45529     45532     45527     45526     45528     45527     45526     45529
     45528     45526     45529     45529     45532     45533     45529     45532     45534
     45529     45532     45535     45530     45529     45531     45530     45529     45532
     45531     45529     45532     45532     45535     45536     45532     45535     45537
     45533     45532     45534     45533     45532     45535     45534     45532     45535
     45535     45537     45538     45535     45537     45539     45536     45535     45537
     45537     45539     45540     45537     45539     45541     45537     45539     45542
     45538     45537     45539     45539     45542     45543     45539     45542     45544
     45539     45542     45545     45540     45539     45541     45540     45539     45542
     45541     45539     45542     45542     45545     45546     45542     45545     45547
     45542     45545     45548     45543     45542     45544     45543     45542     45545
     45544     45542     45545     45545     45548     45549     45545     45548     45550
     45545     45548     45551     45546     45545     45547     45546     45545     45548
     45547     45545     45548     45548     45551     45552     45548     45551     45553
     45548     45551     45554     45549     45548     45550     45549     45548     45551
     45550     45548     45551     45551     45554     45555     45551     45554     45556
     45551     45554     45557     45552     45551     45553     45552     45551     45554
     45553     45551     45554     45555     45554     45556     45555     45554     45557
     45556     45554     45557     45558     45561     45562     45558     45561     45563
     45558     45561     45564     45559     45558     45560     45559     45558     45561
     45560     45558     45561     45561     45564     45565     45561     45564     45566
     45561     45564     45567     45562     45561     45563     45562     45561     45564
     45563     45561     45564     45564     45567     45568     45564     45567     45569
     45564     45567     45570     45565     45564     45566     45565     45564     45567
     45566     45564     45567     45567     45570     45571     45567     45570     45572
     45567     45570     45573     45568     45567     45569     45568     45567     45570
     45569     45567     45570     45570     45573     45574     45570     45573     45575
     45570     45573     45576     45571     45570     45572     45571     45570     45573
     45572     45570     45573     45573     45576     45577     45573     45576     45578
     45573     45576     45579     45574     45573     45575     45574     45573     45576
     45575     45573     45576     45576     45579     45580     45576     45579     45581
     45576     45579     45582     45577     45576     45578     45577     45576     45579
     45578     45576     45579     45579     45582     45583     45579     45582     45584
     45579     45582     45585     45580     45579     45581     45580     45579     45582
     45581     45579     45582     45582     45585     45586     45582     45585     45587
     45582     45585     45588     45583     45582     45584     45583     45582     45585
     45584     45582     45585     45585     45588     45589     45585     45588     45590
     45585     45588     45591     45586     45585     45587     45586     45585     45588
     45587     45585     45588     45588     45591     45592     45588     45591     45593
     45588     45591     45594     45589     45588     45590     45589     45588     45591
     45590     45588     45591     45591     45594     45595     45591     45594     45596
     45591     45594     45597     45592     45591     45593     45592     45591     45594
     45593     45591     45594     45594     45597     45598     45594     45597     45599
     45594     45597     45600     45595     45594     45596     45595     45594     45597
     45596     45594     45597     45598     45597     45599     45598     45597     45600
     45599     45597     45600     45601     45605     45606     45601     45605     45607
     45601     45605     45608     45602     45601     45603     45602     45601     45604
     45602     45601     45605     45603     45601     45604     45603     45601     45605
     45604     45601     45605     45605     45608     45609     45605     45608     45610
     45605     45608     45615     45606     45605     45607     45606     45605     45608
     45607     45605     45608     45608     45615     45611     45609     45608     45610
     45609     45608     45615     45610     45608     45615     45611     45614     45616
     45612     45611     45613     45612     45611     45614     45612     45611     45615
     45613     45611     45614     45613     45611     45615     45614     45611     45615
     45614     45616     45617     45614     45616     45618     45614     45616     45619
     45616     45619     45620     45616     45619     45621     45616     45619     45627
     45617     45616     45618     45617     45616     45619     45618     45616     45619
     45619     45621     45622     45619     45627     45628     45619     45627     45629
     45619     45627     45630     45620     45619     45621     45620     45619     45627
     45621     45619     45627     45621     45622     45623     45621     45622     45624
     45622     45624     45625     45622     45624     45626     45622     45624     45636
     45623     45622     45624     45624     45636     45637     45624     45636     45638
     45624     45636     45639     45625     45624     45626     45625     45624     45636
     45626     45624     45636     45627     45630     45631     45628     45627     45629
     45628     45627     45630     45629     45627     45630     45630     45631     45632
     45630     45631     45633     45631     45633     45634     45631     45633     45635
     45631     45633     45677     45632     45631     45633     45633     45677     45678
     45633     45677     45679     45633     45677     45680     45634     45633     45635
     45634     45633     45677     45635     45633     45677     45636     45639     45640
     45636     45639     45641     45636     45639     45642     45637     45636     45638
     45637     45636     45639     45638     45636     45639     45639     45642     45643
     45639     45642     45644     45639     45642     45645     45640     45639     45641
     45640     45639     45642     45641     45639     45642     45642     45645     45646
     45642     45645     45647     45642     45645     45648     45643     45642     45644
     45643     45642     45645     45644     45642     45645     45645     45648     45649
     45645     45648     45650     45645     45648     45651     45646     45645     45647
     45646     45645     45648     45647     45645     45648     45648     45651     45652
     45648     45651     45653     45648     45651     45654     45649     45648     45650
     45649     45648     45651     45650     45648     45651     45651     45654     45655
     45651     45654     45656     45652     45651     45653     45652     45651     45654
     45653     45651     45654     45654     45656     45657     45654     45656     45658
     45655     45654     45656     45656     45658     45659     45656     45658     45660
     45656     45658     45661     45657     45656     45658     45658     45661     45662
     45658     45661     45663     45658     45661     45664     45659     45658     45660
     45659     45658     45661     45660     45658     45661     45661     45664     45665
     45661     45664     45666     45661     45664     45667     45662     45661     45663
     45662     45661     45664     45663     45661     45664     45664     45667     45668
     45664     45667     45669     45664     45667     45670     45665     45664     45666
     45665     45664     45667     45666     45664     45667     45667     45670     45671
     45667     45670     45672     45667     45670     45673     45668     45667     45669
     45668     45667     45670     45669     45667     45670     45670     45673     45674
     45670     45673     45675     45670     45673     45676     45671     45670     45672
     45671     45670     45673     45672     45670     45673     45674     45673     45675
     45674     45673     45676     45675     45673     45676     45677     45680     45681
     45677     45680     45682     45677     45680     45683     45678     45677     45679
     45678     45677     45680     45679     45677     45680     45680     45683     45684
     45680     45683     45685     45680     45683     45686     45681     45680     45682
     45681     45680     45683     45682     45680     45683     45683     45686     45687
     45683     45686     45688     45683     45686     45689     45684     45683     45685
     45684     45683     45686     45685     45683     45686     45686     45689     45690
     45686     45689     45691     45686     45689     45692     45687     45686     45688
     45687     45686     45689     45688     45686     45689     45689     45692     45693
     45689     45692     45694     45689     45692     45695     45690     45689     45691
     45690     45689     45692     45691     45689     45692     45692     45695     45696
     45692     45695     45697     45692     45695     45698     45693     45692     45694
     45693     45692     45695     45694     45692     45695     45695     45698     45699
     45695     45698     45700     45695     45698     45701     45696     45695     45697
     45696     45695     45698     45697     45695     45698     45698     45701     45702
     45698     45701     45703     45698     45701     45704     45699     45698     45700
     45699     45698     45701     45700     45698     45701     45701     45704     45705
     45701     45704     45706     45701     45704     45707     45702     45701     45703
     45702     45701     45704     45703     45701     45704     45704     45707     45708
     45704     45707     45709     45704     45707     45710     45705     45704     45706
     45705     45704     45707     45706     45704     45707     45707     45710     45711
     45707     45710     45712     45707     45710     45713     45708     45707     45709
     45708     45707     45710     45709     45707     45710     45710     45713     45714
     45710     45713     45715     45710     45713     45716     45711     45710     45712
     45711     45710     45713     45712     45710     45713     45713     45716     45717
     45713     45716     45718     45713     45716     45719     45714     45713     45715
     45714     45713     45716     45715     45713     45716     45717     45716     45718
     45717     45716     45719     45718     45716     45719     45720     45724     45725
     45720     45724     45726     45720     45724     45727     45721     45720     45722
     45721     45720     45723     45721     45720     45724     45722     45720     45723
     45722     45720     45724     45723     45720     45724     45724     45727     45728
     45724     45727     45729     45724     45727     45734     45725     45724     45726
     45725     45724     45727     45726     45724     45727     45727     45734     45730
     45728     45727     45729     45728     45727     45734     45729     45727     45734
     45730     45733     45735     45731     45730     45732     45731     45730     45733
     45731     45730     45734     45732     45730     45733     45732     45730     45734
     45733     45730     45734     45733     45735     45736     45733     45735     45737
     45733     45735     45738     45735     45738     45739     45735     45738     45740
     45735     45738     45746     45736     45735     45737     45736     45735     45738
     45737     45735     45738     45738     45740     45741     45738     45746     45747
     45738     45746     45748     45738     45746     45749     45739     45738     45740
     45739     45738     45746     45740     45738     45746     45740     45741     45742
     45740     45741     45743     45741     45743     45744     45741     45743     45745
     45741     45743     45755     45742     45741     45743     45743     45755     45756
     45743     45755     45757     45743     45755     45758     45744     45743     45745
     45744     45743     45755     45745     45743     45755     45746     45749     45750
     45747     45746     45748     45747     45746     45749     45748     45746     45749
     45749     45750     45751     45749     45750     45752     45750     45752     45753
     45750     45752     45754     45750     45752     45796     45751     45750     45752
     45752     45796     45797     45752     45796     45798     45752     45796     45799
     45753     45752     45754     45753     45752     45796     45754     45752     45796
     45755     45758     45759     45755     45758     45760     45755     45758     45761
     45756     45755     45757     45756     45755     45758     45757     45755     45758
     45758     45761     45762     45758     45761     45763     45758     45761     45764
     45759     45758     45760     45759     45758     45761     45760     45758     45761
     45761     45764     45765     45761     45764     45766     45761     45764     45767
     45762     45761     45763     45762     45761     45764     45763     45761     45764
     45764     45767     45768     45764     45767     45769     45764     45767     45770
     45765     45764     45766     45765     45764     45767     45766     45764     45767
     45767     45770     45771     45767     45770     45772     45767     45770     45773
     45768     45767     45769     45768     45767     45770     45769     45767     45770
     45770     45773     45774     45770     45773     45775     45771     45770     45772
     45771     45770     45773     45772     45770     45773     45773     45775     45776
     45773     45775     45777     45774     45773     45775     45775     45777     45778
     45775     45777     45779     45775     45777     45780     45776     45775     45777
     45777     45780     45781     45777     45780     45782     45777     45780     45783
     45778     45777     45779     45778     45777     45780     45779     45777     45780
     45780     45783     45784     45780     45783     45785     45780     45783     45786
     45781     45780     45782     45781     45780     45783     45782     45780     45783
     45783     45786     45787     45783     45786     45788     45783     45786     45789
     45784     45783     45785     45784     45783     45786     45785     45783     45786
     45786     45789     45790     45786     45789     45791     45786     45789     45792
     45787     45786     45788     45787     45786     45789     45788     45786     45789
     45789     45792     45793     45789     45792     45794     45789     45792     45795
     45790     45789     45791     45790     45789     45792     45791     45789     45792
     45793     45792     45794     45793     45792     45795     45794     45792     45795
     45796     45799     45800     45796     45799     45801     45796     45799     45802
     45797     45796     45798     45797     45796     45799     45798     45796     45799
     45799     45802     45803     45799     45802     45804     45799     45802     45805
     45800     45799     45801     45800     45799     45802     45801     45799     45802
     45802     45805     45806     45802     45805     45807     45802     45805     45808
     45803     45802     45804     45803     45802     45805     45804     45802     45805
     45805     45808     45809     45805     45808     45810     45805     45808     45811
     45806     45805     45807     45806     45805     45808     45807     45805     45808
     45808     45811     45812     45808     45811     45813     45808     45811     45814
     45809     45808     45810     45809     45808     45811     45810     45808     45811
     45811     45814     45815     45811     45814     45816     45811     45814     45817
     45812     45811     45813     45812     45811     45814     45813     45811     45814
     45814     45817     45818     45814     45817     45819     45814     45817     45820
     45815     45814     45816     45815     45814     45817     45816     45814     45817
     45817     45820     45821     45817     45820     45822     45817     45820     45823
     45818     45817     45819     45818     45817     45820     45819     45817     45820
     45820     45823     45824     45820     45823     45825     45820     45823     45826
     45821     45820     45822     45821     45820     45823     45822     45820     45823
     45823     45826     45827     45823     45826     45828     45823     45826     45829
     45824     45823     45825     45824     45823     45826     45825     45823     45826
     45826     45829     45830     45826     45829     45831     45826     45829     45832
     45827     45826     45828     45827     45826     45829     45828     45826     45829
     45829     45832     45833     45829     45832     45834     45829     45832     45835
     45830     45829     45831     45830     45829     45832     45831     45829     45832
     45832     45835     45836     45832     45835     45837     45832     45835     45838
     45833     45832     45834     45833     45832     45835     45834     45832     45835
     45836     45835     45837     45836     45835     45838     45837     45835     45838
     45839     45843     45844     45839     45843     45845     45839     45843     45846
     45840     45839     45841     45840     45839     45842     45840     45839     45843
     45841     45839     45842     45841     45839     45843     45842     45839     45843
     45843     45846     45847     45843     45846     45848     45843     45846     45853
     45844     45843     45845     45844     45843     45846     45845     45843     45846
     45846     45853     45849     45847     45846     45848     45847     45846     45853
     45848     45846     45853     45849     45852     45854     45850     45849     45851
     45850     45849     45852     45850     45849     45853     45851     45849     45852
     45851     45849     45853     45852     45849     45853     45852     45854     45855
     45852     45854     45856     45852     45854     45857     45854     45857     45858
     45854     45857     45859     45854     45857     45865     45855     45854     45856
     45855     45854     45857     45856     45854     45857     45857     45859     45860
     45857     45865     45866     45857     45865     45867     45857     45865     45868
     45858     45857     45859     45858     45857     45865     45859     45857     45865
     45859     45860     45861     45859     45860     45862     45860     45862     45863
     45860     45862     45864     45860     45862     45874     45861     45860     45862
     45862     45874     45875     45862     45874     45876     45862     45874     45877
     45863     45862     45864     45863     45862     45874     45864     45862     45874
     45865     45868     45869     45866     45865     45867     45866     45865     45868
     45867     45865     45868     45868     45869     45870     45868     45869     45871
     45869     45871     45872     45869     45871     45873     45869     45871     45915
     45870     45869     45871     45871     45915     45916     45871     45915     45917
     45871     45915     45918     45872     45871     45873     45872     45871     45915
     45873     45871     45915     45874     45877     45878     45874     45877     45879
     45874     45877     45880     45875     45874     45876     45875     45874     45877
     45876     45874     45877     45877     45880     45881     45877     45880     45882
     45877     45880     45883     45878     45877     45879     45878     45877     45880
     45879     45877     45880     45880     45883     45884     45880     45883     45885
     45880     45883     45886     45881     45880     45882     45881     45880     45883
     45882     45880     45883     45883     45886     45887     45883     45886     45888
     45883     45886     45889     45884     45883     45885     45884     45883     45886
     45885     45883     45886     45886     45889     45890     45886     45889     45891
     45886     45889     45892     45887     45886     45888     45887     45886     45889
     45888     45886     45889     45889     45892     45893     45889     45892     45894
     45890     45889     45891     45890     45889     45892     45891     45889     45892
     45892     45894     45895     45892     45894     45896     45893     45892     45894
     45894     45896     45897     45894     45896     45898     45894     45896     45899
     45895     45894     45896     45896     45899     45900     45896     45899     45901
     45896     45899     45902     45897     45896     45898     45897     45896     45899
     45898     45896     45899     45899     45902     45903     45899     45902     45904
     45899     45902     45905     45900     45899     45901     45900     45899     45902
     45901     45899     45902     45902     45905     45906     45902     45905     45907
     45902     45905     45908     45903     45902     45904     45903     45902     45905
     45904     45902     45905     45905     45908     45909     45905     45908     45910
     45905     45908     45911     45906     45905     45907     45906     45905     45908
     45907     45905     45908     45908     45911     45912     45908     45911     45913
     45908     45911     45914     45909     45908     45910     45909     45908     45911
     45910     45908     45911     45912     45911     45913     45912     45911     45914
     45913     45911     45914     45915     45918     45919     45915     45918     45920
     45915     45918     45921     45916     45915     45917     45916     45915     45918
     45917     45915     45918     45918     45921     45922     45918     45921     45923
     45918     45921     45924     45919     45918     45920     45919     45918     45921
     45920     45918     45921     45921     45924     45925     45921     45924     45926
     45921     45924     45927     45922     45921     45923     45922     45921     45924
     45923     45921     45924     45924     45927     45928     45924     45927     45929
     45924     45927     45930     45925     45924     45926     45925     45924     45927
     45926     45924     45927     45927     45930     45931     45927     45930     45932
     45927     45930     45933     45928     45927     45929     45928     45927     45930
     45929     45927     45930     45930     45933     45934     45930     45933     45935
     45930     45933     45936     45931     45930     45932     45931     45930     45933
     45932     45930     45933     45933     45936     45937     45933     45936     45938
     45933     45936     45939     45934     45933     45935     45934     45933     45936
     45935     45933     45936     45936     45939     45940     45936     45939     45941
     45936     45939     45942     45937     45936     45938     45937     45936     45939
     45938     45936     45939     45939     45942     45943     45939     45942     45944
     45939     45942     45945     45940     45939     45941     45940     45939     45942
     45941     45939     45942     45942     45945     45946     45942     45945     45947
     45942     45945     45948     45943     45942     45944     45943     45942     45945
     45944     45942     45945     45945     45948     45949     45945     45948     45950
     45945     45948     45951     45946     45945     45947     45946     45945     45948
     45947     45945     45948     45948     45951     45952     45948     45951     45953
     45948     45951     45954     45949     45948     45950     45949     45948     45951
     45950     45948     45951     45951     45954     45955     45951     45954     45956
     45951     45954     45957     45952     45951     45953     45952     45951     45954
     45953     45951     45954     45955     45954     45956     45955     45954     45957
     45956     45954     45957     45958     45962     45963     45958     45962     45964
     45958     45962     45965     45959     45958     45960     45959     45958     45961
     45959     45958     45962     45960     45958     45961     45960     45958     45962
     45961     45958     45962     45962     45965     45966     45962     45965     45967
     45962     45965     45972     45963     45962     45964     45963     45962     45965
     45964     45962     45965     45965     45972     45968     45966     45965     45967
     45966     45965     45972     45967     45965     45972     45968     45971     45973
     45969     45968     45970     45969     45968     45971     45969     45968     45972
     45970     45968     45971     45970     45968     45972     45971     45968     45972
     45971     45973     45974     45971     45973     45975     45971     45973     45976
     45973     45976     45977     45973     45976     45978     45973     45976     45984
     45974     45973     45975     45974     45973     45976     45975     45973     45976
     45976     45978     45979     45976     45984     45985     45976     45984     45986
     45976     45984     45987     45977     45976     45978     45977     45976     45984
     45978     45976     45984     45978     45979     45980     45978     45979     45981
     45979     45981     45982     45979     45981     45983     45979     45981     45993
     45980     45979     45981     45981     45993     45994     45981     45993     45995
     45981     45993     45996     45982     45981     45983     45982     45981     45993
     45983     45981     45993     45984     45987     45988     45985     45984     45986
     45985     45984     45987     45986     45984     45987     45987     45988     45989
     45987     45988     45990     45988     45990     45991     45988     45990     45992
     45988     45990     46034     45989     45988     45990     45990     46034     46035
     45990     46034     46036     45990     46034     46037     45991     45990     45992
     45991     45990     46034     45992     45990     46034     45993     45996     45997
     45993     45996     45998     45993     45996     45999     45994     45993     45995
     45994     45993     45996     45995     45993     45996     45996     45999     46000
     45996     45999     46001     45996     45999     46002     45997     45996     45998
     45997     45996     45999     45998     45996     45999     45999     46002     46003
     45999     46002     46004     45999     46002     46005     46000     45999     46001
     46000     45999     46002     46001     45999     46002     46002     46005     46006
     46002     46005     46007     46002     46005     46008     46003     46002     46004
     46003     46002     46005     46004     46002     46005     46005     46008     46009
     46005     46008     46010     46005     46008     46011     46006     46005     46007
     46006     46005     46008     46007     46005     46008     46008     46011     46012
     46008     46011     46013     46009     46008     46010     46009     46008     46011
     46010     46008     46011     46011     46013     46014     46011     46013     46015
     46012     46011     46013     46013     46015     46016     46013     46015     46017
     46013     46015     46018     46014     46013     46015     46015     46018     46019
     46015     46018     46020     46015     46018     46021     46016     46015     46017
     46016     46015     46018     46017     46015     46018     46018     46021     46022
     46018     46021     46023     46018     46021     46024     46019     46018     46020
     46019     46018     46021     46020     46018     46021     46021     46024     46025
     46021     46024     46026     46021     46024     46027     46022     46021     46023
     46022     46021     46024     46023     46021     46024     46024     46027     46028
     46024     46027     46029     46024     46027     46030     46025     46024     46026
     46025     46024     46027     46026     46024     46027     46027     46030     46031
     46027     46030     46032     46027     46030     46033     46028     46027     46029
     46028     46027     46030     46029     46027     46030     46031     46030     46032
     46031     46030     46033     46032     46030     46033     46034     46037     46038
     46034     46037     46039     46034     46037     46040     46035     46034     46036
     46035     46034     46037     46036     46034     46037     46037     46040     46041
     46037     46040     46042     46037     46040     46043     46038     46037     46039
     46038     46037     46040     46039     46037     46040     46040     46043     46044
     46040     46043     46045     46040     46043     46046     46041     46040     46042
     46041     46040     46043     46042     46040     46043     46043     46046     46047
     46043     46046     46048     46043     46046     46049     46044     46043     46045
     46044     46043     46046     46045     46043     46046     46046     46049     46050
     46046     46049     46051     46046     46049     46052     46047     46046     46048
     46047     46046     46049     46048     46046     46049     46049     46052     46053
     46049     46052     46054     46049     46052     46055     46050     46049     46051
     46050     46049     46052     46051     46049     46052     46052     46055     46056
     46052     46055     46057     46052     46055     46058     46053     46052     46054
     46053     46052     46055     46054     46052     46055     46055     46058     46059
     46055     46058     46060     46055     46058     46061     46056     46055     46057
     46056     46055     46058     46057     46055     46058     46058     46061     46062
     46058     46061     46063     46058     46061     46064     46059     46058     46060
     46059     46058     46061     46060     46058     46061     46061     46064     46065
     46061     46064     46066     46061     46064     46067     46062     46061     46063
     46062     46061     46064     46063     46061     46064     46064     46067     46068
     46064     46067     46069     46064     46067     46070     46065     46064     46066
     46065     46064     46067     46066     46064     46067     46067     46070     46071
     46067     46070     46072     46067     46070     46073     46068     46067     46069
     46068     46067     46070     46069     46067     46070     46070     46073     46074
     46070     46073     46075     46070     46073     46076     46071     46070     46072
     46071     46070     46073     46072     46070     46073     46074     46073     46075
     46074     46073     46076     46075     46073     46076     46077     46081     46082
     46077     46081     46083     46077     46081     46084     46078     46077     46079
     46078     46077     46080     46078     46077     46081     46079     46077     46080
     46079     46077     46081     46080     46077     46081     46081     46084     46085
     46081     46084     46086     46081     46084     46091     46082     46081     46083
     46082     46081     46084     46083     46081     46084     46084     46091     46087
     46085     46084     46086     46085     46084     46091     46086     46084     46091
     46087     46090     46092     46088     46087     46089     46088     46087     46090
     46088     46087     46091     46089     46087     46090     46089     46087     46091
     46090     46087     46091     46090     46092     46093     46090     46092     46094
     46090     46092     46095     46092     46095     46096     46092     46095     46097
     46092     46095     46103     46093     46092     46094     46093     46092     46095
     46094     46092     46095     46095     46097     46098     46095     46103     46104
     46095     46103     46105     46095     46103     46106     46096     46095     46097
     46096     46095     46103     46097     46095     46103     46097     46098     46099
     46097     46098     46100     46098     46100     46101     46098     46100     46102
     46098     46100     46112     46099     46098     46100     46100     46112     46113
     46100     46112     46114     46100     46112     46115     46101     46100     46102
     46101     46100     46112     46102     46100     46112     46103     46106     46107
     46104     46103     46105     46104     46103     46106     46105     46103     46106
     46106     46107     46108     46106     46107     46109     46107     46109     46110
     46107     46109     46111     46107     46109     46153     46108     46107     46109
     46109     46153     46154     46109     46153     46155     46109     46153     46156
     46110     46109     46111     46110     46109     46153     46111     46109     46153
     46112     46115     46116     46112     46115     46117     46112     46115     46118
     46113     46112     46114     46113     46112     46115     46114     46112     46115
     46115     46118     46119     46115     46118     46120     46115     46118     46121
     46116     46115     46117     46116     46115     46118     46117     46115     46118
     46118     46121     46122     46118     46121     46123     46118     46121     46124
     46119     46118     46120     46119     46118     46121     46120     46118     46121
     46121     46124     46125     46121     46124     46126     46121     46124     46127
     46122     46121     46123     46122     46121     46124     46123     46121     46124
     46124     46127     46128     46124     46127     46129     46124     46127     46130
     46125     46124     46126     46125     46124     46127     46126     46124     46127
     46127     46130     46131     46127     46130     46132     46128     46127     46129
     46128     46127     46130     46129     46127     46130     46130     46132     46133
     46130     46132     46134     46131     46130     46132     46132     46134     46135
     46132     46134     46136     46132     46134     46137     46133     46132     46134
     46134     46137     46138     46134     46137     46139     46134     46137     46140
     46135     46134     46136     46135     46134     46137     46136     46134     46137
     46137     46140     46141     46137     46140     46142     46137     46140     46143
     46138     46137     46139     46138     46137     46140     46139     46137     46140
     46140     46143     46144     46140     46143     46145     46140     46143     46146
     46141     46140     46142     46141     46140     46143     46142     46140     46143
     46143     46146     46147     46143     46146     46148     46143     46146     46149
     46144     46143     46145     46144     46143     46146     46145     46143     46146
     46146     46149     46150     46146     46149     46151     46146     46149     46152
     46147     46146     46148     46147     46146     46149     46148     46146     46149
     46150     46149     46151     46150     46149     46152     46151     46149     46152
     46153     46156     46157     46153     46156     46158     46153     46156     46159
     46154     46153     46155     46154     46153     46156     46155     46153     46156
     46156     46159     46160     46156     46159     46161     46156     46159     46162
     46157     46156     46158     46157     46156     46159     46158     46156     46159
     46159     46162     46163     46159     46162     46164     46159     46162     46165
     46160     46159     46161     46160     46159     46162     46161     46159     46162
     46162     46165     46166     46162     46165     46167     46162     46165     46168
     46163     46162     46164     46163     46162     46165     46164     46162     46165
     46165     46168     46169     46165     46168     46170     46165     46168     46171
     46166     46165     46167     46166     46165     46168     46167     46165     46168
     46168     46171     46172     46168     46171     46173     46168     46171     46174
     46169     46168     46170     46169     46168     46171     46170     46168     46171
     46171     46174     46175     46171     46174     46176     46171     46174     46177
     46172     46171     46173     46172     46171     46174     46173     46171     46174
     46174     46177     46178     46174     46177     46179     46174     46177     46180
     46175     46174     46176     46175     46174     46177     46176     46174     46177
     46177     46180     46181     46177     46180     46182     46177     46180     46183
     46178     46177     46179     46178     46177     46180     46179     46177     46180
     46180     46183     46184     46180     46183     46185     46180     46183     46186
     46181     46180     46182     46181     46180     46183     46182     46180     46183
     46183     46186     46187     46183     46186     46188     46183     46186     46189
     46184     46183     46185     46184     46183     46186     46185     46183     46186
     46186     46189     46190     46186     46189     46191     46186     46189     46192
     46187     46186     46188     46187     46186     46189     46188     46186     46189
     46189     46192     46193     46189     46192     46194     46189     46192     46195
     46190     46189     46191     46190     46189     46192     46191     46189     46192
     46193     46192     46194     46193     46192     46195     46194     46192     46195
     46196     46199     46200     46196     46201     46202     46196     46201     46203
     46196     46201     46205     46197     46196     46198     46197     46196     46199
     46197     46196     46201     46198     46196     46199     46198     46196     46201
     46199     46196     46201     46201     46203     46204     46201     46205     46206
     46201     46205     46207     46201     46205     46211     46202     46201     46203
     46202     46201     46205     46203     46201     46205     46205     46211     46208
     46206     46205     46207     46206     46205     46211     46207     46205     46211
     46208     46212     46213     46209     46208     46210     46209     46208     46211
     46209     46208     46212     46210     46208     46211     46210     46208     46212
     46211     46208     46212     46212     46213     46214     46212     46213     46215
     46212     46213     46216     46213     46216     46217     46213     46216     46218
     46213     46216     46224     46214     46213     46215     46214     46213     46216
     46215     46213     46216     46216     46218     46219     46216     46224     46225
     46216     46224     46226     46216     46224     46227     46217     46216     46218
     46217     46216     46224     46218     46216     46224     46218     46219     46220
     46218     46219     46221     46219     46221     46222     46219     46221     46223
     46219     46221     46233     46220     46219     46221     46221     46233     46234
     46221     46233     46235     46221     46233     46236     46222     46221     46223
     46222     46221     46233     46223     46221     46233     46224     46227     46228
     46225     46224     46226     46225     46224     46227     46226     46224     46227
     46227     46228     46229     46227     46228     46230     46228     46230     46231
     46228     46230     46232     46228     46230     46280     46229     46228     46230
     46230     46280     46281     46230     46280     46282     46230     46280     46283
     46231     46230     46232     46231     46230     46280     46232     46230     46280
     46233     46236     46237     46233     46236     46238     46233     46236     46239
     46234     46233     46235     46234     46233     46236     46235     46233     46236
     46236     46239     46240     46236     46239     46241     46236     46239     46242
     46237     46236     46238     46237     46236     46239     46238     46236     46239
     46239     46242     46243     46239     46242     46244     46239     46242     46245
     46240     46239     46241     46240     46239     46242     46241     46239     46242
     46242     46245     46246     46242     46245     46247     46242     46245     46248
     46243     46242     46244     46243     46242     46245     46244     46242     46245
     46245     46248     46249     46245     46248     46250     46245     46248     46251
     46246     46245     46247     46246     46245     46248     46247     46245     46248
     46248     46251     46252     46248     46251     46253     46248     46251     46254
     46249     46248     46250     46249     46248     46251     46250     46248     46251
     46251     46254     46255     46251     46254     46256     46251     46254     46257
     46252     46251     46253     46252     46251     46254     46253     46251     46254
     46254     46257     46258     46254     46257     46259     46255     46254     46256
     46255     46254     46257     46256     46254     46257     46257     46259     46260
     46257     46259     46261     46258     46257     46259     46259     46261     46262
     46259     46261     46263     46259     46261     46264     46260     46259     46261
     46261     46264     46265     46261     46264     46266     46261     46264     46267
     46262     46261     46263     46262     46261     46264     46263     46261     46264
     46264     46267     46268     46264     46267     46269     46264     46267     46270
     46265     46264     46266     46265     46264     46267     46266     46264     46267
     46267     46270     46271     46267     46270     46272     46267     46270     46273
     46268     46267     46269     46268     46267     46270     46269     46267     46270
     46270     46273     46274     46270     46273     46275     46270     46273     46276
     46271     46270     46272     46271     46270     46273     46272     46270     46273
     46273     46276     46277     46273     46276     46278     46273     46276     46279
     46274     46273     46275     46274     46273     46276     46275     46273     46276
     46277     46276     46278     46277     46276     46279     46278     46276     46279
     46280     46283     46284     46280     46283     46285     46280     46283     46286
     46281     46280     46282     46281     46280     46283     46282     46280     46283
     46283     46286     46287     46283     46286     46288     46283     46286     46289
     46284     46283     46285     46284     46283     46286     46285     46283     46286
     46286     46289     46290     46286     46289     46291     46286     46289     46292
     46287     46286     46288     46287     46286     46289     46288     46286     46289
     46289     46292     46293     46289     46292     46294     46289     46292     46295
     46290     46289     46291     46290     46289     46292     46291     46289     46292
     46292     46295     46296     46292     46295     46297     46292     46295     46298
     46293     46292     46294     46293     46292     46295     46294     46292     46295
     46295     46298     46299     46295     46298     46300     46295     46298     46301
     46296     46295     46297     46296     46295     46298     46297     46295     46298
     46298     46301     46302     46298     46301     46303     46298     46301     46304
     46299     46298     46300     46299     46298     46301     46300     46298     46301
     46301     46304     46305     46301     46304     46306     46301     46304     46307
     46302     46301     46303     46302     46301     46304     46303     46301     46304
     46304     46307     46308     46304     46307     46309     46304     46307     46310
     46305     46304     46306     46305     46304     46307     46306     46304     46307
     46307     46310     46311     46307     46310     46312     46307     46310     46313
     46308     46307     46309     46308     46307     46310     46309     46307     46310
     46310     46313     46314     46310     46313     46315     46310     46313     46316
     46311     46310     46312     46311     46310     46313     46312     46310     46313
     46313     46316     46317     46313     46316     46318     46313     46316     46319
     46314     46313     46315     46314     46313     46316     46315     46313     46316
     46316     46319     46320     46316     46319     46321     46316     46319     46322
     46317     46316     46318     46317     46316     46319     46318     46316     46319
     46320     46319     46321     46320     46319     46322     46321     46319     46322
     46323     46327     46328     46323     46327     46329     46323     46327     46330
     46324     46323     46325     46324     46323     46326     46324     46323     46327
     46325     46323     46326     46325     46323     46327     46326     46323     46327
     46327     46330     46331     46327     46330     46332     46327     46330     46337
     46328     46327     46329     46328     46327     46330     46329     46327     46330
     46330     46337     46333     46331     46330     46332     46331     46330     46337
     46332     46330     46337     46333     46336     46338     46334     46333     46335
     46334     46333     46336     46334     46333     46337     46335     46333     46336
     46335     46333     46337     46336     46333     46337     46336     46338     46339
     46336     46338     46340     46336     46338     46341     46338     46341     46342
     46338     46341     46343     46338     46341     46349     46339     46338     46340
     46339     46338     46341     46340     46338     46341     46341     46343     46344
     46341     46349     46350     46341     46349     46351     46341     46349     46352
     46342     46341     46343     46342     46341     46349     46343     46341     46349
     46343     46344     46345     46343     46344     46346     46344     46346     46347
     46344     46346     46348     46344     46346     46358     46345     46344     46346
     46346     46358     46359     46346     46358     46360     46346     46358     46361
     46347     46346     46348     46347     46346     46358     46348     46346     46358
     46349     46352     46353     46350     46349     46351     46350     46349     46352
     46351     46349     46352     46352     46353     46354     46352     46353     46355
     46353     46355     46356     46353     46355     46357     46353     46355     46399
     46354     46353     46355     46355     46399     46400     46355     46399     46401
     46355     46399     46402     46356     46355     46357     46356     46355     46399
     46357     46355     46399     46358     46361     46362     46358     46361     46363
     46358     46361     46364     46359     46358     46360     46359     46358     46361
     46360     46358     46361     46361     46364     46365     46361     46364     46366
     46361     46364     46367     46362     46361     46363     46362     46361     46364
     46363     46361     46364     46364     46367     46368     46364     46367     46369
     46364     46367     46370     46365     46364     46366     46365     46364     46367
     46366     46364     46367     46367     46370     46371     46367     46370     46372
     46367     46370     46373     46368     46367     46369     46368     46367     46370
     46369     46367     46370     46370     46373     46374     46370     46373     46375
     46370     46373     46376     46371     46370     46372     46371     46370     46373
     46372     46370     46373     46373     46376     46377     46373     46376     46378
     46374     46373     46375     46374     46373     46376     46375     46373     46376
     46376     46378     46379     46376     46378     46380     46377     46376     46378
     46378     46380     46381     46378     46380     46382     46378     46380     46383
     46379     46378     46380     46380     46383     46384     46380     46383     46385
     46380     46383     46386     46381     46380     46382     46381     46380     46383
     46382     46380     46383     46383     46386     46387     46383     46386     46388
     46383     46386     46389     46384     46383     46385     46384     46383     46386
     46385     46383     46386     46386     46389     46390     46386     46389     46391
     46386     46389     46392     46387     46386     46388     46387     46386     46389
     46388     46386     46389     46389     46392     46393     46389     46392     46394
     46389     46392     46395     46390     46389     46391     46390     46389     46392
     46391     46389     46392     46392     46395     46396     46392     46395     46397
     46392     46395     46398     46393     46392     46394     46393     46392     46395
     46394     46392     46395     46396     46395     46397     46396     46395     46398
     46397     46395     46398     46399     46402     46403     46399     46402     46404
     46399     46402     46405     46400     46399     46401     46400     46399     46402
     46401     46399     46402     46402     46405     46406     46402     46405     46407
     46402     46405     46408     46403     46402     46404     46403     46402     46405
     46404     46402     46405     46405     46408     46409     46405     46408     46410
     46405     46408     46411     46406     46405     46407     46406     46405     46408
     46407     46405     46408     46408     46411     46412     46408     46411     46413
     46408     46411     46414     46409     46408     46410     46409     46408     46411
     46410     46408     46411     46411     46414     46415     46411     46414     46416
     46411     46414     46417     46412     46411     46413     46412     46411     46414
     46413     46411     46414     46414     46417     46418     46414     46417     46419
     46414     46417     46420     46415     46414     46416     46415     46414     46417
     46416     46414     46417     46417     46420     46421     46417     46420     46422
     46417     46420     46423     46418     46417     46419     46418     46417     46420
     46419     46417     46420     46420     46423     46424     46420     46423     46425
     46420     46423     46426     46421     46420     46422     46421     46420     46423
     46422     46420     46423     46423     46426     46427     46423     46426     46428
     46423     46426     46429     46424     46423     46425     46424     46423     46426
     46425     46423     46426     46426     46429     46430     46426     46429     46431
     46426     46429     46432     46427     46426     46428     46427     46426     46429
     46428     46426     46429     46429     46432     46433     46429     46432     46434
     46429     46432     46435     46430     46429     46431     46430     46429     46432
     46431     46429     46432     46432     46435     46436     46432     46435     46437
     46432     46435     46438     46433     46432     46434     46433     46432     46435
     46434     46432     46435     46435     46438     46439     46435     46438     46440
     46435     46438     46441     46436     46435     46437     46436     46435     46438
     46437     46435     46438     46439     46438     46440     46439     46438     46441
     46440     46438     46441     46442     46446     46447     46442     46446     46448
     46442     46446     46449     46443     46442     46444     46443     46442     46445
     46443     46442     46446     46444     46442     46445     46444     46442     46446
     46445     46442     46446     46446     46449     46450     46446     46449     46451
     46446     46449     46456     46447     46446     46448     46447     46446     46449
     46448     46446     46449     46449     46456     46452     46450     46449     46451
     46450     46449     46456     46451     46449     46456     46452     46455     46457
     46453     46452     46454     46453     46452     46455     46453     46452     46456
     46454     46452     46455     46454     46452     46456     46455     46452     46456
     46455     46457     46458     46455     46457     46459     46455     46457     46460
     46457     46460     46461     46457     46460     46462     46457     46460     46468
     46458     46457     46459     46458     46457     46460     46459     46457     46460
     46460     46462     46463     46460     46468     46469     46460     46468     46470
     46460     46468     46471     46461     46460     46462     46461     46460     46468
     46462     46460     46468     46462     46463     46464     46462     46463     46465
     46463     46465     46466     46463     46465     46467     46463     46465     46477
     46464     46463     46465     46465     46477     46478     46465     46477     46479
     46465     46477     46480     46466     46465     46467     46466     46465     46477
     46467     46465     46477     46468     46471     46472     46469     46468     46470
     46469     46468     46471     46470     46468     46471     46471     46472     46473
     46471     46472     46474     46472     46474     46475     46472     46474     46476
     46472     46474     46518     46473     46472     46474     46474     46518     46519
     46474     46518     46520     46474     46518     46521     46475     46474     46476
     46475     46474     46518     46476     46474     46518     46477     46480     46481
     46477     46480     46482     46477     46480     46483     46478     46477     46479
     46478     46477     46480     46479     46477     46480     46480     46483     46484
     46480     46483     46485     46480     46483     46486     46481     46480     46482
     46481     46480     46483     46482     46480     46483     46483     46486     46487
     46483     46486     46488     46483     46486     46489     46484     46483     46485
     46484     46483     46486     46485     46483     46486     46486     46489     46490
     46486     46489     46491     46486     46489     46492     46487     46486     46488
     46487     46486     46489     46488     46486     46489     46489     46492     46493
     46489     46492     46494     46489     46492     46495     46490     46489     46491
     46490     46489     46492     46491     46489     46492     46492     46495     46496
     46492     46495     46497     46493     46492     46494     46493     46492     46495
     46494     46492     46495     46495     46497     46498     46495     46497     46499
     46496     46495     46497     46497     46499     46500     46497     46499     46501
     46497     46499     46502     46498     46497     46499     46499     46502     46503
     46499     46502     46504     46499     46502     46505     46500     46499     46501
     46500     46499     46502     46501     46499     46502     46502     46505     46506
     46502     46505     46507     46502     46505     46508     46503     46502     46504
     46503     46502     46505     46504     46502     46505     46505     46508     46509
     46505     46508     46510     46505     46508     46511     46506     46505     46507
     46506     46505     46508     46507     46505     46508     46508     46511     46512
     46508     46511     46513     46508     46511     46514     46509     46508     46510
     46509     46508     46511     46510     46508     46511     46511     46514     46515
     46511     46514     46516     46511     46514     46517     46512     46511     46513
     46512     46511     46514     46513     46511     46514     46515     46514     46516
     46515     46514     46517     46516     46514     46517     46518     46521     46522
     46518     46521     46523     46518     46521     46524     46519     46518     46520
     46519     46518     46521     46520     46518     46521     46521     46524     46525
     46521     46524     46526     46521     46524     46527     46522     46521     46523
     46522     46521     46524     46523     46521     46524     46524     46527     46528
     46524     46527     46529     46524     46527     46530     46525     46524     46526
     46525     46524     46527     46526     46524     46527     46527     46530     46531
     46527     46530     46532     46527     46530     46533     46528     46527     46529
     46528     46527     46530     46529     46527     46530     46530     46533     46534
     46530     46533     46535     46530     46533     46536     46531     46530     46532
     46531     46530     46533     46532     46530     46533     46533     46536     46537
     46533     46536     46538     46533     46536     46539     46534     46533     46535
     46534     46533     46536     46535     46533     46536     46536     46539     46540
     46536     46539     46541     46536     46539     46542     46537     46536     46538
     46537     46536     46539     46538     46536     46539     46539     46542     46543
     46539     46542     46544     46539     46542     46545     46540     46539     46541
     46540     46539     46542     46541     46539     46542     46542     46545     46546
     46542     46545     46547     46542     46545     46548     46543     46542     46544
     46543     46542     46545     46544     46542     46545     46545     46548     46549
     46545     46548     46550     46545     46548     46551     46546     46545     46547
     46546     46545     46548     46547     46545     46548     46548     46551     46552
     46548     46551     46553     46548     46551     46554     46549     46548     46550
     46549     46548     46551     46550     46548     46551     46551     46554     46555
     46551     46554     46556     46551     46554     46557     46552     46551     46553
     46552     46551     46554     46553     46551     46554     46554     46557     46558
     46554     46557     46559     46554     46557     46560     46555     46554     46556
     46555     46554     46557     46556     46554     46557     46558     46557     46559
     46558     46557     46560     46559     46557     46560     46561     46565     46566
     46561     46565     46567     46561     46565     46568     46562     46561     46563
     46562     46561     46564     46562     46561     46565     46563     46561     46564
     46563     46561     46565     46564     46561     46565     46565     46568     46569
     46565     46568     46570     46565     46568     46575     46566     46565     46567
     46566     46565     46568     46567     46565     46568     46568     46575     46571
     46569     46568     46570     46569     46568     46575     46570     46568     46575
     46571     46574     46576     46572     46571     46573     46572     46571     46574
     46572     46571     46575     46573     46571     46574     46573     46571     46575
     46574     46571     46575     46574     46576     46577     46574     46576     46578
     46574     46576     46579     46576     46579     46580     46576     46579     46581
     46576     46579     46587     46577     46576     46578     46577     46576     46579
     46578     46576     46579     46579     46581     46582     46579     46587     46588
     46579     46587     46589     46579     46587     46590     46580     46579     46581
     46580     46579     46587     46581     46579     46587     46581     46582     46583
     46581     46582     46584     46582     46584     46585     46582     46584     46586
     46582     46584     46596     46583     46582     46584     46584     46596     46597
     46584     46596     46598     46584     46596     46599     46585     46584     46586
     46585     46584     46596     46586     46584     46596     46587     46590     46591
     46588     46587     46589     46588     46587     46590     46589     46587     46590
     46590     46591     46592     46590     46591     46593     46591     46593     46594
     46591     46593     46595     46591     46593     46637     46592     46591     46593
     46593     46637     46638     46593     46637     46639     46593     46637     46640
     46594     46593     46595     46594     46593     46637     46595     46593     46637
     46596     46599     46600     46596     46599     46601     46596     46599     46602
     46597     46596     46598     46597     46596     46599     46598     46596     46599
     46599     46602     46603     46599     46602     46604     46599     46602     46605
     46600     46599     46601     46600     46599     46602     46601     46599     46602
     46602     46605     46606     46602     46605     46607     46602     46605     46608
     46603     46602     46604     46603     46602     46605     46604     46602     46605
     46605     46608     46609     46605     46608     46610     46605     46608     46611
     46606     46605     46607     46606     46605     46608     46607     46605     46608
     46608     46611     46612     46608     46611     46613     46608     46611     46614
     46609     46608     46610     46609     46608     46611     46610     46608     46611
     46611     46614     46615     46611     46614     46616     46612     46611     46613
     46612     46611     46614     46613     46611     46614     46614     46616     46617
     46614     46616     46618     46615     46614     46616     46616     46618     46619
     46616     46618     46620     46616     46618     46621     46617     46616     46618
     46618     46621     46622     46618     46621     46623     46618     46621     46624
     46619     46618     46620     46619     46618     46621     46620     46618     46621
     46621     46624     46625     46621     46624     46626     46621     46624     46627
     46622     46621     46623     46622     46621     46624     46623     46621     46624
     46624     46627     46628     46624     46627     46629     46624     46627     46630
     46625     46624     46626     46625     46624     46627     46626     46624     46627
     46627     46630     46631     46627     46630     46632     46627     46630     46633
     46628     46627     46629     46628     46627     46630     46629     46627     46630
     46630     46633     46634     46630     46633     46635     46630     46633     46636
     46631     46630     46632     46631     46630     46633     46632     46630     46633
     46634     46633     46635     46634     46633     46636     46635     46633     46636
     46637     46640     46641     46637     46640     46642     46637     46640     46643
     46638     46637     46639     46638     46637     46640     46639     46637     46640
     46640     46643     46644     46640     46643     46645     46640     46643     46646
     46641     46640     46642     46641     46640     46643     46642     46640     46643
     46643     46646     46647     46643     46646     46648     46643     46646     46649
     46644     46643     46645     46644     46643     46646     46645     46643     46646
     46646     46649     46650     46646     46649     46651     46646     46649     46652
     46647     46646     46648     46647     46646     46649     46648     46646     46649
     46649     46652     46653     46649     46652     46654     46649     46652     46655
     46650     46649     46651     46650     46649     46652     46651     46649     46652
     46652     46655     46656     46652     46655     46657     46652     46655     46658
     46653     46652     46654     46653     46652     46655     46654     46652     46655
     46655     46658     46659     46655     46658     46660     46655     46658     46661
     46656     46655     46657     46656     46655     46658     46657     46655     46658
     46658     46661     46662     46658     46661     46663     46658     46661     46664
     46659     46658     46660     46659     46658     46661     46660     46658     46661
     46661     46664     46665     46661     46664     46666     46661     46664     46667
     46662     46661     46663     46662     46661     46664     46663     46661     46664
     46664     46667     46668     46664     46667     46669     46664     46667     46670
     46665     46664     46666     46665     46664     46667     46666     46664     46667
     46667     46670     46671     46667     46670     46672     46667     46670     46673
     46668     46667     46669     46668     46667     46670     46669     46667     46670
     46670     46673     46674     46670     46673     46675     46670     46673     46676
     46671     46670     46672     46671     46670     46673     46672     46670     46673
     46673     46676     46677     46673     46676     46678     46673     46676     46679
     46674     46673     46675     46674     46673     46676     46675     46673     46676
     46677     46676     46678     46677     46676     46679     46678     46676     46679
     46680     46684     46685     46680     46684     46686     46680     46684     46687
     46681     46680     46682     46681     46680     46683     46681     46680     46684
     46682     46680     46683     46682     46680     46684     46683     46680     46684
     46684     46687     46688     46684     46687     46689     46684     46687     46694
     46685     46684     46686     46685     46684     46687     46686     46684     46687
     46687     46694     46690     46688     46687     46689     46688     46687     46694
     46689     46687     46694     46690     46693     46695     46691     46690     46692
     46691     46690     46693     46691     46690     46694     46692     46690     46693
     46692     46690     46694     46693     46690     46694     46693     46695     46696
     46693     46695     46697     46693     46695     46698     46695     46698     46699
     46695     46698     46700     46695     46698     46706     46696     46695     46697
     46696     46695     46698     46697     46695     46698     46698     46700     46701
     46698     46706     46707     46698     46706     46708     46698     46706     46709
     46699     46698     46700     46699     46698     46706     46700     46698     46706
     46700     46701     46702     46700     46701     46703     46701     46703     46704
     46701     46703     46705     46701     46703     46715     46702     46701     46703
     46703     46715     46716     46703     46715     46717     46703     46715     46718
     46704     46703     46705     46704     46703     46715     46705     46703     46715
     46706     46709     46710     46707     46706     46708     46707     46706     46709
     46708     46706     46709     46709     46710     46711     46709     46710     46712
     46710     46712     46713     46710     46712     46714     46710     46712     46756
     46711     46710     46712     46712     46756     46757     46712     46756     46758
     46712     46756     46759     46713     46712     46714     46713     46712     46756
     46714     46712     46756     46715     46718     46719     46715     46718     46720
     46715     46718     46721     46716     46715     46717     46716     46715     46718
     46717     46715     46718     46718     46721     46722     46718     46721     46723
     46718     46721     46724     46719     46718     46720     46719     46718     46721
     46720     46718     46721     46721     46724     46725     46721     46724     46726
     46721     46724     46727     46722     46721     46723     46722     46721     46724
     46723     46721     46724     46724     46727     46728     46724     46727     46729
     46724     46727     46730     46725     46724     46726     46725     46724     46727
     46726     46724     46727     46727     46730     46731     46727     46730     46732
     46727     46730     46733     46728     46727     46729     46728     46727     46730
     46729     46727     46730     46730     46733     46734     46730     46733     46735
     46731     46730     46732     46731     46730     46733     46732     46730     46733
     46733     46735     46736     46733     46735     46737     46734     46733     46735
     46735     46737     46738     46735     46737     46739     46735     46737     46740
     46736     46735     46737     46737     46740     46741     46737     46740     46742
     46737     46740     46743     46738     46737     46739     46738     46737     46740
     46739     46737     46740     46740     46743     46744     46740     46743     46745
     46740     46743     46746     46741     46740     46742     46741     46740     46743
     46742     46740     46743     46743     46746     46747     46743     46746     46748
     46743     46746     46749     46744     46743     46745     46744     46743     46746
     46745     46743     46746     46746     46749     46750     46746     46749     46751
     46746     46749     46752     46747     46746     46748     46747     46746     46749
     46748     46746     46749     46749     46752     46753     46749     46752     46754
     46749     46752     46755     46750     46749     46751     46750     46749     46752
     46751     46749     46752     46753     46752     46754     46753     46752     46755
     46754     46752     46755     46756     46759     46760     46756     46759     46761
     46756     46759     46762     46757     46756     46758     46757     46756     46759
     46758     46756     46759     46759     46762     46763     46759     46762     46764
     46759     46762     46765     46760     46759     46761     46760     46759     46762
     46761     46759     46762     46762     46765     46766     46762     46765     46767
     46762     46765     46768     46763     46762     46764     46763     46762     46765
     46764     46762     46765     46765     46768     46769     46765     46768     46770
     46765     46768     46771     46766     46765     46767     46766     46765     46768
     46767     46765     46768     46768     46771     46772     46768     46771     46773
     46768     46771     46774     46769     46768     46770     46769     46768     46771
     46770     46768     46771     46771     46774     46775     46771     46774     46776
     46771     46774     46777     46772     46771     46773     46772     46771     46774
     46773     46771     46774     46774     46777     46778     46774     46777     46779
     46774     46777     46780     46775     46774     46776     46775     46774     46777
     46776     46774     46777     46777     46780     46781     46777     46780     46782
     46777     46780     46783     46778     46777     46779     46778     46777     46780
     46779     46777     46780     46780     46783     46784     46780     46783     46785
     46780     46783     46786     46781     46780     46782     46781     46780     46783
     46782     46780     46783     46783     46786     46787     46783     46786     46788
     46783     46786     46789     46784     46783     46785     46784     46783     46786
     46785     46783     46786     46786     46789     46790     46786     46789     46791
     46786     46789     46792     46787     46786     46788     46787     46786     46789
     46788     46786     46789     46789     46792     46793     46789     46792     46794
     46789     46792     46795     46790     46789     46791     46790     46789     46792
     46791     46789     46792     46792     46795     46796     46792     46795     46797
     46792     46795     46798     46793     46792     46794     46793     46792     46795
     46794     46792     46795     46796     46795     46797     46796     46795     46798
     46797     46795     46798     46799     46803     46804     46799     46803     46805
     46799     46803     46806     46800     46799     46801     46800     46799     46802
     46800     46799     46803     46801     46799     46802     46801     46799     46803
     46802     46799     46803     46803     46806     46807     46803     46806     46808
     46803     46806     46813     46804     46803     46805     46804     46803     46806
     46805     46803     46806     46806     46813     46809     46807     46806     46808
     46807     46806     46813     46808     46806     46813     46809     46812     46814
     46810     46809     46811     46810     46809     46812     46810     46809     46813
     46811     46809     46812     46811     46809     46813     46812     46809     46813
     46812     46814     46815     46812     46814     46816     46812     46814     46817
     46814     46817     46818     46814     46817     46819     46814     46817     46825
     46815     46814     46816     46815     46814     46817     46816     46814     46817
     46817     46819     46820     46817     46825     46826     46817     46825     46827
     46817     46825     46828     46818     46817     46819     46818     46817     46825
     46819     46817     46825     46819     46820     46821     46819     46820     46822
     46820     46822     46823     46820     46822     46824     46820     46822     46834
     46821     46820     46822     46822     46834     46835     46822     46834     46836
     46822     46834     46837     46823     46822     46824     46823     46822     46834
     46824     46822     46834     46825     46828     46829     46826     46825     46827
     46826     46825     46828     46827     46825     46828     46828     46829     46830
     46828     46829     46831     46829     46831     46832     46829     46831     46833
     46829     46831     46875     46830     46829     46831     46831     46875     46876
     46831     46875     46877     46831     46875     46878     46832     46831     46833
     46832     46831     46875     46833     46831     46875     46834     46837     46838
     46834     46837     46839     46834     46837     46840     46835     46834     46836
     46835     46834     46837     46836     46834     46837     46837     46840     46841
     46837     46840     46842     46837     46840     46843     46838     46837     46839
     46838     46837     46840     46839     46837     46840     46840     46843     46844
     46840     46843     46845     46840     46843     46846     46841     46840     46842
     46841     46840     46843     46842     46840     46843     46843     46846     46847
     46843     46846     46848     46843     46846     46849     46844     46843     46845
     46844     46843     46846     46845     46843     46846     46846     46849     46850
     46846     46849     46851     46846     46849     46852     46847     46846     46848
     46847     46846     46849     46848     46846     46849     46849     46852     46853
     46849     46852     46854     46850     46849     46851     46850     46849     46852
     46851     46849     46852     46852     46854     46855     46852     46854     46856
     46853     46852     46854     46854     46856     46857     46854     46856     46858
     46854     46856     46859     46855     46854     46856     46856     46859     46860
     46856     46859     46861     46856     46859     46862     46857     46856     46858
     46857     46856     46859     46858     46856     46859     46859     46862     46863
     46859     46862     46864     46859     46862     46865     46860     46859     46861
     46860     46859     46862     46861     46859     46862     46862     46865     46866
     46862     46865     46867     46862     46865     46868     46863     46862     46864
     46863     46862     46865     46864     46862     46865     46865     46868     46869
     46865     46868     46870     46865     46868     46871     46866     46865     46867
     46866     46865     46868     46867     46865     46868     46868     46871     46872
     46868     46871     46873     46868     46871     46874     46869     46868     46870
     46869     46868     46871     46870     46868     46871     46872     46871     46873
     46872     46871     46874     46873     46871     46874     46875     46878     46879
     46875     46878     46880     46875     46878     46881     46876     46875     46877
     46876     46875     46878     46877     46875     46878     46878     46881     46882
     46878     46881     46883     46878     46881     46884     46879     46878     46880
     46879     46878     46881     46880     46878     46881     46881     46884     46885
     46881     46884     46886     46881     46884     46887     46882     46881     46883
     46882     46881     46884     46883     46881     46884     46884     46887     46888
     46884     46887     46889     46884     46887     46890     46885     46884     46886
     46885     46884     46887     46886     46884     46887     46887     46890     46891
     46887     46890     46892     46887     46890     46893     46888     46887     46889
     46888     46887     46890     46889     46887     46890     46890     46893     46894
     46890     46893     46895     46890     46893     46896     46891     46890     46892
     46891     46890     46893     46892     46890     46893     46893     46896     46897
     46893     46896     46898     46893     46896     46899     46894     46893     46895
     46894     46893     46896     46895     46893     46896     46896     46899     46900
     46896     46899     46901     46896     46899     46902     46897     46896     46898
     46897     46896     46899     46898     46896     46899     46899     46902     46903
     46899     46902     46904     46899     46902     46905     46900     46899     46901
     46900     46899     46902     46901     46899     46902     46902     46905     46906
     46902     46905     46907     46902     46905     46908     46903     46902     46904
     46903     46902     46905     46904     46902     46905     46905     46908     46909
     46905     46908     46910     46905     46908     46911     46906     46905     46907
     46906     46905     46908     46907     46905     46908     46908     46911     46912
     46908     46911     46913     46908     46911     46914     46909     46908     46910
     46909     46908     46911     46910     46908     46911     46911     46914     46915
     46911     46914     46916     46911     46914     46917     46912     46911     46913
     46912     46911     46914     46913     46911     46914     46915     46914     46916
     46915     46914     46917     46916     46914     46917     46918     46921     46922
     46918     46923     46924     46918     46923     46925     46918     46923     46927
     46919     46918     46920     46919     46918     46921     46919     46918     46923
     46920     46918     46921     46920     46918     46923     46921     46918     46923
     46923     46925     46926     46923     46927     46928     46923     46927     46929
     46923     46927     46933     46924     46923     46925     46924     46923     46927
     46925     46923     46927     46927     46933     46930     46928     46927     46929
     46928     46927     46933     46929     46927     46933     46930     46934     46935
     46931     46930     46932     46931     46930     46933     46931     46930     46934
     46932     46930     46933     46932     46930     46934     46933     46930     46934
     46934     46935     46936     46934     46935     46937     46934     46935     46938
     46935     46938     46939     46935     46938     46940     46935     46938     46946
     46936     46935     46937     46936     46935     46938     46937     46935     46938
     46938     46940     46941     46938     46946     46947     46938     46946     46948
     46938     46946     46949     46939     46938     46940     46939     46938     46946
     46940     46938     46946     46940     46941     46942     46940     46941     46943
     46941     46943     46944     46941     46943     46945     46941     46943     46955
     46942     46941     46943     46943     46955     46956     46943     46955     46957
     46943     46955     46958     46944     46943     46945     46944     46943     46955
     46945     46943     46955     46946     46949     46950     46947     46946     46948
     46947     46946     46949     46948     46946     46949     46949     46950     46951
     46949     46950     46952     46950     46952     46953     46950     46952     46954
     46950     46952     47002     46951     46950     46952     46952     47002     47003
     46952     47002     47004     46952     47002     47005     46953     46952     46954
     46953     46952     47002     46954     46952     47002     46955     46958     46959
     46955     46958     46960     46955     46958     46961     46956     46955     46957
     46956     46955     46958     46957     46955     46958     46958     46961     46962
     46958     46961     46963     46958     46961     46964     46959     46958     46960
     46959     46958     46961     46960     46958     46961     46961     46964     46965
     46961     46964     46966     46961     46964     46967     46962     46961     46963
     46962     46961     46964     46963     46961     46964     46964     46967     46968
     46964     46967     46969     46964     46967     46970     46965     46964     46966
     46965     46964     46967     46966     46964     46967     46967     46970     46971
     46967     46970     46972     46967     46970     46973     46968     46967     46969
     46968     46967     46970     46969     46967     46970     46970     46973     46974
     46970     46973     46975     46970     46973     46976     46971     46970     46972
     46971     46970     46973     46972     46970     46973     46973     46976     46977
     46973     46976     46978     46973     46976     46979     46974     46973     46975
     46974     46973     46976     46975     46973     46976     46976     46979     46980
     46976     46979     46981     46977     46976     46978     46977     46976     46979
     46978     46976     46979     46979     46981     46982     46979     46981     46983
     46980     46979     46981     46981     46983     46984     46981     46983     46985
     46981     46983     46986     46982     46981     46983     46983     46986     46987
     46983     46986     46988     46983     46986     46989     46984     46983     46985
     46984     46983     46986     46985     46983     46986     46986     46989     46990
     46986     46989     46991     46986     46989     46992     46987     46986     46988
     46987     46986     46989     46988     46986     46989     46989     46992     46993
     46989     46992     46994     46989     46992     46995     46990     46989     46991
     46990     46989     46992     46991     46989     46992     46992     46995     46996
     46992     46995     46997     46992     46995     46998     46993     46992     46994
     46993     46992     46995     46994     46992     46995     46995     46998     46999
     46995     46998     47000     46995     46998     47001     46996     46995     46997
     46996     46995     46998     46997     46995     46998     46999     46998     47000
     46999     46998     47001     47000     46998     47001     47002     47005     47006
     47002     47005     47007     47002     47005     47008     47003     47002     47004
     47003     47002     47005     47004     47002     47005     47005     47008     47009
     47005     47008     47010     47005     47008     47011     47006     47005     47007
     47006     47005     47008     47007     47005     47008     47008     47011     47012
     47008     47011     47013     47008     47011     47014     47009     47008     47010
     47009     47008     47011     47010     47008     47011     47011     47014     47015
     47011     47014     47016     47011     47014     47017     47012     47011     47013
     47012     47011     47014     47013     47011     47014     47014     47017     47018
     47014     47017     47019     47014     47017     47020     47015     47014     47016
     47015     47014     47017     47016     47014     47017     47017     47020     47021
     47017     47020     47022     47017     47020     47023     47018     47017     47019
     47018     47017     47020     47019     47017     47020     47020     47023     47024
     47020     47023     47025     47020     47023     47026     47021     47020     47022
     47021     47020     47023     47022     47020     47023     47023     47026     47027
     47023     47026     47028     47023     47026     47029     47024     47023     47025
     47024     47023     47026     47025     47023     47026     47026     47029     47030
     47026     47029     47031     47026     47029     47032     47027     47026     47028
     47027     47026     47029     47028     47026     47029     47029     47032     47033
     47029     47032     47034     47029     47032     47035     47030     47029     47031
     47030     47029     47032     47031     47029     47032     47032     47035     47036
     47032     47035     47037     47032     47035     47038     47033     47032     47034
     47033     47032     47035     47034     47032     47035     47035     47038     47039
     47035     47038     47040     47035     47038     47041     47036     47035     47037
     47036     47035     47038     47037     47035     47038     47038     47041     47042
     47038     47041     47043     47038     47041     47044     47039     47038     47040
     47039     47038     47041     47040     47038     47041     47042     47041     47043
     47042     47041     47044     47043     47041     47044     47045     47048     47049
     47045     47050     47051     47045     47050     47052     47045     47050     47054
     47046     47045     47047     47046     47045     47048     47046     47045     47050
     47047     47045     47048     47047     47045     47050     47048     47045     47050
     47050     47052     47053     47050     47054     47055     47050     47054     47056
     47050     47054     47060     47051     47050     47052     47051     47050     47054
     47052     47050     47054     47054     47060     47057     47055     47054     47056
     47055     47054     47060     47056     47054     47060     47057     47061     47062
     47058     47057     47059     47058     47057     47060     47058     47057     47061
     47059     47057     47060     47059     47057     47061     47060     47057     47061
     47061     47062     47063     47061     47062     47064     47061     47062     47065
     47062     47065     47066     47062     47065     47067     47062     47065     47073
     47063     47062     47064     47063     47062     47065     47064     47062     47065
     47065     47067     47068     47065     47073     47074     47065     47073     47075
     47065     47073     47076     47066     47065     47067     47066     47065     47073
     47067     47065     47073     47067     47068     47069     47067     47068     47070
     47068     47070     47071     47068     47070     47072     47068     47070     47082
     47069     47068     47070     47070     47082     47083     47070     47082     47084
     47070     47082     47085     47071     47070     47072     47071     47070     47082
     47072     47070     47082     47073     47076     47077     47074     47073     47075
     47074     47073     47076     47075     47073     47076     47076     47077     47078
     47076     47077     47079     47077     47079     47080     47077     47079     47081
     47077     47079     47129     47078     47077     47079     47079     47129     47130
     47079     47129     47131     47079     47129     47132     47080     47079     47081
     47080     47079     47129     47081     47079     47129     47082     47085     47086
     47082     47085     47087     47082     47085     47088     47083     47082     47084
     47083     47082     47085     47084     47082     47085     47085     47088     47089
     47085     47088     47090     47085     47088     47091     47086     47085     47087
     47086     47085     47088     47087     47085     47088     47088     47091     47092
     47088     47091     47093     47088     47091     47094     47089     47088     47090
     47089     47088     47091     47090     47088     47091     47091     47094     47095
     47091     47094     47096     47091     47094     47097     47092     47091     47093
     47092     47091     47094     47093     47091     47094     47094     47097     47098
     47094     47097     47099     47094     47097     47100     47095     47094     47096
     47095     47094     47097     47096     47094     47097     47097     47100     47101
     47097     47100     47102     47097     47100     47103     47098     47097     47099
     47098     47097     47100     47099     47097     47100     47100     47103     47104
     47100     47103     47105     47100     47103     47106     47101     47100     47102
     47101     47100     47103     47102     47100     47103     47103     47106     47107
     47103     47106     47108     47104     47103     47105     47104     47103     47106
     47105     47103     47106     47106     47108     47109     47106     47108     47110
     47107     47106     47108     47108     47110     47111     47108     47110     47112
     47108     47110     47113     47109     47108     47110     47110     47113     47114
     47110     47113     47115     47110     47113     47116     47111     47110     47112
     47111     47110     47113     47112     47110     47113     47113     47116     47117
     47113     47116     47118     47113     47116     47119     47114     47113     47115
     47114     47113     47116     47115     47113     47116     47116     47119     47120
     47116     47119     47121     47116     47119     47122     47117     47116     47118
     47117     47116     47119     47118     47116     47119     47119     47122     47123
     47119     47122     47124     47119     47122     47125     47120     47119     47121
     47120     47119     47122     47121     47119     47122     47122     47125     47126
     47122     47125     47127     47122     47125     47128     47123     47122     47124
     47123     47122     47125     47124     47122     47125     47126     47125     47127
     47126     47125     47128     47127     47125     47128     47129     47132     47133
     47129     47132     47134     47129     47132     47135     47130     47129     47131
     47130     47129     47132     47131     47129     47132     47132     47135     47136
     47132     47135     47137     47132     47135     47138     47133     47132     47134
     47133     47132     47135     47134     47132     47135     47135     47138     47139
     47135     47138     47140     47135     47138     47141     47136     47135     47137
     47136     47135     47138     47137     47135     47138     47138     47141     47142
     47138     47141     47143     47138     47141     47144     47139     47138     47140
     47139     47138     47141     47140     47138     47141     47141     47144     47145
     47141     47144     47146     47141     47144     47147     47142     47141     47143
     47142     47141     47144     47143     47141     47144     47144     47147     47148
     47144     47147     47149     47144     47147     47150     47145     47144     47146
     47145     47144     47147     47146     47144     47147     47147     47150     47151
     47147     47150     47152     47147     47150     47153     47148     47147     47149
     47148     47147     47150     47149     47147     47150     47150     47153     47154
     47150     47153     47155     47150     47153     47156     47151     47150     47152
     47151     47150     47153     47152     47150     47153     47153     47156     47157
     47153     47156     47158     47153     47156     47159     47154     47153     47155
     47154     47153     47156     47155     47153     47156     47156     47159     47160
     47156     47159     47161     47156     47159     47162     47157     47156     47158
     47157     47156     47159     47158     47156     47159     47159     47162     47163
     47159     47162     47164     47159     47162     47165     47160     47159     47161
     47160     47159     47162     47161     47159     47162     47162     47165     47166
     47162     47165     47167     47162     47165     47168     47163     47162     47164
     47163     47162     47165     47164     47162     47165     47165     47168     47169
     47165     47168     47170     47165     47168     47171     47166     47165     47167
     47166     47165     47168     47167     47165     47168     47169     47168     47170
     47169     47168     47171     47170     47168     47171     47172     47176     47177
     47172     47176     47178     47172     47176     47179     47173     47172     47174
     47173     47172     47175     47173     47172     47176     47174     47172     47175
     47174     47172     47176     47175     47172     47176     47176     47179     47180
     47176     47179     47181     47176     47179     47186     47177     47176     47178
     47177     47176     47179     47178     47176     47179     47179     47186     47182
     47180     47179     47181     47180     47179     47186     47181     47179     47186
     47182     47185     47187     47183     47182     47184     47183     47182     47185
     47183     47182     47186     47184     47182     47185     47184     47182     47186
     47185     47182     47186     47185     47187     47188     47185     47187     47189
     47185     47187     47190     47187     47190     47191     47187     47190     47192
     47187     47190     47198     47188     47187     47189     47188     47187     47190
     47189     47187     47190     47190     47192     47193     47190     47198     47199
     47190     47198     47200     47190     47198     47201     47191     47190     47192
     47191     47190     47198     47192     47190     47198     47192     47193     47194
     47192     47193     47195     47193     47195     47196     47193     47195     47197
     47193     47195     47207     47194     47193     47195     47195     47207     47208
     47195     47207     47209     47195     47207     47210     47196     47195     47197
     47196     47195     47207     47197     47195     47207     47198     47201     47202
     47199     47198     47200     47199     47198     47201     47200     47198     47201
     47201     47202     47203     47201     47202     47204     47202     47204     47205
     47202     47204     47206     47202     47204     47248     47203     47202     47204
     47204     47248     47249     47204     47248     47250     47204     47248     47251
     47205     47204     47206     47205     47204     47248     47206     47204     47248
     47207     47210     47211     47207     47210     47212     47207     47210     47213
     47208     47207     47209     47208     47207     47210     47209     47207     47210
     47210     47213     47214     47210     47213     47215     47210     47213     47216
     47211     47210     47212     47211     47210     47213     47212     47210     47213
     47213     47216     47217     47213     47216     47218     47213     47216     47219
     47214     47213     47215     47214     47213     47216     47215     47213     47216
     47216     47219     47220     47216     47219     47221     47216     47219     47222
     47217     47216     47218     47217     47216     47219     47218     47216     47219
     47219     47222     47223     47219     47222     47224     47219     47222     47225
     47220     47219     47221     47220     47219     47222     47221     47219     47222
     47222     47225     47226     47222     47225     47227     47223     47222     47224
     47223     47222     47225     47224     47222     47225     47225     47227     47228
     47225     47227     47229     47226     47225     47227     47227     47229     47230
     47227     47229     47231     47227     47229     47232     47228     47227     47229
     47229     47232     47233     47229     47232     47234     47229     47232     47235
     47230     47229     47231     47230     47229     47232     47231     47229     47232
     47232     47235     47236     47232     47235     47237     47232     47235     47238
     47233     47232     47234     47233     47232     47235     47234     47232     47235
     47235     47238     47239     47235     47238     47240     47235     47238     47241
     47236     47235     47237     47236     47235     47238     47237     47235     47238
     47238     47241     47242     47238     47241     47243     47238     47241     47244
     47239     47238     47240     47239     47238     47241     47240     47238     47241
     47241     47244     47245     47241     47244     47246     47241     47244     47247
     47242     47241     47243     47242     47241     47244     47243     47241     47244
     47245     47244     47246     47245     47244     47247     47246     47244     47247
     47248     47251     47252     47248     47251     47253     47248     47251     47254
     47249     47248     47250     47249     47248     47251     47250     47248     47251
     47251     47254     47255     47251     47254     47256     47251     47254     47257
     47252     47251     47253     47252     47251     47254     47253     47251     47254
     47254     47257     47258     47254     47257     47259     47254     47257     47260
     47255     47254     47256     47255     47254     47257     47256     47254     47257
     47257     47260     47261     47257     47260     47262     47257     47260     47263
     47258     47257     47259     47258     47257     47260     47259     47257     47260
     47260     47263     47264     47260     47263     47265     47260     47263     47266
     47261     47260     47262     47261     47260     47263     47262     47260     47263
     47263     47266     47267     47263     47266     47268     47263     47266     47269
     47264     47263     47265     47264     47263     47266     47265     47263     47266
     47266     47269     47270     47266     47269     47271     47266     47269     47272
     47267     47266     47268     47267     47266     47269     47268     47266     47269
     47269     47272     47273     47269     47272     47274     47269     47272     47275
     47270     47269     47271     47270     47269     47272     47271     47269     47272
     47272     47275     47276     47272     47275     47277     47272     47275     47278
     47273     47272     47274     47273     47272     47275     47274     47272     47275
     47275     47278     47279     47275     47278     47280     47275     47278     47281
     47276     47275     47277     47276     47275     47278     47277     47275     47278
     47278     47281     47282     47278     47281     47283     47278     47281     47284
     47279     47278     47280     47279     47278     47281     47280     47278     47281
     47281     47284     47285     47281     47284     47286     47281     47284     47287
     47282     47281     47283     47282     47281     47284     47283     47281     47284
     47284     47287     47288     47284     47287     47289     47284     47287     47290
     47285     47284     47286     47285     47284     47287     47286     47284     47287
     47288     47287     47289     47288     47287     47290     47289     47287     47290
     47291     47295     47296     47291     47295     47297     47291     47295     47298
     47292     47291     47293     47292     47291     47294     47292     47291     47295
     47293     47291     47294     47293     47291     47295     47294     47291     47295
     47295     47298     47299     47295     47298     47300     47295     47298     47305
     47296     47295     47297     47296     47295     47298     47297     47295     47298
     47298     47305     47301     47299     47298     47300     47299     47298     47305
     47300     47298     47305     47301     47304     47306     47302     47301     47303
     47302     47301     47304     47302     47301     47305     47303     47301     47304
     47303     47301     47305     47304     47301     47305     47304     47306     47307
     47304     47306     47308     47304     47306     47309     47306     47309     47310
     47306     47309     47311     47306     47309     47317     47307     47306     47308
     47307     47306     47309     47308     47306     47309     47309     47311     47312
     47309     47317     47318     47309     47317     47319     47309     47317     47320
     47310     47309     47311     47310     47309     47317     47311     47309     47317
     47311     47312     47313     47311     47312     47314     47312     47314     47315
     47312     47314     47316     47312     47314     47326     47313     47312     47314
     47314     47326     47327     47314     47326     47328     47314     47326     47329
     47315     47314     47316     47315     47314     47326     47316     47314     47326
     47317     47320     47321     47318     47317     47319     47318     47317     47320
     47319     47317     47320     47320     47321     47322     47320     47321     47323
     47321     47323     47324     47321     47323     47325     47321     47323     47367
     47322     47321     47323     47323     47367     47368     47323     47367     47369
     47323     47367     47370     47324     47323     47325     47324     47323     47367
     47325     47323     47367     47326     47329     47330     47326     47329     47331
     47326     47329     47332     47327     47326     47328     47327     47326     47329
     47328     47326     47329     47329     47332     47333     47329     47332     47334
     47329     47332     47335     47330     47329     47331     47330     47329     47332
     47331     47329     47332     47332     47335     47336     47332     47335     47337
     47332     47335     47338     47333     47332     47334     47333     47332     47335
     47334     47332     47335     47335     47338     47339     47335     47338     47340
     47335     47338     47341     47336     47335     47337     47336     47335     47338
     47337     47335     47338     47338     47341     47342     47338     47341     47343
     47338     47341     47344     47339     47338     47340     47339     47338     47341
     47340     47338     47341     47341     47344     47345     47341     47344     47346
     47342     47341     47343     47342     47341     47344     47343     47341     47344
     47344     47346     47347     47344     47346     47348     47345     47344     47346
     47346     47348     47349     47346     47348     47350     47346     47348     47351
     47347     47346     47348     47348     47351     47352     47348     47351     47353
     47348     47351     47354     47349     47348     47350     47349     47348     47351
     47350     47348     47351     47351     47354     47355     47351     47354     47356
     47351     47354     47357     47352     47351     47353     47352     47351     47354
     47353     47351     47354     47354     47357     47358     47354     47357     47359
     47354     47357     47360     47355     47354     47356     47355     47354     47357
     47356     47354     47357     47357     47360     47361     47357     47360     47362
     47357     47360     47363     47358     47357     47359     47358     47357     47360
     47359     47357     47360     47360     47363     47364     47360     47363     47365
     47360     47363     47366     47361     47360     47362     47361     47360     47363
     47362     47360     47363     47364     47363     47365     47364     47363     47366
     47365     47363     47366     47367     47370     47371     47367     47370     47372
     47367     47370     47373     47368     47367     47369     47368     47367     47370
     47369     47367     47370     47370     47373     47374     47370     47373     47375
     47370     47373     47376     47371     47370     47372     47371     47370     47373
     47372     47370     47373     47373     47376     47377     47373     47376     47378
     47373     47376     47379     47374     47373     47375     47374     47373     47376
     47375     47373     47376     47376     47379     47380     47376     47379     47381
     47376     47379     47382     47377     47376     47378     47377     47376     47379
     47378     47376     47379     47379     47382     47383     47379     47382     47384
     47379     47382     47385     47380     47379     47381     47380     47379     47382
     47381     47379     47382     47382     47385     47386     47382     47385     47387
     47382     47385     47388     47383     47382     47384     47383     47382     47385
     47384     47382     47385     47385     47388     47389     47385     47388     47390
     47385     47388     47391     47386     47385     47387     47386     47385     47388
     47387     47385     47388     47388     47391     47392     47388     47391     47393
     47388     47391     47394     47389     47388     47390     47389     47388     47391
     47390     47388     47391     47391     47394     47395     47391     47394     47396
     47391     47394     47397     47392     47391     47393     47392     47391     47394
     47393     47391     47394     47394     47397     47398     47394     47397     47399
     47394     47397     47400     47395     47394     47396     47395     47394     47397
     47396     47394     47397     47397     47400     47401     47397     47400     47402
     47397     47400     47403     47398     47397     47399     47398     47397     47400
     47399     47397     47400     47400     47403     47404     47400     47403     47405
     47400     47403     47406     47401     47400     47402     47401     47400     47403
     47402     47400     47403     47403     47406     47407     47403     47406     47408
     47403     47406     47409     47404     47403     47405     47404     47403     47406
     47405     47403     47406     47407     47406     47408     47407     47406     47409
     47408     47406     47409     47410     47414     47415     47410     47414     47416
     47410     47414     47417     47411     47410     47412     47411     47410     47413
     47411     47410     47414     47412     47410     47413     47412     47410     47414
     47413     47410     47414     47414     47417     47418     47414     47417     47419
     47414     47417     47424     47415     47414     47416     47415     47414     47417
     47416     47414     47417     47417     47424     47420     47418     47417     47419
     47418     47417     47424     47419     47417     47424     47420     47423     47425
     47421     47420     47422     47421     47420     47423     47421     47420     47424
     47422     47420     47423     47422     47420     47424     47423     47420     47424
     47423     47425     47426     47423     47425     47427     47423     47425     47428
     47425     47428     47429     47425     47428     47430     47425     47428     47436
     47426     47425     47427     47426     47425     47428     47427     47425     47428
     47428     47430     47431     47428     47436     47437     47428     47436     47438
     47428     47436     47439     47429     47428     47430     47429     47428     47436
     47430     47428     47436     47430     47431     47432     47430     47431     47433
     47431     47433     47434     47431     47433     47435     47431     47433     47445
     47432     47431     47433     47433     47445     47446     47433     47445     47447
     47433     47445     47448     47434     47433     47435     47434     47433     47445
     47435     47433     47445     47436     47439     47440     47437     47436     47438
     47437     47436     47439     47438     47436     47439     47439     47440     47441
     47439     47440     47442     47440     47442     47443     47440     47442     47444
     47440     47442     47486     47441     47440     47442     47442     47486     47487
     47442     47486     47488     47442     47486     47489     47443     47442     47444
     47443     47442     47486     47444     47442     47486     47445     47448     47449
     47445     47448     47450     47445     47448     47451     47446     47445     47447
     47446     47445     47448     47447     47445     47448     47448     47451     47452
     47448     47451     47453     47448     47451     47454     47449     47448     47450
     47449     47448     47451     47450     47448     47451     47451     47454     47455
     47451     47454     47456     47451     47454     47457     47452     47451     47453
     47452     47451     47454     47453     47451     47454     47454     47457     47458
     47454     47457     47459     47454     47457     47460     47455     47454     47456
     47455     47454     47457     47456     47454     47457     47457     47460     47461
     47457     47460     47462     47457     47460     47463     47458     47457     47459
     47458     47457     47460     47459     47457     47460     47460     47463     47464
     47460     47463     47465     47461     47460     47462     47461     47460     47463
     47462     47460     47463     47463     47465     47466     47463     47465     47467
     47464     47463     47465     47465     47467     47468     47465     47467     47469
     47465     47467     47470     47466     47465     47467     47467     47470     47471
     47467     47470     47472     47467     47470     47473     47468     47467     47469
     47468     47467     47470     47469     47467     47470     47470     47473     47474
     47470     47473     47475     47470     47473     47476     47471     47470     47472
     47471     47470     47473     47472     47470     47473     47473     47476     47477
     47473     47476     47478     47473     47476     47479     47474     47473     47475
     47474     47473     47476     47475     47473     47476     47476     47479     47480
     47476     47479     47481     47476     47479     47482     47477     47476     47478
     47477     47476     47479     47478     47476     47479     47479     47482     47483
     47479     47482     47484     47479     47482     47485     47480     47479     47481
     47480     47479     47482     47481     47479     47482     47483     47482     47484
     47483     47482     47485     47484     47482     47485     47486     47489     47490
     47486     47489     47491     47486     47489     47492     47487     47486     47488
     47487     47486     47489     47488     47486     47489     47489     47492     47493
     47489     47492     47494     47489     47492     47495     47490     47489     47491
     47490     47489     47492     47491     47489     47492     47492     47495     47496
     47492     47495     47497     47492     47495     47498     47493     47492     47494
     47493     47492     47495     47494     47492     47495     47495     47498     47499
     47495     47498     47500     47495     47498     47501     47496     47495     47497
     47496     47495     47498     47497     47495     47498     47498     47501     47502
     47498     47501     47503     47498     47501     47504     47499     47498     47500
     47499     47498     47501     47500     47498     47501     47501     47504     47505
     47501     47504     47506     47501     47504     47507     47502     47501     47503
     47502     47501     47504     47503     47501     47504     47504     47507     47508
     47504     47507     47509     47504     47507     47510     47505     47504     47506
     47505     47504     47507     47506     47504     47507     47507     47510     47511
     47507     47510     47512     47507     47510     47513     47508     47507     47509
     47508     47507     47510     47509     47507     47510     47510     47513     47514
     47510     47513     47515     47510     47513     47516     47511     47510     47512
     47511     47510     47513     47512     47510     47513     47513     47516     47517
     47513     47516     47518     47513     47516     47519     47514     47513     47515
     47514     47513     47516     47515     47513     47516     47516     47519     47520
     47516     47519     47521     47516     47519     47522     47517     47516     47518
     47517     47516     47519     47518     47516     47519     47519     47522     47523
     47519     47522     47524     47519     47522     47525     47520     47519     47521
     47520     47519     47522     47521     47519     47522     47522     47525     47526
     47522     47525     47527     47522     47525     47528     47523     47522     47524
     47523     47522     47525     47524     47522     47525     47526     47525     47527
     47526     47525     47528     47527     47525     47528     47529     47532     47533
     47529     47534     47535     47529     47534     47536     47529     47534     47538
     47530     47529     47531     47530     47529     47532     47530     47529     47534
     47531     47529     47532     47531     47529     47534     47532     47529     47534
     47534     47536     47537     47534     47538     47539     47534     47538     47540
     47534     47538     47544     47535     47534     47536     47535     47534     47538
     47536     47534     47538     47538     47544     47541     47539     47538     47540
     47539     47538     47544     47540     47538     47544     47541     47545     47546
     47542     47541     47543     47542     47541     47544     47542     47541     47545
     47543     47541     47544     47543     47541     47545     47544     47541     47545
     47545     47546     47547     47545     47546     47548     47545     47546     47549
     47546     47549     47550     47546     47549     47551     47546     47549     47557
     47547     47546     47548     47547     47546     47549     47548     47546     47549
     47549     47551     47552     47549     47557     47558     47549     47557     47559
     47549     47557     47560     47550     47549     47551     47550     47549     47557
     47551     47549     47557     47551     47552     47553     47551     47552     47554
     47552     47554     47555     47552     47554     47556     47552     47554     47566
     47553     47552     47554     47554     47566     47567     47554     47566     47568
     47554     47566     47569     47555     47554     47556     47555     47554     47566
     47556     47554     47566     47557     47560     47561     47558     47557     47559
     47558     47557     47560     47559     47557     47560     47560     47561     47562
     47560     47561     47563     47561     47563     47564     47561     47563     47565
     47561     47563     47613     47562     47561     47563     47563     47613     47614
     47563     47613     47615     47563     47613     47616     47564     47563     47565
     47564     47563     47613     47565     47563     47613     47566     47569     47570
     47566     47569     47571     47566     47569     47572     47567     47566     47568
     47567     47566     47569     47568     47566     47569     47569     47572     47573
     47569     47572     47574     47569     47572     47575     47570     47569     47571
     47570     47569     47572     47571     47569     47572     47572     47575     47576
     47572     47575     47577     47572     47575     47578     47573     47572     47574
     47573     47572     47575     47574     47572     47575     47575     47578     47579
     47575     47578     47580     47575     47578     47581     47576     47575     47577
     47576     47575     47578     47577     47575     47578     47578     47581     47582
     47578     47581     47583     47578     47581     47584     47579     47578     47580
     47579     47578     47581     47580     47578     47581     47581     47584     47585
     47581     47584     47586     47581     47584     47587     47582     47581     47583
     47582     47581     47584     47583     47581     47584     47584     47587     47588
     47584     47587     47589     47584     47587     47590     47585     47584     47586
     47585     47584     47587     47586     47584     47587     47587     47590     47591
     47587     47590     47592     47588     47587     47589     47588     47587     47590
     47589     47587     47590     47590     47592     47593     47590     47592     47594
     47591     47590     47592     47592     47594     47595     47592     47594     47596
     47592     47594     47597     47593     47592     47594     47594     47597     47598
     47594     47597     47599     47594     47597     47600     47595     47594     47596
     47595     47594     47597     47596     47594     47597     47597     47600     47601
     47597     47600     47602     47597     47600     47603     47598     47597     47599
     47598     47597     47600     47599     47597     47600     47600     47603     47604
     47600     47603     47605     47600     47603     47606     47601     47600     47602
     47601     47600     47603     47602     47600     47603     47603     47606     47607
     47603     47606     47608     47603     47606     47609     47604     47603     47605
     47604     47603     47606     47605     47603     47606     47606     47609     47610
     47606     47609     47611     47606     47609     47612     47607     47606     47608
     47607     47606     47609     47608     47606     47609     47610     47609     47611
     47610     47609     47612     47611     47609     47612     47613     47616     47617
     47613     47616     47618     47613     47616     47619     47614     47613     47615
     47614     47613     47616     47615     47613     47616     47616     47619     47620
     47616     47619     47621     47616     47619     47622     47617     47616     47618
     47617     47616     47619     47618     47616     47619     47619     47622     47623
     47619     47622     47624     47619     47622     47625     47620     47619     47621
     47620     47619     47622     47621     47619     47622     47622     47625     47626
     47622     47625     47627     47622     47625     47628     47623     47622     47624
     47623     47622     47625     47624     47622     47625     47625     47628     47629
     47625     47628     47630     47625     47628     47631     47626     47625     47627
     47626     47625     47628     47627     47625     47628     47628     47631     47632
     47628     47631     47633     47628     47631     47634     47629     47628     47630
     47629     47628     47631     47630     47628     47631     47631     47634     47635
     47631     47634     47636     47631     47634     47637     47632     47631     47633
     47632     47631     47634     47633     47631     47634     47634     47637     47638
     47634     47637     47639     47634     47637     47640     47635     47634     47636
     47635     47634     47637     47636     47634     47637     47637     47640     47641
     47637     47640     47642     47637     47640     47643     47638     47637     47639
     47638     47637     47640     47639     47637     47640     47640     47643     47644
     47640     47643     47645     47640     47643     47646     47641     47640     47642
     47641     47640     47643     47642     47640     47643     47643     47646     47647
     47643     47646     47648     47643     47646     47649     47644     47643     47645
     47644     47643     47646     47645     47643     47646     47646     47649     47650
     47646     47649     47651     47646     47649     47652     47647     47646     47648
     47647     47646     47649     47648     47646     47649     47649     47652     47653
     47649     47652     47654     47649     47652     47655     47650     47649     47651
     47650     47649     47652     47651     47649     47652     47653     47652     47654
     47653     47652     47655     47654     47652     47655     47656     47660     47661
     47656     47660     47662     47656     47660     47663     47657     47656     47658
     47657     47656     47659     47657     47656     47660     47658     47656     47659
     47658     47656     47660     47659     47656     47660     47660     47663     47664
     47660     47663     47665     47660     47663     47670     47661     47660     47662
     47661     47660     47663     47662     47660     47663     47663     47670     47666
     47664     47663     47665     47664     47663     47670     47665     47663     47670
     47666     47669     47671     47667     47666     47668     47667     47666     47669
     47667     47666     47670     47668     47666     47669     47668     47666     47670
     47669     47666     47670     47669     47671     47672     47669     47671     47673
     47669     47671     47674     47671     47674     47675     47671     47674     47676
     47671     47674     47682     47672     47671     47673     47672     47671     47674
     47673     47671     47674     47674     47676     47677     47674     47682     47683
     47674     47682     47684     47674     47682     47685     47675     47674     47676
     47675     47674     47682     47676     47674     47682     47676     47677     47678
     47676     47677     47679     47677     47679     47680     47677     47679     47681
     47677     47679     47691     47678     47677     47679     47679     47691     47692
     47679     47691     47693     47679     47691     47694     47680     47679     47681
     47680     47679     47691     47681     47679     47691     47682     47685     47686
     47683     47682     47684     47683     47682     47685     47684     47682     47685
     47685     47686     47687     47685     47686     47688     47686     47688     47689
     47686     47688     47690     47686     47688     47732     47687     47686     47688
     47688     47732     47733     47688     47732     47734     47688     47732     47735
     47689     47688     47690     47689     47688     47732     47690     47688     47732
     47691     47694     47695     47691     47694     47696     47691     47694     47697
     47692     47691     47693     47692     47691     47694     47693     47691     47694
     47694     47697     47698     47694     47697     47699     47694     47697     47700
     47695     47694     47696     47695     47694     47697     47696     47694     47697
     47697     47700     47701     47697     47700     47702     47697     47700     47703
     47698     47697     47699     47698     47697     47700     47699     47697     47700
     47700     47703     47704     47700     47703     47705     47700     47703     47706
     47701     47700     47702     47701     47700     47703     47702     47700     47703
     47703     47706     47707     47703     47706     47708     47703     47706     47709
     47704     47703     47705     47704     47703     47706     47705     47703     47706
     47706     47709     47710     47706     47709     47711     47707     47706     47708
     47707     47706     47709     47708     47706     47709     47709     47711     47712
     47709     47711     47713     47710     47709     47711     47711     47713     47714
     47711     47713     47715     47711     47713     47716     47712     47711     47713
     47713     47716     47717     47713     47716     47718     47713     47716     47719
     47714     47713     47715     47714     47713     47716     47715     47713     47716
     47716     47719     47720     47716     47719     47721     47716     47719     47722
     47717     47716     47718     47717     47716     47719     47718     47716     47719
     47719     47722     47723     47719     47722     47724     47719     47722     47725
     47720     47719     47721     47720     47719     47722     47721     47719     47722
     47722     47725     47726     47722     47725     47727     47722     47725     47728
     47723     47722     47724     47723     47722     47725     47724     47722     47725
     47725     47728     47729     47725     47728     47730     47725     47728     47731
     47726     47725     47727     47726     47725     47728     47727     47725     47728
     47729     47728     47730     47729     47728     47731     47730     47728     47731
     47732     47735     47736     47732     47735     47737     47732     47735     47738
     47733     47732     47734     47733     47732     47735     47734     47732     47735
     47735     47738     47739     47735     47738     47740     47735     47738     47741
     47736     47735     47737     47736     47735     47738     47737     47735     47738
     47738     47741     47742     47738     47741     47743     47738     47741     47744
     47739     47738     47740     47739     47738     47741     47740     47738     47741
     47741     47744     47745     47741     47744     47746     47741     47744     47747
     47742     47741     47743     47742     47741     47744     47743     47741     47744
     47744     47747     47748     47744     47747     47749     47744     47747     47750
     47745     47744     47746     47745     47744     47747     47746     47744     47747
     47747     47750     47751     47747     47750     47752     47747     47750     47753
     47748     47747     47749     47748     47747     47750     47749     47747     47750
     47750     47753     47754     47750     47753     47755     47750     47753     47756
     47751     47750     47752     47751     47750     47753     47752     47750     47753
     47753     47756     47757     47753     47756     47758     47753     47756     47759
     47754     47753     47755     47754     47753     47756     47755     47753     47756
     47756     47759     47760     47756     47759     47761     47756     47759     47762
     47757     47756     47758     47757     47756     47759     47758     47756     47759
     47759     47762     47763     47759     47762     47764     47759     47762     47765
     47760     47759     47761     47760     47759     47762     47761     47759     47762
     47762     47765     47766     47762     47765     47767     47762     47765     47768
     47763     47762     47764     47763     47762     47765     47764     47762     47765
     47765     47768     47769     47765     47768     47770     47765     47768     47771
     47766     47765     47767     47766     47765     47768     47767     47765     47768
     47768     47771     47772     47768     47771     47773     47768     47771     47774
     47769     47768     47770     47769     47768     47771     47770     47768     47771
     47772     47771     47773     47772     47771     47774     47773     47771     47774
     47775     47778     47779     47775     47780     47781     47775     47780     47782
     47775     47780     47784     47776     47775     47777     47776     47775     47778
     47776     47775     47780     47777     47775     47778     47777     47775     47780
     47778     47775     47780     47780     47782     47783     47780     47784     47785
     47780     47784     47786     47780     47784     47790     47781     47780     47782
     47781     47780     47784     47782     47780     47784     47784     47790     47787
     47785     47784     47786     47785     47784     47790     47786     47784     47790
     47787     47791     47792     47788     47787     47789     47788     47787     47790
     47788     47787     47791     47789     47787     47790     47789     47787     47791
     47790     47787     47791     47791     47792     47793     47791     47792     47794
     47791     47792     47795     47792     47795     47796     47792     47795     47797
     47792     47795     47803     47793     47792     47794     47793     47792     47795
     47794     47792     47795     47795     47797     47798     47795     47803     47804
     47795     47803     47805     47795     47803     47806     47796     47795     47797
     47796     47795     47803     47797     47795     47803     47797     47798     47799
     47797     47798     47800     47798     47800     47801     47798     47800     47802
     47798     47800     47812     47799     47798     47800     47800     47812     47813
     47800     47812     47814     47800     47812     47815     47801     47800     47802
     47801     47800     47812     47802     47800     47812     47803     47806     47807
     47804     47803     47805     47804     47803     47806     47805     47803     47806
     47806     47807     47808     47806     47807     47809     47807     47809     47810
     47807     47809     47811     47807     47809     47859     47808     47807     47809
     47809     47859     47860     47809     47859     47861     47809     47859     47862
     47810     47809     47811     47810     47809     47859     47811     47809     47859
     47812     47815     47816     47812     47815     47817     47812     47815     47818
     47813     47812     47814     47813     47812     47815     47814     47812     47815
     47815     47818     47819     47815     47818     47820     47815     47818     47821
     47816     47815     47817     47816     47815     47818     47817     47815     47818
     47818     47821     47822     47818     47821     47823     47818     47821     47824
     47819     47818     47820     47819     47818     47821     47820     47818     47821
     47821     47824     47825     47821     47824     47826     47821     47824     47827
     47822     47821     47823     47822     47821     47824     47823     47821     47824
     47824     47827     47828     47824     47827     47829     47824     47827     47830
     47825     47824     47826     47825     47824     47827     47826     47824     47827
     47827     47830     47831     47827     47830     47832     47827     47830     47833
     47828     47827     47829     47828     47827     47830     47829     47827     47830
     47830     47833     47834     47830     47833     47835     47830     47833     47836
     47831     47830     47832     47831     47830     47833     47832     47830     47833
     47833     47836     47837     47833     47836     47838     47834     47833     47835
     47834     47833     47836     47835     47833     47836     47836     47838     47839
     47836     47838     47840     47837     47836     47838     47838     47840     47841
     47838     47840     47842     47838     47840     47843     47839     47838     47840
     47840     47843     47844     47840     47843     47845     47840     47843     47846
     47841     47840     47842     47841     47840     47843     47842     47840     47843
     47843     47846     47847     47843     47846     47848     47843     47846     47849
     47844     47843     47845     47844     47843     47846     47845     47843     47846
     47846     47849     47850     47846     47849     47851     47846     47849     47852
     47847     47846     47848     47847     47846     47849     47848     47846     47849
     47849     47852     47853     47849     47852     47854     47849     47852     47855
     47850     47849     47851     47850     47849     47852     47851     47849     47852
     47852     47855     47856     47852     47855     47857     47852     47855     47858
     47853     47852     47854     47853     47852     47855     47854     47852     47855
     47856     47855     47857     47856     47855     47858     47857     47855     47858
     47859     47862     47863     47859     47862     47864     47859     47862     47865
     47860     47859     47861     47860     47859     47862     47861     47859     47862
     47862     47865     47866     47862     47865     47867     47862     47865     47868
     47863     47862     47864     47863     47862     47865     47864     47862     47865
     47865     47868     47869     47865     47868     47870     47865     47868     47871
     47866     47865     47867     47866     47865     47868     47867     47865     47868
     47868     47871     47872     47868     47871     47873     47868     47871     47874
     47869     47868     47870     47869     47868     47871     47870     47868     47871
     47871     47874     47875     47871     47874     47876     47871     47874     47877
     47872     47871     47873     47872     47871     47874     47873     47871     47874
     47874     47877     47878     47874     47877     47879     47874     47877     47880
     47875     47874     47876     47875     47874     47877     47876     47874     47877
     47877     47880     47881     47877     47880     47882     47877     47880     47883
     47878     47877     47879     47878     47877     47880     47879     47877     47880
     47880     47883     47884     47880     47883     47885     47880     47883     47886
     47881     47880     47882     47881     47880     47883     47882     47880     47883
     47883     47886     47887     47883     47886     47888     47883     47886     47889
     47884     47883     47885     47884     47883     47886     47885     47883     47886
     47886     47889     47890     47886     47889     47891     47886     47889     47892
     47887     47886     47888     47887     47886     47889     47888     47886     47889
     47889     47892     47893     47889     47892     47894     47889     47892     47895
     47890     47889     47891     47890     47889     47892     47891     47889     47892
     47892     47895     47896     47892     47895     47897     47892     47895     47898
     47893     47892     47894     47893     47892     47895     47894     47892     47895
     47895     47898     47899     47895     47898     47900     47895     47898     47901
     47896     47895     47897     47896     47895     47898     47897     47895     47898
     47899     47898     47900     47899     47898     47901     47900     47898     47901
     47902     47905     47906     47902     47907     47908     47902     47907     47909
     47902     47907     47911     47903     47902     47904     47903     47902     47905
     47903     47902     47907     47904     47902     47905     47904     47902     47907
     47905     47902     47907     47907     47909     47910     47907     47911     47912
     47907     47911     47913     47907     47911     47917     47908     47907     47909
     47908     47907     47911     47909     47907     47911     47911     47917     47914
     47912     47911     47913     47912     47911     47917     47913     47911     47917
     47914     47918     47919     47915     47914     47916     47915     47914     47917
     47915     47914     47918     47916     47914     47917     47916     47914     47918
     47917     47914     47918     47918     47919     47920     47918     47919     47921
     47918     47919     47922     47919     47922     47923     47919     47922     47924
     47919     47922     47930     47920     47919     47921     47920     47919     47922
     47921     47919     47922     47922     47924     47925     47922     47930     47931
     47922     47930     47932     47922     47930     47933     47923     47922     47924
     47923     47922     47930     47924     47922     47930     47924     47925     47926
     47924     47925     47927     47925     47927     47928     47925     47927     47929
     47925     47927     47939     47926     47925     47927     47927     47939     47940
     47927     47939     47941     47927     47939     47942     47928     47927     47929
     47928     47927     47939     47929     47927     47939     47930     47933     47934
     47931     47930     47932     47931     47930     47933     47932     47930     47933
     47933     47934     47935     47933     47934     47936     47934     47936     47937
     47934     47936     47938     47934     47936     47986     47935     47934     47936
     47936     47986     47987     47936     47986     47988     47936     47986     47989
     47937     47936     47938     47937     47936     47986     47938     47936     47986
     47939     47942     47943     47939     47942     47944     47939     47942     47945
     47940     47939     47941     47940     47939     47942     47941     47939     47942
     47942     47945     47946     47942     47945     47947     47942     47945     47948
     47943     47942     47944     47943     47942     47945     47944     47942     47945
     47945     47948     47949     47945     47948     47950     47945     47948     47951
     47946     47945     47947     47946     47945     47948     47947     47945     47948
     47948     47951     47952     47948     47951     47953     47948     47951     47954
     47949     47948     47950     47949     47948     47951     47950     47948     47951
     47951     47954     47955     47951     47954     47956     47951     47954     47957
     47952     47951     47953     47952     47951     47954     47953     47951     47954
     47954     47957     47958     47954     47957     47959     47954     47957     47960
     47955     47954     47956     47955     47954     47957     47956     47954     47957
     47957     47960     47961     47957     47960     47962     47957     47960     47963
     47958     47957     47959     47958     47957     47960     47959     47957     47960
     47960     47963     47964     47960     47963     47965     47961     47960     47962
     47961     47960     47963     47962     47960     47963     47963     47965     47966
     47963     47965     47967     47964     47963     47965     47965     47967     47968
     47965     47967     47969     47965     47967     47970     47966     47965     47967
     47967     47970     47971     47967     47970     47972     47967     47970     47973
     47968     47967     47969     47968     47967     47970     47969     47967     47970
     47970     47973     47974     47970     47973     47975     47970     47973     47976
     47971     47970     47972     47971     47970     47973     47972     47970     47973
     47973     47976     47977     47973     47976     47978     47973     47976     47979
     47974     47973     47975     47974     47973     47976     47975     47973     47976
     47976     47979     47980     47976     47979     47981     47976     47979     47982
     47977     47976     47978     47977     47976     47979     47978     47976     47979
     47979     47982     47983     47979     47982     47984     47979     47982     47985
     47980     47979     47981     47980     47979     47982     47981     47979     47982
     47983     47982     47984     47983     47982     47985     47984     47982     47985
     47986     47989     47990     47986     47989     47991     47986     47989     47992
     47987     47986     47988     47987     47986     47989     47988     47986     47989
     47989     47992     47993     47989     47992     47994     47989     47992     47995
     47990     47989     47991     47990     47989     47992     47991     47989     47992
     47992     47995     47996     47992     47995     47997     47992     47995     47998
     47993     47992     47994     47993     47992     47995     47994     47992     47995
     47995     47998     47999     47995     47998     48000     47995     47998     48001
     47996     47995     47997     47996     47995     47998     47997     47995     47998
     47998     48001     48002     47998     48001     48003     47998     48001     48004
     47999     47998     48000     47999     47998     48001     48000     47998     48001
     48001     48004     48005     48001     48004     48006     48001     48004     48007
     48002     48001     48003     48002     48001     48004     48003     48001     48004
     48004     48007     48008     48004     48007     48009     48004     48007     48010
     48005     48004     48006     48005     48004     48007     48006     48004     48007
     48007     48010     48011     48007     48010     48012     48007     48010     48013
     48008     48007     48009     48008     48007     48010     48009     48007     48010
     48010     48013     48014     48010     48013     48015     48010     48013     48016
     48011     48010     48012     48011     48010     48013     48012     48010     48013
     48013     48016     48017     48013     48016     48018     48013     48016     48019
     48014     48013     48015     48014     48013     48016     48015     48013     48016
     48016     48019     48020     48016     48019     48021     48016     48019     48022
     48017     48016     48018     48017     48016     48019     48018     48016     48019
     48019     48022     48023     48019     48022     48024     48019     48022     48025
     48020     48019     48021     48020     48019     48022     48021     48019     48022
     48022     48025     48026     48022     48025     48027     48022     48025     48028
     48023     48022     48024     48023     48022     48025     48024     48022     48025
     48026     48025     48027     48026     48025     48028     48027     48025     48028
     48029     48033     48034     48029     48033     48035     48029     48033     48036
     48030     48029     48031     48030     48029     48032     48030     48029     48033
     48031     48029     48032     48031     48029     48033     48032     48029     48033
     48033     48036     48037     48033     48036     48038     48033     48036     48043
     48034     48033     48035     48034     48033     48036     48035     48033     48036
     48036     48043     48039     48037     48036     48038     48037     48036     48043
     48038     48036     48043     48039     48042     48044     48040     48039     48041
     48040     48039     48042     48040     48039     48043     48041     48039     48042
     48041     48039     48043     48042     48039     48043     48042     48044     48045
     48042     48044     48046     48042     48044     48047     48044     48047     48048
     48044     48047     48049     48044     48047     48055     48045     48044     48046
     48045     48044     48047     48046     48044     48047     48047     48049     48050
     48047     48055     48056     48047     48055     48057     48047     48055     48058
     48048     48047     48049     48048     48047     48055     48049     48047     48055
     48049     48050     48051     48049     48050     48052     48050     48052     48053
     48050     48052     48054     48050     48052     48064     48051     48050     48052
     48052     48064     48065     48052     48064     48066     48052     48064     48067
     48053     48052     48054     48053     48052     48064     48054     48052     48064
     48055     48058     48059     48056     48055     48057     48056     48055     48058
     48057     48055     48058     48058     48059     48060     48058     48059     48061
     48059     48061     48062     48059     48061     48063     48059     48061     48105
     48060     48059     48061     48061     48105     48106     48061     48105     48107
     48061     48105     48108     48062     48061     48063     48062     48061     48105
     48063     48061     48105     48064     48067     48068     48064     48067     48069
     48064     48067     48070     48065     48064     48066     48065     48064     48067
     48066     48064     48067     48067     48070     48071     48067     48070     48072
     48067     48070     48073     48068     48067     48069     48068     48067     48070
     48069     48067     48070     48070     48073     48074     48070     48073     48075
     48070     48073     48076     48071     48070     48072     48071     48070     48073
     48072     48070     48073     48073     48076     48077     48073     48076     48078
     48073     48076     48079     48074     48073     48075     48074     48073     48076
     48075     48073     48076     48076     48079     48080     48076     48079     48081
     48076     48079     48082     48077     48076     48078     48077     48076     48079
     48078     48076     48079     48079     48082     48083     48079     48082     48084
     48080     48079     48081     48080     48079     48082     48081     48079     48082
     48082     48084     48085     48082     48084     48086     48083     48082     48084
     48084     48086     48087     48084     48086     48088     48084     48086     48089
     48085     48084     48086     48086     48089     48090     48086     48089     48091
     48086     48089     48092     48087     48086     48088     48087     48086     48089
     48088     48086     48089     48089     48092     48093     48089     48092     48094
     48089     48092     48095     48090     48089     48091     48090     48089     48092
     48091     48089     48092     48092     48095     48096     48092     48095     48097
     48092     48095     48098     48093     48092     48094     48093     48092     48095
     48094     48092     48095     48095     48098     48099     48095     48098     48100
     48095     48098     48101     48096     48095     48097     48096     48095     48098
     48097     48095     48098     48098     48101     48102     48098     48101     48103
     48098     48101     48104     48099     48098     48100     48099     48098     48101
     48100     48098     48101     48102     48101     48103     48102     48101     48104
     48103     48101     48104     48105     48108     48109     48105     48108     48110
     48105     48108     48111     48106     48105     48107     48106     48105     48108
     48107     48105     48108     48108     48111     48112     48108     48111     48113
     48108     48111     48114     48109     48108     48110     48109     48108     48111
     48110     48108     48111     48111     48114     48115     48111     48114     48116
     48111     48114     48117     48112     48111     48113     48112     48111     48114
     48113     48111     48114     48114     48117     48118     48114     48117     48119
     48114     48117     48120     48115     48114     48116     48115     48114     48117
     48116     48114     48117     48117     48120     48121     48117     48120     48122
     48117     48120     48123     48118     48117     48119     48118     48117     48120
     48119     48117     48120     48120     48123     48124     48120     48123     48125
     48120     48123     48126     48121     48120     48122     48121     48120     48123
     48122     48120     48123     48123     48126     48127     48123     48126     48128
     48123     48126     48129     48124     48123     48125     48124     48123     48126
     48125     48123     48126     48126     48129     48130     48126     48129     48131
     48126     48129     48132     48127     48126     48128     48127     48126     48129
     48128     48126     48129     48129     48132     48133     48129     48132     48134
     48129     48132     48135     48130     48129     48131     48130     48129     48132
     48131     48129     48132     48132     48135     48136     48132     48135     48137
     48132     48135     48138     48133     48132     48134     48133     48132     48135
     48134     48132     48135     48135     48138     48139     48135     48138     48140
     48135     48138     48141     48136     48135     48137     48136     48135     48138
     48137     48135     48138     48138     48141     48142     48138     48141     48143
     48138     48141     48144     48139     48138     48140     48139     48138     48141
     48140     48138     48141     48141     48144     48145     48141     48144     48146
     48141     48144     48147     48142     48141     48143     48142     48141     48144
     48143     48141     48144     48145     48144     48146     48145     48144     48147
     48146     48144     48147     48148     48152     48153     48148     48152     48154
     48148     48152     48155     48149     48148     48150     48149     48148     48151
     48149     48148     48152     48150     48148     48151     48150     48148     48152
     48151     48148     48152     48152     48155     48156     48152     48155     48157
     48152     48155     48162     48153     48152     48154     48153     48152     48155
     48154     48152     48155     48155     48162     48158     48156     48155     48157
     48156     48155     48162     48157     48155     48162     48158     48161     48163
     48159     48158     48160     48159     48158     48161     48159     48158     48162
     48160     48158     48161     48160     48158     48162     48161     48158     48162
     48161     48163     48164     48161     48163     48165     48161     48163     48166
     48163     48166     48167     48163     48166     48168     48163     48166     48174
     48164     48163     48165     48164     48163     48166     48165     48163     48166
     48166     48168     48169     48166     48174     48175     48166     48174     48176
     48166     48174     48177     48167     48166     48168     48167     48166     48174
     48168     48166     48174     48168     48169     48170     48168     48169     48171
     48169     48171     48172     48169     48171     48173     48169     48171     48183
     48170     48169     48171     48171     48183     48184     48171     48183     48185
     48171     48183     48186     48172     48171     48173     48172     48171     48183
     48173     48171     48183     48174     48177     48178     48175     48174     48176
     48175     48174     48177     48176     48174     48177     48177     48178     48179
     48177     48178     48180     48178     48180     48181     48178     48180     48182
     48178     48180     48224     48179     48178     48180     48180     48224     48225
     48180     48224     48226     48180     48224     48227     48181     48180     48182
     48181     48180     48224     48182     48180     48224     48183     48186     48187
     48183     48186     48188     48183     48186     48189     48184     48183     48185
     48184     48183     48186     48185     48183     48186     48186     48189     48190
     48186     48189     48191     48186     48189     48192     48187     48186     48188
     48187     48186     48189     48188     48186     48189     48189     48192     48193
     48189     48192     48194     48189     48192     48195     48190     48189     48191
     48190     48189     48192     48191     48189     48192     48192     48195     48196
     48192     48195     48197     48192     48195     48198     48193     48192     48194
     48193     48192     48195     48194     48192     48195     48195     48198     48199
     48195     48198     48200     48195     48198     48201     48196     48195     48197
     48196     48195     48198     48197     48195     48198     48198     48201     48202
     48198     48201     48203     48199     48198     48200     48199     48198     48201
     48200     48198     48201     48201     48203     48204     48201     48203     48205
     48202     48201     48203     48203     48205     48206     48203     48205     48207
     48203     48205     48208     48204     48203     48205     48205     48208     48209
     48205     48208     48210     48205     48208     48211     48206     48205     48207
     48206     48205     48208     48207     48205     48208     48208     48211     48212
     48208     48211     48213     48208     48211     48214     48209     48208     48210
     48209     48208     48211     48210     48208     48211     48211     48214     48215
     48211     48214     48216     48211     48214     48217     48212     48211     48213
     48212     48211     48214     48213     48211     48214     48214     48217     48218
     48214     48217     48219     48214     48217     48220     48215     48214     48216
     48215     48214     48217     48216     48214     48217     48217     48220     48221
     48217     48220     48222     48217     48220     48223     48218     48217     48219
     48218     48217     48220     48219     48217     48220     48221     48220     48222
     48221     48220     48223     48222     48220     48223     48224     48227     48228
     48224     48227     48229     48224     48227     48230     48225     48224     48226
     48225     48224     48227     48226     48224     48227     48227     48230     48231
     48227     48230     48232     48227     48230     48233     48228     48227     48229
     48228     48227     48230     48229     48227     48230     48230     48233     48234
     48230     48233     48235     48230     48233     48236     48231     48230     48232
     48231     48230     48233     48232     48230     48233     48233     48236     48237
     48233     48236     48238     48233     48236     48239     48234     48233     48235
     48234     48233     48236     48235     48233     48236     48236     48239     48240
     48236     48239     48241     48236     48239     48242     48237     48236     48238
     48237     48236     48239     48238     48236     48239     48239     48242     48243
     48239     48242     48244     48239     48242     48245     48240     48239     48241
     48240     48239     48242     48241     48239     48242     48242     48245     48246
     48242     48245     48247     48242     48245     48248     48243     48242     48244
     48243     48242     48245     48244     48242     48245     48245     48248     48249
     48245     48248     48250     48245     48248     48251     48246     48245     48247
     48246     48245     48248     48247     48245     48248     48248     48251     48252
     48248     48251     48253     48248     48251     48254     48249     48248     48250
     48249     48248     48251     48250     48248     48251     48251     48254     48255
     48251     48254     48256     48251     48254     48257     48252     48251     48253
     48252     48251     48254     48253     48251     48254     48254     48257     48258
     48254     48257     48259     48254     48257     48260     48255     48254     48256
     48255     48254     48257     48256     48254     48257     48257     48260     48261
     48257     48260     48262     48257     48260     48263     48258     48257     48259
     48258     48257     48260     48259     48257     48260     48260     48263     48264
     48260     48263     48265     48260     48263     48266     48261     48260     48262
     48261     48260     48263     48262     48260     48263     48264     48263     48265
     48264     48263     48266     48265     48263     48266     48267     48271     48272
     48267     48271     48273     48267     48271     48274     48268     48267     48269
     48268     48267     48270     48268     48267     48271     48269     48267     48270
     48269     48267     48271     48270     48267     48271     48271     48274     48275
     48271     48274     48276     48271     48274     48281     48272     48271     48273
     48272     48271     48274     48273     48271     48274     48274     48281     48277
     48275     48274     48276     48275     48274     48281     48276     48274     48281
     48277     48280     48282     48278     48277     48279     48278     48277     48280
     48278     48277     48281     48279     48277     48280     48279     48277     48281
     48280     48277     48281     48280     48282     48283     48280     48282     48284
     48280     48282     48285     48282     48285     48286     48282     48285     48287
     48282     48285     48293     48283     48282     48284     48283     48282     48285
     48284     48282     48285     48285     48287     48288     48285     48293     48294
     48285     48293     48295     48285     48293     48296     48286     48285     48287
     48286     48285     48293     48287     48285     48293     48287     48288     48289
     48287     48288     48290     48288     48290     48291     48288     48290     48292
     48288     48290     48302     48289     48288     48290     48290     48302     48303
     48290     48302     48304     48290     48302     48305     48291     48290     48292
     48291     48290     48302     48292     48290     48302     48293     48296     48297
     48294     48293     48295     48294     48293     48296     48295     48293     48296
     48296     48297     48298     48296     48297     48299     48297     48299     48300
     48297     48299     48301     48297     48299     48343     48298     48297     48299
     48299     48343     48344     48299     48343     48345     48299     48343     48346
     48300     48299     48301     48300     48299     48343     48301     48299     48343
     48302     48305     48306     48302     48305     48307     48302     48305     48308
     48303     48302     48304     48303     48302     48305     48304     48302     48305
     48305     48308     48309     48305     48308     48310     48305     48308     48311
     48306     48305     48307     48306     48305     48308     48307     48305     48308
     48308     48311     48312     48308     48311     48313     48308     48311     48314
     48309     48308     48310     48309     48308     48311     48310     48308     48311
     48311     48314     48315     48311     48314     48316     48311     48314     48317
     48312     48311     48313     48312     48311     48314     48313     48311     48314
     48314     48317     48318     48314     48317     48319     48314     48317     48320
     48315     48314     48316     48315     48314     48317     48316     48314     48317
     48317     48320     48321     48317     48320     48322     48318     48317     48319
     48318     48317     48320     48319     48317     48320     48320     48322     48323
     48320     48322     48324     48321     48320     48322     48322     48324     48325
     48322     48324     48326     48322     48324     48327     48323     48322     48324
     48324     48327     48328     48324     48327     48329     48324     48327     48330
     48325     48324     48326     48325     48324     48327     48326     48324     48327
     48327     48330     48331     48327     48330     48332     48327     48330     48333
     48328     48327     48329     48328     48327     48330     48329     48327     48330
     48330     48333     48334     48330     48333     48335     48330     48333     48336
     48331     48330     48332     48331     48330     48333     48332     48330     48333
     48333     48336     48337     48333     48336     48338     48333     48336     48339
     48334     48333     48335     48334     48333     48336     48335     48333     48336
     48336     48339     48340     48336     48339     48341     48336     48339     48342
     48337     48336     48338     48337     48336     48339     48338     48336     48339
     48340     48339     48341     48340     48339     48342     48341     48339     48342
     48343     48346     48347     48343     48346     48348     48343     48346     48349
     48344     48343     48345     48344     48343     48346     48345     48343     48346
     48346     48349     48350     48346     48349     48351     48346     48349     48352
     48347     48346     48348     48347     48346     48349     48348     48346     48349
     48349     48352     48353     48349     48352     48354     48349     48352     48355
     48350     48349     48351     48350     48349     48352     48351     48349     48352
     48352     48355     48356     48352     48355     48357     48352     48355     48358
     48353     48352     48354     48353     48352     48355     48354     48352     48355
     48355     48358     48359     48355     48358     48360     48355     48358     48361
     48356     48355     48357     48356     48355     48358     48357     48355     48358
     48358     48361     48362     48358     48361     48363     48358     48361     48364
     48359     48358     48360     48359     48358     48361     48360     48358     48361
     48361     48364     48365     48361     48364     48366     48361     48364     48367
     48362     48361     48363     48362     48361     48364     48363     48361     48364
     48364     48367     48368     48364     48367     48369     48364     48367     48370
     48365     48364     48366     48365     48364     48367     48366     48364     48367
     48367     48370     48371     48367     48370     48372     48367     48370     48373
     48368     48367     48369     48368     48367     48370     48369     48367     48370
     48370     48373     48374     48370     48373     48375     48370     48373     48376
     48371     48370     48372     48371     48370     48373     48372     48370     48373
     48373     48376     48377     48373     48376     48378     48373     48376     48379
     48374     48373     48375     48374     48373     48376     48375     48373     48376
     48376     48379     48380     48376     48379     48381     48376     48379     48382
     48377     48376     48378     48377     48376     48379     48378     48376     48379
     48379     48382     48383     48379     48382     48384     48379     48382     48385
     48380     48379     48381     48380     48379     48382     48381     48379     48382
     48383     48382     48384     48383     48382     48385     48384     48382     48385
     48386     48390     48391     48386     48390     48392     48386     48390     48393
     48387     48386     48388     48387     48386     48389     48387     48386     48390
     48388     48386     48389     48388     48386     48390     48389     48386     48390
     48390     48393     48394     48390     48393     48395     48390     48393     48400
     48391     48390     48392     48391     48390     48393     48392     48390     48393
     48393     48400     48396     48394     48393     48395     48394     48393     48400
     48395     48393     48400     48396     48399     48401     48397     48396     48398
     48397     48396     48399     48397     48396     48400     48398     48396     48399
     48398     48396     48400     48399     48396     48400     48399     48401     48402
     48399     48401     48403     48399     48401     48404     48401     48404     48405
     48401     48404     48406     48401     48404     48412     48402     48401     48403
     48402     48401     48404     48403     48401     48404     48404     48406     48407
     48404     48412     48413     48404     48412     48414     48404     48412     48415
     48405     48404     48406     48405     48404     48412     48406     48404     48412
     48406     48407     48408     48406     48407     48409     48407     48409     48410
     48407     48409     48411     48407     48409     48421     48408     48407     48409
     48409     48421     48422     48409     48421     48423     48409     48421     48424
     48410     48409     48411     48410     48409     48421     48411     48409     48421
     48412     48415     48416     48413     48412     48414     48413     48412     48415
     48414     48412     48415     48415     48416     48417     48415     48416     48418
     48416     48418     48419     48416     48418     48420     48416     48418     48462
     48417     48416     48418     48418     48462     48463     48418     48462     48464
     48418     48462     48465     48419     48418     48420     48419     48418     48462
     48420     48418     48462     48421     48424     48425     48421     48424     48426
     48421     48424     48427     48422     48421     48423     48422     48421     48424
     48423     48421     48424     48424     48427     48428     48424     48427     48429
     48424     48427     48430     48425     48424     48426     48425     48424     48427
     48426     48424     48427     48427     48430     48431     48427     48430     48432
     48427     48430     48433     48428     48427     48429     48428     48427     48430
     48429     48427     48430     48430     48433     48434     48430     48433     48435
     48430     48433     48436     48431     48430     48432     48431     48430     48433
     48432     48430     48433     48433     48436     48437     48433     48436     48438
     48433     48436     48439     48434     48433     48435     48434     48433     48436
     48435     48433     48436     48436     48439     48440     48436     48439     48441
     48437     48436     48438     48437     48436     48439     48438     48436     48439
     48439     48441     48442     48439     48441     48443     48440     48439     48441
     48441     48443     48444     48441     48443     48445     48441     48443     48446
     48442     48441     48443     48443     48446     48447     48443     48446     48448
     48443     48446     48449     48444     48443     48445     48444     48443     48446
     48445     48443     48446     48446     48449     48450     48446     48449     48451
     48446     48449     48452     48447     48446     48448     48447     48446     48449
     48448     48446     48449     48449     48452     48453     48449     48452     48454
     48449     48452     48455     48450     48449     48451     48450     48449     48452
     48451     48449     48452     48452     48455     48456     48452     48455     48457
     48452     48455     48458     48453     48452     48454     48453     48452     48455
     48454     48452     48455     48455     48458     48459     48455     48458     48460
     48455     48458     48461     48456     48455     48457     48456     48455     48458
     48457     48455     48458     48459     48458     48460     48459     48458     48461
     48460     48458     48461     48462     48465     48466     48462     48465     48467
     48462     48465     48468     48463     48462     48464     48463     48462     48465
     48464     48462     48465     48465     48468     48469     48465     48468     48470
     48465     48468     48471     48466     48465     48467     48466     48465     48468
     48467     48465     48468     48468     48471     48472     48468     48471     48473
     48468     48471     48474     48469     48468     48470     48469     48468     48471
     48470     48468     48471     48471     48474     48475     48471     48474     48476
     48471     48474     48477     48472     48471     48473     48472     48471     48474
     48473     48471     48474     48474     48477     48478     48474     48477     48479
     48474     48477     48480     48475     48474     48476     48475     48474     48477
     48476     48474     48477     48477     48480     48481     48477     48480     48482
     48477     48480     48483     48478     48477     48479     48478     48477     48480
     48479     48477     48480     48480     48483     48484     48480     48483     48485
     48480     48483     48486     48481     48480     48482     48481     48480     48483
     48482     48480     48483     48483     48486     48487     48483     48486     48488
     48483     48486     48489     48484     48483     48485     48484     48483     48486
     48485     48483     48486     48486     48489     48490     48486     48489     48491
     48486     48489     48492     48487     48486     48488     48487     48486     48489
     48488     48486     48489     48489     48492     48493     48489     48492     48494
     48489     48492     48495     48490     48489     48491     48490     48489     48492
     48491     48489     48492     48492     48495     48496     48492     48495     48497
     48492     48495     48498     48493     48492     48494     48493     48492     48495
     48494     48492     48495     48495     48498     48499     48495     48498     48500
     48495     48498     48501     48496     48495     48497     48496     48495     48498
     48497     48495     48498     48498     48501     48502     48498     48501     48503
     48498     48501     48504     48499     48498     48500     48499     48498     48501
     48500     48498     48501     48502     48501     48503     48502     48501     48504
     48503     48501     48504     48505     48509     48510     48505     48509     48511
     48505     48509     48512     48506     48505     48507     48506     48505     48508
     48506     48505     48509     48507     48505     48508     48507     48505     48509
     48508     48505     48509     48509     48512     48513     48509     48512     48514
     48509     48512     48519     48510     48509     48511     48510     48509     48512
     48511     48509     48512     48512     48519     48515     48513     48512     48514
     48513     48512     48519     48514     48512     48519     48515     48518     48520
     48516     48515     48517     48516     48515     48518     48516     48515     48519
     48517     48515     48518     48517     48515     48519     48518     48515     48519
     48518     48520     48521     48518     48520     48522     48518     48520     48523
     48520     48523     48524     48520     48523     48525     48520     48523     48531
     48521     48520     48522     48521     48520     48523     48522     48520     48523
     48523     48525     48526     48523     48531     48532     48523     48531     48533
     48523     48531     48534     48524     48523     48525     48524     48523     48531
     48525     48523     48531     48525     48526     48527     48525     48526     48528
     48526     48528     48529     48526     48528     48530     48526     48528     48540
     48527     48526     48528     48528     48540     48541     48528     48540     48542
     48528     48540     48543     48529     48528     48530     48529     48528     48540
     48530     48528     48540     48531     48534     48535     48532     48531     48533
     48532     48531     48534     48533     48531     48534     48534     48535     48536
     48534     48535     48537     48535     48537     48538     48535     48537     48539
     48535     48537     48581     48536     48535     48537     48537     48581     48582
     48537     48581     48583     48537     48581     48584     48538     48537     48539
     48538     48537     48581     48539     48537     48581     48540     48543     48544
     48540     48543     48545     48540     48543     48546     48541     48540     48542
     48541     48540     48543     48542     48540     48543     48543     48546     48547
     48543     48546     48548     48543     48546     48549     48544     48543     48545
     48544     48543     48546     48545     48543     48546     48546     48549     48550
     48546     48549     48551     48546     48549     48552     48547     48546     48548
     48547     48546     48549     48548     48546     48549     48549     48552     48553
     48549     48552     48554     48549     48552     48555     48550     48549     48551
     48550     48549     48552     48551     48549     48552     48552     48555     48556
     48552     48555     48557     48552     48555     48558     48553     48552     48554
     48553     48552     48555     48554     48552     48555     48555     48558     48559
     48555     48558     48560     48556     48555     48557     48556     48555     48558
     48557     48555     48558     48558     48560     48561     48558     48560     48562
     48559     48558     48560     48560     48562     48563     48560     48562     48564
     48560     48562     48565     48561     48560     48562     48562     48565     48566
     48562     48565     48567     48562     48565     48568     48563     48562     48564
     48563     48562     48565     48564     48562     48565     48565     48568     48569
     48565     48568     48570     48565     48568     48571     48566     48565     48567
     48566     48565     48568     48567     48565     48568     48568     48571     48572
     48568     48571     48573     48568     48571     48574     48569     48568     48570
     48569     48568     48571     48570     48568     48571     48571     48574     48575
     48571     48574     48576     48571     48574     48577     48572     48571     48573
     48572     48571     48574     48573     48571     48574     48574     48577     48578
     48574     48577     48579     48574     48577     48580     48575     48574     48576
     48575     48574     48577     48576     48574     48577     48578     48577     48579
     48578     48577     48580     48579     48577     48580     48581     48584     48585
     48581     48584     48586     48581     48584     48587     48582     48581     48583
     48582     48581     48584     48583     48581     48584     48584     48587     48588
     48584     48587     48589     48584     48587     48590     48585     48584     48586
     48585     48584     48587     48586     48584     48587     48587     48590     48591
     48587     48590     48592     48587     48590     48593     48588     48587     48589
     48588     48587     48590     48589     48587     48590     48590     48593     48594
     48590     48593     48595     48590     48593     48596     48591     48590     48592
     48591     48590     48593     48592     48590     48593     48593     48596     48597
     48593     48596     48598     48593     48596     48599     48594     48593     48595
     48594     48593     48596     48595     48593     48596     48596     48599     48600
     48596     48599     48601     48596     48599     48602     48597     48596     48598
     48597     48596     48599     48598     48596     48599     48599     48602     48603
     48599     48602     48604     48599     48602     48605     48600     48599     48601
     48600     48599     48602     48601     48599     48602     48602     48605     48606
     48602     48605     48607     48602     48605     48608     48603     48602     48604
     48603     48602     48605     48604     48602     48605     48605     48608     48609
     48605     48608     48610     48605     48608     48611     48606     48605     48607
     48606     48605     48608     48607     48605     48608     48608     48611     48612
     48608     48611     48613     48608     48611     48614     48609     48608     48610
     48609     48608     48611     48610     48608     48611     48611     48614     48615
     48611     48614     48616     48611     48614     48617     48612     48611     48613
     48612     48611     48614     48613     48611     48614     48614     48617     48618
     48614     48617     48619     48614     48617     48620     48615     48614     48616
     48615     48614     48617     48616     48614     48617     48617     48620     48621
     48617     48620     48622     48617     48620     48623     48618     48617     48619
     48618     48617     48620     48619     48617     48620     48621     48620     48622
     48621     48620     48623     48622     48620     48623     48624     48628     48629
     48624     48628     48630     48624     48628     48631     48625     48624     48626
     48625     48624     48627     48625     48624     48628     48626     48624     48627
     48626     48624     48628     48627     48624     48628     48628     48631     48632
     48628     48631     48633     48628     48631     48638     48629     48628     48630
     48629     48628     48631     48630     48628     48631     48631     48638     48634
     48632     48631     48633     48632     48631     48638     48633     48631     48638
     48634     48637     48639     48635     48634     48636     48635     48634     48637
     48635     48634     48638     48636     48634     48637     48636     48634     48638
     48637     48634     48638     48637     48639     48640     48637     48639     48641
     48637     48639     48642     48639     48642     48643     48639     48642     48644
     48639     48642     48650     48640     48639     48641     48640     48639     48642
     48641     48639     48642     48642     48644     48645     48642     48650     48651
     48642     48650     48652     48642     48650     48653     48643     48642     48644
     48643     48642     48650     48644     48642     48650     48644     48645     48646
     48644     48645     48647     48645     48647     48648     48645     48647     48649
     48645     48647     48659     48646     48645     48647     48647     48659     48660
     48647     48659     48661     48647     48659     48662     48648     48647     48649
     48648     48647     48659     48649     48647     48659     48650     48653     48654
     48651     48650     48652     48651     48650     48653     48652     48650     48653
     48653     48654     48655     48653     48654     48656     48654     48656     48657
     48654     48656     48658     48654     48656     48700     48655     48654     48656
     48656     48700     48701     48656     48700     48702     48656     48700     48703
     48657     48656     48658     48657     48656     48700     48658     48656     48700
     48659     48662     48663     48659     48662     48664     48659     48662     48665
     48660     48659     48661     48660     48659     48662     48661     48659     48662
     48662     48665     48666     48662     48665     48667     48662     48665     48668
     48663     48662     48664     48663     48662     48665     48664     48662     48665
     48665     48668     48669     48665     48668     48670     48665     48668     48671
     48666     48665     48667     48666     48665     48668     48667     48665     48668
     48668     48671     48672     48668     48671     48673     48668     48671     48674
     48669     48668     48670     48669     48668     48671     48670     48668     48671
     48671     48674     48675     48671     48674     48676     48671     48674     48677
     48672     48671     48673     48672     48671     48674     48673     48671     48674
     48674     48677     48678     48674     48677     48679     48675     48674     48676
     48675     48674     48677     48676     48674     48677     48677     48679     48680
     48677     48679     48681     48678     48677     48679     48679     48681     48682
     48679     48681     48683     48679     48681     48684     48680     48679     48681
     48681     48684     48685     48681     48684     48686     48681     48684     48687
     48682     48681     48683     48682     48681     48684     48683     48681     48684
     48684     48687     48688     48684     48687     48689     48684     48687     48690
     48685     48684     48686     48685     48684     48687     48686     48684     48687
     48687     48690     48691     48687     48690     48692     48687     48690     48693
     48688     48687     48689     48688     48687     48690     48689     48687     48690
     48690     48693     48694     48690     48693     48695     48690     48693     48696
     48691     48690     48692     48691     48690     48693     48692     48690     48693
     48693     48696     48697     48693     48696     48698     48693     48696     48699
     48694     48693     48695     48694     48693     48696     48695     48693     48696
     48697     48696     48698     48697     48696     48699     48698     48696     48699
     48700     48703     48704     48700     48703     48705     48700     48703     48706
     48701     48700     48702     48701     48700     48703     48702     48700     48703
     48703     48706     48707     48703     48706     48708     48703     48706     48709
     48704     48703     48705     48704     48703     48706     48705     48703     48706
     48706     48709     48710     48706     48709     48711     48706     48709     48712
     48707     48706     48708     48707     48706     48709     48708     48706     48709
     48709     48712     48713     48709     48712     48714     48709     48712     48715
     48710     48709     48711     48710     48709     48712     48711     48709     48712
     48712     48715     48716     48712     48715     48717     48712     48715     48718
     48713     48712     48714     48713     48712     48715     48714     48712     48715
     48715     48718     48719     48715     48718     48720     48715     48718     48721
     48716     48715     48717     48716     48715     48718     48717     48715     48718
     48718     48721     48722     48718     48721     48723     48718     48721     48724
     48719     48718     48720     48719     48718     48721     48720     48718     48721
     48721     48724     48725     48721     48724     48726     48721     48724     48727
     48722     48721     48723     48722     48721     48724     48723     48721     48724
     48724     48727     48728     48724     48727     48729     48724     48727     48730
     48725     48724     48726     48725     48724     48727     48726     48724     48727
     48727     48730     48731     48727     48730     48732     48727     48730     48733
     48728     48727     48729     48728     48727     48730     48729     48727     48730
     48730     48733     48734     48730     48733     48735     48730     48733     48736
     48731     48730     48732     48731     48730     48733     48732     48730     48733
     48733     48736     48737     48733     48736     48738     48733     48736     48739
     48734     48733     48735     48734     48733     48736     48735     48733     48736
     48736     48739     48740     48736     48739     48741     48736     48739     48742
     48737     48736     48738     48737     48736     48739     48738     48736     48739
     48740     48739     48741     48740     48739     48742     48741     48739     48742
     48743     48747     48748     48743     48747     48749     48743     48747     48750
     48744     48743     48745     48744     48743     48746     48744     48743     48747
     48745     48743     48746     48745     48743     48747     48746     48743     48747
     48747     48750     48751     48747     48750     48752     48747     48750     48757
     48748     48747     48749     48748     48747     48750     48749     48747     48750
     48750     48757     48753     48751     48750     48752     48751     48750     48757
     48752     48750     48757     48753     48756     48758     48754     48753     48755
     48754     48753     48756     48754     48753     48757     48755     48753     48756
     48755     48753     48757     48756     48753     48757     48756     48758     48759
     48756     48758     48760     48756     48758     48761     48758     48761     48762
     48758     48761     48763     48758     48761     48769     48759     48758     48760
     48759     48758     48761     48760     48758     48761     48761     48763     48764
     48761     48769     48770     48761     48769     48771     48761     48769     48772
     48762     48761     48763     48762     48761     48769     48763     48761     48769
     48763     48764     48765     48763     48764     48766     48764     48766     48767
     48764     48766     48768     48764     48766     48778     48765     48764     48766
     48766     48778     48779     48766     48778     48780     48766     48778     48781
     48767     48766     48768     48767     48766     48778     48768     48766     48778
     48769     48772     48773     48770     48769     48771     48770     48769     48772
     48771     48769     48772     48772     48773     48774     48772     48773     48775
     48773     48775     48776     48773     48775     48777     48773     48775     48819
     48774     48773     48775     48775     48819     48820     48775     48819     48821
     48775     48819     48822     48776     48775     48777     48776     48775     48819
     48777     48775     48819     48778     48781     48782     48778     48781     48783
     48778     48781     48784     48779     48778     48780     48779     48778     48781
     48780     48778     48781     48781     48784     48785     48781     48784     48786
     48781     48784     48787     48782     48781     48783     48782     48781     48784
     48783     48781     48784     48784     48787     48788     48784     48787     48789
     48784     48787     48790     48785     48784     48786     48785     48784     48787
     48786     48784     48787     48787     48790     48791     48787     48790     48792
     48787     48790     48793     48788     48787     48789     48788     48787     48790
     48789     48787     48790     48790     48793     48794     48790     48793     48795
     48790     48793     48796     48791     48790     48792     48791     48790     48793
     48792     48790     48793     48793     48796     48797     48793     48796     48798
     48794     48793     48795     48794     48793     48796     48795     48793     48796
     48796     48798     48799     48796     48798     48800     48797     48796     48798
     48798     48800     48801     48798     48800     48802     48798     48800     48803
     48799     48798     48800     48800     48803     48804     48800     48803     48805
     48800     48803     48806     48801     48800     48802     48801     48800     48803
     48802     48800     48803     48803     48806     48807     48803     48806     48808
     48803     48806     48809     48804     48803     48805     48804     48803     48806
     48805     48803     48806     48806     48809     48810     48806     48809     48811
     48806     48809     48812     48807     48806     48808     48807     48806     48809
     48808     48806     48809     48809     48812     48813     48809     48812     48814
     48809     48812     48815     48810     48809     48811     48810     48809     48812
     48811     48809     48812     48812     48815     48816     48812     48815     48817
     48812     48815     48818     48813     48812     48814     48813     48812     48815
     48814     48812     48815     48816     48815     48817     48816     48815     48818
     48817     48815     48818     48819     48822     48823     48819     48822     48824
     48819     48822     48825     48820     48819     48821     48820     48819     48822
     48821     48819     48822     48822     48825     48826     48822     48825     48827
     48822     48825     48828     48823     48822     48824     48823     48822     48825
     48824     48822     48825     48825     48828     48829     48825     48828     48830
     48825     48828     48831     48826     48825     48827     48826     48825     48828
     48827     48825     48828     48828     48831     48832     48828     48831     48833
     48828     48831     48834     48829     48828     48830     48829     48828     48831
     48830     48828     48831     48831     48834     48835     48831     48834     48836
     48831     48834     48837     48832     48831     48833     48832     48831     48834
     48833     48831     48834     48834     48837     48838     48834     48837     48839
     48834     48837     48840     48835     48834     48836     48835     48834     48837
     48836     48834     48837     48837     48840     48841     48837     48840     48842
     48837     48840     48843     48838     48837     48839     48838     48837     48840
     48839     48837     48840     48840     48843     48844     48840     48843     48845
     48840     48843     48846     48841     48840     48842     48841     48840     48843
     48842     48840     48843     48843     48846     48847     48843     48846     48848
     48843     48846     48849     48844     48843     48845     48844     48843     48846
     48845     48843     48846     48846     48849     48850     48846     48849     48851
     48846     48849     48852     48847     48846     48848     48847     48846     48849
     48848     48846     48849     48849     48852     48853     48849     48852     48854
     48849     48852     48855     48850     48849     48851     48850     48849     48852
     48851     48849     48852     48852     48855     48856     48852     48855     48857
     48852     48855     48858     48853     48852     48854     48853     48852     48855
     48854     48852     48855     48855     48858     48859     48855     48858     48860
     48855     48858     48861     48856     48855     48857     48856     48855     48858
     48857     48855     48858     48859     48858     48860     48859     48858     48861
     48860     48858     48861     48862     48866     48867     48862     48866     48868
     48862     48866     48869     48863     48862     48864     48863     48862     48865
     48863     48862     48866     48864     48862     48865     48864     48862     48866
     48865     48862     48866     48866     48869     48870     48866     48869     48871
     48866     48869     48876     48867     48866     48868     48867     48866     48869
     48868     48866     48869     48869     48876     48872     48870     48869     48871
     48870     48869     48876     48871     48869     48876     48872     48875     48877
     48873     48872     48874     48873     48872     48875     48873     48872     48876
     48874     48872     48875     48874     48872     48876     48875     48872     48876
     48875     48877     48878     48875     48877     48879     48875     48877     48880
     48877     48880     48881     48877     48880     48882     48877     48880     48888
     48878     48877     48879     48878     48877     48880     48879     48877     48880
     48880     48882     48883     48880     48888     48889     48880     48888     48890
     48880     48888     48891     48881     48880     48882     48881     48880     48888
     48882     48880     48888     48882     48883     48884     48882     48883     48885
     48883     48885     48886     48883     48885     48887     48883     48885     48897
     48884     48883     48885     48885     48897     48898     48885     48897     48899
     48885     48897     48900     48886     48885     48887     48886     48885     48897
     48887     48885     48897     48888     48891     48892     48889     48888     48890
     48889     48888     48891     48890     48888     48891     48891     48892     48893
     48891     48892     48894     48892     48894     48895     48892     48894     48896
     48892     48894     48938     48893     48892     48894     48894     48938     48939
     48894     48938     48940     48894     48938     48941     48895     48894     48896
     48895     48894     48938     48896     48894     48938     48897     48900     48901
     48897     48900     48902     48897     48900     48903     48898     48897     48899
     48898     48897     48900     48899     48897     48900     48900     48903     48904
     48900     48903     48905     48900     48903     48906     48901     48900     48902
     48901     48900     48903     48902     48900     48903     48903     48906     48907
     48903     48906     48908     48903     48906     48909     48904     48903     48905
     48904     48903     48906     48905     48903     48906     48906     48909     48910
     48906     48909     48911     48906     48909     48912     48907     48906     48908
     48907     48906     48909     48908     48906     48909     48909     48912     48913
     48909     48912     48914     48909     48912     48915     48910     48909     48911
     48910     48909     48912     48911     48909     48912     48912     48915     48916
     48912     48915     48917     48913     48912     48914     48913     48912     48915
     48914     48912     48915     48915     48917     48918     48915     48917     48919
     48916     48915     48917     48917     48919     48920     48917     48919     48921
     48917     48919     48922     48918     48917     48919     48919     48922     48923
     48919     48922     48924     48919     48922     48925     48920     48919     48921
     48920     48919     48922     48921     48919     48922     48922     48925     48926
     48922     48925     48927     48922     48925     48928     48923     48922     48924
     48923     48922     48925     48924     48922     48925     48925     48928     48929
     48925     48928     48930     48925     48928     48931     48926     48925     48927
     48926     48925     48928     48927     48925     48928     48928     48931     48932
     48928     48931     48933     48928     48931     48934     48929     48928     48930
     48929     48928     48931     48930     48928     48931     48931     48934     48935
     48931     48934     48936     48931     48934     48937     48932     48931     48933
     48932     48931     48934     48933     48931     48934     48935     48934     48936
     48935     48934     48937     48936     48934     48937     48938     48941     48942
     48938     48941     48943     48938     48941     48944     48939     48938     48940
     48939     48938     48941     48940     48938     48941     48941     48944     48945
     48941     48944     48946     48941     48944     48947     48942     48941     48943
     48942     48941     48944     48943     48941     48944     48944     48947     48948
     48944     48947     48949     48944     48947     48950     48945     48944     48946
     48945     48944     48947     48946     48944     48947     48947     48950     48951
     48947     48950     48952     48947     48950     48953     48948     48947     48949
     48948     48947     48950     48949     48947     48950     48950     48953     48954
     48950     48953     48955     48950     48953     48956     48951     48950     48952
     48951     48950     48953     48952     48950     48953     48953     48956     48957
     48953     48956     48958     48953     48956     48959     48954     48953     48955
     48954     48953     48956     48955     48953     48956     48956     48959     48960
     48956     48959     48961     48956     48959     48962     48957     48956     48958
     48957     48956     48959     48958     48956     48959     48959     48962     48963
     48959     48962     48964     48959     48962     48965     48960     48959     48961
     48960     48959     48962     48961     48959     48962     48962     48965     48966
     48962     48965     48967     48962     48965     48968     48963     48962     48964
     48963     48962     48965     48964     48962     48965     48965     48968     48969
     48965     48968     48970     48965     48968     48971     48966     48965     48967
     48966     48965     48968     48967     48965     48968     48968     48971     48972
     48968     48971     48973     48968     48971     48974     48969     48968     48970
     48969     48968     48971     48970     48968     48971     48971     48974     48975
     48971     48974     48976     48971     48974     48977     48972     48971     48973
     48972     48971     48974     48973     48971     48974     48974     48977     48978
     48974     48977     48979     48974     48977     48980     48975     48974     48976
     48975     48974     48977     48976     48974     48977     48978     48977     48979
     48978     48977     48980     48979     48977     48980     48981     48985     48986
     48981     48985     48987     48981     48985     48988     48982     48981     48983
     48982     48981     48984     48982     48981     48985     48983     48981     48984
     48983     48981     48985     48984     48981     48985     48985     48988     48989
     48985     48988     48990     48985     48988     48995     48986     48985     48987
     48986     48985     48988     48987     48985     48988     48988     48995     48991
     48989     48988     48990     48989     48988     48995     48990     48988     48995
     48991     48994     48996     48992     48991     48993     48992     48991     48994
     48992     48991     48995     48993     48991     48994     48993     48991     48995
     48994     48991     48995     48994     48996     48997     48994     48996     48998
     48994     48996     48999     48996     48999     49000     48996     48999     49001
     48996     48999     49007     48997     48996     48998     48997     48996     48999
     48998     48996     48999     48999     49001     49002     48999     49007     49008
     48999     49007     49009     48999     49007     49010     49000     48999     49001
     49000     48999     49007     49001     48999     49007     49001     49002     49003
     49001     49002     49004     49002     49004     49005     49002     49004     49006
     49002     49004     49016     49003     49002     49004     49004     49016     49017
     49004     49016     49018     49004     49016     49019     49005     49004     49006
     49005     49004     49016     49006     49004     49016     49007     49010     49011
     49008     49007     49009     49008     49007     49010     49009     49007     49010
     49010     49011     49012     49010     49011     49013     49011     49013     49014
     49011     49013     49015     49011     49013     49057     49012     49011     49013
     49013     49057     49058     49013     49057     49059     49013     49057     49060
     49014     49013     49015     49014     49013     49057     49015     49013     49057
     49016     49019     49020     49016     49019     49021     49016     49019     49022
     49017     49016     49018     49017     49016     49019     49018     49016     49019
     49019     49022     49023     49019     49022     49024     49019     49022     49025
     49020     49019     49021     49020     49019     49022     49021     49019     49022
     49022     49025     49026     49022     49025     49027     49022     49025     49028
     49023     49022     49024     49023     49022     49025     49024     49022     49025
     49025     49028     49029     49025     49028     49030     49025     49028     49031
     49026     49025     49027     49026     49025     49028     49027     49025     49028
     49028     49031     49032     49028     49031     49033     49028     49031     49034
     49029     49028     49030     49029     49028     49031     49030     49028     49031
     49031     49034     49035     49031     49034     49036     49032     49031     49033
     49032     49031     49034     49033     49031     49034     49034     49036     49037
     49034     49036     49038     49035     49034     49036     49036     49038     49039
     49036     49038     49040     49036     49038     49041     49037     49036     49038
     49038     49041     49042     49038     49041     49043     49038     49041     49044
     49039     49038     49040     49039     49038     49041     49040     49038     49041
     49041     49044     49045     49041     49044     49046     49041     49044     49047
     49042     49041     49043     49042     49041     49044     49043     49041     49044
     49044     49047     49048     49044     49047     49049     49044     49047     49050
     49045     49044     49046     49045     49044     49047     49046     49044     49047
     49047     49050     49051     49047     49050     49052     49047     49050     49053
     49048     49047     49049     49048     49047     49050     49049     49047     49050
     49050     49053     49054     49050     49053     49055     49050     49053     49056
     49051     49050     49052     49051     49050     49053     49052     49050     49053
     49054     49053     49055     49054     49053     49056     49055     49053     49056
     49057     49060     49061     49057     49060     49062     49057     49060     49063
     49058     49057     49059     49058     49057     49060     49059     49057     49060
     49060     49063     49064     49060     49063     49065     49060     49063     49066
     49061     49060     49062     49061     49060     49063     49062     49060     49063
     49063     49066     49067     49063     49066     49068     49063     49066     49069
     49064     49063     49065     49064     49063     49066     49065     49063     49066
     49066     49069     49070     49066     49069     49071     49066     49069     49072
     49067     49066     49068     49067     49066     49069     49068     49066     49069
     49069     49072     49073     49069     49072     49074     49069     49072     49075
     49070     49069     49071     49070     49069     49072     49071     49069     49072
     49072     49075     49076     49072     49075     49077     49072     49075     49078
     49073     49072     49074     49073     49072     49075     49074     49072     49075
     49075     49078     49079     49075     49078     49080     49075     49078     49081
     49076     49075     49077     49076     49075     49078     49077     49075     49078
     49078     49081     49082     49078     49081     49083     49078     49081     49084
     49079     49078     49080     49079     49078     49081     49080     49078     49081
     49081     49084     49085     49081     49084     49086     49081     49084     49087
     49082     49081     49083     49082     49081     49084     49083     49081     49084
     49084     49087     49088     49084     49087     49089     49084     49087     49090
     49085     49084     49086     49085     49084     49087     49086     49084     49087
     49087     49090     49091     49087     49090     49092     49087     49090     49093
     49088     49087     49089     49088     49087     49090     49089     49087     49090
     49090     49093     49094     49090     49093     49095     49090     49093     49096
     49091     49090     49092     49091     49090     49093     49092     49090     49093
     49093     49096     49097     49093     49096     49098     49093     49096     49099
     49094     49093     49095     49094     49093     49096     49095     49093     49096
     49097     49096     49098     49097     49096     49099     49098     49096     49099
     49100     49104     49105     49100     49104     49106     49100     49104     49107
     49101     49100     49102     49101     49100     49103     49101     49100     49104
     49102     49100     49103     49102     49100     49104     49103     49100     49104
     49104     49107     49108     49104     49107     49109     49104     49107     49114
     49105     49104     49106     49105     49104     49107     49106     49104     49107
     49107     49114     49110     49108     49107     49109     49108     49107     49114
     49109     49107     49114     49110     49113     49115     49111     49110     49112
     49111     49110     49113     49111     49110     49114     49112     49110     49113
     49112     49110     49114     49113     49110     49114     49113     49115     49116
     49113     49115     49117     49113     49115     49118     49115     49118     49119
     49115     49118     49120     49115     49118     49126     49116     49115     49117
     49116     49115     49118     49117     49115     49118     49118     49120     49121
     49118     49126     49127     49118     49126     49128     49118     49126     49129
     49119     49118     49120     49119     49118     49126     49120     49118     49126
     49120     49121     49122     49120     49121     49123     49121     49123     49124
     49121     49123     49125     49121     49123     49135     49122     49121     49123
     49123     49135     49136     49123     49135     49137     49123     49135     49138
     49124     49123     49125     49124     49123     49135     49125     49123     49135
     49126     49129     49130     49127     49126     49128     49127     49126     49129
     49128     49126     49129     49129     49130     49131     49129     49130     49132
     49130     49132     49133     49130     49132     49134     49130     49132     49176
     49131     49130     49132     49132     49176     49177     49132     49176     49178
     49132     49176     49179     49133     49132     49134     49133     49132     49176
     49134     49132     49176     49135     49138     49139     49135     49138     49140
     49135     49138     49141     49136     49135     49137     49136     49135     49138
     49137     49135     49138     49138     49141     49142     49138     49141     49143
     49138     49141     49144     49139     49138     49140     49139     49138     49141
     49140     49138     49141     49141     49144     49145     49141     49144     49146
     49141     49144     49147     49142     49141     49143     49142     49141     49144
     49143     49141     49144     49144     49147     49148     49144     49147     49149
     49144     49147     49150     49145     49144     49146     49145     49144     49147
     49146     49144     49147     49147     49150     49151     49147     49150     49152
     49147     49150     49153     49148     49147     49149     49148     49147     49150
     49149     49147     49150     49150     49153     49154     49150     49153     49155
     49151     49150     49152     49151     49150     49153     49152     49150     49153
     49153     49155     49156     49153     49155     49157     49154     49153     49155
     49155     49157     49158     49155     49157     49159     49155     49157     49160
     49156     49155     49157     49157     49160     49161     49157     49160     49162
     49157     49160     49163     49158     49157     49159     49158     49157     49160
     49159     49157     49160     49160     49163     49164     49160     49163     49165
     49160     49163     49166     49161     49160     49162     49161     49160     49163
     49162     49160     49163     49163     49166     49167     49163     49166     49168
     49163     49166     49169     49164     49163     49165     49164     49163     49166
     49165     49163     49166     49166     49169     49170     49166     49169     49171
     49166     49169     49172     49167     49166     49168     49167     49166     49169
     49168     49166     49169     49169     49172     49173     49169     49172     49174
     49169     49172     49175     49170     49169     49171     49170     49169     49172
     49171     49169     49172     49173     49172     49174     49173     49172     49175
     49174     49172     49175     49176     49179     49180     49176     49179     49181
     49176     49179     49182     49177     49176     49178     49177     49176     49179
     49178     49176     49179     49179     49182     49183     49179     49182     49184
     49179     49182     49185     49180     49179     49181     49180     49179     49182
     49181     49179     49182     49182     49185     49186     49182     49185     49187
     49182     49185     49188     49183     49182     49184     49183     49182     49185
     49184     49182     49185     49185     49188     49189     49185     49188     49190
     49185     49188     49191     49186     49185     49187     49186     49185     49188
     49187     49185     49188     49188     49191     49192     49188     49191     49193
     49188     49191     49194     49189     49188     49190     49189     49188     49191
     49190     49188     49191     49191     49194     49195     49191     49194     49196
     49191     49194     49197     49192     49191     49193     49192     49191     49194
     49193     49191     49194     49194     49197     49198     49194     49197     49199
     49194     49197     49200     49195     49194     49196     49195     49194     49197
     49196     49194     49197     49197     49200     49201     49197     49200     49202
     49197     49200     49203     49198     49197     49199     49198     49197     49200
     49199     49197     49200     49200     49203     49204     49200     49203     49205
     49200     49203     49206     49201     49200     49202     49201     49200     49203
     49202     49200     49203     49203     49206     49207     49203     49206     49208
     49203     49206     49209     49204     49203     49205     49204     49203     49206
     49205     49203     49206     49206     49209     49210     49206     49209     49211
     49206     49209     49212     49207     49206     49208     49207     49206     49209
     49208     49206     49209     49209     49212     49213     49209     49212     49214
     49209     49212     49215     49210     49209     49211     49210     49209     49212
     49211     49209     49212     49212     49215     49216     49212     49215     49217
     49212     49215     49218     49213     49212     49214     49213     49212     49215
     49214     49212     49215     49216     49215     49217     49216     49215     49218
     49217     49215     49218     49219     49223     49224     49219     49223     49225
     49219     49223     49226     49220     49219     49221     49220     49219     49222
     49220     49219     49223     49221     49219     49222     49221     49219     49223
     49222     49219     49223     49223     49226     49227     49223     49226     49228
     49223     49226     49233     49224     49223     49225     49224     49223     49226
     49225     49223     49226     49226     49233     49229     49227     49226     49228
     49227     49226     49233     49228     49226     49233     49229     49232     49234
     49230     49229     49231     49230     49229     49232     49230     49229     49233
     49231     49229     49232     49231     49229     49233     49232     49229     49233
     49232     49234     49235     49232     49234     49236     49232     49234     49237
     49234     49237     49238     49234     49237     49239     49234     49237     49245
     49235     49234     49236     49235     49234     49237     49236     49234     49237
     49237     49239     49240     49237     49245     49246     49237     49245     49247
     49237     49245     49248     49238     49237     49239     49238     49237     49245
     49239     49237     49245     49239     49240     49241     49239     49240     49242
     49240     49242     49243     49240     49242     49244     49240     49242     49254
     49241     49240     49242     49242     49254     49255     49242     49254     49256
     49242     49254     49257     49243     49242     49244     49243     49242     49254
     49244     49242     49254     49245     49248     49249     49246     49245     49247
     49246     49245     49248     49247     49245     49248     49248     49249     49250
     49248     49249     49251     49249     49251     49252     49249     49251     49253
     49249     49251     49295     49250     49249     49251     49251     49295     49296
     49251     49295     49297     49251     49295     49298     49252     49251     49253
     49252     49251     49295     49253     49251     49295     49254     49257     49258
     49254     49257     49259     49254     49257     49260     49255     49254     49256
     49255     49254     49257     49256     49254     49257     49257     49260     49261
     49257     49260     49262     49257     49260     49263     49258     49257     49259
     49258     49257     49260     49259     49257     49260     49260     49263     49264
     49260     49263     49265     49260     49263     49266     49261     49260     49262
     49261     49260     49263     49262     49260     49263     49263     49266     49267
     49263     49266     49268     49263     49266     49269     49264     49263     49265
     49264     49263     49266     49265     49263     49266     49266     49269     49270
     49266     49269     49271     49266     49269     49272     49267     49266     49268
     49267     49266     49269     49268     49266     49269     49269     49272     49273
     49269     49272     49274     49270     49269     49271     49270     49269     49272
     49271     49269     49272     49272     49274     49275     49272     49274     49276
     49273     49272     49274     49274     49276     49277     49274     49276     49278
     49274     49276     49279     49275     49274     49276     49276     49279     49280
     49276     49279     49281     49276     49279     49282     49277     49276     49278
     49277     49276     49279     49278     49276     49279     49279     49282     49283
     49279     49282     49284     49279     49282     49285     49280     49279     49281
     49280     49279     49282     49281     49279     49282     49282     49285     49286
     49282     49285     49287     49282     49285     49288     49283     49282     49284
     49283     49282     49285     49284     49282     49285     49285     49288     49289
     49285     49288     49290     49285     49288     49291     49286     49285     49287
     49286     49285     49288     49287     49285     49288     49288     49291     49292
     49288     49291     49293     49288     49291     49294     49289     49288     49290
     49289     49288     49291     49290     49288     49291     49292     49291     49293
     49292     49291     49294     49293     49291     49294     49295     49298     49299
     49295     49298     49300     49295     49298     49301     49296     49295     49297
     49296     49295     49298     49297     49295     49298     49298     49301     49302
     49298     49301     49303     49298     49301     49304     49299     49298     49300
     49299     49298     49301     49300     49298     49301     49301     49304     49305
     49301     49304     49306     49301     49304     49307     49302     49301     49303
     49302     49301     49304     49303     49301     49304     49304     49307     49308
     49304     49307     49309     49304     49307     49310     49305     49304     49306
     49305     49304     49307     49306     49304     49307     49307     49310     49311
     49307     49310     49312     49307     49310     49313     49308     49307     49309
     49308     49307     49310     49309     49307     49310     49310     49313     49314
     49310     49313     49315     49310     49313     49316     49311     49310     49312
     49311     49310     49313     49312     49310     49313     49313     49316     49317
     49313     49316     49318     49313     49316     49319     49314     49313     49315
     49314     49313     49316     49315     49313     49316     49316     49319     49320
     49316     49319     49321     49316     49319     49322     49317     49316     49318
     49317     49316     49319     49318     49316     49319     49319     49322     49323
     49319     49322     49324     49319     49322     49325     49320     49319     49321
     49320     49319     49322     49321     49319     49322     49322     49325     49326
     49322     49325     49327     49322     49325     49328     49323     49322     49324
     49323     49322     49325     49324     49322     49325     49325     49328     49329
     49325     49328     49330     49325     49328     49331     49326     49325     49327
     49326     49325     49328     49327     49325     49328     49328     49331     49332
     49328     49331     49333     49328     49331     49334     49329     49328     49330
     49329     49328     49331     49330     49328     49331     49331     49334     49335
     49331     49334     49336     49331     49334     49337     49332     49331     49333
     49332     49331     49334     49333     49331     49334     49335     49334     49336
     49335     49334     49337     49336     49334     49337     49338     49341     49342
     49338     49343     49344     49338     49343     49345     49338     49343     49347
     49339     49338     49340     49339     49338     49341     49339     49338     49343
     49340     49338     49341     49340     49338     49343     49341     49338     49343
     49343     49345     49346     49343     49347     49348     49343     49347     49349
     49343     49347     49353     49344     49343     49345     49344     49343     49347
     49345     49343     49347     49347     49353     49350     49348     49347     49349
     49348     49347     49353     49349     49347     49353     49350     49354     49355
     49351     49350     49352     49351     49350     49353     49351     49350     49354
     49352     49350     49353     49352     49350     49354     49353     49350     49354
     49354     49355     49356     49354     49355     49357     49354     49355     49358
     49355     49358     49359     49355     49358     49360     49355     49358     49366
     49356     49355     49357     49356     49355     49358     49357     49355     49358
     49358     49360     49361     49358     49366     49367     49358     49366     49368
     49358     49366     49369     49359     49358     49360     49359     49358     49366
     49360     49358     49366     49360     49361     49362     49360     49361     49363
     49361     49363     49364     49361     49363     49365     49361     49363     49375
     49362     49361     49363     49363     49375     49376     49363     49375     49377
     49363     49375     49378     49364     49363     49365     49364     49363     49375
     49365     49363     49375     49366     49369     49370     49367     49366     49368
     49367     49366     49369     49368     49366     49369     49369     49370     49371
     49369     49370     49372     49370     49372     49373     49370     49372     49374
     49370     49372     49422     49371     49370     49372     49372     49422     49423
     49372     49422     49424     49372     49422     49425     49373     49372     49374
     49373     49372     49422     49374     49372     49422     49375     49378     49379
     49375     49378     49380     49375     49378     49381     49376     49375     49377
     49376     49375     49378     49377     49375     49378     49378     49381     49382
     49378     49381     49383     49378     49381     49384     49379     49378     49380
     49379     49378     49381     49380     49378     49381     49381     49384     49385
     49381     49384     49386     49381     49384     49387     49382     49381     49383
     49382     49381     49384     49383     49381     49384     49384     49387     49388
     49384     49387     49389     49384     49387     49390     49385     49384     49386
     49385     49384     49387     49386     49384     49387     49387     49390     49391
     49387     49390     49392     49387     49390     49393     49388     49387     49389
     49388     49387     49390     49389     49387     49390     49390     49393     49394
     49390     49393     49395     49390     49393     49396     49391     49390     49392
     49391     49390     49393     49392     49390     49393     49393     49396     49397
     49393     49396     49398     49393     49396     49399     49394     49393     49395
     49394     49393     49396     49395     49393     49396     49396     49399     49400
     49396     49399     49401     49397     49396     49398     49397     49396     49399
     49398     49396     49399     49399     49401     49402     49399     49401     49403
     49400     49399     49401     49401     49403     49404     49401     49403     49405
     49401     49403     49406     49402     49401     49403     49403     49406     49407
     49403     49406     49408     49403     49406     49409     49404     49403     49405
     49404     49403     49406     49405     49403     49406     49406     49409     49410
     49406     49409     49411     49406     49409     49412     49407     49406     49408
     49407     49406     49409     49408     49406     49409     49409     49412     49413
     49409     49412     49414     49409     49412     49415     49410     49409     49411
     49410     49409     49412     49411     49409     49412     49412     49415     49416
     49412     49415     49417     49412     49415     49418     49413     49412     49414
     49413     49412     49415     49414     49412     49415     49415     49418     49419
     49415     49418     49420     49415     49418     49421     49416     49415     49417
     49416     49415     49418     49417     49415     49418     49419     49418     49420
     49419     49418     49421     49420     49418     49421     49422     49425     49426
     49422     49425     49427     49422     49425     49428     49423     49422     49424
     49423     49422     49425     49424     49422     49425     49425     49428     49429
     49425     49428     49430     49425     49428     49431     49426     49425     49427
     49426     49425     49428     49427     49425     49428     49428     49431     49432
     49428     49431     49433     49428     49431     49434     49429     49428     49430
     49429     49428     49431     49430     49428     49431     49431     49434     49435
     49431     49434     49436     49431     49434     49437     49432     49431     49433
     49432     49431     49434     49433     49431     49434     49434     49437     49438
     49434     49437     49439     49434     49437     49440     49435     49434     49436
     49435     49434     49437     49436     49434     49437     49437     49440     49441
     49437     49440     49442     49437     49440     49443     49438     49437     49439
     49438     49437     49440     49439     49437     49440     49440     49443     49444
     49440     49443     49445     49440     49443     49446     49441     49440     49442
     49441     49440     49443     49442     49440     49443     49443     49446     49447
     49443     49446     49448     49443     49446     49449     49444     49443     49445
     49444     49443     49446     49445     49443     49446     49446     49449     49450
     49446     49449     49451     49446     49449     49452     49447     49446     49448
     49447     49446     49449     49448     49446     49449     49449     49452     49453
     49449     49452     49454     49449     49452     49455     49450     49449     49451
     49450     49449     49452     49451     49449     49452     49452     49455     49456
     49452     49455     49457     49452     49455     49458     49453     49452     49454
     49453     49452     49455     49454     49452     49455     49455     49458     49459
     49455     49458     49460     49455     49458     49461     49456     49455     49457
     49456     49455     49458     49457     49455     49458     49458     49461     49462
     49458     49461     49463     49458     49461     49464     49459     49458     49460
     49459     49458     49461     49460     49458     49461     49462     49461     49463
     49462     49461     49464     49463     49461     49464     49465     49469     49470
     49465     49469     49471     49465     49469     49472     49466     49465     49467
     49466     49465     49468     49466     49465     49469     49467     49465     49468
     49467     49465     49469     49468     49465     49469     49469     49472     49473
     49469     49472     49474     49469     49472     49479     49470     49469     49471
     49470     49469     49472     49471     49469     49472     49472     49479     49475
     49473     49472     49474     49473     49472     49479     49474     49472     49479
     49475     49478     49480     49476     49475     49477     49476     49475     49478
     49476     49475     49479     49477     49475     49478     49477     49475     49479
     49478     49475     49479     49478     49480     49481     49478     49480     49482
     49478     49480     49483     49480     49483     49484     49480     49483     49485
     49480     49483     49491     49481     49480     49482     49481     49480     49483
     49482     49480     49483     49483     49485     49486     49483     49491     49492
     49483     49491     49493     49483     49491     49494     49484     49483     49485
     49484     49483     49491     49485     49483     49491     49485     49486     49487
     49485     49486     49488     49486     49488     49489     49486     49488     49490
     49486     49488     49500     49487     49486     49488     49488     49500     49501
     49488     49500     49502     49488     49500     49503     49489     49488     49490
     49489     49488     49500     49490     49488     49500     49491     49494     49495
     49492     49491     49493     49492     49491     49494     49493     49491     49494
     49494     49495     49496     49494     49495     49497     49495     49497     49498
     49495     49497     49499     49495     49497     49541     49496     49495     49497
     49497     49541     49542     49497     49541     49543     49497     49541     49544
     49498     49497     49499     49498     49497     49541     49499     49497     49541
     49500     49503     49504     49500     49503     49505     49500     49503     49506
     49501     49500     49502     49501     49500     49503     49502     49500     49503
     49503     49506     49507     49503     49506     49508     49503     49506     49509
     49504     49503     49505     49504     49503     49506     49505     49503     49506
     49506     49509     49510     49506     49509     49511     49506     49509     49512
     49507     49506     49508     49507     49506     49509     49508     49506     49509
     49509     49512     49513     49509     49512     49514     49509     49512     49515
     49510     49509     49511     49510     49509     49512     49511     49509     49512
     49512     49515     49516     49512     49515     49517     49512     49515     49518
     49513     49512     49514     49513     49512     49515     49514     49512     49515
     49515     49518     49519     49515     49518     49520     49516     49515     49517
     49516     49515     49518     49517     49515     49518     49518     49520     49521
     49518     49520     49522     49519     49518     49520     49520     49522     49523
     49520     49522     49524     49520     49522     49525     49521     49520     49522
     49522     49525     49526     49522     49525     49527     49522     49525     49528
     49523     49522     49524     49523     49522     49525     49524     49522     49525
     49525     49528     49529     49525     49528     49530     49525     49528     49531
     49526     49525     49527     49526     49525     49528     49527     49525     49528
     49528     49531     49532     49528     49531     49533     49528     49531     49534
     49529     49528     49530     49529     49528     49531     49530     49528     49531
     49531     49534     49535     49531     49534     49536     49531     49534     49537
     49532     49531     49533     49532     49531     49534     49533     49531     49534
     49534     49537     49538     49534     49537     49539     49534     49537     49540
     49535     49534     49536     49535     49534     49537     49536     49534     49537
     49538     49537     49539     49538     49537     49540     49539     49537     49540
     49541     49544     49545     49541     49544     49546     49541     49544     49547
     49542     49541     49543     49542     49541     49544     49543     49541     49544
     49544     49547     49548     49544     49547     49549     49544     49547     49550
     49545     49544     49546     49545     49544     49547     49546     49544     49547
     49547     49550     49551     49547     49550     49552     49547     49550     49553
     49548     49547     49549     49548     49547     49550     49549     49547     49550
     49550     49553     49554     49550     49553     49555     49550     49553     49556
     49551     49550     49552     49551     49550     49553     49552     49550     49553
     49553     49556     49557     49553     49556     49558     49553     49556     49559
     49554     49553     49555     49554     49553     49556     49555     49553     49556
     49556     49559     49560     49556     49559     49561     49556     49559     49562
     49557     49556     49558     49557     49556     49559     49558     49556     49559
     49559     49562     49563     49559     49562     49564     49559     49562     49565
     49560     49559     49561     49560     49559     49562     49561     49559     49562
     49562     49565     49566     49562     49565     49567     49562     49565     49568
     49563     49562     49564     49563     49562     49565     49564     49562     49565
     49565     49568     49569     49565     49568     49570     49565     49568     49571
     49566     49565     49567     49566     49565     49568     49567     49565     49568
     49568     49571     49572     49568     49571     49573     49568     49571     49574
     49569     49568     49570     49569     49568     49571     49570     49568     49571
     49571     49574     49575     49571     49574     49576     49571     49574     49577
     49572     49571     49573     49572     49571     49574     49573     49571     49574
     49574     49577     49578     49574     49577     49579     49574     49577     49580
     49575     49574     49576     49575     49574     49577     49576     49574     49577
     49577     49580     49581     49577     49580     49582     49577     49580     49583
     49578     49577     49579     49578     49577     49580     49579     49577     49580
     49581     49580     49582     49581     49580     49583     49582     49580     49583
     49584     49588     49589     49584     49588     49590     49584     49588     49591
     49585     49584     49586     49585     49584     49587     49585     49584     49588
     49586     49584     49587     49586     49584     49588     49587     49584     49588
     49588     49591     49592     49588     49591     49593     49588     49591     49598
     49589     49588     49590     49589     49588     49591     49590     49588     49591
     49591     49598     49594     49592     49591     49593     49592     49591     49598
     49593     49591     49598     49594     49597     49599     49595     49594     49596
     49595     49594     49597     49595     49594     49598     49596     49594     49597
     49596     49594     49598     49597     49594     49598     49597     49599     49600
     49597     49599     49601     49597     49599     49602     49599     49602     49603
     49599     49602     49604     49599     49602     49610     49600     49599     49601
     49600     49599     49602     49601     49599     49602     49602     49604     49605
     49602     49610     49611     49602     49610     49612     49602     49610     49613
     49603     49602     49604     49603     49602     49610     49604     49602     49610
     49604     49605     49606     49604     49605     49607     49605     49607     49608
     49605     49607     49609     49605     49607     49619     49606     49605     49607
     49607     49619     49620     49607     49619     49621     49607     49619     49622
     49608     49607     49609     49608     49607     49619     49609     49607     49619
     49610     49613     49614     49611     49610     49612     49611     49610     49613
     49612     49610     49613     49613     49614     49615     49613     49614     49616
     49614     49616     49617     49614     49616     49618     49614     49616     49660
     49615     49614     49616     49616     49660     49661     49616     49660     49662
     49616     49660     49663     49617     49616     49618     49617     49616     49660
     49618     49616     49660     49619     49622     49623     49619     49622     49624
     49619     49622     49625     49620     49619     49621     49620     49619     49622
     49621     49619     49622     49622     49625     49626     49622     49625     49627
     49622     49625     49628     49623     49622     49624     49623     49622     49625
     49624     49622     49625     49625     49628     49629     49625     49628     49630
     49625     49628     49631     49626     49625     49627     49626     49625     49628
     49627     49625     49628     49628     49631     49632     49628     49631     49633
     49628     49631     49634     49629     49628     49630     49629     49628     49631
     49630     49628     49631     49631     49634     49635     49631     49634     49636
     49631     49634     49637     49632     49631     49633     49632     49631     49634
     49633     49631     49634     49634     49637     49638     49634     49637     49639
     49635     49634     49636     49635     49634     49637     49636     49634     49637
     49637     49639     49640     49637     49639     49641     49638     49637     49639
     49639     49641     49642     49639     49641     49643     49639     49641     49644
     49640     49639     49641     49641     49644     49645     49641     49644     49646
     49641     49644     49647     49642     49641     49643     49642     49641     49644
     49643     49641     49644     49644     49647     49648     49644     49647     49649
     49644     49647     49650     49645     49644     49646     49645     49644     49647
     49646     49644     49647     49647     49650     49651     49647     49650     49652
     49647     49650     49653     49648     49647     49649     49648     49647     49650
     49649     49647     49650     49650     49653     49654     49650     49653     49655
     49650     49653     49656     49651     49650     49652     49651     49650     49653
     49652     49650     49653     49653     49656     49657     49653     49656     49658
     49653     49656     49659     49654     49653     49655     49654     49653     49656
     49655     49653     49656     49657     49656     49658     49657     49656     49659
     49658     49656     49659     49660     49663     49664     49660     49663     49665
     49660     49663     49666     49661     49660     49662     49661     49660     49663
     49662     49660     49663     49663     49666     49667     49663     49666     49668
     49663     49666     49669     49664     49663     49665     49664     49663     49666
     49665     49663     49666     49666     49669     49670     49666     49669     49671
     49666     49669     49672     49667     49666     49668     49667     49666     49669
     49668     49666     49669     49669     49672     49673     49669     49672     49674
     49669     49672     49675     49670     49669     49671     49670     49669     49672
     49671     49669     49672     49672     49675     49676     49672     49675     49677
     49672     49675     49678     49673     49672     49674     49673     49672     49675
     49674     49672     49675     49675     49678     49679     49675     49678     49680
     49675     49678     49681     49676     49675     49677     49676     49675     49678
     49677     49675     49678     49678     49681     49682     49678     49681     49683
     49678     49681     49684     49679     49678     49680     49679     49678     49681
     49680     49678     49681     49681     49684     49685     49681     49684     49686
     49681     49684     49687     49682     49681     49683     49682     49681     49684
     49683     49681     49684     49684     49687     49688     49684     49687     49689
     49684     49687     49690     49685     49684     49686     49685     49684     49687
     49686     49684     49687     49687     49690     49691     49687     49690     49692
     49687     49690     49693     49688     49687     49689     49688     49687     49690
     49689     49687     49690     49690     49693     49694     49690     49693     49695
     49690     49693     49696     49691     49690     49692     49691     49690     49693
     49692     49690     49693     49693     49696     49697     49693     49696     49698
     49693     49696     49699     49694     49693     49695     49694     49693     49696
     49695     49693     49696     49696     49699     49700     49696     49699     49701
     49696     49699     49702     49697     49696     49698     49697     49696     49699
     49698     49696     49699     49700     49699     49701     49700     49699     49702
     49701     49699     49702     49703     49709     49706     49703     49714     49715
     49703     49714     49716     49703     49714     49718     49704     49703     49705
     49704     49703     49709     49704     49703     49714     49705     49703     49709
     49705     49703     49714     49706     49710     49711     49707     49706     49708
     49707     49706     49709     49707     49706     49710     49708     49706     49709
     49708     49706     49710     49709     49703     49714     49709     49706     49710
     49710     49711     49712     49710     49711     49713     49710     49711     49746
     49711     49746     49747     49711     49746     49748     49711     49746     49754
     49712     49711     49713     49712     49711     49746     49713     49711     49746
     49714     49716     49717     49714     49718     49719     49714     49718     49720
     49714     49718     49724     49715     49714     49716     49715     49714     49718
     49716     49714     49718     49718     49724     49721     49719     49718     49720
     49719     49718     49724     49720     49718     49724     49721     49725     49726
     49722     49721     49723     49722     49721     49724     49722     49721     49725
     49723     49721     49724     49723     49721     49725     49724     49721     49725
     49725     49726     49727     49725     49726     49728     49725     49726     49729
     49726     49729     49730     49726     49729     49731     49726     49729     49737
     49727     49726     49728     49727     49726     49729     49728     49726     49729
     49729     49731     49732     49729     49737     49738     49729     49737     49739
     49729     49737     49740     49730     49729     49731     49730     49729     49737
     49731     49729     49737     49731     49732     49733     49731     49732     49734
     49732     49734     49735     49732     49734     49736     49732     49734     49763
     49733     49732     49734     49734     49763     49764     49734     49763     49765
     49734     49763     49766     49735     49734     49736     49735     49734     49763
     49736     49734     49763     49737     49740     49741     49738     49737     49739
     49738     49737     49740     49739     49737     49740     49740     49741     49742
     49740     49741     49743     49741     49743     49744     49741     49743     49745
     49741     49743     49810     49742     49741     49743     49743     49810     49811
     49743     49810     49812     49743     49810     49813     49744     49743     49745
     49744     49743     49810     49745     49743     49810     49746     49748     49749
     49746     49754     49755     49746     49754     49756     49746     49754     49757
     49747     49746     49748     49747     49746     49754     49748     49746     49754
     49748     49749     49750     49748     49749     49751     49749     49751     49752
     49749     49751     49753     49749     49751     49853     49750     49749     49751
     49751     49853     49854     49751     49853     49855     49751     49853     49856
     49752     49751     49753     49752     49751     49853     49753     49751     49853
     49754     49757     49758     49755     49754     49756     49755     49754     49757
     49756     49754     49757     49757     49758     49759     49757     49758     49760
     49758     49760     49761     49758     49760     49762     49758     49760     49900
     49759     49758     49760     49760     49900     49901     49760     49900     49902
     49760     49900     49903     49761     49760     49762     49761     49760     49900
     49762     49760     49900     49763     49766     49767     49763     49766     49768
     49763     49766     49769     49764     49763     49765     49764     49763     49766
     49765     49763     49766     49766     49769     49770     49766     49769     49771
     49766     49769     49772     49767     49766     49768     49767     49766     49769
     49768     49766     49769     49769     49772     49773     49769     49772     49774
     49769     49772     49775     49770     49769     49771     49770     49769     49772
     49771     49769     49772     49772     49775     49776     49772     49775     49777
     49772     49775     49778     49773     49772     49774     49773     49772     49775
     49774     49772     49775     49775     49778     49779     49775     49778     49780
     49775     49778     49781     49776     49775     49777     49776     49775     49778
     49777     49775     49778     49778     49781     49782     49778     49781     49783
     49778     49781     49784     49779     49778     49780     49779     49778     49781
     49780     49778     49781     49781     49784     49785     49781     49784     49786
     49781     49784     49787     49782     49781     49783     49782     49781     49784
     49783     49781     49784     49784     49787     49788     49784     49787     49789
     49785     49784     49786     49785     49784     49787     49786     49784     49787
     49787     49789     49790     49787     49789     49791     49788     49787     49789
     49789     49791     49792     49789     49791     49793     49789     49791     49794
     49790     49789     49791     49791     49794     49795     49791     49794     49796
     49791     49794     49797     49792     49791     49793     49792     49791     49794
     49793     49791     49794     49794     49797     49798     49794     49797     49799
     49794     49797     49800     49795     49794     49796     49795     49794     49797
     49796     49794     49797     49797     49800     49801     49797     49800     49802
     49797     49800     49803     49798     49797     49799     49798     49797     49800
     49799     49797     49800     49800     49803     49804     49800     49803     49805
     49800     49803     49806     49801     49800     49802     49801     49800     49803
     49802     49800     49803     49803     49806     49807     49803     49806     49808
     49803     49806     49809     49804     49803     49805     49804     49803     49806
     49805     49803     49806     49807     49806     49808     49807     49806     49809
     49808     49806     49809     49810     49813     49814     49810     49813     49815
     49810     49813     49816     49811     49810     49812     49811     49810     49813
     49812     49810     49813     49813     49816     49817     49813     49816     49818
     49813     49816     49819     49814     49813     49815     49814     49813     49816
     49815     49813     49816     49816     49819     49820     49816     49819     49821
     49816     49819     49822     49817     49816     49818     49817     49816     49819
     49818     49816     49819     49819     49822     49823     49819     49822     49824
     49819     49822     49825     49820     49819     49821     49820     49819     49822
     49821     49819     49822     49822     49825     49826     49822     49825     49827
     49822     49825     49828     49823     49822     49824     49823     49822     49825
     49824     49822     49825     49825     49828     49829     49825     49828     49830
     49825     49828     49831     49826     49825     49827     49826     49825     49828
     49827     49825     49828     49828     49831     49832     49828     49831     49833
     49828     49831     49834     49829     49828     49830     49829     49828     49831
     49830     49828     49831     49831     49834     49835     49831     49834     49836
     49831     49834     49837     49832     49831     49833     49832     49831     49834
     49833     49831     49834     49834     49837     49838     49834     49837     49839
     49834     49837     49840     49835     49834     49836     49835     49834     49837
     49836     49834     49837     49837     49840     49841     49837     49840     49842
     49837     49840     49843     49838     49837     49839     49838     49837     49840
     49839     49837     49840     49840     49843     49844     49840     49843     49845
     49840     49843     49846     49841     49840     49842     49841     49840     49843
     49842     49840     49843     49843     49846     49847     49843     49846     49848
     49843     49846     49849     49844     49843     49845     49844     49843     49846
     49845     49843     49846     49846     49849     49850     49846     49849     49851
     49846     49849     49852     49847     49846     49848     49847     49846     49849
     49848     49846     49849     49850     49849     49851     49850     49849     49852
     49851     49849     49852     49853     49856     49857     49853     49856     49858
     49853     49856     49859     49854     49853     49855     49854     49853     49856
     49855     49853     49856     49856     49859     49860     49856     49859     49861
     49856     49859     49862     49857     49856     49858     49857     49856     49859
     49858     49856     49859     49859     49862     49863     49859     49862     49864
     49859     49862     49865     49860     49859     49861     49860     49859     49862
     49861     49859     49862     49862     49865     49866     49862     49865     49867
     49862     49865     49868     49863     49862     49864     49863     49862     49865
     49864     49862     49865     49865     49868     49869     49865     49868     49870
     49865     49868     49871     49866     49865     49867     49866     49865     49868
     49867     49865     49868     49868     49871     49872     49868     49871     49873
     49868     49871     49874     49869     49868     49870     49869     49868     49871
     49870     49868     49871     49871     49874     49875     49871     49874     49876
     49871     49874     49877     49872     49871     49873     49872     49871     49874
     49873     49871     49874     49874     49877     49878     49874     49877     49879
     49875     49874     49876     49875     49874     49877     49876     49874     49877
     49877     49879     49880     49877     49879     49881     49878     49877     49879
     49879     49881     49882     49879     49881     49883     49879     49881     49884
     49880     49879     49881     49881     49884     49885     49881     49884     49886
     49881     49884     49887     49882     49881     49883     49882     49881     49884
     49883     49881     49884     49884     49887     49888     49884     49887     49889
     49884     49887     49890     49885     49884     49886     49885     49884     49887
     49886     49884     49887     49887     49890     49891     49887     49890     49892
     49887     49890     49893     49888     49887     49889     49888     49887     49890
     49889     49887     49890     49890     49893     49894     49890     49893     49895
     49890     49893     49896     49891     49890     49892     49891     49890     49893
     49892     49890     49893     49893     49896     49897     49893     49896     49898
     49893     49896     49899     49894     49893     49895     49894     49893     49896
     49895     49893     49896     49897     49896     49898     49897     49896     49899
     49898     49896     49899     49900     49903     49904     49900     49903     49905
     49900     49903     49906     49901     49900     49902     49901     49900     49903
     49902     49900     49903     49903     49906     49907     49903     49906     49908
     49903     49906     49909     49904     49903     49905     49904     49903     49906
     49905     49903     49906     49906     49909     49910     49906     49909     49911
     49906     49909     49912     49907     49906     49908     49907     49906     49909
     49908     49906     49909     49909     49912     49913     49909     49912     49914
     49909     49912     49915     49910     49909     49911     49910     49909     49912
     49911     49909     49912     49912     49915     49916     49912     49915     49917
     49912     49915     49918     49913     49912     49914     49913     49912     49915
     49914     49912     49915     49915     49918     49919     49915     49918     49920
     49915     49918     49921     49916     49915     49917     49916     49915     49918
     49917     49915     49918     49918     49921     49922     49918     49921     49923
     49918     49921     49924     49919     49918     49920     49919     49918     49921
     49920     49918     49921     49921     49924     49925     49921     49924     49926
     49921     49924     49927     49922     49921     49923     49922     49921     49924
     49923     49921     49924     49924     49927     49928     49924     49927     49929
     49924     49927     49930     49925     49924     49926     49925     49924     49927
     49926     49924     49927     49927     49930     49931     49927     49930     49932
     49927     49930     49933     49928     49927     49929     49928     49927     49930
     49929     49927     49930     49930     49933     49934     49930     49933     49935
     49930     49933     49936     49931     49930     49932     49931     49930     49933
     49932     49930     49933     49933     49936     49937     49933     49936     49938
     49933     49936     49939     49934     49933     49935     49934     49933     49936
     49935     49933     49936     49936     49939     49940     49936     49939     49941
     49936     49939     49942     49937     49936     49938     49937     49936     49939
     49938     49936     49939     49940     49939     49941     49940     49939     49942
     49941     49939     49942     49943     49946     49947     49943     49948     49949
     49943     49948     49950     49943     49948     49952     49944     49943     49945
     49944     49943     49946     49944     49943     49948     49945     49943     49946
     49945     49943     49948     49946     49943     49948     49948     49950     49951
     49948     49952     49953     49948     49952     49954     49948     49952     49958
     49949     49948     49950     49949     49948     49952     49950     49948     49952
     49952     49958     49955     49953     49952     49954     49953     49952     49958
     49954     49952     49958     49955     49959     49960     49956     49955     49957
     49956     49955     49958     49956     49955     49959     49957     49955     49958
     49957     49955     49959     49958     49955     49959     49959     49960     49961
     49959     49960     49962     49959     49960     49963     49960     49963     49964
     49960     49963     49965     49960     49963     49971     49961     49960     49962
     49961     49960     49963     49962     49960     49963     49963     49965     49966
     49963     49971     49972     49963     49971     49973     49963     49971     49974
     49964     49963     49965     49964     49963     49971     49965     49963     49971
     49965     49966     49967     49965     49966     49968     49966     49968     49969
     49966     49968     49970     49966     49968     49980     49967     49966     49968
     49968     49980     49981     49968     49980     49982     49968     49980     49983
     49969     49968     49970     49969     49968     49980     49970     49968     49980
     49971     49974     49975     49972     49971     49973     49972     49971     49974
     49973     49971     49974     49974     49975     49976     49974     49975     49977
     49975     49977     49978     49975     49977     49979     49975     49977     50027
     49976     49975     49977     49977     50027     50028     49977     50027     50029
     49977     50027     50030     49978     49977     49979     49978     49977     50027
     49979     49977     50027     49980     49983     49984     49980     49983     49985
     49980     49983     49986     49981     49980     49982     49981     49980     49983
     49982     49980     49983     49983     49986     49987     49983     49986     49988
     49983     49986     49989     49984     49983     49985     49984     49983     49986
     49985     49983     49986     49986     49989     49990     49986     49989     49991
     49986     49989     49992     49987     49986     49988     49987     49986     49989
     49988     49986     49989     49989     49992     49993     49989     49992     49994
     49989     49992     49995     49990     49989     49991     49990     49989     49992
     49991     49989     49992     49992     49995     49996     49992     49995     49997
     49992     49995     49998     49993     49992     49994     49993     49992     49995
     49994     49992     49995     49995     49998     49999     49995     49998     50000
     49995     49998     50001     49996     49995     49997     49996     49995     49998
     49997     49995     49998     49998     50001     50002     49998     50001     50003
     49998     50001     50004     49999     49998     50000     49999     49998     50001
     50000     49998     50001     50001     50004     50005     50001     50004     50006
     50002     50001     50003     50002     50001     50004     50003     50001     50004
     50004     50006     50007     50004     50006     50008     50005     50004     50006
     50006     50008     50009     50006     50008     50010     50006     50008     50011
     50007     50006     50008     50008     50011     50012     50008     50011     50013
     50008     50011     50014     50009     50008     50010     50009     50008     50011
     50010     50008     50011     50011     50014     50015     50011     50014     50016
     50011     50014     50017     50012     50011     50013     50012     50011     50014
     50013     50011     50014     50014     50017     50018     50014     50017     50019
     50014     50017     50020     50015     50014     50016     50015     50014     50017
     50016     50014     50017     50017     50020     50021     50017     50020     50022
     50017     50020     50023     50018     50017     50019     50018     50017     50020
     50019     50017     50020     50020     50023     50024     50020     50023     50025
     50020     50023     50026     50021     50020     50022     50021     50020     50023
     50022     50020     50023     50024     50023     50025     50024     50023     50026
     50025     50023     50026     50027     50030     50031     50027     50030     50032
     50027     50030     50033     50028     50027     50029     50028     50027     50030
     50029     50027     50030     50030     50033     50034     50030     50033     50035
     50030     50033     50036     50031     50030     50032     50031     50030     50033
     50032     50030     50033     50033     50036     50037     50033     50036     50038
     50033     50036     50039     50034     50033     50035     50034     50033     50036
     50035     50033     50036     50036     50039     50040     50036     50039     50041
     50036     50039     50042     50037     50036     50038     50037     50036     50039
     50038     50036     50039     50039     50042     50043     50039     50042     50044
     50039     50042     50045     50040     50039     50041     50040     50039     50042
     50041     50039     50042     50042     50045     50046     50042     50045     50047
     50042     50045     50048     50043     50042     50044     50043     50042     50045
     50044     50042     50045     50045     50048     50049     50045     50048     50050
     50045     50048     50051     50046     50045     50047     50046     50045     50048
     50047     50045     50048     50048     50051     50052     50048     50051     50053
     50048     50051     50054     50049     50048     50050     50049     50048     50051
     50050     50048     50051     50051     50054     50055     50051     50054     50056
     50051     50054     50057     50052     50051     50053     50052     50051     50054
     50053     50051     50054     50054     50057     50058     50054     50057     50059
     50054     50057     50060     50055     50054     50056     50055     50054     50057
     50056     50054     50057     50057     50060     50061     50057     50060     50062
     50057     50060     50063     50058     50057     50059     50058     50057     50060
     50059     50057     50060     50060     50063     50064     50060     50063     50065
     50060     50063     50066     50061     50060     50062     50061     50060     50063
     50062     50060     50063     50063     50066     50067     50063     50066     50068
     50063     50066     50069     50064     50063     50065     50064     50063     50066
     50065     50063     50066     50067     50066     50068     50067     50066     50069
     50068     50066     50069     50070     50074     50075     50070     50074     50076
     50070     50074     50077     50071     50070     50072     50071     50070     50073
     50071     50070     50074     50072     50070     50073     50072     50070     50074
     50073     50070     50074     50074     50077     50078     50074     50077     50079
     50074     50077     50084     50075     50074     50076     50075     50074     50077
     50076     50074     50077     50077     50084     50080     50078     50077     50079
     50078     50077     50084     50079     50077     50084     50080     50083     50085
     50081     50080     50082     50081     50080     50083     50081     50080     50084
     50082     50080     50083     50082     50080     50084     50083     50080     50084
     50083     50085     50086     50083     50085     50087     50083     50085     50088
     50085     50088     50089     50085     50088     50090     50085     50088     50096
     50086     50085     50087     50086     50085     50088     50087     50085     50088
     50088     50090     50091     50088     50096     50097     50088     50096     50098
     50088     50096     50099     50089     50088     50090     50089     50088     50096
     50090     50088     50096     50090     50091     50092     50090     50091     50093
     50091     50093     50094     50091     50093     50095     50091     50093     50105
     50092     50091     50093     50093     50105     50106     50093     50105     50107
     50093     50105     50108     50094     50093     50095     50094     50093     50105
     50095     50093     50105     50096     50099     50100     50097     50096     50098
     50097     50096     50099     50098     50096     50099     50099     50100     50101
     50099     50100     50102     50100     50102     50103     50100     50102     50104
     50100     50102     50146     50101     50100     50102     50102     50146     50147
     50102     50146     50148     50102     50146     50149     50103     50102     50104
     50103     50102     50146     50104     50102     50146     50105     50108     50109
     50105     50108     50110     50105     50108     50111     50106     50105     50107
     50106     50105     50108     50107     50105     50108     50108     50111     50112
     50108     50111     50113     50108     50111     50114     50109     50108     50110
     50109     50108     50111     50110     50108     50111     50111     50114     50115
     50111     50114     50116     50111     50114     50117     50112     50111     50113
     50112     50111     50114     50113     50111     50114     50114     50117     50118
     50114     50117     50119     50114     50117     50120     50115     50114     50116
     50115     50114     50117     50116     50114     50117     50117     50120     50121
     50117     50120     50122     50117     50120     50123     50118     50117     50119
     50118     50117     50120     50119     50117     50120     50120     50123     50124
     50120     50123     50125     50121     50120     50122     50121     50120     50123
     50122     50120     50123     50123     50125     50126     50123     50125     50127
     50124     50123     50125     50125     50127     50128     50125     50127     50129
     50125     50127     50130     50126     50125     50127     50127     50130     50131
     50127     50130     50132     50127     50130     50133     50128     50127     50129
     50128     50127     50130     50129     50127     50130     50130     50133     50134
     50130     50133     50135     50130     50133     50136     50131     50130     50132
     50131     50130     50133     50132     50130     50133     50133     50136     50137
     50133     50136     50138     50133     50136     50139     50134     50133     50135
     50134     50133     50136     50135     50133     50136     50136     50139     50140
     50136     50139     50141     50136     50139     50142     50137     50136     50138
     50137     50136     50139     50138     50136     50139     50139     50142     50143
     50139     50142     50144     50139     50142     50145     50140     50139     50141
     50140     50139     50142     50141     50139     50142     50143     50142     50144
     50143     50142     50145     50144     50142     50145     50146     50149     50150
     50146     50149     50151     50146     50149     50152     50147     50146     50148
     50147     50146     50149     50148     50146     50149     50149     50152     50153
     50149     50152     50154     50149     50152     50155     50150     50149     50151
     50150     50149     50152     50151     50149     50152     50152     50155     50156
     50152     50155     50157     50152     50155     50158     50153     50152     50154
     50153     50152     50155     50154     50152     50155     50155     50158     50159
     50155     50158     50160     50155     50158     50161     50156     50155     50157
     50156     50155     50158     50157     50155     50158     50158     50161     50162
     50158     50161     50163     50158     50161     50164     50159     50158     50160
     50159     50158     50161     50160     50158     50161     50161     50164     50165
     50161     50164     50166     50161     50164     50167     50162     50161     50163
     50162     50161     50164     50163     50161     50164     50164     50167     50168
     50164     50167     50169     50164     50167     50170     50165     50164     50166
     50165     50164     50167     50166     50164     50167     50167     50170     50171
     50167     50170     50172     50167     50170     50173     50168     50167     50169
     50168     50167     50170     50169     50167     50170     50170     50173     50174
     50170     50173     50175     50170     50173     50176     50171     50170     50172
     50171     50170     50173     50172     50170     50173     50173     50176     50177
     50173     50176     50178     50173     50176     50179     50174     50173     50175
     50174     50173     50176     50175     50173     50176     50176     50179     50180
     50176     50179     50181     50176     50179     50182     50177     50176     50178
     50177     50176     50179     50178     50176     50179     50179     50182     50183
     50179     50182     50184     50179     50182     50185     50180     50179     50181
     50180     50179     50182     50181     50179     50182     50182     50185     50186
     50182     50185     50187     50182     50185     50188     50183     50182     50184
     50183     50182     50185     50184     50182     50185     50186     50185     50187
     50186     50185     50188     50187     50185     50188     50189     50193     50194
     50189     50193     50195     50189     50193     50196     50190     50189     50191
     50190     50189     50192     50190     50189     50193     50191     50189     50192
     50191     50189     50193     50192     50189     50193     50193     50196     50197
     50193     50196     50198     50193     50196     50203     50194     50193     50195
     50194     50193     50196     50195     50193     50196     50196     50203     50199
     50197     50196     50198     50197     50196     50203     50198     50196     50203
     50199     50202     50204     50200     50199     50201     50200     50199     50202
     50200     50199     50203     50201     50199     50202     50201     50199     50203
     50202     50199     50203     50202     50204     50205     50202     50204     50206
     50202     50204     50207     50204     50207     50208     50204     50207     50209
     50204     50207     50215     50205     50204     50206     50205     50204     50207
     50206     50204     50207     50207     50209     50210     50207     50215     50216
     50207     50215     50217     50207     50215     50218     50208     50207     50209
     50208     50207     50215     50209     50207     50215     50209     50210     50211
     50209     50210     50212     50210     50212     50213     50210     50212     50214
     50210     50212     50224     50211     50210     50212     50212     50224     50225
     50212     50224     50226     50212     50224     50227     50213     50212     50214
     50213     50212     50224     50214     50212     50224     50215     50218     50219
     50216     50215     50217     50216     50215     50218     50217     50215     50218
     50218     50219     50220     50218     50219     50221     50219     50221     50222
     50219     50221     50223     50219     50221     50265     50220     50219     50221
     50221     50265     50266     50221     50265     50267     50221     50265     50268
     50222     50221     50223     50222     50221     50265     50223     50221     50265
     50224     50227     50228     50224     50227     50229     50224     50227     50230
     50225     50224     50226     50225     50224     50227     50226     50224     50227
     50227     50230     50231     50227     50230     50232     50227     50230     50233
     50228     50227     50229     50228     50227     50230     50229     50227     50230
     50230     50233     50234     50230     50233     50235     50230     50233     50236
     50231     50230     50232     50231     50230     50233     50232     50230     50233
     50233     50236     50237     50233     50236     50238     50233     50236     50239
     50234     50233     50235     50234     50233     50236     50235     50233     50236
     50236     50239     50240     50236     50239     50241     50236     50239     50242
     50237     50236     50238     50237     50236     50239     50238     50236     50239
     50239     50242     50243     50239     50242     50244     50240     50239     50241
     50240     50239     50242     50241     50239     50242     50242     50244     50245
     50242     50244     50246     50243     50242     50244     50244     50246     50247
     50244     50246     50248     50244     50246     50249     50245     50244     50246
     50246     50249     50250     50246     50249     50251     50246     50249     50252
     50247     50246     50248     50247     50246     50249     50248     50246     50249
     50249     50252     50253     50249     50252     50254     50249     50252     50255
     50250     50249     50251     50250     50249     50252     50251     50249     50252
     50252     50255     50256     50252     50255     50257     50252     50255     50258
     50253     50252     50254     50253     50252     50255     50254     50252     50255
     50255     50258     50259     50255     50258     50260     50255     50258     50261
     50256     50255     50257     50256     50255     50258     50257     50255     50258
     50258     50261     50262     50258     50261     50263     50258     50261     50264
     50259     50258     50260     50259     50258     50261     50260     50258     50261
     50262     50261     50263     50262     50261     50264     50263     50261     50264
     50265     50268     50269     50265     50268     50270     50265     50268     50271
     50266     50265     50267     50266     50265     50268     50267     50265     50268
     50268     50271     50272     50268     50271     50273     50268     50271     50274
     50269     50268     50270     50269     50268     50271     50270     50268     50271
     50271     50274     50275     50271     50274     50276     50271     50274     50277
     50272     50271     50273     50272     50271     50274     50273     50271     50274
     50274     50277     50278     50274     50277     50279     50274     50277     50280
     50275     50274     50276     50275     50274     50277     50276     50274     50277
     50277     50280     50281     50277     50280     50282     50277     50280     50283
     50278     50277     50279     50278     50277     50280     50279     50277     50280
     50280     50283     50284     50280     50283     50285     50280     50283     50286
     50281     50280     50282     50281     50280     50283     50282     50280     50283
     50283     50286     50287     50283     50286     50288     50283     50286     50289
     50284     50283     50285     50284     50283     50286     50285     50283     50286
     50286     50289     50290     50286     50289     50291     50286     50289     50292
     50287     50286     50288     50287     50286     50289     50288     50286     50289
     50289     50292     50293     50289     50292     50294     50289     50292     50295
     50290     50289     50291     50290     50289     50292     50291     50289     50292
     50292     50295     50296     50292     50295     50297     50292     50295     50298
     50293     50292     50294     50293     50292     50295     50294     50292     50295
     50295     50298     50299     50295     50298     50300     50295     50298     50301
     50296     50295     50297     50296     50295     50298     50297     50295     50298
     50298     50301     50302     50298     50301     50303     50298     50301     50304
     50299     50298     50300     50299     50298     50301     50300     50298     50301
     50301     50304     50305     50301     50304     50306     50301     50304     50307
     50302     50301     50303     50302     50301     50304     50303     50301     50304
     50305     50304     50306     50305     50304     50307     50306     50304     50307
     50308     50312     50313     50308     50312     50314     50308     50312     50315
     50309     50308     50310     50309     50308     50311     50309     50308     50312
     50310     50308     50311     50310     50308     50312     50311     50308     50312
     50312     50315     50316     50312     50315     50317     50312     50315     50322
     50313     50312     50314     50313     50312     50315     50314     50312     50315
     50315     50322     50318     50316     50315     50317     50316     50315     50322
     50317     50315     50322     50318     50321     50323     50319     50318     50320
     50319     50318     50321     50319     50318     50322     50320     50318     50321
     50320     50318     50322     50321     50318     50322     50321     50323     50324
     50321     50323     50325     50321     50323     50326     50323     50326     50327
     50323     50326     50328     50323     50326     50334     50324     50323     50325
     50324     50323     50326     50325     50323     50326     50326     50328     50329
     50326     50334     50335     50326     50334     50336     50326     50334     50337
     50327     50326     50328     50327     50326     50334     50328     50326     50334
     50328     50329     50330     50328     50329     50331     50329     50331     50332
     50329     50331     50333     50329     50331     50343     50330     50329     50331
     50331     50343     50344     50331     50343     50345     50331     50343     50346
     50332     50331     50333     50332     50331     50343     50333     50331     50343
     50334     50337     50338     50335     50334     50336     50335     50334     50337
     50336     50334     50337     50337     50338     50339     50337     50338     50340
     50338     50340     50341     50338     50340     50342     50338     50340     50384
     50339     50338     50340     50340     50384     50385     50340     50384     50386
     50340     50384     50387     50341     50340     50342     50341     50340     50384
     50342     50340     50384     50343     50346     50347     50343     50346     50348
     50343     50346     50349     50344     50343     50345     50344     50343     50346
     50345     50343     50346     50346     50349     50350     50346     50349     50351
     50346     50349     50352     50347     50346     50348     50347     50346     50349
     50348     50346     50349     50349     50352     50353     50349     50352     50354
     50349     50352     50355     50350     50349     50351     50350     50349     50352
     50351     50349     50352     50352     50355     50356     50352     50355     50357
     50352     50355     50358     50353     50352     50354     50353     50352     50355
     50354     50352     50355     50355     50358     50359     50355     50358     50360
     50355     50358     50361     50356     50355     50357     50356     50355     50358
     50357     50355     50358     50358     50361     50362     50358     50361     50363
     50359     50358     50360     50359     50358     50361     50360     50358     50361
     50361     50363     50364     50361     50363     50365     50362     50361     50363
     50363     50365     50366     50363     50365     50367     50363     50365     50368
     50364     50363     50365     50365     50368     50369     50365     50368     50370
     50365     50368     50371     50366     50365     50367     50366     50365     50368
     50367     50365     50368     50368     50371     50372     50368     50371     50373
     50368     50371     50374     50369     50368     50370     50369     50368     50371
     50370     50368     50371     50371     50374     50375     50371     50374     50376
     50371     50374     50377     50372     50371     50373     50372     50371     50374
     50373     50371     50374     50374     50377     50378     50374     50377     50379
     50374     50377     50380     50375     50374     50376     50375     50374     50377
     50376     50374     50377     50377     50380     50381     50377     50380     50382
     50377     50380     50383     50378     50377     50379     50378     50377     50380
     50379     50377     50380     50381     50380     50382     50381     50380     50383
     50382     50380     50383     50384     50387     50388     50384     50387     50389
     50384     50387     50390     50385     50384     50386     50385     50384     50387
     50386     50384     50387     50387     50390     50391     50387     50390     50392
     50387     50390     50393     50388     50387     50389     50388     50387     50390
     50389     50387     50390     50390     50393     50394     50390     50393     50395
     50390     50393     50396     50391     50390     50392     50391     50390     50393
     50392     50390     50393     50393     50396     50397     50393     50396     50398
     50393     50396     50399     50394     50393     50395     50394     50393     50396
     50395     50393     50396     50396     50399     50400     50396     50399     50401
     50396     50399     50402     50397     50396     50398     50397     50396     50399
     50398     50396     50399     50399     50402     50403     50399     50402     50404
     50399     50402     50405     50400     50399     50401     50400     50399     50402
     50401     50399     50402     50402     50405     50406     50402     50405     50407
     50402     50405     50408     50403     50402     50404     50403     50402     50405
     50404     50402     50405     50405     50408     50409     50405     50408     50410
     50405     50408     50411     50406     50405     50407     50406     50405     50408
     50407     50405     50408     50408     50411     50412     50408     50411     50413
     50408     50411     50414     50409     50408     50410     50409     50408     50411
     50410     50408     50411     50411     50414     50415     50411     50414     50416
     50411     50414     50417     50412     50411     50413     50412     50411     50414
     50413     50411     50414     50414     50417     50418     50414     50417     50419
     50414     50417     50420     50415     50414     50416     50415     50414     50417
     50416     50414     50417     50417     50420     50421     50417     50420     50422
     50417     50420     50423     50418     50417     50419     50418     50417     50420
     50419     50417     50420     50420     50423     50424     50420     50423     50425
     50420     50423     50426     50421     50420     50422     50421     50420     50423
     50422     50420     50423     50424     50423     50425     50424     50423     50426
     50425     50423     50426     50427     50431     50432     50427     50431     50433
     50427     50431     50434     50428     50427     50429     50428     50427     50430
     50428     50427     50431     50429     50427     50430     50429     50427     50431
     50430     50427     50431     50431     50434     50435     50431     50434     50436
     50431     50434     50441     50432     50431     50433     50432     50431     50434
     50433     50431     50434     50434     50441     50437     50435     50434     50436
     50435     50434     50441     50436     50434     50441     50437     50440     50442
     50438     50437     50439     50438     50437     50440     50438     50437     50441
     50439     50437     50440     50439     50437     50441     50440     50437     50441
     50440     50442     50443     50440     50442     50444     50440     50442     50445
     50442     50445     50446     50442     50445     50447     50442     50445     50453
     50443     50442     50444     50443     50442     50445     50444     50442     50445
     50445     50447     50448     50445     50453     50454     50445     50453     50455
     50445     50453     50456     50446     50445     50447     50446     50445     50453
     50447     50445     50453     50447     50448     50449     50447     50448     50450
     50448     50450     50451     50448     50450     50452     50448     50450     50462
     50449     50448     50450     50450     50462     50463     50450     50462     50464
     50450     50462     50465     50451     50450     50452     50451     50450     50462
     50452     50450     50462     50453     50456     50457     50454     50453     50455
     50454     50453     50456     50455     50453     50456     50456     50457     50458
     50456     50457     50459     50457     50459     50460     50457     50459     50461
     50457     50459     50503     50458     50457     50459     50459     50503     50504
     50459     50503     50505     50459     50503     50506     50460     50459     50461
     50460     50459     50503     50461     50459     50503     50462     50465     50466
     50462     50465     50467     50462     50465     50468     50463     50462     50464
     50463     50462     50465     50464     50462     50465     50465     50468     50469
     50465     50468     50470     50465     50468     50471     50466     50465     50467
     50466     50465     50468     50467     50465     50468     50468     50471     50472
     50468     50471     50473     50468     50471     50474     50469     50468     50470
     50469     50468     50471     50470     50468     50471     50471     50474     50475
     50471     50474     50476     50471     50474     50477     50472     50471     50473
     50472     50471     50474     50473     50471     50474     50474     50477     50478
     50474     50477     50479     50474     50477     50480     50475     50474     50476
     50475     50474     50477     50476     50474     50477     50477     50480     50481
     50477     50480     50482     50478     50477     50479     50478     50477     50480
     50479     50477     50480     50480     50482     50483     50480     50482     50484
     50481     50480     50482     50482     50484     50485     50482     50484     50486
     50482     50484     50487     50483     50482     50484     50484     50487     50488
     50484     50487     50489     50484     50487     50490     50485     50484     50486
     50485     50484     50487     50486     50484     50487     50487     50490     50491
     50487     50490     50492     50487     50490     50493     50488     50487     50489
     50488     50487     50490     50489     50487     50490     50490     50493     50494
     50490     50493     50495     50490     50493     50496     50491     50490     50492
     50491     50490     50493     50492     50490     50493     50493     50496     50497
     50493     50496     50498     50493     50496     50499     50494     50493     50495
     50494     50493     50496     50495     50493     50496     50496     50499     50500
     50496     50499     50501     50496     50499     50502     50497     50496     50498
     50497     50496     50499     50498     50496     50499     50500     50499     50501
     50500     50499     50502     50501     50499     50502     50503     50506     50507
     50503     50506     50508     50503     50506     50509     50504     50503     50505
     50504     50503     50506     50505     50503     50506     50506     50509     50510
     50506     50509     50511     50506     50509     50512     50507     50506     50508
     50507     50506     50509     50508     50506     50509     50509     50512     50513
     50509     50512     50514     50509     50512     50515     50510     50509     50511
     50510     50509     50512     50511     50509     50512     50512     50515     50516
     50512     50515     50517     50512     50515     50518     50513     50512     50514
     50513     50512     50515     50514     50512     50515     50515     50518     50519
     50515     50518     50520     50515     50518     50521     50516     50515     50517
     50516     50515     50518     50517     50515     50518     50518     50521     50522
     50518     50521     50523     50518     50521     50524     50519     50518     50520
     50519     50518     50521     50520     50518     50521     50521     50524     50525
     50521     50524     50526     50521     50524     50527     50522     50521     50523
     50522     50521     50524     50523     50521     50524     50524     50527     50528
     50524     50527     50529     50524     50527     50530     50525     50524     50526
     50525     50524     50527     50526     50524     50527     50527     50530     50531
     50527     50530     50532     50527     50530     50533     50528     50527     50529
     50528     50527     50530     50529     50527     50530     50530     50533     50534
     50530     50533     50535     50530     50533     50536     50531     50530     50532
     50531     50530     50533     50532     50530     50533     50533     50536     50537
     50533     50536     50538     50533     50536     50539     50534     50533     50535
     50534     50533     50536     50535     50533     50536     50536     50539     50540
     50536     50539     50541     50536     50539     50542     50537     50536     50538
     50537     50536     50539     50538     50536     50539     50539     50542     50543
     50539     50542     50544     50539     50542     50545     50540     50539     50541
     50540     50539     50542     50541     50539     50542     50543     50542     50544
     50543     50542     50545     50544     50542     50545     50546     50550     50551
     50546     50550     50552     50546     50550     50553     50547     50546     50548
     50547     50546     50549     50547     50546     50550     50548     50546     50549
     50548     50546     50550     50549     50546     50550     50550     50553     50554
     50550     50553     50555     50550     50553     50560     50551     50550     50552
     50551     50550     50553     50552     50550     50553     50553     50560     50556
     50554     50553     50555     50554     50553     50560     50555     50553     50560
     50556     50559     50561     50557     50556     50558     50557     50556     50559
     50557     50556     50560     50558     50556     50559     50558     50556     50560
     50559     50556     50560     50559     50561     50562     50559     50561     50563
     50559     50561     50564     50561     50564     50565     50561     50564     50566
     50561     50564     50572     50562     50561     50563     50562     50561     50564
     50563     50561     50564     50564     50566     50567     50564     50572     50573
     50564     50572     50574     50564     50572     50575     50565     50564     50566
     50565     50564     50572     50566     50564     50572     50566     50567     50568
     50566     50567     50569     50567     50569     50570     50567     50569     50571
     50567     50569     50581     50568     50567     50569     50569     50581     50582
     50569     50581     50583     50569     50581     50584     50570     50569     50571
     50570     50569     50581     50571     50569     50581     50572     50575     50576
     50573     50572     50574     50573     50572     50575     50574     50572     50575
     50575     50576     50577     50575     50576     50578     50576     50578     50579
     50576     50578     50580     50576     50578     50622     50577     50576     50578
     50578     50622     50623     50578     50622     50624     50578     50622     50625
     50579     50578     50580     50579     50578     50622     50580     50578     50622
     50581     50584     50585     50581     50584     50586     50581     50584     50587
     50582     50581     50583     50582     50581     50584     50583     50581     50584
     50584     50587     50588     50584     50587     50589     50584     50587     50590
     50585     50584     50586     50585     50584     50587     50586     50584     50587
     50587     50590     50591     50587     50590     50592     50587     50590     50593
     50588     50587     50589     50588     50587     50590     50589     50587     50590
     50590     50593     50594     50590     50593     50595     50590     50593     50596
     50591     50590     50592     50591     50590     50593     50592     50590     50593
     50593     50596     50597     50593     50596     50598     50593     50596     50599
     50594     50593     50595     50594     50593     50596     50595     50593     50596
     50596     50599     50600     50596     50599     50601     50597     50596     50598
     50597     50596     50599     50598     50596     50599     50599     50601     50602
     50599     50601     50603     50600     50599     50601     50601     50603     50604
     50601     50603     50605     50601     50603     50606     50602     50601     50603
     50603     50606     50607     50603     50606     50608     50603     50606     50609
     50604     50603     50605     50604     50603     50606     50605     50603     50606
     50606     50609     50610     50606     50609     50611     50606     50609     50612
     50607     50606     50608     50607     50606     50609     50608     50606     50609
     50609     50612     50613     50609     50612     50614     50609     50612     50615
     50610     50609     50611     50610     50609     50612     50611     50609     50612
     50612     50615     50616     50612     50615     50617     50612     50615     50618
     50613     50612     50614     50613     50612     50615     50614     50612     50615
     50615     50618     50619     50615     50618     50620     50615     50618     50621
     50616     50615     50617     50616     50615     50618     50617     50615     50618
     50619     50618     50620     50619     50618     50621     50620     50618     50621
     50622     50625     50626     50622     50625     50627     50622     50625     50628
     50623     50622     50624     50623     50622     50625     50624     50622     50625
     50625     50628     50629     50625     50628     50630     50625     50628     50631
     50626     50625     50627     50626     50625     50628     50627     50625     50628
     50628     50631     50632     50628     50631     50633     50628     50631     50634
     50629     50628     50630     50629     50628     50631     50630     50628     50631
     50631     50634     50635     50631     50634     50636     50631     50634     50637
     50632     50631     50633     50632     50631     50634     50633     50631     50634
     50634     50637     50638     50634     50637     50639     50634     50637     50640
     50635     50634     50636     50635     50634     50637     50636     50634     50637
     50637     50640     50641     50637     50640     50642     50637     50640     50643
     50638     50637     50639     50638     50637     50640     50639     50637     50640
     50640     50643     50644     50640     50643     50645     50640     50643     50646
     50641     50640     50642     50641     50640     50643     50642     50640     50643
     50643     50646     50647     50643     50646     50648     50643     50646     50649
     50644     50643     50645     50644     50643     50646     50645     50643     50646
     50646     50649     50650     50646     50649     50651     50646     50649     50652
     50647     50646     50648     50647     50646     50649     50648     50646     50649
     50649     50652     50653     50649     50652     50654     50649     50652     50655
     50650     50649     50651     50650     50649     50652     50651     50649     50652
     50652     50655     50656     50652     50655     50657     50652     50655     50658
     50653     50652     50654     50653     50652     50655     50654     50652     50655
     50655     50658     50659     50655     50658     50660     50655     50658     50661
     50656     50655     50657     50656     50655     50658     50657     50655     50658
     50658     50661     50662     50658     50661     50663     50658     50661     50664
     50659     50658     50660     50659     50658     50661     50660     50658     50661
     50662     50661     50663     50662     50661     50664     50663     50661     50664
     50665     50669     50670     50665     50669     50671     50665     50669     50672
     50666     50665     50667     50666     50665     50668     50666     50665     50669
     50667     50665     50668     50667     50665     50669     50668     50665     50669
     50669     50672     50673     50669     50672     50674     50669     50672     50679
     50670     50669     50671     50670     50669     50672     50671     50669     50672
     50672     50679     50675     50673     50672     50674     50673     50672     50679
     50674     50672     50679     50675     50678     50680     50676     50675     50677
     50676     50675     50678     50676     50675     50679     50677     50675     50678
     50677     50675     50679     50678     50675     50679     50678     50680     50681
     50678     50680     50682     50678     50680     50683     50680     50683     50684
     50680     50683     50685     50680     50683     50691     50681     50680     50682
     50681     50680     50683     50682     50680     50683     50683     50685     50686
     50683     50691     50692     50683     50691     50693     50683     50691     50694
     50684     50683     50685     50684     50683     50691     50685     50683     50691
     50685     50686     50687     50685     50686     50688     50686     50688     50689
     50686     50688     50690     50686     50688     50700     50687     50686     50688
     50688     50700     50701     50688     50700     50702     50688     50700     50703
     50689     50688     50690     50689     50688     50700     50690     50688     50700
     50691     50694     50695     50692     50691     50693     50692     50691     50694
     50693     50691     50694     50694     50695     50696     50694     50695     50697
     50695     50697     50698     50695     50697     50699     50695     50697     50741
     50696     50695     50697     50697     50741     50742     50697     50741     50743
     50697     50741     50744     50698     50697     50699     50698     50697     50741
     50699     50697     50741     50700     50703     50704     50700     50703     50705
     50700     50703     50706     50701     50700     50702     50701     50700     50703
     50702     50700     50703     50703     50706     50707     50703     50706     50708
     50703     50706     50709     50704     50703     50705     50704     50703     50706
     50705     50703     50706     50706     50709     50710     50706     50709     50711
     50706     50709     50712     50707     50706     50708     50707     50706     50709
     50708     50706     50709     50709     50712     50713     50709     50712     50714
     50709     50712     50715     50710     50709     50711     50710     50709     50712
     50711     50709     50712     50712     50715     50716     50712     50715     50717
     50712     50715     50718     50713     50712     50714     50713     50712     50715
     50714     50712     50715     50715     50718     50719     50715     50718     50720
     50716     50715     50717     50716     50715     50718     50717     50715     50718
     50718     50720     50721     50718     50720     50722     50719     50718     50720
     50720     50722     50723     50720     50722     50724     50720     50722     50725
     50721     50720     50722     50722     50725     50726     50722     50725     50727
     50722     50725     50728     50723     50722     50724     50723     50722     50725
     50724     50722     50725     50725     50728     50729     50725     50728     50730
     50725     50728     50731     50726     50725     50727     50726     50725     50728
     50727     50725     50728     50728     50731     50732     50728     50731     50733
     50728     50731     50734     50729     50728     50730     50729     50728     50731
     50730     50728     50731     50731     50734     50735     50731     50734     50736
     50731     50734     50737     50732     50731     50733     50732     50731     50734
     50733     50731     50734     50734     50737     50738     50734     50737     50739
     50734     50737     50740     50735     50734     50736     50735     50734     50737
     50736     50734     50737     50738     50737     50739     50738     50737     50740
     50739     50737     50740     50741     50744     50745     50741     50744     50746
     50741     50744     50747     50742     50741     50743     50742     50741     50744
     50743     50741     50744     50744     50747     50748     50744     50747     50749
     50744     50747     50750     50745     50744     50746     50745     50744     50747
     50746     50744     50747     50747     50750     50751     50747     50750     50752
     50747     50750     50753     50748     50747     50749     50748     50747     50750
     50749     50747     50750     50750     50753     50754     50750     50753     50755
     50750     50753     50756     50751     50750     50752     50751     50750     50753
     50752     50750     50753     50753     50756     50757     50753     50756     50758
     50753     50756     50759     50754     50753     50755     50754     50753     50756
     50755     50753     50756     50756     50759     50760     50756     50759     50761
     50756     50759     50762     50757     50756     50758     50757     50756     50759
     50758     50756     50759     50759     50762     50763     50759     50762     50764
     50759     50762     50765     50760     50759     50761     50760     50759     50762
     50761     50759     50762     50762     50765     50766     50762     50765     50767
     50762     50765     50768     50763     50762     50764     50763     50762     50765
     50764     50762     50765     50765     50768     50769     50765     50768     50770
     50765     50768     50771     50766     50765     50767     50766     50765     50768
     50767     50765     50768     50768     50771     50772     50768     50771     50773
     50768     50771     50774     50769     50768     50770     50769     50768     50771
     50770     50768     50771     50771     50774     50775     50771     50774     50776
     50771     50774     50777     50772     50771     50773     50772     50771     50774
     50773     50771     50774     50774     50777     50778     50774     50777     50779
     50774     50777     50780     50775     50774     50776     50775     50774     50777
     50776     50774     50777     50777     50780     50781     50777     50780     50782
     50777     50780     50783     50778     50777     50779     50778     50777     50780
     50779     50777     50780     50781     50780     50782     50781     50780     50783
     50782     50780     50783     50784     50788     50789     50784     50788     50790
     50784     50788     50791     50785     50784     50786     50785     50784     50787
     50785     50784     50788     50786     50784     50787     50786     50784     50788
     50787     50784     50788     50788     50791     50792     50788     50791     50793
     50788     50791     50798     50789     50788     50790     50789     50788     50791
     50790     50788     50791     50791     50798     50794     50792     50791     50793
     50792     50791     50798     50793     50791     50798     50794     50797     50799
     50795     50794     50796     50795     50794     50797     50795     50794     50798
     50796     50794     50797     50796     50794     50798     50797     50794     50798
     50797     50799     50800     50797     50799     50801     50797     50799     50802
     50799     50802     50803     50799     50802     50804     50799     50802     50810
     50800     50799     50801     50800     50799     50802     50801     50799     50802
     50802     50804     50805     50802     50810     50811     50802     50810     50812
     50802     50810     50813     50803     50802     50804     50803     50802     50810
     50804     50802     50810     50804     50805     50806     50804     50805     50807
     50805     50807     50808     50805     50807     50809     50805     50807     50819
     50806     50805     50807     50807     50819     50820     50807     50819     50821
     50807     50819     50822     50808     50807     50809     50808     50807     50819
     50809     50807     50819     50810     50813     50814     50811     50810     50812
     50811     50810     50813     50812     50810     50813     50813     50814     50815
     50813     50814     50816     50814     50816     50817     50814     50816     50818
     50814     50816     50860     50815     50814     50816     50816     50860     50861
     50816     50860     50862     50816     50860     50863     50817     50816     50818
     50817     50816     50860     50818     50816     50860     50819     50822     50823
     50819     50822     50824     50819     50822     50825     50820     50819     50821
     50820     50819     50822     50821     50819     50822     50822     50825     50826
     50822     50825     50827     50822     50825     50828     50823     50822     50824
     50823     50822     50825     50824     50822     50825     50825     50828     50829
     50825     50828     50830     50825     50828     50831     50826     50825     50827
     50826     50825     50828     50827     50825     50828     50828     50831     50832
     50828     50831     50833     50828     50831     50834     50829     50828     50830
     50829     50828     50831     50830     50828     50831     50831     50834     50835
     50831     50834     50836     50831     50834     50837     50832     50831     50833
     50832     50831     50834     50833     50831     50834     50834     50837     50838
     50834     50837     50839     50835     50834     50836     50835     50834     50837
     50836     50834     50837     50837     50839     50840     50837     50839     50841
     50838     50837     50839     50839     50841     50842     50839     50841     50843
     50839     50841     50844     50840     50839     50841     50841     50844     50845
     50841     50844     50846     50841     50844     50847     50842     50841     50843
     50842     50841     50844     50843     50841     50844     50844     50847     50848
     50844     50847     50849     50844     50847     50850     50845     50844     50846
     50845     50844     50847     50846     50844     50847     50847     50850     50851
     50847     50850     50852     50847     50850     50853     50848     50847     50849
     50848     50847     50850     50849     50847     50850     50850     50853     50854
     50850     50853     50855     50850     50853     50856     50851     50850     50852
     50851     50850     50853     50852     50850     50853     50853     50856     50857
     50853     50856     50858     50853     50856     50859     50854     50853     50855
     50854     50853     50856     50855     50853     50856     50857     50856     50858
     50857     50856     50859     50858     50856     50859     50860     50863     50864
     50860     50863     50865     50860     50863     50866     50861     50860     50862
     50861     50860     50863     50862     50860     50863     50863     50866     50867
     50863     50866     50868     50863     50866     50869     50864     50863     50865
     50864     50863     50866     50865     50863     50866     50866     50869     50870
     50866     50869     50871     50866     50869     50872     50867     50866     50868
     50867     50866     50869     50868     50866     50869     50869     50872     50873
     50869     50872     50874     50869     50872     50875     50870     50869     50871
     50870     50869     50872     50871     50869     50872     50872     50875     50876
     50872     50875     50877     50872     50875     50878     50873     50872     50874
     50873     50872     50875     50874     50872     50875     50875     50878     50879
     50875     50878     50880     50875     50878     50881     50876     50875     50877
     50876     50875     50878     50877     50875     50878     50878     50881     50882
     50878     50881     50883     50878     50881     50884     50879     50878     50880
     50879     50878     50881     50880     50878     50881     50881     50884     50885
     50881     50884     50886     50881     50884     50887     50882     50881     50883
     50882     50881     50884     50883     50881     50884     50884     50887     50888
     50884     50887     50889     50884     50887     50890     50885     50884     50886
     50885     50884     50887     50886     50884     50887     50887     50890     50891
     50887     50890     50892     50887     50890     50893     50888     50887     50889
     50888     50887     50890     50889     50887     50890     50890     50893     50894
     50890     50893     50895     50890     50893     50896     50891     50890     50892
     50891     50890     50893     50892     50890     50893     50893     50896     50897
     50893     50896     50898     50893     50896     50899     50894     50893     50895
     50894     50893     50896     50895     50893     50896     50896     50899     50900
     50896     50899     50901     50896     50899     50902     50897     50896     50898
     50897     50896     50899     50898     50896     50899     50900     50899     50901
     50900     50899     50902     50901     50899     50902     50903     50906     50907
     50903     50908     50909     50903     50908     50910     50903     50908     50912
     50904     50903     50905     50904     50903     50906     50904     50903     50908
     50905     50903     50906     50905     50903     50908     50906     50903     50908
     50908     50910     50911     50908     50912     50913     50908     50912     50914
     50908     50912     50918     50909     50908     50910     50909     50908     50912
     50910     50908     50912     50912     50918     50915     50913     50912     50914
     50913     50912     50918     50914     50912     50918     50915     50919     50920
     50916     50915     50917     50916     50915     50918     50916     50915     50919
     50917     50915     50918     50917     50915     50919     50918     50915     50919
     50919     50920     50921     50919     50920     50922     50919     50920     50923
     50920     50923     50924     50920     50923     50925     50920     50923     50931
     50921     50920     50922     50921     50920     50923     50922     50920     50923
     50923     50925     50926     50923     50931     50932     50923     50931     50933
     50923     50931     50934     50924     50923     50925     50924     50923     50931
     50925     50923     50931     50925     50926     50927     50925     50926     50928
     50926     50928     50929     50926     50928     50930     50926     50928     50940
     50927     50926     50928     50928     50940     50941     50928     50940     50942
     50928     50940     50943     50929     50928     50930     50929     50928     50940
     50930     50928     50940     50931     50934     50935     50932     50931     50933
     50932     50931     50934     50933     50931     50934     50934     50935     50936
     50934     50935     50937     50935     50937     50938     50935     50937     50939
     50935     50937     50987     50936     50935     50937     50937     50987     50988
     50937     50987     50989     50937     50987     50990     50938     50937     50939
     50938     50937     50987     50939     50937     50987     50940     50943     50944
     50940     50943     50945     50940     50943     50946     50941     50940     50942
     50941     50940     50943     50942     50940     50943     50943     50946     50947
     50943     50946     50948     50943     50946     50949     50944     50943     50945
     50944     50943     50946     50945     50943     50946     50946     50949     50950
     50946     50949     50951     50946     50949     50952     50947     50946     50948
     50947     50946     50949     50948     50946     50949     50949     50952     50953
     50949     50952     50954     50949     50952     50955     50950     50949     50951
     50950     50949     50952     50951     50949     50952     50952     50955     50956
     50952     50955     50957     50952     50955     50958     50953     50952     50954
     50953     50952     50955     50954     50952     50955     50955     50958     50959
     50955     50958     50960     50955     50958     50961     50956     50955     50957
     50956     50955     50958     50957     50955     50958     50958     50961     50962
     50958     50961     50963     50958     50961     50964     50959     50958     50960
     50959     50958     50961     50960     50958     50961     50961     50964     50965
     50961     50964     50966     50962     50961     50963     50962     50961     50964
     50963     50961     50964     50964     50966     50967     50964     50966     50968
     50965     50964     50966     50966     50968     50969     50966     50968     50970
     50966     50968     50971     50967     50966     50968     50968     50971     50972
     50968     50971     50973     50968     50971     50974     50969     50968     50970
     50969     50968     50971     50970     50968     50971     50971     50974     50975
     50971     50974     50976     50971     50974     50977     50972     50971     50973
     50972     50971     50974     50973     50971     50974     50974     50977     50978
     50974     50977     50979     50974     50977     50980     50975     50974     50976
     50975     50974     50977     50976     50974     50977     50977     50980     50981
     50977     50980     50982     50977     50980     50983     50978     50977     50979
     50978     50977     50980     50979     50977     50980     50980     50983     50984
     50980     50983     50985     50980     50983     50986     50981     50980     50982
     50981     50980     50983     50982     50980     50983     50984     50983     50985
     50984     50983     50986     50985     50983     50986     50987     50990     50991
     50987     50990     50992     50987     50990     50993     50988     50987     50989
     50988     50987     50990     50989     50987     50990     50990     50993     50994
     50990     50993     50995     50990     50993     50996     50991     50990     50992
     50991     50990     50993     50992     50990     50993     50993     50996     50997
     50993     50996     50998     50993     50996     50999     50994     50993     50995
     50994     50993     50996     50995     50993     50996     50996     50999     51000
     50996     50999     51001     50996     50999     51002     50997     50996     50998
     50997     50996     50999     50998     50996     50999     50999     51002     51003
     50999     51002     51004     50999     51002     51005     51000     50999     51001
     51000     50999     51002     51001     50999     51002     51002     51005     51006
     51002     51005     51007     51002     51005     51008     51003     51002     51004
     51003     51002     51005     51004     51002     51005     51005     51008     51009
     51005     51008     51010     51005     51008     51011     51006     51005     51007
     51006     51005     51008     51007     51005     51008     51008     51011     51012
     51008     51011     51013     51008     51011     51014     51009     51008     51010
     51009     51008     51011     51010     51008     51011     51011     51014     51015
     51011     51014     51016     51011     51014     51017     51012     51011     51013
     51012     51011     51014     51013     51011     51014     51014     51017     51018
     51014     51017     51019     51014     51017     51020     51015     51014     51016
     51015     51014     51017     51016     51014     51017     51017     51020     51021
     51017     51020     51022     51017     51020     51023     51018     51017     51019
     51018     51017     51020     51019     51017     51020     51020     51023     51024
     51020     51023     51025     51020     51023     51026     51021     51020     51022
     51021     51020     51023     51022     51020     51023     51023     51026     51027
     51023     51026     51028     51023     51026     51029     51024     51023     51025
     51024     51023     51026     51025     51023     51026     51027     51026     51028
     51027     51026     51029     51028     51026     51029     51030     51034     51035
     51030     51034     51036     51030     51034     51037     51031     51030     51032
     51031     51030     51033     51031     51030     51034     51032     51030     51033
     51032     51030     51034     51033     51030     51034     51034     51037     51038
     51034     51037     51039     51034     51037     51044     51035     51034     51036
     51035     51034     51037     51036     51034     51037     51037     51044     51040
     51038     51037     51039     51038     51037     51044     51039     51037     51044
     51040     51043     51045     51041     51040     51042     51041     51040     51043
     51041     51040     51044     51042     51040     51043     51042     51040     51044
     51043     51040     51044     51043     51045     51046     51043     51045     51047
     51043     51045     51048     51045     51048     51049     51045     51048     51050
     51045     51048     51056     51046     51045     51047     51046     51045     51048
     51047     51045     51048     51048     51050     51051     51048     51056     51057
     51048     51056     51058     51048     51056     51059     51049     51048     51050
     51049     51048     51056     51050     51048     51056     51050     51051     51052
     51050     51051     51053     51051     51053     51054     51051     51053     51055
     51051     51053     51065     51052     51051     51053     51053     51065     51066
     51053     51065     51067     51053     51065     51068     51054     51053     51055
     51054     51053     51065     51055     51053     51065     51056     51059     51060
     51057     51056     51058     51057     51056     51059     51058     51056     51059
     51059     51060     51061     51059     51060     51062     51060     51062     51063
     51060     51062     51064     51060     51062     51106     51061     51060     51062
     51062     51106     51107     51062     51106     51108     51062     51106     51109
     51063     51062     51064     51063     51062     51106     51064     51062     51106
     51065     51068     51069     51065     51068     51070     51065     51068     51071
     51066     51065     51067     51066     51065     51068     51067     51065     51068
     51068     51071     51072     51068     51071     51073     51068     51071     51074
     51069     51068     51070     51069     51068     51071     51070     51068     51071
     51071     51074     51075     51071     51074     51076     51071     51074     51077
     51072     51071     51073     51072     51071     51074     51073     51071     51074
     51074     51077     51078     51074     51077     51079     51074     51077     51080
     51075     51074     51076     51075     51074     51077     51076     51074     51077
     51077     51080     51081     51077     51080     51082     51077     51080     51083
     51078     51077     51079     51078     51077     51080     51079     51077     51080
     51080     51083     51084     51080     51083     51085     51081     51080     51082
     51081     51080     51083     51082     51080     51083     51083     51085     51086
     51083     51085     51087     51084     51083     51085     51085     51087     51088
     51085     51087     51089     51085     51087     51090     51086     51085     51087
     51087     51090     51091     51087     51090     51092     51087     51090     51093
     51088     51087     51089     51088     51087     51090     51089     51087     51090
     51090     51093     51094     51090     51093     51095     51090     51093     51096
     51091     51090     51092     51091     51090     51093     51092     51090     51093
     51093     51096     51097     51093     51096     51098     51093     51096     51099
     51094     51093     51095     51094     51093     51096     51095     51093     51096
     51096     51099     51100     51096     51099     51101     51096     51099     51102
     51097     51096     51098     51097     51096     51099     51098     51096     51099
     51099     51102     51103     51099     51102     51104     51099     51102     51105
     51100     51099     51101     51100     51099     51102     51101     51099     51102
     51103     51102     51104     51103     51102     51105     51104     51102     51105
     51106     51109     51110     51106     51109     51111     51106     51109     51112
     51107     51106     51108     51107     51106     51109     51108     51106     51109
     51109     51112     51113     51109     51112     51114     51109     51112     51115
     51110     51109     51111     51110     51109     51112     51111     51109     51112
     51112     51115     51116     51112     51115     51117     51112     51115     51118
     51113     51112     51114     51113     51112     51115     51114     51112     51115
     51115     51118     51119     51115     51118     51120     51115     51118     51121
     51116     51115     51117     51116     51115     51118     51117     51115     51118
     51118     51121     51122     51118     51121     51123     51118     51121     51124
     51119     51118     51120     51119     51118     51121     51120     51118     51121
     51121     51124     51125     51121     51124     51126     51121     51124     51127
     51122     51121     51123     51122     51121     51124     51123     51121     51124
     51124     51127     51128     51124     51127     51129     51124     51127     51130
     51125     51124     51126     51125     51124     51127     51126     51124     51127
     51127     51130     51131     51127     51130     51132     51127     51130     51133
     51128     51127     51129     51128     51127     51130     51129     51127     51130
     51130     51133     51134     51130     51133     51135     51130     51133     51136
     51131     51130     51132     51131     51130     51133     51132     51130     51133
     51133     51136     51137     51133     51136     51138     51133     51136     51139
     51134     51133     51135     51134     51133     51136     51135     51133     51136
     51136     51139     51140     51136     51139     51141     51136     51139     51142
     51137     51136     51138     51137     51136     51139     51138     51136     51139
     51139     51142     51143     51139     51142     51144     51139     51142     51145
     51140     51139     51141     51140     51139     51142     51141     51139     51142
     51142     51145     51146     51142     51145     51147     51142     51145     51148
     51143     51142     51144     51143     51142     51145     51144     51142     51145
     51146     51145     51147     51146     51145     51148     51147     51145     51148
     51149     51152     51153     51149     51154     51155     51149     51154     51156
     51149     51154     51158     51150     51149     51151     51150     51149     51152
     51150     51149     51154     51151     51149     51152     51151     51149     51154
     51152     51149     51154     51154     51156     51157     51154     51158     51159
     51154     51158     51160     51154     51158     51164     51155     51154     51156
     51155     51154     51158     51156     51154     51158     51158     51164     51161
     51159     51158     51160     51159     51158     51164     51160     51158     51164
     51161     51165     51166     51162     51161     51163     51162     51161     51164
     51162     51161     51165     51163     51161     51164     51163     51161     51165
     51164     51161     51165     51165     51166     51167     51165     51166     51168
     51165     51166     51169     51166     51169     51170     51166     51169     51171
     51166     51169     51177     51167     51166     51168     51167     51166     51169
     51168     51166     51169     51169     51171     51172     51169     51177     51178
     51169     51177     51179     51169     51177     51180     51170     51169     51171
     51170     51169     51177     51171     51169     51177     51171     51172     51173
     51171     51172     51174     51172     51174     51175     51172     51174     51176
     51172     51174     51186     51173     51172     51174     51174     51186     51187
     51174     51186     51188     51174     51186     51189     51175     51174     51176
     51175     51174     51186     51176     51174     51186     51177     51180     51181
     51178     51177     51179     51178     51177     51180     51179     51177     51180
     51180     51181     51182     51180     51181     51183     51181     51183     51184
     51181     51183     51185     51181     51183     51233     51182     51181     51183
     51183     51233     51234     51183     51233     51235     51183     51233     51236
     51184     51183     51185     51184     51183     51233     51185     51183     51233
     51186     51189     51190     51186     51189     51191     51186     51189     51192
     51187     51186     51188     51187     51186     51189     51188     51186     51189
     51189     51192     51193     51189     51192     51194     51189     51192     51195
     51190     51189     51191     51190     51189     51192     51191     51189     51192
     51192     51195     51196     51192     51195     51197     51192     51195     51198
     51193     51192     51194     51193     51192     51195     51194     51192     51195
     51195     51198     51199     51195     51198     51200     51195     51198     51201
     51196     51195     51197     51196     51195     51198     51197     51195     51198
     51198     51201     51202     51198     51201     51203     51198     51201     51204
     51199     51198     51200     51199     51198     51201     51200     51198     51201
     51201     51204     51205     51201     51204     51206     51201     51204     51207
     51202     51201     51203     51202     51201     51204     51203     51201     51204
     51204     51207     51208     51204     51207     51209     51204     51207     51210
     51205     51204     51206     51205     51204     51207     51206     51204     51207
     51207     51210     51211     51207     51210     51212     51208     51207     51209
     51208     51207     51210     51209     51207     51210     51210     51212     51213
     51210     51212     51214     51211     51210     51212     51212     51214     51215
     51212     51214     51216     51212     51214     51217     51213     51212     51214
     51214     51217     51218     51214     51217     51219     51214     51217     51220
     51215     51214     51216     51215     51214     51217     51216     51214     51217
     51217     51220     51221     51217     51220     51222     51217     51220     51223
     51218     51217     51219     51218     51217     51220     51219     51217     51220
     51220     51223     51224     51220     51223     51225     51220     51223     51226
     51221     51220     51222     51221     51220     51223     51222     51220     51223
     51223     51226     51227     51223     51226     51228     51223     51226     51229
     51224     51223     51225     51224     51223     51226     51225     51223     51226
     51226     51229     51230     51226     51229     51231     51226     51229     51232
     51227     51226     51228     51227     51226     51229     51228     51226     51229
     51230     51229     51231     51230     51229     51232     51231     51229     51232
     51233     51236     51237     51233     51236     51238     51233     51236     51239
     51234     51233     51235     51234     51233     51236     51235     51233     51236
     51236     51239     51240     51236     51239     51241     51236     51239     51242
     51237     51236     51238     51237     51236     51239     51238     51236     51239
     51239     51242     51243     51239     51242     51244     51239     51242     51245
     51240     51239     51241     51240     51239     51242     51241     51239     51242
     51242     51245     51246     51242     51245     51247     51242     51245     51248
     51243     51242     51244     51243     51242     51245     51244     51242     51245
     51245     51248     51249     51245     51248     51250     51245     51248     51251
     51246     51245     51247     51246     51245     51248     51247     51245     51248
     51248     51251     51252     51248     51251     51253     51248     51251     51254
     51249     51248     51250     51249     51248     51251     51250     51248     51251
     51251     51254     51255     51251     51254     51256     51251     51254     51257
     51252     51251     51253     51252     51251     51254     51253     51251     51254
     51254     51257     51258     51254     51257     51259     51254     51257     51260
     51255     51254     51256     51255     51254     51257     51256     51254     51257
     51257     51260     51261     51257     51260     51262     51257     51260     51263
     51258     51257     51259     51258     51257     51260     51259     51257     51260
     51260     51263     51264     51260     51263     51265     51260     51263     51266
     51261     51260     51262     51261     51260     51263     51262     51260     51263
     51263     51266     51267     51263     51266     51268     51263     51266     51269
     51264     51263     51265     51264     51263     51266     51265     51263     51266
     51266     51269     51270     51266     51269     51271     51266     51269     51272
     51267     51266     51268     51267     51266     51269     51268     51266     51269
     51269     51272     51273     51269     51272     51274     51269     51272     51275
     51270     51269     51271     51270     51269     51272     51271     51269     51272
     51273     51272     51274     51273     51272     51275     51274     51272     51275
     51276     51282     51279     51276     51287     51288     51276     51287     51289
     51276     51287     51291     51277     51276     51278     51277     51276     51282
     51277     51276     51287     51278     51276     51282     51278     51276     51287
     51279     51283     51284     51280     51279     51281     51280     51279     51282
     51280     51279     51283     51281     51279     51282     51281     51279     51283
     51282     51276     51287     51282     51279     51283     51283     51284     51285
     51283     51284     51286     51283     51284     51319     51284     51319     51320
     51284     51319     51321     51284     51319     51327     51285     51284     51286
     51285     51284     51319     51286     51284     51319     51287     51289     51290
     51287     51291     51292     51287     51291     51293     51287     51291     51297
     51288     51287     51289     51288     51287     51291     51289     51287     51291
     51291     51297     51294     51292     51291     51293     51292     51291     51297
     51293     51291     51297     51294     51298     51299     51295     51294     51296
     51295     51294     51297     51295     51294     51298     51296     51294     51297
     51296     51294     51298     51297     51294     51298     51298     51299     51300
     51298     51299     51301     51298     51299     51302     51299     51302     51303
     51299     51302     51304     51299     51302     51310     51300     51299     51301
     51300     51299     51302     51301     51299     51302     51302     51304     51305
     51302     51310     51311     51302     51310     51312     51302     51310     51313
     51303     51302     51304     51303     51302     51310     51304     51302     51310
     51304     51305     51306     51304     51305     51307     51305     51307     51308
     51305     51307     51309     51305     51307     51336     51306     51305     51307
     51307     51336     51337     51307     51336     51338     51307     51336     51339
     51308     51307     51309     51308     51307     51336     51309     51307     51336
     51310     51313     51314     51311     51310     51312     51311     51310     51313
     51312     51310     51313     51313     51314     51315     51313     51314     51316
     51314     51316     51317     51314     51316     51318     51314     51316     51383
     51315     51314     51316     51316     51383     51384     51316     51383     51385
     51316     51383     51386     51317     51316     51318     51317     51316     51383
     51318     51316     51383     51319     51321     51322     51319     51327     51328
     51319     51327     51329     51319     51327     51330     51320     51319     51321
     51320     51319     51327     51321     51319     51327     51321     51322     51323
     51321     51322     51324     51322     51324     51325     51322     51324     51326
     51322     51324     51426     51323     51322     51324     51324     51426     51427
     51324     51426     51428     51324     51426     51429     51325     51324     51326
     51325     51324     51426     51326     51324     51426     51327     51330     51331
     51328     51327     51329     51328     51327     51330     51329     51327     51330
     51330     51331     51332     51330     51331     51333     51331     51333     51334
     51331     51333     51335     51331     51333     51473     51332     51331     51333
     51333     51473     51474     51333     51473     51475     51333     51473     51476
     51334     51333     51335     51334     51333     51473     51335     51333     51473
     51336     51339     51340     51336     51339     51341     51336     51339     51342
     51337     51336     51338     51337     51336     51339     51338     51336     51339
     51339     51342     51343     51339     51342     51344     51339     51342     51345
     51340     51339     51341     51340     51339     51342     51341     51339     51342
     51342     51345     51346     51342     51345     51347     51342     51345     51348
     51343     51342     51344     51343     51342     51345     51344     51342     51345
     51345     51348     51349     51345     51348     51350     51345     51348     51351
     51346     51345     51347     51346     51345     51348     51347     51345     51348
     51348     51351     51352     51348     51351     51353     51348     51351     51354
     51349     51348     51350     51349     51348     51351     51350     51348     51351
     51351     51354     51355     51351     51354     51356     51351     51354     51357
     51352     51351     51353     51352     51351     51354     51353     51351     51354
     51354     51357     51358     51354     51357     51359     51354     51357     51360
     51355     51354     51356     51355     51354     51357     51356     51354     51357
     51357     51360     51361     51357     51360     51362     51358     51357     51359
     51358     51357     51360     51359     51357     51360     51360     51362     51363
     51360     51362     51364     51361     51360     51362     51362     51364     51365
     51362     51364     51366     51362     51364     51367     51363     51362     51364
     51364     51367     51368     51364     51367     51369     51364     51367     51370
     51365     51364     51366     51365     51364     51367     51366     51364     51367
     51367     51370     51371     51367     51370     51372     51367     51370     51373
     51368     51367     51369     51368     51367     51370     51369     51367     51370
     51370     51373     51374     51370     51373     51375     51370     51373     51376
     51371     51370     51372     51371     51370     51373     51372     51370     51373
     51373     51376     51377     51373     51376     51378     51373     51376     51379
     51374     51373     51375     51374     51373     51376     51375     51373     51376
     51376     51379     51380     51376     51379     51381     51376     51379     51382
     51377     51376     51378     51377     51376     51379     51378     51376     51379
     51380     51379     51381     51380     51379     51382     51381     51379     51382
     51383     51386     51387     51383     51386     51388     51383     51386     51389
     51384     51383     51385     51384     51383     51386     51385     51383     51386
     51386     51389     51390     51386     51389     51391     51386     51389     51392
     51387     51386     51388     51387     51386     51389     51388     51386     51389
     51389     51392     51393     51389     51392     51394     51389     51392     51395
     51390     51389     51391     51390     51389     51392     51391     51389     51392
     51392     51395     51396     51392     51395     51397     51392     51395     51398
     51393     51392     51394     51393     51392     51395     51394     51392     51395
     51395     51398     51399     51395     51398     51400     51395     51398     51401
     51396     51395     51397     51396     51395     51398     51397     51395     51398
     51398     51401     51402     51398     51401     51403     51398     51401     51404
     51399     51398     51400     51399     51398     51401     51400     51398     51401
     51401     51404     51405     51401     51404     51406     51401     51404     51407
     51402     51401     51403     51402     51401     51404     51403     51401     51404
     51404     51407     51408     51404     51407     51409     51404     51407     51410
     51405     51404     51406     51405     51404     51407     51406     51404     51407
     51407     51410     51411     51407     51410     51412     51407     51410     51413
     51408     51407     51409     51408     51407     51410     51409     51407     51410
     51410     51413     51414     51410     51413     51415     51410     51413     51416
     51411     51410     51412     51411     51410     51413     51412     51410     51413
     51413     51416     51417     51413     51416     51418     51413     51416     51419
     51414     51413     51415     51414     51413     51416     51415     51413     51416
     51416     51419     51420     51416     51419     51421     51416     51419     51422
     51417     51416     51418     51417     51416     51419     51418     51416     51419
     51419     51422     51423     51419     51422     51424     51419     51422     51425
     51420     51419     51421     51420     51419     51422     51421     51419     51422
     51423     51422     51424     51423     51422     51425     51424     51422     51425
     51426     51429     51430     51426     51429     51431     51426     51429     51432
     51427     51426     51428     51427     51426     51429     51428     51426     51429
     51429     51432     51433     51429     51432     51434     51429     51432     51435
     51430     51429     51431     51430     51429     51432     51431     51429     51432
     51432     51435     51436     51432     51435     51437     51432     51435     51438
     51433     51432     51434     51433     51432     51435     51434     51432     51435
     51435     51438     51439     51435     51438     51440     51435     51438     51441
     51436     51435     51437     51436     51435     51438     51437     51435     51438
     51438     51441     51442     51438     51441     51443     51438     51441     51444
     51439     51438     51440     51439     51438     51441     51440     51438     51441
     51441     51444     51445     51441     51444     51446     51441     51444     51447
     51442     51441     51443     51442     51441     51444     51443     51441     51444
     51444     51447     51448     51444     51447     51449     51444     51447     51450
     51445     51444     51446     51445     51444     51447     51446     51444     51447
     51447     51450     51451     51447     51450     51452     51448     51447     51449
     51448     51447     51450     51449     51447     51450     51450     51452     51453
     51450     51452     51454     51451     51450     51452     51452     51454     51455
     51452     51454     51456     51452     51454     51457     51453     51452     51454
     51454     51457     51458     51454     51457     51459     51454     51457     51460
     51455     51454     51456     51455     51454     51457     51456     51454     51457
     51457     51460     51461     51457     51460     51462     51457     51460     51463
     51458     51457     51459     51458     51457     51460     51459     51457     51460
     51460     51463     51464     51460     51463     51465     51460     51463     51466
     51461     51460     51462     51461     51460     51463     51462     51460     51463
     51463     51466     51467     51463     51466     51468     51463     51466     51469
     51464     51463     51465     51464     51463     51466     51465     51463     51466
     51466     51469     51470     51466     51469     51471     51466     51469     51472
     51467     51466     51468     51467     51466     51469     51468     51466     51469
     51470     51469     51471     51470     51469     51472     51471     51469     51472
     51473     51476     51477     51473     51476     51478     51473     51476     51479
     51474     51473     51475     51474     51473     51476     51475     51473     51476
     51476     51479     51480     51476     51479     51481     51476     51479     51482
     51477     51476     51478     51477     51476     51479     51478     51476     51479
     51479     51482     51483     51479     51482     51484     51479     51482     51485
     51480     51479     51481     51480     51479     51482     51481     51479     51482
     51482     51485     51486     51482     51485     51487     51482     51485     51488
     51483     51482     51484     51483     51482     51485     51484     51482     51485
     51485     51488     51489     51485     51488     51490     51485     51488     51491
     51486     51485     51487     51486     51485     51488     51487     51485     51488
     51488     51491     51492     51488     51491     51493     51488     51491     51494
     51489     51488     51490     51489     51488     51491     51490     51488     51491
     51491     51494     51495     51491     51494     51496     51491     51494     51497
     51492     51491     51493     51492     51491     51494     51493     51491     51494
     51494     51497     51498     51494     51497     51499     51494     51497     51500
     51495     51494     51496     51495     51494     51497     51496     51494     51497
     51497     51500     51501     51497     51500     51502     51497     51500     51503
     51498     51497     51499     51498     51497     51500     51499     51497     51500
     51500     51503     51504     51500     51503     51505     51500     51503     51506
     51501     51500     51502     51501     51500     51503     51502     51500     51503
     51503     51506     51507     51503     51506     51508     51503     51506     51509
     51504     51503     51505     51504     51503     51506     51505     51503     51506
     51506     51509     51510     51506     51509     51511     51506     51509     51512
     51507     51506     51508     51507     51506     51509     51508     51506     51509
     51509     51512     51513     51509     51512     51514     51509     51512     51515
     51510     51509     51511     51510     51509     51512     51511     51509     51512
     51513     51512     51514     51513     51512     51515     51514     51512     51515

    149440 !NPHI: dihedrals
         1         3         2       300         1         3         5         6
         1         3         5         7         1         3         5        14
         2         3         5         6         2         3         5         7
         2         3         5        14         2       300       297       298
         2       300       297       299         2       300       303       301
         2       300       304       305         2       300       304       306
         2       300       304       307         3         2       300       297
         3         2       300       303         3         2       300       304
         3         5         6         8         3         5        14        15
         3         5        14        16         3         5        14        21
         4         3         2       300         4         3         5         6
         4         3         5         7         4         3         5        14
         5         3         2       300         5         6         8         9
         5         6         8        10         5         6         8        29
         5        14        16        17         5        14        21        22
         5        14        21        23         5        14        21        29
         6         5        14        15         6         5        14        16
         6         5        14        21         6         8        10        11
         6         8        29        21         6         8        29        30
         6         8        29        31         7         5         6         8
         7         5        14        15         7         5        14        16
         7         5        14        21         8         6         5        14
         8        10        11        12         8        10        11        13
         8        10        11        37         8        29        21        14
         8        29        21        22         8        29        21        23
         8        29        31        32         8        29        31       138
         9         8        10        11         9         8        29        21
         9         8        29        30         9         8        29        31
        10         8        29        21        10         8        29        30
        10         8        29        31        10        11        37        33
        10        11        37        38        10        11        37        39
        11        10         8        29        11        37        33        34
        11        37        33        35        11        37        33        47
        11        37        39        40        12        11        37        33
        12        11        37        38        12        11        37        39
        13        11        37        33        13        11        37        38
        13        11        37        39        14        16        17        18
        14        16        17        19        14        16        17        20
        14        21        22        24        14        21        29        30
        14        21        29        31        15        14        16        17
        15        14        21        22        15        14        21        23
        15        14        21        29        16        14        21        22
        16        14        21        23        16        14        21        29
        17        16        14        21        21        22        24        25
        21        22        24        26        21        29        31        32
        21        29        31       138        22        21        29        30
        22        21        29        31        22        24        26        27
        22        24        26        28        22        24        26        59
        23        21        22        24        23        21        29        30
        23        21        29        31        24        22        21        29
        24        26        59        60        24        26        59        61
        24        26        59       104        25        24        26        27
        25        24        26        28        25        24        26        59
        26        59        61        62        26        59       104       105
        26        59       104       106        26        59       104       107
        27        26        59        60        27        26        59        61
        27        26        59       104        28        26        59        60
        28        26        59        61        28        26        59       104
        29        31       138       139        29        31       138       140
        30        29        31        32        30        29        31       138
        31       138       140       141        31       138       140       142
        31       138       140       143        32        31       138       139
        32        31       138       140        33        37        39        40
        33        47        49        50        33        47        55        40
        33        47        55        56        33        47        55        57
        34        33        35        36        34        33        37        38
        34        33        37        39        34        33        47        48
        34        33        47        49        34        33        47        55
        35        33        37        38        35        33        37        39
        35        33        47        48        35        33        47        49
        35        33        47        55        36        35        33        37
        36        35        33        47        37        33        47        48
        37        33        47        49        37        33        47        55
        37        39        40        41        37        39        40        42
        37        39        40        55        38        37        33        47
        38        37        39        40        39        37        33        47
        39        40        42        46        39        40        55        47
        39        40        55        56        39        40        55        57
        40        42        46        43        40        42        46        44
        40        42        46        45        40        55        47        48
        40        55        47        49        40        55        57        58
        40        55        57       254        41        40        42        46
        41        40        55        47        41        40        55        56
        41        40        55        57        42        40        55        47
        42        40        55        56        42        40        55        57
        46        42        40        55        47        49        50        51
        47        49        50        52        47        55        57        58
        47        55        57       254        48        47        49        50
        48        47        55        56        48        47        55        57
        49        47        55        56        49        47        55        57
        49        50        52        53        49        50        52        54
        49        50        52       216        50        49        47        55
        50        52       216       217        50        52       216       218
        50        52       216       220        51        50        52        53
        51        50        52        54        51        50        52       216
        52       216       218       219        52       216       220       221
        52       216       220       222        52       216       220       223
        53        52       216       217        53        52       216       218
        53        52       216       220        54        52       216       217
        54        52       216       218        54        52       216       220
        55        57       254       255        55        57       254       256
        56        55        57        58        56        55        57       254
        57       254       256       257        57       254       256       258
        57       254       256       259        58        57       254       255
        58        57       254       256        59        61        62        63
        59        61        62        64        59       104       107       108
        59       104       107       109        59       104       107       110
        60        59        61        62        60        59       104       105
        60        59       104       106        60        59       104       107
        61        59       104       105        61        59       104       106
        61        59       104       107        61        62        64        65
        61        62        64        66        61        62        64        67
        62        61        59       104        62        64        67        68
        62        64        67        69        62        64        67        70
        63        62        64        65        63        62        64        66
        63        62        64        67        64        67        70        71
        64        67        70        72        64        67        70        73
        65        64        67        68        65        64        67        69
        65        64        67        70        66        64        67        68
        66        64        67        69        66        64        67        70
        67        70        73        74        67        70        73        75
        67        70        73        76        68        67        70        71
        68        67        70        72        68        67        70        73
        69        67        70        71        69        67        70        72
        69        67        70        73        70        73        76        77
        70        73        76        78        70        73        76        79
        71        70        73        74        71        70        73        75
        71        70        73        76        72        70        73        74
        72        70        73        75        72        70        73        76
        73        76        79        80        73        76        79        81
        73        76        79        82        74        73        76        77
        74        73        76        78        74        73        76        79
        75        73        76        77        75        73        76        78
        75        73        76        79        76        79        82        83
        76        79        82        84        76        79        82        85
        77        76        79        80        77        76        79        81
        77        76        79        82        78        76        79        80
        78        76        79        81        78        76        79        82
        79        82        85        86        79        82        85        87
        79        82        85        88        80        79        82        83
        80        79        82        84        80        79        82        85
        81        79        82        83        81        79        82        84
        81        79        82        85        82        85        88        89
        82        85        88        90        82        85        88        91
        83        82        85        86        83        82        85        87
        83        82        85        88        84        82        85        86
        84        82        85        87        84        82        85        88
        85        88        91        92        85        88        91        93
        85        88        91        94        86        85        88        89
        86        85        88        90        86        85        88        91
        87        85        88        89        87        85        88        90
        87        85        88        91        88        91        94        95
        88        91        94        96        88        91        94        97
        89        88        91        92        89        88        91        93
        89        88        91        94        90        88        91        92
        90        88        91        93        90        88        91        94
        91        94        97        98        91        94        97        99
        91        94        97       100        92        91        94        95
        92        91        94        96        92        91        94        97
        93        91        94        95        93        91        94        96
        93        91        94        97        94        97       100       101
        94        97       100       102        94        97       100       103
        95        94        97        98        95        94        97        99
        95        94        97       100        96        94        97        98
        96        94        97        99        96        94        97       100
        98        97       100       101        98        97       100       102
        98        97       100       103        99        97       100       101
        99        97       100       102        99        97       100       103
       104       107       110       111       104       107       110       112
       104       107       110       113       105       104       107       108
       105       104       107       109       105       104       107       110
       106       104       107       108       106       104       107       109
       106       104       107       110       107       110       113       114
       107       110       113       115       107       110       113       116
       108       107       110       111       108       107       110       112
       108       107       110       113       109       107       110       111
       109       107       110       112       109       107       110       113
       110       113       116       117       110       113       116       118
       110       113       116       119       111       110       113       114
       111       110       113       115       111       110       113       116
       112       110       113       114       112       110       113       115
       112       110       113       116       113       116       119       120
       113       116       119       121       113       116       119       122
       114       113       116       117       114       113       116       118
       114       113       116       119       115       113       116       117
       115       113       116       118       115       113       116       119
       116       119       122       123       116       119       122       124
       116       119       122       125       117       116       119       120
       117       116       119       121       117       116       119       122
       118       116       119       120       118       116       119       121
       118       116       119       122       119       122       125       126
       119       122       125       127       119       122       125       128
       120       119       122       123       120       119       122       124
       120       119       122       125       121       119       122       123
       121       119       122       124       121       119       122       125
       122       125       128       129       122       125       128       130
       122       125       128       131       123       122       125       126
       123       122       125       127       123       122       125       128
       124       122       125       126       124       122       125       127
       124       122       125       128       125       128       131       132
       125       128       131       133       125       128       131       134
       126       125       128       129       126       125       128       130
       126       125       128       131       127       125       128       129
       127       125       128       130       127       125       128       131
       128       131       134       135       128       131       134       136
       128       131       134       137       129       128       131       132
       129       128       131       133       129       128       131       134
       130       128       131       132       130       128       131       133
       130       128       131       134       132       131       134       135
       132       131       134       136       132       131       134       137
       133       131       134       135       133       131       134       136
       133       131       134       137       138       140       143       144
       138       140       143       145       138       140       143       182
       139       138       140       141       139       138       140       142
       139       138       140       143       140       143       145       146
       140       143       182       183       140       143       182       184
       140       143       182       185       141       140       143       144
       141       140       143       145       141       140       143       182
       142       140       143       144       142       140       143       145
       142       140       143       182       143       145       146       147
       143       145       146       148       143       182       185       186
       143       182       185       187       143       182       185       188
       144       143       145       146       144       143       182       183
       144       143       182       184       144       143       182       185
       145       143       182       183       145       143       182       184
       145       143       182       185       145       146       148       149
       145       146       148       150       145       146       148       151
       146       145       143       182       146       148       151       152
       146       148       151       153       146       148       151       154
       147       146       148       149       147       146       148       150
       147       146       148       151       148       151       154       155
       148       151       154       156       148       151       154       157
       149       148       151       152       149       148       151       153
       149       148       151       154       150       148       151       152
       150       148       151       153       150       148       151       154
       151       154       157       158       151       154       157       159
       151       154       157       160       152       151       154       155
       152       151       154       156       152       151       154       157
       153       151       154       155       153       151       154       156
       153       151       154       157       154       157       160       161
       154       157       160       162       154       157       160       163
       155       154       157       158       155       154       157       159
       155       154       157       160       156       154       157       158
       156       154       157       159       156       154       157       160
       157       160       163       164       157       160       163       165
       157       160       163       166       158       157       160       161
       158       157       160       162       158       157       160       163
       159       157       160       161       159       157       160       162
       159       157       160       163       160       163       166       167
       160       163       166       168       160       163       166       169
       161       160       163       164       161       160       163       165
       161       160       163       166       162       160       163       164
       162       160       163       165       162       160       163       166
       163       166       169       170       163       166       169       171
       163       166       169       172       164       163       166       167
       164       163       166       168       164       163       166       169
       165       163       166       167       165       163       166       168
       165       163       166       169       166       169       172       173
       166       169       172       174       166       169       172       175
       167       166       169       170       167       166       169       171
       167       166       169       172       168       166       169       170
       168       166       169       171       168       166       169       172
       169       172       175       176       169       172       175       177
       169       172       175       178       170       169       172       173
       170       169       172       174       170       169       172       175
       171       169       172       173       171       169       172       174
       171       169       172       175       172       175       178       179
       172       175       178       180       172       175       178       181
       173       172       175       176       173       172       175       177
       173       172       175       178       174       172       175       176
       174       172       175       177       174       172       175       178
       176       175       178       179       176       175       178       180
       176       175       178       181       177       175       178       179
       177       175       178       180       177       175       178       181
       182       185       188       189       182       185       188       190
       182       185       188       191       183       182       185       186
       183       182       185       187       183       182       185       188
       184       182       185       186       184       182       185       187
       184       182       185       188       185       188       191       192
       185       188       191       193       185       188       191       194
       186       185       188       189       186       185       188       190
       186       185       188       191       187       185       188       189
       187       185       188       190       187       185       188       191
       188       191       194       195       188       191       194       196
       188       191       194       197       189       188       191       192
       189       188       191       193       189       188       191       194
       190       188       191       192       190       188       191       193
       190       188       191       194       191       194       197       198
       191       194       197       199       191       194       197       200
       192       191       194       195       192       191       194       196
       192       191       194       197       193       191       194       195
       193       191       194       196       193       191       194       197
       194       197       200       201       194       197       200       202
       194       197       200       203       195       194       197       198
       195       194       197       199       195       194       197       200
       196       194       197       198       196       194       197       199
       196       194       197       200       197       200       203       204
       197       200       203       205       197       200       203       206
       198       197       200       201       198       197       200       202
       198       197       200       203       199       197       200       201
       199       197       200       202       199       197       200       203
       200       203       206       207       200       203       206       208
       200       203       206       209       201       200       203       204
       201       200       203       205       201       200       203       206
       202       200       203       204       202       200       203       205
       202       200       203       206       203       206       209       210
       203       206       209       211       203       206       209       212
       204       203       206       207       204       203       206       208
       204       203       206       209       205       203       206       207
       205       203       206       208       205       203       206       209
       206       209       212       213       206       209       212       214
       206       209       212       215       207       206       209       210
       207       206       209       211       207       206       209       212
       208       206       209       210       208       206       209       211
       208       206       209       212       210       209       212       213
       210       209       212       214       210       209       212       215
       211       209       212       213       211       209       212       214
       211       209       212       215       216       220       223       224
       216       220       223       225       216       220       223       226
       217       216       218       219       217       216       220       221
       217       216       220       222       217       216       220       223
       218       216       220       221       218       216       220       222
       218       216       220       223       219       218       216       220
       220       223       226       227       220       223       226       228
       220       223       226       229       221       220       223       224
       221       220       223       225       221       220       223       226
       222       220       223       224       222       220       223       225
       222       220       223       226       223       226       229       230
       223       226       229       231       223       226       229       232
       224       223       226       227       224       223       226       228
       224       223       226       229       225       223       226       227
       225       223       226       228       225       223       226       229
       226       229       232       233       226       229       232       234
       226       229       232       235       227       226       229       230
       227       226       229       231       227       226       229       232
       228       226       229       230       228       226       229       231
       228       226       229       232       229       232       235       236
       229       232       235       237       229       232       235       238
       230       229       232       233       230       229       232       234
       230       229       232       235       231       229       232       233
       231       229       232       234       231       229       232       235
       232       235       238       239       232       235       238       240
       232       235       238       241       233       232       235       236
       233       232       235       237       233       232       235       238
       234       232       235       236       234       232       235       237
       234       232       235       238       235       238       241       242
       235       238       241       243       235       238       241       244
       236       235       238       239       236       235       238       240
       236       235       238       241       237       235       238       239
       237       235       238       240       237       235       238       241
       238       241       244       245       238       241       244       246
       238       241       244       247       239       238       241       242
       239       238       241       243       239       238       241       244
       240       238       241       242       240       238       241       243
       240       238       241       244       241       244       247       248
       241       244       247       249       241       244       247       250
       242       241       244       245       242       241       244       246
       242       241       244       247       243       241       244       245
       243       241       244       246       243       241       244       247
       244       247       250       251       244       247       250       252
       244       247       250       253       245       244       247       248
       245       244       247       249       245       244       247       250
       246       244       247       248       246       244       247       249
       246       244       247       250       248       247       250       251
       248       247       250       252       248       247       250       253
       249       247       250       251       249       247       250       252
       249       247       250       253       254       256       259       260
       254       256       259       261       254       256       259       263
       255       254       256       257       255       254       256       258
       255       254       256       259       256       259       261       262
       256       259       263       264       256       259       263       265
       256       259       263       266       257       256       259       260
       257       256       259       261       257       256       259       263
       258       256       259       260       258       256       259       261
       258       256       259       263       259       263       266       267
       259       263       266       268       259       263       266       269
       260       259       261       262       260       259       263       264
       260       259       263       265       260       259       263       266
       261       259       263       264       261       259       263       265
       261       259       263       266       262       261       259       263
       263       266       269       270       263       266       269       271
       263       266       269       272       264       263       266       267
       264       263       266       268       264       263       266       269
       265       263       266       267       265       263       266       268
       265       263       266       269       266       269       272       273
       266       269       272       274       266       269       272       275
       267       266       269       270       267       266       269       271
       267       266       269       272       268       266       269       270
       268       266       269       271       268       266       269       272
       269       272       275       276       269       272       275       277
       269       272       275       278       270       269       272       273
       270       269       272       274       270       269       272       275
       271       269       272       273       271       269       272       274
       271       269       272       275       272       275       278       279
       272       275       278       280       272       275       278       281
       273       272       275       276       273       272       275       277
       273       272       275       278       274       272       275       276
       274       272       275       277       274       272       275       278
       275       278       281       282       275       278       281       283
       275       278       281       284       276       275       278       279
       276       275       278       280       276       275       278       281
       277       275       278       279       277       275       278       280
       277       275       278       281       278       281       284       285
       278       281       284       286       278       281       284       287
       279       278       281       282       279       278       281       283
       279       278       281       284       280       278       281       282
       280       278       281       283       280       278       281       284
       281       284       287       288       281       284       287       289
       281       284       287       290       282       281       284       285
       282       281       284       286       282       281       284       287
       283       281       284       285       283       281       284       286
       283       281       284       287       284       287       290       291
       284       287       290       292       284       287       290       293
       285       284       287       288       285       284       287       289
       285       284       287       290       286       284       287       288
       286       284       287       289       286       284       287       290
       287       290       293       294       287       290       293       295
       287       290       293       296       288       287       290       291
       288       287       290       292       288       287       290       293
       289       287       290       291       289       287       290       292
       289       287       290       293       291       290       293       294
       291       290       293       295       291       290       293       296
       292       290       293       294       292       290       293       295
       292       290       293       296       297       300       303       301
       297       300       304       305       297       300       304       306
       297       300       304       307       298       297       300       303
       298       297       300       304       299       297       300       303
       299       297       300       304       300       303       301       302
       300       303       301       310       300       303       301       313
       300       304       307       308       300       304       307       309
       300       304       307       310       301       303       300       304
       301       310       307       304       301       310       307       308
       301       310       307       309       301       310       312       349
       301       313       315       316       301       313       317       318
       301       313       317       319       301       313       317       320
       302       301       310       307       302       301       310       311
       302       301       310       312       302       301       313       314
       302       301       313       315       302       301       313       317
       303       300       304       305       303       300       304       306
       303       300       304       307       303       301       310       307
       303       301       310       311       303       301       310       312
       303       301       313       314       303       301       313       315
       303       301       313       317       304       307       309       325
       304       307       310       311       304       307       310       312
       305       304       307       308       305       304       307       309
       305       304       307       310       306       304       307       308
       306       304       307       309       306       304       307       310
       307       309       325       322       307       309       325       328
       307       309       325       329       307       310       301       313
       307       310       312       349       308       307       309       325
       308       307       310       311       308       307       310       312
       309       307       310       311       309       307       310       312
       309       325       322       323       309       325       322       324
       309       325       328       326       309       325       329       330
       309       325       329       331       309       325       329       332
       310       301       313       314       310       301       313       315
       310       301       313       317       310       307       309       325
       310       312       349       350       310       312       349       353
       310       312       349       354       311       310       301       313
       311       310       312       349       312       310       301       313
       312       349       353       351       312       349       354       355
       312       349       354       356       312       349       354       358
       313       317       320       321       314       313       315       316
       314       313       317       318       314       313       317       319
       314       313       317       320       315       313       317       318
       315       313       317       319       315       313       317       320
       316       315       313       317       318       317       320       321
       319       317       320       321       322       325       328       326
       322       325       329       330       322       325       329       331
       322       325       329       332       323       322       325       328
       323       322       325       329       324       322       325       328
       324       322       325       329       325       328       326       327
       325       328       326       336       325       328       326       340
       325       329       332       333       325       329       332       334
       325       329       332       336       326       328       325       329
       326       336       332       329       326       336       332       333
       326       336       332       334       326       336       338       339
       326       340       342       343       326       340       344       345
       326       340       344       346       326       340       344       347
       327       326       336       332       327       326       336       337
       327       326       336       338       327       326       340       341
       327       326       340       342       327       326       340       344
       328       325       329       330       328       325       329       331
       328       325       329       332       328       326       336       332
       328       326       336       337       328       326       336       338
       328       326       340       341       328       326       340       342
       328       326       340       344       329       332       334       335
       329       332       336       337       329       332       336       338
       330       329       332       333       330       329       332       334
       330       329       332       336       331       329       332       333
       331       329       332       334       331       329       332       336
       332       336       326       340       332       336       338       339
       333       332       334       335       333       332       336       337
       333       332       336       338       334       332       336       337
       334       332       336       338       335       334       332       336
       336       326       340       341       336       326       340       342
       336       326       340       344       337       336       326       340
       337       336       338       339       338       336       326       340
       340       344       347       348       341       340       342       343
       341       340       344       345       341       340       344       346
       341       340       344       347       342       340       344       345
       342       340       344       346       342       340       344       347
       343       342       340       344       345       344       347       348
       346       344       347       348       349       353       351       352
       349       353       351       361       349       353       351       368
       349       354       356       357       349       354       358       359
       349       354       358       360       349       354       358       361
       350       349       353       351       350       349       354       355
       350       349       354       356       350       349       354       358
       351       353       349       354       351       361       358       354
       351       361       358       359       351       361       358       360
       351       361       363       364       351       368       370       371
       351       368       372       373       351       368       372       374
       351       368       372       375       352       351       361       358
       352       351       361       362       352       351       361       363
       352       351       368       369       352       351       368       370
       352       351       368       372       353       349       354       355
       353       349       354       356       353       349       354       358
       353       351       361       358       353       351       361       362
       353       351       361       363       353       351       368       369
       353       351       368       370       353       351       368       372
       354       358       360       377       354       358       361       362
       354       358       361       363       355       354       356       357
       355       354       358       359       355       354       358       360
       355       354       358       361       356       354       358       359
       356       354       358       360       356       354       358       361
       357       356       354       358       358       360       377       378
       358       360       377       381       358       360       377       382
       358       361       351       368       358       361       363       364
       359       358       360       377       359       358       361       362
       359       358       361       363       360       358       361       362
       360       358       361       363       360       377       381       379
       360       377       382       383       360       377       382       384
       360       377       382       386       361       351       368       369
       361       351       368       370       361       351       368       372
       361       358       360       377       361       363       364       365
       361       363       364       366       361       363       364       367
       362       361       351       368       362       361       363       364
       363       361       351       368       368       372       375       376
       369       368       370       371       369       368       372       373
       369       368       372       374       369       368       372       375
       370       368       372       373       370       368       372       374
       370       368       372       375       371       370       368       372
       373       372       375       376       374       372       375       376
       377       381       379       380       377       381       379       389
       377       381       379       396       377       382       384       385
       377       382       386       387       377       382       386       388
       377       382       386       389       378       377       381       379
       378       377       382       383       378       377       382       384
       378       377       382       386       379       381       377       382
       379       389       386       382       379       389       386       387
       379       389       386       388       379       389       391       392
       379       396       398       399       379       396       400       401
       379       396       400       402       379       396       400       403
       380       379       389       386       380       379       389       390
       380       379       389       391       380       379       396       397
       380       379       396       398       380       379       396       400
       381       377       382       383       381       377       382       384
       381       377       382       386       381       379       389       386
       381       379       389       390       381       379       389       391
       381       379       396       397       381       379       396       398
       381       379       396       400       382       386       388       430
       382       386       389       390       382       386       389       391
       383       382       384       385       383       382       386       387
       383       382       386       388       383       382       386       389
       384       382       386       387       384       382       386       388
       384       382       386       389       385       384       382       386
       386       388       430       431       386       388       430       434
       386       388       430       435       386       389       379       396
       386       389       391       392       387       386       388       430
       387       386       389       390       387       386       389       391
       388       386       389       390       388       386       389       391
       388       430       434       432       388       430       435       436
       388       430       435       437       388       430       435       439
       389       379       396       397       389       379       396       398
       389       379       396       400       389       386       388       430
       389       391       392       393       389       391       392       394
       389       391       392       395       390       389       379       396
       390       389       391       392       391       389       379       396
       396       400       403       404       397       396       398       399
       397       396       400       401       397       396       400       402
       397       396       400       403       398       396       400       401
       398       396       400       402       398       396       400       403
       399       398       396       400       400       403       404       405
       400       403       404       408       400       403       404       409
       401       400       403       404       402       400       403       404
       403       404       408       406       403       404       409       410
       403       404       409       411       403       404       409       413
       404       408       406       407       404       408       406       417
       404       408       406       421       404       409       411       412
       404       409       413       414       404       409       413       415
       404       409       413       417       405       404       408       406
       405       404       409       410       405       404       409       411
       405       404       409       413       406       408       404       409
       406       417       413       409       406       417       413       414
       406       417       413       415       406       417       419       420
       406       421       423       424       406       421       425       426
       406       421       425       427       406       421       425       428
       407       406       417       413       407       406       417       418
       407       406       417       419       407       406       421       422
       407       406       421       423       407       406       421       425
       408       404       409       410       408       404       409       411
       408       404       409       413       408       406       417       413
       408       406       417       418       408       406       417       419
       408       406       421       422       408       406       421       423
       408       406       421       425       409       413       415       416
       409       413       417       418       409       413       417       419
       410       409       411       412       410       409       413       414
       410       409       413       415       410       409       413       417
       411       409       413       414       411       409       413       415
       411       409       413       417       412       411       409       413
       413       417       406       421       413       417       419       420
       414       413       415       416       414       413       417       418
       414       413       417       419       415       413       417       418
       415       413       417       419       416       415       413       417
       417       406       421       422       417       406       421       423
       417       406       421       425       418       417       406       421
       418       417       419       420       419       417       406       421
       421       425       428       429       422       421       423       424
       422       421       425       426       422       421       425       427
       422       421       425       428       423       421       425       426
       423       421       425       427       423       421       425       428
       424       423       421       425       426       425       428       429
       427       425       428       429       430       434       432       433
       430       434       432       442       430       434       432       446
       430       435       437       438       430       435       439       440
       430       435       439       441       430       435       439       442
       431       430       434       432       431       430       435       436
       431       430       435       437       431       430       435       439
       432       434       430       435       432       442       439       435
       432       442       439       440       432       442       439       441
       432       442       444       445       432       446       449       450
       433       432       442       439       433       432       442       443
       433       432       442       444       433       432       446       447
       433       432       446       448       433       432       446       449
       434       430       435       436       434       430       435       437
       434       430       435       439       434       432       442       439
       434       432       442       443       434       432       442       444
       434       432       446       447       434       432       446       448
       434       432       446       449       435       439       441       451
       435       439       442       443       435       439       442       444
       436       435       437       438       436       435       439       440
       436       435       439       441       436       435       439       442
       437       435       439       440       437       435       439       441
       437       435       439       442       438       437       435       439
       439       441       451       452       439       441       451       455
       439       441       451       456       439       442       432       446
       439       442       444       445       440       439       441       451
       440       439       442       443       440       439       442       444
       441       439       442       443       441       439       442       444
       441       451       455       453       441       451       456       457
       441       451       456       458       441       451       456       459
       442       432       446       447       442       432       446       448
       442       432       446       449       442       439       441       451
       443       442       432       446       443       442       444       445
       444       442       432       446       447       446       449       450
       448       446       449       450       451       455       453       454
       451       455       453       462       451       455       453       466
       451       456       458       471       451       456       459       460
       451       456       459       461       451       456       459       462
       452       451       455       453       452       451       456       457
       452       451       456       458       452       451       456       459
       453       455       451       456       453       462       459       456
       453       462       459       460       453       462       459       461
       453       462       464       465       453       466       469       470
       454       453       462       459       454       453       462       463
       454       453       462       464       454       453       466       467
       454       453       466       468       454       453       466       469
       455       451       456       457       455       451       456       458
       455       451       456       459       455       453       462       459
       455       453       462       463       455       453       462       464
       455       453       466       467       455       453       466       468
       455       453       466       469       456       458       471       472
       456       458       471       475       456       458       471       476
       456       459       461       514       456       459       462       463
       456       459       462       464       457       456       458       471
       457       456       459       460       457       456       459       461
       457       456       459       462       458       456       459       460
       458       456       459       461       458       456       459       462
       458       471       475       473       458       471       476       477
       458       471       476       478       458       471       476       479
       459       456       458       471       459       461       514       515
       459       461       514       518       459       461       514       519
       459       462       453       466       459       462       464       465
       460       459       461       514       460       459       462       463
       460       459       462       464       461       459       462       463
       461       459       462       464       461       514       518       516
       461       514       519       520       461       514       519       521
       461       514       519       523       462       453       466       467
       462       453       466       468       462       453       466       469
       462       459       461       514       463       462       453       466
       463       462       464       465       464       462       453       466
       467       466       469       470       468       466       469       470
       471       475       473       474       471       475       473       483
       471       475       473       487       471       476       478       492
       471       476       479       480       471       476       479       481
       471       476       479       483       472       471       475       473
       472       471       476       477       472       471       476       478
       472       471       476       479       473       475       471       476
       473       483       479       476       473       483       479       480
       473       483       479       481       473       483       485       486
       473       487       490       491       474       473       483       479
       474       473       483       484       474       473       483       485
       474       473       487       488       474       473       487       489
       474       473       487       490       475       471       476       477
       475       471       476       478       475       471       476       479
       475       473       483       479       475       473       483       484
       475       473       483       485       475       473       487       488
       475       473       487       489       475       473       487       490
       476       478       492       493       476       478       492       496
       476       478       492       497       476       479       481       482
       476       479       483       484       476       479       483       485
       477       476       478       492       477       476       479       480
       477       476       479       481       477       476       479       483
       478       476       479       480       478       476       479       481
       478       476       479       483       478       492       496       494
       478       492       497       498       478       492       497       499
       478       492       497       501       479       476       478       492
       479       483       473       487       479       483       485       486
       480       479       481       482       480       479       483       484
       480       479       483       485       481       479       483       484
       481       479       483       485       482       481       479       483
       483       473       487       488       483       473       487       489
       483       473       487       490       484       483       473       487
       484       483       485       486       485       483       473       487
       488       487       490       491       489       487       490       491
       492       496       494       495       492       496       494       505
       492       496       494       509       492       497       499       500
       492       497       501       502       492       497       501       503
       492       497       501       505       493       492       496       494
       493       492       497       498       493       492       497       499
       493       492       497       501       494       496       492       497
       494       505       501       497       494       505       501       502
       494       505       501       503       494       505       507       508
       494       509       512       513       495       494       505       501
       495       494       505       506       495       494       505       507
       495       494       509       510       495       494       509       511
       495       494       509       512       496       492       497       498
       496       492       497       499       496       492       497       501
       496       494       505       501       496       494       505       506
       496       494       505       507       496       494       509       510
       496       494       509       511       496       494       509       512
       497       501       503       504       497       501       505       506
       497       501       505       507       498       497       499       500
       498       497       501       502       498       497       501       503
       498       497       501       505       499       497       501       502
       499       497       501       503       499       497       501       505
       500       499       497       501       501       505       494       509
       501       505       507       508       502       501       503       504
       502       501       505       506       502       501       505       507
       503       501       505       506       503       501       505       507
       504       503       501       505       505       494       509       510
       505       494       509       511       505       494       509       512
       506       505       494       509       506       505       507       508
       507       505       494       509       510       509       512       513
       511       509       512       513       514       518       516       517
       514       518       516       526       514       518       516       530
       514       519       521       522       514       519       523       524
       514       519       523       525       514       519       523       526
       515       514       518       516       515       514       519       520
       515       514       519       521       515       514       519       523
       516       518       514       519       516       526       523       519
       516       526       523       524       516       526       523       525
       516       526       528       529       516       530       533       534
       517       516       526       523       517       516       526       527
       517       516       526       528       517       516       530       531
       517       516       530       532       517       516       530       533
       518       514       519       520       518       514       519       521
       518       514       519       523       518       516       526       523
       518       516       526       527       518       516       526       528
       518       516       530       531       518       516       530       532
       518       516       530       533       519       523       525       535
       519       523       526       527       519       523       526       528
       520       519       521       522       520       519       523       524
       520       519       523       525       520       519       523       526
       521       519       523       524       521       519       523       525
       521       519       523       526       522       521       519       523
       523       525       535       536       523       525       535       539
       523       525       535       540       523       526       516       530
       523       526       528       529       524       523       525       535
       524       523       526       527       524       523       526       528
       525       523       526       527       525       523       526       528
       525       535       539       537       525       535       540       541
       525       535       540       542       525       535       540       550
       526       516       530       531       526       516       530       532
       526       516       530       533       526       523       525       535
       527       526       516       530       527       526       528       529
       528       526       516       530       531       530       533       534
       532       530       533       534       535       539       537       538
       535       539       537       553       535       539       537       557
       535       540       542       543       535       540       542       544
       535       540       550       551       535       540       550       552
       535       540       550       553       536       535       539       537
       536       535       540       541       536       535       540       542
       536       535       540       550       537       539       535       540
       537       553       550       540       537       553       550       551
       537       553       550       552       537       553       555       556
       537       557       560       561       538       537       553       550
       538       537       553       554       538       537       553       555
       538       537       557       558       538       537       557       559
       538       537       557       560       539       535       540       541
       539       535       540       542       539       535       540       550
       539       537       553       550       539       537       553       554
       539       537       553       555       539       537       557       558
       539       537       557       559       539       537       557       560
       540       542       544       545       540       542       544       546
       540       550       552       562       540       550       553       554
       540       550       553       555       541       540       542       543
       541       540       542       544       541       540       550       551
       541       540       550       552       541       540       550       553
       542       540       550       551       542       540       550       552
       542       540       550       553       542       544       546       547
       542       544       546       548       542       544       546       549
       543       542       540       550       543       542       544       545
       543       542       544       546       544       542       540       550
       545       544       546       547       545       544       546       548
       545       544       546       549       550       552       562       563
       550       552       562       566       550       552       562       567
       550       553       537       557       550       553       555       556
       551       550       552       562       551       550       553       554
       551       550       553       555       552       550       553       554
       552       550       553       555       552       562       566       564
       552       562       567       568       552       562       567       569
       552       562       567       570       553       537       557       558
       553       537       557       559       553       537       557       560
       553       550       552       562       554       553       537       557
       554       553       555       556       555       553       537       557
       558       557       560       561       559       557       560       561
       562       566       564       565       562       566       564       574
       562       566       564       578       562       567       569       583
       562       567       570       571       562       567       570       572
       562       567       570       574       563       562       566       564
       563       562       567       568       563       562       567       569
       563       562       567       570       564       566       562       567
       564       574       570       567       564       574       570       571
       564       574       570       572       564       574       576       577
       564       578       581       582       565       564       574       570
       565       564       574       575       565       564       574       576
       565       564       578       579       565       564       578       580
       565       564       578       581       566       562       567       568
       566       562       567       569       566       562       567       570
       566       564       574       570       566       564       574       575
       566       564       574       576       566       564       578       579
       566       564       578       580       566       564       578       581
       567       569       583       584       567       569       583       587
       567       569       583       588       567       570       572       573
       567       570       574       575       567       570       574       576
       568       567       569       583       568       567       570       571
       568       567       570       572       568       567       570       574
       569       567       570       571       569       567       570       572
       569       567       570       574       569       583       587       585
       569       583       588       589       569       583       588       590
       569       583       588       591       570       567       569       583
       570       574       564       578       570       574       576       577
       571       570       572       573       571       570       574       575
       571       570       574       576       572       570       574       575
       572       570       574       576       573       572       570       574
       574       564       578       579       574       564       578       580
       574       564       578       581       575       574       564       578
       575       574       576       577       576       574       564       578
       579       578       581       582       580       578       581       582
       583       587       585       586       583       587       585       595
       583       587       585       599       583       588       590       603
       583       588       591       592       583       588       591       593
       583       588       591       595       584       583       587       585
       584       583       588       589       584       583       588       590
       584       583       588       591       585       587       583       588
       585       595       591       588       585       595       591       592
       585       595       591       593       585       595       597       598
       586       585       595       591       586       585       595       596
       586       585       595       597       586       585       599       600
       586       585       599       601       586       585       599       602
       587       583       588       589       587       583       588       590
       587       583       588       591       587       585       595       591
       587       585       595       596       587       585       595       597
       587       585       599       600       587       585       599       601
       587       585       599       602       588       590       603       604
       588       590       603       607       588       590       603       608
       588       591       593       594       588       591       595       596
       588       591       595       597       589       588       590       603
       589       588       591       592       589       588       591       593
       589       588       591       595       590       588       591       592
       590       588       591       593       590       588       591       595
       590       603       607       605       590       603       608       609
       590       603       608       610       590       603       608       611
       591       588       590       603       591       595       585       599
       591       595       597       598       592       591       593       594
       592       591       595       596       592       591       595       597
       593       591       595       596       593       591       595       597
       594       593       591       595       595       585       599       600
       595       585       599       601       595       585       599       602
       596       595       585       599       596       595       597       598
       597       595       585       599       603       607       605       606
       603       607       605       614       603       607       605       618
       603       608       610       622       603       608       611       612
       603       608       611       613       603       608       611       614
       604       603       607       605       604       603       608       609
       604       603       608       610       604       603       608       611
       605       607       603       608       605       614       611       608
       605       614       611       612       605       614       611       613
       605       614       616       617       606       605       614       611
       606       605       614       615       606       605       614       616
       606       605       618       619       606       605       618       620
       606       605       618       621       607       603       608       609
       607       603       608       610       607       603       608       611
       607       605       614       611       607       605       614       615
       607       605       614       616       607       605       618       619
       607       605       618       620       607       605       618       621
       608       610       622       623       608       610       622       626
       608       610       622       627       608       611       613       650
       608       611       614       615       608       611       614       616
       609       608       610       622       609       608       611       612
       609       608       611       613       609       608       611       614
       610       608       611       612       610       608       611       613
       610       608       611       614       610       622       626       624
       610       622       627       628       610       622       627       629
       610       622       627       637       611       608       610       622
       611       613       650       651       611       613       650       654
       611       613       650       655       611       614       605       618
       611       614       616       617       612       611       613       650
       612       611       614       615       612       611       614       616
       613       611       614       615       613       611       614       616
       613       650       654       652       613       650       655       656
       613       650       655       657       613       650       655       665
       614       605       618       619       614       605       618       620
       614       605       618       621       614       611       613       650
       615       614       605       618       615       614       616       617
       616       614       605       618       622       626       624       625
       622       626       624       641       622       626       624       645
       622       627       629       630       622       627       629       631
       622       627       637       638       622       627       637       639
       622       627       637       641       623       622       626       624
       623       622       627       628       623       622       627       629
       623       622       627       637       624       626       622       627
       624       641       637       627       624       641       637       638
       624       641       637       639       624       641       643       644
       624       645       648       649       625       624       641       637
       625       624       641       642       625       624       641       643
       625       624       645       646       625       624       645       647
       625       624       645       648       626       622       627       628
       626       622       627       629       626       622       627       637
       626       624       641       637       626       624       641       642
       626       624       641       643       626       624       645       646
       626       624       645       647       626       624       645       648
       627       629       631       632       627       629       631       633
       627       637       639       640       627       637       641       642
       627       637       641       643       628       627       629       630
       628       627       629       631       628       627       637       638
       628       627       637       639       628       627       637       641
       629       627       637       638       629       627       637       639
       629       627       637       641       629       631       633       634
       629       631       633       635       629       631       633       636
       630       629       627       637       630       629       631       632
       630       629       631       633       631       629       627       637
       632       631       633       634       632       631       633       635
       632       631       633       636       637       641       624       645
       637       641       643       644       638       637       639       640
       638       637       641       642       638       637       641       643
       639       637       641       642       639       637       641       643
       640       639       637       641       641       624       645       646
       641       624       645       647       641       624       645       648
       642       641       624       645       642       641       643       644
       643       641       624       645       646       645       648       649
       647       645       648       649       650       654       652       653
       650       654       652       668       650       654       652       672
       650       655       657       658       650       655       657       659
       650       655       665       666       650       655       665       667
       650       655       665       668       651       650       654       652
       651       650       655       656       651       650       655       657
       651       650       655       665       652       654       650       655
       652       668       665       655       652       668       665       666
       652       668       665       667       652       668       670       671
       652       672       675       676       653       652       668       665
       653       652       668       669       653       652       668       670
       653       652       672       673       653       652       672       674
       653       652       672       675       654       650       655       656
       654       650       655       657       654       650       655       665
       654       652       668       665       654       652       668       669
       654       652       668       670       654       652       672       673
       654       652       672       674       654       652       672       675
       655       657       659       660       655       657       659       661
       655       665       667       677       655       665       668       669
       655       665       668       670       656       655       657       658
       656       655       657       659       656       655       665       666
       656       655       665       667       656       655       665       668
       657       655       665       666       657       655       665       667
       657       655       665       668       657       659       661       662
       657       659       661       663       657       659       661       664
       658       657       655       665       658       657       659       660
       658       657       659       661       659       657       655       665
       660       659       661       662       660       659       661       663
       660       659       661       664       665       667       677       678
       665       667       677       681       665       667       677       682
       665       668       652       672       665       668       670       671
       666       665       667       677       666       665       668       669
       666       665       668       670       667       665       668       669
       667       665       668       670       667       677       681       679
       667       677       682       683       667       677       682       684
       667       677       682       685       668       652       672       673
       668       652       672       674       668       652       672       675
       668       665       667       677       669       668       652       672
       669       668       670       671       670       668       652       672
       673       672       675       676       674       672       675       676
       677       681       679       680       677       681       679       689
       677       681       679       693       677       682       684       698
       677       682       685       686       677       682       685       687
       677       682       685       689       678       677       681       679
       678       677       682       683       678       677       682       684
       678       677       682       685       679       681       677       682
       679       689       685       682       679       689       685       686
       679       689       685       687       679       689       691       692
       679       693       696       697       680       679       689       685
       680       679       689       690       680       679       689       691
       680       679       693       694       680       679       693       695
       680       679       693       696       681       677       682       683
       681       677       682       684       681       677       682       685
       681       679       689       685       681       679       689       690
       681       679       689       691       681       679       693       694
       681       679       693       695       681       679       693       696
       682       684       698       699       682       684       698       702
       682       684       698       703       682       685       687       688
       682       685       689       690       682       685       689       691
       683       682       684       698       683       682       685       686
       683       682       685       687       683       682       685       689
       684       682       685       686       684       682       685       687
       684       682       685       689       684       698       702       700
       684       698       703       704       684       698       703       705
       684       698       703       706       685       682       684       698
       685       689       679       693       685       689       691       692
       686       685       687       688       686       685       689       690
       686       685       689       691       687       685       689       690
       687       685       689       691       688       687       685       689
       689       679       693       694       689       679       693       695
       689       679       693       696       690       689       679       693
       690       689       691       692       691       689       679       693
       694       693       696       697       695       693       696       697
       698       702       700       701       698       702       700       710
       698       702       700       714       698       703       705       718
       698       703       706       707       698       703       706       708
       698       703       706       710       699       698       702       700
       699       698       703       704       699       698       703       705
       699       698       703       706       700       702       698       703
       700       710       706       703       700       710       706       707
       700       710       706       708       700       710       712       713
       701       700       710       706       701       700       710       711
       701       700       710       712       701       700       714       715
       701       700       714       716       701       700       714       717
       702       698       703       704       702       698       703       705
       702       698       703       706       702       700       710       706
       702       700       710       711       702       700       710       712
       702       700       714       715       702       700       714       716
       702       700       714       717       703       705       718       719
       703       705       718       722       703       705       718       723
       703       706       708       709       703       706       710       711
       703       706       710       712       704       703       705       718
       704       703       706       707       704       703       706       708
       704       703       706       710       705       703       706       707
       705       703       706       708       705       703       706       710
       705       718       722       720       705       718       723       724
       705       718       723       725       705       718       723       726
       706       703       705       718       706       710       700       714
       706       710       712       713       707       706       708       709
       707       706       710       711       707       706       710       712
       708       706       710       711       708       706       710       712
       709       708       706       710       710       700       714       715
       710       700       714       716       710       700       714       717
       711       710       700       714       711       710       712       713
       712       710       700       714       718       722       720       721
       718       722       720       729       718       722       720       733
       718       723       725       737       718       723       726       727
       718       723       726       728       718       723       726       729
       719       718       722       720       719       718       723       724
       719       718       723       725       719       718       723       726
       720       722       718       723       720       729       726       723
       720       729       726       727       720       729       726       728
       720       729       731       732       721       720       729       726
       721       720       729       730       721       720       729       731
       721       720       733       734       721       720       733       735
       721       720       733       736       722       718       723       724
       722       718       723       725       722       718       723       726
       722       720       729       726       722       720       729       730
       722       720       729       731       722       720       733       734
       722       720       733       735       722       720       733       736
       723       725       737       738       723       725       737       741
       723       725       737       742       723       726       728       765
       723       726       729       730       723       726       729       731
       724       723       725       737       724       723       726       727
       724       723       726       728       724       723       726       729
       725       723       726       727       725       723       726       728
       725       723       726       729       725       737       741       739
       725       737       742       743       725       737       742       744
       725       737       742       752       726       723       725       737
       726       728       765       766       726       728       765       769
       726       728       765       770       726       729       720       733
       726       729       731       732       727       726       728       765
       727       726       729       730       727       726       729       731
       728       726       729       730       728       726       729       731
       728       765       769       767       728       765       770       771
       728       765       770       772       728       765       770       780
       729       720       733       734       729       720       733       735
       729       720       733       736       729       726       728       765
       730       729       720       733       730       729       731       732
       731       729       720       733       737       741       739       740
       737       741       739       756       737       741       739       760
       737       742       744       745       737       742       744       746
       737       742       752       753       737       742       752       754
       737       742       752       756       738       737       741       739
       738       737       742       743       738       737       742       744
       738       737       742       752       739       741       737       742
       739       756       752       742       739       756       752       753
       739       756       752       754       739       756       758       759
       739       760       763       764       740       739       756       752
       740       739       756       757       740       739       756       758
       740       739       760       761       740       739       760       762
       740       739       760       763       741       737       742       743
       741       737       742       744       741       737       742       752
       741       739       756       752       741       739       756       757
       741       739       756       758       741       739       760       761
       741       739       760       762       741       739       760       763
       742       744       746       747       742       744       746       748
       742       752       754       755       742       752       756       757
       742       752       756       758       743       742       744       745
       743       742       744       746       743       742       752       753
       743       742       752       754       743       742       752       756
       744       742       752       753       744       742       752       754
       744       742       752       756       744       746       748       749
       744       746       748       750       744       746       748       751
       745       744       742       752       745       744       746       747
       745       744       746       748       746       744       742       752
       747       746       748       749       747       746       748       750
       747       746       748       751       752       756       739       760
       752       756       758       759       753       752       754       755
       753       752       756       757       753       752       756       758
       754       752       756       757       754       752       756       758
       755       754       752       756       756       739       760       761
       756       739       760       762       756       739       760       763
       757       756       739       760       757       756       758       759
       758       756       739       760       761       760       763       764
       762       760       763       764       765       769       767       768
       765       769       767       783       765       769       767       787
       765       770       772       773       765       770       772       774
       765       770       780       781       765       770       780       782
       765       770       780       783       766       765       769       767
       766       765       770       771       766       765       770       772
       766       765       770       780       767       769       765       770
       767       783       780       770       767       783       780       781
       767       783       780       782       767       783       785       786
       767       787       790       791       768       767       783       780
       768       767       783       784       768       767       783       785
       768       767       787       788       768       767       787       789
       768       767       787       790       769       765       770       771
       769       765       770       772       769       765       770       780
       769       767       783       780       769       767       783       784
       769       767       783       785       769       767       787       788
       769       767       787       789       769       767       787       790
       770       772       774       775       770       772       774       776
       770       780       782       792       770       780       783       784
       770       780       783       785       771       770       772       773
       771       770       772       774       771       770       780       781
       771       770       780       782       771       770       780       783
       772       770       780       781       772       770       780       782
       772       770       780       783       772       774       776       777
       772       774       776       778       772       774       776       779
       773       772       770       780       773       772       774       775
       773       772       774       776       774       772       770       780
       775       774       776       777       775       774       776       778
       775       774       776       779       780       782       792       793
       780       782       792       796       780       782       792       797
       780       783       767       787       780       783       785       786
       781       780       782       792       781       780       783       784
       781       780       783       785       782       780       783       784
       782       780       783       785       782       792       796       794
       782       792       797       798       782       792       797       799
       782       792       797       800       783       767       787       788
       783       767       787       789       783       767       787       790
       783       780       782       792       784       783       767       787
       784       783       785       786       785       783       767       787
       788       787       790       791       789       787       790       791
       792       796       794       795       792       796       794       804
       792       796       794       808       792       797       799       813
       792       797       800       801       792       797       800       802
       792       797       800       804       793       792       796       794
       793       792       797       798       793       792       797       799
       793       792       797       800       794       796       792       797
       794       804       800       797       794       804       800       801
       794       804       800       802       794       804       806       807
       794       808       811       812       795       794       804       800
       795       794       804       805       795       794       804       806
       795       794       808       809       795       794       808       810
       795       794       808       811       796       792       797       798
       796       792       797       799       796       792       797       800
       796       794       804       800       796       794       804       805
       796       794       804       806       796       794       808       809
       796       794       808       810       796       794       808       811
       797       799       813       814       797       799       813       817
       797       799       813       818       797       800       802       803
       797       800       804       805       797       800       804       806
       798       797       799       813       798       797       800       801
       798       797       800       802       798       797       800       804
       799       797       800       801       799       797       800       802
       799       797       800       804       799       813       817       815
       799       813       818       819       799       813       818       820
       799       813       818       821       800       797       799       813
       800       804       794       808       800       804       806       807
       801       800       802       803       801       800       804       805
       801       800       804       806       802       800       804       805
       802       800       804       806       803       802       800       804
       804       794       808       809       804       794       808       810
       804       794       808       811       805       804       794       808
       805       804       806       807       806       804       794       808
       809       808       811       812       810       808       811       812
       813       817       815       816       813       817       815       825
       813       817       815       829       813       818       820       833
       813       818       821       822       813       818       821       823
       813       818       821       825       814       813       817       815
       814       813       818       819       814       813       818       820
       814       813       818       821       815       817       813       818
       815       825       821       818       815       825       821       822
       815       825       821       823       815       825       827       828
       816       815       825       821       816       815       825       826
       816       815       825       827       816       815       829       830
       816       815       829       831       816       815       829       832
       817       813       818       819       817       813       818       820
       817       813       818       821       817       815       825       821
       817       815       825       826       817       815       825       827
       817       815       829       830       817       815       829       831
       817       815       829       832       818       820       833       834
       818       820       833       837       818       820       833       838
       818       821       823       824       818       821       825       826
       818       821       825       827       819       818       820       833
       819       818       821       822       819       818       821       823
       819       818       821       825       820       818       821       822
       820       818       821       823       820       818       821       825
       820       833       837       835       820       833       838       839
       820       833       838       840       820       833       838       841
       821       818       820       833       821       825       815       829
       821       825       827       828       822       821       823       824
       822       821       825       826       822       821       825       827
       823       821       825       826       823       821       825       827
       824       823       821       825       825       815       829       830
       825       815       829       831       825       815       829       832
       826       825       815       829       826       825       827       828
       827       825       815       829       833       837       835       836
       833       837       835       844       833       837       835       848
       833       838       840       852       833       838       841       842
       833       838       841       843       833       838       841       844
       834       833       837       835       834       833       838       839
       834       833       838       840       834       833       838       841
       835       837       833       838       835       844       841       838
       835       844       841       842       835       844       841       843
       835       844       846       847       836       835       844       841
       836       835       844       845       836       835       844       846
       836       835       848       849       836       835       848       850
       836       835       848       851       837       833       838       839
       837       833       838       840       837       833       838       841
       837       835       844       841       837       835       844       845
       837       835       844       846       837       835       848       849
       837       835       848       850       837       835       848       851
       838       840       852       853       838       840       852       856
       838       840       852       857       838       841       843       880
       838       841       844       845       838       841       844       846
       839       838       840       852       839       838       841       842
       839       838       841       843       839       838       841       844
       840       838       841       842       840       838       841       843
       840       838       841       844       840       852       856       854
       840       852       857       858       840       852       857       859
       840       852       857       867       841       838       840       852
       841       843       880       881       841       843       880       884
       841       843       880       885       841       844       835       848
       841       844       846       847       842       841       843       880
       842       841       844       845       842       841       844       846
       843       841       844       845       843       841       844       846
       843       880       884       882       843       880       885       886
       843       880       885       887       843       880       885       895
       844       835       848       849       844       835       848       850
       844       835       848       851       844       841       843       880
       845       844       835       848       845       844       846       847
       846       844       835       848       852       856       854       855
       852       856       854       871       852       856       854       875
       852       857       859       860       852       857       859       861
       852       857       867       868       852       857       867       869
       852       857       867       871       853       852       856       854
       853       852       857       858       853       852       857       859
       853       852       857       867       854       856       852       857
       854       871       867       857       854       871       867       868
       854       871       867       869       854       871       873       874
       854       875       878       879       855       854       871       867
       855       854       871       872       855       854       871       873
       855       854       875       876       855       854       875       877
       855       854       875       878       856       852       857       858
       856       852       857       859       856       852       857       867
       856       854       871       867       856       854       871       872
       856       854       871       873       856       854       875       876
       856       854       875       877       856       854       875       878
       857       859       861       862       857       859       861       863
       857       867       869       870       857       867       871       872
       857       867       871       873       858       857       859       860
       858       857       859       861       858       857       867       868
       858       857       867       869       858       857       867       871
       859       857       867       868       859       857       867       869
       859       857       867       871       859       861       863       864
       859       861       863       865       859       861       863       866
       860       859       857       867       860       859       861       862
       860       859       861       863       861       859       857       867
       862       861       863       864       862       861       863       865
       862       861       863       866       867       871       854       875
       867       871       873       874       868       867       869       870
       868       867       871       872       868       867       871       873
       869       867       871       872       869       867       871       873
       870       869       867       871       871       854       875       876
       871       854       875       877       871       854       875       878
       872       871       854       875       872       871       873       874
       873       871       854       875       876       875       878       879
       877       875       878       879       880       884       882       883
       880       884       882       898       880       884       882       902
       880       885       887       888       880       885       887       889
       880       885       895       896       880       885       895       897
       880       885       895       898       881       880       884       882
       881       880       885       886       881       880       885       887
       881       880       885       895       882       884       880       885
       882       898       895       885       882       898       895       896
       882       898       895       897       882       898       900       901
       882       902       905       906       883       882       898       895
       883       882       898       899       883       882       898       900
       883       882       902       903       883       882       902       904
       883       882       902       905       884       880       885       886
       884       880       885       887       884       880       885       895
       884       882       898       895       884       882       898       899
       884       882       898       900       884       882       902       903
       884       882       902       904       884       882       902       905
       885       887       889       890       885       887       889       891
       885       895       897       907       885       895       898       899
       885       895       898       900       886       885       887       888
       886       885       887       889       886       885       895       896
       886       885       895       897       886       885       895       898
       887       885       895       896       887       885       895       897
       887       885       895       898       887       889       891       892
       887       889       891       893       887       889       891       894
       888       887       885       895       888       887       889       890
       888       887       889       891       889       887       885       895
       890       889       891       892       890       889       891       893
       890       889       891       894       895       897       907       908
       895       897       907       911       895       897       907       912
       895       898       882       902       895       898       900       901
       896       895       897       907       896       895       898       899
       896       895       898       900       897       895       898       899
       897       895       898       900       897       907       911       909
       897       907       912       913       897       907       912       914
       897       907       912       915       898       882       902       903
       898       882       902       904       898       882       902       905
       898       895       897       907       899       898       882       902
       899       898       900       901       900       898       882       902
       903       902       905       906       904       902       905       906
       907       911       909       910       907       911       909       919
       907       911       909       923       907       912       914       928
       907       912       915       916       907       912       915       917
       907       912       915       919       908       907       911       909
       908       907       912       913       908       907       912       914
       908       907       912       915       909       911       907       912
       909       919       915       912       909       919       915       916
       909       919       915       917       909       919       921       922
       909       923       926       927       910       909       919       915
       910       909       919       920       910       909       919       921
       910       909       923       924       910       909       923       925
       910       909       923       926       911       907       912       913
       911       907       912       914       911       907       912       915
       911       909       919       915       911       909       919       920
       911       909       919       921       911       909       923       924
       911       909       923       925       911       909       923       926
       912       914       928       929       912       914       928       932
       912       914       928       933       912       915       917       918
       912       915       919       920       912       915       919       921
       913       912       914       928       913       912       915       916
       913       912       915       917       913       912       915       919
       914       912       915       916       914       912       915       917
       914       912       915       919       914       928       932       930
       914       928       933       934       914       928       933       935
       914       928       933       936       915       912       914       928
       915       919       909       923       915       919       921       922
       916       915       917       918       916       915       919       920
       916       915       919       921       917       915       919       920
       917       915       919       921       918       917       915       919
       919       909       923       924       919       909       923       925
       919       909       923       926       920       919       909       923
       920       919       921       922       921       919       909       923
       924       923       926       927       925       923       926       927
       928       932       930       931       928       932       930       940
       928       932       930       944       928       933       935       948
       928       933       936       937       928       933       936       938
       928       933       936       940       929       928       932       930
       929       928       933       934       929       928       933       935
       929       928       933       936       930       932       928       933
       930       940       936       933       930       940       936       937
       930       940       936       938       930       940       942       943
       931       930       940       936       931       930       940       941
       931       930       940       942       931       930       944       945
       931       930       944       946       931       930       944       947
       932       928       933       934       932       928       933       935
       932       928       933       936       932       930       940       936
       932       930       940       941       932       930       940       942
       932       930       944       945       932       930       944       946
       932       930       944       947       933       935       948       949
       933       935       948       952       933       935       948       953
       933       936       938       939       933       936       940       941
       933       936       940       942       934       933       935       948
       934       933       936       937       934       933       936       938
       934       933       936       940       935       933       936       937
       935       933       936       938       935       933       936       940
       935       948       952       950       935       948       953       954
       935       948       953       955       935       948       953       956
       936       933       935       948       936       940       930       944
       936       940       942       943       937       936       938       939
       937       936       940       941       937       936       940       942
       938       936       940       941       938       936       940       942
       939       938       936       940       940       930       944       945
       940       930       944       946       940       930       944       947
       941       940       930       944       941       940       942       943
       942       940       930       944       948       952       950       951
       948       952       950       959       948       952       950       963
       948       953       955       967       948       953       956       957
       948       953       956       958       948       953       956       959
       949       948       952       950       949       948       953       954
       949       948       953       955       949       948       953       956
       950       952       948       953       950       959       956       953
       950       959       956       957       950       959       956       958
       950       959       961       962       951       950       959       956
       951       950       959       960       951       950       959       961
       951       950       963       964       951       950       963       965
       951       950       963       966       952       948       953       954
       952       948       953       955       952       948       953       956
       952       950       959       956       952       950       959       960
       952       950       959       961       952       950       963       964
       952       950       963       965       952       950       963       966
       953       955       967       968       953       955       967       971
       953       955       967       972       953       956       958       995
       953       956       959       960       953       956       959       961
       954       953       955       967       954       953       956       957
       954       953       956       958       954       953       956       959
       955       953       956       957       955       953       956       958
       955       953       956       959       955       967       971       969
       955       967       972       973       955       967       972       974
       955       967       972       982       956       953       955       967
       956       958       995       996       956       958       995       999
       956       958       995      1000       956       959       950       963
       956       959       961       962       957       956       958       995
       957       956       959       960       957       956       959       961
       958       956       959       960       958       956       959       961
       958       995       999       997       958       995      1000      1001
       958       995      1000      1002       958       995      1000      1010
       959       950       963       964       959       950       963       965
       959       950       963       966       959       956       958       995
       960       959       950       963       960       959       961       962
       961       959       950       963       967       971       969       970
       967       971       969       986       967       971       969       990
       967       972       974       975       967       972       974       976
       967       972       982       983       967       972       982       984
       967       972       982       986       968       967       971       969
       968       967       972       973       968       967       972       974
       968       967       972       982       969       971       967       972
       969       986       982       972       969       986       982       983
       969       986       982       984       969       986       988       989
       969       990       993       994       970       969       986       982
       970       969       986       987       970       969       986       988
       970       969       990       991       970       969       990       992
       970       969       990       993       971       967       972       973
       971       967       972       974       971       967       972       982
       971       969       986       982       971       969       986       987
       971       969       986       988       971       969       990       991
       971       969       990       992       971       969       990       993
       972       974       976       977       972       974       976       978
       972       982       984       985       972       982       986       987
       972       982       986       988       973       972       974       975
       973       972       974       976       973       972       982       983
       973       972       982       984       973       972       982       986
       974       972       982       983       974       972       982       984
       974       972       982       986       974       976       978       979
       974       976       978       980       974       976       978       981
       975       974       972       982       975       974       976       977
       975       974       976       978       976       974       972       982
       977       976       978       979       977       976       978       980
       977       976       978       981       982       986       969       990
       982       986       988       989       983       982       984       985
       983       982       986       987       983       982       986       988
       984       982       986       987       984       982       986       988
       985       984       982       986       986       969       990       991
       986       969       990       992       986       969       990       993
       987       986       969       990       987       986       988       989
       988       986       969       990       991       990       993       994
       992       990       993       994       995       999       997       998
       995       999       997      1013       995       999       997      1017
       995      1000      1002      1003       995      1000      1002      1004
       995      1000      1010      1011       995      1000      1010      1012
       995      1000      1010      1013       996       995       999       997
       996       995      1000      1001       996       995      1000      1002
       996       995      1000      1010       997       999       995      1000
       997      1013      1010      1000       997      1013      1010      1011
       997      1013      1010      1012       997      1013      1015      1016
       997      1017      1020      1021       998       997      1013      1010
       998       997      1013      1014       998       997      1013      1015
       998       997      1017      1018       998       997      1017      1019
       998       997      1017      1020       999       995      1000      1001
       999       995      1000      1002       999       995      1000      1010
       999       997      1013      1010       999       997      1013      1014
       999       997      1013      1015       999       997      1017      1018
       999       997      1017      1019       999       997      1017      1020
      1000      1002      1004      1005      1000      1002      1004      1006
      1000      1010      1012      1022      1000      1010      1013      1014
      1000      1010      1013      1015      1001      1000      1002      1003
      1001      1000      1002      1004      1001      1000      1010      1011
      1001      1000      1010      1012      1001      1000      1010      1013
      1002      1000      1010      1011      1002      1000      1010      1012
      1002      1000      1010      1013      1002      1004      1006      1007
      1002      1004      1006      1008      1002      1004      1006      1009
      1003      1002      1000      1010      1003      1002      1004      1005
      1003      1002      1004      1006      1004      1002      1000      1010
      1005      1004      1006      1007      1005      1004      1006      1008
      1005      1004      1006      1009      1010      1012      1022      1023
      1010      1012      1022      1026      1010      1012      1022      1027
      1010      1013       997      1017      1010      1013      1015      1016
      1011      1010      1012      1022      1011      1010      1013      1014
      1011      1010      1013      1015      1012      1010      1013      1014
      1012      1010      1013      1015      1012      1022      1026      1024
      1012      1022      1027      1028      1012      1022      1027      1029
      1012      1022      1027      1030      1013       997      1017      1018
      1013       997      1017      1019      1013       997      1017      1020
      1013      1010      1012      1022      1014      1013       997      1017
      1014      1013      1015      1016      1015      1013       997      1017
      1018      1017      1020      1021      1019      1017      1020      1021
      1022      1026      1024      1025      1022      1026      1024      1034
      1022      1026      1024      1038      1022      1027      1029      1043
      1022      1027      1030      1031      1022      1027      1030      1032
      1022      1027      1030      1034      1023      1022      1026      1024
      1023      1022      1027      1028      1023      1022      1027      1029
      1023      1022      1027      1030      1024      1026      1022      1027
      1024      1034      1030      1027      1024      1034      1030      1031
      1024      1034      1030      1032      1024      1034      1036      1037
      1024      1038      1041      1042      1025      1024      1034      1030
      1025      1024      1034      1035      1025      1024      1034      1036
      1025      1024      1038      1039      1025      1024      1038      1040
      1025      1024      1038      1041      1026      1022      1027      1028
      1026      1022      1027      1029      1026      1022      1027      1030
      1026      1024      1034      1030      1026      1024      1034      1035
      1026      1024      1034      1036      1026      1024      1038      1039
      1026      1024      1038      1040      1026      1024      1038      1041
      1027      1029      1043      1044      1027      1029      1043      1047
      1027      1029      1043      1048      1027      1030      1032      1033
      1027      1030      1034      1035      1027      1030      1034      1036
      1028      1027      1029      1043      1028      1027      1030      1031
      1028      1027      1030      1032      1028      1027      1030      1034
      1029      1027      1030      1031      1029      1027      1030      1032
      1029      1027      1030      1034      1029      1043      1047      1045
      1029      1043      1048      1049      1029      1043      1048      1050
      1029      1043      1048      1051      1030      1027      1029      1043
      1030      1034      1024      1038      1030      1034      1036      1037
      1031      1030      1032      1033      1031      1030      1034      1035
      1031      1030      1034      1036      1032      1030      1034      1035
      1032      1030      1034      1036      1033      1032      1030      1034
      1034      1024      1038      1039      1034      1024      1038      1040
      1034      1024      1038      1041      1035      1034      1024      1038
      1035      1034      1036      1037      1036      1034      1024      1038
      1039      1038      1041      1042      1040      1038      1041      1042
      1043      1047      1045      1046      1043      1047      1045      1055
      1043      1047      1045      1059      1043      1048      1050      1063
      1043      1048      1051      1052      1043      1048      1051      1053
      1043      1048      1051      1055      1044      1043      1047      1045
      1044      1043      1048      1049      1044      1043      1048      1050
      1044      1043      1048      1051      1045      1047      1043      1048
      1045      1055      1051      1048      1045      1055      1051      1052
      1045      1055      1051      1053      1045      1055      1057      1058
      1046      1045      1055      1051      1046      1045      1055      1056
      1046      1045      1055      1057      1046      1045      1059      1060
      1046      1045      1059      1061      1046      1045      1059      1062
      1047      1043      1048      1049      1047      1043      1048      1050
      1047      1043      1048      1051      1047      1045      1055      1051
      1047      1045      1055      1056      1047      1045      1055      1057
      1047      1045      1059      1060      1047      1045      1059      1061
      1047      1045      1059      1062      1048      1050      1063      1064
      1048      1050      1063      1067      1048      1050      1063      1068
      1048      1051      1053      1054      1048      1051      1055      1056
      1048      1051      1055      1057      1049      1048      1050      1063
      1049      1048      1051      1052      1049      1048      1051      1053
      1049      1048      1051      1055      1050      1048      1051      1052
      1050      1048      1051      1053      1050      1048      1051      1055
      1050      1063      1067      1065      1050      1063      1068      1069
      1050      1063      1068      1070      1050      1063      1068      1071
      1051      1048      1050      1063      1051      1055      1045      1059
      1051      1055      1057      1058      1052      1051      1053      1054
      1052      1051      1055      1056      1052      1051      1055      1057
      1053      1051      1055      1056      1053      1051      1055      1057
      1054      1053      1051      1055      1055      1045      1059      1060
      1055      1045      1059      1061      1055      1045      1059      1062
      1056      1055      1045      1059      1056      1055      1057      1058
      1057      1055      1045      1059      1063      1067      1065      1066
      1063      1067      1065      1075      1063      1067      1065      1079
      1063      1068      1070      1083      1063      1068      1071      1072
      1063      1068      1071      1073      1063      1068      1071      1075
      1064      1063      1067      1065      1064      1063      1068      1069
      1064      1063      1068      1070      1064      1063      1068      1071
      1065      1067      1063      1068      1065      1075      1071      1068
      1065      1075      1071      1072      1065      1075      1071      1073
      1065      1075      1077      1078      1066      1065      1075      1071
      1066      1065      1075      1076      1066      1065      1075      1077
      1066      1065      1079      1080      1066      1065      1079      1081
      1066      1065      1079      1082      1067      1063      1068      1069
      1067      1063      1068      1070      1067      1063      1068      1071
      1067      1065      1075      1071      1067      1065      1075      1076
      1067      1065      1075      1077      1067      1065      1079      1080
      1067      1065      1079      1081      1067      1065      1079      1082
      1068      1070      1083      1084      1068      1070      1083      1087
      1068      1070      1083      1088      1068      1071      1073      1074
      1068      1071      1075      1076      1068      1071      1075      1077
      1069      1068      1070      1083      1069      1068      1071      1072
      1069      1068      1071      1073      1069      1068      1071      1075
      1070      1068      1071      1072      1070      1068      1071      1073
      1070      1068      1071      1075      1070      1083      1087      1085
      1070      1083      1088      1089      1070      1083      1088      1090
      1070      1083      1088      1098      1071      1068      1070      1083
      1071      1075      1065      1079      1071      1075      1077      1078
      1072      1071      1073      1074      1072      1071      1075      1076
      1072      1071      1075      1077      1073      1071      1075      1076
      1073      1071      1075      1077      1074      1073      1071      1075
      1075      1065      1079      1080      1075      1065      1079      1081
      1075      1065      1079      1082      1076      1075      1065      1079
      1076      1075      1077      1078      1077      1075      1065      1079
      1083      1087      1085      1086      1083      1087      1085      1102
      1083      1087      1085      1106      1083      1088      1090      1091
      1083      1088      1090      1092      1083      1088      1098      1099
      1083      1088      1098      1100      1083      1088      1098      1102
      1084      1083      1087      1085      1084      1083      1088      1089
      1084      1083      1088      1090      1084      1083      1088      1098
      1085      1087      1083      1088      1085      1102      1098      1088
      1085      1102      1098      1099      1085      1102      1098      1100
      1085      1102      1104      1105      1085      1106      1109      1110
      1086      1085      1102      1098      1086      1085      1102      1103
      1086      1085      1102      1104      1086      1085      1106      1107
      1086      1085      1106      1108      1086      1085      1106      1109
      1087      1083      1088      1089      1087      1083      1088      1090
      1087      1083      1088      1098      1087      1085      1102      1098
      1087      1085      1102      1103      1087      1085      1102      1104
      1087      1085      1106      1107      1087      1085      1106      1108
      1087      1085      1106      1109      1088      1090      1092      1093
      1088      1090      1092      1094      1088      1098      1100      1101
      1088      1098      1102      1103      1088      1098      1102      1104
      1089      1088      1090      1091      1089      1088      1090      1092
      1089      1088      1098      1099      1089      1088      1098      1100
      1089      1088      1098      1102      1090      1088      1098      1099
      1090      1088      1098      1100      1090      1088      1098      1102
      1090      1092      1094      1095      1090      1092      1094      1096
      1090      1092      1094      1097      1091      1090      1088      1098
      1091      1090      1092      1093      1091      1090      1092      1094
      1092      1090      1088      1098      1093      1092      1094      1095
      1093      1092      1094      1096      1093      1092      1094      1097
      1098      1102      1085      1106      1098      1102      1104      1105
      1099      1098      1100      1101      1099      1098      1102      1103
      1099      1098      1102      1104      1100      1098      1102      1103
      1100      1098      1102      1104      1101      1100      1098      1102
      1102      1085      1106      1107      1102      1085      1106      1108
      1102      1085      1106      1109      1103      1102      1085      1106
      1103      1102      1104      1105      1104      1102      1085      1106
      1107      1106      1109      1110      1108      1106      1109      1110
      1111      1113      1112      1410      1111      1113      1115      1116
      1111      1113      1115      1117      1111      1113      1115      1124
      1112      1113      1115      1116      1112      1113      1115      1117
      1112      1113      1115      1124      1112      1410      1407      1408
      1112      1410      1407      1409      1112      1410      1413      1411
      1112      1410      1414      1415      1112      1410      1414      1416
      1112      1410      1414      1417      1113      1112      1410      1407
      1113      1112      1410      1413      1113      1112      1410      1414
      1113      1115      1116      1118      1113      1115      1124      1125
      1113      1115      1124      1126      1113      1115      1124      1131
      1114      1113      1112      1410      1114      1113      1115      1116
      1114      1113      1115      1117      1114      1113      1115      1124
      1115      1113      1112      1410      1115      1116      1118      1119
      1115      1116      1118      1120      1115      1116      1118      1139
      1115      1124      1126      1127      1115      1124      1131      1132
      1115      1124      1131      1133      1115      1124      1131      1139
      1116      1115      1124      1125      1116      1115      1124      1126
      1116      1115      1124      1131      1116      1118      1120      1121
      1116      1118      1139      1131      1116      1118      1139      1140
      1116      1118      1139      1141      1117      1115      1116      1118
      1117      1115      1124      1125      1117      1115      1124      1126
      1117      1115      1124      1131      1118      1116      1115      1124
      1118      1120      1121      1122      1118      1120      1121      1123
      1118      1120      1121      1147      1118      1139      1131      1124
      1118      1139      1131      1132      1118      1139      1131      1133
      1118      1139      1141      1142      1118      1139      1141      1248
      1119      1118      1120      1121      1119      1118      1139      1131
      1119      1118      1139      1140      1119      1118      1139      1141
      1120      1118      1139      1131      1120      1118      1139      1140
      1120      1118      1139      1141      1120      1121      1147      1143
      1120      1121      1147      1148      1120      1121      1147      1149
      1121      1120      1118      1139      1121      1147      1143      1144
      1121      1147      1143      1145      1121      1147      1143      1157
      1121      1147      1149      1150      1122      1121      1147      1143
      1122      1121      1147      1148      1122      1121      1147      1149
      1123      1121      1147      1143      1123      1121      1147      1148
      1123      1121      1147      1149      1124      1126      1127      1128
      1124      1126      1127      1129      1124      1126      1127      1130
      1124      1131      1132      1134      1124      1131      1139      1140
      1124      1131      1139      1141      1125      1124      1126      1127
      1125      1124      1131      1132      1125      1124      1131      1133
      1125      1124      1131      1139      1126      1124      1131      1132
      1126      1124      1131      1133      1126      1124      1131      1139
      1127      1126      1124      1131      1131      1132      1134      1135
      1131      1132      1134      1136      1131      1139      1141      1142
      1131      1139      1141      1248      1132      1131      1139      1140
      1132      1131      1139      1141      1132      1134      1136      1137
      1132      1134      1136      1138      1132      1134      1136      1169
      1133      1131      1132      1134      1133      1131      1139      1140
      1133      1131      1139      1141      1134      1132      1131      1139
      1134      1136      1169      1170      1134      1136      1169      1171
      1134      1136      1169      1214      1135      1134      1136      1137
      1135      1134      1136      1138      1135      1134      1136      1169
      1136      1169      1171      1172      1136      1169      1214      1215
      1136      1169      1214      1216      1136      1169      1214      1217
      1137      1136      1169      1170      1137      1136      1169      1171
      1137      1136      1169      1214      1138      1136      1169      1170
      1138      1136      1169      1171      1138      1136      1169      1214
      1139      1141      1248      1249      1139      1141      1248      1250
      1140      1139      1141      1142      1140      1139      1141      1248
      1141      1248      1250      1251      1141      1248      1250      1252
      1141      1248      1250      1253      1142      1141      1248      1249
      1142      1141      1248      1250      1143      1147      1149      1150
      1143      1157      1159      1160      1143      1157      1165      1150
      1143      1157      1165      1166      1143      1157      1165      1167
      1144      1143      1145      1146      1144      1143      1147      1148
      1144      1143      1147      1149      1144      1143      1157      1158
      1144      1143      1157      1159      1144      1143      1157      1165
      1145      1143      1147      1148      1145      1143      1147      1149
      1145      1143      1157      1158      1145      1143      1157      1159
      1145      1143      1157      1165      1146      1145      1143      1147
      1146      1145      1143      1157      1147      1143      1157      1158
      1147      1143      1157      1159      1147      1143      1157      1165
      1147      1149      1150      1151      1147      1149      1150      1152
      1147      1149      1150      1165      1148      1147      1143      1157
      1148      1147      1149      1150      1149      1147      1143      1157
      1149      1150      1152      1156      1149      1150      1165      1157
      1149      1150      1165      1166      1149      1150      1165      1167
      1150      1152      1156      1153      1150      1152      1156      1154
      1150      1152      1156      1155      1150      1165      1157      1158
      1150      1165      1157      1159      1150      1165      1167      1168
      1150      1165      1167      1364      1151      1150      1152      1156
      1151      1150      1165      1157      1151      1150      1165      1166
      1151      1150      1165      1167      1152      1150      1165      1157
      1152      1150      1165      1166      1152      1150      1165      1167
      1156      1152      1150      1165      1157      1159      1160      1161
      1157      1159      1160      1162      1157      1165      1167      1168
      1157      1165      1167      1364      1158      1157      1159      1160
      1158      1157      1165      1166      1158      1157      1165      1167
      1159      1157      1165      1166      1159      1157      1165      1167
      1159      1160      1162      1163      1159      1160      1162      1164
      1159      1160      1162      1326      1160      1159      1157      1165
      1160      1162      1326      1327      1160      1162      1326      1328
      1160      1162      1326      1330      1161      1160      1162      1163
      1161      1160      1162      1164      1161      1160      1162      1326
      1162      1326      1328      1329      1162      1326      1330      1331
      1162      1326      1330      1332      1162      1326      1330      1333
      1163      1162      1326      1327      1163      1162      1326      1328
      1163      1162      1326      1330      1164      1162      1326      1327
      1164      1162      1326      1328      1164      1162      1326      1330
      1165      1167      1364      1365      1165      1167      1364      1366
      1166      1165      1167      1168      1166      1165      1167      1364
      1167      1364      1366      1367      1167      1364      1366      1368
      1167      1364      1366      1369      1168      1167      1364      1365
      1168      1167      1364      1366      1169      1171      1172      1173
      1169      1171      1172      1174      1169      1214      1217      1218
      1169      1214      1217      1219      1169      1214      1217      1220
      1170      1169      1171      1172      1170      1169      1214      1215
      1170      1169      1214      1216      1170      1169      1214      1217
      1171      1169      1214      1215      1171      1169      1214      1216
      1171      1169      1214      1217      1171      1172      1174      1175
      1171      1172      1174      1176      1171      1172      1174      1177
      1172      1171      1169      1214      1172      1174      1177      1178
      1172      1174      1177      1179      1172      1174      1177      1180
      1173      1172      1174      1175      1173      1172      1174      1176
      1173      1172      1174      1177      1174      1177      1180      1181
      1174      1177      1180      1182      1174      1177      1180      1183
      1175      1174      1177      1178      1175      1174      1177      1179
      1175      1174      1177      1180      1176      1174      1177      1178
      1176      1174      1177      1179      1176      1174      1177      1180
      1177      1180      1183      1184      1177      1180      1183      1185
      1177      1180      1183      1186      1178      1177      1180      1181
      1178      1177      1180      1182      1178      1177      1180      1183
      1179      1177      1180      1181      1179      1177      1180      1182
      1179      1177      1180      1183      1180      1183      1186      1187
      1180      1183      1186      1188      1180      1183      1186      1189
      1181      1180      1183      1184      1181      1180      1183      1185
      1181      1180      1183      1186      1182      1180      1183      1184
      1182      1180      1183      1185      1182      1180      1183      1186
      1183      1186      1189      1190      1183      1186      1189      1191
      1183      1186      1189      1192      1184      1183      1186      1187
      1184      1183      1186      1188      1184      1183      1186      1189
      1185      1183      1186      1187      1185      1183      1186      1188
      1185      1183      1186      1189      1186      1189      1192      1193
      1186      1189      1192      1194      1186      1189      1192      1195
      1187      1186      1189      1190      1187      1186      1189      1191
      1187      1186      1189      1192      1188      1186      1189      1190
      1188      1186      1189      1191      1188      1186      1189      1192
      1189      1192      1195      1196      1189      1192      1195      1197
      1189      1192      1195      1198      1190      1189      1192      1193
      1190      1189      1192      1194      1190      1189      1192      1195
      1191      1189      1192      1193      1191      1189      1192      1194
      1191      1189      1192      1195      1192      1195      1198      1199
      1192      1195      1198      1200      1192      1195      1198      1201
      1193      1192      1195      1196      1193      1192      1195      1197
      1193      1192      1195      1198      1194      1192      1195      1196
      1194      1192      1195      1197      1194      1192      1195      1198
      1195      1198      1201      1202      1195      1198      1201      1203
      1195      1198      1201      1204      1196      1195      1198      1199
      1196      1195      1198      1200      1196      1195      1198      1201
      1197      1195      1198      1199      1197      1195      1198      1200
      1197      1195      1198      1201      1198      1201      1204      1205
      1198      1201      1204      1206      1198      1201      1204      1207
      1199      1198      1201      1202      1199      1198      1201      1203
      1199      1198      1201      1204      1200      1198      1201      1202
      1200      1198      1201      1203      1200      1198      1201      1204
      1201      1204      1207      1208      1201      1204      1207      1209
      1201      1204      1207      1210      1202      1201      1204      1205
      1202      1201      1204      1206      1202      1201      1204      1207
      1203      1201      1204      1205      1203      1201      1204      1206
      1203      1201      1204      1207      1204      1207      1210      1211
      1204      1207      1210      1212      1204      1207      1210      1213
      1205      1204      1207      1208      1205      1204      1207      1209
      1205      1204      1207      1210      1206      1204      1207      1208
      1206      1204      1207      1209      1206      1204      1207      1210
      1208      1207      1210      1211      1208      1207      1210      1212
      1208      1207      1210      1213      1209      1207      1210      1211
      1209      1207      1210      1212      1209      1207      1210      1213
      1214      1217      1220      1221      1214      1217      1220      1222
      1214      1217      1220      1223      1215      1214      1217      1218
      1215      1214      1217      1219      1215      1214      1217      1220
      1216      1214      1217      1218      1216      1214      1217      1219
      1216      1214      1217      1220      1217      1220      1223      1224
      1217      1220      1223      1225      1217      1220      1223      1226
      1218      1217      1220      1221      1218      1217      1220      1222
      1218      1217      1220      1223      1219      1217      1220      1221
      1219      1217      1220      1222      1219      1217      1220      1223
      1220      1223      1226      1227      1220      1223      1226      1228
      1220      1223      1226      1229      1221      1220      1223      1224
      1221      1220      1223      1225      1221      1220      1223      1226
      1222      1220      1223      1224      1222      1220      1223      1225
      1222      1220      1223      1226      1223      1226      1229      1230
      1223      1226      1229      1231      1223      1226      1229      1232
      1224      1223      1226      1227      1224      1223      1226      1228
      1224      1223      1226      1229      1225      1223      1226      1227
      1225      1223      1226      1228      1225      1223      1226      1229
      1226      1229      1232      1233      1226      1229      1232      1234
      1226      1229      1232      1235      1227      1226      1229      1230
      1227      1226      1229      1231      1227      1226      1229      1232
      1228      1226      1229      1230      1228      1226      1229      1231
      1228      1226      1229      1232      1229      1232      1235      1236
      1229      1232      1235      1237      1229      1232      1235      1238
      1230      1229      1232      1233      1230      1229      1232      1234
      1230      1229      1232      1235      1231      1229      1232      1233
      1231      1229      1232      1234      1231      1229      1232      1235
      1232      1235      1238      1239      1232      1235      1238      1240
      1232      1235      1238      1241      1233      1232      1235      1236
      1233      1232      1235      1237      1233      1232      1235      1238
      1234      1232      1235      1236      1234      1232      1235      1237
      1234      1232      1235      1238      1235      1238      1241      1242
      1235      1238      1241      1243      1235      1238      1241      1244
      1236      1235      1238      1239      1236      1235      1238      1240
      1236      1235      1238      1241      1237      1235      1238      1239
      1237      1235      1238      1240      1237      1235      1238      1241
      1238      1241      1244      1245      1238      1241      1244      1246
      1238      1241      1244      1247      1239      1238      1241      1242
      1239      1238      1241      1243      1239      1238      1241      1244
      1240      1238      1241      1242      1240      1238      1241      1243
      1240      1238      1241      1244      1242      1241      1244      1245
      1242      1241      1244      1246      1242      1241      1244      1247
      1243      1241      1244      1245      1243      1241      1244      1246
      1243      1241      1244      1247      1248      1250      1253      1254
      1248      1250      1253      1255      1248      1250      1253      1292
      1249      1248      1250      1251      1249      1248      1250      1252
      1249      1248      1250      1253      1250      1253      1255      1256
      1250      1253      1292      1293      1250      1253      1292      1294
      1250      1253      1292      1295      1251      1250      1253      1254
      1251      1250      1253      1255      1251      1250      1253      1292
      1252      1250      1253      1254      1252      1250      1253      1255
      1252      1250      1253      1292      1253      1255      1256      1257
      1253      1255      1256      1258      1253      1292      1295      1296
      1253      1292      1295      1297      1253      1292      1295      1298
      1254      1253      1255      1256      1254      1253      1292      1293
      1254      1253      1292      1294      1254      1253      1292      1295
      1255      1253      1292      1293      1255      1253      1292      1294
      1255      1253      1292      1295      1255      1256      1258      1259
      1255      1256      1258      1260      1255      1256      1258      1261
      1256      1255      1253      1292      1256      1258      1261      1262
      1256      1258      1261      1263      1256      1258      1261      1264
      1257      1256      1258      1259      1257      1256      1258      1260
      1257      1256      1258      1261      1258      1261      1264      1265
      1258      1261      1264      1266      1258      1261      1264      1267
      1259      1258      1261      1262      1259      1258      1261      1263
      1259      1258      1261      1264      1260      1258      1261      1262
      1260      1258      1261      1263      1260      1258      1261      1264
      1261      1264      1267      1268      1261      1264      1267      1269
      1261      1264      1267      1270      1262      1261      1264      1265
      1262      1261      1264      1266      1262      1261      1264      1267
      1263      1261      1264      1265      1263      1261      1264      1266
      1263      1261      1264      1267      1264      1267      1270      1271
      1264      1267      1270      1272      1264      1267      1270      1273
      1265      1264      1267      1268      1265      1264      1267      1269
      1265      1264      1267      1270      1266      1264      1267      1268
      1266      1264      1267      1269      1266      1264      1267      1270
      1267      1270      1273      1274      1267      1270      1273      1275
      1267      1270      1273      1276      1268      1267      1270      1271
      1268      1267      1270      1272      1268      1267      1270      1273
      1269      1267      1270      1271      1269      1267      1270      1272
      1269      1267      1270      1273      1270      1273      1276      1277
      1270      1273      1276      1278      1270      1273      1276      1279
      1271      1270      1273      1274      1271      1270      1273      1275
      1271      1270      1273      1276      1272      1270      1273      1274
      1272      1270      1273      1275      1272      1270      1273      1276
      1273      1276      1279      1280      1273      1276      1279      1281
      1273      1276      1279      1282      1274      1273      1276      1277
      1274      1273      1276      1278      1274      1273      1276      1279
      1275      1273      1276      1277      1275      1273      1276      1278
      1275      1273      1276      1279      1276      1279      1282      1283
      1276      1279      1282      1284      1276      1279      1282      1285
      1277      1276      1279      1280      1277      1276      1279      1281
      1277      1276      1279      1282      1278      1276      1279      1280
      1278      1276      1279      1281      1278      1276      1279      1282
      1279      1282      1285      1286      1279      1282      1285      1287
      1279      1282      1285      1288      1280      1279      1282      1283
      1280      1279      1282      1284      1280      1279      1282      1285
      1281      1279      1282      1283      1281      1279      1282      1284
      1281      1279      1282      1285      1282      1285      1288      1289
      1282      1285      1288      1290      1282      1285      1288      1291
      1283      1282      1285      1286      1283      1282      1285      1287
      1283      1282      1285      1288      1284      1282      1285      1286
      1284      1282      1285      1287      1284      1282      1285      1288
      1286      1285      1288      1289      1286      1285      1288      1290
      1286      1285      1288      1291      1287      1285      1288      1289
      1287      1285      1288      1290      1287      1285      1288      1291
      1292      1295      1298      1299      1292      1295      1298      1300
      1292      1295      1298      1301      1293      1292      1295      1296
      1293      1292      1295      1297      1293      1292      1295      1298
      1294      1292      1295      1296      1294      1292      1295      1297
      1294      1292      1295      1298      1295      1298      1301      1302
      1295      1298      1301      1303      1295      1298      1301      1304
      1296      1295      1298      1299      1296      1295      1298      1300
      1296      1295      1298      1301      1297      1295      1298      1299
      1297      1295      1298      1300      1297      1295      1298      1301
      1298      1301      1304      1305      1298      1301      1304      1306
      1298      1301      1304      1307      1299      1298      1301      1302
      1299      1298      1301      1303      1299      1298      1301      1304
      1300      1298      1301      1302      1300      1298      1301      1303
      1300      1298      1301      1304      1301      1304      1307      1308
      1301      1304      1307      1309      1301      1304      1307      1310
      1302      1301      1304      1305      1302      1301      1304      1306
      1302      1301      1304      1307      1303      1301      1304      1305
      1303      1301      1304      1306      1303      1301      1304      1307
      1304      1307      1310      1311      1304      1307      1310      1312
      1304      1307      1310      1313      1305      1304      1307      1308
      1305      1304      1307      1309      1305      1304      1307      1310
      1306      1304      1307      1308      1306      1304      1307      1309
      1306      1304      1307      1310      1307      1310      1313      1314
      1307      1310      1313      1315      1307      1310      1313      1316
      1308      1307      1310      1311      1308      1307      1310      1312
      1308      1307      1310      1313      1309      1307      1310      1311
      1309      1307      1310      1312      1309      1307      1310      1313
      1310      1313      1316      1317      1310      1313      1316      1318
      1310      1313      1316      1319      1311      1310      1313      1314
      1311      1310      1313      1315      1311      1310      1313      1316
      1312      1310      1313      1314      1312      1310      1313      1315
      1312      1310      1313      1316      1313      1316      1319      1320
      1313      1316      1319      1321      1313      1316      1319      1322
      1314      1313      1316      1317      1314      1313      1316      1318
      1314      1313      1316      1319      1315      1313      1316      1317
      1315      1313      1316      1318      1315      1313      1316      1319
      1316      1319      1322      1323      1316      1319      1322      1324
      1316      1319      1322      1325      1317      1316      1319      1320
      1317      1316      1319      1321      1317      1316      1319      1322
      1318      1316      1319      1320      1318      1316      1319      1321
      1318      1316      1319      1322      1320      1319      1322      1323
      1320      1319      1322      1324      1320      1319      1322      1325
      1321      1319      1322      1323      1321      1319      1322      1324
      1321      1319      1322      1325      1326      1330      1333      1334
      1326      1330      1333      1335      1326      1330      1333      1336
      1327      1326      1328      1329      1327      1326      1330      1331
      1327      1326      1330      1332      1327      1326      1330      1333
      1328      1326      1330      1331      1328      1326      1330      1332
      1328      1326      1330      1333      1329      1328      1326      1330
      1330      1333      1336      1337      1330      1333      1336      1338
      1330      1333      1336      1339      1331      1330      1333      1334
      1331      1330      1333      1335      1331      1330      1333      1336
      1332      1330      1333      1334      1332      1330      1333      1335
      1332      1330      1333      1336      1333      1336      1339      1340
      1333      1336      1339      1341      1333      1336      1339      1342
      1334      1333      1336      1337      1334      1333      1336      1338
      1334      1333      1336      1339      1335      1333      1336      1337
      1335      1333      1336      1338      1335      1333      1336      1339
      1336      1339      1342      1343      1336      1339      1342      1344
      1336      1339      1342      1345      1337      1336      1339      1340
      1337      1336      1339      1341      1337      1336      1339      1342
      1338      1336      1339      1340      1338      1336      1339      1341
      1338      1336      1339      1342      1339      1342      1345      1346
      1339      1342      1345      1347      1339      1342      1345      1348
      1340      1339      1342      1343      1340      1339      1342      1344
      1340      1339      1342      1345      1341      1339      1342      1343
      1341      1339      1342      1344      1341      1339      1342      1345
      1342      1345      1348      1349      1342      1345      1348      1350
      1342      1345      1348      1351      1343      1342      1345      1346
      1343      1342      1345      1347      1343      1342      1345      1348
      1344      1342      1345      1346      1344      1342      1345      1347
      1344      1342      1345      1348      1345      1348      1351      1352
      1345      1348      1351      1353      1345      1348      1351      1354
      1346      1345      1348      1349      1346      1345      1348      1350
      1346      1345      1348      1351      1347      1345      1348      1349
      1347      1345      1348      1350      1347      1345      1348      1351
      1348      1351      1354      1355      1348      1351      1354      1356
      1348      1351      1354      1357      1349      1348      1351      1352
      1349      1348      1351      1353      1349      1348      1351      1354
      1350      1348      1351      1352      1350      1348      1351      1353
      1350      1348      1351      1354      1351      1354      1357      1358
      1351      1354      1357      1359      1351      1354      1357      1360
      1352      1351      1354      1355      1352      1351      1354      1356
      1352      1351      1354      1357      1353      1351      1354      1355
      1353      1351      1354      1356      1353      1351      1354      1357
      1354      1357      1360      1361      1354      1357      1360      1362
      1354      1357      1360      1363      1355      1354      1357      1358
      1355      1354      1357      1359      1355      1354      1357      1360
      1356      1354      1357      1358      1356      1354      1357      1359
      1356      1354      1357      1360      1358      1357      1360      1361
      1358      1357      1360      1362      1358      1357      1360      1363
      1359      1357      1360      1361      1359      1357      1360      1362
      1359      1357      1360      1363      1364      1366      1369      1370
      1364      1366      1369      1371      1364      1366      1369      1373
      1365      1364      1366      1367      1365      1364      1366      1368
      1365      1364      1366      1369      1366      1369      1371      1372
      1366      1369      1373      1374      1366      1369      1373      1375
      1366      1369      1373      1376      1367      1366      1369      1370
      1367      1366      1369      1371      1367      1366      1369      1373
      1368      1366      1369      1370      1368      1366      1369      1371
      1368      1366      1369      1373      1369      1373      1376      1377
      1369      1373      1376      1378      1369      1373      1376      1379
      1370      1369      1371      1372      1370      1369      1373      1374
      1370      1369      1373      1375      1370      1369      1373      1376
      1371      1369      1373      1374      1371      1369      1373      1375
      1371      1369      1373      1376      1372      1371      1369      1373
      1373      1376      1379      1380      1373      1376      1379      1381
      1373      1376      1379      1382      1374      1373      1376      1377
      1374      1373      1376      1378      1374      1373      1376      1379
      1375      1373      1376      1377      1375      1373      1376      1378
      1375      1373      1376      1379      1376      1379      1382      1383
      1376      1379      1382      1384      1376      1379      1382      1385
      1377      1376      1379      1380      1377      1376      1379      1381
      1377      1376      1379      1382      1378      1376      1379      1380
      1378      1376      1379      1381      1378      1376      1379      1382
      1379      1382      1385      1386      1379      1382      1385      1387
      1379      1382      1385      1388      1380      1379      1382      1383
      1380      1379      1382      1384      1380      1379      1382      1385
      1381      1379      1382      1383      1381      1379      1382      1384
      1381      1379      1382      1385      1382      1385      1388      1389
      1382      1385      1388      1390      1382      1385      1388      1391
      1383      1382      1385      1386      1383      1382      1385      1387
      1383      1382      1385      1388      1384      1382      1385      1386
      1384      1382      1385      1387      1384      1382      1385      1388
      1385      1388      1391      1392      1385      1388      1391      1393
      1385      1388      1391      1394      1386      1385      1388      1389
      1386      1385      1388      1390      1386      1385      1388      1391
      1387      1385      1388      1389      1387      1385      1388      1390
      1387      1385      1388      1391      1388      1391      1394      1395
      1388      1391      1394      1396      1388      1391      1394      1397
      1389      1388      1391      1392      1389      1388      1391      1393
      1389      1388      1391      1394      1390      1388      1391      1392
      1390      1388      1391      1393      1390      1388      1391      1394
      1391      1394      1397      1398      1391      1394      1397      1399
      1391      1394      1397      1400      1392      1391      1394      1395
      1392      1391      1394      1396      1392      1391      1394      1397
      1393      1391      1394      1395      1393      1391      1394      1396
      1393      1391      1394      1397      1394      1397      1400      1401
      1394      1397      1400      1402      1394      1397      1400      1403
      1395      1394      1397      1398      1395      1394      1397      1399
      1395      1394      1397      1400      1396      1394      1397      1398
      1396      1394      1397      1399      1396      1394      1397      1400
      1397      1400      1403      1404      1397      1400      1403      1405
      1397      1400      1403      1406      1398      1397      1400      1401
      1398      1397      1400      1402      1398      1397      1400      1403
      1399      1397      1400      1401      1399      1397      1400      1402
      1399      1397      1400      1403      1401      1400      1403      1404
      1401      1400      1403      1405      1401      1400      1403      1406
      1402      1400      1403      1404      1402      1400      1403      1405
      1402      1400      1403      1406      1407      1410      1413      1411
      1407      1410      1414      1415      1407      1410      1414      1416
      1407      1410      1414      1417      1408      1407      1410      1413
      1408      1407      1410      1414      1409      1407      1410      1413
      1409      1407      1410      1414      1410      1413      1411      1412
      1410      1413      1411      1420      1410      1413      1411      1423
      1410      1414      1417      1418      1410      1414      1417      1419
      1410      1414      1417      1420      1411      1413      1410      1414
      1411      1420      1417      1414      1411      1420      1417      1418
      1411      1420      1417      1419      1411      1420      1422      1459
      1411      1423      1425      1426      1411      1423      1427      1428
      1411      1423      1427      1429      1411      1423      1427      1430
      1412      1411      1420      1417      1412      1411      1420      1421
      1412      1411      1420      1422      1412      1411      1423      1424
      1412      1411      1423      1425      1412      1411      1423      1427
      1413      1410      1414      1415      1413      1410      1414      1416
      1413      1410      1414      1417      1413      1411      1420      1417
      1413      1411      1420      1421      1413      1411      1420      1422
      1413      1411      1423      1424      1413      1411      1423      1425
      1413      1411      1423      1427      1414      1417      1419      1435
      1414      1417      1420      1421      1414      1417      1420      1422
      1415      1414      1417      1418      1415      1414      1417      1419
      1415      1414      1417      1420      1416      1414      1417      1418
      1416      1414      1417      1419      1416      1414      1417      1420
      1417      1419      1435      1432      1417      1419      1435      1438
      1417      1419      1435      1439      1417      1420      1411      1423
      1417      1420      1422      1459      1418      1417      1419      1435
      1418      1417      1420      1421      1418      1417      1420      1422
      1419      1417      1420      1421      1419      1417      1420      1422
      1419      1435      1432      1433      1419      1435      1432      1434
      1419      1435      1438      1436      1419      1435      1439      1440
      1419      1435      1439      1441      1419      1435      1439      1442
      1420      1411      1423      1424      1420      1411      1423      1425
      1420      1411      1423      1427      1420      1417      1419      1435
      1420      1422      1459      1460      1420      1422      1459      1463
      1420      1422      1459      1464      1421      1420      1411      1423
      1421      1420      1422      1459      1422      1420      1411      1423
      1422      1459      1463      1461      1422      1459      1464      1465
      1422      1459      1464      1466      1422      1459      1464      1468
      1423      1427      1430      1431      1424      1423      1425      1426
      1424      1423      1427      1428      1424      1423      1427      1429
      1424      1423      1427      1430      1425      1423      1427      1428
      1425      1423      1427      1429      1425      1423      1427      1430
      1426      1425      1423      1427      1428      1427      1430      1431
      1429      1427      1430      1431      1432      1435      1438      1436
      1432      1435      1439      1440      1432      1435      1439      1441
      1432      1435      1439      1442      1433      1432      1435      1438
      1433      1432      1435      1439      1434      1432      1435      1438
      1434      1432      1435      1439      1435      1438      1436      1437
      1435      1438      1436      1446      1435      1438      1436      1450
      1435      1439      1442      1443      1435      1439      1442      1444
      1435      1439      1442      1446      1436      1438      1435      1439
      1436      1446      1442      1439      1436      1446      1442      1443
      1436      1446      1442      1444      1436      1446      1448      1449
      1436      1450      1452      1453      1436      1450      1454      1455
      1436      1450      1454      1456      1436      1450      1454      1457
      1437      1436      1446      1442      1437      1436      1446      1447
      1437      1436      1446      1448      1437      1436      1450      1451
      1437      1436      1450      1452      1437      1436      1450      1454
      1438      1435      1439      1440      1438      1435      1439      1441
      1438      1435      1439      1442      1438      1436      1446      1442
      1438      1436      1446      1447      1438      1436      1446      1448
      1438      1436      1450      1451      1438      1436      1450      1452
      1438      1436      1450      1454      1439      1442      1444      1445
      1439      1442      1446      1447      1439      1442      1446      1448
      1440      1439      1442      1443      1440      1439      1442      1444
      1440      1439      1442      1446      1441      1439      1442      1443
      1441      1439      1442      1444      1441      1439      1442      1446
      1442      1446      1436      1450      1442      1446      1448      1449
      1443      1442      1444      1445      1443      1442      1446      1447
      1443      1442      1446      1448      1444      1442      1446      1447
      1444      1442      1446      1448      1445      1444      1442      1446
      1446      1436      1450      1451      1446      1436      1450      1452
      1446      1436      1450      1454      1447      1446      1436      1450
      1447      1446      1448      1449      1448      1446      1436      1450
      1450      1454      1457      1458      1451      1450      1452      1453
      1451      1450      1454      1455      1451      1450      1454      1456
      1451      1450      1454      1457      1452      1450      1454      1455
      1452      1450      1454      1456      1452      1450      1454      1457
      1453      1452      1450      1454      1455      1454      1457      1458
      1456      1454      1457      1458      1459      1463      1461      1462
      1459      1463      1461      1471      1459      1463      1461      1478
      1459      1464      1466      1467      1459      1464      1468      1469
      1459      1464      1468      1470      1459      1464      1468      1471
      1460      1459      1463      1461      1460      1459      1464      1465
      1460      1459      1464      1466      1460      1459      1464      1468
      1461      1463      1459      1464      1461      1471      1468      1464
      1461      1471      1468      1469      1461      1471      1468      1470
      1461      1471      1473      1474      1461      1478      1480      1481
      1461      1478      1482      1483      1461      1478      1482      1484
      1461      1478      1482      1485      1462      1461      1471      1468
      1462      1461      1471      1472      1462      1461      1471      1473
      1462      1461      1478      1479      1462      1461      1478      1480
      1462      1461      1478      1482      1463      1459      1464      1465
      1463      1459      1464      1466      1463      1459      1464      1468
      1463      1461      1471      1468      1463      1461      1471      1472
      1463      1461      1471      1473      1463      1461      1478      1479
      1463      1461      1478      1480      1463      1461      1478      1482
      1464      1468      1470      1487      1464      1468      1471      1472
      1464      1468      1471      1473      1465      1464      1466      1467
      1465      1464      1468      1469      1465      1464      1468      1470
      1465      1464      1468      1471      1466      1464      1468      1469
      1466      1464      1468      1470      1466      1464      1468      1471
      1467      1466      1464      1468      1468      1470      1487      1488
      1468      1470      1487      1491      1468      1470      1487      1492
      1468      1471      1461      1478      1468      1471      1473      1474
      1469      1468      1470      1487      1469      1468      1471      1472
      1469      1468      1471      1473      1470      1468      1471      1472
      1470      1468      1471      1473      1470      1487      1491      1489
      1470      1487      1492      1493      1470      1487      1492      1494
      1470      1487      1492      1496      1471      1461      1478      1479
      1471      1461      1478      1480      1471      1461      1478      1482
      1471      1468      1470      1487      1471      1473      1474      1475
      1471      1473      1474      1476      1471      1473      1474      1477
      1472      1471      1461      1478      1472      1471      1473      1474
      1473      1471      1461      1478      1478      1482      1485      1486
      1479      1478      1480      1481      1479      1478      1482      1483
      1479      1478      1482      1484      1479      1478      1482      1485
      1480      1478      1482      1483      1480      1478      1482      1484
      1480      1478      1482      1485      1481      1480      1478      1482
      1483      1482      1485      1486      1484      1482      1485      1486
      1487      1491      1489      1490      1487      1491      1489      1499
      1487      1491      1489      1506      1487      1492      1494      1495
      1487      1492      1496      1497      1487      1492      1496      1498
      1487      1492      1496      1499      1488      1487      1491      1489
      1488      1487      1492      1493      1488      1487      1492      1494
      1488      1487      1492      1496      1489      1491      1487      1492
      1489      1499      1496      1492      1489      1499      1496      1497
      1489      1499      1496      1498      1489      1499      1501      1502
      1489      1506      1508      1509      1489      1506      1510      1511
      1489      1506      1510      1512      1489      1506      1510      1513
      1490      1489      1499      1496      1490      1489      1499      1500
      1490      1489      1499      1501      1490      1489      1506      1507
      1490      1489      1506      1508      1490      1489      1506      1510
      1491      1487      1492      1493      1491      1487      1492      1494
      1491      1487      1492      1496      1491      1489      1499      1496
      1491      1489      1499      1500      1491      1489      1499      1501
      1491      1489      1506      1507      1491      1489      1506      1508
      1491      1489      1506      1510      1492      1496      1498      1540
      1492      1496      1499      1500      1492      1496      1499      1501
      1493      1492      1494      1495      1493      1492      1496      1497
      1493      1492      1496      1498      1493      1492      1496      1499
      1494      1492      1496      1497      1494      1492      1496      1498
      1494      1492      1496      1499      1495      1494      1492      1496
      1496      1498      1540      1541      1496      1498      1540      1544
      1496      1498      1540      1545      1496      1499      1489      1506
      1496      1499      1501      1502      1497      1496      1498      1540
      1497      1496      1499      1500      1497      1496      1499      1501
      1498      1496      1499      1500      1498      1496      1499      1501
      1498      1540      1544      1542      1498      1540      1545      1546
      1498      1540      1545      1547      1498      1540      1545      1549
      1499      1489      1506      1507      1499      1489      1506      1508
      1499      1489      1506      1510      1499      1496      1498      1540
      1499      1501      1502      1503      1499      1501      1502      1504
      1499      1501      1502      1505      1500      1499      1489      1506
      1500      1499      1501      1502      1501      1499      1489      1506
      1506      1510      1513      1514      1507      1506      1508      1509
      1507      1506      1510      1511      1507      1506      1510      1512
      1507      1506      1510      1513      1508      1506      1510      1511
      1508      1506      1510      1512      1508      1506      1510      1513
      1509      1508      1506      1510      1510      1513      1514      1515
      1510      1513      1514      1518      1510      1513      1514      1519
      1511      1510      1513      1514      1512      1510      1513      1514
      1513      1514      1518      1516      1513      1514      1519      1520
      1513      1514      1519      1521      1513      1514      1519      1523
      1514      1518      1516      1517      1514      1518      1516      1527
      1514      1518      1516      1531      1514      1519      1521      1522
      1514      1519      1523      1524      1514      1519      1523      1525
      1514      1519      1523      1527      1515      1514      1518      1516
      1515      1514      1519      1520      1515      1514      1519      1521
      1515      1514      1519      1523      1516      1518      1514      1519
      1516      1527      1523      1519      1516      1527      1523      1524
      1516      1527      1523      1525      1516      1527      1529      1530
      1516      1531      1533      1534      1516      1531      1535      1536
      1516      1531      1535      1537      1516      1531      1535      1538
      1517      1516      1527      1523      1517      1516      1527      1528
      1517      1516      1527      1529      1517      1516      1531      1532
      1517      1516      1531      1533      1517      1516      1531      1535
      1518      1514      1519      1520      1518      1514      1519      1521
      1518      1514      1519      1523      1518      1516      1527      1523
      1518      1516      1527      1528      1518      1516      1527      1529
      1518      1516      1531      1532      1518      1516      1531      1533
      1518      1516      1531      1535      1519      1523      1525      1526
      1519      1523      1527      1528      1519      1523      1527      1529
      1520      1519      1521      1522      1520      1519      1523      1524
      1520      1519      1523      1525      1520      1519      1523      1527
      1521      1519      1523      1524      1521      1519      1523      1525
      1521      1519      1523      1527      1522      1521      1519      1523
      1523      1527      1516      1531      1523      1527      1529      1530
      1524      1523      1525      1526      1524      1523      1527      1528
      1524      1523      1527      1529      1525      1523      1527      1528
      1525      1523      1527      1529      1526      1525      1523      1527
      1527      1516      1531      1532      1527      1516      1531      1533
      1527      1516      1531      1535      1528      1527      1516      1531
      1528      1527      1529      1530      1529      1527      1516      1531
      1531      1535      1538      1539      1532      1531      1533      1534
      1532      1531      1535      1536      1532      1531      1535      1537
      1532      1531      1535      1538      1533      1531      1535      1536
      1533      1531      1535      1537      1533      1531      1535      1538
      1534      1533      1531      1535      1536      1535      1538      1539
      1537      1535      1538      1539      1540      1544      1542      1543
      1540      1544      1542      1552      1540      1544      1542      1556
      1540      1545      1547      1548      1540      1545      1549      1550
      1540      1545      1549      1551      1540      1545      1549      1552
      1541      1540      1544      1542      1541      1540      1545      1546
      1541      1540      1545      1547      1541      1540      1545      1549
      1542      1544      1540      1545      1542      1552      1549      1545
      1542      1552      1549      1550      1542      1552      1549      1551
      1542      1552      1554      1555      1542      1556      1559      1560
      1543      1542      1552      1549      1543      1542      1552      1553
      1543      1542      1552      1554      1543      1542      1556      1557
      1543      1542      1556      1558      1543      1542      1556      1559
      1544      1540      1545      1546      1544      1540      1545      1547
      1544      1540      1545      1549      1544      1542      1552      1549
      1544      1542      1552      1553      1544      1542      1552      1554
      1544      1542      1556      1557      1544      1542      1556      1558
      1544      1542      1556      1559      1545      1549      1551      1561
      1545      1549      1552      1553      1545      1549      1552      1554
      1546      1545      1547      1548      1546      1545      1549      1550
      1546      1545      1549      1551      1546      1545      1549      1552
      1547      1545      1549      1550      1547      1545      1549      1551
      1547      1545      1549      1552      1548      1547      1545      1549
      1549      1551      1561      1562      1549      1551      1561      1565
      1549      1551      1561      1566      1549      1552      1542      1556
      1549      1552      1554      1555      1550      1549      1551      1561
      1550      1549      1552      1553      1550      1549      1552      1554
      1551      1549      1552      1553      1551      1549      1552      1554
      1551      1561      1565      1563      1551      1561      1566      1567
      1551      1561      1566      1568      1551      1561      1566      1569
      1552      1542      1556      1557      1552      1542      1556      1558
      1552      1542      1556      1559      1552      1549      1551      1561
      1553      1552      1542      1556      1553      1552      1554      1555
      1554      1552      1542      1556      1557      1556      1559      1560
      1558      1556      1559      1560      1561      1565      1563      1564
      1561      1565      1563      1572      1561      1565      1563      1576
      1561      1566      1568      1581      1561      1566      1569      1570
      1561      1566      1569      1571      1561      1566      1569      1572
      1562      1561      1565      1563      1562      1561      1566      1567
      1562      1561      1566      1568      1562      1561      1566      1569
      1563      1565      1561      1566      1563      1572      1569      1566
      1563      1572      1569      1570      1563      1572      1569      1571
      1563      1572      1574      1575      1563      1576      1579      1580
      1564      1563      1572      1569      1564      1563      1572      1573
      1564      1563      1572      1574      1564      1563      1576      1577
      1564      1563      1576      1578      1564      1563      1576      1579
      1565      1561      1566      1567      1565      1561      1566      1568
      1565      1561      1566      1569      1565      1563      1572      1569
      1565      1563      1572      1573      1565      1563      1572      1574
      1565      1563      1576      1577      1565      1563      1576      1578
      1565      1563      1576      1579      1566      1568      1581      1582
      1566      1568      1581      1585      1566      1568      1581      1586
      1566      1569      1571      1624      1566      1569      1572      1573
      1566      1569      1572      1574      1567      1566      1568      1581
      1567      1566      1569      1570      1567      1566      1569      1571
      1567      1566      1569      1572      1568      1566      1569      1570
      1568      1566      1569      1571      1568      1566      1569      1572
      1568      1581      1585      1583      1568      1581      1586      1587
      1568      1581      1586      1588      1568      1581      1586      1589
      1569      1566      1568      1581      1569      1571      1624      1625
      1569      1571      1624      1628      1569      1571      1624      1629
      1569      1572      1563      1576      1569      1572      1574      1575
      1570      1569      1571      1624      1570      1569      1572      1573
      1570      1569      1572      1574      1571      1569      1572      1573
      1571      1569      1572      1574      1571      1624      1628      1626
      1571      1624      1629      1630      1571      1624      1629      1631
      1571      1624      1629      1633      1572      1563      1576      1577
      1572      1563      1576      1578      1572      1563      1576      1579
      1572      1569      1571      1624      1573      1572      1563      1576
      1573      1572      1574      1575      1574      1572      1563      1576
      1577      1576      1579      1580      1578      1576      1579      1580
      1581      1585      1583      1584      1581      1585      1583      1593
      1581      1585      1583      1597      1581      1586      1588      1602
      1581      1586      1589      1590      1581      1586      1589      1591
      1581      1586      1589      1593      1582      1581      1585      1583
      1582      1581      1586      1587      1582      1581      1586      1588
      1582      1581      1586      1589      1583      1585      1581      1586
      1583      1593      1589      1586      1583      1593      1589      1590
      1583      1593      1589      1591      1583      1593      1595      1596
      1583      1597      1600      1601      1584      1583      1593      1589
      1584      1583      1593      1594      1584      1583      1593      1595
      1584      1583      1597      1598      1584      1583      1597      1599
      1584      1583      1597      1600      1585      1581      1586      1587
      1585      1581      1586      1588      1585      1581      1586      1589
      1585      1583      1593      1589      1585      1583      1593      1594
      1585      1583      1593      1595      1585      1583      1597      1598
      1585      1583      1597      1599      1585      1583      1597      1600
      1586      1588      1602      1603      1586      1588      1602      1606
      1586      1588      1602      1607      1586      1589      1591      1592
      1586      1589      1593      1594      1586      1589      1593      1595
      1587      1586      1588      1602      1587      1586      1589      1590
      1587      1586      1589      1591      1587      1586      1589      1593
      1588      1586      1589      1590      1588      1586      1589      1591
      1588      1586      1589      1593      1588      1602      1606      1604
      1588      1602      1607      1608      1588      1602      1607      1609
      1588      1602      1607      1611      1589      1586      1588      1602
      1589      1593      1583      1597      1589      1593      1595      1596
      1590      1589      1591      1592      1590      1589      1593      1594
      1590      1589      1593      1595      1591      1589      1593      1594
      1591      1589      1593      1595      1592      1591      1589      1593
      1593      1583      1597      1598      1593      1583      1597      1599
      1593      1583      1597      1600      1594      1593      1583      1597
      1594      1593      1595      1596      1595      1593      1583      1597
      1598      1597      1600      1601      1599      1597      1600      1601
      1602      1606      1604      1605      1602      1606      1604      1615
      1602      1606      1604      1619      1602      1607      1609      1610
      1602      1607      1611      1612      1602      1607      1611      1613
      1602      1607      1611      1615      1603      1602      1606      1604
      1603      1602      1607      1608      1603      1602      1607      1609
      1603      1602      1607      1611      1604      1606      1602      1607
      1604      1615      1611      1607      1604      1615      1611      1612
      1604      1615      1611      1613      1604      1615      1617      1618
      1604      1619      1622      1623      1605      1604      1615      1611
      1605      1604      1615      1616      1605      1604      1615      1617
      1605      1604      1619      1620      1605      1604      1619      1621
      1605      1604      1619      1622      1606      1602      1607      1608
      1606      1602      1607      1609      1606      1602      1607      1611
      1606      1604      1615      1611      1606      1604      1615      1616
      1606      1604      1615      1617      1606      1604      1619      1620
      1606      1604      1619      1621      1606      1604      1619      1622
      1607      1611      1613      1614      1607      1611      1615      1616
      1607      1611      1615      1617      1608      1607      1609      1610
      1608      1607      1611      1612      1608      1607      1611      1613
      1608      1607      1611      1615      1609      1607      1611      1612
      1609      1607      1611      1613      1609      1607      1611      1615
      1610      1609      1607      1611      1611      1615      1604      1619
      1611      1615      1617      1618      1612      1611      1613      1614
      1612      1611      1615      1616      1612      1611      1615      1617
      1613      1611      1615      1616      1613      1611      1615      1617
      1614      1613      1611      1615      1615      1604      1619      1620
      1615      1604      1619      1621      1615      1604      1619      1622
      1616      1615      1604      1619      1616      1615      1617      1618
      1617      1615      1604      1619      1620      1619      1622      1623
      1621      1619      1622      1623      1624      1628      1626      1627
      1624      1628      1626      1636      1624      1628      1626      1640
      1624      1629      1631      1632      1624      1629      1633      1634
      1624      1629      1633      1635      1624      1629      1633      1636
      1625      1624      1628      1626      1625      1624      1629      1630
      1625      1624      1629      1631      1625      1624      1629      1633
      1626      1628      1624      1629      1626      1636      1633      1629
      1626      1636      1633      1634      1626      1636      1633      1635
      1626      1636      1638      1639      1626      1640      1643      1644
      1627      1626      1636      1633      1627      1626      1636      1637
      1627      1626      1636      1638      1627      1626      1640      1641
      1627      1626      1640      1642      1627      1626      1640      1643
      1628      1624      1629      1630      1628      1624      1629      1631
      1628      1624      1629      1633      1628      1626      1636      1633
      1628      1626      1636      1637      1628      1626      1636      1638
      1628      1626      1640      1641      1628      1626      1640      1642
      1628      1626      1640      1643      1629      1633      1635      1645
      1629      1633      1636      1637      1629      1633      1636      1638
      1630      1629      1631      1632      1630      1629      1633      1634
      1630      1629      1633      1635      1630      1629      1633      1636
      1631      1629      1633      1634      1631      1629      1633      1635
      1631      1629      1633      1636      1632      1631      1629      1633
      1633      1635      1645      1646      1633      1635      1645      1649
      1633      1635      1645      1650      1633      1636      1626      1640
      1633      1636      1638      1639      1634      1633      1635      1645
      1634      1633      1636      1637      1634      1633      1636      1638
      1635      1633      1636      1637      1635      1633      1636      1638
      1635      1645      1649      1647      1635      1645      1650      1651
      1635      1645      1650      1652      1635      1645      1650      1660
      1636      1626      1640      1641      1636      1626      1640      1642
      1636      1626      1640      1643      1636      1633      1635      1645
      1637      1636      1626      1640      1637      1636      1638      1639
      1638      1636      1626      1640      1641      1640      1643      1644
      1642      1640      1643      1644      1645      1649      1647      1648
      1645      1649      1647      1663      1645      1649      1647      1667
      1645      1650      1652      1653      1645      1650      1652      1654
      1645      1650      1660      1661      1645      1650      1660      1662
      1645      1650      1660      1663      1646      1645      1649      1647
      1646      1645      1650      1651      1646      1645      1650      1652
      1646      1645      1650      1660      1647      1649      1645      1650
      1647      1663      1660      1650      1647      1663      1660      1661
      1647      1663      1660      1662      1647      1663      1665      1666
      1647      1667      1670      1671      1648      1647      1663      1660
      1648      1647      1663      1664      1648      1647      1663      1665
      1648      1647      1667      1668      1648      1647      1667      1669
      1648      1647      1667      1670      1649      1645      1650      1651
      1649      1645      1650      1652      1649      1645      1650      1660
      1649      1647      1663      1660      1649      1647      1663      1664
      1649      1647      1663      1665      1649      1647      1667      1668
      1649      1647      1667      1669      1649      1647      1667      1670
      1650      1652      1654      1655      1650      1652      1654      1656
      1650      1660      1662      1672      1650      1660      1663      1664
      1650      1660      1663      1665      1651      1650      1652      1653
      1651      1650      1652      1654      1651      1650      1660      1661
      1651      1650      1660      1662      1651      1650      1660      1663
      1652      1650      1660      1661      1652      1650      1660      1662
      1652      1650      1660      1663      1652      1654      1656      1657
      1652      1654      1656      1658      1652      1654      1656      1659
      1653      1652      1650      1660      1653      1652      1654      1655
      1653      1652      1654      1656      1654      1652      1650      1660
      1655      1654      1656      1657      1655      1654      1656      1658
      1655      1654      1656      1659      1660      1662      1672      1673
      1660      1662      1672      1676      1660      1662      1672      1677
      1660      1663      1647      1667      1660      1663      1665      1666
      1661      1660      1662      1672      1661      1660      1663      1664
      1661      1660      1663      1665      1662      1660      1663      1664
      1662      1660      1663      1665      1662      1672      1676      1674
      1662      1672      1677      1678      1662      1672      1677      1679
      1662      1672      1677      1680      1663      1647      1667      1668
      1663      1647      1667      1669      1663      1647      1667      1670
      1663      1660      1662      1672      1664      1663      1647      1667
      1664      1663      1665      1666      1665      1663      1647      1667
      1668      1667      1670      1671      1669      1667      1670      1671
      1672      1676      1674      1675      1672      1676      1674      1684
      1672      1676      1674      1688      1672      1677      1679      1693
      1672      1677      1680      1681      1672      1677      1680      1682
      1672      1677      1680      1684      1673      1672      1676      1674
      1673      1672      1677      1678      1673      1672      1677      1679
      1673      1672      1677      1680      1674      1676      1672      1677
      1674      1684      1680      1677      1674      1684      1680      1681
      1674      1684      1680      1682      1674      1684      1686      1687
      1674      1688      1691      1692      1675      1674      1684      1680
      1675      1674      1684      1685      1675      1674      1684      1686
      1675      1674      1688      1689      1675      1674      1688      1690
      1675      1674      1688      1691      1676      1672      1677      1678
      1676      1672      1677      1679      1676      1672      1677      1680
      1676      1674      1684      1680      1676      1674      1684      1685
      1676      1674      1684      1686      1676      1674      1688      1689
      1676      1674      1688      1690      1676      1674      1688      1691
      1677      1679      1693      1694      1677      1679      1693      1697
      1677      1679      1693      1698      1677      1680      1682      1683
      1677      1680      1684      1685      1677      1680      1684      1686
      1678      1677      1679      1693      1678      1677      1680      1681
      1678      1677      1680      1682      1678      1677      1680      1684
      1679      1677      1680      1681      1679      1677      1680      1682
      1679      1677      1680      1684      1679      1693      1697      1695
      1679      1693      1698      1699      1679      1693      1698      1700
      1679      1693      1698      1701      1680      1677      1679      1693
      1680      1684      1674      1688      1680      1684      1686      1687
      1681      1680      1682      1683      1681      1680      1684      1685
      1681      1680      1684      1686      1682      1680      1684      1685
      1682      1680      1684      1686      1683      1682      1680      1684
      1684      1674      1688      1689      1684      1674      1688      1690
      1684      1674      1688      1691      1685      1684      1674      1688
      1685      1684      1686      1687      1686      1684      1674      1688
      1689      1688      1691      1692      1690      1688      1691      1692
      1693      1697      1695      1696      1693      1697      1695      1705
      1693      1697      1695      1709      1693      1698      1700      1713
      1693      1698      1701      1702      1693      1698      1701      1703
      1693      1698      1701      1705      1694      1693      1697      1695
      1694      1693      1698      1699      1694      1693      1698      1700
      1694      1693      1698      1701      1695      1697      1693      1698
      1695      1705      1701      1698      1695      1705      1701      1702
      1695      1705      1701      1703      1695      1705      1707      1708
      1696      1695      1705      1701      1696      1695      1705      1706
      1696      1695      1705      1707      1696      1695      1709      1710
      1696      1695      1709      1711      1696      1695      1709      1712
      1697      1693      1698      1699      1697      1693      1698      1700
      1697      1693      1698      1701      1697      1695      1705      1701
      1697      1695      1705      1706      1697      1695      1705      1707
      1697      1695      1709      1710      1697      1695      1709      1711
      1697      1695      1709      1712      1698      1700      1713      1714
      1698      1700      1713      1717      1698      1700      1713      1718
      1698      1701      1703      1704      1698      1701      1705      1706
      1698      1701      1705      1707      1699      1698      1700      1713
      1699      1698      1701      1702      1699      1698      1701      1703
      1699      1698      1701      1705      1700      1698      1701      1702
      1700      1698      1701      1703      1700      1698      1701      1705
      1700      1713      1717      1715      1700      1713      1718      1719
      1700      1713      1718      1720      1700      1713      1718      1721
      1701      1698      1700      1713      1701      1705      1695      1709
      1701      1705      1707      1708      1702      1701      1703      1704
      1702      1701      1705      1706      1702      1701      1705      1707
      1703      1701      1705      1706      1703      1701      1705      1707
      1704      1703      1701      1705      1705      1695      1709      1710
      1705      1695      1709      1711      1705      1695      1709      1712
      1706      1705      1695      1709      1706      1705      1707      1708
      1707      1705      1695      1709      1713      1717      1715      1716
      1713      1717      1715      1724      1713      1717      1715      1728
      1713      1718      1720      1732      1713      1718      1721      1722
      1713      1718      1721      1723      1713      1718      1721      1724
      1714      1713      1717      1715      1714      1713      1718      1719
      1714      1713      1718      1720      1714      1713      1718      1721
      1715      1717      1713      1718      1715      1724      1721      1718
      1715      1724      1721      1722      1715      1724      1721      1723
      1715      1724      1726      1727      1716      1715      1724      1721
      1716      1715      1724      1725      1716      1715      1724      1726
      1716      1715      1728      1729      1716      1715      1728      1730
      1716      1715      1728      1731      1717      1713      1718      1719
      1717      1713      1718      1720      1717      1713      1718      1721
      1717      1715      1724      1721      1717      1715      1724      1725
      1717      1715      1724      1726      1717      1715      1728      1729
      1717      1715      1728      1730      1717      1715      1728      1731
      1718      1720      1732      1733      1718      1720      1732      1736
      1718      1720      1732      1737      1718      1721      1723      1760
      1718      1721      1724      1725      1718      1721      1724      1726
      1719      1718      1720      1732      1719      1718      1721      1722
      1719      1718      1721      1723      1719      1718      1721      1724
      1720      1718      1721      1722      1720      1718      1721      1723
      1720      1718      1721      1724      1720      1732      1736      1734
      1720      1732      1737      1738      1720      1732      1737      1739
      1720      1732      1737      1747      1721      1718      1720      1732
      1721      1723      1760      1761      1721      1723      1760      1764
      1721      1723      1760      1765      1721      1724      1715      1728
      1721      1724      1726      1727      1722      1721      1723      1760
      1722      1721      1724      1725      1722      1721      1724      1726
      1723      1721      1724      1725      1723      1721      1724      1726
      1723      1760      1764      1762      1723      1760      1765      1766
      1723      1760      1765      1767      1723      1760      1765      1775
      1724      1715      1728      1729      1724      1715      1728      1730
      1724      1715      1728      1731      1724      1721      1723      1760
      1725      1724      1715      1728      1725      1724      1726      1727
      1726      1724      1715      1728      1732      1736      1734      1735
      1732      1736      1734      1751      1732      1736      1734      1755
      1732      1737      1739      1740      1732      1737      1739      1741
      1732      1737      1747      1748      1732      1737      1747      1749
      1732      1737      1747      1751      1733      1732      1736      1734
      1733      1732      1737      1738      1733      1732      1737      1739
      1733      1732      1737      1747      1734      1736      1732      1737
      1734      1751      1747      1737      1734      1751      1747      1748
      1734      1751      1747      1749      1734      1751      1753      1754
      1734      1755      1758      1759      1735      1734      1751      1747
      1735      1734      1751      1752      1735      1734      1751      1753
      1735      1734      1755      1756      1735      1734      1755      1757
      1735      1734      1755      1758      1736      1732      1737      1738
      1736      1732      1737      1739      1736      1732      1737      1747
      1736      1734      1751      1747      1736      1734      1751      1752
      1736      1734      1751      1753      1736      1734      1755      1756
      1736      1734      1755      1757      1736      1734      1755      1758
      1737      1739      1741      1742      1737      1739      1741      1743
      1737      1747      1749      1750      1737      1747      1751      1752
      1737      1747      1751      1753      1738      1737      1739      1740
      1738      1737      1739      1741      1738      1737      1747      1748
      1738      1737      1747      1749      1738      1737      1747      1751
      1739      1737      1747      1748      1739      1737      1747      1749
      1739      1737      1747      1751      1739      1741      1743      1744
      1739      1741      1743      1745      1739      1741      1743      1746
      1740      1739      1737      1747      1740      1739      1741      1742
      1740      1739      1741      1743      1741      1739      1737      1747
      1742      1741      1743      1744      1742      1741      1743      1745
      1742      1741      1743      1746      1747      1751      1734      1755
      1747      1751      1753      1754      1748      1747      1749      1750
      1748      1747      1751      1752      1748      1747      1751      1753
      1749      1747      1751      1752      1749      1747      1751      1753
      1750      1749      1747      1751      1751      1734      1755      1756
      1751      1734      1755      1757      1751      1734      1755      1758
      1752      1751      1734      1755      1752      1751      1753      1754
      1753      1751      1734      1755      1756      1755      1758      1759
      1757      1755      1758      1759      1760      1764      1762      1763
      1760      1764      1762      1778      1760      1764      1762      1782
      1760      1765      1767      1768      1760      1765      1767      1769
      1760      1765      1775      1776      1760      1765      1775      1777
      1760      1765      1775      1778      1761      1760      1764      1762
      1761      1760      1765      1766      1761      1760      1765      1767
      1761      1760      1765      1775      1762      1764      1760      1765
      1762      1778      1775      1765      1762      1778      1775      1776
      1762      1778      1775      1777      1762      1778      1780      1781
      1762      1782      1785      1786      1763      1762      1778      1775
      1763      1762      1778      1779      1763      1762      1778      1780
      1763      1762      1782      1783      1763      1762      1782      1784
      1763      1762      1782      1785      1764      1760      1765      1766
      1764      1760      1765      1767      1764      1760      1765      1775
      1764      1762      1778      1775      1764      1762      1778      1779
      1764      1762      1778      1780      1764      1762      1782      1783
      1764      1762      1782      1784      1764      1762      1782      1785
      1765      1767      1769      1770      1765      1767      1769      1771
      1765      1775      1777      1787      1765      1775      1778      1779
      1765      1775      1778      1780      1766      1765      1767      1768
      1766      1765      1767      1769      1766      1765      1775      1776
      1766      1765      1775      1777      1766      1765      1775      1778
      1767      1765      1775      1776      1767      1765      1775      1777
      1767      1765      1775      1778      1767      1769      1771      1772
      1767      1769      1771      1773      1767      1769      1771      1774
      1768      1767      1765      1775      1768      1767      1769      1770
      1768      1767      1769      1771      1769      1767      1765      1775
      1770      1769      1771      1772      1770      1769      1771      1773
      1770      1769      1771      1774      1775      1777      1787      1788
      1775      1777      1787      1791      1775      1777      1787      1792
      1775      1778      1762      1782      1775      1778      1780      1781
      1776      1775      1777      1787      1776      1775      1778      1779
      1776      1775      1778      1780      1777      1775      1778      1779
      1777      1775      1778      1780      1777      1787      1791      1789
      1777      1787      1792      1793      1777      1787      1792      1794
      1777      1787      1792      1795      1778      1762      1782      1783
      1778      1762      1782      1784      1778      1762      1782      1785
      1778      1775      1777      1787      1779      1778      1762      1782
      1779      1778      1780      1781      1780      1778      1762      1782
      1783      1782      1785      1786      1784      1782      1785      1786
      1787      1791      1789      1790      1787      1791      1789      1799
      1787      1791      1789      1803      1787      1792      1794      1808
      1787      1792      1795      1796      1787      1792      1795      1797
      1787      1792      1795      1799      1788      1787      1791      1789
      1788      1787      1792      1793      1788      1787      1792      1794
      1788      1787      1792      1795      1789      1791      1787      1792
      1789      1799      1795      1792      1789      1799      1795      1796
      1789      1799      1795      1797      1789      1799      1801      1802
      1789      1803      1806      1807      1790      1789      1799      1795
      1790      1789      1799      1800      1790      1789      1799      1801
      1790      1789      1803      1804      1790      1789      1803      1805
      1790      1789      1803      1806      1791      1787      1792      1793
      1791      1787      1792      1794      1791      1787      1792      1795
      1791      1789      1799      1795      1791      1789      1799      1800
      1791      1789      1799      1801      1791      1789      1803      1804
      1791      1789      1803      1805      1791      1789      1803      1806
      1792      1794      1808      1809      1792      1794      1808      1812
      1792      1794      1808      1813      1792      1795      1797      1798
      1792      1795      1799      1800      1792      1795      1799      1801
      1793      1792      1794      1808      1793      1792      1795      1796
      1793      1792      1795      1797      1793      1792      1795      1799
      1794      1792      1795      1796      1794      1792      1795      1797
      1794      1792      1795      1799      1794      1808      1812      1810
      1794      1808      1813      1814      1794      1808      1813      1815
      1794      1808      1813      1816      1795      1792      1794      1808
      1795      1799      1789      1803      1795      1799      1801      1802
      1796      1795      1797      1798      1796      1795      1799      1800
      1796      1795      1799      1801      1797      1795      1799      1800
      1797      1795      1799      1801      1798      1797      1795      1799
      1799      1789      1803      1804      1799      1789      1803      1805
      1799      1789      1803      1806      1800      1799      1789      1803
      1800      1799      1801      1802      1801      1799      1789      1803
      1804      1803      1806      1807      1805      1803      1806      1807
      1808      1812      1810      1811      1808      1812      1810      1820
      1808      1812      1810      1824      1808      1813      1815      1828
      1808      1813      1816      1817      1808      1813      1816      1818
      1808      1813      1816      1820      1809      1808      1812      1810
      1809      1808      1813      1814      1809      1808      1813      1815
      1809      1808      1813      1816      1810      1812      1808      1813
      1810      1820      1816      1813      1810      1820      1816      1817
      1810      1820      1816      1818      1810      1820      1822      1823
      1811      1810      1820      1816      1811      1810      1820      1821
      1811      1810      1820      1822      1811      1810      1824      1825
      1811      1810      1824      1826      1811      1810      1824      1827
      1812      1808      1813      1814      1812      1808      1813      1815
      1812      1808      1813      1816      1812      1810      1820      1816
      1812      1810      1820      1821      1812      1810      1820      1822
      1812      1810      1824      1825      1812      1810      1824      1826
      1812      1810      1824      1827      1813      1815      1828      1829
      1813      1815      1828      1832      1813      1815      1828      1833
      1813      1816      1818      1819      1813      1816      1820      1821
      1813      1816      1820      1822      1814      1813      1815      1828
      1814      1813      1816      1817      1814      1813      1816      1818
      1814      1813      1816      1820      1815      1813      1816      1817
      1815      1813      1816      1818      1815      1813      1816      1820
      1815      1828      1832      1830      1815      1828      1833      1834
      1815      1828      1833      1835      1815      1828      1833      1836
      1816      1813      1815      1828      1816      1820      1810      1824
      1816      1820      1822      1823      1817      1816      1818      1819
      1817      1816      1820      1821      1817      1816      1820      1822
      1818      1816      1820      1821      1818      1816      1820      1822
      1819      1818      1816      1820      1820      1810      1824      1825
      1820      1810      1824      1826      1820      1810      1824      1827
      1821      1820      1810      1824      1821      1820      1822      1823
      1822      1820      1810      1824      1828      1832      1830      1831
      1828      1832      1830      1839      1828      1832      1830      1843
      1828      1833      1835      1847      1828      1833      1836      1837
      1828      1833      1836      1838      1828      1833      1836      1839
      1829      1828      1832      1830      1829      1828      1833      1834
      1829      1828      1833      1835      1829      1828      1833      1836
      1830      1832      1828      1833      1830      1839      1836      1833
      1830      1839      1836      1837      1830      1839      1836      1838
      1830      1839      1841      1842      1831      1830      1839      1836
      1831      1830      1839      1840      1831      1830      1839      1841
      1831      1830      1843      1844      1831      1830      1843      1845
      1831      1830      1843      1846      1832      1828      1833      1834
      1832      1828      1833      1835      1832      1828      1833      1836
      1832      1830      1839      1836      1832      1830      1839      1840
      1832      1830      1839      1841      1832      1830      1843      1844
      1832      1830      1843      1845      1832      1830      1843      1846
      1833      1835      1847      1848      1833      1835      1847      1851
      1833      1835      1847      1852      1833      1836      1838      1875
      1833      1836      1839      1840      1833      1836      1839      1841
      1834      1833      1835      1847      1834      1833      1836      1837
      1834      1833      1836      1838      1834      1833      1836      1839
      1835      1833      1836      1837      1835      1833      1836      1838
      1835      1833      1836      1839      1835      1847      1851      1849
      1835      1847      1852      1853      1835      1847      1852      1854
      1835      1847      1852      1862      1836      1833      1835      1847
      1836      1838      1875      1876      1836      1838      1875      1879
      1836      1838      1875      1880      1836      1839      1830      1843
      1836      1839      1841      1842      1837      1836      1838      1875
      1837      1836      1839      1840      1837      1836      1839      1841
      1838      1836      1839      1840      1838      1836      1839      1841
      1838      1875      1879      1877      1838      1875      1880      1881
      1838      1875      1880      1882      1838      1875      1880      1890
      1839      1830      1843      1844      1839      1830      1843      1845
      1839      1830      1843      1846      1839      1836      1838      1875
      1840      1839      1830      1843      1840      1839      1841      1842
      1841      1839      1830      1843      1847      1851      1849      1850
      1847      1851      1849      1866      1847      1851      1849      1870
      1847      1852      1854      1855      1847      1852      1854      1856
      1847      1852      1862      1863      1847      1852      1862      1864
      1847      1852      1862      1866      1848      1847      1851      1849
      1848      1847      1852      1853      1848      1847      1852      1854
      1848      1847      1852      1862      1849      1851      1847      1852
      1849      1866      1862      1852      1849      1866      1862      1863
      1849      1866      1862      1864      1849      1866      1868      1869
      1849      1870      1873      1874      1850      1849      1866      1862
      1850      1849      1866      1867      1850      1849      1866      1868
      1850      1849      1870      1871      1850      1849      1870      1872
      1850      1849      1870      1873      1851      1847      1852      1853
      1851      1847      1852      1854      1851      1847      1852      1862
      1851      1849      1866      1862      1851      1849      1866      1867
      1851      1849      1866      1868      1851      1849      1870      1871
      1851      1849      1870      1872      1851      1849      1870      1873
      1852      1854      1856      1857      1852      1854      1856      1858
      1852      1862      1864      1865      1852      1862      1866      1867
      1852      1862      1866      1868      1853      1852      1854      1855
      1853      1852      1854      1856      1853      1852      1862      1863
      1853      1852      1862      1864      1853      1852      1862      1866
      1854      1852      1862      1863      1854      1852      1862      1864
      1854      1852      1862      1866      1854      1856      1858      1859
      1854      1856      1858      1860      1854      1856      1858      1861
      1855      1854      1852      1862      1855      1854      1856      1857
      1855      1854      1856      1858      1856      1854      1852      1862
      1857      1856      1858      1859      1857      1856      1858      1860
      1857      1856      1858      1861      1862      1866      1849      1870
      1862      1866      1868      1869      1863      1862      1864      1865
      1863      1862      1866      1867      1863      1862      1866      1868
      1864      1862      1866      1867      1864      1862      1866      1868
      1865      1864      1862      1866      1866      1849      1870      1871
      1866      1849      1870      1872      1866      1849      1870      1873
      1867      1866      1849      1870      1867      1866      1868      1869
      1868      1866      1849      1870      1871      1870      1873      1874
      1872      1870      1873      1874      1875      1879      1877      1878
      1875      1879      1877      1893      1875      1879      1877      1897
      1875      1880      1882      1883      1875      1880      1882      1884
      1875      1880      1890      1891      1875      1880      1890      1892
      1875      1880      1890      1893      1876      1875      1879      1877
      1876      1875      1880      1881      1876      1875      1880      1882
      1876      1875      1880      1890      1877      1879      1875      1880
      1877      1893      1890      1880      1877      1893      1890      1891
      1877      1893      1890      1892      1877      1893      1895      1896
      1877      1897      1900      1901      1878      1877      1893      1890
      1878      1877      1893      1894      1878      1877      1893      1895
      1878      1877      1897      1898      1878      1877      1897      1899
      1878      1877      1897      1900      1879      1875      1880      1881
      1879      1875      1880      1882      1879      1875      1880      1890
      1879      1877      1893      1890      1879      1877      1893      1894
      1879      1877      1893      1895      1879      1877      1897      1898
      1879      1877      1897      1899      1879      1877      1897      1900
      1880      1882      1884      1885      1880      1882      1884      1886
      1880      1890      1892      1902      1880      1890      1893      1894
      1880      1890      1893      1895      1881      1880      1882      1883
      1881      1880      1882      1884      1881      1880      1890      1891
      1881      1880      1890      1892      1881      1880      1890      1893
      1882      1880      1890      1891      1882      1880      1890      1892
      1882      1880      1890      1893      1882      1884      1886      1887
      1882      1884      1886      1888      1882      1884      1886      1889
      1883      1882      1880      1890      1883      1882      1884      1885
      1883      1882      1884      1886      1884      1882      1880      1890
      1885      1884      1886      1887      1885      1884      1886      1888
      1885      1884      1886      1889      1890      1892      1902      1903
      1890      1892      1902      1906      1890      1892      1902      1907
      1890      1893      1877      1897      1890      1893      1895      1896
      1891      1890      1892      1902      1891      1890      1893      1894
      1891      1890      1893      1895      1892      1890      1893      1894
      1892      1890      1893      1895      1892      1902      1906      1904
      1892      1902      1907      1908      1892      1902      1907      1909
      1892      1902      1907      1910      1893      1877      1897      1898
      1893      1877      1897      1899      1893      1877      1897      1900
      1893      1890      1892      1902      1894      1893      1877      1897
      1894      1893      1895      1896      1895      1893      1877      1897
      1898      1897      1900      1901      1899      1897      1900      1901
      1902      1906      1904      1905      1902      1906      1904      1914
      1902      1906      1904      1918      1902      1907      1909      1923
      1902      1907      1910      1911      1902      1907      1910      1912
      1902      1907      1910      1914      1903      1902      1906      1904
      1903      1902      1907      1908      1903      1902      1907      1909
      1903      1902      1907      1910      1904      1906      1902      1907
      1904      1914      1910      1907      1904      1914      1910      1911
      1904      1914      1910      1912      1904      1914      1916      1917
      1904      1918      1921      1922      1905      1904      1914      1910
      1905      1904      1914      1915      1905      1904      1914      1916
      1905      1904      1918      1919      1905      1904      1918      1920
      1905      1904      1918      1921      1906      1902      1907      1908
      1906      1902      1907      1909      1906      1902      1907      1910
      1906      1904      1914      1910      1906      1904      1914      1915
      1906      1904      1914      1916      1906      1904      1918      1919
      1906      1904      1918      1920      1906      1904      1918      1921
      1907      1909      1923      1924      1907      1909      1923      1927
      1907      1909      1923      1928      1907      1910      1912      1913
      1907      1910      1914      1915      1907      1910      1914      1916
      1908      1907      1909      1923      1908      1907      1910      1911
      1908      1907      1910      1912      1908      1907      1910      1914
      1909      1907      1910      1911      1909      1907      1910      1912
      1909      1907      1910      1914      1909      1923      1927      1925
      1909      1923      1928      1929      1909      1923      1928      1930
      1909      1923      1928      1931      1910      1907      1909      1923
      1910      1914      1904      1918      1910      1914      1916      1917
      1911      1910      1912      1913      1911      1910      1914      1915
      1911      1910      1914      1916      1912      1910      1914      1915
      1912      1910      1914      1916      1913      1912      1910      1914
      1914      1904      1918      1919      1914      1904      1918      1920
      1914      1904      1918      1921      1915      1914      1904      1918
      1915      1914      1916      1917      1916      1914      1904      1918
      1919      1918      1921      1922      1920      1918      1921      1922
      1923      1927      1925      1926      1923      1927      1925      1935
      1923      1927      1925      1939      1923      1928      1930      1943
      1923      1928      1931      1932      1923      1928      1931      1933
      1923      1928      1931      1935      1924      1923      1927      1925
      1924      1923      1928      1929      1924      1923      1928      1930
      1924      1923      1928      1931      1925      1927      1923      1928
      1925      1935      1931      1928      1925      1935      1931      1932
      1925      1935      1931      1933      1925      1935      1937      1938
      1926      1925      1935      1931      1926      1925      1935      1936
      1926      1925      1935      1937      1926      1925      1939      1940
      1926      1925      1939      1941      1926      1925      1939      1942
      1927      1923      1928      1929      1927      1923      1928      1930
      1927      1923      1928      1931      1927      1925      1935      1931
      1927      1925      1935      1936      1927      1925      1935      1937
      1927      1925      1939      1940      1927      1925      1939      1941
      1927      1925      1939      1942      1928      1930      1943      1944
      1928      1930      1943      1947      1928      1930      1943      1948
      1928      1931      1933      1934      1928      1931      1935      1936
      1928      1931      1935      1937      1929      1928      1930      1943
      1929      1928      1931      1932      1929      1928      1931      1933
      1929      1928      1931      1935      1930      1928      1931      1932
      1930      1928      1931      1933      1930      1928      1931      1935
      1930      1943      1947      1945      1930      1943      1948      1949
      1930      1943      1948      1950      1930      1943      1948      1951
      1931      1928      1930      1943      1931      1935      1925      1939
      1931      1935      1937      1938      1932      1931      1933      1934
      1932      1931      1935      1936      1932      1931      1935      1937
      1933      1931      1935      1936      1933      1931      1935      1937
      1934      1933      1931      1935      1935      1925      1939      1940
      1935      1925      1939      1941      1935      1925      1939      1942
      1936      1935      1925      1939      1936      1935      1937      1938
      1937      1935      1925      1939      1943      1947      1945      1946
      1943      1947      1945      1954      1943      1947      1945      1958
      1943      1948      1950      1962      1943      1948      1951      1952
      1943      1948      1951      1953      1943      1948      1951      1954
      1944      1943      1947      1945      1944      1943      1948      1949
      1944      1943      1948      1950      1944      1943      1948      1951
      1945      1947      1943      1948      1945      1954      1951      1948
      1945      1954      1951      1952      1945      1954      1951      1953
      1945      1954      1956      1957      1946      1945      1954      1951
      1946      1945      1954      1955      1946      1945      1954      1956
      1946      1945      1958      1959      1946      1945      1958      1960
      1946      1945      1958      1961      1947      1943      1948      1949
      1947      1943      1948      1950      1947      1943      1948      1951
      1947      1945      1954      1951      1947      1945      1954      1955
      1947      1945      1954      1956      1947      1945      1958      1959
      1947      1945      1958      1960      1947      1945      1958      1961
      1948      1950      1962      1963      1948      1950      1962      1966
      1948      1950      1962      1967      1948      1951      1953      1990
      1948      1951      1954      1955      1948      1951      1954      1956
      1949      1948      1950      1962      1949      1948      1951      1952
      1949      1948      1951      1953      1949      1948      1951      1954
      1950      1948      1951      1952      1950      1948      1951      1953
      1950      1948      1951      1954      1950      1962      1966      1964
      1950      1962      1967      1968      1950      1962      1967      1969
      1950      1962      1967      1977      1951      1948      1950      1962
      1951      1953      1990      1991      1951      1953      1990      1994
      1951      1953      1990      1995      1951      1954      1945      1958
      1951      1954      1956      1957      1952      1951      1953      1990
      1952      1951      1954      1955      1952      1951      1954      1956
      1953      1951      1954      1955      1953      1951      1954      1956
      1953      1990      1994      1992      1953      1990      1995      1996
      1953      1990      1995      1997      1953      1990      1995      2005
      1954      1945      1958      1959      1954      1945      1958      1960
      1954      1945      1958      1961      1954      1951      1953      1990
      1955      1954      1945      1958      1955      1954      1956      1957
      1956      1954      1945      1958      1962      1966      1964      1965
      1962      1966      1964      1981      1962      1966      1964      1985
      1962      1967      1969      1970      1962      1967      1969      1971
      1962      1967      1977      1978      1962      1967      1977      1979
      1962      1967      1977      1981      1963      1962      1966      1964
      1963      1962      1967      1968      1963      1962      1967      1969
      1963      1962      1967      1977      1964      1966      1962      1967
      1964      1981      1977      1967      1964      1981      1977      1978
      1964      1981      1977      1979      1964      1981      1983      1984
      1964      1985      1988      1989      1965      1964      1981      1977
      1965      1964      1981      1982      1965      1964      1981      1983
      1965      1964      1985      1986      1965      1964      1985      1987
      1965      1964      1985      1988      1966      1962      1967      1968
      1966      1962      1967      1969      1966      1962      1967      1977
      1966      1964      1981      1977      1966      1964      1981      1982
      1966      1964      1981      1983      1966      1964      1985      1986
      1966      1964      1985      1987      1966      1964      1985      1988
      1967      1969      1971      1972      1967      1969      1971      1973
      1967      1977      1979      1980      1967      1977      1981      1982
      1967      1977      1981      1983      1968      1967      1969      1970
      1968      1967      1969      1971      1968      1967      1977      1978
      1968      1967      1977      1979      1968      1967      1977      1981
      1969      1967      1977      1978      1969      1967      1977      1979
      1969      1967      1977      1981      1969      1971      1973      1974
      1969      1971      1973      1975      1969      1971      1973      1976
      1970      1969      1967      1977      1970      1969      1971      1972
      1970      1969      1971      1973      1971      1969      1967      1977
      1972      1971      1973      1974      1972      1971      1973      1975
      1972      1971      1973      1976      1977      1981      1964      1985
      1977      1981      1983      1984      1978      1977      1979      1980
      1978      1977      1981      1982      1978      1977      1981      1983
      1979      1977      1981      1982      1979      1977      1981      1983
      1980      1979      1977      1981      1981      1964      1985      1986
      1981      1964      1985      1987      1981      1964      1985      1988
      1982      1981      1964      1985      1982      1981      1983      1984
      1983      1981      1964      1985      1986      1985      1988      1989
      1987      1985      1988      1989      1990      1994      1992      1993
      1990      1994      1992      2008      1990      1994      1992      2012
      1990      1995      1997      1998      1990      1995      1997      1999
      1990      1995      2005      2006      1990      1995      2005      2007
      1990      1995      2005      2008      1991      1990      1994      1992
      1991      1990      1995      1996      1991      1990      1995      1997
      1991      1990      1995      2005      1992      1994      1990      1995
      1992      2008      2005      1995      1992      2008      2005      2006
      1992      2008      2005      2007      1992      2008      2010      2011
      1992      2012      2015      2016      1993      1992      2008      2005
      1993      1992      2008      2009      1993      1992      2008      2010
      1993      1992      2012      2013      1993      1992      2012      2014
      1993      1992      2012      2015      1994      1990      1995      1996
      1994      1990      1995      1997      1994      1990      1995      2005
      1994      1992      2008      2005      1994      1992      2008      2009
      1994      1992      2008      2010      1994      1992      2012      2013
      1994      1992      2012      2014      1994      1992      2012      2015
      1995      1997      1999      2000      1995      1997      1999      2001
      1995      2005      2007      2017      1995      2005      2008      2009
      1995      2005      2008      2010      1996      1995      1997      1998
      1996      1995      1997      1999      1996      1995      2005      2006
      1996      1995      2005      2007      1996      1995      2005      2008
      1997      1995      2005      2006      1997      1995      2005      2007
      1997      1995      2005      2008      1997      1999      2001      2002
      1997      1999      2001      2003      1997      1999      2001      2004
      1998      1997      1995      2005      1998      1997      1999      2000
      1998      1997      1999      2001      1999      1997      1995      2005
      2000      1999      2001      2002      2000      1999      2001      2003
      2000      1999      2001      2004      2005      2007      2017      2018
      2005      2007      2017      2021      2005      2007      2017      2022
      2005      2008      1992      2012      2005      2008      2010      2011
      2006      2005      2007      2017      2006      2005      2008      2009
      2006      2005      2008      2010      2007      2005      2008      2009
      2007      2005      2008      2010      2007      2017      2021      2019
      2007      2017      2022      2023      2007      2017      2022      2024
      2007      2017      2022      2025      2008      1992      2012      2013
      2008      1992      2012      2014      2008      1992      2012      2015
      2008      2005      2007      2017      2009      2008      1992      2012
      2009      2008      2010      2011      2010      2008      1992      2012
      2013      2012      2015      2016      2014      2012      2015      2016
      2017      2021      2019      2020      2017      2021      2019      2029
      2017      2021      2019      2033      2017      2022      2024      2038
      2017      2022      2025      2026      2017      2022      2025      2027
      2017      2022      2025      2029      2018      2017      2021      2019
      2018      2017      2022      2023      2018      2017      2022      2024
      2018      2017      2022      2025      2019      2021      2017      2022
      2019      2029      2025      2022      2019      2029      2025      2026
      2019      2029      2025      2027      2019      2029      2031      2032
      2019      2033      2036      2037      2020      2019      2029      2025
      2020      2019      2029      2030      2020      2019      2029      2031
      2020      2019      2033      2034      2020      2019      2033      2035
      2020      2019      2033      2036      2021      2017      2022      2023
      2021      2017      2022      2024      2021      2017      2022      2025
      2021      2019      2029      2025      2021      2019      2029      2030
      2021      2019      2029      2031      2021      2019      2033      2034
      2021      2019      2033      2035      2021      2019      2033      2036
      2022      2024      2038      2039      2022      2024      2038      2042
      2022      2024      2038      2043      2022      2025      2027      2028
      2022      2025      2029      2030      2022      2025      2029      2031
      2023      2022      2024      2038      2023      2022      2025      2026
      2023      2022      2025      2027      2023      2022      2025      2029
      2024      2022      2025      2026      2024      2022      2025      2027
      2024      2022      2025      2029      2024      2038      2042      2040
      2024      2038      2043      2044      2024      2038      2043      2045
      2024      2038      2043      2046      2025      2022      2024      2038
      2025      2029      2019      2033      2025      2029      2031      2032
      2026      2025      2027      2028      2026      2025      2029      2030
      2026      2025      2029      2031      2027      2025      2029      2030
      2027      2025      2029      2031      2028      2027      2025      2029
      2029      2019      2033      2034      2029      2019      2033      2035
      2029      2019      2033      2036      2030      2029      2019      2033
      2030      2029      2031      2032      2031      2029      2019      2033
      2034      2033      2036      2037      2035      2033      2036      2037
      2038      2042      2040      2041      2038      2042      2040      2050
      2038      2042      2040      2054      2038      2043      2045      2058
      2038      2043      2046      2047      2038      2043      2046      2048
      2038      2043      2046      2050      2039      2038      2042      2040
      2039      2038      2043      2044      2039      2038      2043      2045
      2039      2038      2043      2046      2040      2042      2038      2043
      2040      2050      2046      2043      2040      2050      2046      2047
      2040      2050      2046      2048      2040      2050      2052      2053
      2041      2040      2050      2046      2041      2040      2050      2051
      2041      2040      2050      2052      2041      2040      2054      2055
      2041      2040      2054      2056      2041      2040      2054      2057
      2042      2038      2043      2044      2042      2038      2043      2045
      2042      2038      2043      2046      2042      2040      2050      2046
      2042      2040      2050      2051      2042      2040      2050      2052
      2042      2040      2054      2055      2042      2040      2054      2056
      2042      2040      2054      2057      2043      2045      2058      2059
      2043      2045      2058      2062      2043      2045      2058      2063
      2043      2046      2048      2049      2043      2046      2050      2051
      2043      2046      2050      2052      2044      2043      2045      2058
      2044      2043      2046      2047      2044      2043      2046      2048
      2044      2043      2046      2050      2045      2043      2046      2047
      2045      2043      2046      2048      2045      2043      2046      2050
      2045      2058      2062      2060      2045      2058      2063      2064
      2045      2058      2063      2065      2045      2058      2063      2066
      2046      2043      2045      2058      2046      2050      2040      2054
      2046      2050      2052      2053      2047      2046      2048      2049
      2047      2046      2050      2051      2047      2046      2050      2052
      2048      2046      2050      2051      2048      2046      2050      2052
      2049      2048      2046      2050      2050      2040      2054      2055
      2050      2040      2054      2056      2050      2040      2054      2057
      2051      2050      2040      2054      2051      2050      2052      2053
      2052      2050      2040      2054      2058      2062      2060      2061
      2058      2062      2060      2069      2058      2062      2060      2073
      2058      2063      2065      2077      2058      2063      2066      2067
      2058      2063      2066      2068      2058      2063      2066      2069
      2059      2058      2062      2060      2059      2058      2063      2064
      2059      2058      2063      2065      2059      2058      2063      2066
      2060      2062      2058      2063      2060      2069      2066      2063
      2060      2069      2066      2067      2060      2069      2066      2068
      2060      2069      2071      2072      2061      2060      2069      2066
      2061      2060      2069      2070      2061      2060      2069      2071
      2061      2060      2073      2074      2061      2060      2073      2075
      2061      2060      2073      2076      2062      2058      2063      2064
      2062      2058      2063      2065      2062      2058      2063      2066
      2062      2060      2069      2066      2062      2060      2069      2070
      2062      2060      2069      2071      2062      2060      2073      2074
      2062      2060      2073      2075      2062      2060      2073      2076
      2063      2065      2077      2078      2063      2065      2077      2081
      2063      2065      2077      2082      2063      2066      2068      2105
      2063      2066      2069      2070      2063      2066      2069      2071
      2064      2063      2065      2077      2064      2063      2066      2067
      2064      2063      2066      2068      2064      2063      2066      2069
      2065      2063      2066      2067      2065      2063      2066      2068
      2065      2063      2066      2069      2065      2077      2081      2079
      2065      2077      2082      2083      2065      2077      2082      2084
      2065      2077      2082      2092      2066      2063      2065      2077
      2066      2068      2105      2106      2066      2068      2105      2109
      2066      2068      2105      2110      2066      2069      2060      2073
      2066      2069      2071      2072      2067      2066      2068      2105
      2067      2066      2069      2070      2067      2066      2069      2071
      2068      2066      2069      2070      2068      2066      2069      2071
      2068      2105      2109      2107      2068      2105      2110      2111
      2068      2105      2110      2112      2068      2105      2110      2120
      2069      2060      2073      2074      2069      2060      2073      2075
      2069      2060      2073      2076      2069      2066      2068      2105
      2070      2069      2060      2073      2070      2069      2071      2072
      2071      2069      2060      2073      2077      2081      2079      2080
      2077      2081      2079      2096      2077      2081      2079      2100
      2077      2082      2084      2085      2077      2082      2084      2086
      2077      2082      2092      2093      2077      2082      2092      2094
      2077      2082      2092      2096      2078      2077      2081      2079
      2078      2077      2082      2083      2078      2077      2082      2084
      2078      2077      2082      2092      2079      2081      2077      2082
      2079      2096      2092      2082      2079      2096      2092      2093
      2079      2096      2092      2094      2079      2096      2098      2099
      2079      2100      2103      2104      2080      2079      2096      2092
      2080      2079      2096      2097      2080      2079      2096      2098
      2080      2079      2100      2101      2080      2079      2100      2102
      2080      2079      2100      2103      2081      2077      2082      2083
      2081      2077      2082      2084      2081      2077      2082      2092
      2081      2079      2096      2092      2081      2079      2096      2097
      2081      2079      2096      2098      2081      2079      2100      2101
      2081      2079      2100      2102      2081      2079      2100      2103
      2082      2084      2086      2087      2082      2084      2086      2088
      2082      2092      2094      2095      2082      2092      2096      2097
      2082      2092      2096      2098      2083      2082      2084      2085
      2083      2082      2084      2086      2083      2082      2092      2093
      2083      2082      2092      2094      2083      2082      2092      2096
      2084      2082      2092      2093      2084      2082      2092      2094
      2084      2082      2092      2096      2084      2086      2088      2089
      2084      2086      2088      2090      2084      2086      2088      2091
      2085      2084      2082      2092      2085      2084      2086      2087
      2085      2084      2086      2088      2086      2084      2082      2092
      2087      2086      2088      2089      2087      2086      2088      2090
      2087      2086      2088      2091      2092      2096      2079      2100
      2092      2096      2098      2099      2093      2092      2094      2095
      2093      2092      2096      2097      2093      2092      2096      2098
      2094      2092      2096      2097      2094      2092      2096      2098
      2095      2094      2092      2096      2096      2079      2100      2101
      2096      2079      2100      2102      2096      2079      2100      2103
      2097      2096      2079      2100      2097      2096      2098      2099
      2098      2096      2079      2100      2101      2100      2103      2104
      2102      2100      2103      2104      2105      2109      2107      2108
      2105      2109      2107      2123      2105      2109      2107      2127
      2105      2110      2112      2113      2105      2110      2112      2114
      2105      2110      2120      2121      2105      2110      2120      2122
      2105      2110      2120      2123      2106      2105      2109      2107
      2106      2105      2110      2111      2106      2105      2110      2112
      2106      2105      2110      2120      2107      2109      2105      2110
      2107      2123      2120      2110      2107      2123      2120      2121
      2107      2123      2120      2122      2107      2123      2125      2126
      2107      2127      2130      2131      2108      2107      2123      2120
      2108      2107      2123      2124      2108      2107      2123      2125
      2108      2107      2127      2128      2108      2107      2127      2129
      2108      2107      2127      2130      2109      2105      2110      2111
      2109      2105      2110      2112      2109      2105      2110      2120
      2109      2107      2123      2120      2109      2107      2123      2124
      2109      2107      2123      2125      2109      2107      2127      2128
      2109      2107      2127      2129      2109      2107      2127      2130
      2110      2112      2114      2115      2110      2112      2114      2116
      2110      2120      2122      2132      2110      2120      2123      2124
      2110      2120      2123      2125      2111      2110      2112      2113
      2111      2110      2112      2114      2111      2110      2120      2121
      2111      2110      2120      2122      2111      2110      2120      2123
      2112      2110      2120      2121      2112      2110      2120      2122
      2112      2110      2120      2123      2112      2114      2116      2117
      2112      2114      2116      2118      2112      2114      2116      2119
      2113      2112      2110      2120      2113      2112      2114      2115
      2113      2112      2114      2116      2114      2112      2110      2120
      2115      2114      2116      2117      2115      2114      2116      2118
      2115      2114      2116      2119      2120      2122      2132      2133
      2120      2122      2132      2136      2120      2122      2132      2137
      2120      2123      2107      2127      2120      2123      2125      2126
      2121      2120      2122      2132      2121      2120      2123      2124
      2121      2120      2123      2125      2122      2120      2123      2124
      2122      2120      2123      2125      2122      2132      2136      2134
      2122      2132      2137      2138      2122      2132      2137      2139
      2122      2132      2137      2140      2123      2107      2127      2128
      2123      2107      2127      2129      2123      2107      2127      2130
      2123      2120      2122      2132      2124      2123      2107      2127
      2124      2123      2125      2126      2125      2123      2107      2127
      2128      2127      2130      2131      2129      2127      2130      2131
      2132      2136      2134      2135      2132      2136      2134      2144
      2132      2136      2134      2148      2132      2137      2139      2153
      2132      2137      2140      2141      2132      2137      2140      2142
      2132      2137      2140      2144      2133      2132      2136      2134
      2133      2132      2137      2138      2133      2132      2137      2139
      2133      2132      2137      2140      2134      2136      2132      2137
      2134      2144      2140      2137      2134      2144      2140      2141
      2134      2144      2140      2142      2134      2144      2146      2147
      2134      2148      2151      2152      2135      2134      2144      2140
      2135      2134      2144      2145      2135      2134      2144      2146
      2135      2134      2148      2149      2135      2134      2148      2150
      2135      2134      2148      2151      2136      2132      2137      2138
      2136      2132      2137      2139      2136      2132      2137      2140
      2136      2134      2144      2140      2136      2134      2144      2145
      2136      2134      2144      2146      2136      2134      2148      2149
      2136      2134      2148      2150      2136      2134      2148      2151
      2137      2139      2153      2154      2137      2139      2153      2157
      2137      2139      2153      2158      2137      2140      2142      2143
      2137      2140      2144      2145      2137      2140      2144      2146
      2138      2137      2139      2153      2138      2137      2140      2141
      2138      2137      2140      2142      2138      2137      2140      2144
      2139      2137      2140      2141      2139      2137      2140      2142
      2139      2137      2140      2144      2139      2153      2157      2155
      2139      2153      2158      2159      2139      2153      2158      2160
      2139      2153      2158      2161      2140      2137      2139      2153
      2140      2144      2134      2148      2140      2144      2146      2147
      2141      2140      2142      2143      2141      2140      2144      2145
      2141      2140      2144      2146      2142      2140      2144      2145
      2142      2140      2144      2146      2143      2142      2140      2144
      2144      2134      2148      2149      2144      2134      2148      2150
      2144      2134      2148      2151      2145      2144      2134      2148
      2145      2144      2146      2147      2146      2144      2134      2148
      2149      2148      2151      2152      2150      2148      2151      2152
      2153      2157      2155      2156      2153      2157      2155      2165
      2153      2157      2155      2169      2153      2158      2160      2173
      2153      2158      2161      2162      2153      2158      2161      2163
      2153      2158      2161      2165      2154      2153      2157      2155
      2154      2153      2158      2159      2154      2153      2158      2160
      2154      2153      2158      2161      2155      2157      2153      2158
      2155      2165      2161      2158      2155      2165      2161      2162
      2155      2165      2161      2163      2155      2165      2167      2168
      2156      2155      2165      2161      2156      2155      2165      2166
      2156      2155      2165      2167      2156      2155      2169      2170
      2156      2155      2169      2171      2156      2155      2169      2172
      2157      2153      2158      2159      2157      2153      2158      2160
      2157      2153      2158      2161      2157      2155      2165      2161
      2157      2155      2165      2166      2157      2155      2165      2167
      2157      2155      2169      2170      2157      2155      2169      2171
      2157      2155      2169      2172      2158      2160      2173      2174
      2158      2160      2173      2177      2158      2160      2173      2178
      2158      2161      2163      2164      2158      2161      2165      2166
      2158      2161      2165      2167      2159      2158      2160      2173
      2159      2158      2161      2162      2159      2158      2161      2163
      2159      2158      2161      2165      2160      2158      2161      2162
      2160      2158      2161      2163      2160      2158      2161      2165
      2160      2173      2177      2175      2160      2173      2178      2179
      2160      2173      2178      2180      2160      2173      2178      2181
      2161      2158      2160      2173      2161      2165      2155      2169
      2161      2165      2167      2168      2162      2161      2163      2164
      2162      2161      2165      2166      2162      2161      2165      2167
      2163      2161      2165      2166      2163      2161      2165      2167
      2164      2163      2161      2165      2165      2155      2169      2170
      2165      2155      2169      2171      2165      2155      2169      2172
      2166      2165      2155      2169      2166      2165      2167      2168
      2167      2165      2155      2169      2173      2177      2175      2176
      2173      2177      2175      2185      2173      2177      2175      2189
      2173      2178      2180      2193      2173      2178      2181      2182
      2173      2178      2181      2183      2173      2178      2181      2185
      2174      2173      2177      2175      2174      2173      2178      2179
      2174      2173      2178      2180      2174      2173      2178      2181
      2175      2177      2173      2178      2175      2185      2181      2178
      2175      2185      2181      2182      2175      2185      2181      2183
      2175      2185      2187      2188      2176      2175      2185      2181
      2176      2175      2185      2186      2176      2175      2185      2187
      2176      2175      2189      2190      2176      2175      2189      2191
      2176      2175      2189      2192      2177      2173      2178      2179
      2177      2173      2178      2180      2177      2173      2178      2181
      2177      2175      2185      2181      2177      2175      2185      2186
      2177      2175      2185      2187      2177      2175      2189      2190
      2177      2175      2189      2191      2177      2175      2189      2192
      2178      2180      2193      2194      2178      2180      2193      2197
      2178      2180      2193      2198      2178      2181      2183      2184
      2178      2181      2185      2186      2178      2181      2185      2187
      2179      2178      2180      2193      2179      2178      2181      2182
      2179      2178      2181      2183      2179      2178      2181      2185
      2180      2178      2181      2182      2180      2178      2181      2183
      2180      2178      2181      2185      2180      2193      2197      2195
      2180      2193      2198      2199      2180      2193      2198      2200
      2180      2193      2198      2208      2181      2178      2180      2193
      2181      2185      2175      2189      2181      2185      2187      2188
      2182      2181      2183      2184      2182      2181      2185      2186
      2182      2181      2185      2187      2183      2181      2185      2186
      2183      2181      2185      2187      2184      2183      2181      2185
      2185      2175      2189      2190      2185      2175      2189      2191
      2185      2175      2189      2192      2186      2185      2175      2189
      2186      2185      2187      2188      2187      2185      2175      2189
      2193      2197      2195      2196      2193      2197      2195      2212
      2193      2197      2195      2216      2193      2198      2200      2201
      2193      2198      2200      2202      2193      2198      2208      2209
      2193      2198      2208      2210      2193      2198      2208      2212
      2194      2193      2197      2195      2194      2193      2198      2199
      2194      2193      2198      2200      2194      2193      2198      2208
      2195      2197      2193      2198      2195      2212      2208      2198
      2195      2212      2208      2209      2195      2212      2208      2210
      2195      2212      2214      2215      2195      2216      2219      2220
      2196      2195      2212      2208      2196      2195      2212      2213
      2196      2195      2212      2214      2196      2195      2216      2217
      2196      2195      2216      2218      2196      2195      2216      2219
      2197      2193      2198      2199      2197      2193      2198      2200
      2197      2193      2198      2208      2197      2195      2212      2208
      2197      2195      2212      2213      2197      2195      2212      2214
      2197      2195      2216      2217      2197      2195      2216      2218
      2197      2195      2216      2219      2198      2200      2202      2203
      2198      2200      2202      2204      2198      2208      2210      2211
      2198      2208      2212      2213      2198      2208      2212      2214
      2199      2198      2200      2201      2199      2198      2200      2202
      2199      2198      2208      2209      2199      2198      2208      2210
      2199      2198      2208      2212      2200      2198      2208      2209
      2200      2198      2208      2210      2200      2198      2208      2212
      2200      2202      2204      2205      2200      2202      2204      2206
      2200      2202      2204      2207      2201      2200      2198      2208
      2201      2200      2202      2203      2201      2200      2202      2204
      2202      2200      2198      2208      2203      2202      2204      2205
      2203      2202      2204      2206      2203      2202      2204      2207
      2208      2212      2195      2216      2208      2212      2214      2215
      2209      2208      2210      2211      2209      2208      2212      2213
      2209      2208      2212      2214      2210      2208      2212      2213
      2210      2208      2212      2214      2211      2210      2208      2212
      2212      2195      2216      2217      2212      2195      2216      2218
      2212      2195      2216      2219      2213      2212      2195      2216
      2213      2212      2214      2215      2214      2212      2195      2216
      2217      2216      2219      2220      2218      2216      2219      2220
      2221      2223      2222      2520      2221      2223      2225      2226
      2221      2223      2225      2227      2221      2223      2225      2234
      2222      2223      2225      2226      2222      2223      2225      2227
      2222      2223      2225      2234      2222      2520      2517      2518
      2222      2520      2517      2519      2222      2520      2523      2521
      2222      2520      2524      2525      2222      2520      2524      2526
      2222      2520      2524      2527      2223      2222      2520      2517
      2223      2222      2520      2523      2223      2222      2520      2524
      2223      2225      2226      2228      2223      2225      2234      2235
      2223      2225      2234      2236      2223      2225      2234      2241
      2224      2223      2222      2520      2224      2223      2225      2226
      2224      2223      2225      2227      2224      2223      2225      2234
      2225      2223      2222      2520      2225      2226      2228      2229
      2225      2226      2228      2230      2225      2226      2228      2249
      2225      2234      2236      2237      2225      2234      2241      2242
      2225      2234      2241      2243      2225      2234      2241      2249
      2226      2225      2234      2235      2226      2225      2234      2236
      2226      2225      2234      2241      2226      2228      2230      2231
      2226      2228      2249      2241      2226      2228      2249      2250
      2226      2228      2249      2251      2227      2225      2226      2228
      2227      2225      2234      2235      2227      2225      2234      2236
      2227      2225      2234      2241      2228      2226      2225      2234
      2228      2230      2231      2232      2228      2230      2231      2233
      2228      2230      2231      2257      2228      2249      2241      2234
      2228      2249      2241      2242      2228      2249      2241      2243
      2228      2249      2251      2252      2228      2249      2251      2358
      2229      2228      2230      2231      2229      2228      2249      2241
      2229      2228      2249      2250      2229      2228      2249      2251
      2230      2228      2249      2241      2230      2228      2249      2250
      2230      2228      2249      2251      2230      2231      2257      2253
      2230      2231      2257      2258      2230      2231      2257      2259
      2231      2230      2228      2249      2231      2257      2253      2254
      2231      2257      2253      2255      2231      2257      2253      2267
      2231      2257      2259      2260      2232      2231      2257      2253
      2232      2231      2257      2258      2232      2231      2257      2259
      2233      2231      2257      2253      2233      2231      2257      2258
      2233      2231      2257      2259      2234      2236      2237      2238
      2234      2236      2237      2239      2234      2236      2237      2240
      2234      2241      2242      2244      2234      2241      2249      2250
      2234      2241      2249      2251      2235      2234      2236      2237
      2235      2234      2241      2242      2235      2234      2241      2243
      2235      2234      2241      2249      2236      2234      2241      2242
      2236      2234      2241      2243      2236      2234      2241      2249
      2237      2236      2234      2241      2241      2242      2244      2245
      2241      2242      2244      2246      2241      2249      2251      2252
      2241      2249      2251      2358      2242      2241      2249      2250
      2242      2241      2249      2251      2242      2244      2246      2247
      2242      2244      2246      2248      2242      2244      2246      2279
      2243      2241      2242      2244      2243      2241      2249      2250
      2243      2241      2249      2251      2244      2242      2241      2249
      2244      2246      2279      2280      2244      2246      2279      2281
      2244      2246      2279      2324      2245      2244      2246      2247
      2245      2244      2246      2248      2245      2244      2246      2279
      2246      2279      2281      2282      2246      2279      2324      2325
      2246      2279      2324      2326      2246      2279      2324      2327
      2247      2246      2279      2280      2247      2246      2279      2281
      2247      2246      2279      2324      2248      2246      2279      2280
      2248      2246      2279      2281      2248      2246      2279      2324
      2249      2251      2358      2359      2249      2251      2358      2360
      2250      2249      2251      2252      2250      2249      2251      2358
      2251      2358      2360      2361      2251      2358      2360      2362
      2251      2358      2360      2363      2252      2251      2358      2359
      2252      2251      2358      2360      2253      2257      2259      2260
      2253      2267      2269      2270      2253      2267      2275      2260
      2253      2267      2275      2276      2253      2267      2275      2277
      2254      2253      2255      2256      2254      2253      2257      2258
      2254      2253      2257      2259      2254      2253      2267      2268
      2254      2253      2267      2269      2254      2253      2267      2275
      2255      2253      2257      2258      2255      2253      2257      2259
      2255      2253      2267      2268      2255      2253      2267      2269
      2255      2253      2267      2275      2256      2255      2253      2257
      2256      2255      2253      2267      2257      2253      2267      2268
      2257      2253      2267      2269      2257      2253      2267      2275
      2257      2259      2260      2261      2257      2259      2260      2262
      2257      2259      2260      2275      2258      2257      2253      2267
      2258      2257      2259      2260      2259      2257      2253      2267
      2259      2260      2262      2266      2259      2260      2275      2267
      2259      2260      2275      2276      2259      2260      2275      2277
      2260      2262      2266      2263      2260      2262      2266      2264
      2260      2262      2266      2265      2260      2275      2267      2268
      2260      2275      2267      2269      2260      2275      2277      2278
      2260      2275      2277      2474      2261      2260      2262      2266
      2261      2260      2275      2267      2261      2260      2275      2276
      2261      2260      2275      2277      2262      2260      2275      2267
      2262      2260      2275      2276      2262      2260      2275      2277
      2266      2262      2260      2275      2267      2269      2270      2271
      2267      2269      2270      2272      2267      2275      2277      2278
      2267      2275      2277      2474      2268      2267      2269      2270
      2268      2267      2275      2276      2268      2267      2275      2277
      2269      2267      2275      2276      2269      2267      2275      2277
      2269      2270      2272      2273      2269      2270      2272      2274
      2269      2270      2272      2436      2270      2269      2267      2275
      2270      2272      2436      2437      2270      2272      2436      2438
      2270      2272      2436      2440      2271      2270      2272      2273
      2271      2270      2272      2274      2271      2270      2272      2436
      2272      2436      2438      2439      2272      2436      2440      2441
      2272      2436      2440      2442      2272      2436      2440      2443
      2273      2272      2436      2437      2273      2272      2436      2438
      2273      2272      2436      2440      2274      2272      2436      2437
      2274      2272      2436      2438      2274      2272      2436      2440
      2275      2277      2474      2475      2275      2277      2474      2476
      2276      2275      2277      2278      2276      2275      2277      2474
      2277      2474      2476      2477      2277      2474      2476      2478
      2277      2474      2476      2479      2278      2277      2474      2475
      2278      2277      2474      2476      2279      2281      2282      2283
      2279      2281      2282      2284      2279      2324      2327      2328
      2279      2324      2327      2329      2279      2324      2327      2330
      2280      2279      2281      2282      2280      2279      2324      2325
      2280      2279      2324      2326      2280      2279      2324      2327
      2281      2279      2324      2325      2281      2279      2324      2326
      2281      2279      2324      2327      2281      2282      2284      2285
      2281      2282      2284      2286      2281      2282      2284      2287
      2282      2281      2279      2324      2282      2284      2287      2288
      2282      2284      2287      2289      2282      2284      2287      2290
      2283      2282      2284      2285      2283      2282      2284      2286
      2283      2282      2284      2287      2284      2287      2290      2291
      2284      2287      2290      2292      2284      2287      2290      2293
      2285      2284      2287      2288      2285      2284      2287      2289
      2285      2284      2287      2290      2286      2284      2287      2288
      2286      2284      2287      2289      2286      2284      2287      2290
      2287      2290      2293      2294      2287      2290      2293      2295
      2287      2290      2293      2296      2288      2287      2290      2291
      2288      2287      2290      2292      2288      2287      2290      2293
      2289      2287      2290      2291      2289      2287      2290      2292
      2289      2287      2290      2293      2290      2293      2296      2297
      2290      2293      2296      2298      2290      2293      2296      2299
      2291      2290      2293      2294      2291      2290      2293      2295
      2291      2290      2293      2296      2292      2290      2293      2294
      2292      2290      2293      2295      2292      2290      2293      2296
      2293      2296      2299      2300      2293      2296      2299      2301
      2293      2296      2299      2302      2294      2293      2296      2297
      2294      2293      2296      2298      2294      2293      2296      2299
      2295      2293      2296      2297      2295      2293      2296      2298
      2295      2293      2296      2299      2296      2299      2302      2303
      2296      2299      2302      2304      2296      2299      2302      2305
      2297      2296      2299      2300      2297      2296      2299      2301
      2297      2296      2299      2302      2298      2296      2299      2300
      2298      2296      2299      2301      2298      2296      2299      2302
      2299      2302      2305      2306      2299      2302      2305      2307
      2299      2302      2305      2308      2300      2299      2302      2303
      2300      2299      2302      2304      2300      2299      2302      2305
      2301      2299      2302      2303      2301      2299      2302      2304
      2301      2299      2302      2305      2302      2305      2308      2309
      2302      2305      2308      2310      2302      2305      2308      2311
      2303      2302      2305      2306      2303      2302      2305      2307
      2303      2302      2305      2308      2304      2302      2305      2306
      2304      2302      2305      2307      2304      2302      2305      2308
      2305      2308      2311      2312      2305      2308      2311      2313
      2305      2308      2311      2314      2306      2305      2308      2309
      2306      2305      2308      2310      2306      2305      2308      2311
      2307      2305      2308      2309      2307      2305      2308      2310
      2307      2305      2308      2311      2308      2311      2314      2315
      2308      2311      2314      2316      2308      2311      2314      2317
      2309      2308      2311      2312      2309      2308      2311      2313
      2309      2308      2311      2314      2310      2308      2311      2312
      2310      2308      2311      2313      2310      2308      2311      2314
      2311      2314      2317      2318      2311      2314      2317      2319
      2311      2314      2317      2320      2312      2311      2314      2315
      2312      2311      2314      2316      2312      2311      2314      2317
      2313      2311      2314      2315      2313      2311      2314      2316
      2313      2311      2314      2317      2314      2317      2320      2321
      2314      2317      2320      2322      2314      2317      2320      2323
      2315      2314      2317      2318      2315      2314      2317      2319
      2315      2314      2317      2320      2316      2314      2317      2318
      2316      2314      2317      2319      2316      2314      2317      2320
      2318      2317      2320      2321      2318      2317      2320      2322
      2318      2317      2320      2323      2319      2317      2320      2321
      2319      2317      2320      2322      2319      2317      2320      2323
      2324      2327      2330      2331      2324      2327      2330      2332
      2324      2327      2330      2333      2325      2324      2327      2328
      2325      2324      2327      2329      2325      2324      2327      2330
      2326      2324      2327      2328      2326      2324      2327      2329
      2326      2324      2327      2330      2327      2330      2333      2334
      2327      2330      2333      2335      2327      2330      2333      2336
      2328      2327      2330      2331      2328      2327      2330      2332
      2328      2327      2330      2333      2329      2327      2330      2331
      2329      2327      2330      2332      2329      2327      2330      2333
      2330      2333      2336      2337      2330      2333      2336      2338
      2330      2333      2336      2339      2331      2330      2333      2334
      2331      2330      2333      2335      2331      2330      2333      2336
      2332      2330      2333      2334      2332      2330      2333      2335
      2332      2330      2333      2336      2333      2336      2339      2340
      2333      2336      2339      2341      2333      2336      2339      2342
      2334      2333      2336      2337      2334      2333      2336      2338
      2334      2333      2336      2339      2335      2333      2336      2337
      2335      2333      2336      2338      2335      2333      2336      2339
      2336      2339      2342      2343      2336      2339      2342      2344
      2336      2339      2342      2345      2337      2336      2339      2340
      2337      2336      2339      2341      2337      2336      2339      2342
      2338      2336      2339      2340      2338      2336      2339      2341
      2338      2336      2339      2342      2339      2342      2345      2346
      2339      2342      2345      2347      2339      2342      2345      2348
      2340      2339      2342      2343      2340      2339      2342      2344
      2340      2339      2342      2345      2341      2339      2342      2343
      2341      2339      2342      2344      2341      2339      2342      2345
      2342      2345      2348      2349      2342      2345      2348      2350
      2342      2345      2348      2351      2343      2342      2345      2346
      2343      2342      2345      2347      2343      2342      2345      2348
      2344      2342      2345      2346      2344      2342      2345      2347
      2344      2342      2345      2348      2345      2348      2351      2352
      2345      2348      2351      2353      2345      2348      2351      2354
      2346      2345      2348      2349      2346      2345      2348      2350
      2346      2345      2348      2351      2347      2345      2348      2349
      2347      2345      2348      2350      2347      2345      2348      2351
      2348      2351      2354      2355      2348      2351      2354      2356
      2348      2351      2354      2357      2349      2348      2351      2352
      2349      2348      2351      2353      2349      2348      2351      2354
      2350      2348      2351      2352      2350      2348      2351      2353
      2350      2348      2351      2354      2352      2351      2354      2355
      2352      2351      2354      2356      2352      2351      2354      2357
      2353      2351      2354      2355      2353      2351      2354      2356
      2353      2351      2354      2357      2358      2360      2363      2364
      2358      2360      2363      2365      2358      2360      2363      2402
      2359      2358      2360      2361      2359      2358      2360      2362
      2359      2358      2360      2363      2360      2363      2365      2366
      2360      2363      2402      2403      2360      2363      2402      2404
      2360      2363      2402      2405      2361      2360      2363      2364
      2361      2360      2363      2365      2361      2360      2363      2402
      2362      2360      2363      2364      2362      2360      2363      2365
      2362      2360      2363      2402      2363      2365      2366      2367
      2363      2365      2366      2368      2363      2402      2405      2406
      2363      2402      2405      2407      2363      2402      2405      2408
      2364      2363      2365      2366      2364      2363      2402      2403
      2364      2363      2402      2404      2364      2363      2402      2405
      2365      2363      2402      2403      2365      2363      2402      2404
      2365      2363      2402      2405      2365      2366      2368      2369
      2365      2366      2368      2370      2365      2366      2368      2371
      2366      2365      2363      2402      2366      2368      2371      2372
      2366      2368      2371      2373      2366      2368      2371      2374
      2367      2366      2368      2369      2367      2366      2368      2370
      2367      2366      2368      2371      2368      2371      2374      2375
      2368      2371      2374      2376      2368      2371      2374      2377
      2369      2368      2371      2372      2369      2368      2371      2373
      2369      2368      2371      2374      2370      2368      2371      2372
      2370      2368      2371      2373      2370      2368      2371      2374
      2371      2374      2377      2378      2371      2374      2377      2379
      2371      2374      2377      2380      2372      2371      2374      2375
      2372      2371      2374      2376      2372      2371      2374      2377
      2373      2371      2374      2375      2373      2371      2374      2376
      2373      2371      2374      2377      2374      2377      2380      2381
      2374      2377      2380      2382      2374      2377      2380      2383
      2375      2374      2377      2378      2375      2374      2377      2379
      2375      2374      2377      2380      2376      2374      2377      2378
      2376      2374      2377      2379      2376      2374      2377      2380
      2377      2380      2383      2384      2377      2380      2383      2385
      2377      2380      2383      2386      2378      2377      2380      2381
      2378      2377      2380      2382      2378      2377      2380      2383
      2379      2377      2380      2381      2379      2377      2380      2382
      2379      2377      2380      2383      2380      2383      2386      2387
      2380      2383      2386      2388      2380      2383      2386      2389
      2381      2380      2383      2384      2381      2380      2383      2385
      2381      2380      2383      2386      2382      2380      2383      2384
      2382      2380      2383      2385      2382      2380      2383      2386
      2383      2386      2389      2390      2383      2386      2389      2391
      2383      2386      2389      2392      2384      2383      2386      2387
      2384      2383      2386      2388      2384      2383      2386      2389
      2385      2383      2386      2387      2385      2383      2386      2388
      2385      2383      2386      2389      2386      2389      2392      2393
      2386      2389      2392      2394      2386      2389      2392      2395
      2387      2386      2389      2390      2387      2386      2389      2391
      2387      2386      2389      2392      2388      2386      2389      2390
      2388      2386      2389      2391      2388      2386      2389      2392
      2389      2392      2395      2396      2389      2392      2395      2397
      2389      2392      2395      2398      2390      2389      2392      2393
      2390      2389      2392      2394      2390      2389      2392      2395
      2391      2389      2392      2393      2391      2389      2392      2394
      2391      2389      2392      2395      2392      2395      2398      2399
      2392      2395      2398      2400      2392      2395      2398      2401
      2393      2392      2395      2396      2393      2392      2395      2397
      2393      2392      2395      2398      2394      2392      2395      2396
      2394      2392      2395      2397      2394      2392      2395      2398
      2396      2395      2398      2399      2396      2395      2398      2400
      2396      2395      2398      2401      2397      2395      2398      2399
      2397      2395      2398      2400      2397      2395      2398      2401
      2402      2405      2408      2409      2402      2405      2408      2410
      2402      2405      2408      2411      2403      2402      2405      2406
      2403      2402      2405      2407      2403      2402      2405      2408
      2404      2402      2405      2406      2404      2402      2405      2407
      2404      2402      2405      2408      2405      2408      2411      2412
      2405      2408      2411      2413      2405      2408      2411      2414
      2406      2405      2408      2409      2406      2405      2408      2410
      2406      2405      2408      2411      2407      2405      2408      2409
      2407      2405      2408      2410      2407      2405      2408      2411
      2408      2411      2414      2415      2408      2411      2414      2416
      2408      2411      2414      2417      2409      2408      2411      2412
      2409      2408      2411      2413      2409      2408      2411      2414
      2410      2408      2411      2412      2410      2408      2411      2413
      2410      2408      2411      2414      2411      2414      2417      2418
      2411      2414      2417      2419      2411      2414      2417      2420
      2412      2411      2414      2415      2412      2411      2414      2416
      2412      2411      2414      2417      2413      2411      2414      2415
      2413      2411      2414      2416      2413      2411      2414      2417
      2414      2417      2420      2421      2414      2417      2420      2422
      2414      2417      2420      2423      2415      2414      2417      2418
      2415      2414      2417      2419      2415      2414      2417      2420
      2416      2414      2417      2418      2416      2414      2417      2419
      2416      2414      2417      2420      2417      2420      2423      2424
      2417      2420      2423      2425      2417      2420      2423      2426
      2418      2417      2420      2421      2418      2417      2420      2422
      2418      2417      2420      2423      2419      2417      2420      2421
      2419      2417      2420      2422      2419      2417      2420      2423
      2420      2423      2426      2427      2420      2423      2426      2428
      2420      2423      2426      2429      2421      2420      2423      2424
      2421      2420      2423      2425      2421      2420      2423      2426
      2422      2420      2423      2424      2422      2420      2423      2425
      2422      2420      2423      2426      2423      2426      2429      2430
      2423      2426      2429      2431      2423      2426      2429      2432
      2424      2423      2426      2427      2424      2423      2426      2428
      2424      2423      2426      2429      2425      2423      2426      2427
      2425      2423      2426      2428      2425      2423      2426      2429
      2426      2429      2432      2433      2426      2429      2432      2434
      2426      2429      2432      2435      2427      2426      2429      2430
      2427      2426      2429      2431      2427      2426      2429      2432
      2428      2426      2429      2430      2428      2426      2429      2431
      2428      2426      2429      2432      2430      2429      2432      2433
      2430      2429      2432      2434      2430      2429      2432      2435
      2431      2429      2432      2433      2431      2429      2432      2434
      2431      2429      2432      2435      2436      2440      2443      2444
      2436      2440      2443      2445      2436      2440      2443      2446
      2437      2436      2438      2439      2437      2436      2440      2441
      2437      2436      2440      2442      2437      2436      2440      2443
      2438      2436      2440      2441      2438      2436      2440      2442
      2438      2436      2440      2443      2439      2438      2436      2440
      2440      2443      2446      2447      2440      2443      2446      2448
      2440      2443      2446      2449      2441      2440      2443      2444
      2441      2440      2443      2445      2441      2440      2443      2446
      2442      2440      2443      2444      2442      2440      2443      2445
      2442      2440      2443      2446      2443      2446      2449      2450
      2443      2446      2449      2451      2443      2446      2449      2452
      2444      2443      2446      2447      2444      2443      2446      2448
      2444      2443      2446      2449      2445      2443      2446      2447
      2445      2443      2446      2448      2445      2443      2446      2449
      2446      2449      2452      2453      2446      2449      2452      2454
      2446      2449      2452      2455      2447      2446      2449      2450
      2447      2446      2449      2451      2447      2446      2449      2452
      2448      2446      2449      2450      2448      2446      2449      2451
      2448      2446      2449      2452      2449      2452      2455      2456
      2449      2452      2455      2457      2449      2452      2455      2458
      2450      2449      2452      2453      2450      2449      2452      2454
      2450      2449      2452      2455      2451      2449      2452      2453
      2451      2449      2452      2454      2451      2449      2452      2455
      2452      2455      2458      2459      2452      2455      2458      2460
      2452      2455      2458      2461      2453      2452      2455      2456
      2453      2452      2455      2457      2453      2452      2455      2458
      2454      2452      2455      2456      2454      2452      2455      2457
      2454      2452      2455      2458      2455      2458      2461      2462
      2455      2458      2461      2463      2455      2458      2461      2464
      2456      2455      2458      2459      2456      2455      2458      2460
      2456      2455      2458      2461      2457      2455      2458      2459
      2457      2455      2458      2460      2457      2455      2458      2461
      2458      2461      2464      2465      2458      2461      2464      2466
      2458      2461      2464      2467      2459      2458      2461      2462
      2459      2458      2461      2463      2459      2458      2461      2464
      2460      2458      2461      2462      2460      2458      2461      2463
      2460      2458      2461      2464      2461      2464      2467      2468
      2461      2464      2467      2469      2461      2464      2467      2470
      2462      2461      2464      2465      2462      2461      2464      2466
      2462      2461      2464      2467      2463      2461      2464      2465
      2463      2461      2464      2466      2463      2461      2464      2467
      2464      2467      2470      2471      2464      2467      2470      2472
      2464      2467      2470      2473      2465      2464      2467      2468
      2465      2464      2467      2469      2465      2464      2467      2470
      2466      2464      2467      2468      2466      2464      2467      2469
      2466      2464      2467      2470      2468      2467      2470      2471
      2468      2467      2470      2472      2468      2467      2470      2473
      2469      2467      2470      2471      2469      2467      2470      2472
      2469      2467      2470      2473      2474      2476      2479      2480
      2474      2476      2479      2481      2474      2476      2479      2483
      2475      2474      2476      2477      2475      2474      2476      2478
      2475      2474      2476      2479      2476      2479      2481      2482
      2476      2479      2483      2484      2476      2479      2483      2485
      2476      2479      2483      2486      2477      2476      2479      2480
      2477      2476      2479      2481      2477      2476      2479      2483
      2478      2476      2479      2480      2478      2476      2479      2481
      2478      2476      2479      2483      2479      2483      2486      2487
      2479      2483      2486      2488      2479      2483      2486      2489
      2480      2479      2481      2482      2480      2479      2483      2484
      2480      2479      2483      2485      2480      2479      2483      2486
      2481      2479      2483      2484      2481      2479      2483      2485
      2481      2479      2483      2486      2482      2481      2479      2483
      2483      2486      2489      2490      2483      2486      2489      2491
      2483      2486      2489      2492      2484      2483      2486      2487
      2484      2483      2486      2488      2484      2483      2486      2489
      2485      2483      2486      2487      2485      2483      2486      2488
      2485      2483      2486      2489      2486      2489      2492      2493
      2486      2489      2492      2494      2486      2489      2492      2495
      2487      2486      2489      2490      2487      2486      2489      2491
      2487      2486      2489      2492      2488      2486      2489      2490
      2488      2486      2489      2491      2488      2486      2489      2492
      2489      2492      2495      2496      2489      2492      2495      2497
      2489      2492      2495      2498      2490      2489      2492      2493
      2490      2489      2492      2494      2490      2489      2492      2495
      2491      2489      2492      2493      2491      2489      2492      2494
      2491      2489      2492      2495      2492      2495      2498      2499
      2492      2495      2498      2500      2492      2495      2498      2501
      2493      2492      2495      2496      2493      2492      2495      2497
      2493      2492      2495      2498      2494      2492      2495      2496
      2494      2492      2495      2497      2494      2492      2495      2498
      2495      2498      2501      2502      2495      2498      2501      2503
      2495      2498      2501      2504      2496      2495      2498      2499
      2496      2495      2498      2500      2496      2495      2498      2501
      2497      2495      2498      2499      2497      2495      2498      2500
      2497      2495      2498      2501      2498      2501      2504      2505
      2498      2501      2504      2506      2498      2501      2504      2507
      2499      2498      2501      2502      2499      2498      2501      2503
      2499      2498      2501      2504      2500      2498      2501      2502
      2500      2498      2501      2503      2500      2498      2501      2504
      2501      2504      2507      2508      2501      2504      2507      2509
      2501      2504      2507      2510      2502      2501      2504      2505
      2502      2501      2504      2506      2502      2501      2504      2507
      2503      2501      2504      2505      2503      2501      2504      2506
      2503      2501      2504      2507      2504      2507      2510      2511
      2504      2507      2510      2512      2504      2507      2510      2513
      2505      2504      2507      2508      2505      2504      2507      2509
      2505      2504      2507      2510      2506      2504      2507      2508
      2506      2504      2507      2509      2506      2504      2507      2510
      2507      2510      2513      2514      2507      2510      2513      2515
      2507      2510      2513      2516      2508      2507      2510      2511
      2508      2507      2510      2512      2508      2507      2510      2513
      2509      2507      2510      2511      2509      2507      2510      2512
      2509      2507      2510      2513      2511      2510      2513      2514
      2511      2510      2513      2515      2511      2510      2513      2516
      2512      2510      2513      2514      2512      2510      2513      2515
      2512      2510      2513      2516      2517      2520      2523      2521
      2517      2520      2524      2525      2517      2520      2524      2526
      2517      2520      2524      2527      2518      2517      2520      2523
      2518      2517      2520      2524      2519      2517      2520      2523
      2519      2517      2520      2524      2520      2523      2521      2522
      2520      2523      2521      2530      2520      2523      2521      2533
      2520      2524      2527      2528      2520      2524      2527      2529
      2520      2524      2527      2530      2521      2523      2520      2524
      2521      2530      2527      2524      2521      2530      2527      2528
      2521      2530      2527      2529      2521      2530      2532      2569
      2521      2533      2535      2536      2521      2533      2537      2538
      2521      2533      2537      2539      2521      2533      2537      2540
      2522      2521      2530      2527      2522      2521      2530      2531
      2522      2521      2530      2532      2522      2521      2533      2534
      2522      2521      2533      2535      2522      2521      2533      2537
      2523      2520      2524      2525      2523      2520      2524      2526
      2523      2520      2524      2527      2523      2521      2530      2527
      2523      2521      2530      2531      2523      2521      2530      2532
      2523      2521      2533      2534      2523      2521      2533      2535
      2523      2521      2533      2537      2524      2527      2529      2545
      2524      2527      2530      2531      2524      2527      2530      2532
      2525      2524      2527      2528      2525      2524      2527      2529
      2525      2524      2527      2530      2526      2524      2527      2528
      2526      2524      2527      2529      2526      2524      2527      2530
      2527      2529      2545      2542      2527      2529      2545      2548
      2527      2529      2545      2549      2527      2530      2521      2533
      2527      2530      2532      2569      2528      2527      2529      2545
      2528      2527      2530      2531      2528      2527      2530      2532
      2529      2527      2530      2531      2529      2527      2530      2532
      2529      2545      2542      2543      2529      2545      2542      2544
      2529      2545      2548      2546      2529      2545      2549      2550
      2529      2545      2549      2551      2529      2545      2549      2552
      2530      2521      2533      2534      2530      2521      2533      2535
      2530      2521      2533      2537      2530      2527      2529      2545
      2530      2532      2569      2570      2530      2532      2569      2573
      2530      2532      2569      2574      2531      2530      2521      2533
      2531      2530      2532      2569      2532      2530      2521      2533
      2532      2569      2573      2571      2532      2569      2574      2575
      2532      2569      2574      2576      2532      2569      2574      2578
      2533      2537      2540      2541      2534      2533      2535      2536
      2534      2533      2537      2538      2534      2533      2537      2539
      2534      2533      2537      2540      2535      2533      2537      2538
      2535      2533      2537      2539      2535      2533      2537      2540
      2536      2535      2533      2537      2538      2537      2540      2541
      2539      2537      2540      2541      2542      2545      2548      2546
      2542      2545      2549      2550      2542      2545      2549      2551
      2542      2545      2549      2552      2543      2542      2545      2548
      2543      2542      2545      2549      2544      2542      2545      2548
      2544      2542      2545      2549      2545      2548      2546      2547
      2545      2548      2546      2556      2545      2548      2546      2560
      2545      2549      2552      2553      2545      2549      2552      2554
      2545      2549      2552      2556      2546      2548      2545      2549
      2546      2556      2552      2549      2546      2556      2552      2553
      2546      2556      2552      2554      2546      2556      2558      2559
      2546      2560      2562      2563      2546      2560      2564      2565
      2546      2560      2564      2566      2546      2560      2564      2567
      2547      2546      2556      2552      2547      2546      2556      2557
      2547      2546      2556      2558      2547      2546      2560      2561
      2547      2546      2560      2562      2547      2546      2560      2564
      2548      2545      2549      2550      2548      2545      2549      2551
      2548      2545      2549      2552      2548      2546      2556      2552
      2548      2546      2556      2557      2548      2546      2556      2558
      2548      2546      2560      2561      2548      2546      2560      2562
      2548      2546      2560      2564      2549      2552      2554      2555
      2549      2552      2556      2557      2549      2552      2556      2558
      2550      2549      2552      2553      2550      2549      2552      2554
      2550      2549      2552      2556      2551      2549      2552      2553
      2551      2549      2552      2554      2551      2549      2552      2556
      2552      2556      2546      2560      2552      2556      2558      2559
      2553      2552      2554      2555      2553      2552      2556      2557
      2553      2552      2556      2558      2554      2552      2556      2557
      2554      2552      2556      2558      2555      2554      2552      2556
      2556      2546      2560      2561      2556      2546      2560      2562
      2556      2546      2560      2564      2557      2556      2546      2560
      2557      2556      2558      2559      2558      2556      2546      2560
      2560      2564      2567      2568      2561      2560      2562      2563
      2561      2560      2564      2565      2561      2560      2564      2566
      2561      2560      2564      2567      2562      2560      2564      2565
      2562      2560      2564      2566      2562      2560      2564      2567
      2563      2562      2560      2564      2565      2564      2567      2568
      2566      2564      2567      2568      2569      2573      2571      2572
      2569      2573      2571      2581      2569      2573      2571      2588
      2569      2574      2576      2577      2569      2574      2578      2579
      2569      2574      2578      2580      2569      2574      2578      2581
      2570      2569      2573      2571      2570      2569      2574      2575
      2570      2569      2574      2576      2570      2569      2574      2578
      2571      2573      2569      2574      2571      2581      2578      2574
      2571      2581      2578      2579      2571      2581      2578      2580
      2571      2581      2583      2584      2571      2588      2590      2591
      2571      2588      2592      2593      2571      2588      2592      2594
      2571      2588      2592      2595      2572      2571      2581      2578
      2572      2571      2581      2582      2572      2571      2581      2583
      2572      2571      2588      2589      2572      2571      2588      2590
      2572      2571      2588      2592      2573      2569      2574      2575
      2573      2569      2574      2576      2573      2569      2574      2578
      2573      2571      2581      2578      2573      2571      2581      2582
      2573      2571      2581      2583      2573      2571      2588      2589
      2573      2571      2588      2590      2573      2571      2588      2592
      2574      2578      2580      2597      2574      2578      2581      2582
      2574      2578      2581      2583      2575      2574      2576      2577
      2575      2574      2578      2579      2575      2574      2578      2580
      2575      2574      2578      2581      2576      2574      2578      2579
      2576      2574      2578      2580      2576      2574      2578      2581
      2577      2576      2574      2578      2578      2580      2597      2598
      2578      2580      2597      2601      2578      2580      2597      2602
      2578      2581      2571      2588      2578      2581      2583      2584
      2579      2578      2580      2597      2579      2578      2581      2582
      2579      2578      2581      2583      2580      2578      2581      2582
      2580      2578      2581      2583      2580      2597      2601      2599
      2580      2597      2602      2603      2580      2597      2602      2604
      2580      2597      2602      2606      2581      2571      2588      2589
      2581      2571      2588      2590      2581      2571      2588      2592
      2581      2578      2580      2597      2581      2583      2584      2585
      2581      2583      2584      2586      2581      2583      2584      2587
      2582      2581      2571      2588      2582      2581      2583      2584
      2583      2581      2571      2588      2588      2592      2595      2596
      2589      2588      2590      2591      2589      2588      2592      2593
      2589      2588      2592      2594      2589      2588      2592      2595
      2590      2588      2592      2593      2590      2588      2592      2594
      2590      2588      2592      2595      2591      2590      2588      2592
      2593      2592      2595      2596      2594      2592      2595      2596
      2597      2601      2599      2600      2597      2601      2599      2609
      2597      2601      2599      2616      2597      2602      2604      2605
      2597      2602      2606      2607      2597      2602      2606      2608
      2597      2602      2606      2609      2598      2597      2601      2599
      2598      2597      2602      2603      2598      2597      2602      2604
      2598      2597      2602      2606      2599      2601      2597      2602
      2599      2609      2606      2602      2599      2609      2606      2607
      2599      2609      2606      2608      2599      2609      2611      2612
      2599      2616      2618      2619      2599      2616      2620      2621
      2599      2616      2620      2622      2599      2616      2620      2623
      2600      2599      2609      2606      2600      2599      2609      2610
      2600      2599      2609      2611      2600      2599      2616      2617
      2600      2599      2616      2618      2600      2599      2616      2620
      2601      2597      2602      2603      2601      2597      2602      2604
      2601      2597      2602      2606      2601      2599      2609      2606
      2601      2599      2609      2610      2601      2599      2609      2611
      2601      2599      2616      2617      2601      2599      2616      2618
      2601      2599      2616      2620      2602      2606      2608      2650
      2602      2606      2609      2610      2602      2606      2609      2611
      2603      2602      2604      2605      2603      2602      2606      2607
      2603      2602      2606      2608      2603      2602      2606      2609
      2604      2602      2606      2607      2604      2602      2606      2608
      2604      2602      2606      2609      2605      2604      2602      2606
      2606      2608      2650      2651      2606      2608      2650      2654
      2606      2608      2650      2655      2606      2609      2599      2616
      2606      2609      2611      2612      2607      2606      2608      2650
      2607      2606      2609      2610      2607      2606      2609      2611
      2608      2606      2609      2610      2608      2606      2609      2611
      2608      2650      2654      2652      2608      2650      2655      2656
      2608      2650      2655      2657      2608      2650      2655      2659
      2609      2599      2616      2617      2609      2599      2616      2618
      2609      2599      2616      2620      2609      2606      2608      2650
      2609      2611      2612      2613      2609      2611      2612      2614
      2609      2611      2612      2615      2610      2609      2599      2616
      2610      2609      2611      2612      2611      2609      2599      2616
      2616      2620      2623      2624      2617      2616      2618      2619
      2617      2616      2620      2621      2617      2616      2620      2622
      2617      2616      2620      2623      2618      2616      2620      2621
      2618      2616      2620      2622      2618      2616      2620      2623
      2619      2618      2616      2620      2620      2623      2624      2625
      2620      2623      2624      2628      2620      2623      2624      2629
      2621      2620      2623      2624      2622      2620      2623      2624
      2623      2624      2628      2626      2623      2624      2629      2630
      2623      2624      2629      2631      2623      2624      2629      2633
      2624      2628      2626      2627      2624      2628      2626      2637
      2624      2628      2626      2641      2624      2629      2631      2632
      2624      2629      2633      2634      2624      2629      2633      2635
      2624      2629      2633      2637      2625      2624      2628      2626
      2625      2624      2629      2630      2625      2624      2629      2631
      2625      2624      2629      2633      2626      2628      2624      2629
      2626      2637      2633      2629      2626      2637      2633      2634
      2626      2637      2633      2635      2626      2637      2639      2640
      2626      2641      2643      2644      2626      2641      2645      2646
      2626      2641      2645      2647      2626      2641      2645      2648
      2627      2626      2637      2633      2627      2626      2637      2638
      2627      2626      2637      2639      2627      2626      2641      2642
      2627      2626      2641      2643      2627      2626      2641      2645
      2628      2624      2629      2630      2628      2624      2629      2631
      2628      2624      2629      2633      2628      2626      2637      2633
      2628      2626      2637      2638      2628      2626      2637      2639
      2628      2626      2641      2642      2628      2626      2641      2643
      2628      2626      2641      2645      2629      2633      2635      2636
      2629      2633      2637      2638      2629      2633      2637      2639
      2630      2629      2631      2632      2630      2629      2633      2634
      2630      2629      2633      2635      2630      2629      2633      2637
      2631      2629      2633      2634      2631      2629      2633      2635
      2631      2629      2633      2637      2632      2631      2629      2633
      2633      2637      2626      2641      2633      2637      2639      2640
      2634      2633      2635      2636      2634      2633      2637      2638
      2634      2633      2637      2639      2635      2633      2637      2638
      2635      2633      2637      2639      2636      2635      2633      2637
      2637      2626      2641      2642      2637      2626      2641      2643
      2637      2626      2641      2645      2638      2637      2626      2641
      2638      2637      2639      2640      2639      2637      2626      2641
      2641      2645      2648      2649      2642      2641      2643      2644
      2642      2641      2645      2646      2642      2641      2645      2647
      2642      2641      2645      2648      2643      2641      2645      2646
      2643      2641      2645      2647      2643      2641      2645      2648
      2644      2643      2641      2645      2646      2645      2648      2649
      2647      2645      2648      2649      2650      2654      2652      2653
      2650      2654      2652      2662      2650      2654      2652      2666
      2650      2655      2657      2658      2650      2655      2659      2660
      2650      2655      2659      2661      2650      2655      2659      2662
      2651      2650      2654      2652      2651      2650      2655      2656
      2651      2650      2655      2657      2651      2650      2655      2659
      2652      2654      2650      2655      2652      2662      2659      2655
      2652      2662      2659      2660      2652      2662      2659      2661
      2652      2662      2664      2665      2652      2666      2669      2670
      2653      2652      2662      2659      2653      2652      2662      2663
      2653      2652      2662      2664      2653      2652      2666      2667
      2653      2652      2666      2668      2653      2652      2666      2669
      2654      2650      2655      2656      2654      2650      2655      2657
      2654      2650      2655      2659      2654      2652      2662      2659
      2654      2652      2662      2663      2654      2652      2662      2664
      2654      2652      2666      2667      2654      2652      2666      2668
      2654      2652      2666      2669      2655      2659      2661      2671
      2655      2659      2662      2663      2655      2659      2662      2664
      2656      2655      2657      2658      2656      2655      2659      2660
      2656      2655      2659      2661      2656      2655      2659      2662
      2657      2655      2659      2660      2657      2655      2659      2661
      2657      2655      2659      2662      2658      2657      2655      2659
      2659      2661      2671      2672      2659      2661      2671      2675
      2659      2661      2671      2676      2659      2662      2652      2666
      2659      2662      2664      2665      2660      2659      2661      2671
      2660      2659      2662      2663      2660      2659      2662      2664
      2661      2659      2662      2663      2661      2659      2662      2664
      2661      2671      2675      2673      2661      2671      2676      2677
      2661      2671      2676      2678      2661      2671      2676      2679
      2662      2652      2666      2667      2662      2652      2666      2668
      2662      2652      2666      2669      2662      2659      2661      2671
      2663      2662      2652      2666      2663      2662      2664      2665
      2664      2662      2652      2666      2667      2666      2669      2670
      2668      2666      2669      2670      2671      2675      2673      2674
      2671      2675      2673      2682      2671      2675      2673      2686
      2671      2676      2678      2691      2671      2676      2679      2680
      2671      2676      2679      2681      2671      2676      2679      2682
      2672      2671      2675      2673      2672      2671      2676      2677
      2672      2671      2676      2678      2672      2671      2676      2679
      2673      2675      2671      2676      2673      2682      2679      2676
      2673      2682      2679      2680      2673      2682      2679      2681
      2673      2682      2684      2685      2673      2686      2689      2690
      2674      2673      2682      2679      2674      2673      2682      2683
      2674      2673      2682      2684      2674      2673      2686      2687
      2674      2673      2686      2688      2674      2673      2686      2689
      2675      2671      2676      2677      2675      2671      2676      2678
      2675      2671      2676      2679      2675      2673      2682      2679
      2675      2673      2682      2683      2675      2673      2682      2684
      2675      2673      2686      2687      2675      2673      2686      2688
      2675      2673      2686      2689      2676      2678      2691      2692
      2676      2678      2691      2695      2676      2678      2691      2696
      2676      2679      2681      2734      2676      2679      2682      2683
      2676      2679      2682      2684      2677      2676      2678      2691
      2677      2676      2679      2680      2677      2676      2679      2681
      2677      2676      2679      2682      2678      2676      2679      2680
      2678      2676      2679      2681      2678      2676      2679      2682
      2678      2691      2695      2693      2678      2691      2696      2697
      2678      2691      2696      2698      2678      2691      2696      2699
      2679      2676      2678      2691      2679      2681      2734      2735
      2679      2681      2734      2738      2679      2681      2734      2739
      2679      2682      2673      2686      2679      2682      2684      2685
      2680      2679      2681      2734      2680      2679      2682      2683
      2680      2679      2682      2684      2681      2679      2682      2683
      2681      2679      2682      2684      2681      2734      2738      2736
      2681      2734      2739      2740      2681      2734      2739      2741
      2681      2734      2739      2743      2682      2673      2686      2687
      2682      2673      2686      2688      2682      2673      2686      2689
      2682      2679      2681      2734      2683      2682      2673      2686
      2683      2682      2684      2685      2684      2682      2673      2686
      2687      2686      2689      2690      2688      2686      2689      2690
      2691      2695      2693      2694      2691      2695      2693      2703
      2691      2695      2693      2707      2691      2696      2698      2712
      2691      2696      2699      2700      2691      2696      2699      2701
      2691      2696      2699      2703      2692      2691      2695      2693
      2692      2691      2696      2697      2692      2691      2696      2698
      2692      2691      2696      2699      2693      2695      2691      2696
      2693      2703      2699      2696      2693      2703      2699      2700
      2693      2703      2699      2701      2693      2703      2705      2706
      2693      2707      2710      2711      2694      2693      2703      2699
      2694      2693      2703      2704      2694      2693      2703      2705
      2694      2693      2707      2708      2694      2693      2707      2709
      2694      2693      2707      2710      2695      2691      2696      2697
      2695      2691      2696      2698      2695      2691      2696      2699
      2695      2693      2703      2699      2695      2693      2703      2704
      2695      2693      2703      2705      2695      2693      2707      2708
      2695      2693      2707      2709      2695      2693      2707      2710
      2696      2698      2712      2713      2696      2698      2712      2716
      2696      2698      2712      2717      2696      2699      2701      2702
      2696      2699      2703      2704      2696      2699      2703      2705
      2697      2696      2698      2712      2697      2696      2699      2700
      2697      2696      2699      2701      2697      2696      2699      2703
      2698      2696      2699      2700      2698      2696      2699      2701
      2698      2696      2699      2703      2698      2712      2716      2714
      2698      2712      2717      2718      2698      2712      2717      2719
      2698      2712      2717      2721      2699      2696      2698      2712
      2699      2703      2693      2707      2699      2703      2705      2706
      2700      2699      2701      2702      2700      2699      2703      2704
      2700      2699      2703      2705      2701      2699      2703      2704
      2701      2699      2703      2705      2702      2701      2699      2703
      2703      2693      2707      2708      2703      2693      2707      2709
      2703      2693      2707      2710      2704      2703      2693      2707
      2704      2703      2705      2706      2705      2703      2693      2707
      2708      2707      2710      2711      2709      2707      2710      2711
      2712      2716      2714      2715      2712      2716      2714      2725
      2712      2716      2714      2729      2712      2717      2719      2720
      2712      2717      2721      2722      2712      2717      2721      2723
      2712      2717      2721      2725      2713      2712      2716      2714
      2713      2712      2717      2718      2713      2712      2717      2719
      2713      2712      2717      2721      2714      2716      2712      2717
      2714      2725      2721      2717      2714      2725      2721      2722
      2714      2725      2721      2723      2714      2725      2727      2728
      2714      2729      2732      2733      2715      2714      2725      2721
      2715      2714      2725      2726      2715      2714      2725      2727
      2715      2714      2729      2730      2715      2714      2729      2731
      2715      2714      2729      2732      2716      2712      2717      2718
      2716      2712      2717      2719      2716      2712      2717      2721
      2716      2714      2725      2721      2716      2714      2725      2726
      2716      2714      2725      2727      2716      2714      2729      2730
      2716      2714      2729      2731      2716      2714      2729      2732
      2717      2721      2723      2724      2717      2721      2725      2726
      2717      2721      2725      2727      2718      2717      2719      2720
      2718      2717      2721      2722      2718      2717      2721      2723
      2718      2717      2721      2725      2719      2717      2721      2722
      2719      2717      2721      2723      2719      2717      2721      2725
      2720      2719      2717      2721      2721      2725      2714      2729
      2721      2725      2727      2728      2722      2721      2723      2724
      2722      2721      2725      2726      2722      2721      2725      2727
      2723      2721      2725      2726      2723      2721      2725      2727
      2724      2723      2721      2725      2725      2714      2729      2730
      2725      2714      2729      2731      2725      2714      2729      2732
      2726      2725      2714      2729      2726      2725      2727      2728
      2727      2725      2714      2729      2730      2729      2732      2733
      2731      2729      2732      2733      2734      2738      2736      2737
      2734      2738      2736      2746      2734      2738      2736      2750
      2734      2739      2741      2742      2734      2739      2743      2744
      2734      2739      2743      2745      2734      2739      2743      2746
      2735      2734      2738      2736      2735      2734      2739      2740
      2735      2734      2739      2741      2735      2734      2739      2743
      2736      2738      2734      2739      2736      2746      2743      2739
      2736      2746      2743      2744      2736      2746      2743      2745
      2736      2746      2748      2749      2736      2750      2753      2754
      2737      2736      2746      2743      2737      2736      2746      2747
      2737      2736      2746      2748      2737      2736      2750      2751
      2737      2736      2750      2752      2737      2736      2750      2753
      2738      2734      2739      2740      2738      2734      2739      2741
      2738      2734      2739      2743      2738      2736      2746      2743
      2738      2736      2746      2747      2738      2736      2746      2748
      2738      2736      2750      2751      2738      2736      2750      2752
      2738      2736      2750      2753      2739      2743      2745      2755
      2739      2743      2746      2747      2739      2743      2746      2748
      2740      2739      2741      2742      2740      2739      2743      2744
      2740      2739      2743      2745      2740      2739      2743      2746
      2741      2739      2743      2744      2741      2739      2743      2745
      2741      2739      2743      2746      2742      2741      2739      2743
      2743      2745      2755      2756      2743      2745      2755      2759
      2743      2745      2755      2760      2743      2746      2736      2750
      2743      2746      2748      2749      2744      2743      2745      2755
      2744      2743      2746      2747      2744      2743      2746      2748
      2745      2743      2746      2747      2745      2743      2746      2748
      2745      2755      2759      2757      2745      2755      2760      2761
      2745      2755      2760      2762      2745      2755      2760      2770
      2746      2736      2750      2751      2746      2736      2750      2752
      2746      2736      2750      2753      2746      2743      2745      2755
      2747      2746      2736      2750      2747      2746      2748      2749
      2748      2746      2736      2750      2751      2750      2753      2754
      2752      2750      2753      2754      2755      2759      2757      2758
      2755      2759      2757      2773      2755      2759      2757      2777
      2755      2760      2762      2763      2755      2760      2762      2764
      2755      2760      2770      2771      2755      2760      2770      2772
      2755      2760      2770      2773      2756      2755      2759      2757
      2756      2755      2760      2761      2756      2755      2760      2762
      2756      2755      2760      2770      2757      2759      2755      2760
      2757      2773      2770      2760      2757      2773      2770      2771
      2757      2773      2770      2772      2757      2773      2775      2776
      2757      2777      2780      2781      2758      2757      2773      2770
      2758      2757      2773      2774      2758      2757      2773      2775
      2758      2757      2777      2778      2758      2757      2777      2779
      2758      2757      2777      2780      2759      2755      2760      2761
      2759      2755      2760      2762      2759      2755      2760      2770
      2759      2757      2773      2770      2759      2757      2773      2774
      2759      2757      2773      2775      2759      2757      2777      2778
      2759      2757      2777      2779      2759      2757      2777      2780
      2760      2762      2764      2765      2760      2762      2764      2766
      2760      2770      2772      2782      2760      2770      2773      2774
      2760      2770      2773      2775      2761      2760      2762      2763
      2761      2760      2762      2764      2761      2760      2770      2771
      2761      2760      2770      2772      2761      2760      2770      2773
      2762      2760      2770      2771      2762      2760      2770      2772
      2762      2760      2770      2773      2762      2764      2766      2767
      2762      2764      2766      2768      2762      2764      2766      2769
      2763      2762      2760      2770      2763      2762      2764      2765
      2763      2762      2764      2766      2764      2762      2760      2770
      2765      2764      2766      2767      2765      2764      2766      2768
      2765      2764      2766      2769      2770      2772      2782      2783
      2770      2772      2782      2786      2770      2772      2782      2787
      2770      2773      2757      2777      2770      2773      2775      2776
      2771      2770      2772      2782      2771      2770      2773      2774
      2771      2770      2773      2775      2772      2770      2773      2774
      2772      2770      2773      2775      2772      2782      2786      2784
      2772      2782      2787      2788      2772      2782      2787      2789
      2772      2782      2787      2790      2773      2757      2777      2778
      2773      2757      2777      2779      2773      2757      2777      2780
      2773      2770      2772      2782      2774      2773      2757      2777
      2774      2773      2775      2776      2775      2773      2757      2777
      2778      2777      2780      2781      2779      2777      2780      2781
      2782      2786      2784      2785      2782      2786      2784      2794
      2782      2786      2784      2798      2782      2787      2789      2803
      2782      2787      2790      2791      2782      2787      2790      2792
      2782      2787      2790      2794      2783      2782      2786      2784
      2783      2782      2787      2788      2783      2782      2787      2789
      2783      2782      2787      2790      2784      2786      2782      2787
      2784      2794      2790      2787      2784      2794      2790      2791
      2784      2794      2790      2792      2784      2794      2796      2797
      2784      2798      2801      2802      2785      2784      2794      2790
      2785      2784      2794      2795      2785      2784      2794      2796
      2785      2784      2798      2799      2785      2784      2798      2800
      2785      2784      2798      2801      2786      2782      2787      2788
      2786      2782      2787      2789      2786      2782      2787      2790
      2786      2784      2794      2790      2786      2784      2794      2795
      2786      2784      2794      2796      2786      2784      2798      2799
      2786      2784      2798      2800      2786      2784      2798      2801
      2787      2789      2803      2804      2787      2789      2803      2807
      2787      2789      2803      2808      2787      2790      2792      2793
      2787      2790      2794      2795      2787      2790      2794      2796
      2788      2787      2789      2803      2788      2787      2790      2791
      2788      2787      2790      2792      2788      2787      2790      2794
      2789      2787      2790      2791      2789      2787      2790      2792
      2789      2787      2790      2794      2789      2803      2807      2805
      2789      2803      2808      2809      2789      2803      2808      2810
      2789      2803      2808      2811      2790      2787      2789      2803
      2790      2794      2784      2798      2790      2794      2796      2797
      2791      2790      2792      2793      2791      2790      2794      2795
      2791      2790      2794      2796      2792      2790      2794      2795
      2792      2790      2794      2796      2793      2792      2790      2794
      2794      2784      2798      2799      2794      2784      2798      2800
      2794      2784      2798      2801      2795      2794      2784      2798
      2795      2794      2796      2797      2796      2794      2784      2798
      2799      2798      2801      2802      2800      2798      2801      2802
      2803      2807      2805      2806      2803      2807      2805      2815
      2803      2807      2805      2819      2803      2808      2810      2823
      2803      2808      2811      2812      2803      2808      2811      2813
      2803      2808      2811      2815      2804      2803      2807      2805
      2804      2803      2808      2809      2804      2803      2808      2810
      2804      2803      2808      2811      2805      2807      2803      2808
      2805      2815      2811      2808      2805      2815      2811      2812
      2805      2815      2811      2813      2805      2815      2817      2818
      2806      2805      2815      2811      2806      2805      2815      2816
      2806      2805      2815      2817      2806      2805      2819      2820
      2806      2805      2819      2821      2806      2805      2819      2822
      2807      2803      2808      2809      2807      2803      2808      2810
      2807      2803      2808      2811      2807      2805      2815      2811
      2807      2805      2815      2816      2807      2805      2815      2817
      2807      2805      2819      2820      2807      2805      2819      2821
      2807      2805      2819      2822      2808      2810      2823      2824
      2808      2810      2823      2827      2808      2810      2823      2828
      2808      2811      2813      2814      2808      2811      2815      2816
      2808      2811      2815      2817      2809      2808      2810      2823
      2809      2808      2811      2812      2809      2808      2811      2813
      2809      2808      2811      2815      2810      2808      2811      2812
      2810      2808      2811      2813      2810      2808      2811      2815
      2810      2823      2827      2825      2810      2823      2828      2829
      2810      2823      2828      2830      2810      2823      2828      2831
      2811      2808      2810      2823      2811      2815      2805      2819
      2811      2815      2817      2818      2812      2811      2813      2814
      2812      2811      2815      2816      2812      2811      2815      2817
      2813      2811      2815      2816      2813      2811      2815      2817
      2814      2813      2811      2815      2815      2805      2819      2820
      2815      2805      2819      2821      2815      2805      2819      2822
      2816      2815      2805      2819      2816      2815      2817      2818
      2817      2815      2805      2819      2823      2827      2825      2826
      2823      2827      2825      2834      2823      2827      2825      2838
      2823      2828      2830      2842      2823      2828      2831      2832
      2823      2828      2831      2833      2823      2828      2831      2834
      2824      2823      2827      2825      2824      2823      2828      2829
      2824      2823      2828      2830      2824      2823      2828      2831
      2825      2827      2823      2828      2825      2834      2831      2828
      2825      2834      2831      2832      2825      2834      2831      2833
      2825      2834      2836      2837      2826      2825      2834      2831
      2826      2825      2834      2835      2826      2825      2834      2836
      2826      2825      2838      2839      2826      2825      2838      2840
      2826      2825      2838      2841      2827      2823      2828      2829
      2827      2823      2828      2830      2827      2823      2828      2831
      2827      2825      2834      2831      2827      2825      2834      2835
      2827      2825      2834      2836      2827      2825      2838      2839
      2827      2825      2838      2840      2827      2825      2838      2841
      2828      2830      2842      2843      2828      2830      2842      2846
      2828      2830      2842      2847      2828      2831      2833      2870
      2828      2831      2834      2835      2828      2831      2834      2836
      2829      2828      2830      2842      2829      2828      2831      2832
      2829      2828      2831      2833      2829      2828      2831      2834
      2830      2828      2831      2832      2830      2828      2831      2833
      2830      2828      2831      2834      2830      2842      2846      2844
      2830      2842      2847      2848      2830      2842      2847      2849
      2830      2842      2847      2857      2831      2828      2830      2842
      2831      2833      2870      2871      2831      2833      2870      2874
      2831      2833      2870      2875      2831      2834      2825      2838
      2831      2834      2836      2837      2832      2831      2833      2870
      2832      2831      2834      2835      2832      2831      2834      2836
      2833      2831      2834      2835      2833      2831      2834      2836
      2833      2870      2874      2872      2833      2870      2875      2876
      2833      2870      2875      2877      2833      2870      2875      2885
      2834      2825      2838      2839      2834      2825      2838      2840
      2834      2825      2838      2841      2834      2831      2833      2870
      2835      2834      2825      2838      2835      2834      2836      2837
      2836      2834      2825      2838      2842      2846      2844      2845
      2842      2846      2844      2861      2842      2846      2844      2865
      2842      2847      2849      2850      2842      2847      2849      2851
      2842      2847      2857      2858      2842      2847      2857      2859
      2842      2847      2857      2861      2843      2842      2846      2844
      2843      2842      2847      2848      2843      2842      2847      2849
      2843      2842      2847      2857      2844      2846      2842      2847
      2844      2861      2857      2847      2844      2861      2857      2858
      2844      2861      2857      2859      2844      2861      2863      2864
      2844      2865      2868      2869      2845      2844      2861      2857
      2845      2844      2861      2862      2845      2844      2861      2863
      2845      2844      2865      2866      2845      2844      2865      2867
      2845      2844      2865      2868      2846      2842      2847      2848
      2846      2842      2847      2849      2846      2842      2847      2857
      2846      2844      2861      2857      2846      2844      2861      2862
      2846      2844      2861      2863      2846      2844      2865      2866
      2846      2844      2865      2867      2846      2844      2865      2868
      2847      2849      2851      2852      2847      2849      2851      2853
      2847      2857      2859      2860      2847      2857      2861      2862
      2847      2857      2861      2863      2848      2847      2849      2850
      2848      2847      2849      2851      2848      2847      2857      2858
      2848      2847      2857      2859      2848      2847      2857      2861
      2849      2847      2857      2858      2849      2847      2857      2859
      2849      2847      2857      2861      2849      2851      2853      2854
      2849      2851      2853      2855      2849      2851      2853      2856
      2850      2849      2847      2857      2850      2849      2851      2852
      2850      2849      2851      2853      2851      2849      2847      2857
      2852      2851      2853      2854      2852      2851      2853      2855
      2852      2851      2853      2856      2857      2861      2844      2865
      2857      2861      2863      2864      2858      2857      2859      2860
      2858      2857      2861      2862      2858      2857      2861      2863
      2859      2857      2861      2862      2859      2857      2861      2863
      2860      2859      2857      2861      2861      2844      2865      2866
      2861      2844      2865      2867      2861      2844      2865      2868
      2862      2861      2844      2865      2862      2861      2863      2864
      2863      2861      2844      2865      2866      2865      2868      2869
      2867      2865      2868      2869      2870      2874      2872      2873
      2870      2874      2872      2888      2870      2874      2872      2892
      2870      2875      2877      2878      2870      2875      2877      2879
      2870      2875      2885      2886      2870      2875      2885      2887
      2870      2875      2885      2888      2871      2870      2874      2872
      2871      2870      2875      2876      2871      2870      2875      2877
      2871      2870      2875      2885      2872      2874      2870      2875
      2872      2888      2885      2875      2872      2888      2885      2886
      2872      2888      2885      2887      2872      2888      2890      2891
      2872      2892      2895      2896      2873      2872      2888      2885
      2873      2872      2888      2889      2873      2872      2888      2890
      2873      2872      2892      2893      2873      2872      2892      2894
      2873      2872      2892      2895      2874      2870      2875      2876
      2874      2870      2875      2877      2874      2870      2875      2885
      2874      2872      2888      2885      2874      2872      2888      2889
      2874      2872      2888      2890      2874      2872      2892      2893
      2874      2872      2892      2894      2874      2872      2892      2895
      2875      2877      2879      2880      2875      2877      2879      2881
      2875      2885      2887      2897      2875      2885      2888      2889
      2875      2885      2888      2890      2876      2875      2877      2878
      2876      2875      2877      2879      2876      2875      2885      2886
      2876      2875      2885      2887      2876      2875      2885      2888
      2877      2875      2885      2886      2877      2875      2885      2887
      2877      2875      2885      2888      2877      2879      2881      2882
      2877      2879      2881      2883      2877      2879      2881      2884
      2878      2877      2875      2885      2878      2877      2879      2880
      2878      2877      2879      2881      2879      2877      2875      2885
      2880      2879      2881      2882      2880      2879      2881      2883
      2880      2879      2881      2884      2885      2887      2897      2898
      2885      2887      2897      2901      2885      2887      2897      2902
      2885      2888      2872      2892      2885      2888      2890      2891
      2886      2885      2887      2897      2886      2885      2888      2889
      2886      2885      2888      2890      2887      2885      2888      2889
      2887      2885      2888      2890      2887      2897      2901      2899
      2887      2897      2902      2903      2887      2897      2902      2904
      2887      2897      2902      2905      2888      2872      2892      2893
      2888      2872      2892      2894      2888      2872      2892      2895
      2888      2885      2887      2897      2889      2888      2872      2892
      2889      2888      2890      2891      2890      2888      2872      2892
      2893      2892      2895      2896      2894      2892      2895      2896
      2897      2901      2899      2900      2897      2901      2899      2909
      2897      2901      2899      2913      2897      2902      2904      2918
      2897      2902      2905      2906      2897      2902      2905      2907
      2897      2902      2905      2909      2898      2897      2901      2899
      2898      2897      2902      2903      2898      2897      2902      2904
      2898      2897      2902      2905      2899      2901      2897      2902
      2899      2909      2905      2902      2899      2909      2905      2906
      2899      2909      2905      2907      2899      2909      2911      2912
      2899      2913      2916      2917      2900      2899      2909      2905
      2900      2899      2909      2910      2900      2899      2909      2911
      2900      2899      2913      2914      2900      2899      2913      2915
      2900      2899      2913      2916      2901      2897      2902      2903
      2901      2897      2902      2904      2901      2897      2902      2905
      2901      2899      2909      2905      2901      2899      2909      2910
      2901      2899      2909      2911      2901      2899      2913      2914
      2901      2899      2913      2915      2901      2899      2913      2916
      2902      2904      2918      2919      2902      2904      2918      2922
      2902      2904      2918      2923      2902      2905      2907      2908
      2902      2905      2909      2910      2902      2905      2909      2911
      2903      2902      2904      2918      2903      2902      2905      2906
      2903      2902      2905      2907      2903      2902      2905      2909
      2904      2902      2905      2906      2904      2902      2905      2907
      2904      2902      2905      2909      2904      2918      2922      2920
      2904      2918      2923      2924      2904      2918      2923      2925
      2904      2918      2923      2926      2905      2902      2904      2918
      2905      2909      2899      2913      2905      2909      2911      2912
      2906      2905      2907      2908      2906      2905      2909      2910
      2906      2905      2909      2911      2907      2905      2909      2910
      2907      2905      2909      2911      2908      2907      2905      2909
      2909      2899      2913      2914      2909      2899      2913      2915
      2909      2899      2913      2916      2910      2909      2899      2913
      2910      2909      2911      2912      2911      2909      2899      2913
      2914      2913      2916      2917      2915      2913      2916      2917
      2918      2922      2920      2921      2918      2922      2920      2930
      2918      2922      2920      2934      2918      2923      2925      2938
      2918      2923      2926      2927      2918      2923      2926      2928
      2918      2923      2926      2930      2919      2918      2922      2920
      2919      2918      2923      2924      2919      2918      2923      2925
      2919      2918      2923      2926      2920      2922      2918      2923
      2920      2930      2926      2923      2920      2930      2926      2927
      2920      2930      2926      2928      2920      2930      2932      2933
      2921      2920      2930      2926      2921      2920      2930      2931
      2921      2920      2930      2932      2921      2920      2934      2935
      2921      2920      2934      2936      2921      2920      2934      2937
      2922      2918      2923      2924      2922      2918      2923      2925
      2922      2918      2923      2926      2922      2920      2930      2926
      2922      2920      2930      2931      2922      2920      2930      2932
      2922      2920      2934      2935      2922      2920      2934      2936
      2922      2920      2934      2937      2923      2925      2938      2939
      2923      2925      2938      2942      2923      2925      2938      2943
      2923      2926      2928      2929      2923      2926      2930      2931
      2923      2926      2930      2932      2924      2923      2925      2938
      2924      2923      2926      2927      2924      2923      2926      2928
      2924      2923      2926      2930      2925      2923      2926      2927
      2925      2923      2926      2928      2925      2923      2926      2930
      2925      2938      2942      2940      2925      2938      2943      2944
      2925      2938      2943      2945      2925      2938      2943      2946
      2926      2923      2925      2938      2926      2930      2920      2934
      2926      2930      2932      2933      2927      2926      2928      2929
      2927      2926      2930      2931      2927      2926      2930      2932
      2928      2926      2930      2931      2928      2926      2930      2932
      2929      2928      2926      2930      2930      2920      2934      2935
      2930      2920      2934      2936      2930      2920      2934      2937
      2931      2930      2920      2934      2931      2930      2932      2933
      2932      2930      2920      2934      2938      2942      2940      2941
      2938      2942      2940      2949      2938      2942      2940      2953
      2938      2943      2945      2957      2938      2943      2946      2947
      2938      2943      2946      2948      2938      2943      2946      2949
      2939      2938      2942      2940      2939      2938      2943      2944
      2939      2938      2943      2945      2939      2938      2943      2946
      2940      2942      2938      2943      2940      2949      2946      2943
      2940      2949      2946      2947      2940      2949      2946      2948
      2940      2949      2951      2952      2941      2940      2949      2946
      2941      2940      2949      2950      2941      2940      2949      2951
      2941      2940      2953      2954      2941      2940      2953      2955
      2941      2940      2953      2956      2942      2938      2943      2944
      2942      2938      2943      2945      2942      2938      2943      2946
      2942      2940      2949      2946      2942      2940      2949      2950
      2942      2940      2949      2951      2942      2940      2953      2954
      2942      2940      2953      2955      2942      2940      2953      2956
      2943      2945      2957      2958      2943      2945      2957      2961
      2943      2945      2957      2962      2943      2946      2948      2985
      2943      2946      2949      2950      2943      2946      2949      2951
      2944      2943      2945      2957      2944      2943      2946      2947
      2944      2943      2946      2948      2944      2943      2946      2949
      2945      2943      2946      2947      2945      2943      2946      2948
      2945      2943      2946      2949      2945      2957      2961      2959
      2945      2957      2962      2963      2945      2957      2962      2964
      2945      2957      2962      2972      2946      2943      2945      2957
      2946      2948      2985      2986      2946      2948      2985      2989
      2946      2948      2985      2990      2946      2949      2940      2953
      2946      2949      2951      2952      2947      2946      2948      2985
      2947      2946      2949      2950      2947      2946      2949      2951
      2948      2946      2949      2950      2948      2946      2949      2951
      2948      2985      2989      2987      2948      2985      2990      2991
      2948      2985      2990      2992      2948      2985      2990      3000
      2949      2940      2953      2954      2949      2940      2953      2955
      2949      2940      2953      2956      2949      2946      2948      2985
      2950      2949      2940      2953      2950      2949      2951      2952
      2951      2949      2940      2953      2957      2961      2959      2960
      2957      2961      2959      2976      2957      2961      2959      2980
      2957      2962      2964      2965      2957      2962      2964      2966
      2957      2962      2972      2973      2957      2962      2972      2974
      2957      2962      2972      2976      2958      2957      2961      2959
      2958      2957      2962      2963      2958      2957      2962      2964
      2958      2957      2962      2972      2959      2961      2957      2962
      2959      2976      2972      2962      2959      2976      2972      2973
      2959      2976      2972      2974      2959      2976      2978      2979
      2959      2980      2983      2984      2960      2959      2976      2972
      2960      2959      2976      2977      2960      2959      2976      2978
      2960      2959      2980      2981      2960      2959      2980      2982
      2960      2959      2980      2983      2961      2957      2962      2963
      2961      2957      2962      2964      2961      2957      2962      2972
      2961      2959      2976      2972      2961      2959      2976      2977
      2961      2959      2976      2978      2961      2959      2980      2981
      2961      2959      2980      2982      2961      2959      2980      2983
      2962      2964      2966      2967      2962      2964      2966      2968
      2962      2972      2974      2975      2962      2972      2976      2977
      2962      2972      2976      2978      2963      2962      2964      2965
      2963      2962      2964      2966      2963      2962      2972      2973
      2963      2962      2972      2974      2963      2962      2972      2976
      2964      2962      2972      2973      2964      2962      2972      2974
      2964      2962      2972      2976      2964      2966      2968      2969
      2964      2966      2968      2970      2964      2966      2968      2971
      2965      2964      2962      2972      2965      2964      2966      2967
      2965      2964      2966      2968      2966      2964      2962      2972
      2967      2966      2968      2969      2967      2966      2968      2970
      2967      2966      2968      2971      2972      2976      2959      2980
      2972      2976      2978      2979      2973      2972      2974      2975
      2973      2972      2976      2977      2973      2972      2976      2978
      2974      2972      2976      2977      2974      2972      2976      2978
      2975      2974      2972      2976      2976      2959      2980      2981
      2976      2959      2980      2982      2976      2959      2980      2983
      2977      2976      2959      2980      2977      2976      2978      2979
      2978      2976      2959      2980      2981      2980      2983      2984
      2982      2980      2983      2984      2985      2989      2987      2988
      2985      2989      2987      3003      2985      2989      2987      3007
      2985      2990      2992      2993      2985      2990      2992      2994
      2985      2990      3000      3001      2985      2990      3000      3002
      2985      2990      3000      3003      2986      2985      2989      2987
      2986      2985      2990      2991      2986      2985      2990      2992
      2986      2985      2990      3000      2987      2989      2985      2990
      2987      3003      3000      2990      2987      3003      3000      3001
      2987      3003      3000      3002      2987      3003      3005      3006
      2987      3007      3010      3011      2988      2987      3003      3000
      2988      2987      3003      3004      2988      2987      3003      3005
      2988      2987      3007      3008      2988      2987      3007      3009
      2988      2987      3007      3010      2989      2985      2990      2991
      2989      2985      2990      2992      2989      2985      2990      3000
      2989      2987      3003      3000      2989      2987      3003      3004
      2989      2987      3003      3005      2989      2987      3007      3008
      2989      2987      3007      3009      2989      2987      3007      3010
      2990      2992      2994      2995      2990      2992      2994      2996
      2990      3000      3002      3012      2990      3000      3003      3004
      2990      3000      3003      3005      2991      2990      2992      2993
      2991      2990      2992      2994      2991      2990      3000      3001
      2991      2990      3000      3002      2991      2990      3000      3003
      2992      2990      3000      3001      2992      2990      3000      3002
      2992      2990      3000      3003      2992      2994      2996      2997
      2992      2994      2996      2998      2992      2994      2996      2999
      2993      2992      2990      3000      2993      2992      2994      2995
      2993      2992      2994      2996      2994      2992      2990      3000
      2995      2994      2996      2997      2995      2994      2996      2998
      2995      2994      2996      2999      3000      3002      3012      3013
      3000      3002      3012      3016      3000      3002      3012      3017
      3000      3003      2987      3007      3000      3003      3005      3006
      3001      3000      3002      3012      3001      3000      3003      3004
      3001      3000      3003      3005      3002      3000      3003      3004
      3002      3000      3003      3005      3002      3012      3016      3014
      3002      3012      3017      3018      3002      3012      3017      3019
      3002      3012      3017      3020      3003      2987      3007      3008
      3003      2987      3007      3009      3003      2987      3007      3010
      3003      3000      3002      3012      3004      3003      2987      3007
      3004      3003      3005      3006      3005      3003      2987      3007
      3008      3007      3010      3011      3009      3007      3010      3011
      3012      3016      3014      3015      3012      3016      3014      3024
      3012      3016      3014      3028      3012      3017      3019      3033
      3012      3017      3020      3021      3012      3017      3020      3022
      3012      3017      3020      3024      3013      3012      3016      3014
      3013      3012      3017      3018      3013      3012      3017      3019
      3013      3012      3017      3020      3014      3016      3012      3017
      3014      3024      3020      3017      3014      3024      3020      3021
      3014      3024      3020      3022      3014      3024      3026      3027
      3014      3028      3031      3032      3015      3014      3024      3020
      3015      3014      3024      3025      3015      3014      3024      3026
      3015      3014      3028      3029      3015      3014      3028      3030
      3015      3014      3028      3031      3016      3012      3017      3018
      3016      3012      3017      3019      3016      3012      3017      3020
      3016      3014      3024      3020      3016      3014      3024      3025
      3016      3014      3024      3026      3016      3014      3028      3029
      3016      3014      3028      3030      3016      3014      3028      3031
      3017      3019      3033      3034      3017      3019      3033      3037
      3017      3019      3033      3038      3017      3020      3022      3023
      3017      3020      3024      3025      3017      3020      3024      3026
      3018      3017      3019      3033      3018      3017      3020      3021
      3018      3017      3020      3022      3018      3017      3020      3024
      3019      3017      3020      3021      3019      3017      3020      3022
      3019      3017      3020      3024      3019      3033      3037      3035
      3019      3033      3038      3039      3019      3033      3038      3040
      3019      3033      3038      3041      3020      3017      3019      3033
      3020      3024      3014      3028      3020      3024      3026      3027
      3021      3020      3022      3023      3021      3020      3024      3025
      3021      3020      3024      3026      3022      3020      3024      3025
      3022      3020      3024      3026      3023      3022      3020      3024
      3024      3014      3028      3029      3024      3014      3028      3030
      3024      3014      3028      3031      3025      3024      3014      3028
      3025      3024      3026      3027      3026      3024      3014      3028
      3029      3028      3031      3032      3030      3028      3031      3032
      3033      3037      3035      3036      3033      3037      3035      3045
      3033      3037      3035      3049      3033      3038      3040      3053
      3033      3038      3041      3042      3033      3038      3041      3043
      3033      3038      3041      3045      3034      3033      3037      3035
      3034      3033      3038      3039      3034      3033      3038      3040
      3034      3033      3038      3041      3035      3037      3033      3038
      3035      3045      3041      3038      3035      3045      3041      3042
      3035      3045      3041      3043      3035      3045      3047      3048
      3036      3035      3045      3041      3036      3035      3045      3046
      3036      3035      3045      3047      3036      3035      3049      3050
      3036      3035      3049      3051      3036      3035      3049      3052
      3037      3033      3038      3039      3037      3033      3038      3040
      3037      3033      3038      3041      3037      3035      3045      3041
      3037      3035      3045      3046      3037      3035      3045      3047
      3037      3035      3049      3050      3037      3035      3049      3051
      3037      3035      3049      3052      3038      3040      3053      3054
      3038      3040      3053      3057      3038      3040      3053      3058
      3038      3041      3043      3044      3038      3041      3045      3046
      3038      3041      3045      3047      3039      3038      3040      3053
      3039      3038      3041      3042      3039      3038      3041      3043
      3039      3038      3041      3045      3040      3038      3041      3042
      3040      3038      3041      3043      3040      3038      3041      3045
      3040      3053      3057      3055      3040      3053      3058      3059
      3040      3053      3058      3060      3040      3053      3058      3061
      3041      3038      3040      3053      3041      3045      3035      3049
      3041      3045      3047      3048      3042      3041      3043      3044
      3042      3041      3045      3046      3042      3041      3045      3047
      3043      3041      3045      3046      3043      3041      3045      3047
      3044      3043      3041      3045      3045      3035      3049      3050
      3045      3035      3049      3051      3045      3035      3049      3052
      3046      3045      3035      3049      3046      3045      3047      3048
      3047      3045      3035      3049      3053      3057      3055      3056
      3053      3057      3055      3064      3053      3057      3055      3068
      3053      3058      3060      3072      3053      3058      3061      3062
      3053      3058      3061      3063      3053      3058      3061      3064
      3054      3053      3057      3055      3054      3053      3058      3059
      3054      3053      3058      3060      3054      3053      3058      3061
      3055      3057      3053      3058      3055      3064      3061      3058
      3055      3064      3061      3062      3055      3064      3061      3063
      3055      3064      3066      3067      3056      3055      3064      3061
      3056      3055      3064      3065      3056      3055      3064      3066
      3056      3055      3068      3069      3056      3055      3068      3070
      3056      3055      3068      3071      3057      3053      3058      3059
      3057      3053      3058      3060      3057      3053      3058      3061
      3057      3055      3064      3061      3057      3055      3064      3065
      3057      3055      3064      3066      3057      3055      3068      3069
      3057      3055      3068      3070      3057      3055      3068      3071
      3058      3060      3072      3073      3058      3060      3072      3076
      3058      3060      3072      3077      3058      3061      3063      3100
      3058      3061      3064      3065      3058      3061      3064      3066
      3059      3058      3060      3072      3059      3058      3061      3062
      3059      3058      3061      3063      3059      3058      3061      3064
      3060      3058      3061      3062      3060      3058      3061      3063
      3060      3058      3061      3064      3060      3072      3076      3074
      3060      3072      3077      3078      3060      3072      3077      3079
      3060      3072      3077      3087      3061      3058      3060      3072
      3061      3063      3100      3101      3061      3063      3100      3104
      3061      3063      3100      3105      3061      3064      3055      3068
      3061      3064      3066      3067      3062      3061      3063      3100
      3062      3061      3064      3065      3062      3061      3064      3066
      3063      3061      3064      3065      3063      3061      3064      3066
      3063      3100      3104      3102      3063      3100      3105      3106
      3063      3100      3105      3107      3063      3100      3105      3115
      3064      3055      3068      3069      3064      3055      3068      3070
      3064      3055      3068      3071      3064      3061      3063      3100
      3065      3064      3055      3068      3065      3064      3066      3067
      3066      3064      3055      3068      3072      3076      3074      3075
      3072      3076      3074      3091      3072      3076      3074      3095
      3072      3077      3079      3080      3072      3077      3079      3081
      3072      3077      3087      3088      3072      3077      3087      3089
      3072      3077      3087      3091      3073      3072      3076      3074
      3073      3072      3077      3078      3073      3072      3077      3079
      3073      3072      3077      3087      3074      3076      3072      3077
      3074      3091      3087      3077      3074      3091      3087      3088
      3074      3091      3087      3089      3074      3091      3093      3094
      3074      3095      3098      3099      3075      3074      3091      3087
      3075      3074      3091      3092      3075      3074      3091      3093
      3075      3074      3095      3096      3075      3074      3095      3097
      3075      3074      3095      3098      3076      3072      3077      3078
      3076      3072      3077      3079      3076      3072      3077      3087
      3076      3074      3091      3087      3076      3074      3091      3092
      3076      3074      3091      3093      3076      3074      3095      3096
      3076      3074      3095      3097      3076      3074      3095      3098
      3077      3079      3081      3082      3077      3079      3081      3083
      3077      3087      3089      3090      3077      3087      3091      3092
      3077      3087      3091      3093      3078      3077      3079      3080
      3078      3077      3079      3081      3078      3077      3087      3088
      3078      3077      3087      3089      3078      3077      3087      3091
      3079      3077      3087      3088      3079      3077      3087      3089
      3079      3077      3087      3091      3079      3081      3083      3084
      3079      3081      3083      3085      3079      3081      3083      3086
      3080      3079      3077      3087      3080      3079      3081      3082
      3080      3079      3081      3083      3081      3079      3077      3087
      3082      3081      3083      3084      3082      3081      3083      3085
      3082      3081      3083      3086      3087      3091      3074      3095
      3087      3091      3093      3094      3088      3087      3089      3090
      3088      3087      3091      3092      3088      3087      3091      3093
      3089      3087      3091      3092      3089      3087      3091      3093
      3090      3089      3087      3091      3091      3074      3095      3096
      3091      3074      3095      3097      3091      3074      3095      3098
      3092      3091      3074      3095      3092      3091      3093      3094
      3093      3091      3074      3095      3096      3095      3098      3099
      3097      3095      3098      3099      3100      3104      3102      3103
      3100      3104      3102      3118      3100      3104      3102      3122
      3100      3105      3107      3108      3100      3105      3107      3109
      3100      3105      3115      3116      3100      3105      3115      3117
      3100      3105      3115      3118      3101      3100      3104      3102
      3101      3100      3105      3106      3101      3100      3105      3107
      3101      3100      3105      3115      3102      3104      3100      3105
      3102      3118      3115      3105      3102      3118      3115      3116
      3102      3118      3115      3117      3102      3118      3120      3121
      3102      3122      3125      3126      3103      3102      3118      3115
      3103      3102      3118      3119      3103      3102      3118      3120
      3103      3102      3122      3123      3103      3102      3122      3124
      3103      3102      3122      3125      3104      3100      3105      3106
      3104      3100      3105      3107      3104      3100      3105      3115
      3104      3102      3118      3115      3104      3102      3118      3119
      3104      3102      3118      3120      3104      3102      3122      3123
      3104      3102      3122      3124      3104      3102      3122      3125
      3105      3107      3109      3110      3105      3107      3109      3111
      3105      3115      3117      3127      3105      3115      3118      3119
      3105      3115      3118      3120      3106      3105      3107      3108
      3106      3105      3107      3109      3106      3105      3115      3116
      3106      3105      3115      3117      3106      3105      3115      3118
      3107      3105      3115      3116      3107      3105      3115      3117
      3107      3105      3115      3118      3107      3109      3111      3112
      3107      3109      3111      3113      3107      3109      3111      3114
      3108      3107      3105      3115      3108      3107      3109      3110
      3108      3107      3109      3111      3109      3107      3105      3115
      3110      3109      3111      3112      3110      3109      3111      3113
      3110      3109      3111      3114      3115      3117      3127      3128
      3115      3117      3127      3131      3115      3117      3127      3132
      3115      3118      3102      3122      3115      3118      3120      3121
      3116      3115      3117      3127      3116      3115      3118      3119
      3116      3115      3118      3120      3117      3115      3118      3119
      3117      3115      3118      3120      3117      3127      3131      3129
      3117      3127      3132      3133      3117      3127      3132      3134
      3117      3127      3132      3135      3118      3102      3122      3123
      3118      3102      3122      3124      3118      3102      3122      3125
      3118      3115      3117      3127      3119      3118      3102      3122
      3119      3118      3120      3121      3120      3118      3102      3122
      3123      3122      3125      3126      3124      3122      3125      3126
      3127      3131      3129      3130      3127      3131      3129      3139
      3127      3131      3129      3143      3127      3132      3134      3148
      3127      3132      3135      3136      3127      3132      3135      3137
      3127      3132      3135      3139      3128      3127      3131      3129
      3128      3127      3132      3133      3128      3127      3132      3134
      3128      3127      3132      3135      3129      3131      3127      3132
      3129      3139      3135      3132      3129      3139      3135      3136
      3129      3139      3135      3137      3129      3139      3141      3142
      3129      3143      3146      3147      3130      3129      3139      3135
      3130      3129      3139      3140      3130      3129      3139      3141
      3130      3129      3143      3144      3130      3129      3143      3145
      3130      3129      3143      3146      3131      3127      3132      3133
      3131      3127      3132      3134      3131      3127      3132      3135
      3131      3129      3139      3135      3131      3129      3139      3140
      3131      3129      3139      3141      3131      3129      3143      3144
      3131      3129      3143      3145      3131      3129      3143      3146
      3132      3134      3148      3149      3132      3134      3148      3152
      3132      3134      3148      3153      3132      3135      3137      3138
      3132      3135      3139      3140      3132      3135      3139      3141
      3133      3132      3134      3148      3133      3132      3135      3136
      3133      3132      3135      3137      3133      3132      3135      3139
      3134      3132      3135      3136      3134      3132      3135      3137
      3134      3132      3135      3139      3134      3148      3152      3150
      3134      3148      3153      3154      3134      3148      3153      3155
      3134      3148      3153      3156      3135      3132      3134      3148
      3135      3139      3129      3143      3135      3139      3141      3142
      3136      3135      3137      3138      3136      3135      3139      3140
      3136      3135      3139      3141      3137      3135      3139      3140
      3137      3135      3139      3141      3138      3137      3135      3139
      3139      3129      3143      3144      3139      3129      3143      3145
      3139      3129      3143      3146      3140      3139      3129      3143
      3140      3139      3141      3142      3141      3139      3129      3143
      3144      3143      3146      3147      3145      3143      3146      3147
      3148      3152      3150      3151      3148      3152      3150      3160
      3148      3152      3150      3164      3148      3153      3155      3168
      3148      3153      3156      3157      3148      3153      3156      3158
      3148      3153      3156      3160      3149      3148      3152      3150
      3149      3148      3153      3154      3149      3148      3153      3155
      3149      3148      3153      3156      3150      3152      3148      3153
      3150      3160      3156      3153      3150      3160      3156      3157
      3150      3160      3156      3158      3150      3160      3162      3163
      3151      3150      3160      3156      3151      3150      3160      3161
      3151      3150      3160      3162      3151      3150      3164      3165
      3151      3150      3164      3166      3151      3150      3164      3167
      3152      3148      3153      3154      3152      3148      3153      3155
      3152      3148      3153      3156      3152      3150      3160      3156
      3152      3150      3160      3161      3152      3150      3160      3162
      3152      3150      3164      3165      3152      3150      3164      3166
      3152      3150      3164      3167      3153      3155      3168      3169
      3153      3155      3168      3172      3153      3155      3168      3173
      3153      3156      3158      3159      3153      3156      3160      3161
      3153      3156      3160      3162      3154      3153      3155      3168
      3154      3153      3156      3157      3154      3153      3156      3158
      3154      3153      3156      3160      3155      3153      3156      3157
      3155      3153      3156      3158      3155      3153      3156      3160
      3155      3168      3172      3170      3155      3168      3173      3174
      3155      3168      3173      3175      3155      3168      3173      3176
      3156      3153      3155      3168      3156      3160      3150      3164
      3156      3160      3162      3163      3157      3156      3158      3159
      3157      3156      3160      3161      3157      3156      3160      3162
      3158      3156      3160      3161      3158      3156      3160      3162
      3159      3158      3156      3160      3160      3150      3164      3165
      3160      3150      3164      3166      3160      3150      3164      3167
      3161      3160      3150      3164      3161      3160      3162      3163
      3162      3160      3150      3164      3168      3172      3170      3171
      3168      3172      3170      3179      3168      3172      3170      3183
      3168      3173      3175      3187      3168      3173      3176      3177
      3168      3173      3176      3178      3168      3173      3176      3179
      3169      3168      3172      3170      3169      3168      3173      3174
      3169      3168      3173      3175      3169      3168      3173      3176
      3170      3172      3168      3173      3170      3179      3176      3173
      3170      3179      3176      3177      3170      3179      3176      3178
      3170      3179      3181      3182      3171      3170      3179      3176
      3171      3170      3179      3180      3171      3170      3179      3181
      3171      3170      3183      3184      3171      3170      3183      3185
      3171      3170      3183      3186      3172      3168      3173      3174
      3172      3168      3173      3175      3172      3168      3173      3176
      3172      3170      3179      3176      3172      3170      3179      3180
      3172      3170      3179      3181      3172      3170      3183      3184
      3172      3170      3183      3185      3172      3170      3183      3186
      3173      3175      3187      3188      3173      3175      3187      3191
      3173      3175      3187      3192      3173      3176      3178      3215
      3173      3176      3179      3180      3173      3176      3179      3181
      3174      3173      3175      3187      3174      3173      3176      3177
      3174      3173      3176      3178      3174      3173      3176      3179
      3175      3173      3176      3177      3175      3173      3176      3178
      3175      3173      3176      3179      3175      3187      3191      3189
      3175      3187      3192      3193      3175      3187      3192      3194
      3175      3187      3192      3202      3176      3173      3175      3187
      3176      3178      3215      3216      3176      3178      3215      3219
      3176      3178      3215      3220      3176      3179      3170      3183
      3176      3179      3181      3182      3177      3176      3178      3215
      3177      3176      3179      3180      3177      3176      3179      3181
      3178      3176      3179      3180      3178      3176      3179      3181
      3178      3215      3219      3217      3178      3215      3220      3221
      3178      3215      3220      3222      3178      3215      3220      3230
      3179      3170      3183      3184      3179      3170      3183      3185
      3179      3170      3183      3186      3179      3176      3178      3215
      3180      3179      3170      3183      3180      3179      3181      3182
      3181      3179      3170      3183      3187      3191      3189      3190
      3187      3191      3189      3206      3187      3191      3189      3210
      3187      3192      3194      3195      3187      3192      3194      3196
      3187      3192      3202      3203      3187      3192      3202      3204
      3187      3192      3202      3206      3188      3187      3191      3189
      3188      3187      3192      3193      3188      3187      3192      3194
      3188      3187      3192      3202      3189      3191      3187      3192
      3189      3206      3202      3192      3189      3206      3202      3203
      3189      3206      3202      3204      3189      3206      3208      3209
      3189      3210      3213      3214      3190      3189      3206      3202
      3190      3189      3206      3207      3190      3189      3206      3208
      3190      3189      3210      3211      3190      3189      3210      3212
      3190      3189      3210      3213      3191      3187      3192      3193
      3191      3187      3192      3194      3191      3187      3192      3202
      3191      3189      3206      3202      3191      3189      3206      3207
      3191      3189      3206      3208      3191      3189      3210      3211
      3191      3189      3210      3212      3191      3189      3210      3213
      3192      3194      3196      3197      3192      3194      3196      3198
      3192      3202      3204      3205      3192      3202      3206      3207
      3192      3202      3206      3208      3193      3192      3194      3195
      3193      3192      3194      3196      3193      3192      3202      3203
      3193      3192      3202      3204      3193      3192      3202      3206
      3194      3192      3202      3203      3194      3192      3202      3204
      3194      3192      3202      3206      3194      3196      3198      3199
      3194      3196      3198      3200      3194      3196      3198      3201
      3195      3194      3192      3202      3195      3194      3196      3197
      3195      3194      3196      3198      3196      3194      3192      3202
      3197      3196      3198      3199      3197      3196      3198      3200
      3197      3196      3198      3201      3202      3206      3189      3210
      3202      3206      3208      3209      3203      3202      3204      3205
      3203      3202      3206      3207      3203      3202      3206      3208
      3204      3202      3206      3207      3204      3202      3206      3208
      3205      3204      3202      3206      3206      3189      3210      3211
      3206      3189      3210      3212      3206      3189      3210      3213
      3207      3206      3189      3210      3207      3206      3208      3209
      3208      3206      3189      3210      3211      3210      3213      3214
      3212      3210      3213      3214      3215      3219      3217      3218
      3215      3219      3217      3233      3215      3219      3217      3237
      3215      3220      3222      3223      3215      3220      3222      3224
      3215      3220      3230      3231      3215      3220      3230      3232
      3215      3220      3230      3233      3216      3215      3219      3217
      3216      3215      3220      3221      3216      3215      3220      3222
      3216      3215      3220      3230      3217      3219      3215      3220
      3217      3233      3230      3220      3217      3233      3230      3231
      3217      3233      3230      3232      3217      3233      3235      3236
      3217      3237      3240      3241      3218      3217      3233      3230
      3218      3217      3233      3234      3218      3217      3233      3235
      3218      3217      3237      3238      3218      3217      3237      3239
      3218      3217      3237      3240      3219      3215      3220      3221
      3219      3215      3220      3222      3219      3215      3220      3230
      3219      3217      3233      3230      3219      3217      3233      3234
      3219      3217      3233      3235      3219      3217      3237      3238
      3219      3217      3237      3239      3219      3217      3237      3240
      3220      3222      3224      3225      3220      3222      3224      3226
      3220      3230      3232      3242      3220      3230      3233      3234
      3220      3230      3233      3235      3221      3220      3222      3223
      3221      3220      3222      3224      3221      3220      3230      3231
      3221      3220      3230      3232      3221      3220      3230      3233
      3222      3220      3230      3231      3222      3220      3230      3232
      3222      3220      3230      3233      3222      3224      3226      3227
      3222      3224      3226      3228      3222      3224      3226      3229
      3223      3222      3220      3230      3223      3222      3224      3225
      3223      3222      3224      3226      3224      3222      3220      3230
      3225      3224      3226      3227      3225      3224      3226      3228
      3225      3224      3226      3229      3230      3232      3242      3243
      3230      3232      3242      3246      3230      3232      3242      3247
      3230      3233      3217      3237      3230      3233      3235      3236
      3231      3230      3232      3242      3231      3230      3233      3234
      3231      3230      3233      3235      3232      3230      3233      3234
      3232      3230      3233      3235      3232      3242      3246      3244
      3232      3242      3247      3248      3232      3242      3247      3249
      3232      3242      3247      3250      3233      3217      3237      3238
      3233      3217      3237      3239      3233      3217      3237      3240
      3233      3230      3232      3242      3234      3233      3217      3237
      3234      3233      3235      3236      3235      3233      3217      3237
      3238      3237      3240      3241      3239      3237      3240      3241
      3242      3246      3244      3245      3242      3246      3244      3254
      3242      3246      3244      3258      3242      3247      3249      3263
      3242      3247      3250      3251      3242      3247      3250      3252
      3242      3247      3250      3254      3243      3242      3246      3244
      3243      3242      3247      3248      3243      3242      3247      3249
      3243      3242      3247      3250      3244      3246      3242      3247
      3244      3254      3250      3247      3244      3254      3250      3251
      3244      3254      3250      3252      3244      3254      3256      3257
      3244      3258      3261      3262      3245      3244      3254      3250
      3245      3244      3254      3255      3245      3244      3254      3256
      3245      3244      3258      3259      3245      3244      3258      3260
      3245      3244      3258      3261      3246      3242      3247      3248
      3246      3242      3247      3249      3246      3242      3247      3250
      3246      3244      3254      3250      3246      3244      3254      3255
      3246      3244      3254      3256      3246      3244      3258      3259
      3246      3244      3258      3260      3246      3244      3258      3261
      3247      3249      3263      3264      3247      3249      3263      3267
      3247      3249      3263      3268      3247      3250      3252      3253
      3247      3250      3254      3255      3247      3250      3254      3256
      3248      3247      3249      3263      3248      3247      3250      3251
      3248      3247      3250      3252      3248      3247      3250      3254
      3249      3247      3250      3251      3249      3247      3250      3252
      3249      3247      3250      3254      3249      3263      3267      3265
      3249      3263      3268      3269      3249      3263      3268      3270
      3249      3263      3268      3271      3250      3247      3249      3263
      3250      3254      3244      3258      3250      3254      3256      3257
      3251      3250      3252      3253      3251      3250      3254      3255
      3251      3250      3254      3256      3252      3250      3254      3255
      3252      3250      3254      3256      3253      3252      3250      3254
      3254      3244      3258      3259      3254      3244      3258      3260
      3254      3244      3258      3261      3255      3254      3244      3258
      3255      3254      3256      3257      3256      3254      3244      3258
      3259      3258      3261      3262      3260      3258      3261      3262
      3263      3267      3265      3266      3263      3267      3265      3275
      3263      3267      3265      3279      3263      3268      3270      3283
      3263      3268      3271      3272      3263      3268      3271      3273
      3263      3268      3271      3275      3264      3263      3267      3265
      3264      3263      3268      3269      3264      3263      3268      3270
      3264      3263      3268      3271      3265      3267      3263      3268
      3265      3275      3271      3268      3265      3275      3271      3272
      3265      3275      3271      3273      3265      3275      3277      3278
      3266      3265      3275      3271      3266      3265      3275      3276
      3266      3265      3275      3277      3266      3265      3279      3280
      3266      3265      3279      3281      3266      3265      3279      3282
      3267      3263      3268      3269      3267      3263      3268      3270
      3267      3263      3268      3271      3267      3265      3275      3271
      3267      3265      3275      3276      3267      3265      3275      3277
      3267      3265      3279      3280      3267      3265      3279      3281
      3267      3265      3279      3282      3268      3270      3283      3284
      3268      3270      3283      3287      3268      3270      3283      3288
      3268      3271      3273      3274      3268      3271      3275      3276
      3268      3271      3275      3277      3269      3268      3270      3283
      3269      3268      3271      3272      3269      3268      3271      3273
      3269      3268      3271      3275      3270      3268      3271      3272
      3270      3268      3271      3273      3270      3268      3271      3275
      3270      3283      3287      3285      3270      3283      3288      3289
      3270      3283      3288      3290      3270      3283      3288      3291
      3271      3268      3270      3283      3271      3275      3265      3279
      3271      3275      3277      3278      3272      3271      3273      3274
      3272      3271      3275      3276      3272      3271      3275      3277
      3273      3271      3275      3276      3273      3271      3275      3277
      3274      3273      3271      3275      3275      3265      3279      3280
      3275      3265      3279      3281      3275      3265      3279      3282
      3276      3275      3265      3279      3276      3275      3277      3278
      3277      3275      3265      3279      3283      3287      3285      3286
      3283      3287      3285      3295      3283      3287      3285      3299
      3283      3288      3290      3303      3283      3288      3291      3292
      3283      3288      3291      3293      3283      3288      3291      3295
      3284      3283      3287      3285      3284      3283      3288      3289
      3284      3283      3288      3290      3284      3283      3288      3291
      3285      3287      3283      3288      3285      3295      3291      3288
      3285      3295      3291      3292      3285      3295      3291      3293
      3285      3295      3297      3298      3286      3285      3295      3291
      3286      3285      3295      3296      3286      3285      3295      3297
      3286      3285      3299      3300      3286      3285      3299      3301
      3286      3285      3299      3302      3287      3283      3288      3289
      3287      3283      3288      3290      3287      3283      3288      3291
      3287      3285      3295      3291      3287      3285      3295      3296
      3287      3285      3295      3297      3287      3285      3299      3300
      3287      3285      3299      3301      3287      3285      3299      3302
      3288      3290      3303      3304      3288      3290      3303      3307
      3288      3290      3303      3308      3288      3291      3293      3294
      3288      3291      3295      3296      3288      3291      3295      3297
      3289      3288      3290      3303      3289      3288      3291      3292
      3289      3288      3291      3293      3289      3288      3291      3295
      3290      3288      3291      3292      3290      3288      3291      3293
      3290      3288      3291      3295      3290      3303      3307      3305
      3290      3303      3308      3309      3290      3303      3308      3310
      3290      3303      3308      3318      3291      3288      3290      3303
      3291      3295      3285      3299      3291      3295      3297      3298
      3292      3291      3293      3294      3292      3291      3295      3296
      3292      3291      3295      3297      3293      3291      3295      3296
      3293      3291      3295      3297      3294      3293      3291      3295
      3295      3285      3299      3300      3295      3285      3299      3301
      3295      3285      3299      3302      3296      3295      3285      3299
      3296      3295      3297      3298      3297      3295      3285      3299
      3303      3307      3305      3306      3303      3307      3305      3322
      3303      3307      3305      3326      3303      3308      3310      3311
      3303      3308      3310      3312      3303      3308      3318      3319
      3303      3308      3318      3320      3303      3308      3318      3322
      3304      3303      3307      3305      3304      3303      3308      3309
      3304      3303      3308      3310      3304      3303      3308      3318
      3305      3307      3303      3308      3305      3322      3318      3308
      3305      3322      3318      3319      3305      3322      3318      3320
      3305      3322      3324      3325      3305      3326      3329      3330
      3306      3305      3322      3318      3306      3305      3322      3323
      3306      3305      3322      3324      3306      3305      3326      3327
      3306      3305      3326      3328      3306      3305      3326      3329
      3307      3303      3308      3309      3307      3303      3308      3310
      3307      3303      3308      3318      3307      3305      3322      3318
      3307      3305      3322      3323      3307      3305      3322      3324
      3307      3305      3326      3327      3307      3305      3326      3328
      3307      3305      3326      3329      3308      3310      3312      3313
      3308      3310      3312      3314      3308      3318      3320      3321
      3308      3318      3322      3323      3308      3318      3322      3324
      3309      3308      3310      3311      3309      3308      3310      3312
      3309      3308      3318      3319      3309      3308      3318      3320
      3309      3308      3318      3322      3310      3308      3318      3319
      3310      3308      3318      3320      3310      3308      3318      3322
      3310      3312      3314      3315      3310      3312      3314      3316
      3310      3312      3314      3317      3311      3310      3308      3318
      3311      3310      3312      3313      3311      3310      3312      3314
      3312      3310      3308      3318      3313      3312      3314      3315
      3313      3312      3314      3316      3313      3312      3314      3317
      3318      3322      3305      3326      3318      3322      3324      3325
      3319      3318      3320      3321      3319      3318      3322      3323
      3319      3318      3322      3324      3320      3318      3322      3323
      3320      3318      3322      3324      3321      3320      3318      3322
      3322      3305      3326      3327      3322      3305      3326      3328
      3322      3305      3326      3329      3323      3322      3305      3326
      3323      3322      3324      3325      3324      3322      3305      3326
      3327      3326      3329      3330      3328      3326      3329      3330
      3331      3333      3332      3630      3331      3333      3335      3336
      3331      3333      3335      3337      3331      3333      3335      3344
      3332      3333      3335      3336      3332      3333      3335      3337
      3332      3333      3335      3344      3332      3630      3627      3628
      3332      3630      3627      3629      3332      3630      3633      3631
      3332      3630      3634      3635      3332      3630      3634      3636
      3332      3630      3634      3637      3333      3332      3630      3627
      3333      3332      3630      3633      3333      3332      3630      3634
      3333      3335      3336      3338      3333      3335      3344      3345
      3333      3335      3344      3346      3333      3335      3344      3351
      3334      3333      3332      3630      3334      3333      3335      3336
      3334      3333      3335      3337      3334      3333      3335      3344
      3335      3333      3332      3630      3335      3336      3338      3339
      3335      3336      3338      3340      3335      3336      3338      3359
      3335      3344      3346      3347      3335      3344      3351      3352
      3335      3344      3351      3353      3335      3344      3351      3359
      3336      3335      3344      3345      3336      3335      3344      3346
      3336      3335      3344      3351      3336      3338      3340      3341
      3336      3338      3359      3351      3336      3338      3359      3360
      3336      3338      3359      3361      3337      3335      3336      3338
      3337      3335      3344      3345      3337      3335      3344      3346
      3337      3335      3344      3351      3338      3336      3335      3344
      3338      3340      3341      3342      3338      3340      3341      3343
      3338      3340      3341      3367      3338      3359      3351      3344
      3338      3359      3351      3352      3338      3359      3351      3353
      3338      3359      3361      3362      3338      3359      3361      3468
      3339      3338      3340      3341      3339      3338      3359      3351
      3339      3338      3359      3360      3339      3338      3359      3361
      3340      3338      3359      3351      3340      3338      3359      3360
      3340      3338      3359      3361      3340      3341      3367      3363
      3340      3341      3367      3368      3340      3341      3367      3369
      3341      3340      3338      3359      3341      3367      3363      3364
      3341      3367      3363      3365      3341      3367      3363      3377
      3341      3367      3369      3370      3342      3341      3367      3363
      3342      3341      3367      3368      3342      3341      3367      3369
      3343      3341      3367      3363      3343      3341      3367      3368
      3343      3341      3367      3369      3344      3346      3347      3348
      3344      3346      3347      3349      3344      3346      3347      3350
      3344      3351      3352      3354      3344      3351      3359      3360
      3344      3351      3359      3361      3345      3344      3346      3347
      3345      3344      3351      3352      3345      3344      3351      3353
      3345      3344      3351      3359      3346      3344      3351      3352
      3346      3344      3351      3353      3346      3344      3351      3359
      3347      3346      3344      3351      3351      3352      3354      3355
      3351      3352      3354      3356      3351      3359      3361      3362
      3351      3359      3361      3468      3352      3351      3359      3360
      3352      3351      3359      3361      3352      3354      3356      3357
      3352      3354      3356      3358      3352      3354      3356      3389
      3353      3351      3352      3354      3353      3351      3359      3360
      3353      3351      3359      3361      3354      3352      3351      3359
      3354      3356      3389      3390      3354      3356      3389      3391
      3354      3356      3389      3434      3355      3354      3356      3357
      3355      3354      3356      3358      3355      3354      3356      3389
      3356      3389      3391      3392      3356      3389      3434      3435
      3356      3389      3434      3436      3356      3389      3434      3437
      3357      3356      3389      3390      3357      3356      3389      3391
      3357      3356      3389      3434      3358      3356      3389      3390
      3358      3356      3389      3391      3358      3356      3389      3434
      3359      3361      3468      3469      3359      3361      3468      3470
      3360      3359      3361      3362      3360      3359      3361      3468
      3361      3468      3470      3471      3361      3468      3470      3472
      3361      3468      3470      3473      3362      3361      3468      3469
      3362      3361      3468      3470      3363      3367      3369      3370
      3363      3377      3379      3380      3363      3377      3385      3370
      3363      3377      3385      3386      3363      3377      3385      3387
      3364      3363      3365      3366      3364      3363      3367      3368
      3364      3363      3367      3369      3364      3363      3377      3378
      3364      3363      3377      3379      3364      3363      3377      3385
      3365      3363      3367      3368      3365      3363      3367      3369
      3365      3363      3377      3378      3365      3363      3377      3379
      3365      3363      3377      3385      3366      3365      3363      3367
      3366      3365      3363      3377      3367      3363      3377      3378
      3367      3363      3377      3379      3367      3363      3377      3385
      3367      3369      3370      3371      3367      3369      3370      3372
      3367      3369      3370      3385      3368      3367      3363      3377
      3368      3367      3369      3370      3369      3367      3363      3377
      3369      3370      3372      3376      3369      3370      3385      3377
      3369      3370      3385      3386      3369      3370      3385      3387
      3370      3372      3376      3373      3370      3372      3376      3374
      3370      3372      3376      3375      3370      3385      3377      3378
      3370      3385      3377      3379      3370      3385      3387      3388
      3370      3385      3387      3584      3371      3370      3372      3376
      3371      3370      3385      3377      3371      3370      3385      3386
      3371      3370      3385      3387      3372      3370      3385      3377
      3372      3370      3385      3386      3372      3370      3385      3387
      3376      3372      3370      3385      3377      3379      3380      3381
      3377      3379      3380      3382      3377      3385      3387      3388
      3377      3385      3387      3584      3378      3377      3379      3380
      3378      3377      3385      3386      3378      3377      3385      3387
      3379      3377      3385      3386      3379      3377      3385      3387
      3379      3380      3382      3383      3379      3380      3382      3384
      3379      3380      3382      3546      3380      3379      3377      3385
      3380      3382      3546      3547      3380      3382      3546      3548
      3380      3382      3546      3550      3381      3380      3382      3383
      3381      3380      3382      3384      3381      3380      3382      3546
      3382      3546      3548      3549      3382      3546      3550      3551
      3382      3546      3550      3552      3382      3546      3550      3553
      3383      3382      3546      3547      3383      3382      3546      3548
      3383      3382      3546      3550      3384      3382      3546      3547
      3384      3382      3546      3548      3384      3382      3546      3550
      3385      3387      3584      3585      3385      3387      3584      3586
      3386      3385      3387      3388      3386      3385      3387      3584
      3387      3584      3586      3587      3387      3584      3586      3588
      3387      3584      3586      3589      3388      3387      3584      3585
      3388      3387      3584      3586      3389      3391      3392      3393
      3389      3391      3392      3394      3389      3434      3437      3438
      3389      3434      3437      3439      3389      3434      3437      3440
      3390      3389      3391      3392      3390      3389      3434      3435
      3390      3389      3434      3436      3390      3389      3434      3437
      3391      3389      3434      3435      3391      3389      3434      3436
      3391      3389      3434      3437      3391      3392      3394      3395
      3391      3392      3394      3396      3391      3392      3394      3397
      3392      3391      3389      3434      3392      3394      3397      3398
      3392      3394      3397      3399      3392      3394      3397      3400
      3393      3392      3394      3395      3393      3392      3394      3396
      3393      3392      3394      3397      3394      3397      3400      3401
      3394      3397      3400      3402      3394      3397      3400      3403
      3395      3394      3397      3398      3395      3394      3397      3399
      3395      3394      3397      3400      3396      3394      3397      3398
      3396      3394      3397      3399      3396      3394      3397      3400
      3397      3400      3403      3404      3397      3400      3403      3405
      3397      3400      3403      3406      3398      3397      3400      3401
      3398      3397      3400      3402      3398      3397      3400      3403
      3399      3397      3400      3401      3399      3397      3400      3402
      3399      3397      3400      3403      3400      3403      3406      3407
      3400      3403      3406      3408      3400      3403      3406      3409
      3401      3400      3403      3404      3401      3400      3403      3405
      3401      3400      3403      3406      3402      3400      3403      3404
      3402      3400      3403      3405      3402      3400      3403      3406
      3403      3406      3409      3410      3403      3406      3409      3411
      3403      3406      3409      3412      3404      3403      3406      3407
      3404      3403      3406      3408      3404      3403      3406      3409
      3405      3403      3406      3407      3405      3403      3406      3408
      3405      3403      3406      3409      3406      3409      3412      3413
      3406      3409      3412      3414      3406      3409      3412      3415
      3407      3406      3409      3410      3407      3406      3409      3411
      3407      3406      3409      3412      3408      3406      3409      3410
      3408      3406      3409      3411      3408      3406      3409      3412
      3409      3412      3415      3416      3409      3412      3415      3417
      3409      3412      3415      3418      3410      3409      3412      3413
      3410      3409      3412      3414      3410      3409      3412      3415
      3411      3409      3412      3413      3411      3409      3412      3414
      3411      3409      3412      3415      3412      3415      3418      3419
      3412      3415      3418      3420      3412      3415      3418      3421
      3413      3412      3415      3416      3413      3412      3415      3417
      3413      3412      3415      3418      3414      3412      3415      3416
      3414      3412      3415      3417      3414      3412      3415      3418
      3415      3418      3421      3422      3415      3418      3421      3423
      3415      3418      3421      3424      3416      3415      3418      3419
      3416      3415      3418      3420      3416      3415      3418      3421
      3417      3415      3418      3419      3417      3415      3418      3420
      3417      3415      3418      3421      3418      3421      3424      3425
      3418      3421      3424      3426      3418      3421      3424      3427
      3419      3418      3421      3422      3419      3418      3421      3423
      3419      3418      3421      3424      3420      3418      3421      3422
      3420      3418      3421      3423      3420      3418      3421      3424
      3421      3424      3427      3428      3421      3424      3427      3429
      3421      3424      3427      3430      3422      3421      3424      3425
      3422      3421      3424      3426      3422      3421      3424      3427
      3423      3421      3424      3425      3423      3421      3424      3426
      3423      3421      3424      3427      3424      3427      3430      3431
      3424      3427      3430      3432      3424      3427      3430      3433
      3425      3424      3427      3428      3425      3424      3427      3429
      3425      3424      3427      3430      3426      3424      3427      3428
      3426      3424      3427      3429      3426      3424      3427      3430
      3428      3427      3430      3431      3428      3427      3430      3432
      3428      3427      3430      3433      3429      3427      3430      3431
      3429      3427      3430      3432      3429      3427      3430      3433
      3434      3437      3440      3441      3434      3437      3440      3442
      3434      3437      3440      3443      3435      3434      3437      3438
      3435      3434      3437      3439      3435      3434      3437      3440
      3436      3434      3437      3438      3436      3434      3437      3439
      3436      3434      3437      3440      3437      3440      3443      3444
      3437      3440      3443      3445      3437      3440      3443      3446
      3438      3437      3440      3441      3438      3437      3440      3442
      3438      3437      3440      3443      3439      3437      3440      3441
      3439      3437      3440      3442      3439      3437      3440      3443
      3440      3443      3446      3447      3440      3443      3446      3448
      3440      3443      3446      3449      3441      3440      3443      3444
      3441      3440      3443      3445      3441      3440      3443      3446
      3442      3440      3443      3444      3442      3440      3443      3445
      3442      3440      3443      3446      3443      3446      3449      3450
      3443      3446      3449      3451      3443      3446      3449      3452
      3444      3443      3446      3447      3444      3443      3446      3448
      3444      3443      3446      3449      3445      3443      3446      3447
      3445      3443      3446      3448      3445      3443      3446      3449
      3446      3449      3452      3453      3446      3449      3452      3454
      3446      3449      3452      3455      3447      3446      3449      3450
      3447      3446      3449      3451      3447      3446      3449      3452
      3448      3446      3449      3450      3448      3446      3449      3451
      3448      3446      3449      3452      3449      3452      3455      3456
      3449      3452      3455      3457      3449      3452      3455      3458
      3450      3449      3452      3453      3450      3449      3452      3454
      3450      3449      3452      3455      3451      3449      3452      3453
      3451      3449      3452      3454      3451      3449      3452      3455
      3452      3455      3458      3459      3452      3455      3458      3460
      3452      3455      3458      3461      3453      3452      3455      3456
      3453      3452      3455      3457      3453      3452      3455      3458
      3454      3452      3455      3456      3454      3452      3455      3457
      3454      3452      3455      3458      3455      3458      3461      3462
      3455      3458      3461      3463      3455      3458      3461      3464
      3456      3455      3458      3459      3456      3455      3458      3460
      3456      3455      3458      3461      3457      3455      3458      3459
      3457      3455      3458      3460      3457      3455      3458      3461
      3458      3461      3464      3465      3458      3461      3464      3466
      3458      3461      3464      3467      3459      3458      3461      3462
      3459      3458      3461      3463      3459      3458      3461      3464
      3460      3458      3461      3462      3460      3458      3461      3463
      3460      3458      3461      3464      3462      3461      3464      3465
      3462      3461      3464      3466      3462      3461      3464      3467
      3463      3461      3464      3465      3463      3461      3464      3466
      3463      3461      3464      3467      3468      3470      3473      3474
      3468      3470      3473      3475      3468      3470      3473      3512
      3469      3468      3470      3471      3469      3468      3470      3472
      3469      3468      3470      3473      3470      3473      3475      3476
      3470      3473      3512      3513      3470      3473      3512      3514
      3470      3473      3512      3515      3471      3470      3473      3474
      3471      3470      3473      3475      3471      3470      3473      3512
      3472      3470      3473      3474      3472      3470      3473      3475
      3472      3470      3473      3512      3473      3475      3476      3477
      3473      3475      3476      3478      3473      3512      3515      3516
      3473      3512      3515      3517      3473      3512      3515      3518
      3474      3473      3475      3476      3474      3473      3512      3513
      3474      3473      3512      3514      3474      3473      3512      3515
      3475      3473      3512      3513      3475      3473      3512      3514
      3475      3473      3512      3515      3475      3476      3478      3479
      3475      3476      3478      3480      3475      3476      3478      3481
      3476      3475      3473      3512      3476      3478      3481      3482
      3476      3478      3481      3483      3476      3478      3481      3484
      3477      3476      3478      3479      3477      3476      3478      3480
      3477      3476      3478      3481      3478      3481      3484      3485
      3478      3481      3484      3486      3478      3481      3484      3487
      3479      3478      3481      3482      3479      3478      3481      3483
      3479      3478      3481      3484      3480      3478      3481      3482
      3480      3478      3481      3483      3480      3478      3481      3484
      3481      3484      3487      3488      3481      3484      3487      3489
      3481      3484      3487      3490      3482      3481      3484      3485
      3482      3481      3484      3486      3482      3481      3484      3487
      3483      3481      3484      3485      3483      3481      3484      3486
      3483      3481      3484      3487      3484      3487      3490      3491
      3484      3487      3490      3492      3484      3487      3490      3493
      3485      3484      3487      3488      3485      3484      3487      3489
      3485      3484      3487      3490      3486      3484      3487      3488
      3486      3484      3487      3489      3486      3484      3487      3490
      3487      3490      3493      3494      3487      3490      3493      3495
      3487      3490      3493      3496      3488      3487      3490      3491
      3488      3487      3490      3492      3488      3487      3490      3493
      3489      3487      3490      3491      3489      3487      3490      3492
      3489      3487      3490      3493      3490      3493      3496      3497
      3490      3493      3496      3498      3490      3493      3496      3499
      3491      3490      3493      3494      3491      3490      3493      3495
      3491      3490      3493      3496      3492      3490      3493      3494
      3492      3490      3493      3495      3492      3490      3493      3496
      3493      3496      3499      3500      3493      3496      3499      3501
      3493      3496      3499      3502      3494      3493      3496      3497
      3494      3493      3496      3498      3494      3493      3496      3499
      3495      3493      3496      3497      3495      3493      3496      3498
      3495      3493      3496      3499      3496      3499      3502      3503
      3496      3499      3502      3504      3496      3499      3502      3505
      3497      3496      3499      3500      3497      3496      3499      3501
      3497      3496      3499      3502      3498      3496      3499      3500
      3498      3496      3499      3501      3498      3496      3499      3502
      3499      3502      3505      3506      3499      3502      3505      3507
      3499      3502      3505      3508      3500      3499      3502      3503
      3500      3499      3502      3504      3500      3499      3502      3505
      3501      3499      3502      3503      3501      3499      3502      3504
      3501      3499      3502      3505      3502      3505      3508      3509
      3502      3505      3508      3510      3502      3505      3508      3511
      3503      3502      3505      3506      3503      3502      3505      3507
      3503      3502      3505      3508      3504      3502      3505      3506
      3504      3502      3505      3507      3504      3502      3505      3508
      3506      3505      3508      3509      3506      3505      3508      3510
      3506      3505      3508      3511      3507      3505      3508      3509
      3507      3505      3508      3510      3507      3505      3508      3511
      3512      3515      3518      3519      3512      3515      3518      3520
      3512      3515      3518      3521      3513      3512      3515      3516
      3513      3512      3515      3517      3513      3512      3515      3518
      3514      3512      3515      3516      3514      3512      3515      3517
      3514      3512      3515      3518      3515      3518      3521      3522
      3515      3518      3521      3523      3515      3518      3521      3524
      3516      3515      3518      3519      3516      3515      3518      3520
      3516      3515      3518      3521      3517      3515      3518      3519
      3517      3515      3518      3520      3517      3515      3518      3521
      3518      3521      3524      3525      3518      3521      3524      3526
      3518      3521      3524      3527      3519      3518      3521      3522
      3519      3518      3521      3523      3519      3518      3521      3524
      3520      3518      3521      3522      3520      3518      3521      3523
      3520      3518      3521      3524      3521      3524      3527      3528
      3521      3524      3527      3529      3521      3524      3527      3530
      3522      3521      3524      3525      3522      3521      3524      3526
      3522      3521      3524      3527      3523      3521      3524      3525
      3523      3521      3524      3526      3523      3521      3524      3527
      3524      3527      3530      3531      3524      3527      3530      3532
      3524      3527      3530      3533      3525      3524      3527      3528
      3525      3524      3527      3529      3525      3524      3527      3530
      3526      3524      3527      3528      3526      3524      3527      3529
      3526      3524      3527      3530      3527      3530      3533      3534
      3527      3530      3533      3535      3527      3530      3533      3536
      3528      3527      3530      3531      3528      3527      3530      3532
      3528      3527      3530      3533      3529      3527      3530      3531
      3529      3527      3530      3532      3529      3527      3530      3533
      3530      3533      3536      3537      3530      3533      3536      3538
      3530      3533      3536      3539      3531      3530      3533      3534
      3531      3530      3533      3535      3531      3530      3533      3536
      3532      3530      3533      3534      3532      3530      3533      3535
      3532      3530      3533      3536      3533      3536      3539      3540
      3533      3536      3539      3541      3533      3536      3539      3542
      3534      3533      3536      3537      3534      3533      3536      3538
      3534      3533      3536      3539      3535      3533      3536      3537
      3535      3533      3536      3538      3535      3533      3536      3539
      3536      3539      3542      3543      3536      3539      3542      3544
      3536      3539      3542      3545      3537      3536      3539      3540
      3537      3536      3539      3541      3537      3536      3539      3542
      3538      3536      3539      3540      3538      3536      3539      3541
      3538      3536      3539      3542      3540      3539      3542      3543
      3540      3539      3542      3544      3540      3539      3542      3545
      3541      3539      3542      3543      3541      3539      3542      3544
      3541      3539      3542      3545      3546      3550      3553      3554
      3546      3550      3553      3555      3546      3550      3553      3556
      3547      3546      3548      3549      3547      3546      3550      3551
      3547      3546      3550      3552      3547      3546      3550      3553
      3548      3546      3550      3551      3548      3546      3550      3552
      3548      3546      3550      3553      3549      3548      3546      3550
      3550      3553      3556      3557      3550      3553      3556      3558
      3550      3553      3556      3559      3551      3550      3553      3554
      3551      3550      3553      3555      3551      3550      3553      3556
      3552      3550      3553      3554      3552      3550      3553      3555
      3552      3550      3553      3556      3553      3556      3559      3560
      3553      3556      3559      3561      3553      3556      3559      3562
      3554      3553      3556      3557      3554      3553      3556      3558
      3554      3553      3556      3559      3555      3553      3556      3557
      3555      3553      3556      3558      3555      3553      3556      3559
      3556      3559      3562      3563      3556      3559      3562      3564
      3556      3559      3562      3565      3557      3556      3559      3560
      3557      3556      3559      3561      3557      3556      3559      3562
      3558      3556      3559      3560      3558      3556      3559      3561
      3558      3556      3559      3562      3559      3562      3565      3566
      3559      3562      3565      3567      3559      3562      3565      3568
      3560      3559      3562      3563      3560      3559      3562      3564
      3560      3559      3562      3565      3561      3559      3562      3563
      3561      3559      3562      3564      3561      3559      3562      3565
      3562      3565      3568      3569      3562      3565      3568      3570
      3562      3565      3568      3571      3563      3562      3565      3566
      3563      3562      3565      3567      3563      3562      3565      3568
      3564      3562      3565      3566      3564      3562      3565      3567
      3564      3562      3565      3568      3565      3568      3571      3572
      3565      3568      3571      3573      3565      3568      3571      3574
      3566      3565      3568      3569      3566      3565      3568      3570
      3566      3565      3568      3571      3567      3565      3568      3569
      3567      3565      3568      3570      3567      3565      3568      3571
      3568      3571      3574      3575      3568      3571      3574      3576
      3568      3571      3574      3577      3569      3568      3571      3572
      3569      3568      3571      3573      3569      3568      3571      3574
      3570      3568      3571      3572      3570      3568      3571      3573
      3570      3568      3571      3574      3571      3574      3577      3578
      3571      3574      3577      3579      3571      3574      3577      3580
      3572      3571      3574      3575      3572      3571      3574      3576
      3572      3571      3574      3577      3573      3571      3574      3575
      3573      3571      3574      3576      3573      3571      3574      3577
      3574      3577      3580      3581      3574      3577      3580      3582
      3574      3577      3580      3583      3575      3574      3577      3578
      3575      3574      3577      3579      3575      3574      3577      3580
      3576      3574      3577      3578      3576      3574      3577      3579
      3576      3574      3577      3580      3578      3577      3580      3581
      3578      3577      3580      3582      3578      3577      3580      3583
      3579      3577      3580      3581      3579      3577      3580      3582
      3579      3577      3580      3583      3584      3586      3589      3590
      3584      3586      3589      3591      3584      3586      3589      3593
      3585      3584      3586      3587      3585      3584      3586      3588
      3585      3584      3586      3589      3586      3589      3591      3592
      3586      3589      3593      3594      3586      3589      3593      3595
      3586      3589      3593      3596      3587      3586      3589      3590
      3587      3586      3589      3591      3587      3586      3589      3593
      3588      3586      3589      3590      3588      3586      3589      3591
      3588      3586      3589      3593      3589      3593      3596      3597
      3589      3593      3596      3598      3589      3593      3596      3599
      3590      3589      3591      3592      3590      3589      3593      3594
      3590      3589      3593      3595      3590      3589      3593      3596
      3591      3589      3593      3594      3591      3589      3593      3595
      3591      3589      3593      3596      3592      3591      3589      3593
      3593      3596      3599      3600      3593      3596      3599      3601
      3593      3596      3599      3602      3594      3593      3596      3597
      3594      3593      3596      3598      3594      3593      3596      3599
      3595      3593      3596      3597      3595      3593      3596      3598
      3595      3593      3596      3599      3596      3599      3602      3603
      3596      3599      3602      3604      3596      3599      3602      3605
      3597      3596      3599      3600      3597      3596      3599      3601
      3597      3596      3599      3602      3598      3596      3599      3600
      3598      3596      3599      3601      3598      3596      3599      3602
      3599      3602      3605      3606      3599      3602      3605      3607
      3599      3602      3605      3608      3600      3599      3602      3603
      3600      3599      3602      3604      3600      3599      3602      3605
      3601      3599      3602      3603      3601      3599      3602      3604
      3601      3599      3602      3605      3602      3605      3608      3609
      3602      3605      3608      3610      3602      3605      3608      3611
      3603      3602      3605      3606      3603      3602      3605      3607
      3603      3602      3605      3608      3604      3602      3605      3606
      3604      3602      3605      3607      3604      3602      3605      3608
      3605      3608      3611      3612      3605      3608      3611      3613
      3605      3608      3611      3614      3606      3605      3608      3609
      3606      3605      3608      3610      3606      3605      3608      3611
      3607      3605      3608      3609      3607      3605      3608      3610
      3607      3605      3608      3611      3608      3611      3614      3615
      3608      3611      3614      3616      3608      3611      3614      3617
      3609      3608      3611      3612      3609      3608      3611      3613
      3609      3608      3611      3614      3610      3608      3611      3612
      3610      3608      3611      3613      3610      3608      3611      3614
      3611      3614      3617      3618      3611      3614      3617      3619
      3611      3614      3617      3620      3612      3611      3614      3615
      3612      3611      3614      3616      3612      3611      3614      3617
      3613      3611      3614      3615      3613      3611      3614      3616
      3613      3611      3614      3617      3614      3617      3620      3621
      3614      3617      3620      3622      3614      3617      3620      3623
      3615      3614      3617      3618      3615      3614      3617      3619
      3615      3614      3617      3620      3616      3614      3617      3618
      3616      3614      3617      3619      3616      3614      3617      3620
      3617      3620      3623      3624      3617      3620      3623      3625
      3617      3620      3623      3626      3618      3617      3620      3621
      3618      3617      3620      3622      3618      3617      3620      3623
      3619      3617      3620      3621      3619      3617      3620      3622
      3619      3617      3620      3623      3621      3620      3623      3624
      3621      3620      3623      3625      3621      3620      3623      3626
      3622      3620      3623      3624      3622      3620      3623      3625
      3622      3620      3623      3626      3627      3630      3633      3631
      3627      3630      3634      3635      3627      3630      3634      3636
      3627      3630      3634      3637      3628      3627      3630      3633
      3628      3627      3630      3634      3629      3627      3630      3633
      3629      3627      3630      3634      3630      3633      3631      3632
      3630      3633      3631      3640      3630      3633      3631      3643
      3630      3634      3637      3638      3630      3634      3637      3639
      3630      3634      3637      3640      3631      3633      3630      3634
      3631      3640      3637      3634      3631      3640      3637      3638
      3631      3640      3637      3639      3631      3640      3642      3679
      3631      3643      3645      3646      3631      3643      3647      3648
      3631      3643      3647      3649      3631      3643      3647      3650
      3632      3631      3640      3637      3632      3631      3640      3641
      3632      3631      3640      3642      3632      3631      3643      3644
      3632      3631      3643      3645      3632      3631      3643      3647
      3633      3630      3634      3635      3633      3630      3634      3636
      3633      3630      3634      3637      3633      3631      3640      3637
      3633      3631      3640      3641      3633      3631      3640      3642
      3633      3631      3643      3644      3633      3631      3643      3645
      3633      3631      3643      3647      3634      3637      3639      3655
      3634      3637      3640      3641      3634      3637      3640      3642
      3635      3634      3637      3638      3635      3634      3637      3639
      3635      3634      3637      3640      3636      3634      3637      3638
      3636      3634      3637      3639      3636      3634      3637      3640
      3637      3639      3655      3652      3637      3639      3655      3658
      3637      3639      3655      3659      3637      3640      3631      3643
      3637      3640      3642      3679      3638      3637      3639      3655
      3638      3637      3640      3641      3638      3637      3640      3642
      3639      3637      3640      3641      3639      3637      3640      3642
      3639      3655      3652      3653      3639      3655      3652      3654
      3639      3655      3658      3656      3639      3655      3659      3660
      3639      3655      3659      3661      3639      3655      3659      3662
      3640      3631      3643      3644      3640      3631      3643      3645
      3640      3631      3643      3647      3640      3637      3639      3655
      3640      3642      3679      3680      3640      3642      3679      3683
      3640      3642      3679      3684      3641      3640      3631      3643
      3641      3640      3642      3679      3642      3640      3631      3643
      3642      3679      3683      3681      3642      3679      3684      3685
      3642      3679      3684      3686      3642      3679      3684      3688
      3643      3647      3650      3651      3644      3643      3645      3646
      3644      3643      3647      3648      3644      3643      3647      3649
      3644      3643      3647      3650      3645      3643      3647      3648
      3645      3643      3647      3649      3645      3643      3647      3650
      3646      3645      3643      3647      3648      3647      3650      3651
      3649      3647      3650      3651      3652      3655      3658      3656
      3652      3655      3659      3660      3652      3655      3659      3661
      3652      3655      3659      3662      3653      3652      3655      3658
      3653      3652      3655      3659      3654      3652      3655      3658
      3654      3652      3655      3659      3655      3658      3656      3657
      3655      3658      3656      3666      3655      3658      3656      3670
      3655      3659      3662      3663      3655      3659      3662      3664
      3655      3659      3662      3666      3656      3658      3655      3659
      3656      3666      3662      3659      3656      3666      3662      3663
      3656      3666      3662      3664      3656      3666      3668      3669
      3656      3670      3672      3673      3656      3670      3674      3675
      3656      3670      3674      3676      3656      3670      3674      3677
      3657      3656      3666      3662      3657      3656      3666      3667
      3657      3656      3666      3668      3657      3656      3670      3671
      3657      3656      3670      3672      3657      3656      3670      3674
      3658      3655      3659      3660      3658      3655      3659      3661
      3658      3655      3659      3662      3658      3656      3666      3662
      3658      3656      3666      3667      3658      3656      3666      3668
      3658      3656      3670      3671      3658      3656      3670      3672
      3658      3656      3670      3674      3659      3662      3664      3665
      3659      3662      3666      3667      3659      3662      3666      3668
      3660      3659      3662      3663      3660      3659      3662      3664
      3660      3659      3662      3666      3661      3659      3662      3663
      3661      3659      3662      3664      3661      3659      3662      3666
      3662      3666      3656      3670      3662      3666      3668      3669
      3663      3662      3664      3665      3663      3662      3666      3667
      3663      3662      3666      3668      3664      3662      3666      3667
      3664      3662      3666      3668      3665      3664      3662      3666
      3666      3656      3670      3671      3666      3656      3670      3672
      3666      3656      3670      3674      3667      3666      3656      3670
      3667      3666      3668      3669      3668      3666      3656      3670
      3670      3674      3677      3678      3671      3670      3672      3673
      3671      3670      3674      3675      3671      3670      3674      3676
      3671      3670      3674      3677      3672      3670      3674      3675
      3672      3670      3674      3676      3672      3670      3674      3677
      3673      3672      3670      3674      3675      3674      3677      3678
      3676      3674      3677      3678      3679      3683      3681      3682
      3679      3683      3681      3691      3679      3683      3681      3698
      3679      3684      3686      3687      3679      3684      3688      3689
      3679      3684      3688      3690      3679      3684      3688      3691
      3680      3679      3683      3681      3680      3679      3684      3685
      3680      3679      3684      3686      3680      3679      3684      3688
      3681      3683      3679      3684      3681      3691      3688      3684
      3681      3691      3688      3689      3681      3691      3688      3690
      3681      3691      3693      3694      3681      3698      3700      3701
      3681      3698      3702      3703      3681      3698      3702      3704
      3681      3698      3702      3705      3682      3681      3691      3688
      3682      3681      3691      3692      3682      3681      3691      3693
      3682      3681      3698      3699      3682      3681      3698      3700
      3682      3681      3698      3702      3683      3679      3684      3685
      3683      3679      3684      3686      3683      3679      3684      3688
      3683      3681      3691      3688      3683      3681      3691      3692
      3683      3681      3691      3693      3683      3681      3698      3699
      3683      3681      3698      3700      3683      3681      3698      3702
      3684      3688      3690      3707      3684      3688      3691      3692
      3684      3688      3691      3693      3685      3684      3686      3687
      3685      3684      3688      3689      3685      3684      3688      3690
      3685      3684      3688      3691      3686      3684      3688      3689
      3686      3684      3688      3690      3686      3684      3688      3691
      3687      3686      3684      3688      3688      3690      3707      3708
      3688      3690      3707      3711      3688      3690      3707      3712
      3688      3691      3681      3698      3688      3691      3693      3694
      3689      3688      3690      3707      3689      3688      3691      3692
      3689      3688      3691      3693      3690      3688      3691      3692
      3690      3688      3691      3693      3690      3707      3711      3709
      3690      3707      3712      3713      3690      3707      3712      3714
      3690      3707      3712      3716      3691      3681      3698      3699
      3691      3681      3698      3700      3691      3681      3698      3702
      3691      3688      3690      3707      3691      3693      3694      3695
      3691      3693      3694      3696      3691      3693      3694      3697
      3692      3691      3681      3698      3692      3691      3693      3694
      3693      3691      3681      3698      3698      3702      3705      3706
      3699      3698      3700      3701      3699      3698      3702      3703
      3699      3698      3702      3704      3699      3698      3702      3705
      3700      3698      3702      3703      3700      3698      3702      3704
      3700      3698      3702      3705      3701      3700      3698      3702
      3703      3702      3705      3706      3704      3702      3705      3706
      3707      3711      3709      3710      3707      3711      3709      3719
      3707      3711      3709      3726      3707      3712      3714      3715
      3707      3712      3716      3717      3707      3712      3716      3718
      3707      3712      3716      3719      3708      3707      3711      3709
      3708      3707      3712      3713      3708      3707      3712      3714
      3708      3707      3712      3716      3709      3711      3707      3712
      3709      3719      3716      3712      3709      3719      3716      3717
      3709      3719      3716      3718      3709      3719      3721      3722
      3709      3726      3728      3729      3709      3726      3730      3731
      3709      3726      3730      3732      3709      3726      3730      3733
      3710      3709      3719      3716      3710      3709      3719      3720
      3710      3709      3719      3721      3710      3709      3726      3727
      3710      3709      3726      3728      3710      3709      3726      3730
      3711      3707      3712      3713      3711      3707      3712      3714
      3711      3707      3712      3716      3711      3709      3719      3716
      3711      3709      3719      3720      3711      3709      3719      3721
      3711      3709      3726      3727      3711      3709      3726      3728
      3711      3709      3726      3730      3712      3716      3718      3760
      3712      3716      3719      3720      3712      3716      3719      3721
      3713      3712      3714      3715      3713      3712      3716      3717
      3713      3712      3716      3718      3713      3712      3716      3719
      3714      3712      3716      3717      3714      3712      3716      3718
      3714      3712      3716      3719      3715      3714      3712      3716
      3716      3718      3760      3761      3716      3718      3760      3764
      3716      3718      3760      3765      3716      3719      3709      3726
      3716      3719      3721      3722      3717      3716      3718      3760
      3717      3716      3719      3720      3717      3716      3719      3721
      3718      3716      3719      3720      3718      3716      3719      3721
      3718      3760      3764      3762      3718      3760      3765      3766
      3718      3760      3765      3767      3718      3760      3765      3769
      3719      3709      3726      3727      3719      3709      3726      3728
      3719      3709      3726      3730      3719      3716      3718      3760
      3719      3721      3722      3723      3719      3721      3722      3724
      3719      3721      3722      3725      3720      3719      3709      3726
      3720      3719      3721      3722      3721      3719      3709      3726
      3726      3730      3733      3734      3727      3726      3728      3729
      3727      3726      3730      3731      3727      3726      3730      3732
      3727      3726      3730      3733      3728      3726      3730      3731
      3728      3726      3730      3732      3728      3726      3730      3733
      3729      3728      3726      3730      3730      3733      3734      3735
      3730      3733      3734      3738      3730      3733      3734      3739
      3731      3730      3733      3734      3732      3730      3733      3734
      3733      3734      3738      3736      3733      3734      3739      3740
      3733      3734      3739      3741      3733      3734      3739      3743
      3734      3738      3736      3737      3734      3738      3736      3747
      3734      3738      3736      3751      3734      3739      3741      3742
      3734      3739      3743      3744      3734      3739      3743      3745
      3734      3739      3743      3747      3735      3734      3738      3736
      3735      3734      3739      3740      3735      3734      3739      3741
      3735      3734      3739      3743      3736      3738      3734      3739
      3736      3747      3743      3739      3736      3747      3743      3744
      3736      3747      3743      3745      3736      3747      3749      3750
      3736      3751      3753      3754      3736      3751      3755      3756
      3736      3751      3755      3757      3736      3751      3755      3758
      3737      3736      3747      3743      3737      3736      3747      3748
      3737      3736      3747      3749      3737      3736      3751      3752
      3737      3736      3751      3753      3737      3736      3751      3755
      3738      3734      3739      3740      3738      3734      3739      3741
      3738      3734      3739      3743      3738      3736      3747      3743
      3738      3736      3747      3748      3738      3736      3747      3749
      3738      3736      3751      3752      3738      3736      3751      3753
      3738      3736      3751      3755      3739      3743      3745      3746
      3739      3743      3747      3748      3739      3743      3747      3749
      3740      3739      3741      3742      3740      3739      3743      3744
      3740      3739      3743      3745      3740      3739      3743      3747
      3741      3739      3743      3744      3741      3739      3743      3745
      3741      3739      3743      3747      3742      3741      3739      3743
      3743      3747      3736      3751      3743      3747      3749      3750
      3744      3743      3745      3746      3744      3743      3747      3748
      3744      3743      3747      3749      3745      3743      3747      3748
      3745      3743      3747      3749      3746      3745      3743      3747
      3747      3736      3751      3752      3747      3736      3751      3753
      3747      3736      3751      3755      3748      3747      3736      3751
      3748      3747      3749      3750      3749      3747      3736      3751
      3751      3755      3758      3759      3752      3751      3753      3754
      3752      3751      3755      3756      3752      3751      3755      3757
      3752      3751      3755      3758      3753      3751      3755      3756
      3753      3751      3755      3757      3753      3751      3755      3758
      3754      3753      3751      3755      3756      3755      3758      3759
      3757      3755      3758      3759      3760      3764      3762      3763
      3760      3764      3762      3772      3760      3764      3762      3776
      3760      3765      3767      3768      3760      3765      3769      3770
      3760      3765      3769      3771      3760      3765      3769      3772
      3761      3760      3764      3762      3761      3760      3765      3766
      3761      3760      3765      3767      3761      3760      3765      3769
      3762      3764      3760      3765      3762      3772      3769      3765
      3762      3772      3769      3770      3762      3772      3769      3771
      3762      3772      3774      3775      3762      3776      3779      3780
      3763      3762      3772      3769      3763      3762      3772      3773
      3763      3762      3772      3774      3763      3762      3776      3777
      3763      3762      3776      3778      3763      3762      3776      3779
      3764      3760      3765      3766      3764      3760      3765      3767
      3764      3760      3765      3769      3764      3762      3772      3769
      3764      3762      3772      3773      3764      3762      3772      3774
      3764      3762      3776      3777      3764      3762      3776      3778
      3764      3762      3776      3779      3765      3769      3771      3781
      3765      3769      3772      3773      3765      3769      3772      3774
      3766      3765      3767      3768      3766      3765      3769      3770
      3766      3765      3769      3771      3766      3765      3769      3772
      3767      3765      3769      3770      3767      3765      3769      3771
      3767      3765      3769      3772      3768      3767      3765      3769
      3769      3771      3781      3782      3769      3771      3781      3785
      3769      3771      3781      3786      3769      3772      3762      3776
      3769      3772      3774      3775      3770      3769      3771      3781
      3770      3769      3772      3773      3770      3769      3772      3774
      3771      3769      3772      3773      3771      3769      3772      3774
      3771      3781      3785      3783      3771      3781      3786      3787
      3771      3781      3786      3788      3771      3781      3786      3789
      3772      3762      3776      3777      3772      3762      3776      3778
      3772      3762      3776      3779      3772      3769      3771      3781
      3773      3772      3762      3776      3773      3772      3774      3775
      3774      3772      3762      3776      3777      3776      3779      3780
      3778      3776      3779      3780      3781      3785      3783      3784
      3781      3785      3783      3792      3781      3785      3783      3796
      3781      3786      3788      3801      3781      3786      3789      3790
      3781      3786      3789      3791      3781      3786      3789      3792
      3782      3781      3785      3783      3782      3781      3786      3787
      3782      3781      3786      3788      3782      3781      3786      3789
      3783      3785      3781      3786      3783      3792      3789      3786
      3783      3792      3789      3790      3783      3792      3789      3791
      3783      3792      3794      3795      3783      3796      3799      3800
      3784      3783      3792      3789      3784      3783      3792      3793
      3784      3783      3792      3794      3784      3783      3796      3797
      3784      3783      3796      3798      3784      3783      3796      3799
      3785      3781      3786      3787      3785      3781      3786      3788
      3785      3781      3786      3789      3785      3783      3792      3789
      3785      3783      3792      3793      3785      3783      3792      3794
      3785      3783      3796      3797      3785      3783      3796      3798
      3785      3783      3796      3799      3786      3788      3801      3802
      3786      3788      3801      3805      3786      3788      3801      3806
      3786      3789      3791      3844      3786      3789      3792      3793
      3786      3789      3792      3794      3787      3786      3788      3801
      3787      3786      3789      3790      3787      3786      3789      3791
      3787      3786      3789      3792      3788      3786      3789      3790
      3788      3786      3789      3791      3788      3786      3789      3792
      3788      3801      3805      3803      3788      3801      3806      3807
      3788      3801      3806      3808      3788      3801      3806      3809
      3789      3786      3788      3801      3789      3791      3844      3845
      3789      3791      3844      3848      3789      3791      3844      3849
      3789      3792      3783      3796      3789      3792      3794      3795
      3790      3789      3791      3844      3790      3789      3792      3793
      3790      3789      3792      3794      3791      3789      3792      3793
      3791      3789      3792      3794      3791      3844      3848      3846
      3791      3844      3849      3850      3791      3844      3849      3851
      3791      3844      3849      3853      3792      3783      3796      3797
      3792      3783      3796      3798      3792      3783      3796      3799
      3792      3789      3791      3844      3793      3792      3783      3796
      3793      3792      3794      3795      3794      3792      3783      3796
      3797      3796      3799      3800      3798      3796      3799      3800
      3801      3805      3803      3804      3801      3805      3803      3813
      3801      3805      3803      3817      3801      3806      3808      3822
      3801      3806      3809      3810      3801      3806      3809      3811
      3801      3806      3809      3813      3802      3801      3805      3803
      3802      3801      3806      3807      3802      3801      3806      3808
      3802      3801      3806      3809      3803      3805      3801      3806
      3803      3813      3809      3806      3803      3813      3809      3810
      3803      3813      3809      3811      3803      3813      3815      3816
      3803      3817      3820      3821      3804      3803      3813      3809
      3804      3803      3813      3814      3804      3803      3813      3815
      3804      3803      3817      3818      3804      3803      3817      3819
      3804      3803      3817      3820      3805      3801      3806      3807
      3805      3801      3806      3808      3805      3801      3806      3809
      3805      3803      3813      3809      3805      3803      3813      3814
      3805      3803      3813      3815      3805      3803      3817      3818
      3805      3803      3817      3819      3805      3803      3817      3820
      3806      3808      3822      3823      3806      3808      3822      3826
      3806      3808      3822      3827      3806      3809      3811      3812
      3806      3809      3813      3814      3806      3809      3813      3815
      3807      3806      3808      3822      3807      3806      3809      3810
      3807      3806      3809      3811      3807      3806      3809      3813
      3808      3806      3809      3810      3808      3806      3809      3811
      3808      3806      3809      3813      3808      3822      3826      3824
      3808      3822      3827      3828      3808      3822      3827      3829
      3808      3822      3827      3831      3809      3806      3808      3822
      3809      3813      3803      3817      3809      3813      3815      3816
      3810      3809      3811      3812      3810      3809      3813      3814
      3810      3809      3813      3815      3811      3809      3813      3814
      3811      3809      3813      3815      3812      3811      3809      3813
      3813      3803      3817      3818      3813      3803      3817      3819
      3813      3803      3817      3820      3814      3813      3803      3817
      3814      3813      3815      3816      3815      3813      3803      3817
      3818      3817      3820      3821      3819      3817      3820      3821
      3822      3826      3824      3825      3822      3826      3824      3835
      3822      3826      3824      3839      3822      3827      3829      3830
      3822      3827      3831      3832      3822      3827      3831      3833
      3822      3827      3831      3835      3823      3822      3826      3824
      3823      3822      3827      3828      3823      3822      3827      3829
      3823      3822      3827      3831      3824      3826      3822      3827
      3824      3835      3831      3827      3824      3835      3831      3832
      3824      3835      3831      3833      3824      3835      3837      3838
      3824      3839      3842      3843      3825      3824      3835      3831
      3825      3824      3835      3836      3825      3824      3835      3837
      3825      3824      3839      3840      3825      3824      3839      3841
      3825      3824      3839      3842      3826      3822      3827      3828
      3826      3822      3827      3829      3826      3822      3827      3831
      3826      3824      3835      3831      3826      3824      3835      3836
      3826      3824      3835      3837      3826      3824      3839      3840
      3826      3824      3839      3841      3826      3824      3839      3842
      3827      3831      3833      3834      3827      3831      3835      3836
      3827      3831      3835      3837      3828      3827      3829      3830
      3828      3827      3831      3832      3828      3827      3831      3833
      3828      3827      3831      3835      3829      3827      3831      3832
      3829      3827      3831      3833      3829      3827      3831      3835
      3830      3829      3827      3831      3831      3835      3824      3839
      3831      3835      3837      3838      3832      3831      3833      3834
      3832      3831      3835      3836      3832      3831      3835      3837
      3833      3831      3835      3836      3833      3831      3835      3837
      3834      3833      3831      3835      3835      3824      3839      3840
      3835      3824      3839      3841      3835      3824      3839      3842
      3836      3835      3824      3839      3836      3835      3837      3838
      3837      3835      3824      3839      3840      3839      3842      3843
      3841      3839      3842      3843      3844      3848      3846      3847
      3844      3848      3846      3856      3844      3848      3846      3860
      3844      3849      3851      3852      3844      3849      3853      3854
      3844      3849      3853      3855      3844      3849      3853      3856
      3845      3844      3848      3846      3845      3844      3849      3850
      3845      3844      3849      3851      3845      3844      3849      3853
      3846      3848      3844      3849      3846      3856      3853      3849
      3846      3856      3853      3854      3846      3856      3853      3855
      3846      3856      3858      3859      3846      3860      3863      3864
      3847      3846      3856      3853      3847      3846      3856      3857
      3847      3846      3856      3858      3847      3846      3860      3861
      3847      3846      3860      3862      3847      3846      3860      3863
      3848      3844      3849      3850      3848      3844      3849      3851
      3848      3844      3849      3853      3848      3846      3856      3853
      3848      3846      3856      3857      3848      3846      3856      3858
      3848      3846      3860      3861      3848      3846      3860      3862
      3848      3846      3860      3863      3849      3853      3855      3865
      3849      3853      3856      3857      3849      3853      3856      3858
      3850      3849      3851      3852      3850      3849      3853      3854
      3850      3849      3853      3855      3850      3849      3853      3856
      3851      3849      3853      3854      3851      3849      3853      3855
      3851      3849      3853      3856      3852      3851      3849      3853
      3853      3855      3865      3866      3853      3855      3865      3869
      3853      3855      3865      3870      3853      3856      3846      3860
      3853      3856      3858      3859      3854      3853      3855      3865
      3854      3853      3856      3857      3854      3853      3856      3858
      3855      3853      3856      3857      3855      3853      3856      3858
      3855      3865      3869      3867      3855      3865      3870      3871
      3855      3865      3870      3872      3855      3865      3870      3880
      3856      3846      3860      3861      3856      3846      3860      3862
      3856      3846      3860      3863      3856      3853      3855      3865
      3857      3856      3846      3860      3857      3856      3858      3859
      3858      3856      3846      3860      3861      3860      3863      3864
      3862      3860      3863      3864      3865      3869      3867      3868
      3865      3869      3867      3883      3865      3869      3867      3887
      3865      3870      3872      3873      3865      3870      3872      3874
      3865      3870      3880      3881      3865      3870      3880      3882
      3865      3870      3880      3883      3866      3865      3869      3867
      3866      3865      3870      3871      3866      3865      3870      3872
      3866      3865      3870      3880      3867      3869      3865      3870
      3867      3883      3880      3870      3867      3883      3880      3881
      3867      3883      3880      3882      3867      3883      3885      3886
      3867      3887      3890      3891      3868      3867      3883      3880
      3868      3867      3883      3884      3868      3867      3883      3885
      3868      3867      3887      3888      3868      3867      3887      3889
      3868      3867      3887      3890      3869      3865      3870      3871
      3869      3865      3870      3872      3869      3865      3870      3880
      3869      3867      3883      3880      3869      3867      3883      3884
      3869      3867      3883      3885      3869      3867      3887      3888
      3869      3867      3887      3889      3869      3867      3887      3890
      3870      3872      3874      3875      3870      3872      3874      3876
      3870      3880      3882      3892      3870      3880      3883      3884
      3870      3880      3883      3885      3871      3870      3872      3873
      3871      3870      3872      3874      3871      3870      3880      3881
      3871      3870      3880      3882      3871      3870      3880      3883
      3872      3870      3880      3881      3872      3870      3880      3882
      3872      3870      3880      3883      3872      3874      3876      3877
      3872      3874      3876      3878      3872      3874      3876      3879
      3873      3872      3870      3880      3873      3872      3874      3875
      3873      3872      3874      3876      3874      3872      3870      3880
      3875      3874      3876      3877      3875      3874      3876      3878
      3875      3874      3876      3879      3880      3882      3892      3893
      3880      3882      3892      3896      3880      3882      3892      3897
      3880      3883      3867      3887      3880      3883      3885      3886
      3881      3880      3882      3892      3881      3880      3883      3884
      3881      3880      3883      3885      3882      3880      3883      3884
      3882      3880      3883      3885      3882      3892      3896      3894
      3882      3892      3897      3898      3882      3892      3897      3899
      3882      3892      3897      3900      3883      3867      3887      3888
      3883      3867      3887      3889      3883      3867      3887      3890
      3883      3880      3882      3892      3884      3883      3867      3887
      3884      3883      3885      3886      3885      3883      3867      3887
      3888      3887      3890      3891      3889      3887      3890      3891
      3892      3896      3894      3895      3892      3896      3894      3904
      3892      3896      3894      3908      3892      3897      3899      3913
      3892      3897      3900      3901      3892      3897      3900      3902
      3892      3897      3900      3904      3893      3892      3896      3894
      3893      3892      3897      3898      3893      3892      3897      3899
      3893      3892      3897      3900      3894      3896      3892      3897
      3894      3904      3900      3897      3894      3904      3900      3901
      3894      3904      3900      3902      3894      3904      3906      3907
      3894      3908      3911      3912      3895      3894      3904      3900
      3895      3894      3904      3905      3895      3894      3904      3906
      3895      3894      3908      3909      3895      3894      3908      3910
      3895      3894      3908      3911      3896      3892      3897      3898
      3896      3892      3897      3899      3896      3892      3897      3900
      3896      3894      3904      3900      3896      3894      3904      3905
      3896      3894      3904      3906      3896      3894      3908      3909
      3896      3894      3908      3910      3896      3894      3908      3911
      3897      3899      3913      3914      3897      3899      3913      3917
      3897      3899      3913      3918      3897      3900      3902      3903
      3897      3900      3904      3905      3897      3900      3904      3906
      3898      3897      3899      3913      3898      3897      3900      3901
      3898      3897      3900      3902      3898      3897      3900      3904
      3899      3897      3900      3901      3899      3897      3900      3902
      3899      3897      3900      3904      3899      3913      3917      3915
      3899      3913      3918      3919      3899      3913      3918      3920
      3899      3913      3918      3921      3900      3897      3899      3913
      3900      3904      3894      3908      3900      3904      3906      3907
      3901      3900      3902      3903      3901      3900      3904      3905
      3901      3900      3904      3906      3902      3900      3904      3905
      3902      3900      3904      3906      3903      3902      3900      3904
      3904      3894      3908      3909      3904      3894      3908      3910
      3904      3894      3908      3911      3905      3904      3894      3908
      3905      3904      3906      3907      3906      3904      3894      3908
      3909      3908      3911      3912      3910      3908      3911      3912
      3913      3917      3915      3916      3913      3917      3915      3925
      3913      3917      3915      3929      3913      3918      3920      3933
      3913      3918      3921      3922      3913      3918      3921      3923
      3913      3918      3921      3925      3914      3913      3917      3915
      3914      3913      3918      3919      3914      3913      3918      3920
      3914      3913      3918      3921      3915      3917      3913      3918
      3915      3925      3921      3918      3915      3925      3921      3922
      3915      3925      3921      3923      3915      3925      3927      3928
      3916      3915      3925      3921      3916      3915      3925      3926
      3916      3915      3925      3927      3916      3915      3929      3930
      3916      3915      3929      3931      3916      3915      3929      3932
      3917      3913      3918      3919      3917      3913      3918      3920
      3917      3913      3918      3921      3917      3915      3925      3921
      3917      3915      3925      3926      3917      3915      3925      3927
      3917      3915      3929      3930      3917      3915      3929      3931
      3917      3915      3929      3932      3918      3920      3933      3934
      3918      3920      3933      3937      3918      3920      3933      3938
      3918      3921      3923      3924      3918      3921      3925      3926
      3918      3921      3925      3927      3919      3918      3920      3933
      3919      3918      3921      3922      3919      3918      3921      3923
      3919      3918      3921      3925      3920      3918      3921      3922
      3920      3918      3921      3923      3920      3918      3921      3925
      3920      3933      3937      3935      3920      3933      3938      3939
      3920      3933      3938      3940      3920      3933      3938      3941
      3921      3918      3920      3933      3921      3925      3915      3929
      3921      3925      3927      3928      3922      3921      3923      3924
      3922      3921      3925      3926      3922      3921      3925      3927
      3923      3921      3925      3926      3923      3921      3925      3927
      3924      3923      3921      3925      3925      3915      3929      3930
      3925      3915      3929      3931      3925      3915      3929      3932
      3926      3925      3915      3929      3926      3925      3927      3928
      3927      3925      3915      3929      3933      3937      3935      3936
      3933      3937      3935      3944      3933      3937      3935      3948
      3933      3938      3940      3952      3933      3938      3941      3942
      3933      3938      3941      3943      3933      3938      3941      3944
      3934      3933      3937      3935      3934      3933      3938      3939
      3934      3933      3938      3940      3934      3933      3938      3941
      3935      3937      3933      3938      3935      3944      3941      3938
      3935      3944      3941      3942      3935      3944      3941      3943
      3935      3944      3946      3947      3936      3935      3944      3941
      3936      3935      3944      3945      3936      3935      3944      3946
      3936      3935      3948      3949      3936      3935      3948      3950
      3936      3935      3948      3951      3937      3933      3938      3939
      3937      3933      3938      3940      3937      3933      3938      3941
      3937      3935      3944      3941      3937      3935      3944      3945
      3937      3935      3944      3946      3937      3935      3948      3949
      3937      3935      3948      3950      3937      3935      3948      3951
      3938      3940      3952      3953      3938      3940      3952      3956
      3938      3940      3952      3957      3938      3941      3943      3980
      3938      3941      3944      3945      3938      3941      3944      3946
      3939      3938      3940      3952      3939      3938      3941      3942
      3939      3938      3941      3943      3939      3938      3941      3944
      3940      3938      3941      3942      3940      3938      3941      3943
      3940      3938      3941      3944      3940      3952      3956      3954
      3940      3952      3957      3958      3940      3952      3957      3959
      3940      3952      3957      3967      3941      3938      3940      3952
      3941      3943      3980      3981      3941      3943      3980      3984
      3941      3943      3980      3985      3941      3944      3935      3948
      3941      3944      3946      3947      3942      3941      3943      3980
      3942      3941      3944      3945      3942      3941      3944      3946
      3943      3941      3944      3945      3943      3941      3944      3946
      3943      3980      3984      3982      3943      3980      3985      3986
      3943      3980      3985      3987      3943      3980      3985      3995
      3944      3935      3948      3949      3944      3935      3948      3950
      3944      3935      3948      3951      3944      3941      3943      3980
      3945      3944      3935      3948      3945      3944      3946      3947
      3946      3944      3935      3948      3952      3956      3954      3955
      3952      3956      3954      3971      3952      3956      3954      3975
      3952      3957      3959      3960      3952      3957      3959      3961
      3952      3957      3967      3968      3952      3957      3967      3969
      3952      3957      3967      3971      3953      3952      3956      3954
      3953      3952      3957      3958      3953      3952      3957      3959
      3953      3952      3957      3967      3954      3956      3952      3957
      3954      3971      3967      3957      3954      3971      3967      3968
      3954      3971      3967      3969      3954      3971      3973      3974
      3954      3975      3978      3979      3955      3954      3971      3967
      3955      3954      3971      3972      3955      3954      3971      3973
      3955      3954      3975      3976      3955      3954      3975      3977
      3955      3954      3975      3978      3956      3952      3957      3958
      3956      3952      3957      3959      3956      3952      3957      3967
      3956      3954      3971      3967      3956      3954      3971      3972
      3956      3954      3971      3973      3956      3954      3975      3976
      3956      3954      3975      3977      3956      3954      3975      3978
      3957      3959      3961      3962      3957      3959      3961      3963
      3957      3967      3969      3970      3957      3967      3971      3972
      3957      3967      3971      3973      3958      3957      3959      3960
      3958      3957      3959      3961      3958      3957      3967      3968
      3958      3957      3967      3969      3958      3957      3967      3971
      3959      3957      3967      3968      3959      3957      3967      3969
      3959      3957      3967      3971      3959      3961      3963      3964
      3959      3961      3963      3965      3959      3961      3963      3966
      3960      3959      3957      3967      3960      3959      3961      3962
      3960      3959      3961      3963      3961      3959      3957      3967
      3962      3961      3963      3964      3962      3961      3963      3965
      3962      3961      3963      3966      3967      3971      3954      3975
      3967      3971      3973      3974      3968      3967      3969      3970
      3968      3967      3971      3972      3968      3967      3971      3973
      3969      3967      3971      3972      3969      3967      3971      3973
      3970      3969      3967      3971      3971      3954      3975      3976
      3971      3954      3975      3977      3971      3954      3975      3978
      3972      3971      3954      3975      3972      3971      3973      3974
      3973      3971      3954      3975      3976      3975      3978      3979
      3977      3975      3978      3979      3980      3984      3982      3983
      3980      3984      3982      3998      3980      3984      3982      4002
      3980      3985      3987      3988      3980      3985      3987      3989
      3980      3985      3995      3996      3980      3985      3995      3997
      3980      3985      3995      3998      3981      3980      3984      3982
      3981      3980      3985      3986      3981      3980      3985      3987
      3981      3980      3985      3995      3982      3984      3980      3985
      3982      3998      3995      3985      3982      3998      3995      3996
      3982      3998      3995      3997      3982      3998      4000      4001
      3982      4002      4005      4006      3983      3982      3998      3995
      3983      3982      3998      3999      3983      3982      3998      4000
      3983      3982      4002      4003      3983      3982      4002      4004
      3983      3982      4002      4005      3984      3980      3985      3986
      3984      3980      3985      3987      3984      3980      3985      3995
      3984      3982      3998      3995      3984      3982      3998      3999
      3984      3982      3998      4000      3984      3982      4002      4003
      3984      3982      4002      4004      3984      3982      4002      4005
      3985      3987      3989      3990      3985      3987      3989      3991
      3985      3995      3997      4007      3985      3995      3998      3999
      3985      3995      3998      4000      3986      3985      3987      3988
      3986      3985      3987      3989      3986      3985      3995      3996
      3986      3985      3995      3997      3986      3985      3995      3998
      3987      3985      3995      3996      3987      3985      3995      3997
      3987      3985      3995      3998      3987      3989      3991      3992
      3987      3989      3991      3993      3987      3989      3991      3994
      3988      3987      3985      3995      3988      3987      3989      3990
      3988      3987      3989      3991      3989      3987      3985      3995
      3990      3989      3991      3992      3990      3989      3991      3993
      3990      3989      3991      3994      3995      3997      4007      4008
      3995      3997      4007      4011      3995      3997      4007      4012
      3995      3998      3982      4002      3995      3998      4000      4001
      3996      3995      3997      4007      3996      3995      3998      3999
      3996      3995      3998      4000      3997      3995      3998      3999
      3997      3995      3998      4000      3997      4007      4011      4009
      3997      4007      4012      4013      3997      4007      4012      4014
      3997      4007      4012      4015      3998      3982      4002      4003
      3998      3982      4002      4004      3998      3982      4002      4005
      3998      3995      3997      4007      3999      3998      3982      4002
      3999      3998      4000      4001      4000      3998      3982      4002
      4003      4002      4005      4006      4004      4002      4005      4006
      4007      4011      4009      4010      4007      4011      4009      4019
      4007      4011      4009      4023      4007      4012      4014      4028
      4007      4012      4015      4016      4007      4012      4015      4017
      4007      4012      4015      4019      4008      4007      4011      4009
      4008      4007      4012      4013      4008      4007      4012      4014
      4008      4007      4012      4015      4009      4011      4007      4012
      4009      4019      4015      4012      4009      4019      4015      4016
      4009      4019      4015      4017      4009      4019      4021      4022
      4009      4023      4026      4027      4010      4009      4019      4015
      4010      4009      4019      4020      4010      4009      4019      4021
      4010      4009      4023      4024      4010      4009      4023      4025
      4010      4009      4023      4026      4011      4007      4012      4013
      4011      4007      4012      4014      4011      4007      4012      4015
      4011      4009      4019      4015      4011      4009      4019      4020
      4011      4009      4019      4021      4011      4009      4023      4024
      4011      4009      4023      4025      4011      4009      4023      4026
      4012      4014      4028      4029      4012      4014      4028      4032
      4012      4014      4028      4033      4012      4015      4017      4018
      4012      4015      4019      4020      4012      4015      4019      4021
      4013      4012      4014      4028      4013      4012      4015      4016
      4013      4012      4015      4017      4013      4012      4015      4019
      4014      4012      4015      4016      4014      4012      4015      4017
      4014      4012      4015      4019      4014      4028      4032      4030
      4014      4028      4033      4034      4014      4028      4033      4035
      4014      4028      4033      4036      4015      4012      4014      4028
      4015      4019      4009      4023      4015      4019      4021      4022
      4016      4015      4017      4018      4016      4015      4019      4020
      4016      4015      4019      4021      4017      4015      4019      4020
      4017      4015      4019      4021      4018      4017      4015      4019
      4019      4009      4023      4024      4019      4009      4023      4025
      4019      4009      4023      4026      4020      4019      4009      4023
      4020      4019      4021      4022      4021      4019      4009      4023
      4024      4023      4026      4027      4025      4023      4026      4027
      4028      4032      4030      4031      4028      4032      4030      4040
      4028      4032      4030      4044      4028      4033      4035      4048
      4028      4033      4036      4037      4028      4033      4036      4038
      4028      4033      4036      4040      4029      4028      4032      4030
      4029      4028      4033      4034      4029      4028      4033      4035
      4029      4028      4033      4036      4030      4032      4028      4033
      4030      4040      4036      4033      4030      4040      4036      4037
      4030      4040      4036      4038      4030      4040      4042      4043
      4031      4030      4040      4036      4031      4030      4040      4041
      4031      4030      4040      4042      4031      4030      4044      4045
      4031      4030      4044      4046      4031      4030      4044      4047
      4032      4028      4033      4034      4032      4028      4033      4035
      4032      4028      4033      4036      4032      4030      4040      4036
      4032      4030      4040      4041      4032      4030      4040      4042
      4032      4030      4044      4045      4032      4030      4044      4046
      4032      4030      4044      4047      4033      4035      4048      4049
      4033      4035      4048      4052      4033      4035      4048      4053
      4033      4036      4038      4039      4033      4036      4040      4041
      4033      4036      4040      4042      4034      4033      4035      4048
      4034      4033      4036      4037      4034      4033      4036      4038
      4034      4033      4036      4040      4035      4033      4036      4037
      4035      4033      4036      4038      4035      4033      4036      4040
      4035      4048      4052      4050      4035      4048      4053      4054
      4035      4048      4053      4055      4035      4048      4053      4056
      4036      4033      4035      4048      4036      4040      4030      4044
      4036      4040      4042      4043      4037      4036      4038      4039
      4037      4036      4040      4041      4037      4036      4040      4042
      4038      4036      4040      4041      4038      4036      4040      4042
      4039      4038      4036      4040      4040      4030      4044      4045
      4040      4030      4044      4046      4040      4030      4044      4047
      4041      4040      4030      4044      4041      4040      4042      4043
      4042      4040      4030      4044      4048      4052      4050      4051
      4048      4052      4050      4059      4048      4052      4050      4063
      4048      4053      4055      4067      4048      4053      4056      4057
      4048      4053      4056      4058      4048      4053      4056      4059
      4049      4048      4052      4050      4049      4048      4053      4054
      4049      4048      4053      4055      4049      4048      4053      4056
      4050      4052      4048      4053      4050      4059      4056      4053
      4050      4059      4056      4057      4050      4059      4056      4058
      4050      4059      4061      4062      4051      4050      4059      4056
      4051      4050      4059      4060      4051      4050      4059      4061
      4051      4050      4063      4064      4051      4050      4063      4065
      4051      4050      4063      4066      4052      4048      4053      4054
      4052      4048      4053      4055      4052      4048      4053      4056
      4052      4050      4059      4056      4052      4050      4059      4060
      4052      4050      4059      4061      4052      4050      4063      4064
      4052      4050      4063      4065      4052      4050      4063      4066
      4053      4055      4067      4068      4053      4055      4067      4071
      4053      4055      4067      4072      4053      4056      4058      4095
      4053      4056      4059      4060      4053      4056      4059      4061
      4054      4053      4055      4067      4054      4053      4056      4057
      4054      4053      4056      4058      4054      4053      4056      4059
      4055      4053      4056      4057      4055      4053      4056      4058
      4055      4053      4056      4059      4055      4067      4071      4069
      4055      4067      4072      4073      4055      4067      4072      4074
      4055      4067      4072      4082      4056      4053      4055      4067
      4056      4058      4095      4096      4056      4058      4095      4099
      4056      4058      4095      4100      4056      4059      4050      4063
      4056      4059      4061      4062      4057      4056      4058      4095
      4057      4056      4059      4060      4057      4056      4059      4061
      4058      4056      4059      4060      4058      4056      4059      4061
      4058      4095      4099      4097      4058      4095      4100      4101
      4058      4095      4100      4102      4058      4095      4100      4110
      4059      4050      4063      4064      4059      4050      4063      4065
      4059      4050      4063      4066      4059      4056      4058      4095
      4060      4059      4050      4063      4060      4059      4061      4062
      4061      4059      4050      4063      4067      4071      4069      4070
      4067      4071      4069      4086      4067      4071      4069      4090
      4067      4072      4074      4075      4067      4072      4074      4076
      4067      4072      4082      4083      4067      4072      4082      4084
      4067      4072      4082      4086      4068      4067      4071      4069
      4068      4067      4072      4073      4068      4067      4072      4074
      4068      4067      4072      4082      4069      4071      4067      4072
      4069      4086      4082      4072      4069      4086      4082      4083
      4069      4086      4082      4084      4069      4086      4088      4089
      4069      4090      4093      4094      4070      4069      4086      4082
      4070      4069      4086      4087      4070      4069      4086      4088
      4070      4069      4090      4091      4070      4069      4090      4092
      4070      4069      4090      4093      4071      4067      4072      4073
      4071      4067      4072      4074      4071      4067      4072      4082
      4071      4069      4086      4082      4071      4069      4086      4087
      4071      4069      4086      4088      4071      4069      4090      4091
      4071      4069      4090      4092      4071      4069      4090      4093
      4072      4074      4076      4077      4072      4074      4076      4078
      4072      4082      4084      4085      4072      4082      4086      4087
      4072      4082      4086      4088      4073      4072      4074      4075
      4073      4072      4074      4076      4073      4072      4082      4083
      4073      4072      4082      4084      4073      4072      4082      4086
      4074      4072      4082      4083      4074      4072      4082      4084
      4074      4072      4082      4086      4074      4076      4078      4079
      4074      4076      4078      4080      4074      4076      4078      4081
      4075      4074      4072      4082      4075      4074      4076      4077
      4075      4074      4076      4078      4076      4074      4072      4082
      4077      4076      4078      4079      4077      4076      4078      4080
      4077      4076      4078      4081      4082      4086      4069      4090
      4082      4086      4088      4089      4083      4082      4084      4085
      4083      4082      4086      4087      4083      4082      4086      4088
      4084      4082      4086      4087      4084      4082      4086      4088
      4085      4084      4082      4086      4086      4069      4090      4091
      4086      4069      4090      4092      4086      4069      4090      4093
      4087      4086      4069      4090      4087      4086      4088      4089
      4088      4086      4069      4090      4091      4090      4093      4094
      4092      4090      4093      4094      4095      4099      4097      4098
      4095      4099      4097      4113      4095      4099      4097      4117
      4095      4100      4102      4103      4095      4100      4102      4104
      4095      4100      4110      4111      4095      4100      4110      4112
      4095      4100      4110      4113      4096      4095      4099      4097
      4096      4095      4100      4101      4096      4095      4100      4102
      4096      4095      4100      4110      4097      4099      4095      4100
      4097      4113      4110      4100      4097      4113      4110      4111
      4097      4113      4110      4112      4097      4113      4115      4116
      4097      4117      4120      4121      4098      4097      4113      4110
      4098      4097      4113      4114      4098      4097      4113      4115
      4098      4097      4117      4118      4098      4097      4117      4119
      4098      4097      4117      4120      4099      4095      4100      4101
      4099      4095      4100      4102      4099      4095      4100      4110
      4099      4097      4113      4110      4099      4097      4113      4114
      4099      4097      4113      4115      4099      4097      4117      4118
      4099      4097      4117      4119      4099      4097      4117      4120
      4100      4102      4104      4105      4100      4102      4104      4106
      4100      4110      4112      4122      4100      4110      4113      4114
      4100      4110      4113      4115      4101      4100      4102      4103
      4101      4100      4102      4104      4101      4100      4110      4111
      4101      4100      4110      4112      4101      4100      4110      4113
      4102      4100      4110      4111      4102      4100      4110      4112
      4102      4100      4110      4113      4102      4104      4106      4107
      4102      4104      4106      4108      4102      4104      4106      4109
      4103      4102      4100      4110      4103      4102      4104      4105
      4103      4102      4104      4106      4104      4102      4100      4110
      4105      4104      4106      4107      4105      4104      4106      4108
      4105      4104      4106      4109      4110      4112      4122      4123
      4110      4112      4122      4126      4110      4112      4122      4127
      4110      4113      4097      4117      4110      4113      4115      4116
      4111      4110      4112      4122      4111      4110      4113      4114
      4111      4110      4113      4115      4112      4110      4113      4114
      4112      4110      4113      4115      4112      4122      4126      4124
      4112      4122      4127      4128      4112      4122      4127      4129
      4112      4122      4127      4130      4113      4097      4117      4118
      4113      4097      4117      4119      4113      4097      4117      4120
      4113      4110      4112      4122      4114      4113      4097      4117
      4114      4113      4115      4116      4115      4113      4097      4117
      4118      4117      4120      4121      4119      4117      4120      4121
      4122      4126      4124      4125      4122      4126      4124      4134
      4122      4126      4124      4138      4122      4127      4129      4143
      4122      4127      4130      4131      4122      4127      4130      4132
      4122      4127      4130      4134      4123      4122      4126      4124
      4123      4122      4127      4128      4123      4122      4127      4129
      4123      4122      4127      4130      4124      4126      4122      4127
      4124      4134      4130      4127      4124      4134      4130      4131
      4124      4134      4130      4132      4124      4134      4136      4137
      4124      4138      4141      4142      4125      4124      4134      4130
      4125      4124      4134      4135      4125      4124      4134      4136
      4125      4124      4138      4139      4125      4124      4138      4140
      4125      4124      4138      4141      4126      4122      4127      4128
      4126      4122      4127      4129      4126      4122      4127      4130
      4126      4124      4134      4130      4126      4124      4134      4135
      4126      4124      4134      4136      4126      4124      4138      4139
      4126      4124      4138      4140      4126      4124      4138      4141
      4127      4129      4143      4144      4127      4129      4143      4147
      4127      4129      4143      4148      4127      4130      4132      4133
      4127      4130      4134      4135      4127      4130      4134      4136
      4128      4127      4129      4143      4128      4127      4130      4131
      4128      4127      4130      4132      4128      4127      4130      4134
      4129      4127      4130      4131      4129      4127      4130      4132
      4129      4127      4130      4134      4129      4143      4147      4145
      4129      4143      4148      4149      4129      4143      4148      4150
      4129      4143      4148      4151      4130      4127      4129      4143
      4130      4134      4124      4138      4130      4134      4136      4137
      4131      4130      4132      4133      4131      4130      4134      4135
      4131      4130      4134      4136      4132      4130      4134      4135
      4132      4130      4134      4136      4133      4132      4130      4134
      4134      4124      4138      4139      4134      4124      4138      4140
      4134      4124      4138      4141      4135      4134      4124      4138
      4135      4134      4136      4137      4136      4134      4124      4138
      4139      4138      4141      4142      4140      4138      4141      4142
      4143      4147      4145      4146      4143      4147      4145      4155
      4143      4147      4145      4159      4143      4148      4150      4163
      4143      4148      4151      4152      4143      4148      4151      4153
      4143      4148      4151      4155      4144      4143      4147      4145
      4144      4143      4148      4149      4144      4143      4148      4150
      4144      4143      4148      4151      4145      4147      4143      4148
      4145      4155      4151      4148      4145      4155      4151      4152
      4145      4155      4151      4153      4145      4155      4157      4158
      4146      4145      4155      4151      4146      4145      4155      4156
      4146      4145      4155      4157      4146      4145      4159      4160
      4146      4145      4159      4161      4146      4145      4159      4162
      4147      4143      4148      4149      4147      4143      4148      4150
      4147      4143      4148      4151      4147      4145      4155      4151
      4147      4145      4155      4156      4147      4145      4155      4157
      4147      4145      4159      4160      4147      4145      4159      4161
      4147      4145      4159      4162      4148      4150      4163      4164
      4148      4150      4163      4167      4148      4150      4163      4168
      4148      4151      4153      4154      4148      4151      4155      4156
      4148      4151      4155      4157      4149      4148      4150      4163
      4149      4148      4151      4152      4149      4148      4151      4153
      4149      4148      4151      4155      4150      4148      4151      4152
      4150      4148      4151      4153      4150      4148      4151      4155
      4150      4163      4167      4165      4150      4163      4168      4169
      4150      4163      4168      4170      4150      4163      4168      4171
      4151      4148      4150      4163      4151      4155      4145      4159
      4151      4155      4157      4158      4152      4151      4153      4154
      4152      4151      4155      4156      4152      4151      4155      4157
      4153      4151      4155      4156      4153      4151      4155      4157
      4154      4153      4151      4155      4155      4145      4159      4160
      4155      4145      4159      4161      4155      4145      4159      4162
      4156      4155      4145      4159      4156      4155      4157      4158
      4157      4155      4145      4159      4163      4167      4165      4166
      4163      4167      4165      4174      4163      4167      4165      4178
      4163      4168      4170      4182      4163      4168      4171      4172
      4163      4168      4171      4173      4163      4168      4171      4174
      4164      4163      4167      4165      4164      4163      4168      4169
      4164      4163      4168      4170      4164      4163      4168      4171
      4165      4167      4163      4168      4165      4174      4171      4168
      4165      4174      4171      4172      4165      4174      4171      4173
      4165      4174      4176      4177      4166      4165      4174      4171
      4166      4165      4174      4175      4166      4165      4174      4176
      4166      4165      4178      4179      4166      4165      4178      4180
      4166      4165      4178      4181      4167      4163      4168      4169
      4167      4163      4168      4170      4167      4163      4168      4171
      4167      4165      4174      4171      4167      4165      4174      4175
      4167      4165      4174      4176      4167      4165      4178      4179
      4167      4165      4178      4180      4167      4165      4178      4181
      4168      4170      4182      4183      4168      4170      4182      4186
      4168      4170      4182      4187      4168      4171      4173      4210
      4168      4171      4174      4175      4168      4171      4174      4176
      4169      4168      4170      4182      4169      4168      4171      4172
      4169      4168      4171      4173      4169      4168      4171      4174
      4170      4168      4171      4172      4170      4168      4171      4173
      4170      4168      4171      4174      4170      4182      4186      4184
      4170      4182      4187      4188      4170      4182      4187      4189
      4170      4182      4187      4197      4171      4168      4170      4182
      4171      4173      4210      4211      4171      4173      4210      4214
      4171      4173      4210      4215      4171      4174      4165      4178
      4171      4174      4176      4177      4172      4171      4173      4210
      4172      4171      4174      4175      4172      4171      4174      4176
      4173      4171      4174      4175      4173      4171      4174      4176
      4173      4210      4214      4212      4173      4210      4215      4216
      4173      4210      4215      4217      4173      4210      4215      4225
      4174      4165      4178      4179      4174      4165      4178      4180
      4174      4165      4178      4181      4174      4171      4173      4210
      4175      4174      4165      4178      4175      4174      4176      4177
      4176      4174      4165      4178      4182      4186      4184      4185
      4182      4186      4184      4201      4182      4186      4184      4205
      4182      4187      4189      4190      4182      4187      4189      4191
      4182      4187      4197      4198      4182      4187      4197      4199
      4182      4187      4197      4201      4183      4182      4186      4184
      4183      4182      4187      4188      4183      4182      4187      4189
      4183      4182      4187      4197      4184      4186      4182      4187
      4184      4201      4197      4187      4184      4201      4197      4198
      4184      4201      4197      4199      4184      4201      4203      4204
      4184      4205      4208      4209      4185      4184      4201      4197
      4185      4184      4201      4202      4185      4184      4201      4203
      4185      4184      4205      4206      4185      4184      4205      4207
      4185      4184      4205      4208      4186      4182      4187      4188
      4186      4182      4187      4189      4186      4182      4187      4197
      4186      4184      4201      4197      4186      4184      4201      4202
      4186      4184      4201      4203      4186      4184      4205      4206
      4186      4184      4205      4207      4186      4184      4205      4208
      4187      4189      4191      4192      4187      4189      4191      4193
      4187      4197      4199      4200      4187      4197      4201      4202
      4187      4197      4201      4203      4188      4187      4189      4190
      4188      4187      4189      4191      4188      4187      4197      4198
      4188      4187      4197      4199      4188      4187      4197      4201
      4189      4187      4197      4198      4189      4187      4197      4199
      4189      4187      4197      4201      4189      4191      4193      4194
      4189      4191      4193      4195      4189      4191      4193      4196
      4190      4189      4187      4197      4190      4189      4191      4192
      4190      4189      4191      4193      4191      4189      4187      4197
      4192      4191      4193      4194      4192      4191      4193      4195
      4192      4191      4193      4196      4197      4201      4184      4205
      4197      4201      4203      4204      4198      4197      4199      4200
      4198      4197      4201      4202      4198      4197      4201      4203
      4199      4197      4201      4202      4199      4197      4201      4203
      4200      4199      4197      4201      4201      4184      4205      4206
      4201      4184      4205      4207      4201      4184      4205      4208
      4202      4201      4184      4205      4202      4201      4203      4204
      4203      4201      4184      4205      4206      4205      4208      4209
      4207      4205      4208      4209      4210      4214      4212      4213
      4210      4214      4212      4228      4210      4214      4212      4232
      4210      4215      4217      4218      4210      4215      4217      4219
      4210      4215      4225      4226      4210      4215      4225      4227
      4210      4215      4225      4228      4211      4210      4214      4212
      4211      4210      4215      4216      4211      4210      4215      4217
      4211      4210      4215      4225      4212      4214      4210      4215
      4212      4228      4225      4215      4212      4228      4225      4226
      4212      4228      4225      4227      4212      4228      4230      4231
      4212      4232      4235      4236      4213      4212      4228      4225
      4213      4212      4228      4229      4213      4212      4228      4230
      4213      4212      4232      4233      4213      4212      4232      4234
      4213      4212      4232      4235      4214      4210      4215      4216
      4214      4210      4215      4217      4214      4210      4215      4225
      4214      4212      4228      4225      4214      4212      4228      4229
      4214      4212      4228      4230      4214      4212      4232      4233
      4214      4212      4232      4234      4214      4212      4232      4235
      4215      4217      4219      4220      4215      4217      4219      4221
      4215      4225      4227      4237      4215      4225      4228      4229
      4215      4225      4228      4230      4216      4215      4217      4218
      4216      4215      4217      4219      4216      4215      4225      4226
      4216      4215      4225      4227      4216      4215      4225      4228
      4217      4215      4225      4226      4217      4215      4225      4227
      4217      4215      4225      4228      4217      4219      4221      4222
      4217      4219      4221      4223      4217      4219      4221      4224
      4218      4217      4215      4225      4218      4217      4219      4220
      4218      4217      4219      4221      4219      4217      4215      4225
      4220      4219      4221      4222      4220      4219      4221      4223
      4220      4219      4221      4224      4225      4227      4237      4238
      4225      4227      4237      4241      4225      4227      4237      4242
      4225      4228      4212      4232      4225      4228      4230      4231
      4226      4225      4227      4237      4226      4225      4228      4229
      4226      4225      4228      4230      4227      4225      4228      4229
      4227      4225      4228      4230      4227      4237      4241      4239
      4227      4237      4242      4243      4227      4237      4242      4244
      4227      4237      4242      4245      4228      4212      4232      4233
      4228      4212      4232      4234      4228      4212      4232      4235
      4228      4225      4227      4237      4229      4228      4212      4232
      4229      4228      4230      4231      4230      4228      4212      4232
      4233      4232      4235      4236      4234      4232      4235      4236
      4237      4241      4239      4240      4237      4241      4239      4249
      4237      4241      4239      4253      4237      4242      4244      4258
      4237      4242      4245      4246      4237      4242      4245      4247
      4237      4242      4245      4249      4238      4237      4241      4239
      4238      4237      4242      4243      4238      4237      4242      4244
      4238      4237      4242      4245      4239      4241      4237      4242
      4239      4249      4245      4242      4239      4249      4245      4246
      4239      4249      4245      4247      4239      4249      4251      4252
      4239      4253      4256      4257      4240      4239      4249      4245
      4240      4239      4249      4250      4240      4239      4249      4251
      4240      4239      4253      4254      4240      4239      4253      4255
      4240      4239      4253      4256      4241      4237      4242      4243
      4241      4237      4242      4244      4241      4237      4242      4245
      4241      4239      4249      4245      4241      4239      4249      4250
      4241      4239      4249      4251      4241      4239      4253      4254
      4241      4239      4253      4255      4241      4239      4253      4256
      4242      4244      4258      4259      4242      4244      4258      4262
      4242      4244      4258      4263      4242      4245      4247      4248
      4242      4245      4249      4250      4242      4245      4249      4251
      4243      4242      4244      4258      4243      4242      4245      4246
      4243      4242      4245      4247      4243      4242      4245      4249
      4244      4242      4245      4246      4244      4242      4245      4247
      4244      4242      4245      4249      4244      4258      4262      4260
      4244      4258      4263      4264      4244      4258      4263      4265
      4244      4258      4263      4266      4245      4242      4244      4258
      4245      4249      4239      4253      4245      4249      4251      4252
      4246      4245      4247      4248      4246      4245      4249      4250
      4246      4245      4249      4251      4247      4245      4249      4250
      4247      4245      4249      4251      4248      4247      4245      4249
      4249      4239      4253      4254      4249      4239      4253      4255
      4249      4239      4253      4256      4250      4249      4239      4253
      4250      4249      4251      4252      4251      4249      4239      4253
      4254      4253      4256      4257      4255      4253      4256      4257
      4258      4262      4260      4261      4258      4262      4260      4270
      4258      4262      4260      4274      4258      4263      4265      4278
      4258      4263      4266      4267      4258      4263      4266      4268
      4258      4263      4266      4270      4259      4258      4262      4260
      4259      4258      4263      4264      4259      4258      4263      4265
      4259      4258      4263      4266      4260      4262      4258      4263
      4260      4270      4266      4263      4260      4270      4266      4267
      4260      4270      4266      4268      4260      4270      4272      4273
      4261      4260      4270      4266      4261      4260      4270      4271
      4261      4260      4270      4272      4261      4260      4274      4275
      4261      4260      4274      4276      4261      4260      4274      4277
      4262      4258      4263      4264      4262      4258      4263      4265
      4262      4258      4263      4266      4262      4260      4270      4266
      4262      4260      4270      4271      4262      4260      4270      4272
      4262      4260      4274      4275      4262      4260      4274      4276
      4262      4260      4274      4277      4263      4265      4278      4279
      4263      4265      4278      4282      4263      4265      4278      4283
      4263      4266      4268      4269      4263      4266      4270      4271
      4263      4266      4270      4272      4264      4263      4265      4278
      4264      4263      4266      4267      4264      4263      4266      4268
      4264      4263      4266      4270      4265      4263      4266      4267
      4265      4263      4266      4268      4265      4263      4266      4270
      4265      4278      4282      4280      4265      4278      4283      4284
      4265      4278      4283      4285      4265      4278      4283      4286
      4266      4263      4265      4278      4266      4270      4260      4274
      4266      4270      4272      4273      4267      4266      4268      4269
      4267      4266      4270      4271      4267      4266      4270      4272
      4268      4266      4270      4271      4268      4266      4270      4272
      4269      4268      4266      4270      4270      4260      4274      4275
      4270      4260      4274      4276      4270      4260      4274      4277
      4271      4270      4260      4274      4271      4270      4272      4273
      4272      4270      4260      4274      4278      4282      4280      4281
      4278      4282      4280      4289      4278      4282      4280      4293
      4278      4283      4285      4297      4278      4283      4286      4287
      4278      4283      4286      4288      4278      4283      4286      4289
      4279      4278      4282      4280      4279      4278      4283      4284
      4279      4278      4283      4285      4279      4278      4283      4286
      4280      4282      4278      4283      4280      4289      4286      4283
      4280      4289      4286      4287      4280      4289      4286      4288
      4280      4289      4291      4292      4281      4280      4289      4286
      4281      4280      4289      4290      4281      4280      4289      4291
      4281      4280      4293      4294      4281      4280      4293      4295
      4281      4280      4293      4296      4282      4278      4283      4284
      4282      4278      4283      4285      4282      4278      4283      4286
      4282      4280      4289      4286      4282      4280      4289      4290
      4282      4280      4289      4291      4282      4280      4293      4294
      4282      4280      4293      4295      4282      4280      4293      4296
      4283      4285      4297      4298      4283      4285      4297      4301
      4283      4285      4297      4302      4283      4286      4288      4325
      4283      4286      4289      4290      4283      4286      4289      4291
      4284      4283      4285      4297      4284      4283      4286      4287
      4284      4283      4286      4288      4284      4283      4286      4289
      4285      4283      4286      4287      4285      4283      4286      4288
      4285      4283      4286      4289      4285      4297      4301      4299
      4285      4297      4302      4303      4285      4297      4302      4304
      4285      4297      4302      4312      4286      4283      4285      4297
      4286      4288      4325      4326      4286      4288      4325      4329
      4286      4288      4325      4330      4286      4289      4280      4293
      4286      4289      4291      4292      4287      4286      4288      4325
      4287      4286      4289      4290      4287      4286      4289      4291
      4288      4286      4289      4290      4288      4286      4289      4291
      4288      4325      4329      4327      4288      4325      4330      4331
      4288      4325      4330      4332      4288      4325      4330      4340
      4289      4280      4293      4294      4289      4280      4293      4295
      4289      4280      4293      4296      4289      4286      4288      4325
      4290      4289      4280      4293      4290      4289      4291      4292
      4291      4289      4280      4293      4297      4301      4299      4300
      4297      4301      4299      4316      4297      4301      4299      4320
      4297      4302      4304      4305      4297      4302      4304      4306
      4297      4302      4312      4313      4297      4302      4312      4314
      4297      4302      4312      4316      4298      4297      4301      4299
      4298      4297      4302      4303      4298      4297      4302      4304
      4298      4297      4302      4312      4299      4301      4297      4302
      4299      4316      4312      4302      4299      4316      4312      4313
      4299      4316      4312      4314      4299      4316      4318      4319
      4299      4320      4323      4324      4300      4299      4316      4312
      4300      4299      4316      4317      4300      4299      4316      4318
      4300      4299      4320      4321      4300      4299      4320      4322
      4300      4299      4320      4323      4301      4297      4302      4303
      4301      4297      4302      4304      4301      4297      4302      4312
      4301      4299      4316      4312      4301      4299      4316      4317
      4301      4299      4316      4318      4301      4299      4320      4321
      4301      4299      4320      4322      4301      4299      4320      4323
      4302      4304      4306      4307      4302      4304      4306      4308
      4302      4312      4314      4315      4302      4312      4316      4317
      4302      4312      4316      4318      4303      4302      4304      4305
      4303      4302      4304      4306      4303      4302      4312      4313
      4303      4302      4312      4314      4303      4302      4312      4316
      4304      4302      4312      4313      4304      4302      4312      4314
      4304      4302      4312      4316      4304      4306      4308      4309
      4304      4306      4308      4310      4304      4306      4308      4311
      4305      4304      4302      4312      4305      4304      4306      4307
      4305      4304      4306      4308      4306      4304      4302      4312
      4307      4306      4308      4309      4307      4306      4308      4310
      4307      4306      4308      4311      4312      4316      4299      4320
      4312      4316      4318      4319      4313      4312      4314      4315
      4313      4312      4316      4317      4313      4312      4316      4318
      4314      4312      4316      4317      4314      4312      4316      4318
      4315      4314      4312      4316      4316      4299      4320      4321
      4316      4299      4320      4322      4316      4299      4320      4323
      4317      4316      4299      4320      4317      4316      4318      4319
      4318      4316      4299      4320      4321      4320      4323      4324
      4322      4320      4323      4324      4325      4329      4327      4328
      4325      4329      4327      4343      4325      4329      4327      4347
      4325      4330      4332      4333      4325      4330      4332      4334
      4325      4330      4340      4341      4325      4330      4340      4342
      4325      4330      4340      4343      4326      4325      4329      4327
      4326      4325      4330      4331      4326      4325      4330      4332
      4326      4325      4330      4340      4327      4329      4325      4330
      4327      4343      4340      4330      4327      4343      4340      4341
      4327      4343      4340      4342      4327      4343      4345      4346
      4327      4347      4350      4351      4328      4327      4343      4340
      4328      4327      4343      4344      4328      4327      4343      4345
      4328      4327      4347      4348      4328      4327      4347      4349
      4328      4327      4347      4350      4329      4325      4330      4331
      4329      4325      4330      4332      4329      4325      4330      4340
      4329      4327      4343      4340      4329      4327      4343      4344
      4329      4327      4343      4345      4329      4327      4347      4348
      4329      4327      4347      4349      4329      4327      4347      4350
      4330      4332      4334      4335      4330      4332      4334      4336
      4330      4340      4342      4352      4330      4340      4343      4344
      4330      4340      4343      4345      4331      4330      4332      4333
      4331      4330      4332      4334      4331      4330      4340      4341
      4331      4330      4340      4342      4331      4330      4340      4343
      4332      4330      4340      4341      4332      4330      4340      4342
      4332      4330      4340      4343      4332      4334      4336      4337
      4332      4334      4336      4338      4332      4334      4336      4339
      4333      4332      4330      4340      4333      4332      4334      4335
      4333      4332      4334      4336      4334      4332      4330      4340
      4335      4334      4336      4337      4335      4334      4336      4338
      4335      4334      4336      4339      4340      4342      4352      4353
      4340      4342      4352      4356      4340      4342      4352      4357
      4340      4343      4327      4347      4340      4343      4345      4346
      4341      4340      4342      4352      4341      4340      4343      4344
      4341      4340      4343      4345      4342      4340      4343      4344
      4342      4340      4343      4345      4342      4352      4356      4354
      4342      4352      4357      4358      4342      4352      4357      4359
      4342      4352      4357      4360      4343      4327      4347      4348
      4343      4327      4347      4349      4343      4327      4347      4350
      4343      4340      4342      4352      4344      4343      4327      4347
      4344      4343      4345      4346      4345      4343      4327      4347
      4348      4347      4350      4351      4349      4347      4350      4351
      4352      4356      4354      4355      4352      4356      4354      4364
      4352      4356      4354      4368      4352      4357      4359      4373
      4352      4357      4360      4361      4352      4357      4360      4362
      4352      4357      4360      4364      4353      4352      4356      4354
      4353      4352      4357      4358      4353      4352      4357      4359
      4353      4352      4357      4360      4354      4356      4352      4357
      4354      4364      4360      4357      4354      4364      4360      4361
      4354      4364      4360      4362      4354      4364      4366      4367
      4354      4368      4371      4372      4355      4354      4364      4360
      4355      4354      4364      4365      4355      4354      4364      4366
      4355      4354      4368      4369      4355      4354      4368      4370
      4355      4354      4368      4371      4356      4352      4357      4358
      4356      4352      4357      4359      4356      4352      4357      4360
      4356      4354      4364      4360      4356      4354      4364      4365
      4356      4354      4364      4366      4356      4354      4368      4369
      4356      4354      4368      4370      4356      4354      4368      4371
      4357      4359      4373      4374      4357      4359      4373      4377
      4357      4359      4373      4378      4357      4360      4362      4363
      4357      4360      4364      4365      4357      4360      4364      4366
      4358      4357      4359      4373      4358      4357      4360      4361
      4358      4357      4360      4362      4358      4357      4360      4364
      4359      4357      4360      4361      4359      4357      4360      4362
      4359      4357      4360      4364      4359      4373      4377      4375
      4359      4373      4378      4379      4359      4373      4378      4380
      4359      4373      4378      4381      4360      4357      4359      4373
      4360      4364      4354      4368      4360      4364      4366      4367
      4361      4360      4362      4363      4361      4360      4364      4365
      4361      4360      4364      4366      4362      4360      4364      4365
      4362      4360      4364      4366      4363      4362      4360      4364
      4364      4354      4368      4369      4364      4354      4368      4370
      4364      4354      4368      4371      4365      4364      4354      4368
      4365      4364      4366      4367      4366      4364      4354      4368
      4369      4368      4371      4372      4370      4368      4371      4372
      4373      4377      4375      4376      4373      4377      4375      4385
      4373      4377      4375      4389      4373      4378      4380      4393
      4373      4378      4381      4382      4373      4378      4381      4383
      4373      4378      4381      4385      4374      4373      4377      4375
      4374      4373      4378      4379      4374      4373      4378      4380
      4374      4373      4378      4381      4375      4377      4373      4378
      4375      4385      4381      4378      4375      4385      4381      4382
      4375      4385      4381      4383      4375      4385      4387      4388
      4376      4375      4385      4381      4376      4375      4385      4386
      4376      4375      4385      4387      4376      4375      4389      4390
      4376      4375      4389      4391      4376      4375      4389      4392
      4377      4373      4378      4379      4377      4373      4378      4380
      4377      4373      4378      4381      4377      4375      4385      4381
      4377      4375      4385      4386      4377      4375      4385      4387
      4377      4375      4389      4390      4377      4375      4389      4391
      4377      4375      4389      4392      4378      4380      4393      4394
      4378      4380      4393      4397      4378      4380      4393      4398
      4378      4381      4383      4384      4378      4381      4385      4386
      4378      4381      4385      4387      4379      4378      4380      4393
      4379      4378      4381      4382      4379      4378      4381      4383
      4379      4378      4381      4385      4380      4378      4381      4382
      4380      4378      4381      4383      4380      4378      4381      4385
      4380      4393      4397      4395      4380      4393      4398      4399
      4380      4393      4398      4400      4380      4393      4398      4401
      4381      4378      4380      4393      4381      4385      4375      4389
      4381      4385      4387      4388      4382      4381      4383      4384
      4382      4381      4385      4386      4382      4381      4385      4387
      4383      4381      4385      4386      4383      4381      4385      4387
      4384      4383      4381      4385      4385      4375      4389      4390
      4385      4375      4389      4391      4385      4375      4389      4392
      4386      4385      4375      4389      4386      4385      4387      4388
      4387      4385      4375      4389      4393      4397      4395      4396
      4393      4397      4395      4405      4393      4397      4395      4409
      4393      4398      4400      4413      4393      4398      4401      4402
      4393      4398      4401      4403      4393      4398      4401      4405
      4394      4393      4397      4395      4394      4393      4398      4399
      4394      4393      4398      4400      4394      4393      4398      4401
      4395      4397      4393      4398      4395      4405      4401      4398
      4395      4405      4401      4402      4395      4405      4401      4403
      4395      4405      4407      4408      4396      4395      4405      4401
      4396      4395      4405      4406      4396      4395      4405      4407
      4396      4395      4409      4410      4396      4395      4409      4411
      4396      4395      4409      4412      4397      4393      4398      4399
      4397      4393      4398      4400      4397      4393      4398      4401
      4397      4395      4405      4401      4397      4395      4405      4406
      4397      4395      4405      4407      4397      4395      4409      4410
      4397      4395      4409      4411      4397      4395      4409      4412
      4398      4400      4413      4414      4398      4400      4413      4417
      4398      4400      4413      4418      4398      4401      4403      4404
      4398      4401      4405      4406      4398      4401      4405      4407
      4399      4398      4400      4413      4399      4398      4401      4402
      4399      4398      4401      4403      4399      4398      4401      4405
      4400      4398      4401      4402      4400      4398      4401      4403
      4400      4398      4401      4405      4400      4413      4417      4415
      4400      4413      4418      4419      4400      4413      4418      4420
      4400      4413      4418      4428      4401      4398      4400      4413
      4401      4405      4395      4409      4401      4405      4407      4408
      4402      4401      4403      4404      4402      4401      4405      4406
      4402      4401      4405      4407      4403      4401      4405      4406
      4403      4401      4405      4407      4404      4403      4401      4405
      4405      4395      4409      4410      4405      4395      4409      4411
      4405      4395      4409      4412      4406      4405      4395      4409
      4406      4405      4407      4408      4407      4405      4395      4409
      4413      4417      4415      4416      4413      4417      4415      4432
      4413      4417      4415      4436      4413      4418      4420      4421
      4413      4418      4420      4422      4413      4418      4428      4429
      4413      4418      4428      4430      4413      4418      4428      4432
      4414      4413      4417      4415      4414      4413      4418      4419
      4414      4413      4418      4420      4414      4413      4418      4428
      4415      4417      4413      4418      4415      4432      4428      4418
      4415      4432      4428      4429      4415      4432      4428      4430
      4415      4432      4434      4435      4415      4436      4439      4440
      4416      4415      4432      4428      4416      4415      4432      4433
      4416      4415      4432      4434      4416      4415      4436      4437
      4416      4415      4436      4438      4416      4415      4436      4439
      4417      4413      4418      4419      4417      4413      4418      4420
      4417      4413      4418      4428      4417      4415      4432      4428
      4417      4415      4432      4433      4417      4415      4432      4434
      4417      4415      4436      4437      4417      4415      4436      4438
      4417      4415      4436      4439      4418      4420      4422      4423
      4418      4420      4422      4424      4418      4428      4430      4431
      4418      4428      4432      4433      4418      4428      4432      4434
      4419      4418      4420      4421      4419      4418      4420      4422
      4419      4418      4428      4429      4419      4418      4428      4430
      4419      4418      4428      4432      4420      4418      4428      4429
      4420      4418      4428      4430      4420      4418      4428      4432
      4420      4422      4424      4425      4420      4422      4424      4426
      4420      4422      4424      4427      4421      4420      4418      4428
      4421      4420      4422      4423      4421      4420      4422      4424
      4422      4420      4418      4428      4423      4422      4424      4425
      4423      4422      4424      4426      4423      4422      4424      4427
      4428      4432      4415      4436      4428      4432      4434      4435
      4429      4428      4430      4431      4429      4428      4432      4433
      4429      4428      4432      4434      4430      4428      4432      4433
      4430      4428      4432      4434      4431      4430      4428      4432
      4432      4415      4436      4437      4432      4415      4436      4438
      4432      4415      4436      4439      4433      4432      4415      4436
      4433      4432      4434      4435      4434      4432      4415      4436
      4437      4436      4439      4440      4438      4436      4439      4440
      4441      4443      4442      4740      4441      4443      4445      4446
      4441      4443      4445      4447      4441      4443      4445      4454
      4442      4443      4445      4446      4442      4443      4445      4447
      4442      4443      4445      4454      4442      4740      4737      4738
      4442      4740      4737      4739      4442      4740      4743      4741
      4442      4740      4744      4745      4442      4740      4744      4746
      4442      4740      4744      4747      4443      4442      4740      4737
      4443      4442      4740      4743      4443      4442      4740      4744
      4443      4445      4446      4448      4443      4445      4454      4455
      4443      4445      4454      4456      4443      4445      4454      4461
      4444      4443      4442      4740      4444      4443      4445      4446
      4444      4443      4445      4447      4444      4443      4445      4454
      4445      4443      4442      4740      4445      4446      4448      4449
      4445      4446      4448      4450      4445      4446      4448      4469
      4445      4454      4456      4457      4445      4454      4461      4462
      4445      4454      4461      4463      4445      4454      4461      4469
      4446      4445      4454      4455      4446      4445      4454      4456
      4446      4445      4454      4461      4446      4448      4450      4451
      4446      4448      4469      4461      4446      4448      4469      4470
      4446      4448      4469      4471      4447      4445      4446      4448
      4447      4445      4454      4455      4447      4445      4454      4456
      4447      4445      4454      4461      4448      4446      4445      4454
      4448      4450      4451      4452      4448      4450      4451      4453
      4448      4450      4451      4477      4448      4469      4461      4454
      4448      4469      4461      4462      4448      4469      4461      4463
      4448      4469      4471      4472      4448      4469      4471      4578
      4449      4448      4450      4451      4449      4448      4469      4461
      4449      4448      4469      4470      4449      4448      4469      4471
      4450      4448      4469      4461      4450      4448      4469      4470
      4450      4448      4469      4471      4450      4451      4477      4473
      4450      4451      4477      4478      4450      4451      4477      4479
      4451      4450      4448      4469      4451      4477      4473      4474
      4451      4477      4473      4475      4451      4477      4473      4487
      4451      4477      4479      4480      4452      4451      4477      4473
      4452      4451      4477      4478      4452      4451      4477      4479
      4453      4451      4477      4473      4453      4451      4477      4478
      4453      4451      4477      4479      4454      4456      4457      4458
      4454      4456      4457      4459      4454      4456      4457      4460
      4454      4461      4462      4464      4454      4461      4469      4470
      4454      4461      4469      4471      4455      4454      4456      4457
      4455      4454      4461      4462      4455      4454      4461      4463
      4455      4454      4461      4469      4456      4454      4461      4462
      4456      4454      4461      4463      4456      4454      4461      4469
      4457      4456      4454      4461      4461      4462      4464      4465
      4461      4462      4464      4466      4461      4469      4471      4472
      4461      4469      4471      4578      4462      4461      4469      4470
      4462      4461      4469      4471      4462      4464      4466      4467
      4462      4464      4466      4468      4462      4464      4466      4499
      4463      4461      4462      4464      4463      4461      4469      4470
      4463      4461      4469      4471      4464      4462      4461      4469
      4464      4466      4499      4500      4464      4466      4499      4501
      4464      4466      4499      4544      4465      4464      4466      4467
      4465      4464      4466      4468      4465      4464      4466      4499
      4466      4499      4501      4502      4466      4499      4544      4545
      4466      4499      4544      4546      4466      4499      4544      4547
      4467      4466      4499      4500      4467      4466      4499      4501
      4467      4466      4499      4544      4468      4466      4499      4500
      4468      4466      4499      4501      4468      4466      4499      4544
      4469      4471      4578      4579      4469      4471      4578      4580
      4470      4469      4471      4472      4470      4469      4471      4578
      4471      4578      4580      4581      4471      4578      4580      4582
      4471      4578      4580      4583      4472      4471      4578      4579
      4472      4471      4578      4580      4473      4477      4479      4480
      4473      4487      4489      4490      4473      4487      4495      4480
      4473      4487      4495      4496      4473      4487      4495      4497
      4474      4473      4475      4476      4474      4473      4477      4478
      4474      4473      4477      4479      4474      4473      4487      4488
      4474      4473      4487      4489      4474      4473      4487      4495
      4475      4473      4477      4478      4475      4473      4477      4479
      4475      4473      4487      4488      4475      4473      4487      4489
      4475      4473      4487      4495      4476      4475      4473      4477
      4476      4475      4473      4487      4477      4473      4487      4488
      4477      4473      4487      4489      4477      4473      4487      4495
      4477      4479      4480      4481      4477      4479      4480      4482
      4477      4479      4480      4495      4478      4477      4473      4487
      4478      4477      4479      4480      4479      4477      4473      4487
      4479      4480      4482      4486      4479      4480      4495      4487
      4479      4480      4495      4496      4479      4480      4495      4497
      4480      4482      4486      4483      4480      4482      4486      4484
      4480      4482      4486      4485      4480      4495      4487      4488
      4480      4495      4487      4489      4480      4495      4497      4498
      4480      4495      4497      4694      4481      4480      4482      4486
      4481      4480      4495      4487      4481      4480      4495      4496
      4481      4480      4495      4497      4482      4480      4495      4487
      4482      4480      4495      4496      4482      4480      4495      4497
      4486      4482      4480      4495      4487      4489      4490      4491
      4487      4489      4490      4492      4487      4495      4497      4498
      4487      4495      4497      4694      4488      4487      4489      4490
      4488      4487      4495      4496      4488      4487      4495      4497
      4489      4487      4495      4496      4489      4487      4495      4497
      4489      4490      4492      4493      4489      4490      4492      4494
      4489      4490      4492      4656      4490      4489      4487      4495
      4490      4492      4656      4657      4490      4492      4656      4658
      4490      4492      4656      4660      4491      4490      4492      4493
      4491      4490      4492      4494      4491      4490      4492      4656
      4492      4656      4658      4659      4492      4656      4660      4661
      4492      4656      4660      4662      4492      4656      4660      4663
      4493      4492      4656      4657      4493      4492      4656      4658
      4493      4492      4656      4660      4494      4492      4656      4657
      4494      4492      4656      4658      4494      4492      4656      4660
      4495      4497      4694      4695      4495      4497      4694      4696
      4496      4495      4497      4498      4496      4495      4497      4694
      4497      4694      4696      4697      4497      4694      4696      4698
      4497      4694      4696      4699      4498      4497      4694      4695
      4498      4497      4694      4696      4499      4501      4502      4503
      4499      4501      4502      4504      4499      4544      4547      4548
      4499      4544      4547      4549      4499      4544      4547      4550
      4500      4499      4501      4502      4500      4499      4544      4545
      4500      4499      4544      4546      4500      4499      4544      4547
      4501      4499      4544      4545      4501      4499      4544      4546
      4501      4499      4544      4547      4501      4502      4504      4505
      4501      4502      4504      4506      4501      4502      4504      4507
      4502      4501      4499      4544      4502      4504      4507      4508
      4502      4504      4507      4509      4502      4504      4507      4510
      4503      4502      4504      4505      4503      4502      4504      4506
      4503      4502      4504      4507      4504      4507      4510      4511
      4504      4507      4510      4512      4504      4507      4510      4513
      4505      4504      4507      4508      4505      4504      4507      4509
      4505      4504      4507      4510      4506      4504      4507      4508
      4506      4504      4507      4509      4506      4504      4507      4510
      4507      4510      4513      4514      4507      4510      4513      4515
      4507      4510      4513      4516      4508      4507      4510      4511
      4508      4507      4510      4512      4508      4507      4510      4513
      4509      4507      4510      4511      4509      4507      4510      4512
      4509      4507      4510      4513      4510      4513      4516      4517
      4510      4513      4516      4518      4510      4513      4516      4519
      4511      4510      4513      4514      4511      4510      4513      4515
      4511      4510      4513      4516      4512      4510      4513      4514
      4512      4510      4513      4515      4512      4510      4513      4516
      4513      4516      4519      4520      4513      4516      4519      4521
      4513      4516      4519      4522      4514      4513      4516      4517
      4514      4513      4516      4518      4514      4513      4516      4519
      4515      4513      4516      4517      4515      4513      4516      4518
      4515      4513      4516      4519      4516      4519      4522      4523
      4516      4519      4522      4524      4516      4519      4522      4525
      4517      4516      4519      4520      4517      4516      4519      4521
      4517      4516      4519      4522      4518      4516      4519      4520
      4518      4516      4519      4521      4518      4516      4519      4522
      4519      4522      4525      4526      4519      4522      4525      4527
      4519      4522      4525      4528      4520      4519      4522      4523
      4520      4519      4522      4524      4520      4519      4522      4525
      4521      4519      4522      4523      4521      4519      4522      4524
      4521      4519      4522      4525      4522      4525      4528      4529
      4522      4525      4528      4530      4522      4525      4528      4531
      4523      4522      4525      4526      4523      4522      4525      4527
      4523      4522      4525      4528      4524      4522      4525      4526
      4524      4522      4525      4527      4524      4522      4525      4528
      4525      4528      4531      4532      4525      4528      4531      4533
      4525      4528      4531      4534      4526      4525      4528      4529
      4526      4525      4528      4530      4526      4525      4528      4531
      4527      4525      4528      4529      4527      4525      4528      4530
      4527      4525      4528      4531      4528      4531      4534      4535
      4528      4531      4534      4536      4528      4531      4534      4537
      4529      4528      4531      4532      4529      4528      4531      4533
      4529      4528      4531      4534      4530      4528      4531      4532
      4530      4528      4531      4533      4530      4528      4531      4534
      4531      4534      4537      4538      4531      4534      4537      4539
      4531      4534      4537      4540      4532      4531      4534      4535
      4532      4531      4534      4536      4532      4531      4534      4537
      4533      4531      4534      4535      4533      4531      4534      4536
      4533      4531      4534      4537      4534      4537      4540      4541
      4534      4537      4540      4542      4534      4537      4540      4543
      4535      4534      4537      4538      4535      4534      4537      4539
      4535      4534      4537      4540      4536      4534      4537      4538
      4536      4534      4537      4539      4536      4534      4537      4540
      4538      4537      4540      4541      4538      4537      4540      4542
      4538      4537      4540      4543      4539      4537      4540      4541
      4539      4537      4540      4542      4539      4537      4540      4543
      4544      4547      4550      4551      4544      4547      4550      4552
      4544      4547      4550      4553      4545      4544      4547      4548
      4545      4544      4547      4549      4545      4544      4547      4550
      4546      4544      4547      4548      4546      4544      4547      4549
      4546      4544      4547      4550      4547      4550      4553      4554
      4547      4550      4553      4555      4547      4550      4553      4556
      4548      4547      4550      4551      4548      4547      4550      4552
      4548      4547      4550      4553      4549      4547      4550      4551
      4549      4547      4550      4552      4549      4547      4550      4553
      4550      4553      4556      4557      4550      4553      4556      4558
      4550      4553      4556      4559      4551      4550      4553      4554
      4551      4550      4553      4555      4551      4550      4553      4556
      4552      4550      4553      4554      4552      4550      4553      4555
      4552      4550      4553      4556      4553      4556      4559      4560
      4553      4556      4559      4561      4553      4556      4559      4562
      4554      4553      4556      4557      4554      4553      4556      4558
      4554      4553      4556      4559      4555      4553      4556      4557
      4555      4553      4556      4558      4555      4553      4556      4559
      4556      4559      4562      4563      4556      4559      4562      4564
      4556      4559      4562      4565      4557      4556      4559      4560
      4557      4556      4559      4561      4557      4556      4559      4562
      4558      4556      4559      4560      4558      4556      4559      4561
      4558      4556      4559      4562      4559      4562      4565      4566
      4559      4562      4565      4567      4559      4562      4565      4568
      4560      4559      4562      4563      4560      4559      4562      4564
      4560      4559      4562      4565      4561      4559      4562      4563
      4561      4559      4562      4564      4561      4559      4562      4565
      4562      4565      4568      4569      4562      4565      4568      4570
      4562      4565      4568      4571      4563      4562      4565      4566
      4563      4562      4565      4567      4563      4562      4565      4568
      4564      4562      4565      4566      4564      4562      4565      4567
      4564      4562      4565      4568      4565      4568      4571      4572
      4565      4568      4571      4573      4565      4568      4571      4574
      4566      4565      4568      4569      4566      4565      4568      4570
      4566      4565      4568      4571      4567      4565      4568      4569
      4567      4565      4568      4570      4567      4565      4568      4571
      4568      4571      4574      4575      4568      4571      4574      4576
      4568      4571      4574      4577      4569      4568      4571      4572
      4569      4568      4571      4573      4569      4568      4571      4574
      4570      4568      4571      4572      4570      4568      4571      4573
      4570      4568      4571      4574      4572      4571      4574      4575
      4572      4571      4574      4576      4572      4571      4574      4577
      4573      4571      4574      4575      4573      4571      4574      4576
      4573      4571      4574      4577      4578      4580      4583      4584
      4578      4580      4583      4585      4578      4580      4583      4622
      4579      4578      4580      4581      4579      4578      4580      4582
      4579      4578      4580      4583      4580      4583      4585      4586
      4580      4583      4622      4623      4580      4583      4622      4624
      4580      4583      4622      4625      4581      4580      4583      4584
      4581      4580      4583      4585      4581      4580      4583      4622
      4582      4580      4583      4584      4582      4580      4583      4585
      4582      4580      4583      4622      4583      4585      4586      4587
      4583      4585      4586      4588      4583      4622      4625      4626
      4583      4622      4625      4627      4583      4622      4625      4628
      4584      4583      4585      4586      4584      4583      4622      4623
      4584      4583      4622      4624      4584      4583      4622      4625
      4585      4583      4622      4623      4585      4583      4622      4624
      4585      4583      4622      4625      4585      4586      4588      4589
      4585      4586      4588      4590      4585      4586      4588      4591
      4586      4585      4583      4622      4586      4588      4591      4592
      4586      4588      4591      4593      4586      4588      4591      4594
      4587      4586      4588      4589      4587      4586      4588      4590
      4587      4586      4588      4591      4588      4591      4594      4595
      4588      4591      4594      4596      4588      4591      4594      4597
      4589      4588      4591      4592      4589      4588      4591      4593
      4589      4588      4591      4594      4590      4588      4591      4592
      4590      4588      4591      4593      4590      4588      4591      4594
      4591      4594      4597      4598      4591      4594      4597      4599
      4591      4594      4597      4600      4592      4591      4594      4595
      4592      4591      4594      4596      4592      4591      4594      4597
      4593      4591      4594      4595      4593      4591      4594      4596
      4593      4591      4594      4597      4594      4597      4600      4601
      4594      4597      4600      4602      4594      4597      4600      4603
      4595      4594      4597      4598      4595      4594      4597      4599
      4595      4594      4597      4600      4596      4594      4597      4598
      4596      4594      4597      4599      4596      4594      4597      4600
      4597      4600      4603      4604      4597      4600      4603      4605
      4597      4600      4603      4606      4598      4597      4600      4601
      4598      4597      4600      4602      4598      4597      4600      4603
      4599      4597      4600      4601      4599      4597      4600      4602
      4599      4597      4600      4603      4600      4603      4606      4607
      4600      4603      4606      4608      4600      4603      4606      4609
      4601      4600      4603      4604      4601      4600      4603      4605
      4601      4600      4603      4606      4602      4600      4603      4604
      4602      4600      4603      4605      4602      4600      4603      4606
      4603      4606      4609      4610      4603      4606      4609      4611
      4603      4606      4609      4612      4604      4603      4606      4607
      4604      4603      4606      4608      4604      4603      4606      4609
      4605      4603      4606      4607      4605      4603      4606      4608
      4605      4603      4606      4609      4606      4609      4612      4613
      4606      4609      4612      4614      4606      4609      4612      4615
      4607      4606      4609      4610      4607      4606      4609      4611
      4607      4606      4609      4612      4608      4606      4609      4610
      4608      4606      4609      4611      4608      4606      4609      4612
      4609      4612      4615      4616      4609      4612      4615      4617
      4609      4612      4615      4618      4610      4609      4612      4613
      4610      4609      4612      4614      4610      4609      4612      4615
      4611      4609      4612      4613      4611      4609      4612      4614
      4611      4609      4612      4615      4612      4615      4618      4619
      4612      4615      4618      4620      4612      4615      4618      4621
      4613      4612      4615      4616      4613      4612      4615      4617
      4613      4612      4615      4618      4614      4612      4615      4616
      4614      4612      4615      4617      4614      4612      4615      4618
      4616      4615      4618      4619      4616      4615      4618      4620
      4616      4615      4618      4621      4617      4615      4618      4619
      4617      4615      4618      4620      4617      4615      4618      4621
      4622      4625      4628      4629      4622      4625      4628      4630
      4622      4625      4628      4631      4623      4622      4625      4626
      4623      4622      4625      4627      4623      4622      4625      4628
      4624      4622      4625      4626      4624      4622      4625      4627
      4624      4622      4625      4628      4625      4628      4631      4632
      4625      4628      4631      4633      4625      4628      4631      4634
      4626      4625      4628      4629      4626      4625      4628      4630
      4626      4625      4628      4631      4627      4625      4628      4629
      4627      4625      4628      4630      4627      4625      4628      4631
      4628      4631      4634      4635      4628      4631      4634      4636
      4628      4631      4634      4637      4629      4628      4631      4632
      4629      4628      4631      4633      4629      4628      4631      4634
      4630      4628      4631      4632      4630      4628      4631      4633
      4630      4628      4631      4634      4631      4634      4637      4638
      4631      4634      4637      4639      4631      4634      4637      4640
      4632      4631      4634      4635      4632      4631      4634      4636
      4632      4631      4634      4637      4633      4631      4634      4635
      4633      4631      4634      4636      4633      4631      4634      4637
      4634      4637      4640      4641      4634      4637      4640      4642
      4634      4637      4640      4643      4635      4634      4637      4638
      4635      4634      4637      4639      4635      4634      4637      4640
      4636      4634      4637      4638      4636      4634      4637      4639
      4636      4634      4637      4640      4637      4640      4643      4644
      4637      4640      4643      4645      4637      4640      4643      4646
      4638      4637      4640      4641      4638      4637      4640      4642
      4638      4637      4640      4643      4639      4637      4640      4641
      4639      4637      4640      4642      4639      4637      4640      4643
      4640      4643      4646      4647      4640      4643      4646      4648
      4640      4643      4646      4649      4641      4640      4643      4644
      4641      4640      4643      4645      4641      4640      4643      4646
      4642      4640      4643      4644      4642      4640      4643      4645
      4642      4640      4643      4646      4643      4646      4649      4650
      4643      4646      4649      4651      4643      4646      4649      4652
      4644      4643      4646      4647      4644      4643      4646      4648
      4644      4643      4646      4649      4645      4643      4646      4647
      4645      4643      4646      4648      4645      4643      4646      4649
      4646      4649      4652      4653      4646      4649      4652      4654
      4646      4649      4652      4655      4647      4646      4649      4650
      4647      4646      4649      4651      4647      4646      4649      4652
      4648      4646      4649      4650      4648      4646      4649      4651
      4648      4646      4649      4652      4650      4649      4652      4653
      4650      4649      4652      4654      4650      4649      4652      4655
      4651      4649      4652      4653      4651      4649      4652      4654
      4651      4649      4652      4655      4656      4660      4663      4664
      4656      4660      4663      4665      4656      4660      4663      4666
      4657      4656      4658      4659      4657      4656      4660      4661
      4657      4656      4660      4662      4657      4656      4660      4663
      4658      4656      4660      4661      4658      4656      4660      4662
      4658      4656      4660      4663      4659      4658      4656      4660
      4660      4663      4666      4667      4660      4663      4666      4668
      4660      4663      4666      4669      4661      4660      4663      4664
      4661      4660      4663      4665      4661      4660      4663      4666
      4662      4660      4663      4664      4662      4660      4663      4665
      4662      4660      4663      4666      4663      4666      4669      4670
      4663      4666      4669      4671      4663      4666      4669      4672
      4664      4663      4666      4667      4664      4663      4666      4668
      4664      4663      4666      4669      4665      4663      4666      4667
      4665      4663      4666      4668      4665      4663      4666      4669
      4666      4669      4672      4673      4666      4669      4672      4674
      4666      4669      4672      4675      4667      4666      4669      4670
      4667      4666      4669      4671      4667      4666      4669      4672
      4668      4666      4669      4670      4668      4666      4669      4671
      4668      4666      4669      4672      4669      4672      4675      4676
      4669      4672      4675      4677      4669      4672      4675      4678
      4670      4669      4672      4673      4670      4669      4672      4674
      4670      4669      4672      4675      4671      4669      4672      4673
      4671      4669      4672      4674      4671      4669      4672      4675
      4672      4675      4678      4679      4672      4675      4678      4680
      4672      4675      4678      4681      4673      4672      4675      4676
      4673      4672      4675      4677      4673      4672      4675      4678
      4674      4672      4675      4676      4674      4672      4675      4677
      4674      4672      4675      4678      4675      4678      4681      4682
      4675      4678      4681      4683      4675      4678      4681      4684
      4676      4675      4678      4679      4676      4675      4678      4680
      4676      4675      4678      4681      4677      4675      4678      4679
      4677      4675      4678      4680      4677      4675      4678      4681
      4678      4681      4684      4685      4678      4681      4684      4686
      4678      4681      4684      4687      4679      4678      4681      4682
      4679      4678      4681      4683      4679      4678      4681      4684
      4680      4678      4681      4682      4680      4678      4681      4683
      4680      4678      4681      4684      4681      4684      4687      4688
      4681      4684      4687      4689      4681      4684      4687      4690
      4682      4681      4684      4685      4682      4681      4684      4686
      4682      4681      4684      4687      4683      4681      4684      4685
      4683      4681      4684      4686      4683      4681      4684      4687
      4684      4687      4690      4691      4684      4687      4690      4692
      4684      4687      4690      4693      4685      4684      4687      4688
      4685      4684      4687      4689      4685      4684      4687      4690
      4686      4684      4687      4688      4686      4684      4687      4689
      4686      4684      4687      4690      4688      4687      4690      4691
      4688      4687      4690      4692      4688      4687      4690      4693
      4689      4687      4690      4691      4689      4687      4690      4692
      4689      4687      4690      4693      4694      4696      4699      4700
      4694      4696      4699      4701      4694      4696      4699      4703
      4695      4694      4696      4697      4695      4694      4696      4698
      4695      4694      4696      4699      4696      4699      4701      4702
      4696      4699      4703      4704      4696      4699      4703      4705
      4696      4699      4703      4706      4697      4696      4699      4700
      4697      4696      4699      4701      4697      4696      4699      4703
      4698      4696      4699      4700      4698      4696      4699      4701
      4698      4696      4699      4703      4699      4703      4706      4707
      4699      4703      4706      4708      4699      4703      4706      4709
      4700      4699      4701      4702      4700      4699      4703      4704
      4700      4699      4703      4705      4700      4699      4703      4706
      4701      4699      4703      4704      4701      4699      4703      4705
      4701      4699      4703      4706      4702      4701      4699      4703
      4703      4706      4709      4710      4703      4706      4709      4711
      4703      4706      4709      4712      4704      4703      4706      4707
      4704      4703      4706      4708      4704      4703      4706      4709
      4705      4703      4706      4707      4705      4703      4706      4708
      4705      4703      4706      4709      4706      4709      4712      4713
      4706      4709      4712      4714      4706      4709      4712      4715
      4707      4706      4709      4710      4707      4706      4709      4711
      4707      4706      4709      4712      4708      4706      4709      4710
      4708      4706      4709      4711      4708      4706      4709      4712
      4709      4712      4715      4716      4709      4712      4715      4717
      4709      4712      4715      4718      4710      4709      4712      4713
      4710      4709      4712      4714      4710      4709      4712      4715
      4711      4709      4712      4713      4711      4709      4712      4714
      4711      4709      4712      4715      4712      4715      4718      4719
      4712      4715      4718      4720      4712      4715      4718      4721
      4713      4712      4715      4716      4713      4712      4715      4717
      4713      4712      4715      4718      4714      4712      4715      4716
      4714      4712      4715      4717      4714      4712      4715      4718
      4715      4718      4721      4722      4715      4718      4721      4723
      4715      4718      4721      4724      4716      4715      4718      4719
      4716      4715      4718      4720      4716      4715      4718      4721
      4717      4715      4718      4719      4717      4715      4718      4720
      4717      4715      4718      4721      4718      4721      4724      4725
      4718      4721      4724      4726      4718      4721      4724      4727
      4719      4718      4721      4722      4719      4718      4721      4723
      4719      4718      4721      4724      4720      4718      4721      4722
      4720      4718      4721      4723      4720      4718      4721      4724
      4721      4724      4727      4728      4721      4724      4727      4729
      4721      4724      4727      4730      4722      4721      4724      4725
      4722      4721      4724      4726      4722      4721      4724      4727
      4723      4721      4724      4725      4723      4721      4724      4726
      4723      4721      4724      4727      4724      4727      4730      4731
      4724      4727      4730      4732      4724      4727      4730      4733
      4725      4724      4727      4728      4725      4724      4727      4729
      4725      4724      4727      4730      4726      4724      4727      4728
      4726      4724      4727      4729      4726      4724      4727      4730
      4727      4730      4733      4734      4727      4730      4733      4735
      4727      4730      4733      4736      4728      4727      4730      4731
      4728      4727      4730      4732      4728      4727      4730      4733
      4729      4727      4730      4731      4729      4727      4730      4732
      4729      4727      4730      4733      4731      4730      4733      4734
      4731      4730      4733      4735      4731      4730      4733      4736
      4732      4730      4733      4734      4732      4730      4733      4735
      4732      4730      4733      4736      4737      4740      4743      4741
      4737      4740      4744      4745      4737      4740      4744      4746
      4737      4740      4744      4747      4738      4737      4740      4743
      4738      4737      4740      4744      4739      4737      4740      4743
      4739      4737      4740      4744      4740      4743      4741      4742
      4740      4743      4741      4750      4740      4743      4741      4753
      4740      4744      4747      4748      4740      4744      4747      4749
      4740      4744      4747      4750      4741      4743      4740      4744
      4741      4750      4747      4744      4741      4750      4747      4748
      4741      4750      4747      4749      4741      4750      4752      4789
      4741      4753      4755      4756      4741      4753      4757      4758
      4741      4753      4757      4759      4741      4753      4757      4760
      4742      4741      4750      4747      4742      4741      4750      4751
      4742      4741      4750      4752      4742      4741      4753      4754
      4742      4741      4753      4755      4742      4741      4753      4757
      4743      4740      4744      4745      4743      4740      4744      4746
      4743      4740      4744      4747      4743      4741      4750      4747
      4743      4741      4750      4751      4743      4741      4750      4752
      4743      4741      4753      4754      4743      4741      4753      4755
      4743      4741      4753      4757      4744      4747      4749      4765
      4744      4747      4750      4751      4744      4747      4750      4752
      4745      4744      4747      4748      4745      4744      4747      4749
      4745      4744      4747      4750      4746      4744      4747      4748
      4746      4744      4747      4749      4746      4744      4747      4750
      4747      4749      4765      4762      4747      4749      4765      4768
      4747      4749      4765      4769      4747      4750      4741      4753
      4747      4750      4752      4789      4748      4747      4749      4765
      4748      4747      4750      4751      4748      4747      4750      4752
      4749      4747      4750      4751      4749      4747      4750      4752
      4749      4765      4762      4763      4749      4765      4762      4764
      4749      4765      4768      4766      4749      4765      4769      4770
      4749      4765      4769      4771      4749      4765      4769      4772
      4750      4741      4753      4754      4750      4741      4753      4755
      4750      4741      4753      4757      4750      4747      4749      4765
      4750      4752      4789      4790      4750      4752      4789      4793
      4750      4752      4789      4794      4751      4750      4741      4753
      4751      4750      4752      4789      4752      4750      4741      4753
      4752      4789      4793      4791      4752      4789      4794      4795
      4752      4789      4794      4796      4752      4789      4794      4798
      4753      4757      4760      4761      4754      4753      4755      4756
      4754      4753      4757      4758      4754      4753      4757      4759
      4754      4753      4757      4760      4755      4753      4757      4758
      4755      4753      4757      4759      4755      4753      4757      4760
      4756      4755      4753      4757      4758      4757      4760      4761
      4759      4757      4760      4761      4762      4765      4768      4766
      4762      4765      4769      4770      4762      4765      4769      4771
      4762      4765      4769      4772      4763      4762      4765      4768
      4763      4762      4765      4769      4764      4762      4765      4768
      4764      4762      4765      4769      4765      4768      4766      4767
      4765      4768      4766      4776      4765      4768      4766      4780
      4765      4769      4772      4773      4765      4769      4772      4774
      4765      4769      4772      4776      4766      4768      4765      4769
      4766      4776      4772      4769      4766      4776      4772      4773
      4766      4776      4772      4774      4766      4776      4778      4779
      4766      4780      4782      4783      4766      4780      4784      4785
      4766      4780      4784      4786      4766      4780      4784      4787
      4767      4766      4776      4772      4767      4766      4776      4777
      4767      4766      4776      4778      4767      4766      4780      4781
      4767      4766      4780      4782      4767      4766      4780      4784
      4768      4765      4769      4770      4768      4765      4769      4771
      4768      4765      4769      4772      4768      4766      4776      4772
      4768      4766      4776      4777      4768      4766      4776      4778
      4768      4766      4780      4781      4768      4766      4780      4782
      4768      4766      4780      4784      4769      4772      4774      4775
      4769      4772      4776      4777      4769      4772      4776      4778
      4770      4769      4772      4773      4770      4769      4772      4774
      4770      4769      4772      4776      4771      4769      4772      4773
      4771      4769      4772      4774      4771      4769      4772      4776
      4772      4776      4766      4780      4772      4776      4778      4779
      4773      4772      4774      4775      4773      4772      4776      4777
      4773      4772      4776      4778      4774      4772      4776      4777
      4774      4772      4776      4778      4775      4774      4772      4776
      4776      4766      4780      4781      4776      4766      4780      4782
      4776      4766      4780      4784      4777      4776      4766      4780
      4777      4776      4778      4779      4778      4776      4766      4780
      4780      4784      4787      4788      4781      4780      4782      4783
      4781      4780      4784      4785      4781      4780      4784      4786
      4781      4780      4784      4787      4782      4780      4784      4785
      4782      4780      4784      4786      4782      4780      4784      4787
      4783      4782      4780      4784      4785      4784      4787      4788
      4786      4784      4787      4788      4789      4793      4791      4792
      4789      4793      4791      4801      4789      4793      4791      4808
      4789      4794      4796      4797      4789      4794      4798      4799
      4789      4794      4798      4800      4789      4794      4798      4801
      4790      4789      4793      4791      4790      4789      4794      4795
      4790      4789      4794      4796      4790      4789      4794      4798
      4791      4793      4789      4794      4791      4801      4798      4794
      4791      4801      4798      4799      4791      4801      4798      4800
      4791      4801      4803      4804      4791      4808      4810      4811
      4791      4808      4812      4813      4791      4808      4812      4814
      4791      4808      4812      4815      4792      4791      4801      4798
      4792      4791      4801      4802      4792      4791      4801      4803
      4792      4791      4808      4809      4792      4791      4808      4810
      4792      4791      4808      4812      4793      4789      4794      4795
      4793      4789      4794      4796      4793      4789      4794      4798
      4793      4791      4801      4798      4793      4791      4801      4802
      4793      4791      4801      4803      4793      4791      4808      4809
      4793      4791      4808      4810      4793      4791      4808      4812
      4794      4798      4800      4817      4794      4798      4801      4802
      4794      4798      4801      4803      4795      4794      4796      4797
      4795      4794      4798      4799      4795      4794      4798      4800
      4795      4794      4798      4801      4796      4794      4798      4799
      4796      4794      4798      4800      4796      4794      4798      4801
      4797      4796      4794      4798      4798      4800      4817      4818
      4798      4800      4817      4821      4798      4800      4817      4822
      4798      4801      4791      4808      4798      4801      4803      4804
      4799      4798      4800      4817      4799      4798      4801      4802
      4799      4798      4801      4803      4800      4798      4801      4802
      4800      4798      4801      4803      4800      4817      4821      4819
      4800      4817      4822      4823      4800      4817      4822      4824
      4800      4817      4822      4826      4801      4791      4808      4809
      4801      4791      4808      4810      4801      4791      4808      4812
      4801      4798      4800      4817      4801      4803      4804      4805
      4801      4803      4804      4806      4801      4803      4804      4807
      4802      4801      4791      4808      4802      4801      4803      4804
      4803      4801      4791      4808      4808      4812      4815      4816
      4809      4808      4810      4811      4809      4808      4812      4813
      4809      4808      4812      4814      4809      4808      4812      4815
      4810      4808      4812      4813      4810      4808      4812      4814
      4810      4808      4812      4815      4811      4810      4808      4812
      4813      4812      4815      4816      4814      4812      4815      4816
      4817      4821      4819      4820      4817      4821      4819      4829
      4817      4821      4819      4836      4817      4822      4824      4825
      4817      4822      4826      4827      4817      4822      4826      4828
      4817      4822      4826      4829      4818      4817      4821      4819
      4818      4817      4822      4823      4818      4817      4822      4824
      4818      4817      4822      4826      4819      4821      4817      4822
      4819      4829      4826      4822      4819      4829      4826      4827
      4819      4829      4826      4828      4819      4829      4831      4832
      4819      4836      4838      4839      4819      4836      4840      4841
      4819      4836      4840      4842      4819      4836      4840      4843
      4820      4819      4829      4826      4820      4819      4829      4830
      4820      4819      4829      4831      4820      4819      4836      4837
      4820      4819      4836      4838      4820      4819      4836      4840
      4821      4817      4822      4823      4821      4817      4822      4824
      4821      4817      4822      4826      4821      4819      4829      4826
      4821      4819      4829      4830      4821      4819      4829      4831
      4821      4819      4836      4837      4821      4819      4836      4838
      4821      4819      4836      4840      4822      4826      4828      4870
      4822      4826      4829      4830      4822      4826      4829      4831
      4823      4822      4824      4825      4823      4822      4826      4827
      4823      4822      4826      4828      4823      4822      4826      4829
      4824      4822      4826      4827      4824      4822      4826      4828
      4824      4822      4826      4829      4825      4824      4822      4826
      4826      4828      4870      4871      4826      4828      4870      4874
      4826      4828      4870      4875      4826      4829      4819      4836
      4826      4829      4831      4832      4827      4826      4828      4870
      4827      4826      4829      4830      4827      4826      4829      4831
      4828      4826      4829      4830      4828      4826      4829      4831
      4828      4870      4874      4872      4828      4870      4875      4876
      4828      4870      4875      4877      4828      4870      4875      4879
      4829      4819      4836      4837      4829      4819      4836      4838
      4829      4819      4836      4840      4829      4826      4828      4870
      4829      4831      4832      4833      4829      4831      4832      4834
      4829      4831      4832      4835      4830      4829      4819      4836
      4830      4829      4831      4832      4831      4829      4819      4836
      4836      4840      4843      4844      4837      4836      4838      4839
      4837      4836      4840      4841      4837      4836      4840      4842
      4837      4836      4840      4843      4838      4836      4840      4841
      4838      4836      4840      4842      4838      4836      4840      4843
      4839      4838      4836      4840      4840      4843      4844      4845
      4840      4843      4844      4848      4840      4843      4844      4849
      4841      4840      4843      4844      4842      4840      4843      4844
      4843      4844      4848      4846      4843      4844      4849      4850
      4843      4844      4849      4851      4843      4844      4849      4853
      4844      4848      4846      4847      4844      4848      4846      4857
      4844      4848      4846      4861      4844      4849      4851      4852
      4844      4849      4853      4854      4844      4849      4853      4855
      4844      4849      4853      4857      4845      4844      4848      4846
      4845      4844      4849      4850      4845      4844      4849      4851
      4845      4844      4849      4853      4846      4848      4844      4849
      4846      4857      4853      4849      4846      4857      4853      4854
      4846      4857      4853      4855      4846      4857      4859      4860
      4846      4861      4863      4864      4846      4861      4865      4866
      4846      4861      4865      4867      4846      4861      4865      4868
      4847      4846      4857      4853      4847      4846      4857      4858
      4847      4846      4857      4859      4847      4846      4861      4862
      4847      4846      4861      4863      4847      4846      4861      4865
      4848      4844      4849      4850      4848      4844      4849      4851
      4848      4844      4849      4853      4848      4846      4857      4853
      4848      4846      4857      4858      4848      4846      4857      4859
      4848      4846      4861      4862      4848      4846      4861      4863
      4848      4846      4861      4865      4849      4853      4855      4856
      4849      4853      4857      4858      4849      4853      4857      4859
      4850      4849      4851      4852      4850      4849      4853      4854
      4850      4849      4853      4855      4850      4849      4853      4857
      4851      4849      4853      4854      4851      4849      4853      4855
      4851      4849      4853      4857      4852      4851      4849      4853
      4853      4857      4846      4861      4853      4857      4859      4860
      4854      4853      4855      4856      4854      4853      4857      4858
      4854      4853      4857      4859      4855      4853      4857      4858
      4855      4853      4857      4859      4856      4855      4853      4857
      4857      4846      4861      4862      4857      4846      4861      4863
      4857      4846      4861      4865      4858      4857      4846      4861
      4858      4857      4859      4860      4859      4857      4846      4861
      4861      4865      4868      4869      4862      4861      4863      4864
      4862      4861      4865      4866      4862      4861      4865      4867
      4862      4861      4865      4868      4863      4861      4865      4866
      4863      4861      4865      4867      4863      4861      4865      4868
      4864      4863      4861      4865      4866      4865      4868      4869
      4867      4865      4868      4869      4870      4874      4872      4873
      4870      4874      4872      4882      4870      4874      4872      4886
      4870      4875      4877      4878      4870      4875      4879      4880
      4870      4875      4879      4881      4870      4875      4879      4882
      4871      4870      4874      4872      4871      4870      4875      4876
      4871      4870      4875      4877      4871      4870      4875      4879
      4872      4874      4870      4875      4872      4882      4879      4875
      4872      4882      4879      4880      4872      4882      4879      4881
      4872      4882      4884      4885      4872      4886      4889      4890
      4873      4872      4882      4879      4873      4872      4882      4883
      4873      4872      4882      4884      4873      4872      4886      4887
      4873      4872      4886      4888      4873      4872      4886      4889
      4874      4870      4875      4876      4874      4870      4875      4877
      4874      4870      4875      4879      4874      4872      4882      4879
      4874      4872      4882      4883      4874      4872      4882      4884
      4874      4872      4886      4887      4874      4872      4886      4888
      4874      4872      4886      4889      4875      4879      4881      4891
      4875      4879      4882      4883      4875      4879      4882      4884
      4876      4875      4877      4878      4876      4875      4879      4880
      4876      4875      4879      4881      4876      4875      4879      4882
      4877      4875      4879      4880      4877      4875      4879      4881
      4877      4875      4879      4882      4878      4877      4875      4879
      4879      4881      4891      4892      4879      4881      4891      4895
      4879      4881      4891      4896      4879      4882      4872      4886
      4879      4882      4884      4885      4880      4879      4881      4891
      4880      4879      4882      4883      4880      4879      4882      4884
      4881      4879      4882      4883      4881      4879      4882      4884
      4881      4891      4895      4893      4881      4891      4896      4897
      4881      4891      4896      4898      4881      4891      4896      4899
      4882      4872      4886      4887      4882      4872      4886      4888
      4882      4872      4886      4889      4882      4879      4881      4891
      4883      4882      4872      4886      4883      4882      4884      4885
      4884      4882      4872      4886      4887      4886      4889      4890
      4888      4886      4889      4890      4891      4895      4893      4894
      4891      4895      4893      4902      4891      4895      4893      4906
      4891      4896      4898      4911      4891      4896      4899      4900
      4891      4896      4899      4901      4891      4896      4899      4902
      4892      4891      4895      4893      4892      4891      4896      4897
      4892      4891      4896      4898      4892      4891      4896      4899
      4893      4895      4891      4896      4893      4902      4899      4896
      4893      4902      4899      4900      4893      4902      4899      4901
      4893      4902      4904      4905      4893      4906      4909      4910
      4894      4893      4902      4899      4894      4893      4902      4903
      4894      4893      4902      4904      4894      4893      4906      4907
      4894      4893      4906      4908      4894      4893      4906      4909
      4895      4891      4896      4897      4895      4891      4896      4898
      4895      4891      4896      4899      4895      4893      4902      4899
      4895      4893      4902      4903      4895      4893      4902      4904
      4895      4893      4906      4907      4895      4893      4906      4908
      4895      4893      4906      4909      4896      4898      4911      4912
      4896      4898      4911      4915      4896      4898      4911      4916
      4896      4899      4901      4954      4896      4899      4902      4903
      4896      4899      4902      4904      4897      4896      4898      4911
      4897      4896      4899      4900      4897      4896      4899      4901
      4897      4896      4899      4902      4898      4896      4899      4900
      4898      4896      4899      4901      4898      4896      4899      4902
      4898      4911      4915      4913      4898      4911      4916      4917
      4898      4911      4916      4918      4898      4911      4916      4919
      4899      4896      4898      4911      4899      4901      4954      4955
      4899      4901      4954      4958      4899      4901      4954      4959
      4899      4902      4893      4906      4899      4902      4904      4905
      4900      4899      4901      4954      4900      4899      4902      4903
      4900      4899      4902      4904      4901      4899      4902      4903
      4901      4899      4902      4904      4901      4954      4958      4956
      4901      4954      4959      4960      4901      4954      4959      4961
      4901      4954      4959      4963      4902      4893      4906      4907
      4902      4893      4906      4908      4902      4893      4906      4909
      4902      4899      4901      4954      4903      4902      4893      4906
      4903      4902      4904      4905      4904      4902      4893      4906
      4907      4906      4909      4910      4908      4906      4909      4910
      4911      4915      4913      4914      4911      4915      4913      4923
      4911      4915      4913      4927      4911      4916      4918      4932
      4911      4916      4919      4920      4911      4916      4919      4921
      4911      4916      4919      4923      4912      4911      4915      4913
      4912      4911      4916      4917      4912      4911      4916      4918
      4912      4911      4916      4919      4913      4915      4911      4916
      4913      4923      4919      4916      4913      4923      4919      4920
      4913      4923      4919      4921      4913      4923      4925      4926
      4913      4927      4930      4931      4914      4913      4923      4919
      4914      4913      4923      4924      4914      4913      4923      4925
      4914      4913      4927      4928      4914      4913      4927      4929
      4914      4913      4927      4930      4915      4911      4916      4917
      4915      4911      4916      4918      4915      4911      4916      4919
      4915      4913      4923      4919      4915      4913      4923      4924
      4915      4913      4923      4925      4915      4913      4927      4928
      4915      4913      4927      4929      4915      4913      4927      4930
      4916      4918      4932      4933      4916      4918      4932      4936
      4916      4918      4932      4937      4916      4919      4921      4922
      4916      4919      4923      4924      4916      4919      4923      4925
      4917      4916      4918      4932      4917      4916      4919      4920
      4917      4916      4919      4921      4917      4916      4919      4923
      4918      4916      4919      4920      4918      4916      4919      4921
      4918      4916      4919      4923      4918      4932      4936      4934
      4918      4932      4937      4938      4918      4932      4937      4939
      4918      4932      4937      4941      4919      4916      4918      4932
      4919      4923      4913      4927      4919      4923      4925      4926
      4920      4919      4921      4922      4920      4919      4923      4924
      4920      4919      4923      4925      4921      4919      4923      4924
      4921      4919      4923      4925      4922      4921      4919      4923
      4923      4913      4927      4928      4923      4913      4927      4929
      4923      4913      4927      4930      4924      4923      4913      4927
      4924      4923      4925      4926      4925      4923      4913      4927
      4928      4927      4930      4931      4929      4927      4930      4931
      4932      4936      4934      4935      4932      4936      4934      4945
      4932      4936      4934      4949      4932      4937      4939      4940
      4932      4937      4941      4942      4932      4937      4941      4943
      4932      4937      4941      4945      4933      4932      4936      4934
      4933      4932      4937      4938      4933      4932      4937      4939
      4933      4932      4937      4941      4934      4936      4932      4937
      4934      4945      4941      4937      4934      4945      4941      4942
      4934      4945      4941      4943      4934      4945      4947      4948
      4934      4949      4952      4953      4935      4934      4945      4941
      4935      4934      4945      4946      4935      4934      4945      4947
      4935      4934      4949      4950      4935      4934      4949      4951
      4935      4934      4949      4952      4936      4932      4937      4938
      4936      4932      4937      4939      4936      4932      4937      4941
      4936      4934      4945      4941      4936      4934      4945      4946
      4936      4934      4945      4947      4936      4934      4949      4950
      4936      4934      4949      4951      4936      4934      4949      4952
      4937      4941      4943      4944      4937      4941      4945      4946
      4937      4941      4945      4947      4938      4937      4939      4940
      4938      4937      4941      4942      4938      4937      4941      4943
      4938      4937      4941      4945      4939      4937      4941      4942
      4939      4937      4941      4943      4939      4937      4941      4945
      4940      4939      4937      4941      4941      4945      4934      4949
      4941      4945      4947      4948      4942      4941      4943      4944
      4942      4941      4945      4946      4942      4941      4945      4947
      4943      4941      4945      4946      4943      4941      4945      4947
      4944      4943      4941      4945      4945      4934      4949      4950
      4945      4934      4949      4951      4945      4934      4949      4952
      4946      4945      4934      4949      4946      4945      4947      4948
      4947      4945      4934      4949      4950      4949      4952      4953
      4951      4949      4952      4953      4954      4958      4956      4957
      4954      4958      4956      4966      4954      4958      4956      4970
      4954      4959      4961      4962      4954      4959      4963      4964
      4954      4959      4963      4965      4954      4959      4963      4966
      4955      4954      4958      4956      4955      4954      4959      4960
      4955      4954      4959      4961      4955      4954      4959      4963
      4956      4958      4954      4959      4956      4966      4963      4959
      4956      4966      4963      4964      4956      4966      4963      4965
      4956      4966      4968      4969      4956      4970      4973      4974
      4957      4956      4966      4963      4957      4956      4966      4967
      4957      4956      4966      4968      4957      4956      4970      4971
      4957      4956      4970      4972      4957      4956      4970      4973
      4958      4954      4959      4960      4958      4954      4959      4961
      4958      4954      4959      4963      4958      4956      4966      4963
      4958      4956      4966      4967      4958      4956      4966      4968
      4958      4956      4970      4971      4958      4956      4970      4972
      4958      4956      4970      4973      4959      4963      4965      4975
      4959      4963      4966      4967      4959      4963      4966      4968
      4960      4959      4961      4962      4960      4959      4963      4964
      4960      4959      4963      4965      4960      4959      4963      4966
      4961      4959      4963      4964      4961      4959      4963      4965
      4961      4959      4963      4966      4962      4961      4959      4963
      4963      4965      4975      4976      4963      4965      4975      4979
      4963      4965      4975      4980      4963      4966      4956      4970
      4963      4966      4968      4969      4964      4963      4965      4975
      4964      4963      4966      4967      4964      4963      4966      4968
      4965      4963      4966      4967      4965      4963      4966      4968
      4965      4975      4979      4977      4965      4975      4980      4981
      4965      4975      4980      4982      4965      4975      4980      4990
      4966      4956      4970      4971      4966      4956      4970      4972
      4966      4956      4970      4973      4966      4963      4965      4975
      4967      4966      4956      4970      4967      4966      4968      4969
      4968      4966      4956      4970      4971      4970      4973      4974
      4972      4970      4973      4974      4975      4979      4977      4978
      4975      4979      4977      4993      4975      4979      4977      4997
      4975      4980      4982      4983      4975      4980      4982      4984
      4975      4980      4990      4991      4975      4980      4990      4992
      4975      4980      4990      4993      4976      4975      4979      4977
      4976      4975      4980      4981      4976      4975      4980      4982
      4976      4975      4980      4990      4977      4979      4975      4980
      4977      4993      4990      4980      4977      4993      4990      4991
      4977      4993      4990      4992      4977      4993      4995      4996
      4977      4997      5000      5001      4978      4977      4993      4990
      4978      4977      4993      4994      4978      4977      4993      4995
      4978      4977      4997      4998      4978      4977      4997      4999
      4978      4977      4997      5000      4979      4975      4980      4981
      4979      4975      4980      4982      4979      4975      4980      4990
      4979      4977      4993      4990      4979      4977      4993      4994
      4979      4977      4993      4995      4979      4977      4997      4998
      4979      4977      4997      4999      4979      4977      4997      5000
      4980      4982      4984      4985      4980      4982      4984      4986
      4980      4990      4992      5002      4980      4990      4993      4994
      4980      4990      4993      4995      4981      4980      4982      4983
      4981      4980      4982      4984      4981      4980      4990      4991
      4981      4980      4990      4992      4981      4980      4990      4993
      4982      4980      4990      4991      4982      4980      4990      4992
      4982      4980      4990      4993      4982      4984      4986      4987
      4982      4984      4986      4988      4982      4984      4986      4989
      4983      4982      4980      4990      4983      4982      4984      4985
      4983      4982      4984      4986      4984      4982      4980      4990
      4985      4984      4986      4987      4985      4984      4986      4988
      4985      4984      4986      4989      4990      4992      5002      5003
      4990      4992      5002      5006      4990      4992      5002      5007
      4990      4993      4977      4997      4990      4993      4995      4996
      4991      4990      4992      5002      4991      4990      4993      4994
      4991      4990      4993      4995      4992      4990      4993      4994
      4992      4990      4993      4995      4992      5002      5006      5004
      4992      5002      5007      5008      4992      5002      5007      5009
      4992      5002      5007      5010      4993      4977      4997      4998
      4993      4977      4997      4999      4993      4977      4997      5000
      4993      4990      4992      5002      4994      4993      4977      4997
      4994      4993      4995      4996      4995      4993      4977      4997
      4998      4997      5000      5001      4999      4997      5000      5001
      5002      5006      5004      5005      5002      5006      5004      5014
      5002      5006      5004      5018      5002      5007      5009      5023
      5002      5007      5010      5011      5002      5007      5010      5012
      5002      5007      5010      5014      5003      5002      5006      5004
      5003      5002      5007      5008      5003      5002      5007      5009
      5003      5002      5007      5010      5004      5006      5002      5007
      5004      5014      5010      5007      5004      5014      5010      5011
      5004      5014      5010      5012      5004      5014      5016      5017
      5004      5018      5021      5022      5005      5004      5014      5010
      5005      5004      5014      5015      5005      5004      5014      5016
      5005      5004      5018      5019      5005      5004      5018      5020
      5005      5004      5018      5021      5006      5002      5007      5008
      5006      5002      5007      5009      5006      5002      5007      5010
      5006      5004      5014      5010      5006      5004      5014      5015
      5006      5004      5014      5016      5006      5004      5018      5019
      5006      5004      5018      5020      5006      5004      5018      5021
      5007      5009      5023      5024      5007      5009      5023      5027
      5007      5009      5023      5028      5007      5010      5012      5013
      5007      5010      5014      5015      5007      5010      5014      5016
      5008      5007      5009      5023      5008      5007      5010      5011
      5008      5007      5010      5012      5008      5007      5010      5014
      5009      5007      5010      5011      5009      5007      5010      5012
      5009      5007      5010      5014      5009      5023      5027      5025
      5009      5023      5028      5029      5009      5023      5028      5030
      5009      5023      5028      5031      5010      5007      5009      5023
      5010      5014      5004      5018      5010      5014      5016      5017
      5011      5010      5012      5013      5011      5010      5014      5015
      5011      5010      5014      5016      5012      5010      5014      5015
      5012      5010      5014      5016      5013      5012      5010      5014
      5014      5004      5018      5019      5014      5004      5018      5020
      5014      5004      5018      5021      5015      5014      5004      5018
      5015      5014      5016      5017      5016      5014      5004      5018
      5019      5018      5021      5022      5020      5018      5021      5022
      5023      5027      5025      5026      5023      5027      5025      5035
      5023      5027      5025      5039      5023      5028      5030      5043
      5023      5028      5031      5032      5023      5028      5031      5033
      5023      5028      5031      5035      5024      5023      5027      5025
      5024      5023      5028      5029      5024      5023      5028      5030
      5024      5023      5028      5031      5025      5027      5023      5028
      5025      5035      5031      5028      5025      5035      5031      5032
      5025      5035      5031      5033      5025      5035      5037      5038
      5026      5025      5035      5031      5026      5025      5035      5036
      5026      5025      5035      5037      5026      5025      5039      5040
      5026      5025      5039      5041      5026      5025      5039      5042
      5027      5023      5028      5029      5027      5023      5028      5030
      5027      5023      5028      5031      5027      5025      5035      5031
      5027      5025      5035      5036      5027      5025      5035      5037
      5027      5025      5039      5040      5027      5025      5039      5041
      5027      5025      5039      5042      5028      5030      5043      5044
      5028      5030      5043      5047      5028      5030      5043      5048
      5028      5031      5033      5034      5028      5031      5035      5036
      5028      5031      5035      5037      5029      5028      5030      5043
      5029      5028      5031      5032      5029      5028      5031      5033
      5029      5028      5031      5035      5030      5028      5031      5032
      5030      5028      5031      5033      5030      5028      5031      5035
      5030      5043      5047      5045      5030      5043      5048      5049
      5030      5043      5048      5050      5030      5043      5048      5051
      5031      5028      5030      5043      5031      5035      5025      5039
      5031      5035      5037      5038      5032      5031      5033      5034
      5032      5031      5035      5036      5032      5031      5035      5037
      5033      5031      5035      5036      5033      5031      5035      5037
      5034      5033      5031      5035      5035      5025      5039      5040
      5035      5025      5039      5041      5035      5025      5039      5042
      5036      5035      5025      5039      5036      5035      5037      5038
      5037      5035      5025      5039      5043      5047      5045      5046
      5043      5047      5045      5054      5043      5047      5045      5058
      5043      5048      5050      5062      5043      5048      5051      5052
      5043      5048      5051      5053      5043      5048      5051      5054
      5044      5043      5047      5045      5044      5043      5048      5049
      5044      5043      5048      5050      5044      5043      5048      5051
      5045      5047      5043      5048      5045      5054      5051      5048
      5045      5054      5051      5052      5045      5054      5051      5053
      5045      5054      5056      5057      5046      5045      5054      5051
      5046      5045      5054      5055      5046      5045      5054      5056
      5046      5045      5058      5059      5046      5045      5058      5060
      5046      5045      5058      5061      5047      5043      5048      5049
      5047      5043      5048      5050      5047      5043      5048      5051
      5047      5045      5054      5051      5047      5045      5054      5055
      5047      5045      5054      5056      5047      5045      5058      5059
      5047      5045      5058      5060      5047      5045      5058      5061
      5048      5050      5062      5063      5048      5050      5062      5066
      5048      5050      5062      5067      5048      5051      5053      5090
      5048      5051      5054      5055      5048      5051      5054      5056
      5049      5048      5050      5062      5049      5048      5051      5052
      5049      5048      5051      5053      5049      5048      5051      5054
      5050      5048      5051      5052      5050      5048      5051      5053
      5050      5048      5051      5054      5050      5062      5066      5064
      5050      5062      5067      5068      5050      5062      5067      5069
      5050      5062      5067      5077      5051      5048      5050      5062
      5051      5053      5090      5091      5051      5053      5090      5094
      5051      5053      5090      5095      5051      5054      5045      5058
      5051      5054      5056      5057      5052      5051      5053      5090
      5052      5051      5054      5055      5052      5051      5054      5056
      5053      5051      5054      5055      5053      5051      5054      5056
      5053      5090      5094      5092      5053      5090      5095      5096
      5053      5090      5095      5097      5053      5090      5095      5105
      5054      5045      5058      5059      5054      5045      5058      5060
      5054      5045      5058      5061      5054      5051      5053      5090
      5055      5054      5045      5058      5055      5054      5056      5057
      5056      5054      5045      5058      5062      5066      5064      5065
      5062      5066      5064      5081      5062      5066      5064      5085
      5062      5067      5069      5070      5062      5067      5069      5071
      5062      5067      5077      5078      5062      5067      5077      5079
      5062      5067      5077      5081      5063      5062      5066      5064
      5063      5062      5067      5068      5063      5062      5067      5069
      5063      5062      5067      5077      5064      5066      5062      5067
      5064      5081      5077      5067      5064      5081      5077      5078
      5064      5081      5077      5079      5064      5081      5083      5084
      5064      5085      5088      5089      5065      5064      5081      5077
      5065      5064      5081      5082      5065      5064      5081      5083
      5065      5064      5085      5086      5065      5064      5085      5087
      5065      5064      5085      5088      5066      5062      5067      5068
      5066      5062      5067      5069      5066      5062      5067      5077
      5066      5064      5081      5077      5066      5064      5081      5082
      5066      5064      5081      5083      5066      5064      5085      5086
      5066      5064      5085      5087      5066      5064      5085      5088
      5067      5069      5071      5072      5067      5069      5071      5073
      5067      5077      5079      5080      5067      5077      5081      5082
      5067      5077      5081      5083      5068      5067      5069      5070
      5068      5067      5069      5071      5068      5067      5077      5078
      5068      5067      5077      5079      5068      5067      5077      5081
      5069      5067      5077      5078      5069      5067      5077      5079
      5069      5067      5077      5081      5069      5071      5073      5074
      5069      5071      5073      5075      5069      5071      5073      5076
      5070      5069      5067      5077      5070      5069      5071      5072
      5070      5069      5071      5073      5071      5069      5067      5077
      5072      5071      5073      5074      5072      5071      5073      5075
      5072      5071      5073      5076      5077      5081      5064      5085
      5077      5081      5083      5084      5078      5077      5079      5080
      5078      5077      5081      5082      5078      5077      5081      5083
      5079      5077      5081      5082      5079      5077      5081      5083
      5080      5079      5077      5081      5081      5064      5085      5086
      5081      5064      5085      5087      5081      5064      5085      5088
      5082      5081      5064      5085      5082      5081      5083      5084
      5083      5081      5064      5085      5086      5085      5088      5089
      5087      5085      5088      5089      5090      5094      5092      5093
      5090      5094      5092      5108      5090      5094      5092      5112
      5090      5095      5097      5098      5090      5095      5097      5099
      5090      5095      5105      5106      5090      5095      5105      5107
      5090      5095      5105      5108      5091      5090      5094      5092
      5091      5090      5095      5096      5091      5090      5095      5097
      5091      5090      5095      5105      5092      5094      5090      5095
      5092      5108      5105      5095      5092      5108      5105      5106
      5092      5108      5105      5107      5092      5108      5110      5111
      5092      5112      5115      5116      5093      5092      5108      5105
      5093      5092      5108      5109      5093      5092      5108      5110
      5093      5092      5112      5113      5093      5092      5112      5114
      5093      5092      5112      5115      5094      5090      5095      5096
      5094      5090      5095      5097      5094      5090      5095      5105
      5094      5092      5108      5105      5094      5092      5108      5109
      5094      5092      5108      5110      5094      5092      5112      5113
      5094      5092      5112      5114      5094      5092      5112      5115
      5095      5097      5099      5100      5095      5097      5099      5101
      5095      5105      5107      5117      5095      5105      5108      5109
      5095      5105      5108      5110      5096      5095      5097      5098
      5096      5095      5097      5099      5096      5095      5105      5106
      5096      5095      5105      5107      5096      5095      5105      5108
      5097      5095      5105      5106      5097      5095      5105      5107
      5097      5095      5105      5108      5097      5099      5101      5102
      5097      5099      5101      5103      5097      5099      5101      5104
      5098      5097      5095      5105      5098      5097      5099      5100
      5098      5097      5099      5101      5099      5097      5095      5105
      5100      5099      5101      5102      5100      5099      5101      5103
      5100      5099      5101      5104      5105      5107      5117      5118
      5105      5107      5117      5121      5105      5107      5117      5122
      5105      5108      5092      5112      5105      5108      5110      5111
      5106      5105      5107      5117      5106      5105      5108      5109
      5106      5105      5108      5110      5107      5105      5108      5109
      5107      5105      5108      5110      5107      5117      5121      5119
      5107      5117      5122      5123      5107      5117      5122      5124
      5107      5117      5122      5125      5108      5092      5112      5113
      5108      5092      5112      5114      5108      5092      5112      5115
      5108      5105      5107      5117      5109      5108      5092      5112
      5109      5108      5110      5111      5110      5108      5092      5112
      5113      5112      5115      5116      5114      5112      5115      5116
      5117      5121      5119      5120      5117      5121      5119      5129
      5117      5121      5119      5133      5117      5122      5124      5138
      5117      5122      5125      5126      5117      5122      5125      5127
      5117      5122      5125      5129      5118      5117      5121      5119
      5118      5117      5122      5123      5118      5117      5122      5124
      5118      5117      5122      5125      5119      5121      5117      5122
      5119      5129      5125      5122      5119      5129      5125      5126
      5119      5129      5125      5127      5119      5129      5131      5132
      5119      5133      5136      5137      5120      5119      5129      5125
      5120      5119      5129      5130      5120      5119      5129      5131
      5120      5119      5133      5134      5120      5119      5133      5135
      5120      5119      5133      5136      5121      5117      5122      5123
      5121      5117      5122      5124      5121      5117      5122      5125
      5121      5119      5129      5125      5121      5119      5129      5130
      5121      5119      5129      5131      5121      5119      5133      5134
      5121      5119      5133      5135      5121      5119      5133      5136
      5122      5124      5138      5139      5122      5124      5138      5142
      5122      5124      5138      5143      5122      5125      5127      5128
      5122      5125      5129      5130      5122      5125      5129      5131
      5123      5122      5124      5138      5123      5122      5125      5126
      5123      5122      5125      5127      5123      5122      5125      5129
      5124      5122      5125      5126      5124      5122      5125      5127
      5124      5122      5125      5129      5124      5138      5142      5140
      5124      5138      5143      5144      5124      5138      5143      5145
      5124      5138      5143      5146      5125      5122      5124      5138
      5125      5129      5119      5133      5125      5129      5131      5132
      5126      5125      5127      5128      5126      5125      5129      5130
      5126      5125      5129      5131      5127      5125      5129      5130
      5127      5125      5129      5131      5128      5127      5125      5129
      5129      5119      5133      5134      5129      5119      5133      5135
      5129      5119      5133      5136      5130      5129      5119      5133
      5130      5129      5131      5132      5131      5129      5119      5133
      5134      5133      5136      5137      5135      5133      5136      5137
      5138      5142      5140      5141      5138      5142      5140      5150
      5138      5142      5140      5154      5138      5143      5145      5158
      5138      5143      5146      5147      5138      5143      5146      5148
      5138      5143      5146      5150      5139      5138      5142      5140
      5139      5138      5143      5144      5139      5138      5143      5145
      5139      5138      5143      5146      5140      5142      5138      5143
      5140      5150      5146      5143      5140      5150      5146      5147
      5140      5150      5146      5148      5140      5150      5152      5153
      5141      5140      5150      5146      5141      5140      5150      5151
      5141      5140      5150      5152      5141      5140      5154      5155
      5141      5140      5154      5156      5141      5140      5154      5157
      5142      5138      5143      5144      5142      5138      5143      5145
      5142      5138      5143      5146      5142      5140      5150      5146
      5142      5140      5150      5151      5142      5140      5150      5152
      5142      5140      5154      5155      5142      5140      5154      5156
      5142      5140      5154      5157      5143      5145      5158      5159
      5143      5145      5158      5162      5143      5145      5158      5163
      5143      5146      5148      5149      5143      5146      5150      5151
      5143      5146      5150      5152      5144      5143      5145      5158
      5144      5143      5146      5147      5144      5143      5146      5148
      5144      5143      5146      5150      5145      5143      5146      5147
      5145      5143      5146      5148      5145      5143      5146      5150
      5145      5158      5162      5160      5145      5158      5163      5164
      5145      5158      5163      5165      5145      5158      5163      5166
      5146      5143      5145      5158      5146      5150      5140      5154
      5146      5150      5152      5153      5147      5146      5148      5149
      5147      5146      5150      5151      5147      5146      5150      5152
      5148      5146      5150      5151      5148      5146      5150      5152
      5149      5148      5146      5150      5150      5140      5154      5155
      5150      5140      5154      5156      5150      5140      5154      5157
      5151      5150      5140      5154      5151      5150      5152      5153
      5152      5150      5140      5154      5158      5162      5160      5161
      5158      5162      5160      5169      5158      5162      5160      5173
      5158      5163      5165      5177      5158      5163      5166      5167
      5158      5163      5166      5168      5158      5163      5166      5169
      5159      5158      5162      5160      5159      5158      5163      5164
      5159      5158      5163      5165      5159      5158      5163      5166
      5160      5162      5158      5163      5160      5169      5166      5163
      5160      5169      5166      5167      5160      5169      5166      5168
      5160      5169      5171      5172      5161      5160      5169      5166
      5161      5160      5169      5170      5161      5160      5169      5171
      5161      5160      5173      5174      5161      5160      5173      5175
      5161      5160      5173      5176      5162      5158      5163      5164
      5162      5158      5163      5165      5162      5158      5163      5166
      5162      5160      5169      5166      5162      5160      5169      5170
      5162      5160      5169      5171      5162      5160      5173      5174
      5162      5160      5173      5175      5162      5160      5173      5176
      5163      5165      5177      5178      5163      5165      5177      5181
      5163      5165      5177      5182      5163      5166      5168      5205
      5163      5166      5169      5170      5163      5166      5169      5171
      5164      5163      5165      5177      5164      5163      5166      5167
      5164      5163      5166      5168      5164      5163      5166      5169
      5165      5163      5166      5167      5165      5163      5166      5168
      5165      5163      5166      5169      5165      5177      5181      5179
      5165      5177      5182      5183      5165      5177      5182      5184
      5165      5177      5182      5192      5166      5163      5165      5177
      5166      5168      5205      5206      5166      5168      5205      5209
      5166      5168      5205      5210      5166      5169      5160      5173
      5166      5169      5171      5172      5167      5166      5168      5205
      5167      5166      5169      5170      5167      5166      5169      5171
      5168      5166      5169      5170      5168      5166      5169      5171
      5168      5205      5209      5207      5168      5205      5210      5211
      5168      5205      5210      5212      5168      5205      5210      5220
      5169      5160      5173      5174      5169      5160      5173      5175
      5169      5160      5173      5176      5169      5166      5168      5205
      5170      5169      5160      5173      5170      5169      5171      5172
      5171      5169      5160      5173      5177      5181      5179      5180
      5177      5181      5179      5196      5177      5181      5179      5200
      5177      5182      5184      5185      5177      5182      5184      5186
      5177      5182      5192      5193      5177      5182      5192      5194
      5177      5182      5192      5196      5178      5177      5181      5179
      5178      5177      5182      5183      5178      5177      5182      5184
      5178      5177      5182      5192      5179      5181      5177      5182
      5179      5196      5192      5182      5179      5196      5192      5193
      5179      5196      5192      5194      5179      5196      5198      5199
      5179      5200      5203      5204      5180      5179      5196      5192
      5180      5179      5196      5197      5180      5179      5196      5198
      5180      5179      5200      5201      5180      5179      5200      5202
      5180      5179      5200      5203      5181      5177      5182      5183
      5181      5177      5182      5184      5181      5177      5182      5192
      5181      5179      5196      5192      5181      5179      5196      5197
      5181      5179      5196      5198      5181      5179      5200      5201
      5181      5179      5200      5202      5181      5179      5200      5203
      5182      5184      5186      5187      5182      5184      5186      5188
      5182      5192      5194      5195      5182      5192      5196      5197
      5182      5192      5196      5198      5183      5182      5184      5185
      5183      5182      5184      5186      5183      5182      5192      5193
      5183      5182      5192      5194      5183      5182      5192      5196
      5184      5182      5192      5193      5184      5182      5192      5194
      5184      5182      5192      5196      5184      5186      5188      5189
      5184      5186      5188      5190      5184      5186      5188      5191
      5185      5184      5182      5192      5185      5184      5186      5187
      5185      5184      5186      5188      5186      5184      5182      5192
      5187      5186      5188      5189      5187      5186      5188      5190
      5187      5186      5188      5191      5192      5196      5179      5200
      5192      5196      5198      5199      5193      5192      5194      5195
      5193      5192      5196      5197      5193      5192      5196      5198
      5194      5192      5196      5197      5194      5192      5196      5198
      5195      5194      5192      5196      5196      5179      5200      5201
      5196      5179      5200      5202      5196      5179      5200      5203
      5197      5196      5179      5200      5197      5196      5198      5199
      5198      5196      5179      5200      5201      5200      5203      5204
      5202      5200      5203      5204      5205      5209      5207      5208
      5205      5209      5207      5223      5205      5209      5207      5227
      5205      5210      5212      5213      5205      5210      5212      5214
      5205      5210      5220      5221      5205      5210      5220      5222
      5205      5210      5220      5223      5206      5205      5209      5207
      5206      5205      5210      5211      5206      5205      5210      5212
      5206      5205      5210      5220      5207      5209      5205      5210
      5207      5223      5220      5210      5207      5223      5220      5221
      5207      5223      5220      5222      5207      5223      5225      5226
      5207      5227      5230      5231      5208      5207      5223      5220
      5208      5207      5223      5224      5208      5207      5223      5225
      5208      5207      5227      5228      5208      5207      5227      5229
      5208      5207      5227      5230      5209      5205      5210      5211
      5209      5205      5210      5212      5209      5205      5210      5220
      5209      5207      5223      5220      5209      5207      5223      5224
      5209      5207      5223      5225      5209      5207      5227      5228
      5209      5207      5227      5229      5209      5207      5227      5230
      5210      5212      5214      5215      5210      5212      5214      5216
      5210      5220      5222      5232      5210      5220      5223      5224
      5210      5220      5223      5225      5211      5210      5212      5213
      5211      5210      5212      5214      5211      5210      5220      5221
      5211      5210      5220      5222      5211      5210      5220      5223
      5212      5210      5220      5221      5212      5210      5220      5222
      5212      5210      5220      5223      5212      5214      5216      5217
      5212      5214      5216      5218      5212      5214      5216      5219
      5213      5212      5210      5220      5213      5212      5214      5215
      5213      5212      5214      5216      5214      5212      5210      5220
      5215      5214      5216      5217      5215      5214      5216      5218
      5215      5214      5216      5219      5220      5222      5232      5233
      5220      5222      5232      5236      5220      5222      5232      5237
      5220      5223      5207      5227      5220      5223      5225      5226
      5221      5220      5222      5232      5221      5220      5223      5224
      5221      5220      5223      5225      5222      5220      5223      5224
      5222      5220      5223      5225      5222      5232      5236      5234
      5222      5232      5237      5238      5222      5232      5237      5239
      5222      5232      5237      5240      5223      5207      5227      5228
      5223      5207      5227      5229      5223      5207      5227      5230
      5223      5220      5222      5232      5224      5223      5207      5227
      5224      5223      5225      5226      5225      5223      5207      5227
      5228      5227      5230      5231      5229      5227      5230      5231
      5232      5236      5234      5235      5232      5236      5234      5244
      5232      5236      5234      5248      5232      5237      5239      5253
      5232      5237      5240      5241      5232      5237      5240      5242
      5232      5237      5240      5244      5233      5232      5236      5234
      5233      5232      5237      5238      5233      5232      5237      5239
      5233      5232      5237      5240      5234      5236      5232      5237
      5234      5244      5240      5237      5234      5244      5240      5241
      5234      5244      5240      5242      5234      5244      5246      5247
      5234      5248      5251      5252      5235      5234      5244      5240
      5235      5234      5244      5245      5235      5234      5244      5246
      5235      5234      5248      5249      5235      5234      5248      5250
      5235      5234      5248      5251      5236      5232      5237      5238
      5236      5232      5237      5239      5236      5232      5237      5240
      5236      5234      5244      5240      5236      5234      5244      5245
      5236      5234      5244      5246      5236      5234      5248      5249
      5236      5234      5248      5250      5236      5234      5248      5251
      5237      5239      5253      5254      5237      5239      5253      5257
      5237      5239      5253      5258      5237      5240      5242      5243
      5237      5240      5244      5245      5237      5240      5244      5246
      5238      5237      5239      5253      5238      5237      5240      5241
      5238      5237      5240      5242      5238      5237      5240      5244
      5239      5237      5240      5241      5239      5237      5240      5242
      5239      5237      5240      5244      5239      5253      5257      5255
      5239      5253      5258      5259      5239      5253      5258      5260
      5239      5253      5258      5261      5240      5237      5239      5253
      5240      5244      5234      5248      5240      5244      5246      5247
      5241      5240      5242      5243      5241      5240      5244      5245
      5241      5240      5244      5246      5242      5240      5244      5245
      5242      5240      5244      5246      5243      5242      5240      5244
      5244      5234      5248      5249      5244      5234      5248      5250
      5244      5234      5248      5251      5245      5244      5234      5248
      5245      5244      5246      5247      5246      5244      5234      5248
      5249      5248      5251      5252      5250      5248      5251      5252
      5253      5257      5255      5256      5253      5257      5255      5265
      5253      5257      5255      5269      5253      5258      5260      5273
      5253      5258      5261      5262      5253      5258      5261      5263
      5253      5258      5261      5265      5254      5253      5257      5255
      5254      5253      5258      5259      5254      5253      5258      5260
      5254      5253      5258      5261      5255      5257      5253      5258
      5255      5265      5261      5258      5255      5265      5261      5262
      5255      5265      5261      5263      5255      5265      5267      5268
      5256      5255      5265      5261      5256      5255      5265      5266
      5256      5255      5265      5267      5256      5255      5269      5270
      5256      5255      5269      5271      5256      5255      5269      5272
      5257      5253      5258      5259      5257      5253      5258      5260
      5257      5253      5258      5261      5257      5255      5265      5261
      5257      5255      5265      5266      5257      5255      5265      5267
      5257      5255      5269      5270      5257      5255      5269      5271
      5257      5255      5269      5272      5258      5260      5273      5274
      5258      5260      5273      5277      5258      5260      5273      5278
      5258      5261      5263      5264      5258      5261      5265      5266
      5258      5261      5265      5267      5259      5258      5260      5273
      5259      5258      5261      5262      5259      5258      5261      5263
      5259      5258      5261      5265      5260      5258      5261      5262
      5260      5258      5261      5263      5260      5258      5261      5265
      5260      5273      5277      5275      5260      5273      5278      5279
      5260      5273      5278      5280      5260      5273      5278      5281
      5261      5258      5260      5273      5261      5265      5255      5269
      5261      5265      5267      5268      5262      5261      5263      5264
      5262      5261      5265      5266      5262      5261      5265      5267
      5263      5261      5265      5266      5263      5261      5265      5267
      5264      5263      5261      5265      5265      5255      5269      5270
      5265      5255      5269      5271      5265      5255      5269      5272
      5266      5265      5255      5269      5266      5265      5267      5268
      5267      5265      5255      5269      5273      5277      5275      5276
      5273      5277      5275      5284      5273      5277      5275      5288
      5273      5278      5280      5292      5273      5278      5281      5282
      5273      5278      5281      5283      5273      5278      5281      5284
      5274      5273      5277      5275      5274      5273      5278      5279
      5274      5273      5278      5280      5274      5273      5278      5281
      5275      5277      5273      5278      5275      5284      5281      5278
      5275      5284      5281      5282      5275      5284      5281      5283
      5275      5284      5286      5287      5276      5275      5284      5281
      5276      5275      5284      5285      5276      5275      5284      5286
      5276      5275      5288      5289      5276      5275      5288      5290
      5276      5275      5288      5291      5277      5273      5278      5279
      5277      5273      5278      5280      5277      5273      5278      5281
      5277      5275      5284      5281      5277      5275      5284      5285
      5277      5275      5284      5286      5277      5275      5288      5289
      5277      5275      5288      5290      5277      5275      5288      5291
      5278      5280      5292      5293      5278      5280      5292      5296
      5278      5280      5292      5297      5278      5281      5283      5320
      5278      5281      5284      5285      5278      5281      5284      5286
      5279      5278      5280      5292      5279      5278      5281      5282
      5279      5278      5281      5283      5279      5278      5281      5284
      5280      5278      5281      5282      5280      5278      5281      5283
      5280      5278      5281      5284      5280      5292      5296      5294
      5280      5292      5297      5298      5280      5292      5297      5299
      5280      5292      5297      5307      5281      5278      5280      5292
      5281      5283      5320      5321      5281      5283      5320      5324
      5281      5283      5320      5325      5281      5284      5275      5288
      5281      5284      5286      5287      5282      5281      5283      5320
      5282      5281      5284      5285      5282      5281      5284      5286
      5283      5281      5284      5285      5283      5281      5284      5286
      5283      5320      5324      5322      5283      5320      5325      5326
      5283      5320      5325      5327      5283      5320      5325      5335
      5284      5275      5288      5289      5284      5275      5288      5290
      5284      5275      5288      5291      5284      5281      5283      5320
      5285      5284      5275      5288      5285      5284      5286      5287
      5286      5284      5275      5288      5292      5296      5294      5295
      5292      5296      5294      5311      5292      5296      5294      5315
      5292      5297      5299      5300      5292      5297      5299      5301
      5292      5297      5307      5308      5292      5297      5307      5309
      5292      5297      5307      5311      5293      5292      5296      5294
      5293      5292      5297      5298      5293      5292      5297      5299
      5293      5292      5297      5307      5294      5296      5292      5297
      5294      5311      5307      5297      5294      5311      5307      5308
      5294      5311      5307      5309      5294      5311      5313      5314
      5294      5315      5318      5319      5295      5294      5311      5307
      5295      5294      5311      5312      5295      5294      5311      5313
      5295      5294      5315      5316      5295      5294      5315      5317
      5295      5294      5315      5318      5296      5292      5297      5298
      5296      5292      5297      5299      5296      5292      5297      5307
      5296      5294      5311      5307      5296      5294      5311      5312
      5296      5294      5311      5313      5296      5294      5315      5316
      5296      5294      5315      5317      5296      5294      5315      5318
      5297      5299      5301      5302      5297      5299      5301      5303
      5297      5307      5309      5310      5297      5307      5311      5312
      5297      5307      5311      5313      5298      5297      5299      5300
      5298      5297      5299      5301      5298      5297      5307      5308
      5298      5297      5307      5309      5298      5297      5307      5311
      5299      5297      5307      5308      5299      5297      5307      5309
      5299      5297      5307      5311      5299      5301      5303      5304
      5299      5301      5303      5305      5299      5301      5303      5306
      5300      5299      5297      5307      5300      5299      5301      5302
      5300      5299      5301      5303      5301      5299      5297      5307
      5302      5301      5303      5304      5302      5301      5303      5305
      5302      5301      5303      5306      5307      5311      5294      5315
      5307      5311      5313      5314      5308      5307      5309      5310
      5308      5307      5311      5312      5308      5307      5311      5313
      5309      5307      5311      5312      5309      5307      5311      5313
      5310      5309      5307      5311      5311      5294      5315      5316
      5311      5294      5315      5317      5311      5294      5315      5318
      5312      5311      5294      5315      5312      5311      5313      5314
      5313      5311      5294      5315      5316      5315      5318      5319
      5317      5315      5318      5319      5320      5324      5322      5323
      5320      5324      5322      5338      5320      5324      5322      5342
      5320      5325      5327      5328      5320      5325      5327      5329
      5320      5325      5335      5336      5320      5325      5335      5337
      5320      5325      5335      5338      5321      5320      5324      5322
      5321      5320      5325      5326      5321      5320      5325      5327
      5321      5320      5325      5335      5322      5324      5320      5325
      5322      5338      5335      5325      5322      5338      5335      5336
      5322      5338      5335      5337      5322      5338      5340      5341
      5322      5342      5345      5346      5323      5322      5338      5335
      5323      5322      5338      5339      5323      5322      5338      5340
      5323      5322      5342      5343      5323      5322      5342      5344
      5323      5322      5342      5345      5324      5320      5325      5326
      5324      5320      5325      5327      5324      5320      5325      5335
      5324      5322      5338      5335      5324      5322      5338      5339
      5324      5322      5338      5340      5324      5322      5342      5343
      5324      5322      5342      5344      5324      5322      5342      5345
      5325      5327      5329      5330      5325      5327      5329      5331
      5325      5335      5337      5347      5325      5335      5338      5339
      5325      5335      5338      5340      5326      5325      5327      5328
      5326      5325      5327      5329      5326      5325      5335      5336
      5326      5325      5335      5337      5326      5325      5335      5338
      5327      5325      5335      5336      5327      5325      5335      5337
      5327      5325      5335      5338      5327      5329      5331      5332
      5327      5329      5331      5333      5327      5329      5331      5334
      5328      5327      5325      5335      5328      5327      5329      5330
      5328      5327      5329      5331      5329      5327      5325      5335
      5330      5329      5331      5332      5330      5329      5331      5333
      5330      5329      5331      5334      5335      5337      5347      5348
      5335      5337      5347      5351      5335      5337      5347      5352
      5335      5338      5322      5342      5335      5338      5340      5341
      5336      5335      5337      5347      5336      5335      5338      5339
      5336      5335      5338      5340      5337      5335      5338      5339
      5337      5335      5338      5340      5337      5347      5351      5349
      5337      5347      5352      5353      5337      5347      5352      5354
      5337      5347      5352      5355      5338      5322      5342      5343
      5338      5322      5342      5344      5338      5322      5342      5345
      5338      5335      5337      5347      5339      5338      5322      5342
      5339      5338      5340      5341      5340      5338      5322      5342
      5343      5342      5345      5346      5344      5342      5345      5346
      5347      5351      5349      5350      5347      5351      5349      5359
      5347      5351      5349      5363      5347      5352      5354      5368
      5347      5352      5355      5356      5347      5352      5355      5357
      5347      5352      5355      5359      5348      5347      5351      5349
      5348      5347      5352      5353      5348      5347      5352      5354
      5348      5347      5352      5355      5349      5351      5347      5352
      5349      5359      5355      5352      5349      5359      5355      5356
      5349      5359      5355      5357      5349      5359      5361      5362
      5349      5363      5366      5367      5350      5349      5359      5355
      5350      5349      5359      5360      5350      5349      5359      5361
      5350      5349      5363      5364      5350      5349      5363      5365
      5350      5349      5363      5366      5351      5347      5352      5353
      5351      5347      5352      5354      5351      5347      5352      5355
      5351      5349      5359      5355      5351      5349      5359      5360
      5351      5349      5359      5361      5351      5349      5363      5364
      5351      5349      5363      5365      5351      5349      5363      5366
      5352      5354      5368      5369      5352      5354      5368      5372
      5352      5354      5368      5373      5352      5355      5357      5358
      5352      5355      5359      5360      5352      5355      5359      5361
      5353      5352      5354      5368      5353      5352      5355      5356
      5353      5352      5355      5357      5353      5352      5355      5359
      5354      5352      5355      5356      5354      5352      5355      5357
      5354      5352      5355      5359      5354      5368      5372      5370
      5354      5368      5373      5374      5354      5368      5373      5375
      5354      5368      5373      5376      5355      5352      5354      5368
      5355      5359      5349      5363      5355      5359      5361      5362
      5356      5355      5357      5358      5356      5355      5359      5360
      5356      5355      5359      5361      5357      5355      5359      5360
      5357      5355      5359      5361      5358      5357      5355      5359
      5359      5349      5363      5364      5359      5349      5363      5365
      5359      5349      5363      5366      5360      5359      5349      5363
      5360      5359      5361      5362      5361      5359      5349      5363
      5364      5363      5366      5367      5365      5363      5366      5367
      5368      5372      5370      5371      5368      5372      5370      5380
      5368      5372      5370      5384      5368      5373      5375      5388
      5368      5373      5376      5377      5368      5373      5376      5378
      5368      5373      5376      5380      5369      5368      5372      5370
      5369      5368      5373      5374      5369      5368      5373      5375
      5369      5368      5373      5376      5370      5372      5368      5373
      5370      5380      5376      5373      5370      5380      5376      5377
      5370      5380      5376      5378      5370      5380      5382      5383
      5371      5370      5380      5376      5371      5370      5380      5381
      5371      5370      5380      5382      5371      5370      5384      5385
      5371      5370      5384      5386      5371      5370      5384      5387
      5372      5368      5373      5374      5372      5368      5373      5375
      5372      5368      5373      5376      5372      5370      5380      5376
      5372      5370      5380      5381      5372      5370      5380      5382
      5372      5370      5384      5385      5372      5370      5384      5386
      5372      5370      5384      5387      5373      5375      5388      5389
      5373      5375      5388      5392      5373      5375      5388      5393
      5373      5376      5378      5379      5373      5376      5380      5381
      5373      5376      5380      5382      5374      5373      5375      5388
      5374      5373      5376      5377      5374      5373      5376      5378
      5374      5373      5376      5380      5375      5373      5376      5377
      5375      5373      5376      5378      5375      5373      5376      5380
      5375      5388      5392      5390      5375      5388      5393      5394
      5375      5388      5393      5395      5375      5388      5393      5396
      5376      5373      5375      5388      5376      5380      5370      5384
      5376      5380      5382      5383      5377      5376      5378      5379
      5377      5376      5380      5381      5377      5376      5380      5382
      5378      5376      5380      5381      5378      5376      5380      5382
      5379      5378      5376      5380      5380      5370      5384      5385
      5380      5370      5384      5386      5380      5370      5384      5387
      5381      5380      5370      5384      5381      5380      5382      5383
      5382      5380      5370      5384      5388      5392      5390      5391
      5388      5392      5390      5399      5388      5392      5390      5403
      5388      5393      5395      5407      5388      5393      5396      5397
      5388      5393      5396      5398      5388      5393      5396      5399
      5389      5388      5392      5390      5389      5388      5393      5394
      5389      5388      5393      5395      5389      5388      5393      5396
      5390      5392      5388      5393      5390      5399      5396      5393
      5390      5399      5396      5397      5390      5399      5396      5398
      5390      5399      5401      5402      5391      5390      5399      5396
      5391      5390      5399      5400      5391      5390      5399      5401
      5391      5390      5403      5404      5391      5390      5403      5405
      5391      5390      5403      5406      5392      5388      5393      5394
      5392      5388      5393      5395      5392      5388      5393      5396
      5392      5390      5399      5396      5392      5390      5399      5400
      5392      5390      5399      5401      5392      5390      5403      5404
      5392      5390      5403      5405      5392      5390      5403      5406
      5393      5395      5407      5408      5393      5395      5407      5411
      5393      5395      5407      5412      5393      5396      5398      5435
      5393      5396      5399      5400      5393      5396      5399      5401
      5394      5393      5395      5407      5394      5393      5396      5397
      5394      5393      5396      5398      5394      5393      5396      5399
      5395      5393      5396      5397      5395      5393      5396      5398
      5395      5393      5396      5399      5395      5407      5411      5409
      5395      5407      5412      5413      5395      5407      5412      5414
      5395      5407      5412      5422      5396      5393      5395      5407
      5396      5398      5435      5436      5396      5398      5435      5439
      5396      5398      5435      5440      5396      5399      5390      5403
      5396      5399      5401      5402      5397      5396      5398      5435
      5397      5396      5399      5400      5397      5396      5399      5401
      5398      5396      5399      5400      5398      5396      5399      5401
      5398      5435      5439      5437      5398      5435      5440      5441
      5398      5435      5440      5442      5398      5435      5440      5450
      5399      5390      5403      5404      5399      5390      5403      5405
      5399      5390      5403      5406      5399      5396      5398      5435
      5400      5399      5390      5403      5400      5399      5401      5402
      5401      5399      5390      5403      5407      5411      5409      5410
      5407      5411      5409      5426      5407      5411      5409      5430
      5407      5412      5414      5415      5407      5412      5414      5416
      5407      5412      5422      5423      5407      5412      5422      5424
      5407      5412      5422      5426      5408      5407      5411      5409
      5408      5407      5412      5413      5408      5407      5412      5414
      5408      5407      5412      5422      5409      5411      5407      5412
      5409      5426      5422      5412      5409      5426      5422      5423
      5409      5426      5422      5424      5409      5426      5428      5429
      5409      5430      5433      5434      5410      5409      5426      5422
      5410      5409      5426      5427      5410      5409      5426      5428
      5410      5409      5430      5431      5410      5409      5430      5432
      5410      5409      5430      5433      5411      5407      5412      5413
      5411      5407      5412      5414      5411      5407      5412      5422
      5411      5409      5426      5422      5411      5409      5426      5427
      5411      5409      5426      5428      5411      5409      5430      5431
      5411      5409      5430      5432      5411      5409      5430      5433
      5412      5414      5416      5417      5412      5414      5416      5418
      5412      5422      5424      5425      5412      5422      5426      5427
      5412      5422      5426      5428      5413      5412      5414      5415
      5413      5412      5414      5416      5413      5412      5422      5423
      5413      5412      5422      5424      5413      5412      5422      5426
      5414      5412      5422      5423      5414      5412      5422      5424
      5414      5412      5422      5426      5414      5416      5418      5419
      5414      5416      5418      5420      5414      5416      5418      5421
      5415      5414      5412      5422      5415      5414      5416      5417
      5415      5414      5416      5418      5416      5414      5412      5422
      5417      5416      5418      5419      5417      5416      5418      5420
      5417      5416      5418      5421      5422      5426      5409      5430
      5422      5426      5428      5429      5423      5422      5424      5425
      5423      5422      5426      5427      5423      5422      5426      5428
      5424      5422      5426      5427      5424      5422      5426      5428
      5425      5424      5422      5426      5426      5409      5430      5431
      5426      5409      5430      5432      5426      5409      5430      5433
      5427      5426      5409      5430      5427      5426      5428      5429
      5428      5426      5409      5430      5431      5430      5433      5434
      5432      5430      5433      5434      5435      5439      5437      5438
      5435      5439      5437      5453      5435      5439      5437      5457
      5435      5440      5442      5443      5435      5440      5442      5444
      5435      5440      5450      5451      5435      5440      5450      5452
      5435      5440      5450      5453      5436      5435      5439      5437
      5436      5435      5440      5441      5436      5435      5440      5442
      5436      5435      5440      5450      5437      5439      5435      5440
      5437      5453      5450      5440      5437      5453      5450      5451
      5437      5453      5450      5452      5437      5453      5455      5456
      5437      5457      5460      5461      5438      5437      5453      5450
      5438      5437      5453      5454      5438      5437      5453      5455
      5438      5437      5457      5458      5438      5437      5457      5459
      5438      5437      5457      5460      5439      5435      5440      5441
      5439      5435      5440      5442      5439      5435      5440      5450
      5439      5437      5453      5450      5439      5437      5453      5454
      5439      5437      5453      5455      5439      5437      5457      5458
      5439      5437      5457      5459      5439      5437      5457      5460
      5440      5442      5444      5445      5440      5442      5444      5446
      5440      5450      5452      5462      5440      5450      5453      5454
      5440      5450      5453      5455      5441      5440      5442      5443
      5441      5440      5442      5444      5441      5440      5450      5451
      5441      5440      5450      5452      5441      5440      5450      5453
      5442      5440      5450      5451      5442      5440      5450      5452
      5442      5440      5450      5453      5442      5444      5446      5447
      5442      5444      5446      5448      5442      5444      5446      5449
      5443      5442      5440      5450      5443      5442      5444      5445
      5443      5442      5444      5446      5444      5442      5440      5450
      5445      5444      5446      5447      5445      5444      5446      5448
      5445      5444      5446      5449      5450      5452      5462      5463
      5450      5452      5462      5466      5450      5452      5462      5467
      5450      5453      5437      5457      5450      5453      5455      5456
      5451      5450      5452      5462      5451      5450      5453      5454
      5451      5450      5453      5455      5452      5450      5453      5454
      5452      5450      5453      5455      5452      5462      5466      5464
      5452      5462      5467      5468      5452      5462      5467      5469
      5452      5462      5467      5470      5453      5437      5457      5458
      5453      5437      5457      5459      5453      5437      5457      5460
      5453      5450      5452      5462      5454      5453      5437      5457
      5454      5453      5455      5456      5455      5453      5437      5457
      5458      5457      5460      5461      5459      5457      5460      5461
      5462      5466      5464      5465      5462      5466      5464      5474
      5462      5466      5464      5478      5462      5467      5469      5483
      5462      5467      5470      5471      5462      5467      5470      5472
      5462      5467      5470      5474      5463      5462      5466      5464
      5463      5462      5467      5468      5463      5462      5467      5469
      5463      5462      5467      5470      5464      5466      5462      5467
      5464      5474      5470      5467      5464      5474      5470      5471
      5464      5474      5470      5472      5464      5474      5476      5477
      5464      5478      5481      5482      5465      5464      5474      5470
      5465      5464      5474      5475      5465      5464      5474      5476
      5465      5464      5478      5479      5465      5464      5478      5480
      5465      5464      5478      5481      5466      5462      5467      5468
      5466      5462      5467      5469      5466      5462      5467      5470
      5466      5464      5474      5470      5466      5464      5474      5475
      5466      5464      5474      5476      5466      5464      5478      5479
      5466      5464      5478      5480      5466      5464      5478      5481
      5467      5469      5483      5484      5467      5469      5483      5487
      5467      5469      5483      5488      5467      5470      5472      5473
      5467      5470      5474      5475      5467      5470      5474      5476
      5468      5467      5469      5483      5468      5467      5470      5471
      5468      5467      5470      5472      5468      5467      5470      5474
      5469      5467      5470      5471      5469      5467      5470      5472
      5469      5467      5470      5474      5469      5483      5487      5485
      5469      5483      5488      5489      5469      5483      5488      5490
      5469      5483      5488      5491      5470      5467      5469      5483
      5470      5474      5464      5478      5470      5474      5476      5477
      5471      5470      5472      5473      5471      5470      5474      5475
      5471      5470      5474      5476      5472      5470      5474      5475
      5472      5470      5474      5476      5473      5472      5470      5474
      5474      5464      5478      5479      5474      5464      5478      5480
      5474      5464      5478      5481      5475      5474      5464      5478
      5475      5474      5476      5477      5476      5474      5464      5478
      5479      5478      5481      5482      5480      5478      5481      5482
      5483      5487      5485      5486      5483      5487      5485      5495
      5483      5487      5485      5499      5483      5488      5490      5503
      5483      5488      5491      5492      5483      5488      5491      5493
      5483      5488      5491      5495      5484      5483      5487      5485
      5484      5483      5488      5489      5484      5483      5488      5490
      5484      5483      5488      5491      5485      5487      5483      5488
      5485      5495      5491      5488      5485      5495      5491      5492
      5485      5495      5491      5493      5485      5495      5497      5498
      5486      5485      5495      5491      5486      5485      5495      5496
      5486      5485      5495      5497      5486      5485      5499      5500
      5486      5485      5499      5501      5486      5485      5499      5502
      5487      5483      5488      5489      5487      5483      5488      5490
      5487      5483      5488      5491      5487      5485      5495      5491
      5487      5485      5495      5496      5487      5485      5495      5497
      5487      5485      5499      5500      5487      5485      5499      5501
      5487      5485      5499      5502      5488      5490      5503      5504
      5488      5490      5503      5507      5488      5490      5503      5508
      5488      5491      5493      5494      5488      5491      5495      5496
      5488      5491      5495      5497      5489      5488      5490      5503
      5489      5488      5491      5492      5489      5488      5491      5493
      5489      5488      5491      5495      5490      5488      5491      5492
      5490      5488      5491      5493      5490      5488      5491      5495
      5490      5503      5507      5505      5490      5503      5508      5509
      5490      5503      5508      5510      5490      5503      5508      5511
      5491      5488      5490      5503      5491      5495      5485      5499
      5491      5495      5497      5498      5492      5491      5493      5494
      5492      5491      5495      5496      5492      5491      5495      5497
      5493      5491      5495      5496      5493      5491      5495      5497
      5494      5493      5491      5495      5495      5485      5499      5500
      5495      5485      5499      5501      5495      5485      5499      5502
      5496      5495      5485      5499      5496      5495      5497      5498
      5497      5495      5485      5499      5503      5507      5505      5506
      5503      5507      5505      5515      5503      5507      5505      5519
      5503      5508      5510      5523      5503      5508      5511      5512
      5503      5508      5511      5513      5503      5508      5511      5515
      5504      5503      5507      5505      5504      5503      5508      5509
      5504      5503      5508      5510      5504      5503      5508      5511
      5505      5507      5503      5508      5505      5515      5511      5508
      5505      5515      5511      5512      5505      5515      5511      5513
      5505      5515      5517      5518      5506      5505      5515      5511
      5506      5505      5515      5516      5506      5505      5515      5517
      5506      5505      5519      5520      5506      5505      5519      5521
      5506      5505      5519      5522      5507      5503      5508      5509
      5507      5503      5508      5510      5507      5503      5508      5511
      5507      5505      5515      5511      5507      5505      5515      5516
      5507      5505      5515      5517      5507      5505      5519      5520
      5507      5505      5519      5521      5507      5505      5519      5522
      5508      5510      5523      5524      5508      5510      5523      5527
      5508      5510      5523      5528      5508      5511      5513      5514
      5508      5511      5515      5516      5508      5511      5515      5517
      5509      5508      5510      5523      5509      5508      5511      5512
      5509      5508      5511      5513      5509      5508      5511      5515
      5510      5508      5511      5512      5510      5508      5511      5513
      5510      5508      5511      5515      5510      5523      5527      5525
      5510      5523      5528      5529      5510      5523      5528      5530
      5510      5523      5528      5538      5511      5508      5510      5523
      5511      5515      5505      5519      5511      5515      5517      5518
      5512      5511      5513      5514      5512      5511      5515      5516
      5512      5511      5515      5517      5513      5511      5515      5516
      5513      5511      5515      5517      5514      5513      5511      5515
      5515      5505      5519      5520      5515      5505      5519      5521
      5515      5505      5519      5522      5516      5515      5505      5519
      5516      5515      5517      5518      5517      5515      5505      5519
      5523      5527      5525      5526      5523      5527      5525      5542
      5523      5527      5525      5546      5523      5528      5530      5531
      5523      5528      5530      5532      5523      5528      5538      5539
      5523      5528      5538      5540      5523      5528      5538      5542
      5524      5523      5527      5525      5524      5523      5528      5529
      5524      5523      5528      5530      5524      5523      5528      5538
      5525      5527      5523      5528      5525      5542      5538      5528
      5525      5542      5538      5539      5525      5542      5538      5540
      5525      5542      5544      5545      5525      5546      5549      5550
      5526      5525      5542      5538      5526      5525      5542      5543
      5526      5525      5542      5544      5526      5525      5546      5547
      5526      5525      5546      5548      5526      5525      5546      5549
      5527      5523      5528      5529      5527      5523      5528      5530
      5527      5523      5528      5538      5527      5525      5542      5538
      5527      5525      5542      5543      5527      5525      5542      5544
      5527      5525      5546      5547      5527      5525      5546      5548
      5527      5525      5546      5549      5528      5530      5532      5533
      5528      5530      5532      5534      5528      5538      5540      5541
      5528      5538      5542      5543      5528      5538      5542      5544
      5529      5528      5530      5531      5529      5528      5530      5532
      5529      5528      5538      5539      5529      5528      5538      5540
      5529      5528      5538      5542      5530      5528      5538      5539
      5530      5528      5538      5540      5530      5528      5538      5542
      5530      5532      5534      5535      5530      5532      5534      5536
      5530      5532      5534      5537      5531      5530      5528      5538
      5531      5530      5532      5533      5531      5530      5532      5534
      5532      5530      5528      5538      5533      5532      5534      5535
      5533      5532      5534      5536      5533      5532      5534      5537
      5538      5542      5525      5546      5538      5542      5544      5545
      5539      5538      5540      5541      5539      5538      5542      5543
      5539      5538      5542      5544      5540      5538      5542      5543
      5540      5538      5542      5544      5541      5540      5538      5542
      5542      5525      5546      5547      5542      5525      5546      5548
      5542      5525      5546      5549      5543      5542      5525      5546
      5543      5542      5544      5545      5544      5542      5525      5546
      5547      5546      5549      5550      5548      5546      5549      5550
      5551      5553      5552      5850      5551      5553      5555      5556
      5551      5553      5555      5557      5551      5553      5555      5564
      5552      5553      5555      5556      5552      5553      5555      5557
      5552      5553      5555      5564      5552      5850      5847      5848
      5552      5850      5847      5849      5552      5850      5853      5851
      5552      5850      5854      5855      5552      5850      5854      5856
      5552      5850      5854      5857      5553      5552      5850      5847
      5553      5552      5850      5853      5553      5552      5850      5854
      5553      5555      5556      5558      5553      5555      5564      5565
      5553      5555      5564      5566      5553      5555      5564      5571
      5554      5553      5552      5850      5554      5553      5555      5556
      5554      5553      5555      5557      5554      5553      5555      5564
      5555      5553      5552      5850      5555      5556      5558      5559
      5555      5556      5558      5560      5555      5556      5558      5579
      5555      5564      5566      5567      5555      5564      5571      5572
      5555      5564      5571      5573      5555      5564      5571      5579
      5556      5555      5564      5565      5556      5555      5564      5566
      5556      5555      5564      5571      5556      5558      5560      5561
      5556      5558      5579      5571      5556      5558      5579      5580
      5556      5558      5579      5581      5557      5555      5556      5558
      5557      5555      5564      5565      5557      5555      5564      5566
      5557      5555      5564      5571      5558      5556      5555      5564
      5558      5560      5561      5562      5558      5560      5561      5563
      5558      5560      5561      5587      5558      5579      5571      5564
      5558      5579      5571      5572      5558      5579      5571      5573
      5558      5579      5581      5582      5558      5579      5581      5688
      5559      5558      5560      5561      5559      5558      5579      5571
      5559      5558      5579      5580      5559      5558      5579      5581
      5560      5558      5579      5571      5560      5558      5579      5580
      5560      5558      5579      5581      5560      5561      5587      5583
      5560      5561      5587      5588      5560      5561      5587      5589
      5561      5560      5558      5579      5561      5587      5583      5584
      5561      5587      5583      5585      5561      5587      5583      5597
      5561      5587      5589      5590      5562      5561      5587      5583
      5562      5561      5587      5588      5562      5561      5587      5589
      5563      5561      5587      5583      5563      5561      5587      5588
      5563      5561      5587      5589      5564      5566      5567      5568
      5564      5566      5567      5569      5564      5566      5567      5570
      5564      5571      5572      5574      5564      5571      5579      5580
      5564      5571      5579      5581      5565      5564      5566      5567
      5565      5564      5571      5572      5565      5564      5571      5573
      5565      5564      5571      5579      5566      5564      5571      5572
      5566      5564      5571      5573      5566      5564      5571      5579
      5567      5566      5564      5571      5571      5572      5574      5575
      5571      5572      5574      5576      5571      5579      5581      5582
      5571      5579      5581      5688      5572      5571      5579      5580
      5572      5571      5579      5581      5572      5574      5576      5577
      5572      5574      5576      5578      5572      5574      5576      5609
      5573      5571      5572      5574      5573      5571      5579      5580
      5573      5571      5579      5581      5574      5572      5571      5579
      5574      5576      5609      5610      5574      5576      5609      5611
      5574      5576      5609      5654      5575      5574      5576      5577
      5575      5574      5576      5578      5575      5574      5576      5609
      5576      5609      5611      5612      5576      5609      5654      5655
      5576      5609      5654      5656      5576      5609      5654      5657
      5577      5576      5609      5610      5577      5576      5609      5611
      5577      5576      5609      5654      5578      5576      5609      5610
      5578      5576      5609      5611      5578      5576      5609      5654
      5579      5581      5688      5689      5579      5581      5688      5690
      5580      5579      5581      5582      5580      5579      5581      5688
      5581      5688      5690      5691      5581      5688      5690      5692
      5581      5688      5690      5693      5582      5581      5688      5689
      5582      5581      5688      5690      5583      5587      5589      5590
      5583      5597      5599      5600      5583      5597      5605      5590
      5583      5597      5605      5606      5583      5597      5605      5607
      5584      5583      5585      5586      5584      5583      5587      5588
      5584      5583      5587      5589      5584      5583      5597      5598
      5584      5583      5597      5599      5584      5583      5597      5605
      5585      5583      5587      5588      5585      5583      5587      5589
      5585      5583      5597      5598      5585      5583      5597      5599
      5585      5583      5597      5605      5586      5585      5583      5587
      5586      5585      5583      5597      5587      5583      5597      5598
      5587      5583      5597      5599      5587      5583      5597      5605
      5587      5589      5590      5591      5587      5589      5590      5592
      5587      5589      5590      5605      5588      5587      5583      5597
      5588      5587      5589      5590      5589      5587      5583      5597
      5589      5590      5592      5596      5589      5590      5605      5597
      5589      5590      5605      5606      5589      5590      5605      5607
      5590      5592      5596      5593      5590      5592      5596      5594
      5590      5592      5596      5595      5590      5605      5597      5598
      5590      5605      5597      5599      5590      5605      5607      5608
      5590      5605      5607      5804      5591      5590      5592      5596
      5591      5590      5605      5597      5591      5590      5605      5606
      5591      5590      5605      5607      5592      5590      5605      5597
      5592      5590      5605      5606      5592      5590      5605      5607
      5596      5592      5590      5605      5597      5599      5600      5601
      5597      5599      5600      5602      5597      5605      5607      5608
      5597      5605      5607      5804      5598      5597      5599      5600
      5598      5597      5605      5606      5598      5597      5605      5607
      5599      5597      5605      5606      5599      5597      5605      5607
      5599      5600      5602      5603      5599      5600      5602      5604
      5599      5600      5602      5766      5600      5599      5597      5605
      5600      5602      5766      5767      5600      5602      5766      5768
      5600      5602      5766      5770      5601      5600      5602      5603
      5601      5600      5602      5604      5601      5600      5602      5766
      5602      5766      5768      5769      5602      5766      5770      5771
      5602      5766      5770      5772      5602      5766      5770      5773
      5603      5602      5766      5767      5603      5602      5766      5768
      5603      5602      5766      5770      5604      5602      5766      5767
      5604      5602      5766      5768      5604      5602      5766      5770
      5605      5607      5804      5805      5605      5607      5804      5806
      5606      5605      5607      5608      5606      5605      5607      5804
      5607      5804      5806      5807      5607      5804      5806      5808
      5607      5804      5806      5809      5608      5607      5804      5805
      5608      5607      5804      5806      5609      5611      5612      5613
      5609      5611      5612      5614      5609      5654      5657      5658
      5609      5654      5657      5659      5609      5654      5657      5660
      5610      5609      5611      5612      5610      5609      5654      5655
      5610      5609      5654      5656      5610      5609      5654      5657
      5611      5609      5654      5655      5611      5609      5654      5656
      5611      5609      5654      5657      5611      5612      5614      5615
      5611      5612      5614      5616      5611      5612      5614      5617
      5612      5611      5609      5654      5612      5614      5617      5618
      5612      5614      5617      5619      5612      5614      5617      5620
      5613      5612      5614      5615      5613      5612      5614      5616
      5613      5612      5614      5617      5614      5617      5620      5621
      5614      5617      5620      5622      5614      5617      5620      5623
      5615      5614      5617      5618      5615      5614      5617      5619
      5615      5614      5617      5620      5616      5614      5617      5618
      5616      5614      5617      5619      5616      5614      5617      5620
      5617      5620      5623      5624      5617      5620      5623      5625
      5617      5620      5623      5626      5618      5617      5620      5621
      5618      5617      5620      5622      5618      5617      5620      5623
      5619      5617      5620      5621      5619      5617      5620      5622
      5619      5617      5620      5623      5620      5623      5626      5627
      5620      5623      5626      5628      5620      5623      5626      5629
      5621      5620      5623      5624      5621      5620      5623      5625
      5621      5620      5623      5626      5622      5620      5623      5624
      5622      5620      5623      5625      5622      5620      5623      5626
      5623      5626      5629      5630      5623      5626      5629      5631
      5623      5626      5629      5632      5624      5623      5626      5627
      5624      5623      5626      5628      5624      5623      5626      5629
      5625      5623      5626      5627      5625      5623      5626      5628
      5625      5623      5626      5629      5626      5629      5632      5633
      5626      5629      5632      5634      5626      5629      5632      5635
      5627      5626      5629      5630      5627      5626      5629      5631
      5627      5626      5629      5632      5628      5626      5629      5630
      5628      5626      5629      5631      5628      5626      5629      5632
      5629      5632      5635      5636      5629      5632      5635      5637
      5629      5632      5635      5638      5630      5629      5632      5633
      5630      5629      5632      5634      5630      5629      5632      5635
      5631      5629      5632      5633      5631      5629      5632      5634
      5631      5629      5632      5635      5632      5635      5638      5639
      5632      5635      5638      5640      5632      5635      5638      5641
      5633      5632      5635      5636      5633      5632      5635      5637
      5633      5632      5635      5638      5634      5632      5635      5636
      5634      5632      5635      5637      5634      5632      5635      5638
      5635      5638      5641      5642      5635      5638      5641      5643
      5635      5638      5641      5644      5636      5635      5638      5639
      5636      5635      5638      5640      5636      5635      5638      5641
      5637      5635      5638      5639      5637      5635      5638      5640
      5637      5635      5638      5641      5638      5641      5644      5645
      5638      5641      5644      5646      5638      5641      5644      5647
      5639      5638      5641      5642      5639      5638      5641      5643
      5639      5638      5641      5644      5640      5638      5641      5642
      5640      5638      5641      5643      5640      5638      5641      5644
      5641      5644      5647      5648      5641      5644      5647      5649
      5641      5644      5647      5650      5642      5641      5644      5645
      5642      5641      5644      5646      5642      5641      5644      5647
      5643      5641      5644      5645      5643      5641      5644      5646
      5643      5641      5644      5647      5644      5647      5650      5651
      5644      5647      5650      5652      5644      5647      5650      5653
      5645      5644      5647      5648      5645      5644      5647      5649
      5645      5644      5647      5650      5646      5644      5647      5648
      5646      5644      5647      5649      5646      5644      5647      5650
      5648      5647      5650      5651      5648      5647      5650      5652
      5648      5647      5650      5653      5649      5647      5650      5651
      5649      5647      5650      5652      5649      5647      5650      5653
      5654      5657      5660      5661      5654      5657      5660      5662
      5654      5657      5660      5663      5655      5654      5657      5658
      5655      5654      5657      5659      5655      5654      5657      5660
      5656      5654      5657      5658      5656      5654      5657      5659
      5656      5654      5657      5660      5657      5660      5663      5664
      5657      5660      5663      5665      5657      5660      5663      5666
      5658      5657      5660      5661      5658      5657      5660      5662
      5658      5657      5660      5663      5659      5657      5660      5661
      5659      5657      5660      5662      5659      5657      5660      5663
      5660      5663      5666      5667      5660      5663      5666      5668
      5660      5663      5666      5669      5661      5660      5663      5664
      5661      5660      5663      5665      5661      5660      5663      5666
      5662      5660      5663      5664      5662      5660      5663      5665
      5662      5660      5663      5666      5663      5666      5669      5670
      5663      5666      5669      5671      5663      5666      5669      5672
      5664      5663      5666      5667      5664      5663      5666      5668
      5664      5663      5666      5669      5665      5663      5666      5667
      5665      5663      5666      5668      5665      5663      5666      5669
      5666      5669      5672      5673      5666      5669      5672      5674
      5666      5669      5672      5675      5667      5666      5669      5670
      5667      5666      5669      5671      5667      5666      5669      5672
      5668      5666      5669      5670      5668      5666      5669      5671
      5668      5666      5669      5672      5669      5672      5675      5676
      5669      5672      5675      5677      5669      5672      5675      5678
      5670      5669      5672      5673      5670      5669      5672      5674
      5670      5669      5672      5675      5671      5669      5672      5673
      5671      5669      5672      5674      5671      5669      5672      5675
      5672      5675      5678      5679      5672      5675      5678      5680
      5672      5675      5678      5681      5673      5672      5675      5676
      5673      5672      5675      5677      5673      5672      5675      5678
      5674      5672      5675      5676      5674      5672      5675      5677
      5674      5672      5675      5678      5675      5678      5681      5682
      5675      5678      5681      5683      5675      5678      5681      5684
      5676      5675      5678      5679      5676      5675      5678      5680
      5676      5675      5678      5681      5677      5675      5678      5679
      5677      5675      5678      5680      5677      5675      5678      5681
      5678      5681      5684      5685      5678      5681      5684      5686
      5678      5681      5684      5687      5679      5678      5681      5682
      5679      5678      5681      5683      5679      5678      5681      5684
      5680      5678      5681      5682      5680      5678      5681      5683
      5680      5678      5681      5684      5682      5681      5684      5685
      5682      5681      5684      5686      5682      5681      5684      5687
      5683      5681      5684      5685      5683      5681      5684      5686
      5683      5681      5684      5687      5688      5690      5693      5694
      5688      5690      5693      5695      5688      5690      5693      5732
      5689      5688      5690      5691      5689      5688      5690      5692
      5689      5688      5690      5693      5690      5693      5695      5696
      5690      5693      5732      5733      5690      5693      5732      5734
      5690      5693      5732      5735      5691      5690      5693      5694
      5691      5690      5693      5695      5691      5690      5693      5732
      5692      5690      5693      5694      5692      5690      5693      5695
      5692      5690      5693      5732      5693      5695      5696      5697
      5693      5695      5696      5698      5693      5732      5735      5736
      5693      5732      5735      5737      5693      5732      5735      5738
      5694      5693      5695      5696      5694      5693      5732      5733
      5694      5693      5732      5734      5694      5693      5732      5735
      5695      5693      5732      5733      5695      5693      5732      5734
      5695      5693      5732      5735      5695      5696      5698      5699
      5695      5696      5698      5700      5695      5696      5698      5701
      5696      5695      5693      5732      5696      5698      5701      5702
      5696      5698      5701      5703      5696      5698      5701      5704
      5697      5696      5698      5699      5697      5696      5698      5700
      5697      5696      5698      5701      5698      5701      5704      5705
      5698      5701      5704      5706      5698      5701      5704      5707
      5699      5698      5701      5702      5699      5698      5701      5703
      5699      5698      5701      5704      5700      5698      5701      5702
      5700      5698      5701      5703      5700      5698      5701      5704
      5701      5704      5707      5708      5701      5704      5707      5709
      5701      5704      5707      5710      5702      5701      5704      5705
      5702      5701      5704      5706      5702      5701      5704      5707
      5703      5701      5704      5705      5703      5701      5704      5706
      5703      5701      5704      5707      5704      5707      5710      5711
      5704      5707      5710      5712      5704      5707      5710      5713
      5705      5704      5707      5708      5705      5704      5707      5709
      5705      5704      5707      5710      5706      5704      5707      5708
      5706      5704      5707      5709      5706      5704      5707      5710
      5707      5710      5713      5714      5707      5710      5713      5715
      5707      5710      5713      5716      5708      5707      5710      5711
      5708      5707      5710      5712      5708      5707      5710      5713
      5709      5707      5710      5711      5709      5707      5710      5712
      5709      5707      5710      5713      5710      5713      5716      5717
      5710      5713      5716      5718      5710      5713      5716      5719
      5711      5710      5713      5714      5711      5710      5713      5715
      5711      5710      5713      5716      5712      5710      5713      5714
      5712      5710      5713      5715      5712      5710      5713      5716
      5713      5716      5719      5720      5713      5716      5719      5721
      5713      5716      5719      5722      5714      5713      5716      5717
      5714      5713      5716      5718      5714      5713      5716      5719
      5715      5713      5716      5717      5715      5713      5716      5718
      5715      5713      5716      5719      5716      5719      5722      5723
      5716      5719      5722      5724      5716      5719      5722      5725
      5717      5716      5719      5720      5717      5716      5719      5721
      5717      5716      5719      5722      5718      5716      5719      5720
      5718      5716      5719      5721      5718      5716      5719      5722
      5719      5722      5725      5726      5719      5722      5725      5727
      5719      5722      5725      5728      5720      5719      5722      5723
      5720      5719      5722      5724      5720      5719      5722      5725
      5721      5719      5722      5723      5721      5719      5722      5724
      5721      5719      5722      5725      5722      5725      5728      5729
      5722      5725      5728      5730      5722      5725      5728      5731
      5723      5722      5725      5726      5723      5722      5725      5727
      5723      5722      5725      5728      5724      5722      5725      5726
      5724      5722      5725      5727      5724      5722      5725      5728
      5726      5725      5728      5729      5726      5725      5728      5730
      5726      5725      5728      5731      5727      5725      5728      5729
      5727      5725      5728      5730      5727      5725      5728      5731
      5732      5735      5738      5739      5732      5735      5738      5740
      5732      5735      5738      5741      5733      5732      5735      5736
      5733      5732      5735      5737      5733      5732      5735      5738
      5734      5732      5735      5736      5734      5732      5735      5737
      5734      5732      5735      5738      5735      5738      5741      5742
      5735      5738      5741      5743      5735      5738      5741      5744
      5736      5735      5738      5739      5736      5735      5738      5740
      5736      5735      5738      5741      5737      5735      5738      5739
      5737      5735      5738      5740      5737      5735      5738      5741
      5738      5741      5744      5745      5738      5741      5744      5746
      5738      5741      5744      5747      5739      5738      5741      5742
      5739      5738      5741      5743      5739      5738      5741      5744
      5740      5738      5741      5742      5740      5738      5741      5743
      5740      5738      5741      5744      5741      5744      5747      5748
      5741      5744      5747      5749      5741      5744      5747      5750
      5742      5741      5744      5745      5742      5741      5744      5746
      5742      5741      5744      5747      5743      5741      5744      5745
      5743      5741      5744      5746      5743      5741      5744      5747
      5744      5747      5750      5751      5744      5747      5750      5752
      5744      5747      5750      5753      5745      5744      5747      5748
      5745      5744      5747      5749      5745      5744      5747      5750
      5746      5744      5747      5748      5746      5744      5747      5749
      5746      5744      5747      5750      5747      5750      5753      5754
      5747      5750      5753      5755      5747      5750      5753      5756
      5748      5747      5750      5751      5748      5747      5750      5752
      5748      5747      5750      5753      5749      5747      5750      5751
      5749      5747      5750      5752      5749      5747      5750      5753
      5750      5753      5756      5757      5750      5753      5756      5758
      5750      5753      5756      5759      5751      5750      5753      5754
      5751      5750      5753      5755      5751      5750      5753      5756
      5752      5750      5753      5754      5752      5750      5753      5755
      5752      5750      5753      5756      5753      5756      5759      5760
      5753      5756      5759      5761      5753      5756      5759      5762
      5754      5753      5756      5757      5754      5753      5756      5758
      5754      5753      5756      5759      5755      5753      5756      5757
      5755      5753      5756      5758      5755      5753      5756      5759
      5756      5759      5762      5763      5756      5759      5762      5764
      5756      5759      5762      5765      5757      5756      5759      5760
      5757      5756      5759      5761      5757      5756      5759      5762
      5758      5756      5759      5760      5758      5756      5759      5761
      5758      5756      5759      5762      5760      5759      5762      5763
      5760      5759      5762      5764      5760      5759      5762      5765
      5761      5759      5762      5763      5761      5759      5762      5764
      5761      5759      5762      5765      5766      5770      5773      5774
      5766      5770      5773      5775      5766      5770      5773      5776
      5767      5766      5768      5769      5767      5766      5770      5771
      5767      5766      5770      5772      5767      5766      5770      5773
      5768      5766      5770      5771      5768      5766      5770      5772
      5768      5766      5770      5773      5769      5768      5766      5770
      5770      5773      5776      5777      5770      5773      5776      5778
      5770      5773      5776      5779      5771      5770      5773      5774
      5771      5770      5773      5775      5771      5770      5773      5776
      5772      5770      5773      5774      5772      5770      5773      5775
      5772      5770      5773      5776      5773      5776      5779      5780
      5773      5776      5779      5781      5773      5776      5779      5782
      5774      5773      5776      5777      5774      5773      5776      5778
      5774      5773      5776      5779      5775      5773      5776      5777
      5775      5773      5776      5778      5775      5773      5776      5779
      5776      5779      5782      5783      5776      5779      5782      5784
      5776      5779      5782      5785      5777      5776      5779      5780
      5777      5776      5779      5781      5777      5776      5779      5782
      5778      5776      5779      5780      5778      5776      5779      5781
      5778      5776      5779      5782      5779      5782      5785      5786
      5779      5782      5785      5787      5779      5782      5785      5788
      5780      5779      5782      5783      5780      5779      5782      5784
      5780      5779      5782      5785      5781      5779      5782      5783
      5781      5779      5782      5784      5781      5779      5782      5785
      5782      5785      5788      5789      5782      5785      5788      5790
      5782      5785      5788      5791      5783      5782      5785      5786
      5783      5782      5785      5787      5783      5782      5785      5788
      5784      5782      5785      5786      5784      5782      5785      5787
      5784      5782      5785      5788      5785      5788      5791      5792
      5785      5788      5791      5793      5785      5788      5791      5794
      5786      5785      5788      5789      5786      5785      5788      5790
      5786      5785      5788      5791      5787      5785      5788      5789
      5787      5785      5788      5790      5787      5785      5788      5791
      5788      5791      5794      5795      5788      5791      5794      5796
      5788      5791      5794      5797      5789      5788      5791      5792
      5789      5788      5791      5793      5789      5788      5791      5794
      5790      5788      5791      5792      5790      5788      5791      5793
      5790      5788      5791      5794      5791      5794      5797      5798
      5791      5794      5797      5799      5791      5794      5797      5800
      5792      5791      5794      5795      5792      5791      5794      5796
      5792      5791      5794      5797      5793      5791      5794      5795
      5793      5791      5794      5796      5793      5791      5794      5797
      5794      5797      5800      5801      5794      5797      5800      5802
      5794      5797      5800      5803      5795      5794      5797      5798
      5795      5794      5797      5799      5795      5794      5797      5800
      5796      5794      5797      5798      5796      5794      5797      5799
      5796      5794      5797      5800      5798      5797      5800      5801
      5798      5797      5800      5802      5798      5797      5800      5803
      5799      5797      5800      5801      5799      5797      5800      5802
      5799      5797      5800      5803      5804      5806      5809      5810
      5804      5806      5809      5811      5804      5806      5809      5813
      5805      5804      5806      5807      5805      5804      5806      5808
      5805      5804      5806      5809      5806      5809      5811      5812
      5806      5809      5813      5814      5806      5809      5813      5815
      5806      5809      5813      5816      5807      5806      5809      5810
      5807      5806      5809      5811      5807      5806      5809      5813
      5808      5806      5809      5810      5808      5806      5809      5811
      5808      5806      5809      5813      5809      5813      5816      5817
      5809      5813      5816      5818      5809      5813      5816      5819
      5810      5809      5811      5812      5810      5809      5813      5814
      5810      5809      5813      5815      5810      5809      5813      5816
      5811      5809      5813      5814      5811      5809      5813      5815
      5811      5809      5813      5816      5812      5811      5809      5813
      5813      5816      5819      5820      5813      5816      5819      5821
      5813      5816      5819      5822      5814      5813      5816      5817
      5814      5813      5816      5818      5814      5813      5816      5819
      5815      5813      5816      5817      5815      5813      5816      5818
      5815      5813      5816      5819      5816      5819      5822      5823
      5816      5819      5822      5824      5816      5819      5822      5825
      5817      5816      5819      5820      5817      5816      5819      5821
      5817      5816      5819      5822      5818      5816      5819      5820
      5818      5816      5819      5821      5818      5816      5819      5822
      5819      5822      5825      5826      5819      5822      5825      5827
      5819      5822      5825      5828      5820      5819      5822      5823
      5820      5819      5822      5824      5820      5819      5822      5825
      5821      5819      5822      5823      5821      5819      5822      5824
      5821      5819      5822      5825      5822      5825      5828      5829
      5822      5825      5828      5830      5822      5825      5828      5831
      5823      5822      5825      5826      5823      5822      5825      5827
      5823      5822      5825      5828      5824      5822      5825      5826
      5824      5822      5825      5827      5824      5822      5825      5828
      5825      5828      5831      5832      5825      5828      5831      5833
      5825      5828      5831      5834      5826      5825      5828      5829
      5826      5825      5828      5830      5826      5825      5828      5831
      5827      5825      5828      5829      5827      5825      5828      5830
      5827      5825      5828      5831      5828      5831      5834      5835
      5828      5831      5834      5836      5828      5831      5834      5837
      5829      5828      5831      5832      5829      5828      5831      5833
      5829      5828      5831      5834      5830      5828      5831      5832
      5830      5828      5831      5833      5830      5828      5831      5834
      5831      5834      5837      5838      5831      5834      5837      5839
      5831      5834      5837      5840      5832      5831      5834      5835
      5832      5831      5834      5836      5832      5831      5834      5837
      5833      5831      5834      5835      5833      5831      5834      5836
      5833      5831      5834      5837      5834      5837      5840      5841
      5834      5837      5840      5842      5834      5837      5840      5843
      5835      5834      5837      5838      5835      5834      5837      5839
      5835      5834      5837      5840      5836      5834      5837      5838
      5836      5834      5837      5839      5836      5834      5837      5840
      5837      5840      5843      5844      5837      5840      5843      5845
      5837      5840      5843      5846      5838      5837      5840      5841
      5838      5837      5840      5842      5838      5837      5840      5843
      5839      5837      5840      5841      5839      5837      5840      5842
      5839      5837      5840      5843      5841      5840      5843      5844
      5841      5840      5843      5845      5841      5840      5843      5846
      5842      5840      5843      5844      5842      5840      5843      5845
      5842      5840      5843      5846      5847      5850      5853      5851
      5847      5850      5854      5855      5847      5850      5854      5856
      5847      5850      5854      5857      5848      5847      5850      5853
      5848      5847      5850      5854      5849      5847      5850      5853
      5849      5847      5850      5854      5850      5853      5851      5852
      5850      5853      5851      5860      5850      5853      5851      5863
      5850      5854      5857      5858      5850      5854      5857      5859
      5850      5854      5857      5860      5851      5853      5850      5854
      5851      5860      5857      5854      5851      5860      5857      5858
      5851      5860      5857      5859      5851      5860      5862      5899
      5851      5863      5865      5866      5851      5863      5867      5868
      5851      5863      5867      5869      5851      5863      5867      5870
      5852      5851      5860      5857      5852      5851      5860      5861
      5852      5851      5860      5862      5852      5851      5863      5864
      5852      5851      5863      5865      5852      5851      5863      5867
      5853      5850      5854      5855      5853      5850      5854      5856
      5853      5850      5854      5857      5853      5851      5860      5857
      5853      5851      5860      5861      5853      5851      5860      5862
      5853      5851      5863      5864      5853      5851      5863      5865
      5853      5851      5863      5867      5854      5857      5859      5875
      5854      5857      5860      5861      5854      5857      5860      5862
      5855      5854      5857      5858      5855      5854      5857      5859
      5855      5854      5857      5860      5856      5854      5857      5858
      5856      5854      5857      5859      5856      5854      5857      5860
      5857      5859      5875      5872      5857      5859      5875      5878
      5857      5859      5875      5879      5857      5860      5851      5863
      5857      5860      5862      5899      5858      5857      5859      5875
      5858      5857      5860      5861      5858      5857      5860      5862
      5859      5857      5860      5861      5859      5857      5860      5862
      5859      5875      5872      5873      5859      5875      5872      5874
      5859      5875      5878      5876      5859      5875      5879      5880
      5859      5875      5879      5881      5859      5875      5879      5882
      5860      5851      5863      5864      5860      5851      5863      5865
      5860      5851      5863      5867      5860      5857      5859      5875
      5860      5862      5899      5900      5860      5862      5899      5903
      5860      5862      5899      5904      5861      5860      5851      5863
      5861      5860      5862      5899      5862      5860      5851      5863
      5862      5899      5903      5901      5862      5899      5904      5905
      5862      5899      5904      5906      5862      5899      5904      5908
      5863      5867      5870      5871      5864      5863      5865      5866
      5864      5863      5867      5868      5864      5863      5867      5869
      5864      5863      5867      5870      5865      5863      5867      5868
      5865      5863      5867      5869      5865      5863      5867      5870
      5866      5865      5863      5867      5868      5867      5870      5871
      5869      5867      5870      5871      5872      5875      5878      5876
      5872      5875      5879      5880      5872      5875      5879      5881
      5872      5875      5879      5882      5873      5872      5875      5878
      5873      5872      5875      5879      5874      5872      5875      5878
      5874      5872      5875      5879      5875      5878      5876      5877
      5875      5878      5876      5886      5875      5878      5876      5890
      5875      5879      5882      5883      5875      5879      5882      5884
      5875      5879      5882      5886      5876      5878      5875      5879
      5876      5886      5882      5879      5876      5886      5882      5883
      5876      5886      5882      5884      5876      5886      5888      5889
      5876      5890      5892      5893      5876      5890      5894      5895
      5876      5890      5894      5896      5876      5890      5894      5897
      5877      5876      5886      5882      5877      5876      5886      5887
      5877      5876      5886      5888      5877      5876      5890      5891
      5877      5876      5890      5892      5877      5876      5890      5894
      5878      5875      5879      5880      5878      5875      5879      5881
      5878      5875      5879      5882      5878      5876      5886      5882
      5878      5876      5886      5887      5878      5876      5886      5888
      5878      5876      5890      5891      5878      5876      5890      5892
      5878      5876      5890      5894      5879      5882      5884      5885
      5879      5882      5886      5887      5879      5882      5886      5888
      5880      5879      5882      5883      5880      5879      5882      5884
      5880      5879      5882      5886      5881      5879      5882      5883
      5881      5879      5882      5884      5881      5879      5882      5886
      5882      5886      5876      5890      5882      5886      5888      5889
      5883      5882      5884      5885      5883      5882      5886      5887
      5883      5882      5886      5888      5884      5882      5886      5887
      5884      5882      5886      5888      5885      5884      5882      5886
      5886      5876      5890      5891      5886      5876      5890      5892
      5886      5876      5890      5894      5887      5886      5876      5890
      5887      5886      5888      5889      5888      5886      5876      5890
      5890      5894      5897      5898      5891      5890      5892      5893
      5891      5890      5894      5895      5891      5890      5894      5896
      5891      5890      5894      5897      5892      5890      5894      5895
      5892      5890      5894      5896      5892      5890      5894      5897
      5893      5892      5890      5894      5895      5894      5897      5898
      5896      5894      5897      5898      5899      5903      5901      5902
      5899      5903      5901      5911      5899      5903      5901      5918
      5899      5904      5906      5907      5899      5904      5908      5909
      5899      5904      5908      5910      5899      5904      5908      5911
      5900      5899      5903      5901      5900      5899      5904      5905
      5900      5899      5904      5906      5900      5899      5904      5908
      5901      5903      5899      5904      5901      5911      5908      5904
      5901      5911      5908      5909      5901      5911      5908      5910
      5901      5911      5913      5914      5901      5918      5920      5921
      5901      5918      5922      5923      5901      5918      5922      5924
      5901      5918      5922      5925      5902      5901      5911      5908
      5902      5901      5911      5912      5902      5901      5911      5913
      5902      5901      5918      5919      5902      5901      5918      5920
      5902      5901      5918      5922      5903      5899      5904      5905
      5903      5899      5904      5906      5903      5899      5904      5908
      5903      5901      5911      5908      5903      5901      5911      5912
      5903      5901      5911      5913      5903      5901      5918      5919
      5903      5901      5918      5920      5903      5901      5918      5922
      5904      5908      5910      5927      5904      5908      5911      5912
      5904      5908      5911      5913      5905      5904      5906      5907
      5905      5904      5908      5909      5905      5904      5908      5910
      5905      5904      5908      5911      5906      5904      5908      5909
      5906      5904      5908      5910      5906      5904      5908      5911
      5907      5906      5904      5908      5908      5910      5927      5928
      5908      5910      5927      5931      5908      5910      5927      5932
      5908      5911      5901      5918      5908      5911      5913      5914
      5909      5908      5910      5927      5909      5908      5911      5912
      5909      5908      5911      5913      5910      5908      5911      5912
      5910      5908      5911      5913      5910      5927      5931      5929
      5910      5927      5932      5933      5910      5927      5932      5934
      5910      5927      5932      5936      5911      5901      5918      5919
      5911      5901      5918      5920      5911      5901      5918      5922
      5911      5908      5910      5927      5911      5913      5914      5915
      5911      5913      5914      5916      5911      5913      5914      5917
      5912      5911      5901      5918      5912      5911      5913      5914
      5913      5911      5901      5918      5918      5922      5925      5926
      5919      5918      5920      5921      5919      5918      5922      5923
      5919      5918      5922      5924      5919      5918      5922      5925
      5920      5918      5922      5923      5920      5918      5922      5924
      5920      5918      5922      5925      5921      5920      5918      5922
      5923      5922      5925      5926      5924      5922      5925      5926
      5927      5931      5929      5930      5927      5931      5929      5939
      5927      5931      5929      5946      5927      5932      5934      5935
      5927      5932      5936      5937      5927      5932      5936      5938
      5927      5932      5936      5939      5928      5927      5931      5929
      5928      5927      5932      5933      5928      5927      5932      5934
      5928      5927      5932      5936      5929      5931      5927      5932
      5929      5939      5936      5932      5929      5939      5936      5937
      5929      5939      5936      5938      5929      5939      5941      5942
      5929      5946      5948      5949      5929      5946      5950      5951
      5929      5946      5950      5952      5929      5946      5950      5953
      5930      5929      5939      5936      5930      5929      5939      5940
      5930      5929      5939      5941      5930      5929      5946      5947
      5930      5929      5946      5948      5930      5929      5946      5950
      5931      5927      5932      5933      5931      5927      5932      5934
      5931      5927      5932      5936      5931      5929      5939      5936
      5931      5929      5939      5940      5931      5929      5939      5941
      5931      5929      5946      5947      5931      5929      5946      5948
      5931      5929      5946      5950      5932      5936      5938      5980
      5932      5936      5939      5940      5932      5936      5939      5941
      5933      5932      5934      5935      5933      5932      5936      5937
      5933      5932      5936      5938      5933      5932      5936      5939
      5934      5932      5936      5937      5934      5932      5936      5938
      5934      5932      5936      5939      5935      5934      5932      5936
      5936      5938      5980      5981      5936      5938      5980      5984
      5936      5938      5980      5985      5936      5939      5929      5946
      5936      5939      5941      5942      5937      5936      5938      5980
      5937      5936      5939      5940      5937      5936      5939      5941
      5938      5936      5939      5940      5938      5936      5939      5941
      5938      5980      5984      5982      5938      5980      5985      5986
      5938      5980      5985      5987      5938      5980      5985      5989
      5939      5929      5946      5947      5939      5929      5946      5948
      5939      5929      5946      5950      5939      5936      5938      5980
      5939      5941      5942      5943      5939      5941      5942      5944
      5939      5941      5942      5945      5940      5939      5929      5946
      5940      5939      5941      5942      5941      5939      5929      5946
      5946      5950      5953      5954      5947      5946      5948      5949
      5947      5946      5950      5951      5947      5946      5950      5952
      5947      5946      5950      5953      5948      5946      5950      5951
      5948      5946      5950      5952      5948      5946      5950      5953
      5949      5948      5946      5950      5950      5953      5954      5955
      5950      5953      5954      5958      5950      5953      5954      5959
      5951      5950      5953      5954      5952      5950      5953      5954
      5953      5954      5958      5956      5953      5954      5959      5960
      5953      5954      5959      5961      5953      5954      5959      5963
      5954      5958      5956      5957      5954      5958      5956      5967
      5954      5958      5956      5971      5954      5959      5961      5962
      5954      5959      5963      5964      5954      5959      5963      5965
      5954      5959      5963      5967      5955      5954      5958      5956
      5955      5954      5959      5960      5955      5954      5959      5961
      5955      5954      5959      5963      5956      5958      5954      5959
      5956      5967      5963      5959      5956      5967      5963      5964
      5956      5967      5963      5965      5956      5967      5969      5970
      5956      5971      5973      5974      5956      5971      5975      5976
      5956      5971      5975      5977      5956      5971      5975      5978
      5957      5956      5967      5963      5957      5956      5967      5968
      5957      5956      5967      5969      5957      5956      5971      5972
      5957      5956      5971      5973      5957      5956      5971      5975
      5958      5954      5959      5960      5958      5954      5959      5961
      5958      5954      5959      5963      5958      5956      5967      5963
      5958      5956      5967      5968      5958      5956      5967      5969
      5958      5956      5971      5972      5958      5956      5971      5973
      5958      5956      5971      5975      5959      5963      5965      5966
      5959      5963      5967      5968      5959      5963      5967      5969
      5960      5959      5961      5962      5960      5959      5963      5964
      5960      5959      5963      5965      5960      5959      5963      5967
      5961      5959      5963      5964      5961      5959      5963      5965
      5961      5959      5963      5967      5962      5961      5959      5963
      5963      5967      5956      5971      5963      5967      5969      5970
      5964      5963      5965      5966      5964      5963      5967      5968
      5964      5963      5967      5969      5965      5963      5967      5968
      5965      5963      5967      5969      5966      5965      5963      5967
      5967      5956      5971      5972      5967      5956      5971      5973
      5967      5956      5971      5975      5968      5967      5956      5971
      5968      5967      5969      5970      5969      5967      5956      5971
      5971      5975      5978      5979      5972      5971      5973      5974
      5972      5971      5975      5976      5972      5971      5975      5977
      5972      5971      5975      5978      5973      5971      5975      5976
      5973      5971      5975      5977      5973      5971      5975      5978
      5974      5973      5971      5975      5976      5975      5978      5979
      5977      5975      5978      5979      5980      5984      5982      5983
      5980      5984      5982      5992      5980      5984      5982      5996
      5980      5985      5987      5988      5980      5985      5989      5990
      5980      5985      5989      5991      5980      5985      5989      5992
      5981      5980      5984      5982      5981      5980      5985      5986
      5981      5980      5985      5987      5981      5980      5985      5989
      5982      5984      5980      5985      5982      5992      5989      5985
      5982      5992      5989      5990      5982      5992      5989      5991
      5982      5992      5994      5995      5982      5996      5999      6000
      5983      5982      5992      5989      5983      5982      5992      5993
      5983      5982      5992      5994      5983      5982      5996      5997
      5983      5982      5996      5998      5983      5982      5996      5999
      5984      5980      5985      5986      5984      5980      5985      5987
      5984      5980      5985      5989      5984      5982      5992      5989
      5984      5982      5992      5993      5984      5982      5992      5994
      5984      5982      5996      5997      5984      5982      5996      5998
      5984      5982      5996      5999      5985      5989      5991      6001
      5985      5989      5992      5993      5985      5989      5992      5994
      5986      5985      5987      5988      5986      5985      5989      5990
      5986      5985      5989      5991      5986      5985      5989      5992
      5987      5985      5989      5990      5987      5985      5989      5991
      5987      5985      5989      5992      5988      5987      5985      5989
      5989      5991      6001      6002      5989      5991      6001      6005
      5989      5991      6001      6006      5989      5992      5982      5996
      5989      5992      5994      5995      5990      5989      5991      6001
      5990      5989      5992      5993      5990      5989      5992      5994
      5991      5989      5992      5993      5991      5989      5992      5994
      5991      6001      6005      6003      5991      6001      6006      6007
      5991      6001      6006      6008      5991      6001      6006      6009
      5992      5982      5996      5997      5992      5982      5996      5998
      5992      5982      5996      5999      5992      5989      5991      6001
      5993      5992      5982      5996      5993      5992      5994      5995
      5994      5992      5982      5996      5997      5996      5999      6000
      5998      5996      5999      6000      6001      6005      6003      6004
      6001      6005      6003      6012      6001      6005      6003      6016
      6001      6006      6008      6021      6001      6006      6009      6010
      6001      6006      6009      6011      6001      6006      6009      6012
      6002      6001      6005      6003      6002      6001      6006      6007
      6002      6001      6006      6008      6002      6001      6006      6009
      6003      6005      6001      6006      6003      6012      6009      6006
      6003      6012      6009      6010      6003      6012      6009      6011
      6003      6012      6014      6015      6003      6016      6019      6020
      6004      6003      6012      6009      6004      6003      6012      6013
      6004      6003      6012      6014      6004      6003      6016      6017
      6004      6003      6016      6018      6004      6003      6016      6019
      6005      6001      6006      6007      6005      6001      6006      6008
      6005      6001      6006      6009      6005      6003      6012      6009
      6005      6003      6012      6013      6005      6003      6012      6014
      6005      6003      6016      6017      6005      6003      6016      6018
      6005      6003      6016      6019      6006      6008      6021      6022
      6006      6008      6021      6025      6006      6008      6021      6026
      6006      6009      6011      6064      6006      6009      6012      6013
      6006      6009      6012      6014      6007      6006      6008      6021
      6007      6006      6009      6010      6007      6006      6009      6011
      6007      6006      6009      6012      6008      6006      6009      6010
      6008      6006      6009      6011      6008      6006      6009      6012
      6008      6021      6025      6023      6008      6021      6026      6027
      6008      6021      6026      6028      6008      6021      6026      6029
      6009      6006      6008      6021      6009      6011      6064      6065
      6009      6011      6064      6068      6009      6011      6064      6069
      6009      6012      6003      6016      6009      6012      6014      6015
      6010      6009      6011      6064      6010      6009      6012      6013
      6010      6009      6012      6014      6011      6009      6012      6013
      6011      6009      6012      6014      6011      6064      6068      6066
      6011      6064      6069      6070      6011      6064      6069      6071
      6011      6064      6069      6073      6012      6003      6016      6017
      6012      6003      6016      6018      6012      6003      6016      6019
      6012      6009      6011      6064      6013      6012      6003      6016
      6013      6012      6014      6015      6014      6012      6003      6016
      6017      6016      6019      6020      6018      6016      6019      6020
      6021      6025      6023      6024      6021      6025      6023      6033
      6021      6025      6023      6037      6021      6026      6028      6042
      6021      6026      6029      6030      6021      6026      6029      6031
      6021      6026      6029      6033      6022      6021      6025      6023
      6022      6021      6026      6027      6022      6021      6026      6028
      6022      6021      6026      6029      6023      6025      6021      6026
      6023      6033      6029      6026      6023      6033      6029      6030
      6023      6033      6029      6031      6023      6033      6035      6036
      6023      6037      6040      6041      6024      6023      6033      6029
      6024      6023      6033      6034      6024      6023      6033      6035
      6024      6023      6037      6038      6024      6023      6037      6039
      6024      6023      6037      6040      6025      6021      6026      6027
      6025      6021      6026      6028      6025      6021      6026      6029
      6025      6023      6033      6029      6025      6023      6033      6034
      6025      6023      6033      6035      6025      6023      6037      6038
      6025      6023      6037      6039      6025      6023      6037      6040
      6026      6028      6042      6043      6026      6028      6042      6046
      6026      6028      6042      6047      6026      6029      6031      6032
      6026      6029      6033      6034      6026      6029      6033      6035
      6027      6026      6028      6042      6027      6026      6029      6030
      6027      6026      6029      6031      6027      6026      6029      6033
      6028      6026      6029      6030      6028      6026      6029      6031
      6028      6026      6029      6033      6028      6042      6046      6044
      6028      6042      6047      6048      6028      6042      6047      6049
      6028      6042      6047      6051      6029      6026      6028      6042
      6029      6033      6023      6037      6029      6033      6035      6036
      6030      6029      6031      6032      6030      6029      6033      6034
      6030      6029      6033      6035      6031      6029      6033      6034
      6031      6029      6033      6035      6032      6031      6029      6033
      6033      6023      6037      6038      6033      6023      6037      6039
      6033      6023      6037      6040      6034      6033      6023      6037
      6034      6033      6035      6036      6035      6033      6023      6037
      6038      6037      6040      6041      6039      6037      6040      6041
      6042      6046      6044      6045      6042      6046      6044      6055
      6042      6046      6044      6059      6042      6047      6049      6050
      6042      6047      6051      6052      6042      6047      6051      6053
      6042      6047      6051      6055      6043      6042      6046      6044
      6043      6042      6047      6048      6043      6042      6047      6049
      6043      6042      6047      6051      6044      6046      6042      6047
      6044      6055      6051      6047      6044      6055      6051      6052
      6044      6055      6051      6053      6044      6055      6057      6058
      6044      6059      6062      6063      6045      6044      6055      6051
      6045      6044      6055      6056      6045      6044      6055      6057
      6045      6044      6059      6060      6045      6044      6059      6061
      6045      6044      6059      6062      6046      6042      6047      6048
      6046      6042      6047      6049      6046      6042      6047      6051
      6046      6044      6055      6051      6046      6044      6055      6056
      6046      6044      6055      6057      6046      6044      6059      6060
      6046      6044      6059      6061      6046      6044      6059      6062
      6047      6051      6053      6054      6047      6051      6055      6056
      6047      6051      6055      6057      6048      6047      6049      6050
      6048      6047      6051      6052      6048      6047      6051      6053
      6048      6047      6051      6055      6049      6047      6051      6052
      6049      6047      6051      6053      6049      6047      6051      6055
      6050      6049      6047      6051      6051      6055      6044      6059
      6051      6055      6057      6058      6052      6051      6053      6054
      6052      6051      6055      6056      6052      6051      6055      6057
      6053      6051      6055      6056      6053      6051      6055      6057
      6054      6053      6051      6055      6055      6044      6059      6060
      6055      6044      6059      6061      6055      6044      6059      6062
      6056      6055      6044      6059      6056      6055      6057      6058
      6057      6055      6044      6059      6060      6059      6062      6063
      6061      6059      6062      6063      6064      6068      6066      6067
      6064      6068      6066      6076      6064      6068      6066      6080
      6064      6069      6071      6072      6064      6069      6073      6074
      6064      6069      6073      6075      6064      6069      6073      6076
      6065      6064      6068      6066      6065      6064      6069      6070
      6065      6064      6069      6071      6065      6064      6069      6073
      6066      6068      6064      6069      6066      6076      6073      6069
      6066      6076      6073      6074      6066      6076      6073      6075
      6066      6076      6078      6079      6066      6080      6083      6084
      6067      6066      6076      6073      6067      6066      6076      6077
      6067      6066      6076      6078      6067      6066      6080      6081
      6067      6066      6080      6082      6067      6066      6080      6083
      6068      6064      6069      6070      6068      6064      6069      6071
      6068      6064      6069      6073      6068      6066      6076      6073
      6068      6066      6076      6077      6068      6066      6076      6078
      6068      6066      6080      6081      6068      6066      6080      6082
      6068      6066      6080      6083      6069      6073      6075      6085
      6069      6073      6076      6077      6069      6073      6076      6078
      6070      6069      6071      6072      6070      6069      6073      6074
      6070      6069      6073      6075      6070      6069      6073      6076
      6071      6069      6073      6074      6071      6069      6073      6075
      6071      6069      6073      6076      6072      6071      6069      6073
      6073      6075      6085      6086      6073      6075      6085      6089
      6073      6075      6085      6090      6073      6076      6066      6080
      6073      6076      6078      6079      6074      6073      6075      6085
      6074      6073      6076      6077      6074      6073      6076      6078
      6075      6073      6076      6077      6075      6073      6076      6078
      6075      6085      6089      6087      6075      6085      6090      6091
      6075      6085      6090      6092      6075      6085      6090      6100
      6076      6066      6080      6081      6076      6066      6080      6082
      6076      6066      6080      6083      6076      6073      6075      6085
      6077      6076      6066      6080      6077      6076      6078      6079
      6078      6076      6066      6080      6081      6080      6083      6084
      6082      6080      6083      6084      6085      6089      6087      6088
      6085      6089      6087      6103      6085      6089      6087      6107
      6085      6090      6092      6093      6085      6090      6092      6094
      6085      6090      6100      6101      6085      6090      6100      6102
      6085      6090      6100      6103      6086      6085      6089      6087
      6086      6085      6090      6091      6086      6085      6090      6092
      6086      6085      6090      6100      6087      6089      6085      6090
      6087      6103      6100      6090      6087      6103      6100      6101
      6087      6103      6100      6102      6087      6103      6105      6106
      6087      6107      6110      6111      6088      6087      6103      6100
      6088      6087      6103      6104      6088      6087      6103      6105
      6088      6087      6107      6108      6088      6087      6107      6109
      6088      6087      6107      6110      6089      6085      6090      6091
      6089      6085      6090      6092      6089      6085      6090      6100
      6089      6087      6103      6100      6089      6087      6103      6104
      6089      6087      6103      6105      6089      6087      6107      6108
      6089      6087      6107      6109      6089      6087      6107      6110
      6090      6092      6094      6095      6090      6092      6094      6096
      6090      6100      6102      6112      6090      6100      6103      6104
      6090      6100      6103      6105      6091      6090      6092      6093
      6091      6090      6092      6094      6091      6090      6100      6101
      6091      6090      6100      6102      6091      6090      6100      6103
      6092      6090      6100      6101      6092      6090      6100      6102
      6092      6090      6100      6103      6092      6094      6096      6097
      6092      6094      6096      6098      6092      6094      6096      6099
      6093      6092      6090      6100      6093      6092      6094      6095
      6093      6092      6094      6096      6094      6092      6090      6100
      6095      6094      6096      6097      6095      6094      6096      6098
      6095      6094      6096      6099      6100      6102      6112      6113
      6100      6102      6112      6116      6100      6102      6112      6117
      6100      6103      6087      6107      6100      6103      6105      6106
      6101      6100      6102      6112      6101      6100      6103      6104
      6101      6100      6103      6105      6102      6100      6103      6104
      6102      6100      6103      6105      6102      6112      6116      6114
      6102      6112      6117      6118      6102      6112      6117      6119
      6102      6112      6117      6120      6103      6087      6107      6108
      6103      6087      6107      6109      6103      6087      6107      6110
      6103      6100      6102      6112      6104      6103      6087      6107
      6104      6103      6105      6106      6105      6103      6087      6107
      6108      6107      6110      6111      6109      6107      6110      6111
      6112      6116      6114      6115      6112      6116      6114      6124
      6112      6116      6114      6128      6112      6117      6119      6133
      6112      6117      6120      6121      6112      6117      6120      6122
      6112      6117      6120      6124      6113      6112      6116      6114
      6113      6112      6117      6118      6113      6112      6117      6119
      6113      6112      6117      6120      6114      6116      6112      6117
      6114      6124      6120      6117      6114      6124      6120      6121
      6114      6124      6120      6122      6114      6124      6126      6127
      6114      6128      6131      6132      6115      6114      6124      6120
      6115      6114      6124      6125      6115      6114      6124      6126
      6115      6114      6128      6129      6115      6114      6128      6130
      6115      6114      6128      6131      6116      6112      6117      6118
      6116      6112      6117      6119      6116      6112      6117      6120
      6116      6114      6124      6120      6116      6114      6124      6125
      6116      6114      6124      6126      6116      6114      6128      6129
      6116      6114      6128      6130      6116      6114      6128      6131
      6117      6119      6133      6134      6117      6119      6133      6137
      6117      6119      6133      6138      6117      6120      6122      6123
      6117      6120      6124      6125      6117      6120      6124      6126
      6118      6117      6119      6133      6118      6117      6120      6121
      6118      6117      6120      6122      6118      6117      6120      6124
      6119      6117      6120      6121      6119      6117      6120      6122
      6119      6117      6120      6124      6119      6133      6137      6135
      6119      6133      6138      6139      6119      6133      6138      6140
      6119      6133      6138      6141      6120      6117      6119      6133
      6120      6124      6114      6128      6120      6124      6126      6127
      6121      6120      6122      6123      6121      6120      6124      6125
      6121      6120      6124      6126      6122      6120      6124      6125
      6122      6120      6124      6126      6123      6122      6120      6124
      6124      6114      6128      6129      6124      6114      6128      6130
      6124      6114      6128      6131      6125      6124      6114      6128
      6125      6124      6126      6127      6126      6124      6114      6128
      6129      6128      6131      6132      6130      6128      6131      6132
      6133      6137      6135      6136      6133      6137      6135      6145
      6133      6137      6135      6149      6133      6138      6140      6153
      6133      6138      6141      6142      6133      6138      6141      6143
      6133      6138      6141      6145      6134      6133      6137      6135
      6134      6133      6138      6139      6134      6133      6138      6140
      6134      6133      6138      6141      6135      6137      6133      6138
      6135      6145      6141      6138      6135      6145      6141      6142
      6135      6145      6141      6143      6135      6145      6147      6148
      6136      6135      6145      6141      6136      6135      6145      6146
      6136      6135      6145      6147      6136      6135      6149      6150
      6136      6135      6149      6151      6136      6135      6149      6152
      6137      6133      6138      6139      6137      6133      6138      6140
      6137      6133      6138      6141      6137      6135      6145      6141
      6137      6135      6145      6146      6137      6135      6145      6147
      6137      6135      6149      6150      6137      6135      6149      6151
      6137      6135      6149      6152      6138      6140      6153      6154
      6138      6140      6153      6157      6138      6140      6153      6158
      6138      6141      6143      6144      6138      6141      6145      6146
      6138      6141      6145      6147      6139      6138      6140      6153
      6139      6138      6141      6142      6139      6138      6141      6143
      6139      6138      6141      6145      6140      6138      6141      6142
      6140      6138      6141      6143      6140      6138      6141      6145
      6140      6153      6157      6155      6140      6153      6158      6159
      6140      6153      6158      6160      6140      6153      6158      6161
      6141      6138      6140      6153      6141      6145      6135      6149
      6141      6145      6147      6148      6142      6141      6143      6144
      6142      6141      6145      6146      6142      6141      6145      6147
      6143      6141      6145      6146      6143      6141      6145      6147
      6144      6143      6141      6145      6145      6135      6149      6150
      6145      6135      6149      6151      6145      6135      6149      6152
      6146      6145      6135      6149      6146      6145      6147      6148
      6147      6145      6135      6149      6153      6157      6155      6156
      6153      6157      6155      6164      6153      6157      6155      6168
      6153      6158      6160      6172      6153      6158      6161      6162
      6153      6158      6161      6163      6153      6158      6161      6164
      6154      6153      6157      6155      6154      6153      6158      6159
      6154      6153      6158      6160      6154      6153      6158      6161
      6155      6157      6153      6158      6155      6164      6161      6158
      6155      6164      6161      6162      6155      6164      6161      6163
      6155      6164      6166      6167      6156      6155      6164      6161
      6156      6155      6164      6165      6156      6155      6164      6166
      6156      6155      6168      6169      6156      6155      6168      6170
      6156      6155      6168      6171      6157      6153      6158      6159
      6157      6153      6158      6160      6157      6153      6158      6161
      6157      6155      6164      6161      6157      6155      6164      6165
      6157      6155      6164      6166      6157      6155      6168      6169
      6157      6155      6168      6170      6157      6155      6168      6171
      6158      6160      6172      6173      6158      6160      6172      6176
      6158      6160      6172      6177      6158      6161      6163      6200
      6158      6161      6164      6165      6158      6161      6164      6166
      6159      6158      6160      6172      6159      6158      6161      6162
      6159      6158      6161      6163      6159      6158      6161      6164
      6160      6158      6161      6162      6160      6158      6161      6163
      6160      6158      6161      6164      6160      6172      6176      6174
      6160      6172      6177      6178      6160      6172      6177      6179
      6160      6172      6177      6187      6161      6158      6160      6172
      6161      6163      6200      6201      6161      6163      6200      6204
      6161      6163      6200      6205      6161      6164      6155      6168
      6161      6164      6166      6167      6162      6161      6163      6200
      6162      6161      6164      6165      6162      6161      6164      6166
      6163      6161      6164      6165      6163      6161      6164      6166
      6163      6200      6204      6202      6163      6200      6205      6206
      6163      6200      6205      6207      6163      6200      6205      6215
      6164      6155      6168      6169      6164      6155      6168      6170
      6164      6155      6168      6171      6164      6161      6163      6200
      6165      6164      6155      6168      6165      6164      6166      6167
      6166      6164      6155      6168      6172      6176      6174      6175
      6172      6176      6174      6191      6172      6176      6174      6195
      6172      6177      6179      6180      6172      6177      6179      6181
      6172      6177      6187      6188      6172      6177      6187      6189
      6172      6177      6187      6191      6173      6172      6176      6174
      6173      6172      6177      6178      6173      6172      6177      6179
      6173      6172      6177      6187      6174      6176      6172      6177
      6174      6191      6187      6177      6174      6191      6187      6188
      6174      6191      6187      6189      6174      6191      6193      6194
      6174      6195      6198      6199      6175      6174      6191      6187
      6175      6174      6191      6192      6175      6174      6191      6193
      6175      6174      6195      6196      6175      6174      6195      6197
      6175      6174      6195      6198      6176      6172      6177      6178
      6176      6172      6177      6179      6176      6172      6177      6187
      6176      6174      6191      6187      6176      6174      6191      6192
      6176      6174      6191      6193      6176      6174      6195      6196
      6176      6174      6195      6197      6176      6174      6195      6198
      6177      6179      6181      6182      6177      6179      6181      6183
      6177      6187      6189      6190      6177      6187      6191      6192
      6177      6187      6191      6193      6178      6177      6179      6180
      6178      6177      6179      6181      6178      6177      6187      6188
      6178      6177      6187      6189      6178      6177      6187      6191
      6179      6177      6187      6188      6179      6177      6187      6189
      6179      6177      6187      6191      6179      6181      6183      6184
      6179      6181      6183      6185      6179      6181      6183      6186
      6180      6179      6177      6187      6180      6179      6181      6182
      6180      6179      6181      6183      6181      6179      6177      6187
      6182      6181      6183      6184      6182      6181      6183      6185
      6182      6181      6183      6186      6187      6191      6174      6195
      6187      6191      6193      6194      6188      6187      6189      6190
      6188      6187      6191      6192      6188      6187      6191      6193
      6189      6187      6191      6192      6189      6187      6191      6193
      6190      6189      6187      6191      6191      6174      6195      6196
      6191      6174      6195      6197      6191      6174      6195      6198
      6192      6191      6174      6195      6192      6191      6193      6194
      6193      6191      6174      6195      6196      6195      6198      6199
      6197      6195      6198      6199      6200      6204      6202      6203
      6200      6204      6202      6218      6200      6204      6202      6222
      6200      6205      6207      6208      6200      6205      6207      6209
      6200      6205      6215      6216      6200      6205      6215      6217
      6200      6205      6215      6218      6201      6200      6204      6202
      6201      6200      6205      6206      6201      6200      6205      6207
      6201      6200      6205      6215      6202      6204      6200      6205
      6202      6218      6215      6205      6202      6218      6215      6216
      6202      6218      6215      6217      6202      6218      6220      6221
      6202      6222      6225      6226      6203      6202      6218      6215
      6203      6202      6218      6219      6203      6202      6218      6220
      6203      6202      6222      6223      6203      6202      6222      6224
      6203      6202      6222      6225      6204      6200      6205      6206
      6204      6200      6205      6207      6204      6200      6205      6215
      6204      6202      6218      6215      6204      6202      6218      6219
      6204      6202      6218      6220      6204      6202      6222      6223
      6204      6202      6222      6224      6204      6202      6222      6225
      6205      6207      6209      6210      6205      6207      6209      6211
      6205      6215      6217      6227      6205      6215      6218      6219
      6205      6215      6218      6220      6206      6205      6207      6208
      6206      6205      6207      6209      6206      6205      6215      6216
      6206      6205      6215      6217      6206      6205      6215      6218
      6207      6205      6215      6216      6207      6205      6215      6217
      6207      6205      6215      6218      6207      6209      6211      6212
      6207      6209      6211      6213      6207      6209      6211      6214
      6208      6207      6205      6215      6208      6207      6209      6210
      6208      6207      6209      6211      6209      6207      6205      6215
      6210      6209      6211      6212      6210      6209      6211      6213
      6210      6209      6211      6214      6215      6217      6227      6228
      6215      6217      6227      6231      6215      6217      6227      6232
      6215      6218      6202      6222      6215      6218      6220      6221
      6216      6215      6217      6227      6216      6215      6218      6219
      6216      6215      6218      6220      6217      6215      6218      6219
      6217      6215      6218      6220      6217      6227      6231      6229
      6217      6227      6232      6233      6217      6227      6232      6234
      6217      6227      6232      6235      6218      6202      6222      6223
      6218      6202      6222      6224      6218      6202      6222      6225
      6218      6215      6217      6227      6219      6218      6202      6222
      6219      6218      6220      6221      6220      6218      6202      6222
      6223      6222      6225      6226      6224      6222      6225      6226
      6227      6231      6229      6230      6227      6231      6229      6239
      6227      6231      6229      6243      6227      6232      6234      6248
      6227      6232      6235      6236      6227      6232      6235      6237
      6227      6232      6235      6239      6228      6227      6231      6229
      6228      6227      6232      6233      6228      6227      6232      6234
      6228      6227      6232      6235      6229      6231      6227      6232
      6229      6239      6235      6232      6229      6239      6235      6236
      6229      6239      6235      6237      6229      6239      6241      6242
      6229      6243      6246      6247      6230      6229      6239      6235
      6230      6229      6239      6240      6230      6229      6239      6241
      6230      6229      6243      6244      6230      6229      6243      6245
      6230      6229      6243      6246      6231      6227      6232      6233
      6231      6227      6232      6234      6231      6227      6232      6235
      6231      6229      6239      6235      6231      6229      6239      6240
      6231      6229      6239      6241      6231      6229      6243      6244
      6231      6229      6243      6245      6231      6229      6243      6246
      6232      6234      6248      6249      6232      6234      6248      6252
      6232      6234      6248      6253      6232      6235      6237      6238
      6232      6235      6239      6240      6232      6235      6239      6241
      6233      6232      6234      6248      6233      6232      6235      6236
      6233      6232      6235      6237      6233      6232      6235      6239
      6234      6232      6235      6236      6234      6232      6235      6237
      6234      6232      6235      6239      6234      6248      6252      6250
      6234      6248      6253      6254      6234      6248      6253      6255
      6234      6248      6253      6256      6235      6232      6234      6248
      6235      6239      6229      6243      6235      6239      6241      6242
      6236      6235      6237      6238      6236      6235      6239      6240
      6236      6235      6239      6241      6237      6235      6239      6240
      6237      6235      6239      6241      6238      6237      6235      6239
      6239      6229      6243      6244      6239      6229      6243      6245
      6239      6229      6243      6246      6240      6239      6229      6243
      6240      6239      6241      6242      6241      6239      6229      6243
      6244      6243      6246      6247      6245      6243      6246      6247
      6248      6252      6250      6251      6248      6252      6250      6260
      6248      6252      6250      6264      6248      6253      6255      6268
      6248      6253      6256      6257      6248      6253      6256      6258
      6248      6253      6256      6260      6249      6248      6252      6250
      6249      6248      6253      6254      6249      6248      6253      6255
      6249      6248      6253      6256      6250      6252      6248      6253
      6250      6260      6256      6253      6250      6260      6256      6257
      6250      6260      6256      6258      6250      6260      6262      6263
      6251      6250      6260      6256      6251      6250      6260      6261
      6251      6250      6260      6262      6251      6250      6264      6265
      6251      6250      6264      6266      6251      6250      6264      6267
      6252      6248      6253      6254      6252      6248      6253      6255
      6252      6248      6253      6256      6252      6250      6260      6256
      6252      6250      6260      6261      6252      6250      6260      6262
      6252      6250      6264      6265      6252      6250      6264      6266
      6252      6250      6264      6267      6253      6255      6268      6269
      6253      6255      6268      6272      6253      6255      6268      6273
      6253      6256      6258      6259      6253      6256      6260      6261
      6253      6256      6260      6262      6254      6253      6255      6268
      6254      6253      6256      6257      6254      6253      6256      6258
      6254      6253      6256      6260      6255      6253      6256      6257
      6255      6253      6256      6258      6255      6253      6256      6260
      6255      6268      6272      6270      6255      6268      6273      6274
      6255      6268      6273      6275      6255      6268      6273      6276
      6256      6253      6255      6268      6256      6260      6250      6264
      6256      6260      6262      6263      6257      6256      6258      6259
      6257      6256      6260      6261      6257      6256      6260      6262
      6258      6256      6260      6261      6258      6256      6260      6262
      6259      6258      6256      6260      6260      6250      6264      6265
      6260      6250      6264      6266      6260      6250      6264      6267
      6261      6260      6250      6264      6261      6260      6262      6263
      6262      6260      6250      6264      6268      6272      6270      6271
      6268      6272      6270      6279      6268      6272      6270      6283
      6268      6273      6275      6287      6268      6273      6276      6277
      6268      6273      6276      6278      6268      6273      6276      6279
      6269      6268      6272      6270      6269      6268      6273      6274
      6269      6268      6273      6275      6269      6268      6273      6276
      6270      6272      6268      6273      6270      6279      6276      6273
      6270      6279      6276      6277      6270      6279      6276      6278
      6270      6279      6281      6282      6271      6270      6279      6276
      6271      6270      6279      6280      6271      6270      6279      6281
      6271      6270      6283      6284      6271      6270      6283      6285
      6271      6270      6283      6286      6272      6268      6273      6274
      6272      6268      6273      6275      6272      6268      6273      6276
      6272      6270      6279      6276      6272      6270      6279      6280
      6272      6270      6279      6281      6272      6270      6283      6284
      6272      6270      6283      6285      6272      6270      6283      6286
      6273      6275      6287      6288      6273      6275      6287      6291
      6273      6275      6287      6292      6273      6276      6278      6315
      6273      6276      6279      6280      6273      6276      6279      6281
      6274      6273      6275      6287      6274      6273      6276      6277
      6274      6273      6276      6278      6274      6273      6276      6279
      6275      6273      6276      6277      6275      6273      6276      6278
      6275      6273      6276      6279      6275      6287      6291      6289
      6275      6287      6292      6293      6275      6287      6292      6294
      6275      6287      6292      6302      6276      6273      6275      6287
      6276      6278      6315      6316      6276      6278      6315      6319
      6276      6278      6315      6320      6276      6279      6270      6283
      6276      6279      6281      6282      6277      6276      6278      6315
      6277      6276      6279      6280      6277      6276      6279      6281
      6278      6276      6279      6280      6278      6276      6279      6281
      6278      6315      6319      6317      6278      6315      6320      6321
      6278      6315      6320      6322      6278      6315      6320      6330
      6279      6270      6283      6284      6279      6270      6283      6285
      6279      6270      6283      6286      6279      6276      6278      6315
      6280      6279      6270      6283      6280      6279      6281      6282
      6281      6279      6270      6283      6287      6291      6289      6290
      6287      6291      6289      6306      6287      6291      6289      6310
      6287      6292      6294      6295      6287      6292      6294      6296
      6287      6292      6302      6303      6287      6292      6302      6304
      6287      6292      6302      6306      6288      6287      6291      6289
      6288      6287      6292      6293      6288      6287      6292      6294
      6288      6287      6292      6302      6289      6291      6287      6292
      6289      6306      6302      6292      6289      6306      6302      6303
      6289      6306      6302      6304      6289      6306      6308      6309
      6289      6310      6313      6314      6290      6289      6306      6302
      6290      6289      6306      6307      6290      6289      6306      6308
      6290      6289      6310      6311      6290      6289      6310      6312
      6290      6289      6310      6313      6291      6287      6292      6293
      6291      6287      6292      6294      6291      6287      6292      6302
      6291      6289      6306      6302      6291      6289      6306      6307
      6291      6289      6306      6308      6291      6289      6310      6311
      6291      6289      6310      6312      6291      6289      6310      6313
      6292      6294      6296      6297      6292      6294      6296      6298
      6292      6302      6304      6305      6292      6302      6306      6307
      6292      6302      6306      6308      6293      6292      6294      6295
      6293      6292      6294      6296      6293      6292      6302      6303
      6293      6292      6302      6304      6293      6292      6302      6306
      6294      6292      6302      6303      6294      6292      6302      6304
      6294      6292      6302      6306      6294      6296      6298      6299
      6294      6296      6298      6300      6294      6296      6298      6301
      6295      6294      6292      6302      6295      6294      6296      6297
      6295      6294      6296      6298      6296      6294      6292      6302
      6297      6296      6298      6299      6297      6296      6298      6300
      6297      6296      6298      6301      6302      6306      6289      6310
      6302      6306      6308      6309      6303      6302      6304      6305
      6303      6302      6306      6307      6303      6302      6306      6308
      6304      6302      6306      6307      6304      6302      6306      6308
      6305      6304      6302      6306      6306      6289      6310      6311
      6306      6289      6310      6312      6306      6289      6310      6313
      6307      6306      6289      6310      6307      6306      6308      6309
      6308      6306      6289      6310      6311      6310      6313      6314
      6312      6310      6313      6314      6315      6319      6317      6318
      6315      6319      6317      6333      6315      6319      6317      6337
      6315      6320      6322      6323      6315      6320      6322      6324
      6315      6320      6330      6331      6315      6320      6330      6332
      6315      6320      6330      6333      6316      6315      6319      6317
      6316      6315      6320      6321      6316      6315      6320      6322
      6316      6315      6320      6330      6317      6319      6315      6320
      6317      6333      6330      6320      6317      6333      6330      6331
      6317      6333      6330      6332      6317      6333      6335      6336
      6317      6337      6340      6341      6318      6317      6333      6330
      6318      6317      6333      6334      6318      6317      6333      6335
      6318      6317      6337      6338      6318      6317      6337      6339
      6318      6317      6337      6340      6319      6315      6320      6321
      6319      6315      6320      6322      6319      6315      6320      6330
      6319      6317      6333      6330      6319      6317      6333      6334
      6319      6317      6333      6335      6319      6317      6337      6338
      6319      6317      6337      6339      6319      6317      6337      6340
      6320      6322      6324      6325      6320      6322      6324      6326
      6320      6330      6332      6342      6320      6330      6333      6334
      6320      6330      6333      6335      6321      6320      6322      6323
      6321      6320      6322      6324      6321      6320      6330      6331
      6321      6320      6330      6332      6321      6320      6330      6333
      6322      6320      6330      6331      6322      6320      6330      6332
      6322      6320      6330      6333      6322      6324      6326      6327
      6322      6324      6326      6328      6322      6324      6326      6329
      6323      6322      6320      6330      6323      6322      6324      6325
      6323      6322      6324      6326      6324      6322      6320      6330
      6325      6324      6326      6327      6325      6324      6326      6328
      6325      6324      6326      6329      6330      6332      6342      6343
      6330      6332      6342      6346      6330      6332      6342      6347
      6330      6333      6317      6337      6330      6333      6335      6336
      6331      6330      6332      6342      6331      6330      6333      6334
      6331      6330      6333      6335      6332      6330      6333      6334
      6332      6330      6333      6335      6332      6342      6346      6344
      6332      6342      6347      6348      6332      6342      6347      6349
      6332      6342      6347      6350      6333      6317      6337      6338
      6333      6317      6337      6339      6333      6317      6337      6340
      6333      6330      6332      6342      6334      6333      6317      6337
      6334      6333      6335      6336      6335      6333      6317      6337
      6338      6337      6340      6341      6339      6337      6340      6341
      6342      6346      6344      6345      6342      6346      6344      6354
      6342      6346      6344      6358      6342      6347      6349      6363
      6342      6347      6350      6351      6342      6347      6350      6352
      6342      6347      6350      6354      6343      6342      6346      6344
      6343      6342      6347      6348      6343      6342      6347      6349
      6343      6342      6347      6350      6344      6346      6342      6347
      6344      6354      6350      6347      6344      6354      6350      6351
      6344      6354      6350      6352      6344      6354      6356      6357
      6344      6358      6361      6362      6345      6344      6354      6350
      6345      6344      6354      6355      6345      6344      6354      6356
      6345      6344      6358      6359      6345      6344      6358      6360
      6345      6344      6358      6361      6346      6342      6347      6348
      6346      6342      6347      6349      6346      6342      6347      6350
      6346      6344      6354      6350      6346      6344      6354      6355
      6346      6344      6354      6356      6346      6344      6358      6359
      6346      6344      6358      6360      6346      6344      6358      6361
      6347      6349      6363      6364      6347      6349      6363      6367
      6347      6349      6363      6368      6347      6350      6352      6353
      6347      6350      6354      6355      6347      6350      6354      6356
      6348      6347      6349      6363      6348      6347      6350      6351
      6348      6347      6350      6352      6348      6347      6350      6354
      6349      6347      6350      6351      6349      6347      6350      6352
      6349      6347      6350      6354      6349      6363      6367      6365
      6349      6363      6368      6369      6349      6363      6368      6370
      6349      6363      6368      6371      6350      6347      6349      6363
      6350      6354      6344      6358      6350      6354      6356      6357
      6351      6350      6352      6353      6351      6350      6354      6355
      6351      6350      6354      6356      6352      6350      6354      6355
      6352      6350      6354      6356      6353      6352      6350      6354
      6354      6344      6358      6359      6354      6344      6358      6360
      6354      6344      6358      6361      6355      6354      6344      6358
      6355      6354      6356      6357      6356      6354      6344      6358
      6359      6358      6361      6362      6360      6358      6361      6362
      6363      6367      6365      6366      6363      6367      6365      6375
      6363      6367      6365      6379      6363      6368      6370      6383
      6363      6368      6371      6372      6363      6368      6371      6373
      6363      6368      6371      6375      6364      6363      6367      6365
      6364      6363      6368      6369      6364      6363      6368      6370
      6364      6363      6368      6371      6365      6367      6363      6368
      6365      6375      6371      6368      6365      6375      6371      6372
      6365      6375      6371      6373      6365      6375      6377      6378
      6366      6365      6375      6371      6366      6365      6375      6376
      6366      6365      6375      6377      6366      6365      6379      6380
      6366      6365      6379      6381      6366      6365      6379      6382
      6367      6363      6368      6369      6367      6363      6368      6370
      6367      6363      6368      6371      6367      6365      6375      6371
      6367      6365      6375      6376      6367      6365      6375      6377
      6367      6365      6379      6380      6367      6365      6379      6381
      6367      6365      6379      6382      6368      6370      6383      6384
      6368      6370      6383      6387      6368      6370      6383      6388
      6368      6371      6373      6374      6368      6371      6375      6376
      6368      6371      6375      6377      6369      6368      6370      6383
      6369      6368      6371      6372      6369      6368      6371      6373
      6369      6368      6371      6375      6370      6368      6371      6372
      6370      6368      6371      6373      6370      6368      6371      6375
      6370      6383      6387      6385      6370      6383      6388      6389
      6370      6383      6388      6390      6370      6383      6388      6391
      6371      6368      6370      6383      6371      6375      6365      6379
      6371      6375      6377      6378      6372      6371      6373      6374
      6372      6371      6375      6376      6372      6371      6375      6377
      6373      6371      6375      6376      6373      6371      6375      6377
      6374      6373      6371      6375      6375      6365      6379      6380
      6375      6365      6379      6381      6375      6365      6379      6382
      6376      6375      6365      6379      6376      6375      6377      6378
      6377      6375      6365      6379      6383      6387      6385      6386
      6383      6387      6385      6394      6383      6387      6385      6398
      6383      6388      6390      6402      6383      6388      6391      6392
      6383      6388      6391      6393      6383      6388      6391      6394
      6384      6383      6387      6385      6384      6383      6388      6389
      6384      6383      6388      6390      6384      6383      6388      6391
      6385      6387      6383      6388      6385      6394      6391      6388
      6385      6394      6391      6392      6385      6394      6391      6393
      6385      6394      6396      6397      6386      6385      6394      6391
      6386      6385      6394      6395      6386      6385      6394      6396
      6386      6385      6398      6399      6386      6385      6398      6400
      6386      6385      6398      6401      6387      6383      6388      6389
      6387      6383      6388      6390      6387      6383      6388      6391
      6387      6385      6394      6391      6387      6385      6394      6395
      6387      6385      6394      6396      6387      6385      6398      6399
      6387      6385      6398      6400      6387      6385      6398      6401
      6388      6390      6402      6403      6388      6390      6402      6406
      6388      6390      6402      6407      6388      6391      6393      6430
      6388      6391      6394      6395      6388      6391      6394      6396
      6389      6388      6390      6402      6389      6388      6391      6392
      6389      6388      6391      6393      6389      6388      6391      6394
      6390      6388      6391      6392      6390      6388      6391      6393
      6390      6388      6391      6394      6390      6402      6406      6404
      6390      6402      6407      6408      6390      6402      6407      6409
      6390      6402      6407      6417      6391      6388      6390      6402
      6391      6393      6430      6431      6391      6393      6430      6434
      6391      6393      6430      6435      6391      6394      6385      6398
      6391      6394      6396      6397      6392      6391      6393      6430
      6392      6391      6394      6395      6392      6391      6394      6396
      6393      6391      6394      6395      6393      6391      6394      6396
      6393      6430      6434      6432      6393      6430      6435      6436
      6393      6430      6435      6437      6393      6430      6435      6445
      6394      6385      6398      6399      6394      6385      6398      6400
      6394      6385      6398      6401      6394      6391      6393      6430
      6395      6394      6385      6398      6395      6394      6396      6397
      6396      6394      6385      6398      6402      6406      6404      6405
      6402      6406      6404      6421      6402      6406      6404      6425
      6402      6407      6409      6410      6402      6407      6409      6411
      6402      6407      6417      6418      6402      6407      6417      6419
      6402      6407      6417      6421      6403      6402      6406      6404
      6403      6402      6407      6408      6403      6402      6407      6409
      6403      6402      6407      6417      6404      6406      6402      6407
      6404      6421      6417      6407      6404      6421      6417      6418
      6404      6421      6417      6419      6404      6421      6423      6424
      6404      6425      6428      6429      6405      6404      6421      6417
      6405      6404      6421      6422      6405      6404      6421      6423
      6405      6404      6425      6426      6405      6404      6425      6427
      6405      6404      6425      6428      6406      6402      6407      6408
      6406      6402      6407      6409      6406      6402      6407      6417
      6406      6404      6421      6417      6406      6404      6421      6422
      6406      6404      6421      6423      6406      6404      6425      6426
      6406      6404      6425      6427      6406      6404      6425      6428
      6407      6409      6411      6412      6407      6409      6411      6413
      6407      6417      6419      6420      6407      6417      6421      6422
      6407      6417      6421      6423      6408      6407      6409      6410
      6408      6407      6409      6411      6408      6407      6417      6418
      6408      6407      6417      6419      6408      6407      6417      6421
      6409      6407      6417      6418      6409      6407      6417      6419
      6409      6407      6417      6421      6409      6411      6413      6414
      6409      6411      6413      6415      6409      6411      6413      6416
      6410      6409      6407      6417      6410      6409      6411      6412
      6410      6409      6411      6413      6411      6409      6407      6417
      6412      6411      6413      6414      6412      6411      6413      6415
      6412      6411      6413      6416      6417      6421      6404      6425
      6417      6421      6423      6424      6418      6417      6419      6420
      6418      6417      6421      6422      6418      6417      6421      6423
      6419      6417      6421      6422      6419      6417      6421      6423
      6420      6419      6417      6421      6421      6404      6425      6426
      6421      6404      6425      6427      6421      6404      6425      6428
      6422      6421      6404      6425      6422      6421      6423      6424
      6423      6421      6404      6425      6426      6425      6428      6429
      6427      6425      6428      6429      6430      6434      6432      6433
      6430      6434      6432      6448      6430      6434      6432      6452
      6430      6435      6437      6438      6430      6435      6437      6439
      6430      6435      6445      6446      6430      6435      6445      6447
      6430      6435      6445      6448      6431      6430      6434      6432
      6431      6430      6435      6436      6431      6430      6435      6437
      6431      6430      6435      6445      6432      6434      6430      6435
      6432      6448      6445      6435      6432      6448      6445      6446
      6432      6448      6445      6447      6432      6448      6450      6451
      6432      6452      6455      6456      6433      6432      6448      6445
      6433      6432      6448      6449      6433      6432      6448      6450
      6433      6432      6452      6453      6433      6432      6452      6454
      6433      6432      6452      6455      6434      6430      6435      6436
      6434      6430      6435      6437      6434      6430      6435      6445
      6434      6432      6448      6445      6434      6432      6448      6449
      6434      6432      6448      6450      6434      6432      6452      6453
      6434      6432      6452      6454      6434      6432      6452      6455
      6435      6437      6439      6440      6435      6437      6439      6441
      6435      6445      6447      6457      6435      6445      6448      6449
      6435      6445      6448      6450      6436      6435      6437      6438
      6436      6435      6437      6439      6436      6435      6445      6446
      6436      6435      6445      6447      6436      6435      6445      6448
      6437      6435      6445      6446      6437      6435      6445      6447
      6437      6435      6445      6448      6437      6439      6441      6442
      6437      6439      6441      6443      6437      6439      6441      6444
      6438      6437      6435      6445      6438      6437      6439      6440
      6438      6437      6439      6441      6439      6437      6435      6445
      6440      6439      6441      6442      6440      6439      6441      6443
      6440      6439      6441      6444      6445      6447      6457      6458
      6445      6447      6457      6461      6445      6447      6457      6462
      6445      6448      6432      6452      6445      6448      6450      6451
      6446      6445      6447      6457      6446      6445      6448      6449
      6446      6445      6448      6450      6447      6445      6448      6449
      6447      6445      6448      6450      6447      6457      6461      6459
      6447      6457      6462      6463      6447      6457      6462      6464
      6447      6457      6462      6465      6448      6432      6452      6453
      6448      6432      6452      6454      6448      6432      6452      6455
      6448      6445      6447      6457      6449      6448      6432      6452
      6449      6448      6450      6451      6450      6448      6432      6452
      6453      6452      6455      6456      6454      6452      6455      6456
      6457      6461      6459      6460      6457      6461      6459      6469
      6457      6461      6459      6473      6457      6462      6464      6478
      6457      6462      6465      6466      6457      6462      6465      6467
      6457      6462      6465      6469      6458      6457      6461      6459
      6458      6457      6462      6463      6458      6457      6462      6464
      6458      6457      6462      6465      6459      6461      6457      6462
      6459      6469      6465      6462      6459      6469      6465      6466
      6459      6469      6465      6467      6459      6469      6471      6472
      6459      6473      6476      6477      6460      6459      6469      6465
      6460      6459      6469      6470      6460      6459      6469      6471
      6460      6459      6473      6474      6460      6459      6473      6475
      6460      6459      6473      6476      6461      6457      6462      6463
      6461      6457      6462      6464      6461      6457      6462      6465
      6461      6459      6469      6465      6461      6459      6469      6470
      6461      6459      6469      6471      6461      6459      6473      6474
      6461      6459      6473      6475      6461      6459      6473      6476
      6462      6464      6478      6479      6462      6464      6478      6482
      6462      6464      6478      6483      6462      6465      6467      6468
      6462      6465      6469      6470      6462      6465      6469      6471
      6463      6462      6464      6478      6463      6462      6465      6466
      6463      6462      6465      6467      6463      6462      6465      6469
      6464      6462      6465      6466      6464      6462      6465      6467
      6464      6462      6465      6469      6464      6478      6482      6480
      6464      6478      6483      6484      6464      6478      6483      6485
      6464      6478      6483      6486      6465      6462      6464      6478
      6465      6469      6459      6473      6465      6469      6471      6472
      6466      6465      6467      6468      6466      6465      6469      6470
      6466      6465      6469      6471      6467      6465      6469      6470
      6467      6465      6469      6471      6468      6467      6465      6469
      6469      6459      6473      6474      6469      6459      6473      6475
      6469      6459      6473      6476      6470      6469      6459      6473
      6470      6469      6471      6472      6471      6469      6459      6473
      6474      6473      6476      6477      6475      6473      6476      6477
      6478      6482      6480      6481      6478      6482      6480      6490
      6478      6482      6480      6494      6478      6483      6485      6498
      6478      6483      6486      6487      6478      6483      6486      6488
      6478      6483      6486      6490      6479      6478      6482      6480
      6479      6478      6483      6484      6479      6478      6483      6485
      6479      6478      6483      6486      6480      6482      6478      6483
      6480      6490      6486      6483      6480      6490      6486      6487
      6480      6490      6486      6488      6480      6490      6492      6493
      6481      6480      6490      6486      6481      6480      6490      6491
      6481      6480      6490      6492      6481      6480      6494      6495
      6481      6480      6494      6496      6481      6480      6494      6497
      6482      6478      6483      6484      6482      6478      6483      6485
      6482      6478      6483      6486      6482      6480      6490      6486
      6482      6480      6490      6491      6482      6480      6490      6492
      6482      6480      6494      6495      6482      6480      6494      6496
      6482      6480      6494      6497      6483      6485      6498      6499
      6483      6485      6498      6502      6483      6485      6498      6503
      6483      6486      6488      6489      6483      6486      6490      6491
      6483      6486      6490      6492      6484      6483      6485      6498
      6484      6483      6486      6487      6484      6483      6486      6488
      6484      6483      6486      6490      6485      6483      6486      6487
      6485      6483      6486      6488      6485      6483      6486      6490
      6485      6498      6502      6500      6485      6498      6503      6504
      6485      6498      6503      6505      6485      6498      6503      6506
      6486      6483      6485      6498      6486      6490      6480      6494
      6486      6490      6492      6493      6487      6486      6488      6489
      6487      6486      6490      6491      6487      6486      6490      6492
      6488      6486      6490      6491      6488      6486      6490      6492
      6489      6488      6486      6490      6490      6480      6494      6495
      6490      6480      6494      6496      6490      6480      6494      6497
      6491      6490      6480      6494      6491      6490      6492      6493
      6492      6490      6480      6494      6498      6502      6500      6501
      6498      6502      6500      6509      6498      6502      6500      6513
      6498      6503      6505      6517      6498      6503      6506      6507
      6498      6503      6506      6508      6498      6503      6506      6509
      6499      6498      6502      6500      6499      6498      6503      6504
      6499      6498      6503      6505      6499      6498      6503      6506
      6500      6502      6498      6503      6500      6509      6506      6503
      6500      6509      6506      6507      6500      6509      6506      6508
      6500      6509      6511      6512      6501      6500      6509      6506
      6501      6500      6509      6510      6501      6500      6509      6511
      6501      6500      6513      6514      6501      6500      6513      6515
      6501      6500      6513      6516      6502      6498      6503      6504
      6502      6498      6503      6505      6502      6498      6503      6506
      6502      6500      6509      6506      6502      6500      6509      6510
      6502      6500      6509      6511      6502      6500      6513      6514
      6502      6500      6513      6515      6502      6500      6513      6516
      6503      6505      6517      6518      6503      6505      6517      6521
      6503      6505      6517      6522      6503      6506      6508      6545
      6503      6506      6509      6510      6503      6506      6509      6511
      6504      6503      6505      6517      6504      6503      6506      6507
      6504      6503      6506      6508      6504      6503      6506      6509
      6505      6503      6506      6507      6505      6503      6506      6508
      6505      6503      6506      6509      6505      6517      6521      6519
      6505      6517      6522      6523      6505      6517      6522      6524
      6505      6517      6522      6532      6506      6503      6505      6517
      6506      6508      6545      6546      6506      6508      6545      6549
      6506      6508      6545      6550      6506      6509      6500      6513
      6506      6509      6511      6512      6507      6506      6508      6545
      6507      6506      6509      6510      6507      6506      6509      6511
      6508      6506      6509      6510      6508      6506      6509      6511
      6508      6545      6549      6547      6508      6545      6550      6551
      6508      6545      6550      6552      6508      6545      6550      6560
      6509      6500      6513      6514      6509      6500      6513      6515
      6509      6500      6513      6516      6509      6506      6508      6545
      6510      6509      6500      6513      6510      6509      6511      6512
      6511      6509      6500      6513      6517      6521      6519      6520
      6517      6521      6519      6536      6517      6521      6519      6540
      6517      6522      6524      6525      6517      6522      6524      6526
      6517      6522      6532      6533      6517      6522      6532      6534
      6517      6522      6532      6536      6518      6517      6521      6519
      6518      6517      6522      6523      6518      6517      6522      6524
      6518      6517      6522      6532      6519      6521      6517      6522
      6519      6536      6532      6522      6519      6536      6532      6533
      6519      6536      6532      6534      6519      6536      6538      6539
      6519      6540      6543      6544      6520      6519      6536      6532
      6520      6519      6536      6537      6520      6519      6536      6538
      6520      6519      6540      6541      6520      6519      6540      6542
      6520      6519      6540      6543      6521      6517      6522      6523
      6521      6517      6522      6524      6521      6517      6522      6532
      6521      6519      6536      6532      6521      6519      6536      6537
      6521      6519      6536      6538      6521      6519      6540      6541
      6521      6519      6540      6542      6521      6519      6540      6543
      6522      6524      6526      6527      6522      6524      6526      6528
      6522      6532      6534      6535      6522      6532      6536      6537
      6522      6532      6536      6538      6523      6522      6524      6525
      6523      6522      6524      6526      6523      6522      6532      6533
      6523      6522      6532      6534      6523      6522      6532      6536
      6524      6522      6532      6533      6524      6522      6532      6534
      6524      6522      6532      6536      6524      6526      6528      6529
      6524      6526      6528      6530      6524      6526      6528      6531
      6525      6524      6522      6532      6525      6524      6526      6527
      6525      6524      6526      6528      6526      6524      6522      6532
      6527      6526      6528      6529      6527      6526      6528      6530
      6527      6526      6528      6531      6532      6536      6519      6540
      6532      6536      6538      6539      6533      6532      6534      6535
      6533      6532      6536      6537      6533      6532      6536      6538
      6534      6532      6536      6537      6534      6532      6536      6538
      6535      6534      6532      6536      6536      6519      6540      6541
      6536      6519      6540      6542      6536      6519      6540      6543
      6537      6536      6519      6540      6537      6536      6538      6539
      6538      6536      6519      6540      6541      6540      6543      6544
      6542      6540      6543      6544      6545      6549      6547      6548
      6545      6549      6547      6563      6545      6549      6547      6567
      6545      6550      6552      6553      6545      6550      6552      6554
      6545      6550      6560      6561      6545      6550      6560      6562
      6545      6550      6560      6563      6546      6545      6549      6547
      6546      6545      6550      6551      6546      6545      6550      6552
      6546      6545      6550      6560      6547      6549      6545      6550
      6547      6563      6560      6550      6547      6563      6560      6561
      6547      6563      6560      6562      6547      6563      6565      6566
      6547      6567      6570      6571      6548      6547      6563      6560
      6548      6547      6563      6564      6548      6547      6563      6565
      6548      6547      6567      6568      6548      6547      6567      6569
      6548      6547      6567      6570      6549      6545      6550      6551
      6549      6545      6550      6552      6549      6545      6550      6560
      6549      6547      6563      6560      6549      6547      6563      6564
      6549      6547      6563      6565      6549      6547      6567      6568
      6549      6547      6567      6569      6549      6547      6567      6570
      6550      6552      6554      6555      6550      6552      6554      6556
      6550      6560      6562      6572      6550      6560      6563      6564
      6550      6560      6563      6565      6551      6550      6552      6553
      6551      6550      6552      6554      6551      6550      6560      6561
      6551      6550      6560      6562      6551      6550      6560      6563
      6552      6550      6560      6561      6552      6550      6560      6562
      6552      6550      6560      6563      6552      6554      6556      6557
      6552      6554      6556      6558      6552      6554      6556      6559
      6553      6552      6550      6560      6553      6552      6554      6555
      6553      6552      6554      6556      6554      6552      6550      6560
      6555      6554      6556      6557      6555      6554      6556      6558
      6555      6554      6556      6559      6560      6562      6572      6573
      6560      6562      6572      6576      6560      6562      6572      6577
      6560      6563      6547      6567      6560      6563      6565      6566
      6561      6560      6562      6572      6561      6560      6563      6564
      6561      6560      6563      6565      6562      6560      6563      6564
      6562      6560      6563      6565      6562      6572      6576      6574
      6562      6572      6577      6578      6562      6572      6577      6579
      6562      6572      6577      6580      6563      6547      6567      6568
      6563      6547      6567      6569      6563      6547      6567      6570
      6563      6560      6562      6572      6564      6563      6547      6567
      6564      6563      6565      6566      6565      6563      6547      6567
      6568      6567      6570      6571      6569      6567      6570      6571
      6572      6576      6574      6575      6572      6576      6574      6584
      6572      6576      6574      6588      6572      6577      6579      6593
      6572      6577      6580      6581      6572      6577      6580      6582
      6572      6577      6580      6584      6573      6572      6576      6574
      6573      6572      6577      6578      6573      6572      6577      6579
      6573      6572      6577      6580      6574      6576      6572      6577
      6574      6584      6580      6577      6574      6584      6580      6581
      6574      6584      6580      6582      6574      6584      6586      6587
      6574      6588      6591      6592      6575      6574      6584      6580
      6575      6574      6584      6585      6575      6574      6584      6586
      6575      6574      6588      6589      6575      6574      6588      6590
      6575      6574      6588      6591      6576      6572      6577      6578
      6576      6572      6577      6579      6576      6572      6577      6580
      6576      6574      6584      6580      6576      6574      6584      6585
      6576      6574      6584      6586      6576      6574      6588      6589
      6576      6574      6588      6590      6576      6574      6588      6591
      6577      6579      6593      6594      6577      6579      6593      6597
      6577      6579      6593      6598      6577      6580      6582      6583
      6577      6580      6584      6585      6577      6580      6584      6586
      6578      6577      6579      6593      6578      6577      6580      6581
      6578      6577      6580      6582      6578      6577      6580      6584
      6579      6577      6580      6581      6579      6577      6580      6582
      6579      6577      6580      6584      6579      6593      6597      6595
      6579      6593      6598      6599      6579      6593      6598      6600
      6579      6593      6598      6601      6580      6577      6579      6593
      6580      6584      6574      6588      6580      6584      6586      6587
      6581      6580      6582      6583      6581      6580      6584      6585
      6581      6580      6584      6586      6582      6580      6584      6585
      6582      6580      6584      6586      6583      6582      6580      6584
      6584      6574      6588      6589      6584      6574      6588      6590
      6584      6574      6588      6591      6585      6584      6574      6588
      6585      6584      6586      6587      6586      6584      6574      6588
      6589      6588      6591      6592      6590      6588      6591      6592
      6593      6597      6595      6596      6593      6597      6595      6605
      6593      6597      6595      6609      6593      6598      6600      6613
      6593      6598      6601      6602      6593      6598      6601      6603
      6593      6598      6601      6605      6594      6593      6597      6595
      6594      6593      6598      6599      6594      6593      6598      6600
      6594      6593      6598      6601      6595      6597      6593      6598
      6595      6605      6601      6598      6595      6605      6601      6602
      6595      6605      6601      6603      6595      6605      6607      6608
      6596      6595      6605      6601      6596      6595      6605      6606
      6596      6595      6605      6607      6596      6595      6609      6610
      6596      6595      6609      6611      6596      6595      6609      6612
      6597      6593      6598      6599      6597      6593      6598      6600
      6597      6593      6598      6601      6597      6595      6605      6601
      6597      6595      6605      6606      6597      6595      6605      6607
      6597      6595      6609      6610      6597      6595      6609      6611
      6597      6595      6609      6612      6598      6600      6613      6614
      6598      6600      6613      6617      6598      6600      6613      6618
      6598      6601      6603      6604      6598      6601      6605      6606
      6598      6601      6605      6607      6599      6598      6600      6613
      6599      6598      6601      6602      6599      6598      6601      6603
      6599      6598      6601      6605      6600      6598      6601      6602
      6600      6598      6601      6603      6600      6598      6601      6605
      6600      6613      6617      6615      6600      6613      6618      6619
      6600      6613      6618      6620      6600      6613      6618      6621
      6601      6598      6600      6613      6601      6605      6595      6609
      6601      6605      6607      6608      6602      6601      6603      6604
      6602      6601      6605      6606      6602      6601      6605      6607
      6603      6601      6605      6606      6603      6601      6605      6607
      6604      6603      6601      6605      6605      6595      6609      6610
      6605      6595      6609      6611      6605      6595      6609      6612
      6606      6605      6595      6609      6606      6605      6607      6608
      6607      6605      6595      6609      6613      6617      6615      6616
      6613      6617      6615      6625      6613      6617      6615      6629
      6613      6618      6620      6633      6613      6618      6621      6622
      6613      6618      6621      6623      6613      6618      6621      6625
      6614      6613      6617      6615      6614      6613      6618      6619
      6614      6613      6618      6620      6614      6613      6618      6621
      6615      6617      6613      6618      6615      6625      6621      6618
      6615      6625      6621      6622      6615      6625      6621      6623
      6615      6625      6627      6628      6616      6615      6625      6621
      6616      6615      6625      6626      6616      6615      6625      6627
      6616      6615      6629      6630      6616      6615      6629      6631
      6616      6615      6629      6632      6617      6613      6618      6619
      6617      6613      6618      6620      6617      6613      6618      6621
      6617      6615      6625      6621      6617      6615      6625      6626
      6617      6615      6625      6627      6617      6615      6629      6630
      6617      6615      6629      6631      6617      6615      6629      6632
      6618      6620      6633      6634      6618      6620      6633      6637
      6618      6620      6633      6638      6618      6621      6623      6624
      6618      6621      6625      6626      6618      6621      6625      6627
      6619      6618      6620      6633      6619      6618      6621      6622
      6619      6618      6621      6623      6619      6618      6621      6625
      6620      6618      6621      6622      6620      6618      6621      6623
      6620      6618      6621      6625      6620      6633      6637      6635
      6620      6633      6638      6639      6620      6633      6638      6640
      6620      6633      6638      6648      6621      6618      6620      6633
      6621      6625      6615      6629      6621      6625      6627      6628
      6622      6621      6623      6624      6622      6621      6625      6626
      6622      6621      6625      6627      6623      6621      6625      6626
      6623      6621      6625      6627      6624      6623      6621      6625
      6625      6615      6629      6630      6625      6615      6629      6631
      6625      6615      6629      6632      6626      6625      6615      6629
      6626      6625      6627      6628      6627      6625      6615      6629
      6633      6637      6635      6636      6633      6637      6635      6652
      6633      6637      6635      6656      6633      6638      6640      6641
      6633      6638      6640      6642      6633      6638      6648      6649
      6633      6638      6648      6650      6633      6638      6648      6652
      6634      6633      6637      6635      6634      6633      6638      6639
      6634      6633      6638      6640      6634      6633      6638      6648
      6635      6637      6633      6638      6635      6652      6648      6638
      6635      6652      6648      6649      6635      6652      6648      6650
      6635      6652      6654      6655      6635      6656      6659      6660
      6636      6635      6652      6648      6636      6635      6652      6653
      6636      6635      6652      6654      6636      6635      6656      6657
      6636      6635      6656      6658      6636      6635      6656      6659
      6637      6633      6638      6639      6637      6633      6638      6640
      6637      6633      6638      6648      6637      6635      6652      6648
      6637      6635      6652      6653      6637      6635      6652      6654
      6637      6635      6656      6657      6637      6635      6656      6658
      6637      6635      6656      6659      6638      6640      6642      6643
      6638      6640      6642      6644      6638      6648      6650      6651
      6638      6648      6652      6653      6638      6648      6652      6654
      6639      6638      6640      6641      6639      6638      6640      6642
      6639      6638      6648      6649      6639      6638      6648      6650
      6639      6638      6648      6652      6640      6638      6648      6649
      6640      6638      6648      6650      6640      6638      6648      6652
      6640      6642      6644      6645      6640      6642      6644      6646
      6640      6642      6644      6647      6641      6640      6638      6648
      6641      6640      6642      6643      6641      6640      6642      6644
      6642      6640      6638      6648      6643      6642      6644      6645
      6643      6642      6644      6646      6643      6642      6644      6647
      6648      6652      6635      6656      6648      6652      6654      6655
      6649      6648      6650      6651      6649      6648      6652      6653
      6649      6648      6652      6654      6650      6648      6652      6653
      6650      6648      6652      6654      6651      6650      6648      6652
      6652      6635      6656      6657      6652      6635      6656      6658
      6652      6635      6656      6659      6653      6652      6635      6656
      6653      6652      6654      6655      6654      6652      6635      6656
      6657      6656      6659      6660      6658      6656      6659      6660
      6661      6663      6662      6960      6661      6663      6665      6666
      6661      6663      6665      6667      6661      6663      6665      6674
      6662      6663      6665      6666      6662      6663      6665      6667
      6662      6663      6665      6674      6662      6960      6957      6958
      6662      6960      6957      6959      6662      6960      6963      6961
      6662      6960      6964      6965      6662      6960      6964      6966
      6662      6960      6964      6967      6663      6662      6960      6957
      6663      6662      6960      6963      6663      6662      6960      6964
      6663      6665      6666      6668      6663      6665      6674      6675
      6663      6665      6674      6676      6663      6665      6674      6681
      6664      6663      6662      6960      6664      6663      6665      6666
      6664      6663      6665      6667      6664      6663      6665      6674
      6665      6663      6662      6960      6665      6666      6668      6669
      6665      6666      6668      6670      6665      6666      6668      6689
      6665      6674      6676      6677      6665      6674      6681      6682
      6665      6674      6681      6683      6665      6674      6681      6689
      6666      6665      6674      6675      6666      6665      6674      6676
      6666      6665      6674      6681      6666      6668      6670      6671
      6666      6668      6689      6681      6666      6668      6689      6690
      6666      6668      6689      6691      6667      6665      6666      6668
      6667      6665      6674      6675      6667      6665      6674      6676
      6667      6665      6674      6681      6668      6666      6665      6674
      6668      6670      6671      6672      6668      6670      6671      6673
      6668      6670      6671      6697      6668      6689      6681      6674
      6668      6689      6681      6682      6668      6689      6681      6683
      6668      6689      6691      6692      6668      6689      6691      6798
      6669      6668      6670      6671      6669      6668      6689      6681
      6669      6668      6689      6690      6669      6668      6689      6691
      6670      6668      6689      6681      6670      6668      6689      6690
      6670      6668      6689      6691      6670      6671      6697      6693
      6670      6671      6697      6698      6670      6671      6697      6699
      6671      6670      6668      6689      6671      6697      6693      6694
      6671      6697      6693      6695      6671      6697      6693      6707
      6671      6697      6699      6700      6672      6671      6697      6693
      6672      6671      6697      6698      6672      6671      6697      6699
      6673      6671      6697      6693      6673      6671      6697      6698
      6673      6671      6697      6699      6674      6676      6677      6678
      6674      6676      6677      6679      6674      6676      6677      6680
      6674      6681      6682      6684      6674      6681      6689      6690
      6674      6681      6689      6691      6675      6674      6676      6677
      6675      6674      6681      6682      6675      6674      6681      6683
      6675      6674      6681      6689      6676      6674      6681      6682
      6676      6674      6681      6683      6676      6674      6681      6689
      6677      6676      6674      6681      6681      6682      6684      6685
      6681      6682      6684      6686      6681      6689      6691      6692
      6681      6689      6691      6798      6682      6681      6689      6690
      6682      6681      6689      6691      6682      6684      6686      6687
      6682      6684      6686      6688      6682      6684      6686      6719
      6683      6681      6682      6684      6683      6681      6689      6690
      6683      6681      6689      6691      6684      6682      6681      6689
      6684      6686      6719      6720      6684      6686      6719      6721
      6684      6686      6719      6764      6685      6684      6686      6687
      6685      6684      6686      6688      6685      6684      6686      6719
      6686      6719      6721      6722      6686      6719      6764      6765
      6686      6719      6764      6766      6686      6719      6764      6767
      6687      6686      6719      6720      6687      6686      6719      6721
      6687      6686      6719      6764      6688      6686      6719      6720
      6688      6686      6719      6721      6688      6686      6719      6764
      6689      6691      6798      6799      6689      6691      6798      6800
      6690      6689      6691      6692      6690      6689      6691      6798
      6691      6798      6800      6801      6691      6798      6800      6802
      6691      6798      6800      6803      6692      6691      6798      6799
      6692      6691      6798      6800      6693      6697      6699      6700
      6693      6707      6709      6710      6693      6707      6715      6700
      6693      6707      6715      6716      6693      6707      6715      6717
      6694      6693      6695      6696      6694      6693      6697      6698
      6694      6693      6697      6699      6694      6693      6707      6708
      6694      6693      6707      6709      6694      6693      6707      6715
      6695      6693      6697      6698      6695      6693      6697      6699
      6695      6693      6707      6708      6695      6693      6707      6709
      6695      6693      6707      6715      6696      6695      6693      6697
      6696      6695      6693      6707      6697      6693      6707      6708
      6697      6693      6707      6709      6697      6693      6707      6715
      6697      6699      6700      6701      6697      6699      6700      6702
      6697      6699      6700      6715      6698      6697      6693      6707
      6698      6697      6699      6700      6699      6697      6693      6707
      6699      6700      6702      6706      6699      6700      6715      6707
      6699      6700      6715      6716      6699      6700      6715      6717
      6700      6702      6706      6703      6700      6702      6706      6704
      6700      6702      6706      6705      6700      6715      6707      6708
      6700      6715      6707      6709      6700      6715      6717      6718
      6700      6715      6717      6914      6701      6700      6702      6706
      6701      6700      6715      6707      6701      6700      6715      6716
      6701      6700      6715      6717      6702      6700      6715      6707
      6702      6700      6715      6716      6702      6700      6715      6717
      6706      6702      6700      6715      6707      6709      6710      6711
      6707      6709      6710      6712      6707      6715      6717      6718
      6707      6715      6717      6914      6708      6707      6709      6710
      6708      6707      6715      6716      6708      6707      6715      6717
      6709      6707      6715      6716      6709      6707      6715      6717
      6709      6710      6712      6713      6709      6710      6712      6714
      6709      6710      6712      6876      6710      6709      6707      6715
      6710      6712      6876      6877      6710      6712      6876      6878
      6710      6712      6876      6880      6711      6710      6712      6713
      6711      6710      6712      6714      6711      6710      6712      6876
      6712      6876      6878      6879      6712      6876      6880      6881
      6712      6876      6880      6882      6712      6876      6880      6883
      6713      6712      6876      6877      6713      6712      6876      6878
      6713      6712      6876      6880      6714      6712      6876      6877
      6714      6712      6876      6878      6714      6712      6876      6880
      6715      6717      6914      6915      6715      6717      6914      6916
      6716      6715      6717      6718      6716      6715      6717      6914
      6717      6914      6916      6917      6717      6914      6916      6918
      6717      6914      6916      6919      6718      6717      6914      6915
      6718      6717      6914      6916      6719      6721      6722      6723
      6719      6721      6722      6724      6719      6764      6767      6768
      6719      6764      6767      6769      6719      6764      6767      6770
      6720      6719      6721      6722      6720      6719      6764      6765
      6720      6719      6764      6766      6720      6719      6764      6767
      6721      6719      6764      6765      6721      6719      6764      6766
      6721      6719      6764      6767      6721      6722      6724      6725
      6721      6722      6724      6726      6721      6722      6724      6727
      6722      6721      6719      6764      6722      6724      6727      6728
      6722      6724      6727      6729      6722      6724      6727      6730
      6723      6722      6724      6725      6723      6722      6724      6726
      6723      6722      6724      6727      6724      6727      6730      6731
      6724      6727      6730      6732      6724      6727      6730      6733
      6725      6724      6727      6728      6725      6724      6727      6729
      6725      6724      6727      6730      6726      6724      6727      6728
      6726      6724      6727      6729      6726      6724      6727      6730
      6727      6730      6733      6734      6727      6730      6733      6735
      6727      6730      6733      6736      6728      6727      6730      6731
      6728      6727      6730      6732      6728      6727      6730      6733
      6729      6727      6730      6731      6729      6727      6730      6732
      6729      6727      6730      6733      6730      6733      6736      6737
      6730      6733      6736      6738      6730      6733      6736      6739
      6731      6730      6733      6734      6731      6730      6733      6735
      6731      6730      6733      6736      6732      6730      6733      6734
      6732      6730      6733      6735      6732      6730      6733      6736
      6733      6736      6739      6740      6733      6736      6739      6741
      6733      6736      6739      6742      6734      6733      6736      6737
      6734      6733      6736      6738      6734      6733      6736      6739
      6735      6733      6736      6737      6735      6733      6736      6738
      6735      6733      6736      6739      6736      6739      6742      6743
      6736      6739      6742      6744      6736      6739      6742      6745
      6737      6736      6739      6740      6737      6736      6739      6741
      6737      6736      6739      6742      6738      6736      6739      6740
      6738      6736      6739      6741      6738      6736      6739      6742
      6739      6742      6745      6746      6739      6742      6745      6747
      6739      6742      6745      6748      6740      6739      6742      6743
      6740      6739      6742      6744      6740      6739      6742      6745
      6741      6739      6742      6743      6741      6739      6742      6744
      6741      6739      6742      6745      6742      6745      6748      6749
      6742      6745      6748      6750      6742      6745      6748      6751
      6743      6742      6745      6746      6743      6742      6745      6747
      6743      6742      6745      6748      6744      6742      6745      6746
      6744      6742      6745      6747      6744      6742      6745      6748
      6745      6748      6751      6752      6745      6748      6751      6753
      6745      6748      6751      6754      6746      6745      6748      6749
      6746      6745      6748      6750      6746      6745      6748      6751
      6747      6745      6748      6749      6747      6745      6748      6750
      6747      6745      6748      6751      6748      6751      6754      6755
      6748      6751      6754      6756      6748      6751      6754      6757
      6749      6748      6751      6752      6749      6748      6751      6753
      6749      6748      6751      6754      6750      6748      6751      6752
      6750      6748      6751      6753      6750      6748      6751      6754
      6751      6754      6757      6758      6751      6754      6757      6759
      6751      6754      6757      6760      6752      6751      6754      6755
      6752      6751      6754      6756      6752      6751      6754      6757
      6753      6751      6754      6755      6753      6751      6754      6756
      6753      6751      6754      6757      6754      6757      6760      6761
      6754      6757      6760      6762      6754      6757      6760      6763
      6755      6754      6757      6758      6755      6754      6757      6759
      6755      6754      6757      6760      6756      6754      6757      6758
      6756      6754      6757      6759      6756      6754      6757      6760
      6758      6757      6760      6761      6758      6757      6760      6762
      6758      6757      6760      6763      6759      6757      6760      6761
      6759      6757      6760      6762      6759      6757      6760      6763
      6764      6767      6770      6771      6764      6767      6770      6772
      6764      6767      6770      6773      6765      6764      6767      6768
      6765      6764      6767      6769      6765      6764      6767      6770
      6766      6764      6767      6768      6766      6764      6767      6769
      6766      6764      6767      6770      6767      6770      6773      6774
      6767      6770      6773      6775      6767      6770      6773      6776
      6768      6767      6770      6771      6768      6767      6770      6772
      6768      6767      6770      6773      6769      6767      6770      6771
      6769      6767      6770      6772      6769      6767      6770      6773
      6770      6773      6776      6777      6770      6773      6776      6778
      6770      6773      6776      6779      6771      6770      6773      6774
      6771      6770      6773      6775      6771      6770      6773      6776
      6772      6770      6773      6774      6772      6770      6773      6775
      6772      6770      6773      6776      6773      6776      6779      6780
      6773      6776      6779      6781      6773      6776      6779      6782
      6774      6773      6776      6777      6774      6773      6776      6778
      6774      6773      6776      6779      6775      6773      6776      6777
      6775      6773      6776      6778      6775      6773      6776      6779
      6776      6779      6782      6783      6776      6779      6782      6784
      6776      6779      6782      6785      6777      6776      6779      6780
      6777      6776      6779      6781      6777      6776      6779      6782
      6778      6776      6779      6780      6778      6776      6779      6781
      6778      6776      6779      6782      6779      6782      6785      6786
      6779      6782      6785      6787      6779      6782      6785      6788
      6780      6779      6782      6783      6780      6779      6782      6784
      6780      6779      6782      6785      6781      6779      6782      6783
      6781      6779      6782      6784      6781      6779      6782      6785
      6782      6785      6788      6789      6782      6785      6788      6790
      6782      6785      6788      6791      6783      6782      6785      6786
      6783      6782      6785      6787      6783      6782      6785      6788
      6784      6782      6785      6786      6784      6782      6785      6787
      6784      6782      6785      6788      6785      6788      6791      6792
      6785      6788      6791      6793      6785      6788      6791      6794
      6786      6785      6788      6789      6786      6785      6788      6790
      6786      6785      6788      6791      6787      6785      6788      6789
      6787      6785      6788      6790      6787      6785      6788      6791
      6788      6791      6794      6795      6788      6791      6794      6796
      6788      6791      6794      6797      6789      6788      6791      6792
      6789      6788      6791      6793      6789      6788      6791      6794
      6790      6788      6791      6792      6790      6788      6791      6793
      6790      6788      6791      6794      6792      6791      6794      6795
      6792      6791      6794      6796      6792      6791      6794      6797
      6793      6791      6794      6795      6793      6791      6794      6796
      6793      6791      6794      6797      6798      6800      6803      6804
      6798      6800      6803      6805      6798      6800      6803      6842
      6799      6798      6800      6801      6799      6798      6800      6802
      6799      6798      6800      6803      6800      6803      6805      6806
      6800      6803      6842      6843      6800      6803      6842      6844
      6800      6803      6842      6845      6801      6800      6803      6804
      6801      6800      6803      6805      6801      6800      6803      6842
      6802      6800      6803      6804      6802      6800      6803      6805
      6802      6800      6803      6842      6803      6805      6806      6807
      6803      6805      6806      6808      6803      6842      6845      6846
      6803      6842      6845      6847      6803      6842      6845      6848
      6804      6803      6805      6806      6804      6803      6842      6843
      6804      6803      6842      6844      6804      6803      6842      6845
      6805      6803      6842      6843      6805      6803      6842      6844
      6805      6803      6842      6845      6805      6806      6808      6809
      6805      6806      6808      6810      6805      6806      6808      6811
      6806      6805      6803      6842      6806      6808      6811      6812
      6806      6808      6811      6813      6806      6808      6811      6814
      6807      6806      6808      6809      6807      6806      6808      6810
      6807      6806      6808      6811      6808      6811      6814      6815
      6808      6811      6814      6816      6808      6811      6814      6817
      6809      6808      6811      6812      6809      6808      6811      6813
      6809      6808      6811      6814      6810      6808      6811      6812
      6810      6808      6811      6813      6810      6808      6811      6814
      6811      6814      6817      6818      6811      6814      6817      6819
      6811      6814      6817      6820      6812      6811      6814      6815
      6812      6811      6814      6816      6812      6811      6814      6817
      6813      6811      6814      6815      6813      6811      6814      6816
      6813      6811      6814      6817      6814      6817      6820      6821
      6814      6817      6820      6822      6814      6817      6820      6823
      6815      6814      6817      6818      6815      6814      6817      6819
      6815      6814      6817      6820      6816      6814      6817      6818
      6816      6814      6817      6819      6816      6814      6817      6820
      6817      6820      6823      6824      6817      6820      6823      6825
      6817      6820      6823      6826      6818      6817      6820      6821
      6818      6817      6820      6822      6818      6817      6820      6823
      6819      6817      6820      6821      6819      6817      6820      6822
      6819      6817      6820      6823      6820      6823      6826      6827
      6820      6823      6826      6828      6820      6823      6826      6829
      6821      6820      6823      6824      6821      6820      6823      6825
      6821      6820      6823      6826      6822      6820      6823      6824
      6822      6820      6823      6825      6822      6820      6823      6826
      6823      6826      6829      6830      6823      6826      6829      6831
      6823      6826      6829      6832      6824      6823      6826      6827
      6824      6823      6826      6828      6824      6823      6826      6829
      6825      6823      6826      6827      6825      6823      6826      6828
      6825      6823      6826      6829      6826      6829      6832      6833
      6826      6829      6832      6834      6826      6829      6832      6835
      6827      6826      6829      6830      6827      6826      6829      6831
      6827      6826      6829      6832      6828      6826      6829      6830
      6828      6826      6829      6831      6828      6826      6829      6832
      6829      6832      6835      6836      6829      6832      6835      6837
      6829      6832      6835      6838      6830      6829      6832      6833
      6830      6829      6832      6834      6830      6829      6832      6835
      6831      6829      6832      6833      6831      6829      6832      6834
      6831      6829      6832      6835      6832      6835      6838      6839
      6832      6835      6838      6840      6832      6835      6838      6841
      6833      6832      6835      6836      6833      6832      6835      6837
      6833      6832      6835      6838      6834      6832      6835      6836
      6834      6832      6835      6837      6834      6832      6835      6838
      6836      6835      6838      6839      6836      6835      6838      6840
      6836      6835      6838      6841      6837      6835      6838      6839
      6837      6835      6838      6840      6837      6835      6838      6841
      6842      6845      6848      6849      6842      6845      6848      6850
      6842      6845      6848      6851      6843      6842      6845      6846
      6843      6842      6845      6847      6843      6842      6845      6848
      6844      6842      6845      6846      6844      6842      6845      6847
      6844      6842      6845      6848      6845      6848      6851      6852
      6845      6848      6851      6853      6845      6848      6851      6854
      6846      6845      6848      6849      6846      6845      6848      6850
      6846      6845      6848      6851      6847      6845      6848      6849
      6847      6845      6848      6850      6847      6845      6848      6851
      6848      6851      6854      6855      6848      6851      6854      6856
      6848      6851      6854      6857      6849      6848      6851      6852
      6849      6848      6851      6853      6849      6848      6851      6854
      6850      6848      6851      6852      6850      6848      6851      6853
      6850      6848      6851      6854      6851      6854      6857      6858
      6851      6854      6857      6859      6851      6854      6857      6860
      6852      6851      6854      6855      6852      6851      6854      6856
      6852      6851      6854      6857      6853      6851      6854      6855
      6853      6851      6854      6856      6853      6851      6854      6857
      6854      6857      6860      6861      6854      6857      6860      6862
      6854      6857      6860      6863      6855      6854      6857      6858
      6855      6854      6857      6859      6855      6854      6857      6860
      6856      6854      6857      6858      6856      6854      6857      6859
      6856      6854      6857      6860      6857      6860      6863      6864
      6857      6860      6863      6865      6857      6860      6863      6866
      6858      6857      6860      6861      6858      6857      6860      6862
      6858      6857      6860      6863      6859      6857      6860      6861
      6859      6857      6860      6862      6859      6857      6860      6863
      6860      6863      6866      6867      6860      6863      6866      6868
      6860      6863      6866      6869      6861      6860      6863      6864
      6861      6860      6863      6865      6861      6860      6863      6866
      6862      6860      6863      6864      6862      6860      6863      6865
      6862      6860      6863      6866      6863      6866      6869      6870
      6863      6866      6869      6871      6863      6866      6869      6872
      6864      6863      6866      6867      6864      6863      6866      6868
      6864      6863      6866      6869      6865      6863      6866      6867
      6865      6863      6866      6868      6865      6863      6866      6869
      6866      6869      6872      6873      6866      6869      6872      6874
      6866      6869      6872      6875      6867      6866      6869      6870
      6867      6866      6869      6871      6867      6866      6869      6872
      6868      6866      6869      6870      6868      6866      6869      6871
      6868      6866      6869      6872      6870      6869      6872      6873
      6870      6869      6872      6874      6870      6869      6872      6875
      6871      6869      6872      6873      6871      6869      6872      6874
      6871      6869      6872      6875      6876      6880      6883      6884
      6876      6880      6883      6885      6876      6880      6883      6886
      6877      6876      6878      6879      6877      6876      6880      6881
      6877      6876      6880      6882      6877      6876      6880      6883
      6878      6876      6880      6881      6878      6876      6880      6882
      6878      6876      6880      6883      6879      6878      6876      6880
      6880      6883      6886      6887      6880      6883      6886      6888
      6880      6883      6886      6889      6881      6880      6883      6884
      6881      6880      6883      6885      6881      6880      6883      6886
      6882      6880      6883      6884      6882      6880      6883      6885
      6882      6880      6883      6886      6883      6886      6889      6890
      6883      6886      6889      6891      6883      6886      6889      6892
      6884      6883      6886      6887      6884      6883      6886      6888
      6884      6883      6886      6889      6885      6883      6886      6887
      6885      6883      6886      6888      6885      6883      6886      6889
      6886      6889      6892      6893      6886      6889      6892      6894
      6886      6889      6892      6895      6887      6886      6889      6890
      6887      6886      6889      6891      6887      6886      6889      6892
      6888      6886      6889      6890      6888      6886      6889      6891
      6888      6886      6889      6892      6889      6892      6895      6896
      6889      6892      6895      6897      6889      6892      6895      6898
      6890      6889      6892      6893      6890      6889      6892      6894
      6890      6889      6892      6895      6891      6889      6892      6893
      6891      6889      6892      6894      6891      6889      6892      6895
      6892      6895      6898      6899      6892      6895      6898      6900
      6892      6895      6898      6901      6893      6892      6895      6896
      6893      6892      6895      6897      6893      6892      6895      6898
      6894      6892      6895      6896      6894      6892      6895      6897
      6894      6892      6895      6898      6895      6898      6901      6902
      6895      6898      6901      6903      6895      6898      6901      6904
      6896      6895      6898      6899      6896      6895      6898      6900
      6896      6895      6898      6901      6897      6895      6898      6899
      6897      6895      6898      6900      6897      6895      6898      6901
      6898      6901      6904      6905      6898      6901      6904      6906
      6898      6901      6904      6907      6899      6898      6901      6902
      6899      6898      6901      6903      6899      6898      6901      6904
      6900      6898      6901      6902      6900      6898      6901      6903
      6900      6898      6901      6904      6901      6904      6907      6908
      6901      6904      6907      6909      6901      6904      6907      6910
      6902      6901      6904      6905      6902      6901      6904      6906
      6902      6901      6904      6907      6903      6901      6904      6905
      6903      6901      6904      6906      6903      6901      6904      6907
      6904      6907      6910      6911      6904      6907      6910      6912
      6904      6907      6910      6913      6905      6904      6907      6908
      6905      6904      6907      6909      6905      6904      6907      6910
      6906      6904      6907      6908      6906      6904      6907      6909
      6906      6904      6907      6910      6908      6907      6910      6911
      6908      6907      6910      6912      6908      6907      6910      6913
      6909      6907      6910      6911      6909      6907      6910      6912
      6909      6907      6910      6913      6914      6916      6919      6920
      6914      6916      6919      6921      6914      6916      6919      6923
      6915      6914      6916      6917      6915      6914      6916      6918
      6915      6914      6916      6919      6916      6919      6921      6922
      6916      6919      6923      6924      6916      6919      6923      6925
      6916      6919      6923      6926      6917      6916      6919      6920
      6917      6916      6919      6921      6917      6916      6919      6923
      6918      6916      6919      6920      6918      6916      6919      6921
      6918      6916      6919      6923      6919      6923      6926      6927
      6919      6923      6926      6928      6919      6923      6926      6929
      6920      6919      6921      6922      6920      6919      6923      6924
      6920      6919      6923      6925      6920      6919      6923      6926
      6921      6919      6923      6924      6921      6919      6923      6925
      6921      6919      6923      6926      6922      6921      6919      6923
      6923      6926      6929      6930      6923      6926      6929      6931
      6923      6926      6929      6932      6924      6923      6926      6927
      6924      6923      6926      6928      6924      6923      6926      6929
      6925      6923      6926      6927      6925      6923      6926      6928
      6925      6923      6926      6929      6926      6929      6932      6933
      6926      6929      6932      6934      6926      6929      6932      6935
      6927      6926      6929      6930      6927      6926      6929      6931
      6927      6926      6929      6932      6928      6926      6929      6930
      6928      6926      6929      6931      6928      6926      6929      6932
      6929      6932      6935      6936      6929      6932      6935      6937
      6929      6932      6935      6938      6930      6929      6932      6933
      6930      6929      6932      6934      6930      6929      6932      6935
      6931      6929      6932      6933      6931      6929      6932      6934
      6931      6929      6932      6935      6932      6935      6938      6939
      6932      6935      6938      6940      6932      6935      6938      6941
      6933      6932      6935      6936      6933      6932      6935      6937
      6933      6932      6935      6938      6934      6932      6935      6936
      6934      6932      6935      6937      6934      6932      6935      6938
      6935      6938      6941      6942      6935      6938      6941      6943
      6935      6938      6941      6944      6936      6935      6938      6939
      6936      6935      6938      6940      6936      6935      6938      6941
      6937      6935      6938      6939      6937      6935      6938      6940
      6937      6935      6938      6941      6938      6941      6944      6945
      6938      6941      6944      6946      6938      6941      6944      6947
      6939      6938      6941      6942      6939      6938      6941      6943
      6939      6938      6941      6944      6940      6938      6941      6942
      6940      6938      6941      6943      6940      6938      6941      6944
      6941      6944      6947      6948      6941      6944      6947      6949
      6941      6944      6947      6950      6942      6941      6944      6945
      6942      6941      6944      6946      6942      6941      6944      6947
      6943      6941      6944      6945      6943      6941      6944      6946
      6943      6941      6944      6947      6944      6947      6950      6951
      6944      6947      6950      6952      6944      6947      6950      6953
      6945      6944      6947      6948      6945      6944      6947      6949
      6945      6944      6947      6950      6946      6944      6947      6948
      6946      6944      6947      6949      6946      6944      6947      6950
      6947      6950      6953      6954      6947      6950      6953      6955
      6947      6950      6953      6956      6948      6947      6950      6951
      6948      6947      6950      6952      6948      6947      6950      6953
      6949      6947      6950      6951      6949      6947      6950      6952
      6949      6947      6950      6953      6951      6950      6953      6954
      6951      6950      6953      6955      6951      6950      6953      6956
      6952      6950      6953      6954      6952      6950      6953      6955
      6952      6950      6953      6956      6957      6960      6963      6961
      6957      6960      6964      6965      6957      6960      6964      6966
      6957      6960      6964      6967      6958      6957      6960      6963
      6958      6957      6960      6964      6959      6957      6960      6963
      6959      6957      6960      6964      6960      6963      6961      6962
      6960      6963      6961      6970      6960      6963      6961      6973
      6960      6964      6967      6968      6960      6964      6967      6969
      6960      6964      6967      6970      6961      6963      6960      6964
      6961      6970      6967      6964      6961      6970      6967      6968
      6961      6970      6967      6969      6961      6970      6972      7009
      6961      6973      6975      6976      6961      6973      6977      6978
      6961      6973      6977      6979      6961      6973      6977      6980
      6962      6961      6970      6967      6962      6961      6970      6971
      6962      6961      6970      6972      6962      6961      6973      6974
      6962      6961      6973      6975      6962      6961      6973      6977
      6963      6960      6964      6965      6963      6960      6964      6966
      6963      6960      6964      6967      6963      6961      6970      6967
      6963      6961      6970      6971      6963      6961      6970      6972
      6963      6961      6973      6974      6963      6961      6973      6975
      6963      6961      6973      6977      6964      6967      6969      6985
      6964      6967      6970      6971      6964      6967      6970      6972
      6965      6964      6967      6968      6965      6964      6967      6969
      6965      6964      6967      6970      6966      6964      6967      6968
      6966      6964      6967      6969      6966      6964      6967      6970
      6967      6969      6985      6982      6967      6969      6985      6988
      6967      6969      6985      6989      6967      6970      6961      6973
      6967      6970      6972      7009      6968      6967      6969      6985
      6968      6967      6970      6971      6968      6967      6970      6972
      6969      6967      6970      6971      6969      6967      6970      6972
      6969      6985      6982      6983      6969      6985      6982      6984
      6969      6985      6988      6986      6969      6985      6989      6990
      6969      6985      6989      6991      6969      6985      6989      6992
      6970      6961      6973      6974      6970      6961      6973      6975
      6970      6961      6973      6977      6970      6967      6969      6985
      6970      6972      7009      7010      6970      6972      7009      7013
      6970      6972      7009      7014      6971      6970      6961      6973
      6971      6970      6972      7009      6972      6970      6961      6973
      6972      7009      7013      7011      6972      7009      7014      7015
      6972      7009      7014      7016      6972      7009      7014      7018
      6973      6977      6980      6981      6974      6973      6975      6976
      6974      6973      6977      6978      6974      6973      6977      6979
      6974      6973      6977      6980      6975      6973      6977      6978
      6975      6973      6977      6979      6975      6973      6977      6980
      6976      6975      6973      6977      6978      6977      6980      6981
      6979      6977      6980      6981      6982      6985      6988      6986
      6982      6985      6989      6990      6982      6985      6989      6991
      6982      6985      6989      6992      6983      6982      6985      6988
      6983      6982      6985      6989      6984      6982      6985      6988
      6984      6982      6985      6989      6985      6988      6986      6987
      6985      6988      6986      6996      6985      6988      6986      7000
      6985      6989      6992      6993      6985      6989      6992      6994
      6985      6989      6992      6996      6986      6988      6985      6989
      6986      6996      6992      6989      6986      6996      6992      6993
      6986      6996      6992      6994      6986      6996      6998      6999
      6986      7000      7002      7003      6986      7000      7004      7005
      6986      7000      7004      7006      6986      7000      7004      7007
      6987      6986      6996      6992      6987      6986      6996      6997
      6987      6986      6996      6998      6987      6986      7000      7001
      6987      6986      7000      7002      6987      6986      7000      7004
      6988      6985      6989      6990      6988      6985      6989      6991
      6988      6985      6989      6992      6988      6986      6996      6992
      6988      6986      6996      6997      6988      6986      6996      6998
      6988      6986      7000      7001      6988      6986      7000      7002
      6988      6986      7000      7004      6989      6992      6994      6995
      6989      6992      6996      6997      6989      6992      6996      6998
      6990      6989      6992      6993      6990      6989      6992      6994
      6990      6989      6992      6996      6991      6989      6992      6993
      6991      6989      6992      6994      6991      6989      6992      6996
      6992      6996      6986      7000      6992      6996      6998      6999
      6993      6992      6994      6995      6993      6992      6996      6997
      6993      6992      6996      6998      6994      6992      6996      6997
      6994      6992      6996      6998      6995      6994      6992      6996
      6996      6986      7000      7001      6996      6986      7000      7002
      6996      6986      7000      7004      6997      6996      6986      7000
      6997      6996      6998      6999      6998      6996      6986      7000
      7000      7004      7007      7008      7001      7000      7002      7003
      7001      7000      7004      7005      7001      7000      7004      7006
      7001      7000      7004      7007      7002      7000      7004      7005
      7002      7000      7004      7006      7002      7000      7004      7007
      7003      7002      7000      7004      7005      7004      7007      7008
      7006      7004      7007      7008      7009      7013      7011      7012
      7009      7013      7011      7021      7009      7013      7011      7028
      7009      7014      7016      7017      7009      7014      7018      7019
      7009      7014      7018      7020      7009      7014      7018      7021
      7010      7009      7013      7011      7010      7009      7014      7015
      7010      7009      7014      7016      7010      7009      7014      7018
      7011      7013      7009      7014      7011      7021      7018      7014
      7011      7021      7018      7019      7011      7021      7018      7020
      7011      7021      7023      7024      7011      7028      7030      7031
      7011      7028      7032      7033      7011      7028      7032      7034
      7011      7028      7032      7035      7012      7011      7021      7018
      7012      7011      7021      7022      7012      7011      7021      7023
      7012      7011      7028      7029      7012      7011      7028      7030
      7012      7011      7028      7032      7013      7009      7014      7015
      7013      7009      7014      7016      7013      7009      7014      7018
      7013      7011      7021      7018      7013      7011      7021      7022
      7013      7011      7021      7023      7013      7011      7028      7029
      7013      7011      7028      7030      7013      7011      7028      7032
      7014      7018      7020      7037      7014      7018      7021      7022
      7014      7018      7021      7023      7015      7014      7016      7017
      7015      7014      7018      7019      7015      7014      7018      7020
      7015      7014      7018      7021      7016      7014      7018      7019
      7016      7014      7018      7020      7016      7014      7018      7021
      7017      7016      7014      7018      7018      7020      7037      7038
      7018      7020      7037      7041      7018      7020      7037      7042
      7018      7021      7011      7028      7018      7021      7023      7024
      7019      7018      7020      7037      7019      7018      7021      7022
      7019      7018      7021      7023      7020      7018      7021      7022
      7020      7018      7021      7023      7020      7037      7041      7039
      7020      7037      7042      7043      7020      7037      7042      7044
      7020      7037      7042      7046      7021      7011      7028      7029
      7021      7011      7028      7030      7021      7011      7028      7032
      7021      7018      7020      7037      7021      7023      7024      7025
      7021      7023      7024      7026      7021      7023      7024      7027
      7022      7021      7011      7028      7022      7021      7023      7024
      7023      7021      7011      7028      7028      7032      7035      7036
      7029      7028      7030      7031      7029      7028      7032      7033
      7029      7028      7032      7034      7029      7028      7032      7035
      7030      7028      7032      7033      7030      7028      7032      7034
      7030      7028      7032      7035      7031      7030      7028      7032
      7033      7032      7035      7036      7034      7032      7035      7036
      7037      7041      7039      7040      7037      7041      7039      7049
      7037      7041      7039      7056      7037      7042      7044      7045
      7037      7042      7046      7047      7037      7042      7046      7048
      7037      7042      7046      7049      7038      7037      7041      7039
      7038      7037      7042      7043      7038      7037      7042      7044
      7038      7037      7042      7046      7039      7041      7037      7042
      7039      7049      7046      7042      7039      7049      7046      7047
      7039      7049      7046      7048      7039      7049      7051      7052
      7039      7056      7058      7059      7039      7056      7060      7061
      7039      7056      7060      7062      7039      7056      7060      7063
      7040      7039      7049      7046      7040      7039      7049      7050
      7040      7039      7049      7051      7040      7039      7056      7057
      7040      7039      7056      7058      7040      7039      7056      7060
      7041      7037      7042      7043      7041      7037      7042      7044
      7041      7037      7042      7046      7041      7039      7049      7046
      7041      7039      7049      7050      7041      7039      7049      7051
      7041      7039      7056      7057      7041      7039      7056      7058
      7041      7039      7056      7060      7042      7046      7048      7090
      7042      7046      7049      7050      7042      7046      7049      7051
      7043      7042      7044      7045      7043      7042      7046      7047
      7043      7042      7046      7048      7043      7042      7046      7049
      7044      7042      7046      7047      7044      7042      7046      7048
      7044      7042      7046      7049      7045      7044      7042      7046
      7046      7048      7090      7091      7046      7048      7090      7094
      7046      7048      7090      7095      7046      7049      7039      7056
      7046      7049      7051      7052      7047      7046      7048      7090
      7047      7046      7049      7050      7047      7046      7049      7051
      7048      7046      7049      7050      7048      7046      7049      7051
      7048      7090      7094      7092      7048      7090      7095      7096
      7048      7090      7095      7097      7048      7090      7095      7099
      7049      7039      7056      7057      7049      7039      7056      7058
      7049      7039      7056      7060      7049      7046      7048      7090
      7049      7051      7052      7053      7049      7051      7052      7054
      7049      7051      7052      7055      7050      7049      7039      7056
      7050      7049      7051      7052      7051      7049      7039      7056
      7056      7060      7063      7064      7057      7056      7058      7059
      7057      7056      7060      7061      7057      7056      7060      7062
      7057      7056      7060      7063      7058      7056      7060      7061
      7058      7056      7060      7062      7058      7056      7060      7063
      7059      7058      7056      7060      7060      7063      7064      7065
      7060      7063      7064      7068      7060      7063      7064      7069
      7061      7060      7063      7064      7062      7060      7063      7064
      7063      7064      7068      7066      7063      7064      7069      7070
      7063      7064      7069      7071      7063      7064      7069      7073
      7064      7068      7066      7067      7064      7068      7066      7077
      7064      7068      7066      7081      7064      7069      7071      7072
      7064      7069      7073      7074      7064      7069      7073      7075
      7064      7069      7073      7077      7065      7064      7068      7066
      7065      7064      7069      7070      7065      7064      7069      7071
      7065      7064      7069      7073      7066      7068      7064      7069
      7066      7077      7073      7069      7066      7077      7073      7074
      7066      7077      7073      7075      7066      7077      7079      7080
      7066      7081      7083      7084      7066      7081      7085      7086
      7066      7081      7085      7087      7066      7081      7085      7088
      7067      7066      7077      7073      7067      7066      7077      7078
      7067      7066      7077      7079      7067      7066      7081      7082
      7067      7066      7081      7083      7067      7066      7081      7085
      7068      7064      7069      7070      7068      7064      7069      7071
      7068      7064      7069      7073      7068      7066      7077      7073
      7068      7066      7077      7078      7068      7066      7077      7079
      7068      7066      7081      7082      7068      7066      7081      7083
      7068      7066      7081      7085      7069      7073      7075      7076
      7069      7073      7077      7078      7069      7073      7077      7079
      7070      7069      7071      7072      7070      7069      7073      7074
      7070      7069      7073      7075      7070      7069      7073      7077
      7071      7069      7073      7074      7071      7069      7073      7075
      7071      7069      7073      7077      7072      7071      7069      7073
      7073      7077      7066      7081      7073      7077      7079      7080
      7074      7073      7075      7076      7074      7073      7077      7078
      7074      7073      7077      7079      7075      7073      7077      7078
      7075      7073      7077      7079      7076      7075      7073      7077
      7077      7066      7081      7082      7077      7066      7081      7083
      7077      7066      7081      7085      7078      7077      7066      7081
      7078      7077      7079      7080      7079      7077      7066      7081
      7081      7085      7088      7089      7082      7081      7083      7084
      7082      7081      7085      7086      7082      7081      7085      7087
      7082      7081      7085      7088      7083      7081      7085      7086
      7083      7081      7085      7087      7083      7081      7085      7088
      7084      7083      7081      7085      7086      7085      7088      7089
      7087      7085      7088      7089      7090      7094      7092      7093
      7090      7094      7092      7102      7090      7094      7092      7106
      7090      7095      7097      7098      7090      7095      7099      7100
      7090      7095      7099      7101      7090      7095      7099      7102
      7091      7090      7094      7092      7091      7090      7095      7096
      7091      7090      7095      7097      7091      7090      7095      7099
      7092      7094      7090      7095      7092      7102      7099      7095
      7092      7102      7099      7100      7092      7102      7099      7101
      7092      7102      7104      7105      7092      7106      7109      7110
      7093      7092      7102      7099      7093      7092      7102      7103
      7093      7092      7102      7104      7093      7092      7106      7107
      7093      7092      7106      7108      7093      7092      7106      7109
      7094      7090      7095      7096      7094      7090      7095      7097
      7094      7090      7095      7099      7094      7092      7102      7099
      7094      7092      7102      7103      7094      7092      7102      7104
      7094      7092      7106      7107      7094      7092      7106      7108
      7094      7092      7106      7109      7095      7099      7101      7111
      7095      7099      7102      7103      7095      7099      7102      7104
      7096      7095      7097      7098      7096      7095      7099      7100
      7096      7095      7099      7101      7096      7095      7099      7102
      7097      7095      7099      7100      7097      7095      7099      7101
      7097      7095      7099      7102      7098      7097      7095      7099
      7099      7101      7111      7112      7099      7101      7111      7115
      7099      7101      7111      7116      7099      7102      7092      7106
      7099      7102      7104      7105      7100      7099      7101      7111
      7100      7099      7102      7103      7100      7099      7102      7104
      7101      7099      7102      7103      7101      7099      7102      7104
      7101      7111      7115      7113      7101      7111      7116      7117
      7101      7111      7116      7118      7101      7111      7116      7119
      7102      7092      7106      7107      7102      7092      7106      7108
      7102      7092      7106      7109      7102      7099      7101      7111
      7103      7102      7092      7106      7103      7102      7104      7105
      7104      7102      7092      7106      7107      7106      7109      7110
      7108      7106      7109      7110      7111      7115      7113      7114
      7111      7115      7113      7122      7111      7115      7113      7126
      7111      7116      7118      7131      7111      7116      7119      7120
      7111      7116      7119      7121      7111      7116      7119      7122
      7112      7111      7115      7113      7112      7111      7116      7117
      7112      7111      7116      7118      7112      7111      7116      7119
      7113      7115      7111      7116      7113      7122      7119      7116
      7113      7122      7119      7120      7113      7122      7119      7121
      7113      7122      7124      7125      7113      7126      7129      7130
      7114      7113      7122      7119      7114      7113      7122      7123
      7114      7113      7122      7124      7114      7113      7126      7127
      7114      7113      7126      7128      7114      7113      7126      7129
      7115      7111      7116      7117      7115      7111      7116      7118
      7115      7111      7116      7119      7115      7113      7122      7119
      7115      7113      7122      7123      7115      7113      7122      7124
      7115      7113      7126      7127      7115      7113      7126      7128
      7115      7113      7126      7129      7116      7118      7131      7132
      7116      7118      7131      7135      7116      7118      7131      7136
      7116      7119      7121      7174      7116      7119      7122      7123
      7116      7119      7122      7124      7117      7116      7118      7131
      7117      7116      7119      7120      7117      7116      7119      7121
      7117      7116      7119      7122      7118      7116      7119      7120
      7118      7116      7119      7121      7118      7116      7119      7122
      7118      7131      7135      7133      7118      7131      7136      7137
      7118      7131      7136      7138      7118      7131      7136      7139
      7119      7116      7118      7131      7119      7121      7174      7175
      7119      7121      7174      7178      7119      7121      7174      7179
      7119      7122      7113      7126      7119      7122      7124      7125
      7120      7119      7121      7174      7120      7119      7122      7123
      7120      7119      7122      7124      7121      7119      7122      7123
      7121      7119      7122      7124      7121      7174      7178      7176
      7121      7174      7179      7180      7121      7174      7179      7181
      7121      7174      7179      7183      7122      7113      7126      7127
      7122      7113      7126      7128      7122      7113      7126      7129
      7122      7119      7121      7174      7123      7122      7113      7126
      7123      7122      7124      7125      7124      7122      7113      7126
      7127      7126      7129      7130      7128      7126      7129      7130
      7131      7135      7133      7134      7131      7135      7133      7143
      7131      7135      7133      7147      7131      7136      7138      7152
      7131      7136      7139      7140      7131      7136      7139      7141
      7131      7136      7139      7143      7132      7131      7135      7133
      7132      7131      7136      7137      7132      7131      7136      7138
      7132      7131      7136      7139      7133      7135      7131      7136
      7133      7143      7139      7136      7133      7143      7139      7140
      7133      7143      7139      7141      7133      7143      7145      7146
      7133      7147      7150      7151      7134      7133      7143      7139
      7134      7133      7143      7144      7134      7133      7143      7145
      7134      7133      7147      7148      7134      7133      7147      7149
      7134      7133      7147      7150      7135      7131      7136      7137
      7135      7131      7136      7138      7135      7131      7136      7139
      7135      7133      7143      7139      7135      7133      7143      7144
      7135      7133      7143      7145      7135      7133      7147      7148
      7135      7133      7147      7149      7135      7133      7147      7150
      7136      7138      7152      7153      7136      7138      7152      7156
      7136      7138      7152      7157      7136      7139      7141      7142
      7136      7139      7143      7144      7136      7139      7143      7145
      7137      7136      7138      7152      7137      7136      7139      7140
      7137      7136      7139      7141      7137      7136      7139      7143
      7138      7136      7139      7140      7138      7136      7139      7141
      7138      7136      7139      7143      7138      7152      7156      7154
      7138      7152      7157      7158      7138      7152      7157      7159
      7138      7152      7157      7161      7139      7136      7138      7152
      7139      7143      7133      7147      7139      7143      7145      7146
      7140      7139      7141      7142      7140      7139      7143      7144
      7140      7139      7143      7145      7141      7139      7143      7144
      7141      7139      7143      7145      7142      7141      7139      7143
      7143      7133      7147      7148      7143      7133      7147      7149
      7143      7133      7147      7150      7144      7143      7133      7147
      7144      7143      7145      7146      7145      7143      7133      7147
      7148      7147      7150      7151      7149      7147      7150      7151
      7152      7156      7154      7155      7152      7156      7154      7165
      7152      7156      7154      7169      7152      7157      7159      7160
      7152      7157      7161      7162      7152      7157      7161      7163
      7152      7157      7161      7165      7153      7152      7156      7154
      7153      7152      7157      7158      7153      7152      7157      7159
      7153      7152      7157      7161      7154      7156      7152      7157
      7154      7165      7161      7157      7154      7165      7161      7162
      7154      7165      7161      7163      7154      7165      7167      7168
      7154      7169      7172      7173      7155      7154      7165      7161
      7155      7154      7165      7166      7155      7154      7165      7167
      7155      7154      7169      7170      7155      7154      7169      7171
      7155      7154      7169      7172      7156      7152      7157      7158
      7156      7152      7157      7159      7156      7152      7157      7161
      7156      7154      7165      7161      7156      7154      7165      7166
      7156      7154      7165      7167      7156      7154      7169      7170
      7156      7154      7169      7171      7156      7154      7169      7172
      7157      7161      7163      7164      7157      7161      7165      7166
      7157      7161      7165      7167      7158      7157      7159      7160
      7158      7157      7161      7162      7158      7157      7161      7163
      7158      7157      7161      7165      7159      7157      7161      7162
      7159      7157      7161      7163      7159      7157      7161      7165
      7160      7159      7157      7161      7161      7165      7154      7169
      7161      7165      7167      7168      7162      7161      7163      7164
      7162      7161      7165      7166      7162      7161      7165      7167
      7163      7161      7165      7166      7163      7161      7165      7167
      7164      7163      7161      7165      7165      7154      7169      7170
      7165      7154      7169      7171      7165      7154      7169      7172
      7166      7165      7154      7169      7166      7165      7167      7168
      7167      7165      7154      7169      7170      7169      7172      7173
      7171      7169      7172      7173      7174      7178      7176      7177
      7174      7178      7176      7186      7174      7178      7176      7190
      7174      7179      7181      7182      7174      7179      7183      7184
      7174      7179      7183      7185      7174      7179      7183      7186
      7175      7174      7178      7176      7175      7174      7179      7180
      7175      7174      7179      7181      7175      7174      7179      7183
      7176      7178      7174      7179      7176      7186      7183      7179
      7176      7186      7183      7184      7176      7186      7183      7185
      7176      7186      7188      7189      7176      7190      7193      7194
      7177      7176      7186      7183      7177      7176      7186      7187
      7177      7176      7186      7188      7177      7176      7190      7191
      7177      7176      7190      7192      7177      7176      7190      7193
      7178      7174      7179      7180      7178      7174      7179      7181
      7178      7174      7179      7183      7178      7176      7186      7183
      7178      7176      7186      7187      7178      7176      7186      7188
      7178      7176      7190      7191      7178      7176      7190      7192
      7178      7176      7190      7193      7179      7183      7185      7195
      7179      7183      7186      7187      7179      7183      7186      7188
      7180      7179      7181      7182      7180      7179      7183      7184
      7180      7179      7183      7185      7180      7179      7183      7186
      7181      7179      7183      7184      7181      7179      7183      7185
      7181      7179      7183      7186      7182      7181      7179      7183
      7183      7185      7195      7196      7183      7185      7195      7199
      7183      7185      7195      7200      7183      7186      7176      7190
      7183      7186      7188      7189      7184      7183      7185      7195
      7184      7183      7186      7187      7184      7183      7186      7188
      7185      7183      7186      7187      7185      7183      7186      7188
      7185      7195      7199      7197      7185      7195      7200      7201
      7185      7195      7200      7202      7185      7195      7200      7210
      7186      7176      7190      7191      7186      7176      7190      7192
      7186      7176      7190      7193      7186      7183      7185      7195
      7187      7186      7176      7190      7187      7186      7188      7189
      7188      7186      7176      7190      7191      7190      7193      7194
      7192      7190      7193      7194      7195      7199      7197      7198
      7195      7199      7197      7213      7195      7199      7197      7217
      7195      7200      7202      7203      7195      7200      7202      7204
      7195      7200      7210      7211      7195      7200      7210      7212
      7195      7200      7210      7213      7196      7195      7199      7197
      7196      7195      7200      7201      7196      7195      7200      7202
      7196      7195      7200      7210      7197      7199      7195      7200
      7197      7213      7210      7200      7197      7213      7210      7211
      7197      7213      7210      7212      7197      7213      7215      7216
      7197      7217      7220      7221      7198      7197      7213      7210
      7198      7197      7213      7214      7198      7197      7213      7215
      7198      7197      7217      7218      7198      7197      7217      7219
      7198      7197      7217      7220      7199      7195      7200      7201
      7199      7195      7200      7202      7199      7195      7200      7210
      7199      7197      7213      7210      7199      7197      7213      7214
      7199      7197      7213      7215      7199      7197      7217      7218
      7199      7197      7217      7219      7199      7197      7217      7220
      7200      7202      7204      7205      7200      7202      7204      7206
      7200      7210      7212      7222      7200      7210      7213      7214
      7200      7210      7213      7215      7201      7200      7202      7203
      7201      7200      7202      7204      7201      7200      7210      7211
      7201      7200      7210      7212      7201      7200      7210      7213
      7202      7200      7210      7211      7202      7200      7210      7212
      7202      7200      7210      7213      7202      7204      7206      7207
      7202      7204      7206      7208      7202      7204      7206      7209
      7203      7202      7200      7210      7203      7202      7204      7205
      7203      7202      7204      7206      7204      7202      7200      7210
      7205      7204      7206      7207      7205      7204      7206      7208
      7205      7204      7206      7209      7210      7212      7222      7223
      7210      7212      7222      7226      7210      7212      7222      7227
      7210      7213      7197      7217      7210      7213      7215      7216
      7211      7210      7212      7222      7211      7210      7213      7214
      7211      7210      7213      7215      7212      7210      7213      7214
      7212      7210      7213      7215      7212      7222      7226      7224
      7212      7222      7227      7228      7212      7222      7227      7229
      7212      7222      7227      7230      7213      7197      7217      7218
      7213      7197      7217      7219      7213      7197      7217      7220
      7213      7210      7212      7222      7214      7213      7197      7217
      7214      7213      7215      7216      7215      7213      7197      7217
      7218      7217      7220      7221      7219      7217      7220      7221
      7222      7226      7224      7225      7222      7226      7224      7234
      7222      7226      7224      7238      7222      7227      7229      7243
      7222      7227      7230      7231      7222      7227      7230      7232
      7222      7227      7230      7234      7223      7222      7226      7224
      7223      7222      7227      7228      7223      7222      7227      7229
      7223      7222      7227      7230      7224      7226      7222      7227
      7224      7234      7230      7227      7224      7234      7230      7231
      7224      7234      7230      7232      7224      7234      7236      7237
      7224      7238      7241      7242      7225      7224      7234      7230
      7225      7224      7234      7235      7225      7224      7234      7236
      7225      7224      7238      7239      7225      7224      7238      7240
      7225      7224      7238      7241      7226      7222      7227      7228
      7226      7222      7227      7229      7226      7222      7227      7230
      7226      7224      7234      7230      7226      7224      7234      7235
      7226      7224      7234      7236      7226      7224      7238      7239
      7226      7224      7238      7240      7226      7224      7238      7241
      7227      7229      7243      7244      7227      7229      7243      7247
      7227      7229      7243      7248      7227      7230      7232      7233
      7227      7230      7234      7235      7227      7230      7234      7236
      7228      7227      7229      7243      7228      7227      7230      7231
      7228      7227      7230      7232      7228      7227      7230      7234
      7229      7227      7230      7231      7229      7227      7230      7232
      7229      7227      7230      7234      7229      7243      7247      7245
      7229      7243      7248      7249      7229      7243      7248      7250
      7229      7243      7248      7251      7230      7227      7229      7243
      7230      7234      7224      7238      7230      7234      7236      7237
      7231      7230      7232      7233      7231      7230      7234      7235
      7231      7230      7234      7236      7232      7230      7234      7235
      7232      7230      7234      7236      7233      7232      7230      7234
      7234      7224      7238      7239      7234      7224      7238      7240
      7234      7224      7238      7241      7235      7234      7224      7238
      7235      7234      7236      7237      7236      7234      7224      7238
      7239      7238      7241      7242      7240      7238      7241      7242
      7243      7247      7245      7246      7243      7247      7245      7255
      7243      7247      7245      7259      7243      7248      7250      7263
      7243      7248      7251      7252      7243      7248      7251      7253
      7243      7248      7251      7255      7244      7243      7247      7245
      7244      7243      7248      7249      7244      7243      7248      7250
      7244      7243      7248      7251      7245      7247      7243      7248
      7245      7255      7251      7248      7245      7255      7251      7252
      7245      7255      7251      7253      7245      7255      7257      7258
      7246      7245      7255      7251      7246      7245      7255      7256
      7246      7245      7255      7257      7246      7245      7259      7260
      7246      7245      7259      7261      7246      7245      7259      7262
      7247      7243      7248      7249      7247      7243      7248      7250
      7247      7243      7248      7251      7247      7245      7255      7251
      7247      7245      7255      7256      7247      7245      7255      7257
      7247      7245      7259      7260      7247      7245      7259      7261
      7247      7245      7259      7262      7248      7250      7263      7264
      7248      7250      7263      7267      7248      7250      7263      7268
      7248      7251      7253      7254      7248      7251      7255      7256
      7248      7251      7255      7257      7249      7248      7250      7263
      7249      7248      7251      7252      7249      7248      7251      7253
      7249      7248      7251      7255      7250      7248      7251      7252
      7250      7248      7251      7253      7250      7248      7251      7255
      7250      7263      7267      7265      7250      7263      7268      7269
      7250      7263      7268      7270      7250      7263      7268      7271
      7251      7248      7250      7263      7251      7255      7245      7259
      7251      7255      7257      7258      7252      7251      7253      7254
      7252      7251      7255      7256      7252      7251      7255      7257
      7253      7251      7255      7256      7253      7251      7255      7257
      7254      7253      7251      7255      7255      7245      7259      7260
      7255      7245      7259      7261      7255      7245      7259      7262
      7256      7255      7245      7259      7256      7255      7257      7258
      7257      7255      7245      7259      7263      7267      7265      7266
      7263      7267      7265      7274      7263      7267      7265      7278
      7263      7268      7270      7282      7263      7268      7271      7272
      7263      7268      7271      7273      7263      7268      7271      7274
      7264      7263      7267      7265      7264      7263      7268      7269
      7264      7263      7268      7270      7264      7263      7268      7271
      7265      7267      7263      7268      7265      7274      7271      7268
      7265      7274      7271      7272      7265      7274      7271      7273
      7265      7274      7276      7277      7266      7265      7274      7271
      7266      7265      7274      7275      7266      7265      7274      7276
      7266      7265      7278      7279      7266      7265      7278      7280
      7266      7265      7278      7281      7267      7263      7268      7269
      7267      7263      7268      7270      7267      7263      7268      7271
      7267      7265      7274      7271      7267      7265      7274      7275
      7267      7265      7274      7276      7267      7265      7278      7279
      7267      7265      7278      7280      7267      7265      7278      7281
      7268      7270      7282      7283      7268      7270      7282      7286
      7268      7270      7282      7287      7268      7271      7273      7310
      7268      7271      7274      7275      7268      7271      7274      7276
      7269      7268      7270      7282      7269      7268      7271      7272
      7269      7268      7271      7273      7269      7268      7271      7274
      7270      7268      7271      7272      7270      7268      7271      7273
      7270      7268      7271      7274      7270      7282      7286      7284
      7270      7282      7287      7288      7270      7282      7287      7289
      7270      7282      7287      7297      7271      7268      7270      7282
      7271      7273      7310      7311      7271      7273      7310      7314
      7271      7273      7310      7315      7271      7274      7265      7278
      7271      7274      7276      7277      7272      7271      7273      7310
      7272      7271      7274      7275      7272      7271      7274      7276
      7273      7271      7274      7275      7273      7271      7274      7276
      7273      7310      7314      7312      7273      7310      7315      7316
      7273      7310      7315      7317      7273      7310      7315      7325
      7274      7265      7278      7279      7274      7265      7278      7280
      7274      7265      7278      7281      7274      7271      7273      7310
      7275      7274      7265      7278      7275      7274      7276      7277
      7276      7274      7265      7278      7282      7286      7284      7285
      7282      7286      7284      7301      7282      7286      7284      7305
      7282      7287      7289      7290      7282      7287      7289      7291
      7282      7287      7297      7298      7282      7287      7297      7299
      7282      7287      7297      7301      7283      7282      7286      7284
      7283      7282      7287      7288      7283      7282      7287      7289
      7283      7282      7287      7297      7284      7286      7282      7287
      7284      7301      7297      7287      7284      7301      7297      7298
      7284      7301      7297      7299      7284      7301      7303      7304
      7284      7305      7308      7309      7285      7284      7301      7297
      7285      7284      7301      7302      7285      7284      7301      7303
      7285      7284      7305      7306      7285      7284      7305      7307
      7285      7284      7305      7308      7286      7282      7287      7288
      7286      7282      7287      7289      7286      7282      7287      7297
      7286      7284      7301      7297      7286      7284      7301      7302
      7286      7284      7301      7303      7286      7284      7305      7306
      7286      7284      7305      7307      7286      7284      7305      7308
      7287      7289      7291      7292      7287      7289      7291      7293
      7287      7297      7299      7300      7287      7297      7301      7302
      7287      7297      7301      7303      7288      7287      7289      7290
      7288      7287      7289      7291      7288      7287      7297      7298
      7288      7287      7297      7299      7288      7287      7297      7301
      7289      7287      7297      7298      7289      7287      7297      7299
      7289      7287      7297      7301      7289      7291      7293      7294
      7289      7291      7293      7295      7289      7291      7293      7296
      7290      7289      7287      7297      7290      7289      7291      7292
      7290      7289      7291      7293      7291      7289      7287      7297
      7292      7291      7293      7294      7292      7291      7293      7295
      7292      7291      7293      7296      7297      7301      7284      7305
      7297      7301      7303      7304      7298      7297      7299      7300
      7298      7297      7301      7302      7298      7297      7301      7303
      7299      7297      7301      7302      7299      7297      7301      7303
      7300      7299      7297      7301      7301      7284      7305      7306
      7301      7284      7305      7307      7301      7284      7305      7308
      7302      7301      7284      7305      7302      7301      7303      7304
      7303      7301      7284      7305      7306      7305      7308      7309
      7307      7305      7308      7309      7310      7314      7312      7313
      7310      7314      7312      7328      7310      7314      7312      7332
      7310      7315      7317      7318      7310      7315      7317      7319
      7310      7315      7325      7326      7310      7315      7325      7327
      7310      7315      7325      7328      7311      7310      7314      7312
      7311      7310      7315      7316      7311      7310      7315      7317
      7311      7310      7315      7325      7312      7314      7310      7315
      7312      7328      7325      7315      7312      7328      7325      7326
      7312      7328      7325      7327      7312      7328      7330      7331
      7312      7332      7335      7336      7313      7312      7328      7325
      7313      7312      7328      7329      7313      7312      7328      7330
      7313      7312      7332      7333      7313      7312      7332      7334
      7313      7312      7332      7335      7314      7310      7315      7316
      7314      7310      7315      7317      7314      7310      7315      7325
      7314      7312      7328      7325      7314      7312      7328      7329
      7314      7312      7328      7330      7314      7312      7332      7333
      7314      7312      7332      7334      7314      7312      7332      7335
      7315      7317      7319      7320      7315      7317      7319      7321
      7315      7325      7327      7337      7315      7325      7328      7329
      7315      7325      7328      7330      7316      7315      7317      7318
      7316      7315      7317      7319      7316      7315      7325      7326
      7316      7315      7325      7327      7316      7315      7325      7328
      7317      7315      7325      7326      7317      7315      7325      7327
      7317      7315      7325      7328      7317      7319      7321      7322
      7317      7319      7321      7323      7317      7319      7321      7324
      7318      7317      7315      7325      7318      7317      7319      7320
      7318      7317      7319      7321      7319      7317      7315      7325
      7320      7319      7321      7322      7320      7319      7321      7323
      7320      7319      7321      7324      7325      7327      7337      7338
      7325      7327      7337      7341      7325      7327      7337      7342
      7325      7328      7312      7332      7325      7328      7330      7331
      7326      7325      7327      7337      7326      7325      7328      7329
      7326      7325      7328      7330      7327      7325      7328      7329
      7327      7325      7328      7330      7327      7337      7341      7339
      7327      7337      7342      7343      7327      7337      7342      7344
      7327      7337      7342      7345      7328      7312      7332      7333
      7328      7312      7332      7334      7328      7312      7332      7335
      7328      7325      7327      7337      7329      7328      7312      7332
      7329      7328      7330      7331      7330      7328      7312      7332
      7333      7332      7335      7336      7334      7332      7335      7336
      7337      7341      7339      7340      7337      7341      7339      7349
      7337      7341      7339      7353      7337      7342      7344      7358
      7337      7342      7345      7346      7337      7342      7345      7347
      7337      7342      7345      7349      7338      7337      7341      7339
      7338      7337      7342      7343      7338      7337      7342      7344
      7338      7337      7342      7345      7339      7341      7337      7342
      7339      7349      7345      7342      7339      7349      7345      7346
      7339      7349      7345      7347      7339      7349      7351      7352
      7339      7353      7356      7357      7340      7339      7349      7345
      7340      7339      7349      7350      7340      7339      7349      7351
      7340      7339      7353      7354      7340      7339      7353      7355
      7340      7339      7353      7356      7341      7337      7342      7343
      7341      7337      7342      7344      7341      7337      7342      7345
      7341      7339      7349      7345      7341      7339      7349      7350
      7341      7339      7349      7351      7341      7339      7353      7354
      7341      7339      7353      7355      7341      7339      7353      7356
      7342      7344      7358      7359      7342      7344      7358      7362
      7342      7344      7358      7363      7342      7345      7347      7348
      7342      7345      7349      7350      7342      7345      7349      7351
      7343      7342      7344      7358      7343      7342      7345      7346
      7343      7342      7345      7347      7343      7342      7345      7349
      7344      7342      7345      7346      7344      7342      7345      7347
      7344      7342      7345      7349      7344      7358      7362      7360
      7344      7358      7363      7364      7344      7358      7363      7365
      7344      7358      7363      7366      7345      7342      7344      7358
      7345      7349      7339      7353      7345      7349      7351      7352
      7346      7345      7347      7348      7346      7345      7349      7350
      7346      7345      7349      7351      7347      7345      7349      7350
      7347      7345      7349      7351      7348      7347      7345      7349
      7349      7339      7353      7354      7349      7339      7353      7355
      7349      7339      7353      7356      7350      7349      7339      7353
      7350      7349      7351      7352      7351      7349      7339      7353
      7354      7353      7356      7357      7355      7353      7356      7357
      7358      7362      7360      7361      7358      7362      7360      7370
      7358      7362      7360      7374      7358      7363      7365      7378
      7358      7363      7366      7367      7358      7363      7366      7368
      7358      7363      7366      7370      7359      7358      7362      7360
      7359      7358      7363      7364      7359      7358      7363      7365
      7359      7358      7363      7366      7360      7362      7358      7363
      7360      7370      7366      7363      7360      7370      7366      7367
      7360      7370      7366      7368      7360      7370      7372      7373
      7361      7360      7370      7366      7361      7360      7370      7371
      7361      7360      7370      7372      7361      7360      7374      7375
      7361      7360      7374      7376      7361      7360      7374      7377
      7362      7358      7363      7364      7362      7358      7363      7365
      7362      7358      7363      7366      7362      7360      7370      7366
      7362      7360      7370      7371      7362      7360      7370      7372
      7362      7360      7374      7375      7362      7360      7374      7376
      7362      7360      7374      7377      7363      7365      7378      7379
      7363      7365      7378      7382      7363      7365      7378      7383
      7363      7366      7368      7369      7363      7366      7370      7371
      7363      7366      7370      7372      7364      7363      7365      7378
      7364      7363      7366      7367      7364      7363      7366      7368
      7364      7363      7366      7370      7365      7363      7366      7367
      7365      7363      7366      7368      7365      7363      7366      7370
      7365      7378      7382      7380      7365      7378      7383      7384
      7365      7378      7383      7385      7365      7378      7383      7386
      7366      7363      7365      7378      7366      7370      7360      7374
      7366      7370      7372      7373      7367      7366      7368      7369
      7367      7366      7370      7371      7367      7366      7370      7372
      7368      7366      7370      7371      7368      7366      7370      7372
      7369      7368      7366      7370      7370      7360      7374      7375
      7370      7360      7374      7376      7370      7360      7374      7377
      7371      7370      7360      7374      7371      7370      7372      7373
      7372      7370      7360      7374      7378      7382      7380      7381
      7378      7382      7380      7389      7378      7382      7380      7393
      7378      7383      7385      7397      7378      7383      7386      7387
      7378      7383      7386      7388      7378      7383      7386      7389
      7379      7378      7382      7380      7379      7378      7383      7384
      7379      7378      7383      7385      7379      7378      7383      7386
      7380      7382      7378      7383      7380      7389      7386      7383
      7380      7389      7386      7387      7380      7389      7386      7388
      7380      7389      7391      7392      7381      7380      7389      7386
      7381      7380      7389      7390      7381      7380      7389      7391
      7381      7380      7393      7394      7381      7380      7393      7395
      7381      7380      7393      7396      7382      7378      7383      7384
      7382      7378      7383      7385      7382      7378      7383      7386
      7382      7380      7389      7386      7382      7380      7389      7390
      7382      7380      7389      7391      7382      7380      7393      7394
      7382      7380      7393      7395      7382      7380      7393      7396
      7383      7385      7397      7398      7383      7385      7397      7401
      7383      7385      7397      7402      7383      7386      7388      7425
      7383      7386      7389      7390      7383      7386      7389      7391
      7384      7383      7385      7397      7384      7383      7386      7387
      7384      7383      7386      7388      7384      7383      7386      7389
      7385      7383      7386      7387      7385      7383      7386      7388
      7385      7383      7386      7389      7385      7397      7401      7399
      7385      7397      7402      7403      7385      7397      7402      7404
      7385      7397      7402      7412      7386      7383      7385      7397
      7386      7388      7425      7426      7386      7388      7425      7429
      7386      7388      7425      7430      7386      7389      7380      7393
      7386      7389      7391      7392      7387      7386      7388      7425
      7387      7386      7389      7390      7387      7386      7389      7391
      7388      7386      7389      7390      7388      7386      7389      7391
      7388      7425      7429      7427      7388      7425      7430      7431
      7388      7425      7430      7432      7388      7425      7430      7440
      7389      7380      7393      7394      7389      7380      7393      7395
      7389      7380      7393      7396      7389      7386      7388      7425
      7390      7389      7380      7393      7390      7389      7391      7392
      7391      7389      7380      7393      7397      7401      7399      7400
      7397      7401      7399      7416      7397      7401      7399      7420
      7397      7402      7404      7405      7397      7402      7404      7406
      7397      7402      7412      7413      7397      7402      7412      7414
      7397      7402      7412      7416      7398      7397      7401      7399
      7398      7397      7402      7403      7398      7397      7402      7404
      7398      7397      7402      7412      7399      7401      7397      7402
      7399      7416      7412      7402      7399      7416      7412      7413
      7399      7416      7412      7414      7399      7416      7418      7419
      7399      7420      7423      7424      7400      7399      7416      7412
      7400      7399      7416      7417      7400      7399      7416      7418
      7400      7399      7420      7421      7400      7399      7420      7422
      7400      7399      7420      7423      7401      7397      7402      7403
      7401      7397      7402      7404      7401      7397      7402      7412
      7401      7399      7416      7412      7401      7399      7416      7417
      7401      7399      7416      7418      7401      7399      7420      7421
      7401      7399      7420      7422      7401      7399      7420      7423
      7402      7404      7406      7407      7402      7404      7406      7408
      7402      7412      7414      7415      7402      7412      7416      7417
      7402      7412      7416      7418      7403      7402      7404      7405
      7403      7402      7404      7406      7403      7402      7412      7413
      7403      7402      7412      7414      7403      7402      7412      7416
      7404      7402      7412      7413      7404      7402      7412      7414
      7404      7402      7412      7416      7404      7406      7408      7409
      7404      7406      7408      7410      7404      7406      7408      7411
      7405      7404      7402      7412      7405      7404      7406      7407
      7405      7404      7406      7408      7406      7404      7402      7412
      7407      7406      7408      7409      7407      7406      7408      7410
      7407      7406      7408      7411      7412      7416      7399      7420
      7412      7416      7418      7419      7413      7412      7414      7415
      7413      7412      7416      7417      7413      7412      7416      7418
      7414      7412      7416      7417      7414      7412      7416      7418
      7415      7414      7412      7416      7416      7399      7420      7421
      7416      7399      7420      7422      7416      7399      7420      7423
      7417      7416      7399      7420      7417      7416      7418      7419
      7418      7416      7399      7420      7421      7420      7423      7424
      7422      7420      7423      7424      7425      7429      7427      7428
      7425      7429      7427      7443      7425      7429      7427      7447
      7425      7430      7432      7433      7425      7430      7432      7434
      7425      7430      7440      7441      7425      7430      7440      7442
      7425      7430      7440      7443      7426      7425      7429      7427
      7426      7425      7430      7431      7426      7425      7430      7432
      7426      7425      7430      7440      7427      7429      7425      7430
      7427      7443      7440      7430      7427      7443      7440      7441
      7427      7443      7440      7442      7427      7443      7445      7446
      7427      7447      7450      7451      7428      7427      7443      7440
      7428      7427      7443      7444      7428      7427      7443      7445
      7428      7427      7447      7448      7428      7427      7447      7449
      7428      7427      7447      7450      7429      7425      7430      7431
      7429      7425      7430      7432      7429      7425      7430      7440
      7429      7427      7443      7440      7429      7427      7443      7444
      7429      7427      7443      7445      7429      7427      7447      7448
      7429      7427      7447      7449      7429      7427      7447      7450
      7430      7432      7434      7435      7430      7432      7434      7436
      7430      7440      7442      7452      7430      7440      7443      7444
      7430      7440      7443      7445      7431      7430      7432      7433
      7431      7430      7432      7434      7431      7430      7440      7441
      7431      7430      7440      7442      7431      7430      7440      7443
      7432      7430      7440      7441      7432      7430      7440      7442
      7432      7430      7440      7443      7432      7434      7436      7437
      7432      7434      7436      7438      7432      7434      7436      7439
      7433      7432      7430      7440      7433      7432      7434      7435
      7433      7432      7434      7436      7434      7432      7430      7440
      7435      7434      7436      7437      7435      7434      7436      7438
      7435      7434      7436      7439      7440      7442      7452      7453
      7440      7442      7452      7456      7440      7442      7452      7457
      7440      7443      7427      7447      7440      7443      7445      7446
      7441      7440      7442      7452      7441      7440      7443      7444
      7441      7440      7443      7445      7442      7440      7443      7444
      7442      7440      7443      7445      7442      7452      7456      7454
      7442      7452      7457      7458      7442      7452      7457      7459
      7442      7452      7457      7460      7443      7427      7447      7448
      7443      7427      7447      7449      7443      7427      7447      7450
      7443      7440      7442      7452      7444      7443      7427      7447
      7444      7443      7445      7446      7445      7443      7427      7447
      7448      7447      7450      7451      7449      7447      7450      7451
      7452      7456      7454      7455      7452      7456      7454      7464
      7452      7456      7454      7468      7452      7457      7459      7473
      7452      7457      7460      7461      7452      7457      7460      7462
      7452      7457      7460      7464      7453      7452      7456      7454
      7453      7452      7457      7458      7453      7452      7457      7459
      7453      7452      7457      7460      7454      7456      7452      7457
      7454      7464      7460      7457      7454      7464      7460      7461
      7454      7464      7460      7462      7454      7464      7466      7467
      7454      7468      7471      7472      7455      7454      7464      7460
      7455      7454      7464      7465      7455      7454      7464      7466
      7455      7454      7468      7469      7455      7454      7468      7470
      7455      7454      7468      7471      7456      7452      7457      7458
      7456      7452      7457      7459      7456      7452      7457      7460
      7456      7454      7464      7460      7456      7454      7464      7465
      7456      7454      7464      7466      7456      7454      7468      7469
      7456      7454      7468      7470      7456      7454      7468      7471
      7457      7459      7473      7474      7457      7459      7473      7477
      7457      7459      7473      7478      7457      7460      7462      7463
      7457      7460      7464      7465      7457      7460      7464      7466
      7458      7457      7459      7473      7458      7457      7460      7461
      7458      7457      7460      7462      7458      7457      7460      7464
      7459      7457      7460      7461      7459      7457      7460      7462
      7459      7457      7460      7464      7459      7473      7477      7475
      7459      7473      7478      7479      7459      7473      7478      7480
      7459      7473      7478      7481      7460      7457      7459      7473
      7460      7464      7454      7468      7460      7464      7466      7467
      7461      7460      7462      7463      7461      7460      7464      7465
      7461      7460      7464      7466      7462      7460      7464      7465
      7462      7460      7464      7466      7463      7462      7460      7464
      7464      7454      7468      7469      7464      7454      7468      7470
      7464      7454      7468      7471      7465      7464      7454      7468
      7465      7464      7466      7467      7466      7464      7454      7468
      7469      7468      7471      7472      7470      7468      7471      7472
      7473      7477      7475      7476      7473      7477      7475      7485
      7473      7477      7475      7489      7473      7478      7480      7493
      7473      7478      7481      7482      7473      7478      7481      7483
      7473      7478      7481      7485      7474      7473      7477      7475
      7474      7473      7478      7479      7474      7473      7478      7480
      7474      7473      7478      7481      7475      7477      7473      7478
      7475      7485      7481      7478      7475      7485      7481      7482
      7475      7485      7481      7483      7475      7485      7487      7488
      7476      7475      7485      7481      7476      7475      7485      7486
      7476      7475      7485      7487      7476      7475      7489      7490
      7476      7475      7489      7491      7476      7475      7489      7492
      7477      7473      7478      7479      7477      7473      7478      7480
      7477      7473      7478      7481      7477      7475      7485      7481
      7477      7475      7485      7486      7477      7475      7485      7487
      7477      7475      7489      7490      7477      7475      7489      7491
      7477      7475      7489      7492      7478      7480      7493      7494
      7478      7480      7493      7497      7478      7480      7493      7498
      7478      7481      7483      7484      7478      7481      7485      7486
      7478      7481      7485      7487      7479      7478      7480      7493
      7479      7478      7481      7482      7479      7478      7481      7483
      7479      7478      7481      7485      7480      7478      7481      7482
      7480      7478      7481      7483      7480      7478      7481      7485
      7480      7493      7497      7495      7480      7493      7498      7499
      7480      7493      7498      7500      7480      7493      7498      7501
      7481      7478      7480      7493      7481      7485      7475      7489
      7481      7485      7487      7488      7482      7481      7483      7484
      7482      7481      7485      7486      7482      7481      7485      7487
      7483      7481      7485      7486      7483      7481      7485      7487
      7484      7483      7481      7485      7485      7475      7489      7490
      7485      7475      7489      7491      7485      7475      7489      7492
      7486      7485      7475      7489      7486      7485      7487      7488
      7487      7485      7475      7489      7493      7497      7495      7496
      7493      7497      7495      7504      7493      7497      7495      7508
      7493      7498      7500      7512      7493      7498      7501      7502
      7493      7498      7501      7503      7493      7498      7501      7504
      7494      7493      7497      7495      7494      7493      7498      7499
      7494      7493      7498      7500      7494      7493      7498      7501
      7495      7497      7493      7498      7495      7504      7501      7498
      7495      7504      7501      7502      7495      7504      7501      7503
      7495      7504      7506      7507      7496      7495      7504      7501
      7496      7495      7504      7505      7496      7495      7504      7506
      7496      7495      7508      7509      7496      7495      7508      7510
      7496      7495      7508      7511      7497      7493      7498      7499
      7497      7493      7498      7500      7497      7493      7498      7501
      7497      7495      7504      7501      7497      7495      7504      7505
      7497      7495      7504      7506      7497      7495      7508      7509
      7497      7495      7508      7510      7497      7495      7508      7511
      7498      7500      7512      7513      7498      7500      7512      7516
      7498      7500      7512      7517      7498      7501      7503      7540
      7498      7501      7504      7505      7498      7501      7504      7506
      7499      7498      7500      7512      7499      7498      7501      7502
      7499      7498      7501      7503      7499      7498      7501      7504
      7500      7498      7501      7502      7500      7498      7501      7503
      7500      7498      7501      7504      7500      7512      7516      7514
      7500      7512      7517      7518      7500      7512      7517      7519
      7500      7512      7517      7527      7501      7498      7500      7512
      7501      7503      7540      7541      7501      7503      7540      7544
      7501      7503      7540      7545      7501      7504      7495      7508
      7501      7504      7506      7507      7502      7501      7503      7540
      7502      7501      7504      7505      7502      7501      7504      7506
      7503      7501      7504      7505      7503      7501      7504      7506
      7503      7540      7544      7542      7503      7540      7545      7546
      7503      7540      7545      7547      7503      7540      7545      7555
      7504      7495      7508      7509      7504      7495      7508      7510
      7504      7495      7508      7511      7504      7501      7503      7540
      7505      7504      7495      7508      7505      7504      7506      7507
      7506      7504      7495      7508      7512      7516      7514      7515
      7512      7516      7514      7531      7512      7516      7514      7535
      7512      7517      7519      7520      7512      7517      7519      7521
      7512      7517      7527      7528      7512      7517      7527      7529
      7512      7517      7527      7531      7513      7512      7516      7514
      7513      7512      7517      7518      7513      7512      7517      7519
      7513      7512      7517      7527      7514      7516      7512      7517
      7514      7531      7527      7517      7514      7531      7527      7528
      7514      7531      7527      7529      7514      7531      7533      7534
      7514      7535      7538      7539      7515      7514      7531      7527
      7515      7514      7531      7532      7515      7514      7531      7533
      7515      7514      7535      7536      7515      7514      7535      7537
      7515      7514      7535      7538      7516      7512      7517      7518
      7516      7512      7517      7519      7516      7512      7517      7527
      7516      7514      7531      7527      7516      7514      7531      7532
      7516      7514      7531      7533      7516      7514      7535      7536
      7516      7514      7535      7537      7516      7514      7535      7538
      7517      7519      7521      7522      7517      7519      7521      7523
      7517      7527      7529      7530      7517      7527      7531      7532
      7517      7527      7531      7533      7518      7517      7519      7520
      7518      7517      7519      7521      7518      7517      7527      7528
      7518      7517      7527      7529      7518      7517      7527      7531
      7519      7517      7527      7528      7519      7517      7527      7529
      7519      7517      7527      7531      7519      7521      7523      7524
      7519      7521      7523      7525      7519      7521      7523      7526
      7520      7519      7517      7527      7520      7519      7521      7522
      7520      7519      7521      7523      7521      7519      7517      7527
      7522      7521      7523      7524      7522      7521      7523      7525
      7522      7521      7523      7526      7527      7531      7514      7535
      7527      7531      7533      7534      7528      7527      7529      7530
      7528      7527      7531      7532      7528      7527      7531      7533
      7529      7527      7531      7532      7529      7527      7531      7533
      7530      7529      7527      7531      7531      7514      7535      7536
      7531      7514      7535      7537      7531      7514      7535      7538
      7532      7531      7514      7535      7532      7531      7533      7534
      7533      7531      7514      7535      7536      7535      7538      7539
      7537      7535      7538      7539      7540      7544      7542      7543
      7540      7544      7542      7558      7540      7544      7542      7562
      7540      7545      7547      7548      7540      7545      7547      7549
      7540      7545      7555      7556      7540      7545      7555      7557
      7540      7545      7555      7558      7541      7540      7544      7542
      7541      7540      7545      7546      7541      7540      7545      7547
      7541      7540      7545      7555      7542      7544      7540      7545
      7542      7558      7555      7545      7542      7558      7555      7556
      7542      7558      7555      7557      7542      7558      7560      7561
      7542      7562      7565      7566      7543      7542      7558      7555
      7543      7542      7558      7559      7543      7542      7558      7560
      7543      7542      7562      7563      7543      7542      7562      7564
      7543      7542      7562      7565      7544      7540      7545      7546
      7544      7540      7545      7547      7544      7540      7545      7555
      7544      7542      7558      7555      7544      7542      7558      7559
      7544      7542      7558      7560      7544      7542      7562      7563
      7544      7542      7562      7564      7544      7542      7562      7565
      7545      7547      7549      7550      7545      7547      7549      7551
      7545      7555      7557      7567      7545      7555      7558      7559
      7545      7555      7558      7560      7546      7545      7547      7548
      7546      7545      7547      7549      7546      7545      7555      7556
      7546      7545      7555      7557      7546      7545      7555      7558
      7547      7545      7555      7556      7547      7545      7555      7557
      7547      7545      7555      7558      7547      7549      7551      7552
      7547      7549      7551      7553      7547      7549      7551      7554
      7548      7547      7545      7555      7548      7547      7549      7550
      7548      7547      7549      7551      7549      7547      7545      7555
      7550      7549      7551      7552      7550      7549      7551      7553
      7550      7549      7551      7554      7555      7557      7567      7568
      7555      7557      7567      7571      7555      7557      7567      7572
      7555      7558      7542      7562      7555      7558      7560      7561
      7556      7555      7557      7567      7556      7555      7558      7559
      7556      7555      7558      7560      7557      7555      7558      7559
      7557      7555      7558      7560      7557      7567      7571      7569
      7557      7567      7572      7573      7557      7567      7572      7574
      7557      7567      7572      7575      7558      7542      7562      7563
      7558      7542      7562      7564      7558      7542      7562      7565
      7558      7555      7557      7567      7559      7558      7542      7562
      7559      7558      7560      7561      7560      7558      7542      7562
      7563      7562      7565      7566      7564      7562      7565      7566
      7567      7571      7569      7570      7567      7571      7569      7579
      7567      7571      7569      7583      7567      7572      7574      7588
      7567      7572      7575      7576      7567      7572      7575      7577
      7567      7572      7575      7579      7568      7567      7571      7569
      7568      7567      7572      7573      7568      7567      7572      7574
      7568      7567      7572      7575      7569      7571      7567      7572
      7569      7579      7575      7572      7569      7579      7575      7576
      7569      7579      7575      7577      7569      7579      7581      7582
      7569      7583      7586      7587      7570      7569      7579      7575
      7570      7569      7579      7580      7570      7569      7579      7581
      7570      7569      7583      7584      7570      7569      7583      7585
      7570      7569      7583      7586      7571      7567      7572      7573
      7571      7567      7572      7574      7571      7567      7572      7575
      7571      7569      7579      7575      7571      7569      7579      7580
      7571      7569      7579      7581      7571      7569      7583      7584
      7571      7569      7583      7585      7571      7569      7583      7586
      7572      7574      7588      7589      7572      7574      7588      7592
      7572      7574      7588      7593      7572      7575      7577      7578
      7572      7575      7579      7580      7572      7575      7579      7581
      7573      7572      7574      7588      7573      7572      7575      7576
      7573      7572      7575      7577      7573      7572      7575      7579
      7574      7572      7575      7576      7574      7572      7575      7577
      7574      7572      7575      7579      7574      7588      7592      7590
      7574      7588      7593      7594      7574      7588      7593      7595
      7574      7588      7593      7596      7575      7572      7574      7588
      7575      7579      7569      7583      7575      7579      7581      7582
      7576      7575      7577      7578      7576      7575      7579      7580
      7576      7575      7579      7581      7577      7575      7579      7580
      7577      7575      7579      7581      7578      7577      7575      7579
      7579      7569      7583      7584      7579      7569      7583      7585
      7579      7569      7583      7586      7580      7579      7569      7583
      7580      7579      7581      7582      7581      7579      7569      7583
      7584      7583      7586      7587      7585      7583      7586      7587
      7588      7592      7590      7591      7588      7592      7590      7600
      7588      7592      7590      7604      7588      7593      7595      7608
      7588      7593      7596      7597      7588      7593      7596      7598
      7588      7593      7596      7600      7589      7588      7592      7590
      7589      7588      7593      7594      7589      7588      7593      7595
      7589      7588      7593      7596      7590      7592      7588      7593
      7590      7600      7596      7593      7590      7600      7596      7597
      7590      7600      7596      7598      7590      7600      7602      7603
      7591      7590      7600      7596      7591      7590      7600      7601
      7591      7590      7600      7602      7591      7590      7604      7605
      7591      7590      7604      7606      7591      7590      7604      7607
      7592      7588      7593      7594      7592      7588      7593      7595
      7592      7588      7593      7596      7592      7590      7600      7596
      7592      7590      7600      7601      7592      7590      7600      7602
      7592      7590      7604      7605      7592      7590      7604      7606
      7592      7590      7604      7607      7593      7595      7608      7609
      7593      7595      7608      7612      7593      7595      7608      7613
      7593      7596      7598      7599      7593      7596      7600      7601
      7593      7596      7600      7602      7594      7593      7595      7608
      7594      7593      7596      7597      7594      7593      7596      7598
      7594      7593      7596      7600      7595      7593      7596      7597
      7595      7593      7596      7598      7595      7593      7596      7600
      7595      7608      7612      7610      7595      7608      7613      7614
      7595      7608      7613      7615      7595      7608      7613      7616
      7596      7593      7595      7608      7596      7600      7590      7604
      7596      7600      7602      7603      7597      7596      7598      7599
      7597      7596      7600      7601      7597      7596      7600      7602
      7598      7596      7600      7601      7598      7596      7600      7602
      7599      7598      7596      7600      7600      7590      7604      7605
      7600      7590      7604      7606      7600      7590      7604      7607
      7601      7600      7590      7604      7601      7600      7602      7603
      7602      7600      7590      7604      7608      7612      7610      7611
      7608      7612      7610      7619      7608      7612      7610      7623
      7608      7613      7615      7627      7608      7613      7616      7617
      7608      7613      7616      7618      7608      7613      7616      7619
      7609      7608      7612      7610      7609      7608      7613      7614
      7609      7608      7613      7615      7609      7608      7613      7616
      7610      7612      7608      7613      7610      7619      7616      7613
      7610      7619      7616      7617      7610      7619      7616      7618
      7610      7619      7621      7622      7611      7610      7619      7616
      7611      7610      7619      7620      7611      7610      7619      7621
      7611      7610      7623      7624      7611      7610      7623      7625
      7611      7610      7623      7626      7612      7608      7613      7614
      7612      7608      7613      7615      7612      7608      7613      7616
      7612      7610      7619      7616      7612      7610      7619      7620
      7612      7610      7619      7621      7612      7610      7623      7624
      7612      7610      7623      7625      7612      7610      7623      7626
      7613      7615      7627      7628      7613      7615      7627      7631
      7613      7615      7627      7632      7613      7616      7618      7655
      7613      7616      7619      7620      7613      7616      7619      7621
      7614      7613      7615      7627      7614      7613      7616      7617
      7614      7613      7616      7618      7614      7613      7616      7619
      7615      7613      7616      7617      7615      7613      7616      7618
      7615      7613      7616      7619      7615      7627      7631      7629
      7615      7627      7632      7633      7615      7627      7632      7634
      7615      7627      7632      7642      7616      7613      7615      7627
      7616      7618      7655      7656      7616      7618      7655      7659
      7616      7618      7655      7660      7616      7619      7610      7623
      7616      7619      7621      7622      7617      7616      7618      7655
      7617      7616      7619      7620      7617      7616      7619      7621
      7618      7616      7619      7620      7618      7616      7619      7621
      7618      7655      7659      7657      7618      7655      7660      7661
      7618      7655      7660      7662      7618      7655      7660      7670
      7619      7610      7623      7624      7619      7610      7623      7625
      7619      7610      7623      7626      7619      7616      7618      7655
      7620      7619      7610      7623      7620      7619      7621      7622
      7621      7619      7610      7623      7627      7631      7629      7630
      7627      7631      7629      7646      7627      7631      7629      7650
      7627      7632      7634      7635      7627      7632      7634      7636
      7627      7632      7642      7643      7627      7632      7642      7644
      7627      7632      7642      7646      7628      7627      7631      7629
      7628      7627      7632      7633      7628      7627      7632      7634
      7628      7627      7632      7642      7629      7631      7627      7632
      7629      7646      7642      7632      7629      7646      7642      7643
      7629      7646      7642      7644      7629      7646      7648      7649
      7629      7650      7653      7654      7630      7629      7646      7642
      7630      7629      7646      7647      7630      7629      7646      7648
      7630      7629      7650      7651      7630      7629      7650      7652
      7630      7629      7650      7653      7631      7627      7632      7633
      7631      7627      7632      7634      7631      7627      7632      7642
      7631      7629      7646      7642      7631      7629      7646      7647
      7631      7629      7646      7648      7631      7629      7650      7651
      7631      7629      7650      7652      7631      7629      7650      7653
      7632      7634      7636      7637      7632      7634      7636      7638
      7632      7642      7644      7645      7632      7642      7646      7647
      7632      7642      7646      7648      7633      7632      7634      7635
      7633      7632      7634      7636      7633      7632      7642      7643
      7633      7632      7642      7644      7633      7632      7642      7646
      7634      7632      7642      7643      7634      7632      7642      7644
      7634      7632      7642      7646      7634      7636      7638      7639
      7634      7636      7638      7640      7634      7636      7638      7641
      7635      7634      7632      7642      7635      7634      7636      7637
      7635      7634      7636      7638      7636      7634      7632      7642
      7637      7636      7638      7639      7637      7636      7638      7640
      7637      7636      7638      7641      7642      7646      7629      7650
      7642      7646      7648      7649      7643      7642      7644      7645
      7643      7642      7646      7647      7643      7642      7646      7648
      7644      7642      7646      7647      7644      7642      7646      7648
      7645      7644      7642      7646      7646      7629      7650      7651
      7646      7629      7650      7652      7646      7629      7650      7653
      7647      7646      7629      7650      7647      7646      7648      7649
      7648      7646      7629      7650      7651      7650      7653      7654
      7652      7650      7653      7654      7655      7659      7657      7658
      7655      7659      7657      7673      7655      7659      7657      7677
      7655      7660      7662      7663      7655      7660      7662      7664
      7655      7660      7670      7671      7655      7660      7670      7672
      7655      7660      7670      7673      7656      7655      7659      7657
      7656      7655      7660      7661      7656      7655      7660      7662
      7656      7655      7660      7670      7657      7659      7655      7660
      7657      7673      7670      7660      7657      7673      7670      7671
      7657      7673      7670      7672      7657      7673      7675      7676
      7657      7677      7680      7681      7658      7657      7673      7670
      7658      7657      7673      7674      7658      7657      7673      7675
      7658      7657      7677      7678      7658      7657      7677      7679
      7658      7657      7677      7680      7659      7655      7660      7661
      7659      7655      7660      7662      7659      7655      7660      7670
      7659      7657      7673      7670      7659      7657      7673      7674
      7659      7657      7673      7675      7659      7657      7677      7678
      7659      7657      7677      7679      7659      7657      7677      7680
      7660      7662      7664      7665      7660      7662      7664      7666
      7660      7670      7672      7682      7660      7670      7673      7674
      7660      7670      7673      7675      7661      7660      7662      7663
      7661      7660      7662      7664      7661      7660      7670      7671
      7661      7660      7670      7672      7661      7660      7670      7673
      7662      7660      7670      7671      7662      7660      7670      7672
      7662      7660      7670      7673      7662      7664      7666      7667
      7662      7664      7666      7668      7662      7664      7666      7669
      7663      7662      7660      7670      7663      7662      7664      7665
      7663      7662      7664      7666      7664      7662      7660      7670
      7665      7664      7666      7667      7665      7664      7666      7668
      7665      7664      7666      7669      7670      7672      7682      7683
      7670      7672      7682      7686      7670      7672      7682      7687
      7670      7673      7657      7677      7670      7673      7675      7676
      7671      7670      7672      7682      7671      7670      7673      7674
      7671      7670      7673      7675      7672      7670      7673      7674
      7672      7670      7673      7675      7672      7682      7686      7684
      7672      7682      7687      7688      7672      7682      7687      7689
      7672      7682      7687      7690      7673      7657      7677      7678
      7673      7657      7677      7679      7673      7657      7677      7680
      7673      7670      7672      7682      7674      7673      7657      7677
      7674      7673      7675      7676      7675      7673      7657      7677
      7678      7677      7680      7681      7679      7677      7680      7681
      7682      7686      7684      7685      7682      7686      7684      7694
      7682      7686      7684      7698      7682      7687      7689      7703
      7682      7687      7690      7691      7682      7687      7690      7692
      7682      7687      7690      7694      7683      7682      7686      7684
      7683      7682      7687      7688      7683      7682      7687      7689
      7683      7682      7687      7690      7684      7686      7682      7687
      7684      7694      7690      7687      7684      7694      7690      7691
      7684      7694      7690      7692      7684      7694      7696      7697
      7684      7698      7701      7702      7685      7684      7694      7690
      7685      7684      7694      7695      7685      7684      7694      7696
      7685      7684      7698      7699      7685      7684      7698      7700
      7685      7684      7698      7701      7686      7682      7687      7688
      7686      7682      7687      7689      7686      7682      7687      7690
      7686      7684      7694      7690      7686      7684      7694      7695
      7686      7684      7694      7696      7686      7684      7698      7699
      7686      7684      7698      7700      7686      7684      7698      7701
      7687      7689      7703      7704      7687      7689      7703      7707
      7687      7689      7703      7708      7687      7690      7692      7693
      7687      7690      7694      7695      7687      7690      7694      7696
      7688      7687      7689      7703      7688      7687      7690      7691
      7688      7687      7690      7692      7688      7687      7690      7694
      7689      7687      7690      7691      7689      7687      7690      7692
      7689      7687      7690      7694      7689      7703      7707      7705
      7689      7703      7708      7709      7689      7703      7708      7710
      7689      7703      7708      7711      7690      7687      7689      7703
      7690      7694      7684      7698      7690      7694      7696      7697
      7691      7690      7692      7693      7691      7690      7694      7695
      7691      7690      7694      7696      7692      7690      7694      7695
      7692      7690      7694      7696      7693      7692      7690      7694
      7694      7684      7698      7699      7694      7684      7698      7700
      7694      7684      7698      7701      7695      7694      7684      7698
      7695      7694      7696      7697      7696      7694      7684      7698
      7699      7698      7701      7702      7700      7698      7701      7702
      7703      7707      7705      7706      7703      7707      7705      7715
      7703      7707      7705      7719      7703      7708      7710      7723
      7703      7708      7711      7712      7703      7708      7711      7713
      7703      7708      7711      7715      7704      7703      7707      7705
      7704      7703      7708      7709      7704      7703      7708      7710
      7704      7703      7708      7711      7705      7707      7703      7708
      7705      7715      7711      7708      7705      7715      7711      7712
      7705      7715      7711      7713      7705      7715      7717      7718
      7706      7705      7715      7711      7706      7705      7715      7716
      7706      7705      7715      7717      7706      7705      7719      7720
      7706      7705      7719      7721      7706      7705      7719      7722
      7707      7703      7708      7709      7707      7703      7708      7710
      7707      7703      7708      7711      7707      7705      7715      7711
      7707      7705      7715      7716      7707      7705      7715      7717
      7707      7705      7719      7720      7707      7705      7719      7721
      7707      7705      7719      7722      7708      7710      7723      7724
      7708      7710      7723      7727      7708      7710      7723      7728
      7708      7711      7713      7714      7708      7711      7715      7716
      7708      7711      7715      7717      7709      7708      7710      7723
      7709      7708      7711      7712      7709      7708      7711      7713
      7709      7708      7711      7715      7710      7708      7711      7712
      7710      7708      7711      7713      7710      7708      7711      7715
      7710      7723      7727      7725      7710      7723      7728      7729
      7710      7723      7728      7730      7710      7723      7728      7731
      7711      7708      7710      7723      7711      7715      7705      7719
      7711      7715      7717      7718      7712      7711      7713      7714
      7712      7711      7715      7716      7712      7711      7715      7717
      7713      7711      7715      7716      7713      7711      7715      7717
      7714      7713      7711      7715      7715      7705      7719      7720
      7715      7705      7719      7721      7715      7705      7719      7722
      7716      7715      7705      7719      7716      7715      7717      7718
      7717      7715      7705      7719      7723      7727      7725      7726
      7723      7727      7725      7735      7723      7727      7725      7739
      7723      7728      7730      7743      7723      7728      7731      7732
      7723      7728      7731      7733      7723      7728      7731      7735
      7724      7723      7727      7725      7724      7723      7728      7729
      7724      7723      7728      7730      7724      7723      7728      7731
      7725      7727      7723      7728      7725      7735      7731      7728
      7725      7735      7731      7732      7725      7735      7731      7733
      7725      7735      7737      7738      7726      7725      7735      7731
      7726      7725      7735      7736      7726      7725      7735      7737
      7726      7725      7739      7740      7726      7725      7739      7741
      7726      7725      7739      7742      7727      7723      7728      7729
      7727      7723      7728      7730      7727      7723      7728      7731
      7727      7725      7735      7731      7727      7725      7735      7736
      7727      7725      7735      7737      7727      7725      7739      7740
      7727      7725      7739      7741      7727      7725      7739      7742
      7728      7730      7743      7744      7728      7730      7743      7747
      7728      7730      7743      7748      7728      7731      7733      7734
      7728      7731      7735      7736      7728      7731      7735      7737
      7729      7728      7730      7743      7729      7728      7731      7732
      7729      7728      7731      7733      7729      7728      7731      7735
      7730      7728      7731      7732      7730      7728      7731      7733
      7730      7728      7731      7735      7730      7743      7747      7745
      7730      7743      7748      7749      7730      7743      7748      7750
      7730      7743      7748      7758      7731      7728      7730      7743
      7731      7735      7725      7739      7731      7735      7737      7738
      7732      7731      7733      7734      7732      7731      7735      7736
      7732      7731      7735      7737      7733      7731      7735      7736
      7733      7731      7735      7737      7734      7733      7731      7735
      7735      7725      7739      7740      7735      7725      7739      7741
      7735      7725      7739      7742      7736      7735      7725      7739
      7736      7735      7737      7738      7737      7735      7725      7739
      7743      7747      7745      7746      7743      7747      7745      7762
      7743      7747      7745      7766      7743      7748      7750      7751
      7743      7748      7750      7752      7743      7748      7758      7759
      7743      7748      7758      7760      7743      7748      7758      7762
      7744      7743      7747      7745      7744      7743      7748      7749
      7744      7743      7748      7750      7744      7743      7748      7758
      7745      7747      7743      7748      7745      7762      7758      7748
      7745      7762      7758      7759      7745      7762      7758      7760
      7745      7762      7764      7765      7745      7766      7769      7770
      7746      7745      7762      7758      7746      7745      7762      7763
      7746      7745      7762      7764      7746      7745      7766      7767
      7746      7745      7766      7768      7746      7745      7766      7769
      7747      7743      7748      7749      7747      7743      7748      7750
      7747      7743      7748      7758      7747      7745      7762      7758
      7747      7745      7762      7763      7747      7745      7762      7764
      7747      7745      7766      7767      7747      7745      7766      7768
      7747      7745      7766      7769      7748      7750      7752      7753
      7748      7750      7752      7754      7748      7758      7760      7761
      7748      7758      7762      7763      7748      7758      7762      7764
      7749      7748      7750      7751      7749      7748      7750      7752
      7749      7748      7758      7759      7749      7748      7758      7760
      7749      7748      7758      7762      7750      7748      7758      7759
      7750      7748      7758      7760      7750      7748      7758      7762
      7750      7752      7754      7755      7750      7752      7754      7756
      7750      7752      7754      7757      7751      7750      7748      7758
      7751      7750      7752      7753      7751      7750      7752      7754
      7752      7750      7748      7758      7753      7752      7754      7755
      7753      7752      7754      7756      7753      7752      7754      7757
      7758      7762      7745      7766      7758      7762      7764      7765
      7759      7758      7760      7761      7759      7758      7762      7763
      7759      7758      7762      7764      7760      7758      7762      7763
      7760      7758      7762      7764      7761      7760      7758      7762
      7762      7745      7766      7767      7762      7745      7766      7768
      7762      7745      7766      7769      7763      7762      7745      7766
      7763      7762      7764      7765      7764      7762      7745      7766
      7767      7766      7769      7770      7768      7766      7769      7770
      7771      7773      7772      8070      7771      7773      7775      7776
      7771      7773      7775      7777      7771      7773      7775      7784
      7772      7773      7775      7776      7772      7773      7775      7777
      7772      7773      7775      7784      7772      8070      8067      8068
      7772      8070      8067      8069      7772      8070      8073      8071
      7772      8070      8074      8075      7772      8070      8074      8076
      7772      8070      8074      8077      7773      7772      8070      8067
      7773      7772      8070      8073      7773      7772      8070      8074
      7773      7775      7776      7778      7773      7775      7784      7785
      7773      7775      7784      7786      7773      7775      7784      7791
      7774      7773      7772      8070      7774      7773      7775      7776
      7774      7773      7775      7777      7774      7773      7775      7784
      7775      7773      7772      8070      7775      7776      7778      7779
      7775      7776      7778      7780      7775      7776      7778      7799
      7775      7784      7786      7787      7775      7784      7791      7792
      7775      7784      7791      7793      7775      7784      7791      7799
      7776      7775      7784      7785      7776      7775      7784      7786
      7776      7775      7784      7791      7776      7778      7780      7781
      7776      7778      7799      7791      7776      7778      7799      7800
      7776      7778      7799      7801      7777      7775      7776      7778
      7777      7775      7784      7785      7777      7775      7784      7786
      7777      7775      7784      7791      7778      7776      7775      7784
      7778      7780      7781      7782      7778      7780      7781      7783
      7778      7780      7781      7807      7778      7799      7791      7784
      7778      7799      7791      7792      7778      7799      7791      7793
      7778      7799      7801      7802      7778      7799      7801      7908
      7779      7778      7780      7781      7779      7778      7799      7791
      7779      7778      7799      7800      7779      7778      7799      7801
      7780      7778      7799      7791      7780      7778      7799      7800
      7780      7778      7799      7801      7780      7781      7807      7803
      7780      7781      7807      7808      7780      7781      7807      7809
      7781      7780      7778      7799      7781      7807      7803      7804
      7781      7807      7803      7805      7781      7807      7803      7817
      7781      7807      7809      7810      7782      7781      7807      7803
      7782      7781      7807      7808      7782      7781      7807      7809
      7783      7781      7807      7803      7783      7781      7807      7808
      7783      7781      7807      7809      7784      7786      7787      7788
      7784      7786      7787      7789      7784      7786      7787      7790
      7784      7791      7792      7794      7784      7791      7799      7800
      7784      7791      7799      7801      7785      7784      7786      7787
      7785      7784      7791      7792      7785      7784      7791      7793
      7785      7784      7791      7799      7786      7784      7791      7792
      7786      7784      7791      7793      7786      7784      7791      7799
      7787      7786      7784      7791      7791      7792      7794      7795
      7791      7792      7794      7796      7791      7799      7801      7802
      7791      7799      7801      7908      7792      7791      7799      7800
      7792      7791      7799      7801      7792      7794      7796      7797
      7792      7794      7796      7798      7792      7794      7796      7829
      7793      7791      7792      7794      7793      7791      7799      7800
      7793      7791      7799      7801      7794      7792      7791      7799
      7794      7796      7829      7830      7794      7796      7829      7831
      7794      7796      7829      7874      7795      7794      7796      7797
      7795      7794      7796      7798      7795      7794      7796      7829
      7796      7829      7831      7832      7796      7829      7874      7875
      7796      7829      7874      7876      7796      7829      7874      7877
      7797      7796      7829      7830      7797      7796      7829      7831
      7797      7796      7829      7874      7798      7796      7829      7830
      7798      7796      7829      7831      7798      7796      7829      7874
      7799      7801      7908      7909      7799      7801      7908      7910
      7800      7799      7801      7802      7800      7799      7801      7908
      7801      7908      7910      7911      7801      7908      7910      7912
      7801      7908      7910      7913      7802      7801      7908      7909
      7802      7801      7908      7910      7803      7807      7809      7810
      7803      7817      7819      7820      7803      7817      7825      7810
      7803      7817      7825      7826      7803      7817      7825      7827
      7804      7803      7805      7806      7804      7803      7807      7808
      7804      7803      7807      7809      7804      7803      7817      7818
      7804      7803      7817      7819      7804      7803      7817      7825
      7805      7803      7807      7808      7805      7803      7807      7809
      7805      7803      7817      7818      7805      7803      7817      7819
      7805      7803      7817      7825      7806      7805      7803      7807
      7806      7805      7803      7817      7807      7803      7817      7818
      7807      7803      7817      7819      7807      7803      7817      7825
      7807      7809      7810      7811      7807      7809      7810      7812
      7807      7809      7810      7825      7808      7807      7803      7817
      7808      7807      7809      7810      7809      7807      7803      7817
      7809      7810      7812      7816      7809      7810      7825      7817
      7809      7810      7825      7826      7809      7810      7825      7827
      7810      7812      7816      7813      7810      7812      7816      7814
      7810      7812      7816      7815      7810      7825      7817      7818
      7810      7825      7817      7819      7810      7825      7827      7828
      7810      7825      7827      8024      7811      7810      7812      7816
      7811      7810      7825      7817      7811      7810      7825      7826
      7811      7810      7825      7827      7812      7810      7825      7817
      7812      7810      7825      7826      7812      7810      7825      7827
      7816      7812      7810      7825      7817      7819      7820      7821
      7817      7819      7820      7822      7817      7825      7827      7828
      7817      7825      7827      8024      7818      7817      7819      7820
      7818      7817      7825      7826      7818      7817      7825      7827
      7819      7817      7825      7826      7819      7817      7825      7827
      7819      7820      7822      7823      7819      7820      7822      7824
      7819      7820      7822      7986      7820      7819      7817      7825
      7820      7822      7986      7987      7820      7822      7986      7988
      7820      7822      7986      7990      7821      7820      7822      7823
      7821      7820      7822      7824      7821      7820      7822      7986
      7822      7986      7988      7989      7822      7986      7990      7991
      7822      7986      7990      7992      7822      7986      7990      7993
      7823      7822      7986      7987      7823      7822      7986      7988
      7823      7822      7986      7990      7824      7822      7986      7987
      7824      7822      7986      7988      7824      7822      7986      7990
      7825      7827      8024      8025      7825      7827      8024      8026
      7826      7825      7827      7828      7826      7825      7827      8024
      7827      8024      8026      8027      7827      8024      8026      8028
      7827      8024      8026      8029      7828      7827      8024      8025
      7828      7827      8024      8026      7829      7831      7832      7833
      7829      7831      7832      7834      7829      7874      7877      7878
      7829      7874      7877      7879      7829      7874      7877      7880
      7830      7829      7831      7832      7830      7829      7874      7875
      7830      7829      7874      7876      7830      7829      7874      7877
      7831      7829      7874      7875      7831      7829      7874      7876
      7831      7829      7874      7877      7831      7832      7834      7835
      7831      7832      7834      7836      7831      7832      7834      7837
      7832      7831      7829      7874      7832      7834      7837      7838
      7832      7834      7837      7839      7832      7834      7837      7840
      7833      7832      7834      7835      7833      7832      7834      7836
      7833      7832      7834      7837      7834      7837      7840      7841
      7834      7837      7840      7842      7834      7837      7840      7843
      7835      7834      7837      7838      7835      7834      7837      7839
      7835      7834      7837      7840      7836      7834      7837      7838
      7836      7834      7837      7839      7836      7834      7837      7840
      7837      7840      7843      7844      7837      7840      7843      7845
      7837      7840      7843      7846      7838      7837      7840      7841
      7838      7837      7840      7842      7838      7837      7840      7843
      7839      7837      7840      7841      7839      7837      7840      7842
      7839      7837      7840      7843      7840      7843      7846      7847
      7840      7843      7846      7848      7840      7843      7846      7849
      7841      7840      7843      7844      7841      7840      7843      7845
      7841      7840      7843      7846      7842      7840      7843      7844
      7842      7840      7843      7845      7842      7840      7843      7846
      7843      7846      7849      7850      7843      7846      7849      7851
      7843      7846      7849      7852      7844      7843      7846      7847
      7844      7843      7846      7848      7844      7843      7846      7849
      7845      7843      7846      7847      7845      7843      7846      7848
      7845      7843      7846      7849      7846      7849      7852      7853
      7846      7849      7852      7854      7846      7849      7852      7855
      7847      7846      7849      7850      7847      7846      7849      7851
      7847      7846      7849      7852      7848      7846      7849      7850
      7848      7846      7849      7851      7848      7846      7849      7852
      7849      7852      7855      7856      7849      7852      7855      7857
      7849      7852      7855      7858      7850      7849      7852      7853
      7850      7849      7852      7854      7850      7849      7852      7855
      7851      7849      7852      7853      7851      7849      7852      7854
      7851      7849      7852      7855      7852      7855      7858      7859
      7852      7855      7858      7860      7852      7855      7858      7861
      7853      7852      7855      7856      7853      7852      7855      7857
      7853      7852      7855      7858      7854      7852      7855      7856
      7854      7852      7855      7857      7854      7852      7855      7858
      7855      7858      7861      7862      7855      7858      7861      7863
      7855      7858      7861      7864      7856      7855      7858      7859
      7856      7855      7858      7860      7856      7855      7858      7861
      7857      7855      7858      7859      7857      7855      7858      7860
      7857      7855      7858      7861      7858      7861      7864      7865
      7858      7861      7864      7866      7858      7861      7864      7867
      7859      7858      7861      7862      7859      7858      7861      7863
      7859      7858      7861      7864      7860      7858      7861      7862
      7860      7858      7861      7863      7860      7858      7861      7864
      7861      7864      7867      7868      7861      7864      7867      7869
      7861      7864      7867      7870      7862      7861      7864      7865
      7862      7861      7864      7866      7862      7861      7864      7867
      7863      7861      7864      7865      7863      7861      7864      7866
      7863      7861      7864      7867      7864      7867      7870      7871
      7864      7867      7870      7872      7864      7867      7870      7873
      7865      7864      7867      7868      7865      7864      7867      7869
      7865      7864      7867      7870      7866      7864      7867      7868
      7866      7864      7867      7869      7866      7864      7867      7870
      7868      7867      7870      7871      7868      7867      7870      7872
      7868      7867      7870      7873      7869      7867      7870      7871
      7869      7867      7870      7872      7869      7867      7870      7873
      7874      7877      7880      7881      7874      7877      7880      7882
      7874      7877      7880      7883      7875      7874      7877      7878
      7875      7874      7877      7879      7875      7874      7877      7880
      7876      7874      7877      7878      7876      7874      7877      7879
      7876      7874      7877      7880      7877      7880      7883      7884
      7877      7880      7883      7885      7877      7880      7883      7886
      7878      7877      7880      7881      7878      7877      7880      7882
      7878      7877      7880      7883      7879      7877      7880      7881
      7879      7877      7880      7882      7879      7877      7880      7883
      7880      7883      7886      7887      7880      7883      7886      7888
      7880      7883      7886      7889      7881      7880      7883      7884
      7881      7880      7883      7885      7881      7880      7883      7886
      7882      7880      7883      7884      7882      7880      7883      7885
      7882      7880      7883      7886      7883      7886      7889      7890
      7883      7886      7889      7891      7883      7886      7889      7892
      7884      7883      7886      7887      7884      7883      7886      7888
      7884      7883      7886      7889      7885      7883      7886      7887
      7885      7883      7886      7888      7885      7883      7886      7889
      7886      7889      7892      7893      7886      7889      7892      7894
      7886      7889      7892      7895      7887      7886      7889      7890
      7887      7886      7889      7891      7887      7886      7889      7892
      7888      7886      7889      7890      7888      7886      7889      7891
      7888      7886      7889      7892      7889      7892      7895      7896
      7889      7892      7895      7897      7889      7892      7895      7898
      7890      7889      7892      7893      7890      7889      7892      7894
      7890      7889      7892      7895      7891      7889      7892      7893
      7891      7889      7892      7894      7891      7889      7892      7895
      7892      7895      7898      7899      7892      7895      7898      7900
      7892      7895      7898      7901      7893      7892      7895      7896
      7893      7892      7895      7897      7893      7892      7895      7898
      7894      7892      7895      7896      7894      7892      7895      7897
      7894      7892      7895      7898      7895      7898      7901      7902
      7895      7898      7901      7903      7895      7898      7901      7904
      7896      7895      7898      7899      7896      7895      7898      7900
      7896      7895      7898      7901      7897      7895      7898      7899
      7897      7895      7898      7900      7897      7895      7898      7901
      7898      7901      7904      7905      7898      7901      7904      7906
      7898      7901      7904      7907      7899      7898      7901      7902
      7899      7898      7901      7903      7899      7898      7901      7904
      7900      7898      7901      7902      7900      7898      7901      7903
      7900      7898      7901      7904      7902      7901      7904      7905
      7902      7901      7904      7906      7902      7901      7904      7907
      7903      7901      7904      7905      7903      7901      7904      7906
      7903      7901      7904      7907      7908      7910      7913      7914
      7908      7910      7913      7915      7908      7910      7913      7952
      7909      7908      7910      7911      7909      7908      7910      7912
      7909      7908      7910      7913      7910      7913      7915      7916
      7910      7913      7952      7953      7910      7913      7952      7954
      7910      7913      7952      7955      7911      7910      7913      7914
      7911      7910      7913      7915      7911      7910      7913      7952
      7912      7910      7913      7914      7912      7910      7913      7915
      7912      7910      7913      7952      7913      7915      7916      7917
      7913      7915      7916      7918      7913      7952      7955      7956
      7913      7952      7955      7957      7913      7952      7955      7958
      7914      7913      7915      7916      7914      7913      7952      7953
      7914      7913      7952      7954      7914      7913      7952      7955
      7915      7913      7952      7953      7915      7913      7952      7954
      7915      7913      7952      7955      7915      7916      7918      7919
      7915      7916      7918      7920      7915      7916      7918      7921
      7916      7915      7913      7952      7916      7918      7921      7922
      7916      7918      7921      7923      7916      7918      7921      7924
      7917      7916      7918      7919      7917      7916      7918      7920
      7917      7916      7918      7921      7918      7921      7924      7925
      7918      7921      7924      7926      7918      7921      7924      7927
      7919      7918      7921      7922      7919      7918      7921      7923
      7919      7918      7921      7924      7920      7918      7921      7922
      7920      7918      7921      7923      7920      7918      7921      7924
      7921      7924      7927      7928      7921      7924      7927      7929
      7921      7924      7927      7930      7922      7921      7924      7925
      7922      7921      7924      7926      7922      7921      7924      7927
      7923      7921      7924      7925      7923      7921      7924      7926
      7923      7921      7924      7927      7924      7927      7930      7931
      7924      7927      7930      7932      7924      7927      7930      7933
      7925      7924      7927      7928      7925      7924      7927      7929
      7925      7924      7927      7930      7926      7924      7927      7928
      7926      7924      7927      7929      7926      7924      7927      7930
      7927      7930      7933      7934      7927      7930      7933      7935
      7927      7930      7933      7936      7928      7927      7930      7931
      7928      7927      7930      7932      7928      7927      7930      7933
      7929      7927      7930      7931      7929      7927      7930      7932
      7929      7927      7930      7933      7930      7933      7936      7937
      7930      7933      7936      7938      7930      7933      7936      7939
      7931      7930      7933      7934      7931      7930      7933      7935
      7931      7930      7933      7936      7932      7930      7933      7934
      7932      7930      7933      7935      7932      7930      7933      7936
      7933      7936      7939      7940      7933      7936      7939      7941
      7933      7936      7939      7942      7934      7933      7936      7937
      7934      7933      7936      7938      7934      7933      7936      7939
      7935      7933      7936      7937      7935      7933      7936      7938
      7935      7933      7936      7939      7936      7939      7942      7943
      7936      7939      7942      7944      7936      7939      7942      7945
      7937      7936      7939      7940      7937      7936      7939      7941
      7937      7936      7939      7942      7938      7936      7939      7940
      7938      7936      7939      7941      7938      7936      7939      7942
      7939      7942      7945      7946      7939      7942      7945      7947
      7939      7942      7945      7948      7940      7939      7942      7943
      7940      7939      7942      7944      7940      7939      7942      7945
      7941      7939      7942      7943      7941      7939      7942      7944
      7941      7939      7942      7945      7942      7945      7948      7949
      7942      7945      7948      7950      7942      7945      7948      7951
      7943      7942      7945      7946      7943      7942      7945      7947
      7943      7942      7945      7948      7944      7942      7945      7946
      7944      7942      7945      7947      7944      7942      7945      7948
      7946      7945      7948      7949      7946      7945      7948      7950
      7946      7945      7948      7951      7947      7945      7948      7949
      7947      7945      7948      7950      7947      7945      7948      7951
      7952      7955      7958      7959      7952      7955      7958      7960
      7952      7955      7958      7961      7953      7952      7955      7956
      7953      7952      7955      7957      7953      7952      7955      7958
      7954      7952      7955      7956      7954      7952      7955      7957
      7954      7952      7955      7958      7955      7958      7961      7962
      7955      7958      7961      7963      7955      7958      7961      7964
      7956      7955      7958      7959      7956      7955      7958      7960
      7956      7955      7958      7961      7957      7955      7958      7959
      7957      7955      7958      7960      7957      7955      7958      7961
      7958      7961      7964      7965      7958      7961      7964      7966
      7958      7961      7964      7967      7959      7958      7961      7962
      7959      7958      7961      7963      7959      7958      7961      7964
      7960      7958      7961      7962      7960      7958      7961      7963
      7960      7958      7961      7964      7961      7964      7967      7968
      7961      7964      7967      7969      7961      7964      7967      7970
      7962      7961      7964      7965      7962      7961      7964      7966
      7962      7961      7964      7967      7963      7961      7964      7965
      7963      7961      7964      7966      7963      7961      7964      7967
      7964      7967      7970      7971      7964      7967      7970      7972
      7964      7967      7970      7973      7965      7964      7967      7968
      7965      7964      7967      7969      7965      7964      7967      7970
      7966      7964      7967      7968      7966      7964      7967      7969
      7966      7964      7967      7970      7967      7970      7973      7974
      7967      7970      7973      7975      7967      7970      7973      7976
      7968      7967      7970      7971      7968      7967      7970      7972
      7968      7967      7970      7973      7969      7967      7970      7971
      7969      7967      7970      7972      7969      7967      7970      7973
      7970      7973      7976      7977      7970      7973      7976      7978
      7970      7973      7976      7979      7971      7970      7973      7974
      7971      7970      7973      7975      7971      7970      7973      7976
      7972      7970      7973      7974      7972      7970      7973      7975
      7972      7970      7973      7976      7973      7976      7979      7980
      7973      7976      7979      7981      7973      7976      7979      7982
      7974      7973      7976      7977      7974      7973      7976      7978
      7974      7973      7976      7979      7975      7973      7976      7977
      7975      7973      7976      7978      7975      7973      7976      7979
      7976      7979      7982      7983      7976      7979      7982      7984
      7976      7979      7982      7985      7977      7976      7979      7980
      7977      7976      7979      7981      7977      7976      7979      7982
      7978      7976      7979      7980      7978      7976      7979      7981
      7978      7976      7979      7982      7980      7979      7982      7983
      7980      7979      7982      7984      7980      7979      7982      7985
      7981      7979      7982      7983      7981      7979      7982      7984
      7981      7979      7982      7985      7986      7990      7993      7994
      7986      7990      7993      7995      7986      7990      7993      7996
      7987      7986      7988      7989      7987      7986      7990      7991
      7987      7986      7990      7992      7987      7986      7990      7993
      7988      7986      7990      7991      7988      7986      7990      7992
      7988      7986      7990      7993      7989      7988      7986      7990
      7990      7993      7996      7997      7990      7993      7996      7998
      7990      7993      7996      7999      7991      7990      7993      7994
      7991      7990      7993      7995      7991      7990      7993      7996
      7992      7990      7993      7994      7992      7990      7993      7995
      7992      7990      7993      7996      7993      7996      7999      8000
      7993      7996      7999      8001      7993      7996      7999      8002
      7994      7993      7996      7997      7994      7993      7996      7998
      7994      7993      7996      7999      7995      7993      7996      7997
      7995      7993      7996      7998      7995      7993      7996      7999
      7996      7999      8002      8003      7996      7999      8002      8004
      7996      7999      8002      8005      7997      7996      7999      8000
      7997      7996      7999      8001      7997      7996      7999      8002
      7998      7996      7999      8000      7998      7996      7999      8001
      7998      7996      7999      8002      7999      8002      8005      8006
      7999      8002      8005      8007      7999      8002      8005      8008
      8000      7999      8002      8003      8000      7999      8002      8004
      8000      7999      8002      8005      8001      7999      8002      8003
      8001      7999      8002      8004      8001      7999      8002      8005
      8002      8005      8008      8009      8002      8005      8008      8010
      8002      8005      8008      8011      8003      8002      8005      8006
      8003      8002      8005      8007      8003      8002      8005      8008
      8004      8002      8005      8006      8004      8002      8005      8007
      8004      8002      8005      8008      8005      8008      8011      8012
      8005      8008      8011      8013      8005      8008      8011      8014
      8006      8005      8008      8009      8006      8005      8008      8010
      8006      8005      8008      8011      8007      8005      8008      8009
      8007      8005      8008      8010      8007      8005      8008      8011
      8008      8011      8014      8015      8008      8011      8014      8016
      8008      8011      8014      8017      8009      8008      8011      8012
      8009      8008      8011      8013      8009      8008      8011      8014
      8010      8008      8011      8012      8010      8008      8011      8013
      8010      8008      8011      8014      8011      8014      8017      8018
      8011      8014      8017      8019      8011      8014      8017      8020
      8012      8011      8014      8015      8012      8011      8014      8016
      8012      8011      8014      8017      8013      8011      8014      8015
      8013      8011      8014      8016      8013      8011      8014      8017
      8014      8017      8020      8021      8014      8017      8020      8022
      8014      8017      8020      8023      8015      8014      8017      8018
      8015      8014      8017      8019      8015      8014      8017      8020
      8016      8014      8017      8018      8016      8014      8017      8019
      8016      8014      8017      8020      8018      8017      8020      8021
      8018      8017      8020      8022      8018      8017      8020      8023
      8019      8017      8020      8021      8019      8017      8020      8022
      8019      8017      8020      8023      8024      8026      8029      8030
      8024      8026      8029      8031      8024      8026      8029      8033
      8025      8024      8026      8027      8025      8024      8026      8028
      8025      8024      8026      8029      8026      8029      8031      8032
      8026      8029      8033      8034      8026      8029      8033      8035
      8026      8029      8033      8036      8027      8026      8029      8030
      8027      8026      8029      8031      8027      8026      8029      8033
      8028      8026      8029      8030      8028      8026      8029      8031
      8028      8026      8029      8033      8029      8033      8036      8037
      8029      8033      8036      8038      8029      8033      8036      8039
      8030      8029      8031      8032      8030      8029      8033      8034
      8030      8029      8033      8035      8030      8029      8033      8036
      8031      8029      8033      8034      8031      8029      8033      8035
      8031      8029      8033      8036      8032      8031      8029      8033
      8033      8036      8039      8040      8033      8036      8039      8041
      8033      8036      8039      8042      8034      8033      8036      8037
      8034      8033      8036      8038      8034      8033      8036      8039
      8035      8033      8036      8037      8035      8033      8036      8038
      8035      8033      8036      8039      8036      8039      8042      8043
      8036      8039      8042      8044      8036      8039      8042      8045
      8037      8036      8039      8040      8037      8036      8039      8041
      8037      8036      8039      8042      8038      8036      8039      8040
      8038      8036      8039      8041      8038      8036      8039      8042
      8039      8042      8045      8046      8039      8042      8045      8047
      8039      8042      8045      8048      8040      8039      8042      8043
      8040      8039      8042      8044      8040      8039      8042      8045
      8041      8039      8042      8043      8041      8039      8042      8044
      8041      8039      8042      8045      8042      8045      8048      8049
      8042      8045      8048      8050      8042      8045      8048      8051
      8043      8042      8045      8046      8043      8042      8045      8047
      8043      8042      8045      8048      8044      8042      8045      8046
      8044      8042      8045      8047      8044      8042      8045      8048
      8045      8048      8051      8052      8045      8048      8051      8053
      8045      8048      8051      8054      8046      8045      8048      8049
      8046      8045      8048      8050      8046      8045      8048      8051
      8047      8045      8048      8049      8047      8045      8048      8050
      8047      8045      8048      8051      8048      8051      8054      8055
      8048      8051      8054      8056      8048      8051      8054      8057
      8049      8048      8051      8052      8049      8048      8051      8053
      8049      8048      8051      8054      8050      8048      8051      8052
      8050      8048      8051      8053      8050      8048      8051      8054
      8051      8054      8057      8058      8051      8054      8057      8059
      8051      8054      8057      8060      8052      8051      8054      8055
      8052      8051      8054      8056      8052      8051      8054      8057
      8053      8051      8054      8055      8053      8051      8054      8056
      8053      8051      8054      8057      8054      8057      8060      8061
      8054      8057      8060      8062      8054      8057      8060      8063
      8055      8054      8057      8058      8055      8054      8057      8059
      8055      8054      8057      8060      8056      8054      8057      8058
      8056      8054      8057      8059      8056      8054      8057      8060
      8057      8060      8063      8064      8057      8060      8063      8065
      8057      8060      8063      8066      8058      8057      8060      8061
      8058      8057      8060      8062      8058      8057      8060      8063
      8059      8057      8060      8061      8059      8057      8060      8062
      8059      8057      8060      8063      8061      8060      8063      8064
      8061      8060      8063      8065      8061      8060      8063      8066
      8062      8060      8063      8064      8062      8060      8063      8065
      8062      8060      8063      8066      8067      8070      8073      8071
      8067      8070      8074      8075      8067      8070      8074      8076
      8067      8070      8074      8077      8068      8067      8070      8073
      8068      8067      8070      8074      8069      8067      8070      8073
      8069      8067      8070      8074      8070      8073      8071      8072
      8070      8073      8071      8080      8070      8073      8071      8083
      8070      8074      8077      8078      8070      8074      8077      8079
      8070      8074      8077      8080      8071      8073      8070      8074
      8071      8080      8077      8074      8071      8080      8077      8078
      8071      8080      8077      8079      8071      8080      8082      8119
      8071      8083      8085      8086      8071      8083      8087      8088
      8071      8083      8087      8089      8071      8083      8087      8090
      8072      8071      8080      8077      8072      8071      8080      8081
      8072      8071      8080      8082      8072      8071      8083      8084
      8072      8071      8083      8085      8072      8071      8083      8087
      8073      8070      8074      8075      8073      8070      8074      8076
      8073      8070      8074      8077      8073      8071      8080      8077
      8073      8071      8080      8081      8073      8071      8080      8082
      8073      8071      8083      8084      8073      8071      8083      8085
      8073      8071      8083      8087      8074      8077      8079      8095
      8074      8077      8080      8081      8074      8077      8080      8082
      8075      8074      8077      8078      8075      8074      8077      8079
      8075      8074      8077      8080      8076      8074      8077      8078
      8076      8074      8077      8079      8076      8074      8077      8080
      8077      8079      8095      8092      8077      8079      8095      8098
      8077      8079      8095      8099      8077      8080      8071      8083
      8077      8080      8082      8119      8078      8077      8079      8095
      8078      8077      8080      8081      8078      8077      8080      8082
      8079      8077      8080      8081      8079      8077      8080      8082
      8079      8095      8092      8093      8079      8095      8092      8094
      8079      8095      8098      8096      8079      8095      8099      8100
      8079      8095      8099      8101      8079      8095      8099      8102
      8080      8071      8083      8084      8080      8071      8083      8085
      8080      8071      8083      8087      8080      8077      8079      8095
      8080      8082      8119      8120      8080      8082      8119      8123
      8080      8082      8119      8124      8081      8080      8071      8083
      8081      8080      8082      8119      8082      8080      8071      8083
      8082      8119      8123      8121      8082      8119      8124      8125
      8082      8119      8124      8126      8082      8119      8124      8128
      8083      8087      8090      8091      8084      8083      8085      8086
      8084      8083      8087      8088      8084      8083      8087      8089
      8084      8083      8087      8090      8085      8083      8087      8088
      8085      8083      8087      8089      8085      8083      8087      8090
      8086      8085      8083      8087      8088      8087      8090      8091
      8089      8087      8090      8091      8092      8095      8098      8096
      8092      8095      8099      8100      8092      8095      8099      8101
      8092      8095      8099      8102      8093      8092      8095      8098
      8093      8092      8095      8099      8094      8092      8095      8098
      8094      8092      8095      8099      8095      8098      8096      8097
      8095      8098      8096      8106      8095      8098      8096      8110
      8095      8099      8102      8103      8095      8099      8102      8104
      8095      8099      8102      8106      8096      8098      8095      8099
      8096      8106      8102      8099      8096      8106      8102      8103
      8096      8106      8102      8104      8096      8106      8108      8109
      8096      8110      8112      8113      8096      8110      8114      8115
      8096      8110      8114      8116      8096      8110      8114      8117
      8097      8096      8106      8102      8097      8096      8106      8107
      8097      8096      8106      8108      8097      8096      8110      8111
      8097      8096      8110      8112      8097      8096      8110      8114
      8098      8095      8099      8100      8098      8095      8099      8101
      8098      8095      8099      8102      8098      8096      8106      8102
      8098      8096      8106      8107      8098      8096      8106      8108
      8098      8096      8110      8111      8098      8096      8110      8112
      8098      8096      8110      8114      8099      8102      8104      8105
      8099      8102      8106      8107      8099      8102      8106      8108
      8100      8099      8102      8103      8100      8099      8102      8104
      8100      8099      8102      8106      8101      8099      8102      8103
      8101      8099      8102      8104      8101      8099      8102      8106
      8102      8106      8096      8110      8102      8106      8108      8109
      8103      8102      8104      8105      8103      8102      8106      8107
      8103      8102      8106      8108      8104      8102      8106      8107
      8104      8102      8106      8108      8105      8104      8102      8106
      8106      8096      8110      8111      8106      8096      8110      8112
      8106      8096      8110      8114      8107      8106      8096      8110
      8107      8106      8108      8109      8108      8106      8096      8110
      8110      8114      8117      8118      8111      8110      8112      8113
      8111      8110      8114      8115      8111      8110      8114      8116
      8111      8110      8114      8117      8112      8110      8114      8115
      8112      8110      8114      8116      8112      8110      8114      8117
      8113      8112      8110      8114      8115      8114      8117      8118
      8116      8114      8117      8118      8119      8123      8121      8122
      8119      8123      8121      8131      8119      8123      8121      8138
      8119      8124      8126      8127      8119      8124      8128      8129
      8119      8124      8128      8130      8119      8124      8128      8131
      8120      8119      8123      8121      8120      8119      8124      8125
      8120      8119      8124      8126      8120      8119      8124      8128
      8121      8123      8119      8124      8121      8131      8128      8124
      8121      8131      8128      8129      8121      8131      8128      8130
      8121      8131      8133      8134      8121      8138      8140      8141
      8121      8138      8142      8143      8121      8138      8142      8144
      8121      8138      8142      8145      8122      8121      8131      8128
      8122      8121      8131      8132      8122      8121      8131      8133
      8122      8121      8138      8139      8122      8121      8138      8140
      8122      8121      8138      8142      8123      8119      8124      8125
      8123      8119      8124      8126      8123      8119      8124      8128
      8123      8121      8131      8128      8123      8121      8131      8132
      8123      8121      8131      8133      8123      8121      8138      8139
      8123      8121      8138      8140      8123      8121      8138      8142
      8124      8128      8130      8147      8124      8128      8131      8132
      8124      8128      8131      8133      8125      8124      8126      8127
      8125      8124      8128      8129      8125      8124      8128      8130
      8125      8124      8128      8131      8126      8124      8128      8129
      8126      8124      8128      8130      8126      8124      8128      8131
      8127      8126      8124      8128      8128      8130      8147      8148
      8128      8130      8147      8151      8128      8130      8147      8152
      8128      8131      8121      8138      8128      8131      8133      8134
      8129      8128      8130      8147      8129      8128      8131      8132
      8129      8128      8131      8133      8130      8128      8131      8132
      8130      8128      8131      8133      8130      8147      8151      8149
      8130      8147      8152      8153      8130      8147      8152      8154
      8130      8147      8152      8156      8131      8121      8138      8139
      8131      8121      8138      8140      8131      8121      8138      8142
      8131      8128      8130      8147      8131      8133      8134      8135
      8131      8133      8134      8136      8131      8133      8134      8137
      8132      8131      8121      8138      8132      8131      8133      8134
      8133      8131      8121      8138      8138      8142      8145      8146
      8139      8138      8140      8141      8139      8138      8142      8143
      8139      8138      8142      8144      8139      8138      8142      8145
      8140      8138      8142      8143      8140      8138      8142      8144
      8140      8138      8142      8145      8141      8140      8138      8142
      8143      8142      8145      8146      8144      8142      8145      8146
      8147      8151      8149      8150      8147      8151      8149      8159
      8147      8151      8149      8166      8147      8152      8154      8155
      8147      8152      8156      8157      8147      8152      8156      8158
      8147      8152      8156      8159      8148      8147      8151      8149
      8148      8147      8152      8153      8148      8147      8152      8154
      8148      8147      8152      8156      8149      8151      8147      8152
      8149      8159      8156      8152      8149      8159      8156      8157
      8149      8159      8156      8158      8149      8159      8161      8162
      8149      8166      8168      8169      8149      8166      8170      8171
      8149      8166      8170      8172      8149      8166      8170      8173
      8150      8149      8159      8156      8150      8149      8159      8160
      8150      8149      8159      8161      8150      8149      8166      8167
      8150      8149      8166      8168      8150      8149      8166      8170
      8151      8147      8152      8153      8151      8147      8152      8154
      8151      8147      8152      8156      8151      8149      8159      8156
      8151      8149      8159      8160      8151      8149      8159      8161
      8151      8149      8166      8167      8151      8149      8166      8168
      8151      8149      8166      8170      8152      8156      8158      8200
      8152      8156      8159      8160      8152      8156      8159      8161
      8153      8152      8154      8155      8153      8152      8156      8157
      8153      8152      8156      8158      8153      8152      8156      8159
      8154      8152      8156      8157      8154      8152      8156      8158
      8154      8152      8156      8159      8155      8154      8152      8156
      8156      8158      8200      8201      8156      8158      8200      8204
      8156      8158      8200      8205      8156      8159      8149      8166
      8156      8159      8161      8162      8157      8156      8158      8200
      8157      8156      8159      8160      8157      8156      8159      8161
      8158      8156      8159      8160      8158      8156      8159      8161
      8158      8200      8204      8202      8158      8200      8205      8206
      8158      8200      8205      8207      8158      8200      8205      8209
      8159      8149      8166      8167      8159      8149      8166      8168
      8159      8149      8166      8170      8159      8156      8158      8200
      8159      8161      8162      8163      8159      8161      8162      8164
      8159      8161      8162      8165      8160      8159      8149      8166
      8160      8159      8161      8162      8161      8159      8149      8166
      8166      8170      8173      8174      8167      8166      8168      8169
      8167      8166      8170      8171      8167      8166      8170      8172
      8167      8166      8170      8173      8168      8166      8170      8171
      8168      8166      8170      8172      8168      8166      8170      8173
      8169      8168      8166      8170      8170      8173      8174      8175
      8170      8173      8174      8178      8170      8173      8174      8179
      8171      8170      8173      8174      8172      8170      8173      8174
      8173      8174      8178      8176      8173      8174      8179      8180
      8173      8174      8179      8181      8173      8174      8179      8183
      8174      8178      8176      8177      8174      8178      8176      8187
      8174      8178      8176      8191      8174      8179      8181      8182
      8174      8179      8183      8184      8174      8179      8183      8185
      8174      8179      8183      8187      8175      8174      8178      8176
      8175      8174      8179      8180      8175      8174      8179      8181
      8175      8174      8179      8183      8176      8178      8174      8179
      8176      8187      8183      8179      8176      8187      8183      8184
      8176      8187      8183      8185      8176      8187      8189      8190
      8176      8191      8193      8194      8176      8191      8195      8196
      8176      8191      8195      8197      8176      8191      8195      8198
      8177      8176      8187      8183      8177      8176      8187      8188
      8177      8176      8187      8189      8177      8176      8191      8192
      8177      8176      8191      8193      8177      8176      8191      8195
      8178      8174      8179      8180      8178      8174      8179      8181
      8178      8174      8179      8183      8178      8176      8187      8183
      8178      8176      8187      8188      8178      8176      8187      8189
      8178      8176      8191      8192      8178      8176      8191      8193
      8178      8176      8191      8195      8179      8183      8185      8186
      8179      8183      8187      8188      8179      8183      8187      8189
      8180      8179      8181      8182      8180      8179      8183      8184
      8180      8179      8183      8185      8180      8179      8183      8187
      8181      8179      8183      8184      8181      8179      8183      8185
      8181      8179      8183      8187      8182      8181      8179      8183
      8183      8187      8176      8191      8183      8187      8189      8190
      8184      8183      8185      8186      8184      8183      8187      8188
      8184      8183      8187      8189      8185      8183      8187      8188
      8185      8183      8187      8189      8186      8185      8183      8187
      8187      8176      8191      8192      8187      8176      8191      8193
      8187      8176      8191      8195      8188      8187      8176      8191
      8188      8187      8189      8190      8189      8187      8176      8191
      8191      8195      8198      8199      8192      8191      8193      8194
      8192      8191      8195      8196      8192      8191      8195      8197
      8192      8191      8195      8198      8193      8191      8195      8196
      8193      8191      8195      8197      8193      8191      8195      8198
      8194      8193      8191      8195      8196      8195      8198      8199
      8197      8195      8198      8199      8200      8204      8202      8203
      8200      8204      8202      8212      8200      8204      8202      8216
      8200      8205      8207      8208      8200      8205      8209      8210
      8200      8205      8209      8211      8200      8205      8209      8212
      8201      8200      8204      8202      8201      8200      8205      8206
      8201      8200      8205      8207      8201      8200      8205      8209
      8202      8204      8200      8205      8202      8212      8209      8205
      8202      8212      8209      8210      8202      8212      8209      8211
      8202      8212      8214      8215      8202      8216      8219      8220
      8203      8202      8212      8209      8203      8202      8212      8213
      8203      8202      8212      8214      8203      8202      8216      8217
      8203      8202      8216      8218      8203      8202      8216      8219
      8204      8200      8205      8206      8204      8200      8205      8207
      8204      8200      8205      8209      8204      8202      8212      8209
      8204      8202      8212      8213      8204      8202      8212      8214
      8204      8202      8216      8217      8204      8202      8216      8218
      8204      8202      8216      8219      8205      8209      8211      8221
      8205      8209      8212      8213      8205      8209      8212      8214
      8206      8205      8207      8208      8206      8205      8209      8210
      8206      8205      8209      8211      8206      8205      8209      8212
      8207      8205      8209      8210      8207      8205      8209      8211
      8207      8205      8209      8212      8208      8207      8205      8209
      8209      8211      8221      8222      8209      8211      8221      8225
      8209      8211      8221      8226      8209      8212      8202      8216
      8209      8212      8214      8215      8210      8209      8211      8221
      8210      8209      8212      8213      8210      8209      8212      8214
      8211      8209      8212      8213      8211      8209      8212      8214
      8211      8221      8225      8223      8211      8221      8226      8227
      8211      8221      8226      8228      8211      8221      8226      8229
      8212      8202      8216      8217      8212      8202      8216      8218
      8212      8202      8216      8219      8212      8209      8211      8221
      8213      8212      8202      8216      8213      8212      8214      8215
      8214      8212      8202      8216      8217      8216      8219      8220
      8218      8216      8219      8220      8221      8225      8223      8224
      8221      8225      8223      8232      8221      8225      8223      8236
      8221      8226      8228      8241      8221      8226      8229      8230
      8221      8226      8229      8231      8221      8226      8229      8232
      8222      8221      8225      8223      8222      8221      8226      8227
      8222      8221      8226      8228      8222      8221      8226      8229
      8223      8225      8221      8226      8223      8232      8229      8226
      8223      8232      8229      8230      8223      8232      8229      8231
      8223      8232      8234      8235      8223      8236      8239      8240
      8224      8223      8232      8229      8224      8223      8232      8233
      8224      8223      8232      8234      8224      8223      8236      8237
      8224      8223      8236      8238      8224      8223      8236      8239
      8225      8221      8226      8227      8225      8221      8226      8228
      8225      8221      8226      8229      8225      8223      8232      8229
      8225      8223      8232      8233      8225      8223      8232      8234
      8225      8223      8236      8237      8225      8223      8236      8238
      8225      8223      8236      8239      8226      8228      8241      8242
      8226      8228      8241      8245      8226      8228      8241      8246
      8226      8229      8231      8284      8226      8229      8232      8233
      8226      8229      8232      8234      8227      8226      8228      8241
      8227      8226      8229      8230      8227      8226      8229      8231
      8227      8226      8229      8232      8228      8226      8229      8230
      8228      8226      8229      8231      8228      8226      8229      8232
      8228      8241      8245      8243      8228      8241      8246      8247
      8228      8241      8246      8248      8228      8241      8246      8249
      8229      8226      8228      8241      8229      8231      8284      8285
      8229      8231      8284      8288      8229      8231      8284      8289
      8229      8232      8223      8236      8229      8232      8234      8235
      8230      8229      8231      8284      8230      8229      8232      8233
      8230      8229      8232      8234      8231      8229      8232      8233
      8231      8229      8232      8234      8231      8284      8288      8286
      8231      8284      8289      8290      8231      8284      8289      8291
      8231      8284      8289      8293      8232      8223      8236      8237
      8232      8223      8236      8238      8232      8223      8236      8239
      8232      8229      8231      8284      8233      8232      8223      8236
      8233      8232      8234      8235      8234      8232      8223      8236
      8237      8236      8239      8240      8238      8236      8239      8240
      8241      8245      8243      8244      8241      8245      8243      8253
      8241      8245      8243      8257      8241      8246      8248      8262
      8241      8246      8249      8250      8241      8246      8249      8251
      8241      8246      8249      8253      8242      8241      8245      8243
      8242      8241      8246      8247      8242      8241      8246      8248
      8242      8241      8246      8249      8243      8245      8241      8246
      8243      8253      8249      8246      8243      8253      8249      8250
      8243      8253      8249      8251      8243      8253      8255      8256
      8243      8257      8260      8261      8244      8243      8253      8249
      8244      8243      8253      8254      8244      8243      8253      8255
      8244      8243      8257      8258      8244      8243      8257      8259
      8244      8243      8257      8260      8245      8241      8246      8247
      8245      8241      8246      8248      8245      8241      8246      8249
      8245      8243      8253      8249      8245      8243      8253      8254
      8245      8243      8253      8255      8245      8243      8257      8258
      8245      8243      8257      8259      8245      8243      8257      8260
      8246      8248      8262      8263      8246      8248      8262      8266
      8246      8248      8262      8267      8246      8249      8251      8252
      8246      8249      8253      8254      8246      8249      8253      8255
      8247      8246      8248      8262      8247      8246      8249      8250
      8247      8246      8249      8251      8247      8246      8249      8253
      8248      8246      8249      8250      8248      8246      8249      8251
      8248      8246      8249      8253      8248      8262      8266      8264
      8248      8262      8267      8268      8248      8262      8267      8269
      8248      8262      8267      8271      8249      8246      8248      8262
      8249      8253      8243      8257      8249      8253      8255      8256
      8250      8249      8251      8252      8250      8249      8253      8254
      8250      8249      8253      8255      8251      8249      8253      8254
      8251      8249      8253      8255      8252      8251      8249      8253
      8253      8243      8257      8258      8253      8243      8257      8259
      8253      8243      8257      8260      8254      8253      8243      8257
      8254      8253      8255      8256      8255      8253      8243      8257
      8258      8257      8260      8261      8259      8257      8260      8261
      8262      8266      8264      8265      8262      8266      8264      8275
      8262      8266      8264      8279      8262      8267      8269      8270
      8262      8267      8271      8272      8262      8267      8271      8273
      8262      8267      8271      8275      8263      8262      8266      8264
      8263      8262      8267      8268      8263      8262      8267      8269
      8263      8262      8267      8271      8264      8266      8262      8267
      8264      8275      8271      8267      8264      8275      8271      8272
      8264      8275      8271      8273      8264      8275      8277      8278
      8264      8279      8282      8283      8265      8264      8275      8271
      8265      8264      8275      8276      8265      8264      8275      8277
      8265      8264      8279      8280      8265      8264      8279      8281
      8265      8264      8279      8282      8266      8262      8267      8268
      8266      8262      8267      8269      8266      8262      8267      8271
      8266      8264      8275      8271      8266      8264      8275      8276
      8266      8264      8275      8277      8266      8264      8279      8280
      8266      8264      8279      8281      8266      8264      8279      8282
      8267      8271      8273      8274      8267      8271      8275      8276
      8267      8271      8275      8277      8268      8267      8269      8270
      8268      8267      8271      8272      8268      8267      8271      8273
      8268      8267      8271      8275      8269      8267      8271      8272
      8269      8267      8271      8273      8269      8267      8271      8275
      8270      8269      8267      8271      8271      8275      8264      8279
      8271      8275      8277      8278      8272      8271      8273      8274
      8272      8271      8275      8276      8272      8271      8275      8277
      8273      8271      8275      8276      8273      8271      8275      8277
      8274      8273      8271      8275      8275      8264      8279      8280
      8275      8264      8279      8281      8275      8264      8279      8282
      8276      8275      8264      8279      8276      8275      8277      8278
      8277      8275      8264      8279      8280      8279      8282      8283
      8281      8279      8282      8283      8284      8288      8286      8287
      8284      8288      8286      8296      8284      8288      8286      8300
      8284      8289      8291      8292      8284      8289      8293      8294
      8284      8289      8293      8295      8284      8289      8293      8296
      8285      8284      8288      8286      8285      8284      8289      8290
      8285      8284      8289      8291      8285      8284      8289      8293
      8286      8288      8284      8289      8286      8296      8293      8289
      8286      8296      8293      8294      8286      8296      8293      8295
      8286      8296      8298      8299      8286      8300      8303      8304
      8287      8286      8296      8293      8287      8286      8296      8297
      8287      8286      8296      8298      8287      8286      8300      8301
      8287      8286      8300      8302      8287      8286      8300      8303
      8288      8284      8289      8290      8288      8284      8289      8291
      8288      8284      8289      8293      8288      8286      8296      8293
      8288      8286      8296      8297      8288      8286      8296      8298
      8288      8286      8300      8301      8288      8286      8300      8302
      8288      8286      8300      8303      8289      8293      8295      8305
      8289      8293      8296      8297      8289      8293      8296      8298
      8290      8289      8291      8292      8290      8289      8293      8294
      8290      8289      8293      8295      8290      8289      8293      8296
      8291      8289      8293      8294      8291      8289      8293      8295
      8291      8289      8293      8296      8292      8291      8289      8293
      8293      8295      8305      8306      8293      8295      8305      8309
      8293      8295      8305      8310      8293      8296      8286      8300
      8293      8296      8298      8299      8294      8293      8295      8305
      8294      8293      8296      8297      8294      8293      8296      8298
      8295      8293      8296      8297      8295      8293      8296      8298
      8295      8305      8309      8307      8295      8305      8310      8311
      8295      8305      8310      8312      8295      8305      8310      8320
      8296      8286      8300      8301      8296      8286      8300      8302
      8296      8286      8300      8303      8296      8293      8295      8305
      8297      8296      8286      8300      8297      8296      8298      8299
      8298      8296      8286      8300      8301      8300      8303      8304
      8302      8300      8303      8304      8305      8309      8307      8308
      8305      8309      8307      8323      8305      8309      8307      8327
      8305      8310      8312      8313      8305      8310      8312      8314
      8305      8310      8320      8321      8305      8310      8320      8322
      8305      8310      8320      8323      8306      8305      8309      8307
      8306      8305      8310      8311      8306      8305      8310      8312
      8306      8305      8310      8320      8307      8309      8305      8310
      8307      8323      8320      8310      8307      8323      8320      8321
      8307      8323      8320      8322      8307      8323      8325      8326
      8307      8327      8330      8331      8308      8307      8323      8320
      8308      8307      8323      8324      8308      8307      8323      8325
      8308      8307      8327      8328      8308      8307      8327      8329
      8308      8307      8327      8330      8309      8305      8310      8311
      8309      8305      8310      8312      8309      8305      8310      8320
      8309      8307      8323      8320      8309      8307      8323      8324
      8309      8307      8323      8325      8309      8307      8327      8328
      8309      8307      8327      8329      8309      8307      8327      8330
      8310      8312      8314      8315      8310      8312      8314      8316
      8310      8320      8322      8332      8310      8320      8323      8324
      8310      8320      8323      8325      8311      8310      8312      8313
      8311      8310      8312      8314      8311      8310      8320      8321
      8311      8310      8320      8322      8311      8310      8320      8323
      8312      8310      8320      8321      8312      8310      8320      8322
      8312      8310      8320      8323      8312      8314      8316      8317
      8312      8314      8316      8318      8312      8314      8316      8319
      8313      8312      8310      8320      8313      8312      8314      8315
      8313      8312      8314      8316      8314      8312      8310      8320
      8315      8314      8316      8317      8315      8314      8316      8318
      8315      8314      8316      8319      8320      8322      8332      8333
      8320      8322      8332      8336      8320      8322      8332      8337
      8320      8323      8307      8327      8320      8323      8325      8326
      8321      8320      8322      8332      8321      8320      8323      8324
      8321      8320      8323      8325      8322      8320      8323      8324
      8322      8320      8323      8325      8322      8332      8336      8334
      8322      8332      8337      8338      8322      8332      8337      8339
      8322      8332      8337      8340      8323      8307      8327      8328
      8323      8307      8327      8329      8323      8307      8327      8330
      8323      8320      8322      8332      8324      8323      8307      8327
      8324      8323      8325      8326      8325      8323      8307      8327
      8328      8327      8330      8331      8329      8327      8330      8331
      8332      8336      8334      8335      8332      8336      8334      8344
      8332      8336      8334      8348      8332      8337      8339      8353
      8332      8337      8340      8341      8332      8337      8340      8342
      8332      8337      8340      8344      8333      8332      8336      8334
      8333      8332      8337      8338      8333      8332      8337      8339
      8333      8332      8337      8340      8334      8336      8332      8337
      8334      8344      8340      8337      8334      8344      8340      8341
      8334      8344      8340      8342      8334      8344      8346      8347
      8334      8348      8351      8352      8335      8334      8344      8340
      8335      8334      8344      8345      8335      8334      8344      8346
      8335      8334      8348      8349      8335      8334      8348      8350
      8335      8334      8348      8351      8336      8332      8337      8338
      8336      8332      8337      8339      8336      8332      8337      8340
      8336      8334      8344      8340      8336      8334      8344      8345
      8336      8334      8344      8346      8336      8334      8348      8349
      8336      8334      8348      8350      8336      8334      8348      8351
      8337      8339      8353      8354      8337      8339      8353      8357
      8337      8339      8353      8358      8337      8340      8342      8343
      8337      8340      8344      8345      8337      8340      8344      8346
      8338      8337      8339      8353      8338      8337      8340      8341
      8338      8337      8340      8342      8338      8337      8340      8344
      8339      8337      8340      8341      8339      8337      8340      8342
      8339      8337      8340      8344      8339      8353      8357      8355
      8339      8353      8358      8359      8339      8353      8358      8360
      8339      8353      8358      8361      8340      8337      8339      8353
      8340      8344      8334      8348      8340      8344      8346      8347
      8341      8340      8342      8343      8341      8340      8344      8345
      8341      8340      8344      8346      8342      8340      8344      8345
      8342      8340      8344      8346      8343      8342      8340      8344
      8344      8334      8348      8349      8344      8334      8348      8350
      8344      8334      8348      8351      8345      8344      8334      8348
      8345      8344      8346      8347      8346      8344      8334      8348
      8349      8348      8351      8352      8350      8348      8351      8352
      8353      8357      8355      8356      8353      8357      8355      8365
      8353      8357      8355      8369      8353      8358      8360      8373
      8353      8358      8361      8362      8353      8358      8361      8363
      8353      8358      8361      8365      8354      8353      8357      8355
      8354      8353      8358      8359      8354      8353      8358      8360
      8354      8353      8358      8361      8355      8357      8353      8358
      8355      8365      8361      8358      8355      8365      8361      8362
      8355      8365      8361      8363      8355      8365      8367      8368
      8356      8355      8365      8361      8356      8355      8365      8366
      8356      8355      8365      8367      8356      8355      8369      8370
      8356      8355      8369      8371      8356      8355      8369      8372
      8357      8353      8358      8359      8357      8353      8358      8360
      8357      8353      8358      8361      8357      8355      8365      8361
      8357      8355      8365      8366      8357      8355      8365      8367
      8357      8355      8369      8370      8357      8355      8369      8371
      8357      8355      8369      8372      8358      8360      8373      8374
      8358      8360      8373      8377      8358      8360      8373      8378
      8358      8361      8363      8364      8358      8361      8365      8366
      8358      8361      8365      8367      8359      8358      8360      8373
      8359      8358      8361      8362      8359      8358      8361      8363
      8359      8358      8361      8365      8360      8358      8361      8362
      8360      8358      8361      8363      8360      8358      8361      8365
      8360      8373      8377      8375      8360      8373      8378      8379
      8360      8373      8378      8380      8360      8373      8378      8381
      8361      8358      8360      8373      8361      8365      8355      8369
      8361      8365      8367      8368      8362      8361      8363      8364
      8362      8361      8365      8366      8362      8361      8365      8367
      8363      8361      8365      8366      8363      8361      8365      8367
      8364      8363      8361      8365      8365      8355      8369      8370
      8365      8355      8369      8371      8365      8355      8369      8372
      8366      8365      8355      8369      8366      8365      8367      8368
      8367      8365      8355      8369      8373      8377      8375      8376
      8373      8377      8375      8384      8373      8377      8375      8388
      8373      8378      8380      8392      8373      8378      8381      8382
      8373      8378      8381      8383      8373      8378      8381      8384
      8374      8373      8377      8375      8374      8373      8378      8379
      8374      8373      8378      8380      8374      8373      8378      8381
      8375      8377      8373      8378      8375      8384      8381      8378
      8375      8384      8381      8382      8375      8384      8381      8383
      8375      8384      8386      8387      8376      8375      8384      8381
      8376      8375      8384      8385      8376      8375      8384      8386
      8376      8375      8388      8389      8376      8375      8388      8390
      8376      8375      8388      8391      8377      8373      8378      8379
      8377      8373      8378      8380      8377      8373      8378      8381
      8377      8375      8384      8381      8377      8375      8384      8385
      8377      8375      8384      8386      8377      8375      8388      8389
      8377      8375      8388      8390      8377      8375      8388      8391
      8378      8380      8392      8393      8378      8380      8392      8396
      8378      8380      8392      8397      8378      8381      8383      8420
      8378      8381      8384      8385      8378      8381      8384      8386
      8379      8378      8380      8392      8379      8378      8381      8382
      8379      8378      8381      8383      8379      8378      8381      8384
      8380      8378      8381      8382      8380      8378      8381      8383
      8380      8378      8381      8384      8380      8392      8396      8394
      8380      8392      8397      8398      8380      8392      8397      8399
      8380      8392      8397      8407      8381      8378      8380      8392
      8381      8383      8420      8421      8381      8383      8420      8424
      8381      8383      8420      8425      8381      8384      8375      8388
      8381      8384      8386      8387      8382      8381      8383      8420
      8382      8381      8384      8385      8382      8381      8384      8386
      8383      8381      8384      8385      8383      8381      8384      8386
      8383      8420      8424      8422      8383      8420      8425      8426
      8383      8420      8425      8427      8383      8420      8425      8435
      8384      8375      8388      8389      8384      8375      8388      8390
      8384      8375      8388      8391      8384      8381      8383      8420
      8385      8384      8375      8388      8385      8384      8386      8387
      8386      8384      8375      8388      8392      8396      8394      8395
      8392      8396      8394      8411      8392      8396      8394      8415
      8392      8397      8399      8400      8392      8397      8399      8401
      8392      8397      8407      8408      8392      8397      8407      8409
      8392      8397      8407      8411      8393      8392      8396      8394
      8393      8392      8397      8398      8393      8392      8397      8399
      8393      8392      8397      8407      8394      8396      8392      8397
      8394      8411      8407      8397      8394      8411      8407      8408
      8394      8411      8407      8409      8394      8411      8413      8414
      8394      8415      8418      8419      8395      8394      8411      8407
      8395      8394      8411      8412      8395      8394      8411      8413
      8395      8394      8415      8416      8395      8394      8415      8417
      8395      8394      8415      8418      8396      8392      8397      8398
      8396      8392      8397      8399      8396      8392      8397      8407
      8396      8394      8411      8407      8396      8394      8411      8412
      8396      8394      8411      8413      8396      8394      8415      8416
      8396      8394      8415      8417      8396      8394      8415      8418
      8397      8399      8401      8402      8397      8399      8401      8403
      8397      8407      8409      8410      8397      8407      8411      8412
      8397      8407      8411      8413      8398      8397      8399      8400
      8398      8397      8399      8401      8398      8397      8407      8408
      8398      8397      8407      8409      8398      8397      8407      8411
      8399      8397      8407      8408      8399      8397      8407      8409
      8399      8397      8407      8411      8399      8401      8403      8404
      8399      8401      8403      8405      8399      8401      8403      8406
      8400      8399      8397      8407      8400      8399      8401      8402
      8400      8399      8401      8403      8401      8399      8397      8407
      8402      8401      8403      8404      8402      8401      8403      8405
      8402      8401      8403      8406      8407      8411      8394      8415
      8407      8411      8413      8414      8408      8407      8409      8410
      8408      8407      8411      8412      8408      8407      8411      8413
      8409      8407      8411      8412      8409      8407      8411      8413
      8410      8409      8407      8411      8411      8394      8415      8416
      8411      8394      8415      8417      8411      8394      8415      8418
      8412      8411      8394      8415      8412      8411      8413      8414
      8413      8411      8394      8415      8416      8415      8418      8419
      8417      8415      8418      8419      8420      8424      8422      8423
      8420      8424      8422      8438      8420      8424      8422      8442
      8420      8425      8427      8428      8420      8425      8427      8429
      8420      8425      8435      8436      8420      8425      8435      8437
      8420      8425      8435      8438      8421      8420      8424      8422
      8421      8420      8425      8426      8421      8420      8425      8427
      8421      8420      8425      8435      8422      8424      8420      8425
      8422      8438      8435      8425      8422      8438      8435      8436
      8422      8438      8435      8437      8422      8438      8440      8441
      8422      8442      8445      8446      8423      8422      8438      8435
      8423      8422      8438      8439      8423      8422      8438      8440
      8423      8422      8442      8443      8423      8422      8442      8444
      8423      8422      8442      8445      8424      8420      8425      8426
      8424      8420      8425      8427      8424      8420      8425      8435
      8424      8422      8438      8435      8424      8422      8438      8439
      8424      8422      8438      8440      8424      8422      8442      8443
      8424      8422      8442      8444      8424      8422      8442      8445
      8425      8427      8429      8430      8425      8427      8429      8431
      8425      8435      8437      8447      8425      8435      8438      8439
      8425      8435      8438      8440      8426      8425      8427      8428
      8426      8425      8427      8429      8426      8425      8435      8436
      8426      8425      8435      8437      8426      8425      8435      8438
      8427      8425      8435      8436      8427      8425      8435      8437
      8427      8425      8435      8438      8427      8429      8431      8432
      8427      8429      8431      8433      8427      8429      8431      8434
      8428      8427      8425      8435      8428      8427      8429      8430
      8428      8427      8429      8431      8429      8427      8425      8435
      8430      8429      8431      8432      8430      8429      8431      8433
      8430      8429      8431      8434      8435      8437      8447      8448
      8435      8437      8447      8451      8435      8437      8447      8452
      8435      8438      8422      8442      8435      8438      8440      8441
      8436      8435      8437      8447      8436      8435      8438      8439
      8436      8435      8438      8440      8437      8435      8438      8439
      8437      8435      8438      8440      8437      8447      8451      8449
      8437      8447      8452      8453      8437      8447      8452      8454
      8437      8447      8452      8455      8438      8422      8442      8443
      8438      8422      8442      8444      8438      8422      8442      8445
      8438      8435      8437      8447      8439      8438      8422      8442
      8439      8438      8440      8441      8440      8438      8422      8442
      8443      8442      8445      8446      8444      8442      8445      8446
      8447      8451      8449      8450      8447      8451      8449      8459
      8447      8451      8449      8463      8447      8452      8454      8468
      8447      8452      8455      8456      8447      8452      8455      8457
      8447      8452      8455      8459      8448      8447      8451      8449
      8448      8447      8452      8453      8448      8447      8452      8454
      8448      8447      8452      8455      8449      8451      8447      8452
      8449      8459      8455      8452      8449      8459      8455      8456
      8449      8459      8455      8457      8449      8459      8461      8462
      8449      8463      8466      8467      8450      8449      8459      8455
      8450      8449      8459      8460      8450      8449      8459      8461
      8450      8449      8463      8464      8450      8449      8463      8465
      8450      8449      8463      8466      8451      8447      8452      8453
      8451      8447      8452      8454      8451      8447      8452      8455
      8451      8449      8459      8455      8451      8449      8459      8460
      8451      8449      8459      8461      8451      8449      8463      8464
      8451      8449      8463      8465      8451      8449      8463      8466
      8452      8454      8468      8469      8452      8454      8468      8472
      8452      8454      8468      8473      8452      8455      8457      8458
      8452      8455      8459      8460      8452      8455      8459      8461
      8453      8452      8454      8468      8453      8452      8455      8456
      8453      8452      8455      8457      8453      8452      8455      8459
      8454      8452      8455      8456      8454      8452      8455      8457
      8454      8452      8455      8459      8454      8468      8472      8470
      8454      8468      8473      8474      8454      8468      8473      8475
      8454      8468      8473      8476      8455      8452      8454      8468
      8455      8459      8449      8463      8455      8459      8461      8462
      8456      8455      8457      8458      8456      8455      8459      8460
      8456      8455      8459      8461      8457      8455      8459      8460
      8457      8455      8459      8461      8458      8457      8455      8459
      8459      8449      8463      8464      8459      8449      8463      8465
      8459      8449      8463      8466      8460      8459      8449      8463
      8460      8459      8461      8462      8461      8459      8449      8463
      8464      8463      8466      8467      8465      8463      8466      8467
      8468      8472      8470      8471      8468      8472      8470      8480
      8468      8472      8470      8484      8468      8473      8475      8488
      8468      8473      8476      8477      8468      8473      8476      8478
      8468      8473      8476      8480      8469      8468      8472      8470
      8469      8468      8473      8474      8469      8468      8473      8475
      8469      8468      8473      8476      8470      8472      8468      8473
      8470      8480      8476      8473      8470      8480      8476      8477
      8470      8480      8476      8478      8470      8480      8482      8483
      8471      8470      8480      8476      8471      8470      8480      8481
      8471      8470      8480      8482      8471      8470      8484      8485
      8471      8470      8484      8486      8471      8470      8484      8487
      8472      8468      8473      8474      8472      8468      8473      8475
      8472      8468      8473      8476      8472      8470      8480      8476
      8472      8470      8480      8481      8472      8470      8480      8482
      8472      8470      8484      8485      8472      8470      8484      8486
      8472      8470      8484      8487      8473      8475      8488      8489
      8473      8475      8488      8492      8473      8475      8488      8493
      8473      8476      8478      8479      8473      8476      8480      8481
      8473      8476      8480      8482      8474      8473      8475      8488
      8474      8473      8476      8477      8474      8473      8476      8478
      8474      8473      8476      8480      8475      8473      8476      8477
      8475      8473      8476      8478      8475      8473      8476      8480
      8475      8488      8492      8490      8475      8488      8493      8494
      8475      8488      8493      8495      8475      8488      8493      8496
      8476      8473      8475      8488      8476      8480      8470      8484
      8476      8480      8482      8483      8477      8476      8478      8479
      8477      8476      8480      8481      8477      8476      8480      8482
      8478      8476      8480      8481      8478      8476      8480      8482
      8479      8478      8476      8480      8480      8470      8484      8485
      8480      8470      8484      8486      8480      8470      8484      8487
      8481      8480      8470      8484      8481      8480      8482      8483
      8482      8480      8470      8484      8488      8492      8490      8491
      8488      8492      8490      8499      8488      8492      8490      8503
      8488      8493      8495      8507      8488      8493      8496      8497
      8488      8493      8496      8498      8488      8493      8496      8499
      8489      8488      8492      8490      8489      8488      8493      8494
      8489      8488      8493      8495      8489      8488      8493      8496
      8490      8492      8488      8493      8490      8499      8496      8493
      8490      8499      8496      8497      8490      8499      8496      8498
      8490      8499      8501      8502      8491      8490      8499      8496
      8491      8490      8499      8500      8491      8490      8499      8501
      8491      8490      8503      8504      8491      8490      8503      8505
      8491      8490      8503      8506      8492      8488      8493      8494
      8492      8488      8493      8495      8492      8488      8493      8496
      8492      8490      8499      8496      8492      8490      8499      8500
      8492      8490      8499      8501      8492      8490      8503      8504
      8492      8490      8503      8505      8492      8490      8503      8506
      8493      8495      8507      8508      8493      8495      8507      8511
      8493      8495      8507      8512      8493      8496      8498      8535
      8493      8496      8499      8500      8493      8496      8499      8501
      8494      8493      8495      8507      8494      8493      8496      8497
      8494      8493      8496      8498      8494      8493      8496      8499
      8495      8493      8496      8497      8495      8493      8496      8498
      8495      8493      8496      8499      8495      8507      8511      8509
      8495      8507      8512      8513      8495      8507      8512      8514
      8495      8507      8512      8522      8496      8493      8495      8507
      8496      8498      8535      8536      8496      8498      8535      8539
      8496      8498      8535      8540      8496      8499      8490      8503
      8496      8499      8501      8502      8497      8496      8498      8535
      8497      8496      8499      8500      8497      8496      8499      8501
      8498      8496      8499      8500      8498      8496      8499      8501
      8498      8535      8539      8537      8498      8535      8540      8541
      8498      8535      8540      8542      8498      8535      8540      8550
      8499      8490      8503      8504      8499      8490      8503      8505
      8499      8490      8503      8506      8499      8496      8498      8535
      8500      8499      8490      8503      8500      8499      8501      8502
      8501      8499      8490      8503      8507      8511      8509      8510
      8507      8511      8509      8526      8507      8511      8509      8530
      8507      8512      8514      8515      8507      8512      8514      8516
      8507      8512      8522      8523      8507      8512      8522      8524
      8507      8512      8522      8526      8508      8507      8511      8509
      8508      8507      8512      8513      8508      8507      8512      8514
      8508      8507      8512      8522      8509      8511      8507      8512
      8509      8526      8522      8512      8509      8526      8522      8523
      8509      8526      8522      8524      8509      8526      8528      8529
      8509      8530      8533      8534      8510      8509      8526      8522
      8510      8509      8526      8527      8510      8509      8526      8528
      8510      8509      8530      8531      8510      8509      8530      8532
      8510      8509      8530      8533      8511      8507      8512      8513
      8511      8507      8512      8514      8511      8507      8512      8522
      8511      8509      8526      8522      8511      8509      8526      8527
      8511      8509      8526      8528      8511      8509      8530      8531
      8511      8509      8530      8532      8511      8509      8530      8533
      8512      8514      8516      8517      8512      8514      8516      8518
      8512      8522      8524      8525      8512      8522      8526      8527
      8512      8522      8526      8528      8513      8512      8514      8515
      8513      8512      8514      8516      8513      8512      8522      8523
      8513      8512      8522      8524      8513      8512      8522      8526
      8514      8512      8522      8523      8514      8512      8522      8524
      8514      8512      8522      8526      8514      8516      8518      8519
      8514      8516      8518      8520      8514      8516      8518      8521
      8515      8514      8512      8522      8515      8514      8516      8517
      8515      8514      8516      8518      8516      8514      8512      8522
      8517      8516      8518      8519      8517      8516      8518      8520
      8517      8516      8518      8521      8522      8526      8509      8530
      8522      8526      8528      8529      8523      8522      8524      8525
      8523      8522      8526      8527      8523      8522      8526      8528
      8524      8522      8526      8527      8524      8522      8526      8528
      8525      8524      8522      8526      8526      8509      8530      8531
      8526      8509      8530      8532      8526      8509      8530      8533
      8527      8526      8509      8530      8527      8526      8528      8529
      8528      8526      8509      8530      8531      8530      8533      8534
      8532      8530      8533      8534      8535      8539      8537      8538
      8535      8539      8537      8553      8535      8539      8537      8557
      8535      8540      8542      8543      8535      8540      8542      8544
      8535      8540      8550      8551      8535      8540      8550      8552
      8535      8540      8550      8553      8536      8535      8539      8537
      8536      8535      8540      8541      8536      8535      8540      8542
      8536      8535      8540      8550      8537      8539      8535      8540
      8537      8553      8550      8540      8537      8553      8550      8551
      8537      8553      8550      8552      8537      8553      8555      8556
      8537      8557      8560      8561      8538      8537      8553      8550
      8538      8537      8553      8554      8538      8537      8553      8555
      8538      8537      8557      8558      8538      8537      8557      8559
      8538      8537      8557      8560      8539      8535      8540      8541
      8539      8535      8540      8542      8539      8535      8540      8550
      8539      8537      8553      8550      8539      8537      8553      8554
      8539      8537      8553      8555      8539      8537      8557      8558
      8539      8537      8557      8559      8539      8537      8557      8560
      8540      8542      8544      8545      8540      8542      8544      8546
      8540      8550      8552      8562      8540      8550      8553      8554
      8540      8550      8553      8555      8541      8540      8542      8543
      8541      8540      8542      8544      8541      8540      8550      8551
      8541      8540      8550      8552      8541      8540      8550      8553
      8542      8540      8550      8551      8542      8540      8550      8552
      8542      8540      8550      8553      8542      8544      8546      8547
      8542      8544      8546      8548      8542      8544      8546      8549
      8543      8542      8540      8550      8543      8542      8544      8545
      8543      8542      8544      8546      8544      8542      8540      8550
      8545      8544      8546      8547      8545      8544      8546      8548
      8545      8544      8546      8549      8550      8552      8562      8563
      8550      8552      8562      8566      8550      8552      8562      8567
      8550      8553      8537      8557      8550      8553      8555      8556
      8551      8550      8552      8562      8551      8550      8553      8554
      8551      8550      8553      8555      8552      8550      8553      8554
      8552      8550      8553      8555      8552      8562      8566      8564
      8552      8562      8567      8568      8552      8562      8567      8569
      8552      8562      8567      8570      8553      8537      8557      8558
      8553      8537      8557      8559      8553      8537      8557      8560
      8553      8550      8552      8562      8554      8553      8537      8557
      8554      8553      8555      8556      8555      8553      8537      8557
      8558      8557      8560      8561      8559      8557      8560      8561
      8562      8566      8564      8565      8562      8566      8564      8574
      8562      8566      8564      8578      8562      8567      8569      8583
      8562      8567      8570      8571      8562      8567      8570      8572
      8562      8567      8570      8574      8563      8562      8566      8564
      8563      8562      8567      8568      8563      8562      8567      8569
      8563      8562      8567      8570      8564      8566      8562      8567
      8564      8574      8570      8567      8564      8574      8570      8571
      8564      8574      8570      8572      8564      8574      8576      8577
      8564      8578      8581      8582      8565      8564      8574      8570
      8565      8564      8574      8575      8565      8564      8574      8576
      8565      8564      8578      8579      8565      8564      8578      8580
      8565      8564      8578      8581      8566      8562      8567      8568
      8566      8562      8567      8569      8566      8562      8567      8570
      8566      8564      8574      8570      8566      8564      8574      8575
      8566      8564      8574      8576      8566      8564      8578      8579
      8566      8564      8578      8580      8566      8564      8578      8581
      8567      8569      8583      8584      8567      8569      8583      8587
      8567      8569      8583      8588      8567      8570      8572      8573
      8567      8570      8574      8575      8567      8570      8574      8576
      8568      8567      8569      8583      8568      8567      8570      8571
      8568      8567      8570      8572      8568      8567      8570      8574
      8569      8567      8570      8571      8569      8567      8570      8572
      8569      8567      8570      8574      8569      8583      8587      8585
      8569      8583      8588      8589      8569      8583      8588      8590
      8569      8583      8588      8591      8570      8567      8569      8583
      8570      8574      8564      8578      8570      8574      8576      8577
      8571      8570      8572      8573      8571      8570      8574      8575
      8571      8570      8574      8576      8572      8570      8574      8575
      8572      8570      8574      8576      8573      8572      8570      8574
      8574      8564      8578      8579      8574      8564      8578      8580
      8574      8564      8578      8581      8575      8574      8564      8578
      8575      8574      8576      8577      8576      8574      8564      8578
      8579      8578      8581      8582      8580      8578      8581      8582
      8583      8587      8585      8586      8583      8587      8585      8595
      8583      8587      8585      8599      8583      8588      8590      8603
      8583      8588      8591      8592      8583      8588      8591      8593
      8583      8588      8591      8595      8584      8583      8587      8585
      8584      8583      8588      8589      8584      8583      8588      8590
      8584      8583      8588      8591      8585      8587      8583      8588
      8585      8595      8591      8588      8585      8595      8591      8592
      8585      8595      8591      8593      8585      8595      8597      8598
      8586      8585      8595      8591      8586      8585      8595      8596
      8586      8585      8595      8597      8586      8585      8599      8600
      8586      8585      8599      8601      8586      8585      8599      8602
      8587      8583      8588      8589      8587      8583      8588      8590
      8587      8583      8588      8591      8587      8585      8595      8591
      8587      8585      8595      8596      8587      8585      8595      8597
      8587      8585      8599      8600      8587      8585      8599      8601
      8587      8585      8599      8602      8588      8590      8603      8604
      8588      8590      8603      8607      8588      8590      8603      8608
      8588      8591      8593      8594      8588      8591      8595      8596
      8588      8591      8595      8597      8589      8588      8590      8603
      8589      8588      8591      8592      8589      8588      8591      8593
      8589      8588      8591      8595      8590      8588      8591      8592
      8590      8588      8591      8593      8590      8588      8591      8595
      8590      8603      8607      8605      8590      8603      8608      8609
      8590      8603      8608      8610      8590      8603      8608      8611
      8591      8588      8590      8603      8591      8595      8585      8599
      8591      8595      8597      8598      8592      8591      8593      8594
      8592      8591      8595      8596      8592      8591      8595      8597
      8593      8591      8595      8596      8593      8591      8595      8597
      8594      8593      8591      8595      8595      8585      8599      8600
      8595      8585      8599      8601      8595      8585      8599      8602
      8596      8595      8585      8599      8596      8595      8597      8598
      8597      8595      8585      8599      8603      8607      8605      8606
      8603      8607      8605      8614      8603      8607      8605      8618
      8603      8608      8610      8622      8603      8608      8611      8612
      8603      8608      8611      8613      8603      8608      8611      8614
      8604      8603      8607      8605      8604      8603      8608      8609
      8604      8603      8608      8610      8604      8603      8608      8611
      8605      8607      8603      8608      8605      8614      8611      8608
      8605      8614      8611      8612      8605      8614      8611      8613
      8605      8614      8616      8617      8606      8605      8614      8611
      8606      8605      8614      8615      8606      8605      8614      8616
      8606      8605      8618      8619      8606      8605      8618      8620
      8606      8605      8618      8621      8607      8603      8608      8609
      8607      8603      8608      8610      8607      8603      8608      8611
      8607      8605      8614      8611      8607      8605      8614      8615
      8607      8605      8614      8616      8607      8605      8618      8619
      8607      8605      8618      8620      8607      8605      8618      8621
      8608      8610      8622      8623      8608      8610      8622      8626
      8608      8610      8622      8627      8608      8611      8613      8650
      8608      8611      8614      8615      8608      8611      8614      8616
      8609      8608      8610      8622      8609      8608      8611      8612
      8609      8608      8611      8613      8609      8608      8611      8614
      8610      8608      8611      8612      8610      8608      8611      8613
      8610      8608      8611      8614      8610      8622      8626      8624
      8610      8622      8627      8628      8610      8622      8627      8629
      8610      8622      8627      8637      8611      8608      8610      8622
      8611      8613      8650      8651      8611      8613      8650      8654
      8611      8613      8650      8655      8611      8614      8605      8618
      8611      8614      8616      8617      8612      8611      8613      8650
      8612      8611      8614      8615      8612      8611      8614      8616
      8613      8611      8614      8615      8613      8611      8614      8616
      8613      8650      8654      8652      8613      8650      8655      8656
      8613      8650      8655      8657      8613      8650      8655      8665
      8614      8605      8618      8619      8614      8605      8618      8620
      8614      8605      8618      8621      8614      8611      8613      8650
      8615      8614      8605      8618      8615      8614      8616      8617
      8616      8614      8605      8618      8622      8626      8624      8625
      8622      8626      8624      8641      8622      8626      8624      8645
      8622      8627      8629      8630      8622      8627      8629      8631
      8622      8627      8637      8638      8622      8627      8637      8639
      8622      8627      8637      8641      8623      8622      8626      8624
      8623      8622      8627      8628      8623      8622      8627      8629
      8623      8622      8627      8637      8624      8626      8622      8627
      8624      8641      8637      8627      8624      8641      8637      8638
      8624      8641      8637      8639      8624      8641      8643      8644
      8624      8645      8648      8649      8625      8624      8641      8637
      8625      8624      8641      8642      8625      8624      8641      8643
      8625      8624      8645      8646      8625      8624      8645      8647
      8625      8624      8645      8648      8626      8622      8627      8628
      8626      8622      8627      8629      8626      8622      8627      8637
      8626      8624      8641      8637      8626      8624      8641      8642
      8626      8624      8641      8643      8626      8624      8645      8646
      8626      8624      8645      8647      8626      8624      8645      8648
      8627      8629      8631      8632      8627      8629      8631      8633
      8627      8637      8639      8640      8627      8637      8641      8642
      8627      8637      8641      8643      8628      8627      8629      8630
      8628      8627      8629      8631      8628      8627      8637      8638
      8628      8627      8637      8639      8628      8627      8637      8641
      8629      8627      8637      8638      8629      8627      8637      8639
      8629      8627      8637      8641      8629      8631      8633      8634
      8629      8631      8633      8635      8629      8631      8633      8636
      8630      8629      8627      8637      8630      8629      8631      8632
      8630      8629      8631      8633      8631      8629      8627      8637
      8632      8631      8633      8634      8632      8631      8633      8635
      8632      8631      8633      8636      8637      8641      8624      8645
      8637      8641      8643      8644      8638      8637      8639      8640
      8638      8637      8641      8642      8638      8637      8641      8643
      8639      8637      8641      8642      8639      8637      8641      8643
      8640      8639      8637      8641      8641      8624      8645      8646
      8641      8624      8645      8647      8641      8624      8645      8648
      8642      8641      8624      8645      8642      8641      8643      8644
      8643      8641      8624      8645      8646      8645      8648      8649
      8647      8645      8648      8649      8650      8654      8652      8653
      8650      8654      8652      8668      8650      8654      8652      8672
      8650      8655      8657      8658      8650      8655      8657      8659
      8650      8655      8665      8666      8650      8655      8665      8667
      8650      8655      8665      8668      8651      8650      8654      8652
      8651      8650      8655      8656      8651      8650      8655      8657
      8651      8650      8655      8665      8652      8654      8650      8655
      8652      8668      8665      8655      8652      8668      8665      8666
      8652      8668      8665      8667      8652      8668      8670      8671
      8652      8672      8675      8676      8653      8652      8668      8665
      8653      8652      8668      8669      8653      8652      8668      8670
      8653      8652      8672      8673      8653      8652      8672      8674
      8653      8652      8672      8675      8654      8650      8655      8656
      8654      8650      8655      8657      8654      8650      8655      8665
      8654      8652      8668      8665      8654      8652      8668      8669
      8654      8652      8668      8670      8654      8652      8672      8673
      8654      8652      8672      8674      8654      8652      8672      8675
      8655      8657      8659      8660      8655      8657      8659      8661
      8655      8665      8667      8677      8655      8665      8668      8669
      8655      8665      8668      8670      8656      8655      8657      8658
      8656      8655      8657      8659      8656      8655      8665      8666
      8656      8655      8665      8667      8656      8655      8665      8668
      8657      8655      8665      8666      8657      8655      8665      8667
      8657      8655      8665      8668      8657      8659      8661      8662
      8657      8659      8661      8663      8657      8659      8661      8664
      8658      8657      8655      8665      8658      8657      8659      8660
      8658      8657      8659      8661      8659      8657      8655      8665
      8660      8659      8661      8662      8660      8659      8661      8663
      8660      8659      8661      8664      8665      8667      8677      8678
      8665      8667      8677      8681      8665      8667      8677      8682
      8665      8668      8652      8672      8665      8668      8670      8671
      8666      8665      8667      8677      8666      8665      8668      8669
      8666      8665      8668      8670      8667      8665      8668      8669
      8667      8665      8668      8670      8667      8677      8681      8679
      8667      8677      8682      8683      8667      8677      8682      8684
      8667      8677      8682      8685      8668      8652      8672      8673
      8668      8652      8672      8674      8668      8652      8672      8675
      8668      8665      8667      8677      8669      8668      8652      8672
      8669      8668      8670      8671      8670      8668      8652      8672
      8673      8672      8675      8676      8674      8672      8675      8676
      8677      8681      8679      8680      8677      8681      8679      8689
      8677      8681      8679      8693      8677      8682      8684      8698
      8677      8682      8685      8686      8677      8682      8685      8687
      8677      8682      8685      8689      8678      8677      8681      8679
      8678      8677      8682      8683      8678      8677      8682      8684
      8678      8677      8682      8685      8679      8681      8677      8682
      8679      8689      8685      8682      8679      8689      8685      8686
      8679      8689      8685      8687      8679      8689      8691      8692
      8679      8693      8696      8697      8680      8679      8689      8685
      8680      8679      8689      8690      8680      8679      8689      8691
      8680      8679      8693      8694      8680      8679      8693      8695
      8680      8679      8693      8696      8681      8677      8682      8683
      8681      8677      8682      8684      8681      8677      8682      8685
      8681      8679      8689      8685      8681      8679      8689      8690
      8681      8679      8689      8691      8681      8679      8693      8694
      8681      8679      8693      8695      8681      8679      8693      8696
      8682      8684      8698      8699      8682      8684      8698      8702
      8682      8684      8698      8703      8682      8685      8687      8688
      8682      8685      8689      8690      8682      8685      8689      8691
      8683      8682      8684      8698      8683      8682      8685      8686
      8683      8682      8685      8687      8683      8682      8685      8689
      8684      8682      8685      8686      8684      8682      8685      8687
      8684      8682      8685      8689      8684      8698      8702      8700
      8684      8698      8703      8704      8684      8698      8703      8705
      8684      8698      8703      8706      8685      8682      8684      8698
      8685      8689      8679      8693      8685      8689      8691      8692
      8686      8685      8687      8688      8686      8685      8689      8690
      8686      8685      8689      8691      8687      8685      8689      8690
      8687      8685      8689      8691      8688      8687      8685      8689
      8689      8679      8693      8694      8689      8679      8693      8695
      8689      8679      8693      8696      8690      8689      8679      8693
      8690      8689      8691      8692      8691      8689      8679      8693
      8694      8693      8696      8697      8695      8693      8696      8697
      8698      8702      8700      8701      8698      8702      8700      8710
      8698      8702      8700      8714      8698      8703      8705      8718
      8698      8703      8706      8707      8698      8703      8706      8708
      8698      8703      8706      8710      8699      8698      8702      8700
      8699      8698      8703      8704      8699      8698      8703      8705
      8699      8698      8703      8706      8700      8702      8698      8703
      8700      8710      8706      8703      8700      8710      8706      8707
      8700      8710      8706      8708      8700      8710      8712      8713
      8701      8700      8710      8706      8701      8700      8710      8711
      8701      8700      8710      8712      8701      8700      8714      8715
      8701      8700      8714      8716      8701      8700      8714      8717
      8702      8698      8703      8704      8702      8698      8703      8705
      8702      8698      8703      8706      8702      8700      8710      8706
      8702      8700      8710      8711      8702      8700      8710      8712
      8702      8700      8714      8715      8702      8700      8714      8716
      8702      8700      8714      8717      8703      8705      8718      8719
      8703      8705      8718      8722      8703      8705      8718      8723
      8703      8706      8708      8709      8703      8706      8710      8711
      8703      8706      8710      8712      8704      8703      8705      8718
      8704      8703      8706      8707      8704      8703      8706      8708
      8704      8703      8706      8710      8705      8703      8706      8707
      8705      8703      8706      8708      8705      8703      8706      8710
      8705      8718      8722      8720      8705      8718      8723      8724
      8705      8718      8723      8725      8705      8718      8723      8726
      8706      8703      8705      8718      8706      8710      8700      8714
      8706      8710      8712      8713      8707      8706      8708      8709
      8707      8706      8710      8711      8707      8706      8710      8712
      8708      8706      8710      8711      8708      8706      8710      8712
      8709      8708      8706      8710      8710      8700      8714      8715
      8710      8700      8714      8716      8710      8700      8714      8717
      8711      8710      8700      8714      8711      8710      8712      8713
      8712      8710      8700      8714      8718      8722      8720      8721
      8718      8722      8720      8729      8718      8722      8720      8733
      8718      8723      8725      8737      8718      8723      8726      8727
      8718      8723      8726      8728      8718      8723      8726      8729
      8719      8718      8722      8720      8719      8718      8723      8724
      8719      8718      8723      8725      8719      8718      8723      8726
      8720      8722      8718      8723      8720      8729      8726      8723
      8720      8729      8726      8727      8720      8729      8726      8728
      8720      8729      8731      8732      8721      8720      8729      8726
      8721      8720      8729      8730      8721      8720      8729      8731
      8721      8720      8733      8734      8721      8720      8733      8735
      8721      8720      8733      8736      8722      8718      8723      8724
      8722      8718      8723      8725      8722      8718      8723      8726
      8722      8720      8729      8726      8722      8720      8729      8730
      8722      8720      8729      8731      8722      8720      8733      8734
      8722      8720      8733      8735      8722      8720      8733      8736
      8723      8725      8737      8738      8723      8725      8737      8741
      8723      8725      8737      8742      8723      8726      8728      8765
      8723      8726      8729      8730      8723      8726      8729      8731
      8724      8723      8725      8737      8724      8723      8726      8727
      8724      8723      8726      8728      8724      8723      8726      8729
      8725      8723      8726      8727      8725      8723      8726      8728
      8725      8723      8726      8729      8725      8737      8741      8739
      8725      8737      8742      8743      8725      8737      8742      8744
      8725      8737      8742      8752      8726      8723      8725      8737
      8726      8728      8765      8766      8726      8728      8765      8769
      8726      8728      8765      8770      8726      8729      8720      8733
      8726      8729      8731      8732      8727      8726      8728      8765
      8727      8726      8729      8730      8727      8726      8729      8731
      8728      8726      8729      8730      8728      8726      8729      8731
      8728      8765      8769      8767      8728      8765      8770      8771
      8728      8765      8770      8772      8728      8765      8770      8780
      8729      8720      8733      8734      8729      8720      8733      8735
      8729      8720      8733      8736      8729      8726      8728      8765
      8730      8729      8720      8733      8730      8729      8731      8732
      8731      8729      8720      8733      8737      8741      8739      8740
      8737      8741      8739      8756      8737      8741      8739      8760
      8737      8742      8744      8745      8737      8742      8744      8746
      8737      8742      8752      8753      8737      8742      8752      8754
      8737      8742      8752      8756      8738      8737      8741      8739
      8738      8737      8742      8743      8738      8737      8742      8744
      8738      8737      8742      8752      8739      8741      8737      8742
      8739      8756      8752      8742      8739      8756      8752      8753
      8739      8756      8752      8754      8739      8756      8758      8759
      8739      8760      8763      8764      8740      8739      8756      8752
      8740      8739      8756      8757      8740      8739      8756      8758
      8740      8739      8760      8761      8740      8739      8760      8762
      8740      8739      8760      8763      8741      8737      8742      8743
      8741      8737      8742      8744      8741      8737      8742      8752
      8741      8739      8756      8752      8741      8739      8756      8757
      8741      8739      8756      8758      8741      8739      8760      8761
      8741      8739      8760      8762      8741      8739      8760      8763
      8742      8744      8746      8747      8742      8744      8746      8748
      8742      8752      8754      8755      8742      8752      8756      8757
      8742      8752      8756      8758      8743      8742      8744      8745
      8743      8742      8744      8746      8743      8742      8752      8753
      8743      8742      8752      8754      8743      8742      8752      8756
      8744      8742      8752      8753      8744      8742      8752      8754
      8744      8742      8752      8756      8744      8746      8748      8749
      8744      8746      8748      8750      8744      8746      8748      8751
      8745      8744      8742      8752      8745      8744      8746      8747
      8745      8744      8746      8748      8746      8744      8742      8752
      8747      8746      8748      8749      8747      8746      8748      8750
      8747      8746      8748      8751      8752      8756      8739      8760
      8752      8756      8758      8759      8753      8752      8754      8755
      8753      8752      8756      8757      8753      8752      8756      8758
      8754      8752      8756      8757      8754      8752      8756      8758
      8755      8754      8752      8756      8756      8739      8760      8761
      8756      8739      8760      8762      8756      8739      8760      8763
      8757      8756      8739      8760      8757      8756      8758      8759
      8758      8756      8739      8760      8761      8760      8763      8764
      8762      8760      8763      8764      8765      8769      8767      8768
      8765      8769      8767      8783      8765      8769      8767      8787
      8765      8770      8772      8773      8765      8770      8772      8774
      8765      8770      8780      8781      8765      8770      8780      8782
      8765      8770      8780      8783      8766      8765      8769      8767
      8766      8765      8770      8771      8766      8765      8770      8772
      8766      8765      8770      8780      8767      8769      8765      8770
      8767      8783      8780      8770      8767      8783      8780      8781
      8767      8783      8780      8782      8767      8783      8785      8786
      8767      8787      8790      8791      8768      8767      8783      8780
      8768      8767      8783      8784      8768      8767      8783      8785
      8768      8767      8787      8788      8768      8767      8787      8789
      8768      8767      8787      8790      8769      8765      8770      8771
      8769      8765      8770      8772      8769      8765      8770      8780
      8769      8767      8783      8780      8769      8767      8783      8784
      8769      8767      8783      8785      8769      8767      8787      8788
      8769      8767      8787      8789      8769      8767      8787      8790
      8770      8772      8774      8775      8770      8772      8774      8776
      8770      8780      8782      8792      8770      8780      8783      8784
      8770      8780      8783      8785      8771      8770      8772      8773
      8771      8770      8772      8774      8771      8770      8780      8781
      8771      8770      8780      8782      8771      8770      8780      8783
      8772      8770      8780      8781      8772      8770      8780      8782
      8772      8770      8780      8783      8772      8774      8776      8777
      8772      8774      8776      8778      8772      8774      8776      8779
      8773      8772      8770      8780      8773      8772      8774      8775
      8773      8772      8774      8776      8774      8772      8770      8780
      8775      8774      8776      8777      8775      8774      8776      8778
      8775      8774      8776      8779      8780      8782      8792      8793
      8780      8782      8792      8796      8780      8782      8792      8797
      8780      8783      8767      8787      8780      8783      8785      8786
      8781      8780      8782      8792      8781      8780      8783      8784
      8781      8780      8783      8785      8782      8780      8783      8784
      8782      8780      8783      8785      8782      8792      8796      8794
      8782      8792      8797      8798      8782      8792      8797      8799
      8782      8792      8797      8800      8783      8767      8787      8788
      8783      8767      8787      8789      8783      8767      8787      8790
      8783      8780      8782      8792      8784      8783      8767      8787
      8784      8783      8785      8786      8785      8783      8767      8787
      8788      8787      8790      8791      8789      8787      8790      8791
      8792      8796      8794      8795      8792      8796      8794      8804
      8792      8796      8794      8808      8792      8797      8799      8813
      8792      8797      8800      8801      8792      8797      8800      8802
      8792      8797      8800      8804      8793      8792      8796      8794
      8793      8792      8797      8798      8793      8792      8797      8799
      8793      8792      8797      8800      8794      8796      8792      8797
      8794      8804      8800      8797      8794      8804      8800      8801
      8794      8804      8800      8802      8794      8804      8806      8807
      8794      8808      8811      8812      8795      8794      8804      8800
      8795      8794      8804      8805      8795      8794      8804      8806
      8795      8794      8808      8809      8795      8794      8808      8810
      8795      8794      8808      8811      8796      8792      8797      8798
      8796      8792      8797      8799      8796      8792      8797      8800
      8796      8794      8804      8800      8796      8794      8804      8805
      8796      8794      8804      8806      8796      8794      8808      8809
      8796      8794      8808      8810      8796      8794      8808      8811
      8797      8799      8813      8814      8797      8799      8813      8817
      8797      8799      8813      8818      8797      8800      8802      8803
      8797      8800      8804      8805      8797      8800      8804      8806
      8798      8797      8799      8813      8798      8797      8800      8801
      8798      8797      8800      8802      8798      8797      8800      8804
      8799      8797      8800      8801      8799      8797      8800      8802
      8799      8797      8800      8804      8799      8813      8817      8815
      8799      8813      8818      8819      8799      8813      8818      8820
      8799      8813      8818      8821      8800      8797      8799      8813
      8800      8804      8794      8808      8800      8804      8806      8807
      8801      8800      8802      8803      8801      8800      8804      8805
      8801      8800      8804      8806      8802      8800      8804      8805
      8802      8800      8804      8806      8803      8802      8800      8804
      8804      8794      8808      8809      8804      8794      8808      8810
      8804      8794      8808      8811      8805      8804      8794      8808
      8805      8804      8806      8807      8806      8804      8794      8808
      8809      8808      8811      8812      8810      8808      8811      8812
      8813      8817      8815      8816      8813      8817      8815      8825
      8813      8817      8815      8829      8813      8818      8820      8833
      8813      8818      8821      8822      8813      8818      8821      8823
      8813      8818      8821      8825      8814      8813      8817      8815
      8814      8813      8818      8819      8814      8813      8818      8820
      8814      8813      8818      8821      8815      8817      8813      8818
      8815      8825      8821      8818      8815      8825      8821      8822
      8815      8825      8821      8823      8815      8825      8827      8828
      8816      8815      8825      8821      8816      8815      8825      8826
      8816      8815      8825      8827      8816      8815      8829      8830
      8816      8815      8829      8831      8816      8815      8829      8832
      8817      8813      8818      8819      8817      8813      8818      8820
      8817      8813      8818      8821      8817      8815      8825      8821
      8817      8815      8825      8826      8817      8815      8825      8827
      8817      8815      8829      8830      8817      8815      8829      8831
      8817      8815      8829      8832      8818      8820      8833      8834
      8818      8820      8833      8837      8818      8820      8833      8838
      8818      8821      8823      8824      8818      8821      8825      8826
      8818      8821      8825      8827      8819      8818      8820      8833
      8819      8818      8821      8822      8819      8818      8821      8823
      8819      8818      8821      8825      8820      8818      8821      8822
      8820      8818      8821      8823      8820      8818      8821      8825
      8820      8833      8837      8835      8820      8833      8838      8839
      8820      8833      8838      8840      8820      8833      8838      8841
      8821      8818      8820      8833      8821      8825      8815      8829
      8821      8825      8827      8828      8822      8821      8823      8824
      8822      8821      8825      8826      8822      8821      8825      8827
      8823      8821      8825      8826      8823      8821      8825      8827
      8824      8823      8821      8825      8825      8815      8829      8830
      8825      8815      8829      8831      8825      8815      8829      8832
      8826      8825      8815      8829      8826      8825      8827      8828
      8827      8825      8815      8829      8833      8837      8835      8836
      8833      8837      8835      8845      8833      8837      8835      8849
      8833      8838      8840      8853      8833      8838      8841      8842
      8833      8838      8841      8843      8833      8838      8841      8845
      8834      8833      8837      8835      8834      8833      8838      8839
      8834      8833      8838      8840      8834      8833      8838      8841
      8835      8837      8833      8838      8835      8845      8841      8838
      8835      8845      8841      8842      8835      8845      8841      8843
      8835      8845      8847      8848      8836      8835      8845      8841
      8836      8835      8845      8846      8836      8835      8845      8847
      8836      8835      8849      8850      8836      8835      8849      8851
      8836      8835      8849      8852      8837      8833      8838      8839
      8837      8833      8838      8840      8837      8833      8838      8841
      8837      8835      8845      8841      8837      8835      8845      8846
      8837      8835      8845      8847      8837      8835      8849      8850
      8837      8835      8849      8851      8837      8835      8849      8852
      8838      8840      8853      8854      8838      8840      8853      8857
      8838      8840      8853      8858      8838      8841      8843      8844
      8838      8841      8845      8846      8838      8841      8845      8847
      8839      8838      8840      8853      8839      8838      8841      8842
      8839      8838      8841      8843      8839      8838      8841      8845
      8840      8838      8841      8842      8840      8838      8841      8843
      8840      8838      8841      8845      8840      8853      8857      8855
      8840      8853      8858      8859      8840      8853      8858      8860
      8840      8853      8858      8868      8841      8838      8840      8853
      8841      8845      8835      8849      8841      8845      8847      8848
      8842      8841      8843      8844      8842      8841      8845      8846
      8842      8841      8845      8847      8843      8841      8845      8846
      8843      8841      8845      8847      8844      8843      8841      8845
      8845      8835      8849      8850      8845      8835      8849      8851
      8845      8835      8849      8852      8846      8845      8835      8849
      8846      8845      8847      8848      8847      8845      8835      8849
      8853      8857      8855      8856      8853      8857      8855      8872
      8853      8857      8855      8876      8853      8858      8860      8861
      8853      8858      8860      8862      8853      8858      8868      8869
      8853      8858      8868      8870      8853      8858      8868      8872
      8854      8853      8857      8855      8854      8853      8858      8859
      8854      8853      8858      8860      8854      8853      8858      8868
      8855      8857      8853      8858      8855      8872      8868      8858
      8855      8872      8868      8869      8855      8872      8868      8870
      8855      8872      8874      8875      8855      8876      8879      8880
      8856      8855      8872      8868      8856      8855      8872      8873
      8856      8855      8872      8874      8856      8855      8876      8877
      8856      8855      8876      8878      8856      8855      8876      8879
      8857      8853      8858      8859      8857      8853      8858      8860
      8857      8853      8858      8868      8857      8855      8872      8868
      8857      8855      8872      8873      8857      8855      8872      8874
      8857      8855      8876      8877      8857      8855      8876      8878
      8857      8855      8876      8879      8858      8860      8862      8863
      8858      8860      8862      8864      8858      8868      8870      8871
      8858      8868      8872      8873      8858      8868      8872      8874
      8859      8858      8860      8861      8859      8858      8860      8862
      8859      8858      8868      8869      8859      8858      8868      8870
      8859      8858      8868      8872      8860      8858      8868      8869
      8860      8858      8868      8870      8860      8858      8868      8872
      8860      8862      8864      8865      8860      8862      8864      8866
      8860      8862      8864      8867      8861      8860      8858      8868
      8861      8860      8862      8863      8861      8860      8862      8864
      8862      8860      8858      8868      8863      8862      8864      8865
      8863      8862      8864      8866      8863      8862      8864      8867
      8868      8872      8855      8876      8868      8872      8874      8875
      8869      8868      8870      8871      8869      8868      8872      8873
      8869      8868      8872      8874      8870      8868      8872      8873
      8870      8868      8872      8874      8871      8870      8868      8872
      8872      8855      8876      8877      8872      8855      8876      8878
      8872      8855      8876      8879      8873      8872      8855      8876
      8873      8872      8874      8875      8874      8872      8855      8876
      8877      8876      8879      8880      8878      8876      8879      8880
      8881      8883      8882      9180      8881      8883      8885      8886
      8881      8883      8885      8887      8881      8883      8885      8894
      8882      8883      8885      8886      8882      8883      8885      8887
      8882      8883      8885      8894      8882      9180      9177      9178
      8882      9180      9177      9179      8882      9180      9183      9181
      8882      9180      9184      9185      8882      9180      9184      9186
      8882      9180      9184      9187      8883      8882      9180      9177
      8883      8882      9180      9183      8883      8882      9180      9184
      8883      8885      8886      8888      8883      8885      8894      8895
      8883      8885      8894      8896      8883      8885      8894      8901
      8884      8883      8882      9180      8884      8883      8885      8886
      8884      8883      8885      8887      8884      8883      8885      8894
      8885      8883      8882      9180      8885      8886      8888      8889
      8885      8886      8888      8890      8885      8886      8888      8909
      8885      8894      8896      8897      8885      8894      8901      8902
      8885      8894      8901      8903      8885      8894      8901      8909
      8886      8885      8894      8895      8886      8885      8894      8896
      8886      8885      8894      8901      8886      8888      8890      8891
      8886      8888      8909      8901      8886      8888      8909      8910
      8886      8888      8909      8911      8887      8885      8886      8888
      8887      8885      8894      8895      8887      8885      8894      8896
      8887      8885      8894      8901      8888      8886      8885      8894
      8888      8890      8891      8892      8888      8890      8891      8893
      8888      8890      8891      8917      8888      8909      8901      8894
      8888      8909      8901      8902      8888      8909      8901      8903
      8888      8909      8911      8912      8888      8909      8911      9018
      8889      8888      8890      8891      8889      8888      8909      8901
      8889      8888      8909      8910      8889      8888      8909      8911
      8890      8888      8909      8901      8890      8888      8909      8910
      8890      8888      8909      8911      8890      8891      8917      8913
      8890      8891      8917      8918      8890      8891      8917      8919
      8891      8890      8888      8909      8891      8917      8913      8914
      8891      8917      8913      8915      8891      8917      8913      8927
      8891      8917      8919      8920      8892      8891      8917      8913
      8892      8891      8917      8918      8892      8891      8917      8919
      8893      8891      8917      8913      8893      8891      8917      8918
      8893      8891      8917      8919      8894      8896      8897      8898
      8894      8896      8897      8899      8894      8896      8897      8900
      8894      8901      8902      8904      8894      8901      8909      8910
      8894      8901      8909      8911      8895      8894      8896      8897
      8895      8894      8901      8902      8895      8894      8901      8903
      8895      8894      8901      8909      8896      8894      8901      8902
      8896      8894      8901      8903      8896      8894      8901      8909
      8897      8896      8894      8901      8901      8902      8904      8905
      8901      8902      8904      8906      8901      8909      8911      8912
      8901      8909      8911      9018      8902      8901      8909      8910
      8902      8901      8909      8911      8902      8904      8906      8907
      8902      8904      8906      8908      8902      8904      8906      8939
      8903      8901      8902      8904      8903      8901      8909      8910
      8903      8901      8909      8911      8904      8902      8901      8909
      8904      8906      8939      8940      8904      8906      8939      8941
      8904      8906      8939      8984      8905      8904      8906      8907
      8905      8904      8906      8908      8905      8904      8906      8939
      8906      8939      8941      8942      8906      8939      8984      8985
      8906      8939      8984      8986      8906      8939      8984      8987
      8907      8906      8939      8940      8907      8906      8939      8941
      8907      8906      8939      8984      8908      8906      8939      8940
      8908      8906      8939      8941      8908      8906      8939      8984
      8909      8911      9018      9019      8909      8911      9018      9020
      8910      8909      8911      8912      8910      8909      8911      9018
      8911      9018      9020      9021      8911      9018      9020      9022
      8911      9018      9020      9023      8912      8911      9018      9019
      8912      8911      9018      9020      8913      8917      8919      8920
      8913      8927      8929      8930      8913      8927      8935      8920
      8913      8927      8935      8936      8913      8927      8935      8937
      8914      8913      8915      8916      8914      8913      8917      8918
      8914      8913      8917      8919      8914      8913      8927      8928
      8914      8913      8927      8929      8914      8913      8927      8935
      8915      8913      8917      8918      8915      8913      8917      8919
      8915      8913      8927      8928      8915      8913      8927      8929
      8915      8913      8927      8935      8916      8915      8913      8917
      8916      8915      8913      8927      8917      8913      8927      8928
      8917      8913      8927      8929      8917      8913      8927      8935
      8917      8919      8920      8921      8917      8919      8920      8922
      8917      8919      8920      8935      8918      8917      8913      8927
      8918      8917      8919      8920      8919      8917      8913      8927
      8919      8920      8922      8926      8919      8920      8935      8927
      8919      8920      8935      8936      8919      8920      8935      8937
      8920      8922      8926      8923      8920      8922      8926      8924
      8920      8922      8926      8925      8920      8935      8927      8928
      8920      8935      8927      8929      8920      8935      8937      8938
      8920      8935      8937      9134      8921      8920      8922      8926
      8921      8920      8935      8927      8921      8920      8935      8936
      8921      8920      8935      8937      8922      8920      8935      8927
      8922      8920      8935      8936      8922      8920      8935      8937
      8926      8922      8920      8935      8927      8929      8930      8931
      8927      8929      8930      8932      8927      8935      8937      8938
      8927      8935      8937      9134      8928      8927      8929      8930
      8928      8927      8935      8936      8928      8927      8935      8937
      8929      8927      8935      8936      8929      8927      8935      8937
      8929      8930      8932      8933      8929      8930      8932      8934
      8929      8930      8932      9096      8930      8929      8927      8935
      8930      8932      9096      9097      8930      8932      9096      9098
      8930      8932      9096      9100      8931      8930      8932      8933
      8931      8930      8932      8934      8931      8930      8932      9096
      8932      9096      9098      9099      8932      9096      9100      9101
      8932      9096      9100      9102      8932      9096      9100      9103
      8933      8932      9096      9097      8933      8932      9096      9098
      8933      8932      9096      9100      8934      8932      9096      9097
      8934      8932      9096      9098      8934      8932      9096      9100
      8935      8937      9134      9135      8935      8937      9134      9136
      8936      8935      8937      8938      8936      8935      8937      9134
      8937      9134      9136      9137      8937      9134      9136      9138
      8937      9134      9136      9139      8938      8937      9134      9135
      8938      8937      9134      9136      8939      8941      8942      8943
      8939      8941      8942      8944      8939      8984      8987      8988
      8939      8984      8987      8989      8939      8984      8987      8990
      8940      8939      8941      8942      8940      8939      8984      8985
      8940      8939      8984      8986      8940      8939      8984      8987
      8941      8939      8984      8985      8941      8939      8984      8986
      8941      8939      8984      8987      8941      8942      8944      8945
      8941      8942      8944      8946      8941      8942      8944      8947
      8942      8941      8939      8984      8942      8944      8947      8948
      8942      8944      8947      8949      8942      8944      8947      8950
      8943      8942      8944      8945      8943      8942      8944      8946
      8943      8942      8944      8947      8944      8947      8950      8951
      8944      8947      8950      8952      8944      8947      8950      8953
      8945      8944      8947      8948      8945      8944      8947      8949
      8945      8944      8947      8950      8946      8944      8947      8948
      8946      8944      8947      8949      8946      8944      8947      8950
      8947      8950      8953      8954      8947      8950      8953      8955
      8947      8950      8953      8956      8948      8947      8950      8951
      8948      8947      8950      8952      8948      8947      8950      8953
      8949      8947      8950      8951      8949      8947      8950      8952
      8949      8947      8950      8953      8950      8953      8956      8957
      8950      8953      8956      8958      8950      8953      8956      8959
      8951      8950      8953      8954      8951      8950      8953      8955
      8951      8950      8953      8956      8952      8950      8953      8954
      8952      8950      8953      8955      8952      8950      8953      8956
      8953      8956      8959      8960      8953      8956      8959      8961
      8953      8956      8959      8962      8954      8953      8956      8957
      8954      8953      8956      8958      8954      8953      8956      8959
      8955      8953      8956      8957      8955      8953      8956      8958
      8955      8953      8956      8959      8956      8959      8962      8963
      8956      8959      8962      8964      8956      8959      8962      8965
      8957      8956      8959      8960      8957      8956      8959      8961
      8957      8956      8959      8962      8958      8956      8959      8960
      8958      8956      8959      8961      8958      8956      8959      8962
      8959      8962      8965      8966      8959      8962      8965      8967
      8959      8962      8965      8968      8960      8959      8962      8963
      8960      8959      8962      8964      8960      8959      8962      8965
      8961      8959      8962      8963      8961      8959      8962      8964
      8961      8959      8962      8965      8962      8965      8968      8969
      8962      8965      8968      8970      8962      8965      8968      8971
      8963      8962      8965      8966      8963      8962      8965      8967
      8963      8962      8965      8968      8964      8962      8965      8966
      8964      8962      8965      8967      8964      8962      8965      8968
      8965      8968      8971      8972      8965      8968      8971      8973
      8965      8968      8971      8974      8966      8965      8968      8969
      8966      8965      8968      8970      8966      8965      8968      8971
      8967      8965      8968      8969      8967      8965      8968      8970
      8967      8965      8968      8971      8968      8971      8974      8975
      8968      8971      8974      8976      8968      8971      8974      8977
      8969      8968      8971      8972      8969      8968      8971      8973
      8969      8968      8971      8974      8970      8968      8971      8972
      8970      8968      8971      8973      8970      8968      8971      8974
      8971      8974      8977      8978      8971      8974      8977      8979
      8971      8974      8977      8980      8972      8971      8974      8975
      8972      8971      8974      8976      8972      8971      8974      8977
      8973      8971      8974      8975      8973      8971      8974      8976
      8973      8971      8974      8977      8974      8977      8980      8981
      8974      8977      8980      8982      8974      8977      8980      8983
      8975      8974      8977      8978      8975      8974      8977      8979
      8975      8974      8977      8980      8976      8974      8977      8978
      8976      8974      8977      8979      8976      8974      8977      8980
      8978      8977      8980      8981      8978      8977      8980      8982
      8978      8977      8980      8983      8979      8977      8980      8981
      8979      8977      8980      8982      8979      8977      8980      8983
      8984      8987      8990      8991      8984      8987      8990      8992
      8984      8987      8990      8993      8985      8984      8987      8988
      8985      8984      8987      8989      8985      8984      8987      8990
      8986      8984      8987      8988      8986      8984      8987      8989
      8986      8984      8987      8990      8987      8990      8993      8994
      8987      8990      8993      8995      8987      8990      8993      8996
      8988      8987      8990      8991      8988      8987      8990      8992
      8988      8987      8990      8993      8989      8987      8990      8991
      8989      8987      8990      8992      8989      8987      8990      8993
      8990      8993      8996      8997      8990      8993      8996      8998
      8990      8993      8996      8999      8991      8990      8993      8994
      8991      8990      8993      8995      8991      8990      8993      8996
      8992      8990      8993      8994      8992      8990      8993      8995
      8992      8990      8993      8996      8993      8996      8999      9000
      8993      8996      8999      9001      8993      8996      8999      9002
      8994      8993      8996      8997      8994      8993      8996      8998
      8994      8993      8996      8999      8995      8993      8996      8997
      8995      8993      8996      8998      8995      8993      8996      8999
      8996      8999      9002      9003      8996      8999      9002      9004
      8996      8999      9002      9005      8997      8996      8999      9000
      8997      8996      8999      9001      8997      8996      8999      9002
      8998      8996      8999      9000      8998      8996      8999      9001
      8998      8996      8999      9002      8999      9002      9005      9006
      8999      9002      9005      9007      8999      9002      9005      9008
      9000      8999      9002      9003      9000      8999      9002      9004
      9000      8999      9002      9005      9001      8999      9002      9003
      9001      8999      9002      9004      9001      8999      9002      9005
      9002      9005      9008      9009      9002      9005      9008      9010
      9002      9005      9008      9011      9003      9002      9005      9006
      9003      9002      9005      9007      9003      9002      9005      9008
      9004      9002      9005      9006      9004      9002      9005      9007
      9004      9002      9005      9008      9005      9008      9011      9012
      9005      9008      9011      9013      9005      9008      9011      9014
      9006      9005      9008      9009      9006      9005      9008      9010
      9006      9005      9008      9011      9007      9005      9008      9009
      9007      9005      9008      9010      9007      9005      9008      9011
      9008      9011      9014      9015      9008      9011      9014      9016
      9008      9011      9014      9017      9009      9008      9011      9012
      9009      9008      9011      9013      9009      9008      9011      9014
      9010      9008      9011      9012      9010      9008      9011      9013
      9010      9008      9011      9014      9012      9011      9014      9015
      9012      9011      9014      9016      9012      9011      9014      9017
      9013      9011      9014      9015      9013      9011      9014      9016
      9013      9011      9014      9017      9018      9020      9023      9024
      9018      9020      9023      9025      9018      9020      9023      9062
      9019      9018      9020      9021      9019      9018      9020      9022
      9019      9018      9020      9023      9020      9023      9025      9026
      9020      9023      9062      9063      9020      9023      9062      9064
      9020      9023      9062      9065      9021      9020      9023      9024
      9021      9020      9023      9025      9021      9020      9023      9062
      9022      9020      9023      9024      9022      9020      9023      9025
      9022      9020      9023      9062      9023      9025      9026      9027
      9023      9025      9026      9028      9023      9062      9065      9066
      9023      9062      9065      9067      9023      9062      9065      9068
      9024      9023      9025      9026      9024      9023      9062      9063
      9024      9023      9062      9064      9024      9023      9062      9065
      9025      9023      9062      9063      9025      9023      9062      9064
      9025      9023      9062      9065      9025      9026      9028      9029
      9025      9026      9028      9030      9025      9026      9028      9031
      9026      9025      9023      9062      9026      9028      9031      9032
      9026      9028      9031      9033      9026      9028      9031      9034
      9027      9026      9028      9029      9027      9026      9028      9030
      9027      9026      9028      9031      9028      9031      9034      9035
      9028      9031      9034      9036      9028      9031      9034      9037
      9029      9028      9031      9032      9029      9028      9031      9033
      9029      9028      9031      9034      9030      9028      9031      9032
      9030      9028      9031      9033      9030      9028      9031      9034
      9031      9034      9037      9038      9031      9034      9037      9039
      9031      9034      9037      9040      9032      9031      9034      9035
      9032      9031      9034      9036      9032      9031      9034      9037
      9033      9031      9034      9035      9033      9031      9034      9036
      9033      9031      9034      9037      9034      9037      9040      9041
      9034      9037      9040      9042      9034      9037      9040      9043
      9035      9034      9037      9038      9035      9034      9037      9039
      9035      9034      9037      9040      9036      9034      9037      9038
      9036      9034      9037      9039      9036      9034      9037      9040
      9037      9040      9043      9044      9037      9040      9043      9045
      9037      9040      9043      9046      9038      9037      9040      9041
      9038      9037      9040      9042      9038      9037      9040      9043
      9039      9037      9040      9041      9039      9037      9040      9042
      9039      9037      9040      9043      9040      9043      9046      9047
      9040      9043      9046      9048      9040      9043      9046      9049
      9041      9040      9043      9044      9041      9040      9043      9045
      9041      9040      9043      9046      9042      9040      9043      9044
      9042      9040      9043      9045      9042      9040      9043      9046
      9043      9046      9049      9050      9043      9046      9049      9051
      9043      9046      9049      9052      9044      9043      9046      9047
      9044      9043      9046      9048      9044      9043      9046      9049
      9045      9043      9046      9047      9045      9043      9046      9048
      9045      9043      9046      9049      9046      9049      9052      9053
      9046      9049      9052      9054      9046      9049      9052      9055
      9047      9046      9049      9050      9047      9046      9049      9051
      9047      9046      9049      9052      9048      9046      9049      9050
      9048      9046      9049      9051      9048      9046      9049      9052
      9049      9052      9055      9056      9049      9052      9055      9057
      9049      9052      9055      9058      9050      9049      9052      9053
      9050      9049      9052      9054      9050      9049      9052      9055
      9051      9049      9052      9053      9051      9049      9052      9054
      9051      9049      9052      9055      9052      9055      9058      9059
      9052      9055      9058      9060      9052      9055      9058      9061
      9053      9052      9055      9056      9053      9052      9055      9057
      9053      9052      9055      9058      9054      9052      9055      9056
      9054      9052      9055      9057      9054      9052      9055      9058
      9056      9055      9058      9059      9056      9055      9058      9060
      9056      9055      9058      9061      9057      9055      9058      9059
      9057      9055      9058      9060      9057      9055      9058      9061
      9062      9065      9068      9069      9062      9065      9068      9070
      9062      9065      9068      9071      9063      9062      9065      9066
      9063      9062      9065      9067      9063      9062      9065      9068
      9064      9062      9065      9066      9064      9062      9065      9067
      9064      9062      9065      9068      9065      9068      9071      9072
      9065      9068      9071      9073      9065      9068      9071      9074
      9066      9065      9068      9069      9066      9065      9068      9070
      9066      9065      9068      9071      9067      9065      9068      9069
      9067      9065      9068      9070      9067      9065      9068      9071
      9068      9071      9074      9075      9068      9071      9074      9076
      9068      9071      9074      9077      9069      9068      9071      9072
      9069      9068      9071      9073      9069      9068      9071      9074
      9070      9068      9071      9072      9070      9068      9071      9073
      9070      9068      9071      9074      9071      9074      9077      9078
      9071      9074      9077      9079      9071      9074      9077      9080
      9072      9071      9074      9075      9072      9071      9074      9076
      9072      9071      9074      9077      9073      9071      9074      9075
      9073      9071      9074      9076      9073      9071      9074      9077
      9074      9077      9080      9081      9074      9077      9080      9082
      9074      9077      9080      9083      9075      9074      9077      9078
      9075      9074      9077      9079      9075      9074      9077      9080
      9076      9074      9077      9078      9076      9074      9077      9079
      9076      9074      9077      9080      9077      9080      9083      9084
      9077      9080      9083      9085      9077      9080      9083      9086
      9078      9077      9080      9081      9078      9077      9080      9082
      9078      9077      9080      9083      9079      9077      9080      9081
      9079      9077      9080      9082      9079      9077      9080      9083
      9080      9083      9086      9087      9080      9083      9086      9088
      9080      9083      9086      9089      9081      9080      9083      9084
      9081      9080      9083      9085      9081      9080      9083      9086
      9082      9080      9083      9084      9082      9080      9083      9085
      9082      9080      9083      9086      9083      9086      9089      9090
      9083      9086      9089      9091      9083      9086      9089      9092
      9084      9083      9086      9087      9084      9083      9086      9088
      9084      9083      9086      9089      9085      9083      9086      9087
      9085      9083      9086      9088      9085      9083      9086      9089
      9086      9089      9092      9093      9086      9089      9092      9094
      9086      9089      9092      9095      9087      9086      9089      9090
      9087      9086      9089      9091      9087      9086      9089      9092
      9088      9086      9089      9090      9088      9086      9089      9091
      9088      9086      9089      9092      9090      9089      9092      9093
      9090      9089      9092      9094      9090      9089      9092      9095
      9091      9089      9092      9093      9091      9089      9092      9094
      9091      9089      9092      9095      9096      9100      9103      9104
      9096      9100      9103      9105      9096      9100      9103      9106
      9097      9096      9098      9099      9097      9096      9100      9101
      9097      9096      9100      9102      9097      9096      9100      9103
      9098      9096      9100      9101      9098      9096      9100      9102
      9098      9096      9100      9103      9099      9098      9096      9100
      9100      9103      9106      9107      9100      9103      9106      9108
      9100      9103      9106      9109      9101      9100      9103      9104
      9101      9100      9103      9105      9101      9100      9103      9106
      9102      9100      9103      9104      9102      9100      9103      9105
      9102      9100      9103      9106      9103      9106      9109      9110
      9103      9106      9109      9111      9103      9106      9109      9112
      9104      9103      9106      9107      9104      9103      9106      9108
      9104      9103      9106      9109      9105      9103      9106      9107
      9105      9103      9106      9108      9105      9103      9106      9109
      9106      9109      9112      9113      9106      9109      9112      9114
      9106      9109      9112      9115      9107      9106      9109      9110
      9107      9106      9109      9111      9107      9106      9109      9112
      9108      9106      9109      9110      9108      9106      9109      9111
      9108      9106      9109      9112      9109      9112      9115      9116
      9109      9112      9115      9117      9109      9112      9115      9118
      9110      9109      9112      9113      9110      9109      9112      9114
      9110      9109      9112      9115      9111      9109      9112      9113
      9111      9109      9112      9114      9111      9109      9112      9115
      9112      9115      9118      9119      9112      9115      9118      9120
      9112      9115      9118      9121      9113      9112      9115      9116
      9113      9112      9115      9117      9113      9112      9115      9118
      9114      9112      9115      9116      9114      9112      9115      9117
      9114      9112      9115      9118      9115      9118      9121      9122
      9115      9118      9121      9123      9115      9118      9121      9124
      9116      9115      9118      9119      9116      9115      9118      9120
      9116      9115      9118      9121      9117      9115      9118      9119
      9117      9115      9118      9120      9117      9115      9118      9121
      9118      9121      9124      9125      9118      9121      9124      9126
      9118      9121      9124      9127      9119      9118      9121      9122
      9119      9118      9121      9123      9119      9118      9121      9124
      9120      9118      9121      9122      9120      9118      9121      9123
      9120      9118      9121      9124      9121      9124      9127      9128
      9121      9124      9127      9129      9121      9124      9127      9130
      9122      9121      9124      9125      9122      9121      9124      9126
      9122      9121      9124      9127      9123      9121      9124      9125
      9123      9121      9124      9126      9123      9121      9124      9127
      9124      9127      9130      9131      9124      9127      9130      9132
      9124      9127      9130      9133      9125      9124      9127      9128
      9125      9124      9127      9129      9125      9124      9127      9130
      9126      9124      9127      9128      9126      9124      9127      9129
      9126      9124      9127      9130      9128      9127      9130      9131
      9128      9127      9130      9132      9128      9127      9130      9133
      9129      9127      9130      9131      9129      9127      9130      9132
      9129      9127      9130      9133      9134      9136      9139      9140
      9134      9136      9139      9141      9134      9136      9139      9143
      9135      9134      9136      9137      9135      9134      9136      9138
      9135      9134      9136      9139      9136      9139      9141      9142
      9136      9139      9143      9144      9136      9139      9143      9145
      9136      9139      9143      9146      9137      9136      9139      9140
      9137      9136      9139      9141      9137      9136      9139      9143
      9138      9136      9139      9140      9138      9136      9139      9141
      9138      9136      9139      9143      9139      9143      9146      9147
      9139      9143      9146      9148      9139      9143      9146      9149
      9140      9139      9141      9142      9140      9139      9143      9144
      9140      9139      9143      9145      9140      9139      9143      9146
      9141      9139      9143      9144      9141      9139      9143      9145
      9141      9139      9143      9146      9142      9141      9139      9143
      9143      9146      9149      9150      9143      9146      9149      9151
      9143      9146      9149      9152      9144      9143      9146      9147
      9144      9143      9146      9148      9144      9143      9146      9149
      9145      9143      9146      9147      9145      9143      9146      9148
      9145      9143      9146      9149      9146      9149      9152      9153
      9146      9149      9152      9154      9146      9149      9152      9155
      9147      9146      9149      9150      9147      9146      9149      9151
      9147      9146      9149      9152      9148      9146      9149      9150
      9148      9146      9149      9151      9148      9146      9149      9152
      9149      9152      9155      9156      9149      9152      9155      9157
      9149      9152      9155      9158      9150      9149      9152      9153
      9150      9149      9152      9154      9150      9149      9152      9155
      9151      9149      9152      9153      9151      9149      9152      9154
      9151      9149      9152      9155      9152      9155      9158      9159
      9152      9155      9158      9160      9152      9155      9158      9161
      9153      9152      9155      9156      9153      9152      9155      9157
      9153      9152      9155      9158      9154      9152      9155      9156
      9154      9152      9155      9157      9154      9152      9155      9158
      9155      9158      9161      9162      9155      9158      9161      9163
      9155      9158      9161      9164      9156      9155      9158      9159
      9156      9155      9158      9160      9156      9155      9158      9161
      9157      9155      9158      9159      9157      9155      9158      9160
      9157      9155      9158      9161      9158      9161      9164      9165
      9158      9161      9164      9166      9158      9161      9164      9167
      9159      9158      9161      9162      9159      9158      9161      9163
      9159      9158      9161      9164      9160      9158      9161      9162
      9160      9158      9161      9163      9160      9158      9161      9164
      9161      9164      9167      9168      9161      9164      9167      9169
      9161      9164      9167      9170      9162      9161      9164      9165
      9162      9161      9164      9166      9162      9161      9164      9167
      9163      9161      9164      9165      9163      9161      9164      9166
      9163      9161      9164      9167      9164      9167      9170      9171
      9164      9167      9170      9172      9164      9167      9170      9173
      9165      9164      9167      9168      9165      9164      9167      9169
      9165      9164      9167      9170      9166      9164      9167      9168
      9166      9164      9167      9169      9166      9164      9167      9170
      9167      9170      9173      9174      9167      9170      9173      9175
      9167      9170      9173      9176      9168      9167      9170      9171
      9168      9167      9170      9172      9168      9167      9170      9173
      9169      9167      9170      9171      9169      9167      9170      9172
      9169      9167      9170      9173      9171      9170      9173      9174
      9171      9170      9173      9175      9171      9170      9173      9176
      9172      9170      9173      9174      9172      9170      9173      9175
      9172      9170      9173      9176      9177      9180      9183      9181
      9177      9180      9184      9185      9177      9180      9184      9186
      9177      9180      9184      9187      9178      9177      9180      9183
      9178      9177      9180      9184      9179      9177      9180      9183
      9179      9177      9180      9184      9180      9183      9181      9182
      9180      9183      9181      9190      9180      9183      9181      9193
      9180      9184      9187      9188      9180      9184      9187      9189
      9180      9184      9187      9190      9181      9183      9180      9184
      9181      9190      9187      9184      9181      9190      9187      9188
      9181      9190      9187      9189      9181      9190      9192      9229
      9181      9193      9195      9196      9181      9193      9197      9198
      9181      9193      9197      9199      9181      9193      9197      9200
      9182      9181      9190      9187      9182      9181      9190      9191
      9182      9181      9190      9192      9182      9181      9193      9194
      9182      9181      9193      9195      9182      9181      9193      9197
      9183      9180      9184      9185      9183      9180      9184      9186
      9183      9180      9184      9187      9183      9181      9190      9187
      9183      9181      9190      9191      9183      9181      9190      9192
      9183      9181      9193      9194      9183      9181      9193      9195
      9183      9181      9193      9197      9184      9187      9189      9205
      9184      9187      9190      9191      9184      9187      9190      9192
      9185      9184      9187      9188      9185      9184      9187      9189
      9185      9184      9187      9190      9186      9184      9187      9188
      9186      9184      9187      9189      9186      9184      9187      9190
      9187      9189      9205      9202      9187      9189      9205      9208
      9187      9189      9205      9209      9187      9190      9181      9193
      9187      9190      9192      9229      9188      9187      9189      9205
      9188      9187      9190      9191      9188      9187      9190      9192
      9189      9187      9190      9191      9189      9187      9190      9192
      9189      9205      9202      9203      9189      9205      9202      9204
      9189      9205      9208      9206      9189      9205      9209      9210
      9189      9205      9209      9211      9189      9205      9209      9212
      9190      9181      9193      9194      9190      9181      9193      9195
      9190      9181      9193      9197      9190      9187      9189      9205
      9190      9192      9229      9230      9190      9192      9229      9233
      9190      9192      9229      9234      9191      9190      9181      9193
      9191      9190      9192      9229      9192      9190      9181      9193
      9192      9229      9233      9231      9192      9229      9234      9235
      9192      9229      9234      9236      9192      9229      9234      9238
      9193      9197      9200      9201      9194      9193      9195      9196
      9194      9193      9197      9198      9194      9193      9197      9199
      9194      9193      9197      9200      9195      9193      9197      9198
      9195      9193      9197      9199      9195      9193      9197      9200
      9196      9195      9193      9197      9198      9197      9200      9201
      9199      9197      9200      9201      9202      9205      9208      9206
      9202      9205      9209      9210      9202      9205      9209      9211
      9202      9205      9209      9212      9203      9202      9205      9208
      9203      9202      9205      9209      9204      9202      9205      9208
      9204      9202      9205      9209      9205      9208      9206      9207
      9205      9208      9206      9216      9205      9208      9206      9220
      9205      9209      9212      9213      9205      9209      9212      9214
      9205      9209      9212      9216      9206      9208      9205      9209
      9206      9216      9212      9209      9206      9216      9212      9213
      9206      9216      9212      9214      9206      9216      9218      9219
      9206      9220      9222      9223      9206      9220      9224      9225
      9206      9220      9224      9226      9206      9220      9224      9227
      9207      9206      9216      9212      9207      9206      9216      9217
      9207      9206      9216      9218      9207      9206      9220      9221
      9207      9206      9220      9222      9207      9206      9220      9224
      9208      9205      9209      9210      9208      9205      9209      9211
      9208      9205      9209      9212      9208      9206      9216      9212
      9208      9206      9216      9217      9208      9206      9216      9218
      9208      9206      9220      9221      9208      9206      9220      9222
      9208      9206      9220      9224      9209      9212      9214      9215
      9209      9212      9216      9217      9209      9212      9216      9218
      9210      9209      9212      9213      9210      9209      9212      9214
      9210      9209      9212      9216      9211      9209      9212      9213
      9211      9209      9212      9214      9211      9209      9212      9216
      9212      9216      9206      9220      9212      9216      9218      9219
      9213      9212      9214      9215      9213      9212      9216      9217
      9213      9212      9216      9218      9214      9212      9216      9217
      9214      9212      9216      9218      9215      9214      9212      9216
      9216      9206      9220      9221      9216      9206      9220      9222
      9216      9206      9220      9224      9217      9216      9206      9220
      9217      9216      9218      9219      9218      9216      9206      9220
      9220      9224      9227      9228      9221      9220      9222      9223
      9221      9220      9224      9225      9221      9220      9224      9226
      9221      9220      9224      9227      9222      9220      9224      9225
      9222      9220      9224      9226      9222      9220      9224      9227
      9223      9222      9220      9224      9225      9224      9227      9228
      9226      9224      9227      9228      9229      9233      9231      9232
      9229      9233      9231      9241      9229      9233      9231      9248
      9229      9234      9236      9237      9229      9234      9238      9239
      9229      9234      9238      9240      9229      9234      9238      9241
      9230      9229      9233      9231      9230      9229      9234      9235
      9230      9229      9234      9236      9230      9229      9234      9238
      9231      9233      9229      9234      9231      9241      9238      9234
      9231      9241      9238      9239      9231      9241      9238      9240
      9231      9241      9243      9244      9231      9248      9250      9251
      9231      9248      9252      9253      9231      9248      9252      9254
      9231      9248      9252      9255      9232      9231      9241      9238
      9232      9231      9241      9242      9232      9231      9241      9243
      9232      9231      9248      9249      9232      9231      9248      9250
      9232      9231      9248      9252      9233      9229      9234      9235
      9233      9229      9234      9236      9233      9229      9234      9238
      9233      9231      9241      9238      9233      9231      9241      9242
      9233      9231      9241      9243      9233      9231      9248      9249
      9233      9231      9248      9250      9233      9231      9248      9252
      9234      9238      9240      9257      9234      9238      9241      9242
      9234      9238      9241      9243      9235      9234      9236      9237
      9235      9234      9238      9239      9235      9234      9238      9240
      9235      9234      9238      9241      9236      9234      9238      9239
      9236      9234      9238      9240      9236      9234      9238      9241
      9237      9236      9234      9238      9238      9240      9257      9258
      9238      9240      9257      9261      9238      9240      9257      9262
      9238      9241      9231      9248      9238      9241      9243      9244
      9239      9238      9240      9257      9239      9238      9241      9242
      9239      9238      9241      9243      9240      9238      9241      9242
      9240      9238      9241      9243      9240      9257      9261      9259
      9240      9257      9262      9263      9240      9257      9262      9264
      9240      9257      9262      9266      9241      9231      9248      9249
      9241      9231      9248      9250      9241      9231      9248      9252
      9241      9238      9240      9257      9241      9243      9244      9245
      9241      9243      9244      9246      9241      9243      9244      9247
      9242      9241      9231      9248      9242      9241      9243      9244
      9243      9241      9231      9248      9248      9252      9255      9256
      9249      9248      9250      9251      9249      9248      9252      9253
      9249      9248      9252      9254      9249      9248      9252      9255
      9250      9248      9252      9253      9250      9248      9252      9254
      9250      9248      9252      9255      9251      9250      9248      9252
      9253      9252      9255      9256      9254      9252      9255      9256
      9257      9261      9259      9260      9257      9261      9259      9269
      9257      9261      9259      9276      9257      9262      9264      9265
      9257      9262      9266      9267      9257      9262      9266      9268
      9257      9262      9266      9269      9258      9257      9261      9259
      9258      9257      9262      9263      9258      9257      9262      9264
      9258      9257      9262      9266      9259      9261      9257      9262
      9259      9269      9266      9262      9259      9269      9266      9267
      9259      9269      9266      9268      9259      9269      9271      9272
      9259      9276      9278      9279      9259      9276      9280      9281
      9259      9276      9280      9282      9259      9276      9280      9283
      9260      9259      9269      9266      9260      9259      9269      9270
      9260      9259      9269      9271      9260      9259      9276      9277
      9260      9259      9276      9278      9260      9259      9276      9280
      9261      9257      9262      9263      9261      9257      9262      9264
      9261      9257      9262      9266      9261      9259      9269      9266
      9261      9259      9269      9270      9261      9259      9269      9271
      9261      9259      9276      9277      9261      9259      9276      9278
      9261      9259      9276      9280      9262      9266      9268      9310
      9262      9266      9269      9270      9262      9266      9269      9271
      9263      9262      9264      9265      9263      9262      9266      9267
      9263      9262      9266      9268      9263      9262      9266      9269
      9264      9262      9266      9267      9264      9262      9266      9268
      9264      9262      9266      9269      9265      9264      9262      9266
      9266      9268      9310      9311      9266      9268      9310      9314
      9266      9268      9310      9315      9266      9269      9259      9276
      9266      9269      9271      9272      9267      9266      9268      9310
      9267      9266      9269      9270      9267      9266      9269      9271
      9268      9266      9269      9270      9268      9266      9269      9271
      9268      9310      9314      9312      9268      9310      9315      9316
      9268      9310      9315      9317      9268      9310      9315      9319
      9269      9259      9276      9277      9269      9259      9276      9278
      9269      9259      9276      9280      9269      9266      9268      9310
      9269      9271      9272      9273      9269      9271      9272      9274
      9269      9271      9272      9275      9270      9269      9259      9276
      9270      9269      9271      9272      9271      9269      9259      9276
      9276      9280      9283      9284      9277      9276      9278      9279
      9277      9276      9280      9281      9277      9276      9280      9282
      9277      9276      9280      9283      9278      9276      9280      9281
      9278      9276      9280      9282      9278      9276      9280      9283
      9279      9278      9276      9280      9280      9283      9284      9285
      9280      9283      9284      9288      9280      9283      9284      9289
      9281      9280      9283      9284      9282      9280      9283      9284
      9283      9284      9288      9286      9283      9284      9289      9290
      9283      9284      9289      9291      9283      9284      9289      9293
      9284      9288      9286      9287      9284      9288      9286      9297
      9284      9288      9286      9301      9284      9289      9291      9292
      9284      9289      9293      9294      9284      9289      9293      9295
      9284      9289      9293      9297      9285      9284      9288      9286
      9285      9284      9289      9290      9285      9284      9289      9291
      9285      9284      9289      9293      9286      9288      9284      9289
      9286      9297      9293      9289      9286      9297      9293      9294
      9286      9297      9293      9295      9286      9297      9299      9300
      9286      9301      9303      9304      9286      9301      9305      9306
      9286      9301      9305      9307      9286      9301      9305      9308
      9287      9286      9297      9293      9287      9286      9297      9298
      9287      9286      9297      9299      9287      9286      9301      9302
      9287      9286      9301      9303      9287      9286      9301      9305
      9288      9284      9289      9290      9288      9284      9289      9291
      9288      9284      9289      9293      9288      9286      9297      9293
      9288      9286      9297      9298      9288      9286      9297      9299
      9288      9286      9301      9302      9288      9286      9301      9303
      9288      9286      9301      9305      9289      9293      9295      9296
      9289      9293      9297      9298      9289      9293      9297      9299
      9290      9289      9291      9292      9290      9289      9293      9294
      9290      9289      9293      9295      9290      9289      9293      9297
      9291      9289      9293      9294      9291      9289      9293      9295
      9291      9289      9293      9297      9292      9291      9289      9293
      9293      9297      9286      9301      9293      9297      9299      9300
      9294      9293      9295      9296      9294      9293      9297      9298
      9294      9293      9297      9299      9295      9293      9297      9298
      9295      9293      9297      9299      9296      9295      9293      9297
      9297      9286      9301      9302      9297      9286      9301      9303
      9297      9286      9301      9305      9298      9297      9286      9301
      9298      9297      9299      9300      9299      9297      9286      9301
      9301      9305      9308      9309      9302      9301      9303      9304
      9302      9301      9305      9306      9302      9301      9305      9307
      9302      9301      9305      9308      9303      9301      9305      9306
      9303      9301      9305      9307      9303      9301      9305      9308
      9304      9303      9301      9305      9306      9305      9308      9309
      9307      9305      9308      9309      9310      9314      9312      9313
      9310      9314      9312      9322      9310      9314      9312      9326
      9310      9315      9317      9318      9310      9315      9319      9320
      9310      9315      9319      9321      9310      9315      9319      9322
      9311      9310      9314      9312      9311      9310      9315      9316
      9311      9310      9315      9317      9311      9310      9315      9319
      9312      9314      9310      9315      9312      9322      9319      9315
      9312      9322      9319      9320      9312      9322      9319      9321
      9312      9322      9324      9325      9312      9326      9329      9330
      9313      9312      9322      9319      9313      9312      9322      9323
      9313      9312      9322      9324      9313      9312      9326      9327
      9313      9312      9326      9328      9313      9312      9326      9329
      9314      9310      9315      9316      9314      9310      9315      9317
      9314      9310      9315      9319      9314      9312      9322      9319
      9314      9312      9322      9323      9314      9312      9322      9324
      9314      9312      9326      9327      9314      9312      9326      9328
      9314      9312      9326      9329      9315      9319      9321      9331
      9315      9319      9322      9323      9315      9319      9322      9324
      9316      9315      9317      9318      9316      9315      9319      9320
      9316      9315      9319      9321      9316      9315      9319      9322
      9317      9315      9319      9320      9317      9315      9319      9321
      9317      9315      9319      9322      9318      9317      9315      9319
      9319      9321      9331      9332      9319      9321      9331      9335
      9319      9321      9331      9336      9319      9322      9312      9326
      9319      9322      9324      9325      9320      9319      9321      9331
      9320      9319      9322      9323      9320      9319      9322      9324
      9321      9319      9322      9323      9321      9319      9322      9324
      9321      9331      9335      9333      9321      9331      9336      9337
      9321      9331      9336      9338      9321      9331      9336      9339
      9322      9312      9326      9327      9322      9312      9326      9328
      9322      9312      9326      9329      9322      9319      9321      9331
      9323      9322      9312      9326      9323      9322      9324      9325
      9324      9322      9312      9326      9327      9326      9329      9330
      9328      9326      9329      9330      9331      9335      9333      9334
      9331      9335      9333      9342      9331      9335      9333      9346
      9331      9336      9338      9351      9331      9336      9339      9340
      9331      9336      9339      9341      9331      9336      9339      9342
      9332      9331      9335      9333      9332      9331      9336      9337
      9332      9331      9336      9338      9332      9331      9336      9339
      9333      9335      9331      9336      9333      9342      9339      9336
      9333      9342      9339      9340      9333      9342      9339      9341
      9333      9342      9344      9345      9333      9346      9349      9350
      9334      9333      9342      9339      9334      9333      9342      9343
      9334      9333      9342      9344      9334      9333      9346      9347
      9334      9333      9346      9348      9334      9333      9346      9349
      9335      9331      9336      9337      9335      9331      9336      9338
      9335      9331      9336      9339      9335      9333      9342      9339
      9335      9333      9342      9343      9335      9333      9342      9344
      9335      9333      9346      9347      9335      9333      9346      9348
      9335      9333      9346      9349      9336      9338      9351      9352
      9336      9338      9351      9355      9336      9338      9351      9356
      9336      9339      9341      9394      9336      9339      9342      9343
      9336      9339      9342      9344      9337      9336      9338      9351
      9337      9336      9339      9340      9337      9336      9339      9341
      9337      9336      9339      9342      9338      9336      9339      9340
      9338      9336      9339      9341      9338      9336      9339      9342
      9338      9351      9355      9353      9338      9351      9356      9357
      9338      9351      9356      9358      9338      9351      9356      9359
      9339      9336      9338      9351      9339      9341      9394      9395
      9339      9341      9394      9398      9339      9341      9394      9399
      9339      9342      9333      9346      9339      9342      9344      9345
      9340      9339      9341      9394      9340      9339      9342      9343
      9340      9339      9342      9344      9341      9339      9342      9343
      9341      9339      9342      9344      9341      9394      9398      9396
      9341      9394      9399      9400      9341      9394      9399      9401
      9341      9394      9399      9403      9342      9333      9346      9347
      9342      9333      9346      9348      9342      9333      9346      9349
      9342      9339      9341      9394      9343      9342      9333      9346
      9343      9342      9344      9345      9344      9342      9333      9346
      9347      9346      9349      9350      9348      9346      9349      9350
      9351      9355      9353      9354      9351      9355      9353      9363
      9351      9355      9353      9367      9351      9356      9358      9372
      9351      9356      9359      9360      9351      9356      9359      9361
      9351      9356      9359      9363      9352      9351      9355      9353
      9352      9351      9356      9357      9352      9351      9356      9358
      9352      9351      9356      9359      9353      9355      9351      9356
      9353      9363      9359      9356      9353      9363      9359      9360
      9353      9363      9359      9361      9353      9363      9365      9366
      9353      9367      9370      9371      9354      9353      9363      9359
      9354      9353      9363      9364      9354      9353      9363      9365
      9354      9353      9367      9368      9354      9353      9367      9369
      9354      9353      9367      9370      9355      9351      9356      9357
      9355      9351      9356      9358      9355      9351      9356      9359
      9355      9353      9363      9359      9355      9353      9363      9364
      9355      9353      9363      9365      9355      9353      9367      9368
      9355      9353      9367      9369      9355      9353      9367      9370
      9356      9358      9372      9373      9356      9358      9372      9376
      9356      9358      9372      9377      9356      9359      9361      9362
      9356      9359      9363      9364      9356      9359      9363      9365
      9357      9356      9358      9372      9357      9356      9359      9360
      9357      9356      9359      9361      9357      9356      9359      9363
      9358      9356      9359      9360      9358      9356      9359      9361
      9358      9356      9359      9363      9358      9372      9376      9374
      9358      9372      9377      9378      9358      9372      9377      9379
      9358      9372      9377      9381      9359      9356      9358      9372
      9359      9363      9353      9367      9359      9363      9365      9366
      9360      9359      9361      9362      9360      9359      9363      9364
      9360      9359      9363      9365      9361      9359      9363      9364
      9361      9359      9363      9365      9362      9361      9359      9363
      9363      9353      9367      9368      9363      9353      9367      9369
      9363      9353      9367      9370      9364      9363      9353      9367
      9364      9363      9365      9366      9365      9363      9353      9367
      9368      9367      9370      9371      9369      9367      9370      9371
      9372      9376      9374      9375      9372      9376      9374      9385
      9372      9376      9374      9389      9372      9377      9379      9380
      9372      9377      9381      9382      9372      9377      9381      9383
      9372      9377      9381      9385      9373      9372      9376      9374
      9373      9372      9377      9378      9373      9372      9377      9379
      9373      9372      9377      9381      9374      9376      9372      9377
      9374      9385      9381      9377      9374      9385      9381      9382
      9374      9385      9381      9383      9374      9385      9387      9388
      9374      9389      9392      9393      9375      9374      9385      9381
      9375      9374      9385      9386      9375      9374      9385      9387
      9375      9374      9389      9390      9375      9374      9389      9391
      9375      9374      9389      9392      9376      9372      9377      9378
      9376      9372      9377      9379      9376      9372      9377      9381
      9376      9374      9385      9381      9376      9374      9385      9386
      9376      9374      9385      9387      9376      9374      9389      9390
      9376      9374      9389      9391      9376      9374      9389      9392
      9377      9381      9383      9384      9377      9381      9385      9386
      9377      9381      9385      9387      9378      9377      9379      9380
      9378      9377      9381      9382      9378      9377      9381      9383
      9378      9377      9381      9385      9379      9377      9381      9382
      9379      9377      9381      9383      9379      9377      9381      9385
      9380      9379      9377      9381      9381      9385      9374      9389
      9381      9385      9387      9388      9382      9381      9383      9384
      9382      9381      9385      9386      9382      9381      9385      9387
      9383      9381      9385      9386      9383      9381      9385      9387
      9384      9383      9381      9385      9385      9374      9389      9390
      9385      9374      9389      9391      9385      9374      9389      9392
      9386      9385      9374      9389      9386      9385      9387      9388
      9387      9385      9374      9389      9390      9389      9392      9393
      9391      9389      9392      9393      9394      9398      9396      9397
      9394      9398      9396      9406      9394      9398      9396      9410
      9394      9399      9401      9402      9394      9399      9403      9404
      9394      9399      9403      9405      9394      9399      9403      9406
      9395      9394      9398      9396      9395      9394      9399      9400
      9395      9394      9399      9401      9395      9394      9399      9403
      9396      9398      9394      9399      9396      9406      9403      9399
      9396      9406      9403      9404      9396      9406      9403      9405
      9396      9406      9408      9409      9396      9410      9413      9414
      9397      9396      9406      9403      9397      9396      9406      9407
      9397      9396      9406      9408      9397      9396      9410      9411
      9397      9396      9410      9412      9397      9396      9410      9413
      9398      9394      9399      9400      9398      9394      9399      9401
      9398      9394      9399      9403      9398      9396      9406      9403
      9398      9396      9406      9407      9398      9396      9406      9408
      9398      9396      9410      9411      9398      9396      9410      9412
      9398      9396      9410      9413      9399      9403      9405      9415
      9399      9403      9406      9407      9399      9403      9406      9408
      9400      9399      9401      9402      9400      9399      9403      9404
      9400      9399      9403      9405      9400      9399      9403      9406
      9401      9399      9403      9404      9401      9399      9403      9405
      9401      9399      9403      9406      9402      9401      9399      9403
      9403      9405      9415      9416      9403      9405      9415      9419
      9403      9405      9415      9420      9403      9406      9396      9410
      9403      9406      9408      9409      9404      9403      9405      9415
      9404      9403      9406      9407      9404      9403      9406      9408
      9405      9403      9406      9407      9405      9403      9406      9408
      9405      9415      9419      9417      9405      9415      9420      9421
      9405      9415      9420      9422      9405      9415      9420      9430
      9406      9396      9410      9411      9406      9396      9410      9412
      9406      9396      9410      9413      9406      9403      9405      9415
      9407      9406      9396      9410      9407      9406      9408      9409
      9408      9406      9396      9410      9411      9410      9413      9414
      9412      9410      9413      9414      9415      9419      9417      9418
      9415      9419      9417      9433      9415      9419      9417      9437
      9415      9420      9422      9423      9415      9420      9422      9424
      9415      9420      9430      9431      9415      9420      9430      9432
      9415      9420      9430      9433      9416      9415      9419      9417
      9416      9415      9420      9421      9416      9415      9420      9422
      9416      9415      9420      9430      9417      9419      9415      9420
      9417      9433      9430      9420      9417      9433      9430      9431
      9417      9433      9430      9432      9417      9433      9435      9436
      9417      9437      9440      9441      9418      9417      9433      9430
      9418      9417      9433      9434      9418      9417      9433      9435
      9418      9417      9437      9438      9418      9417      9437      9439
      9418      9417      9437      9440      9419      9415      9420      9421
      9419      9415      9420      9422      9419      9415      9420      9430
      9419      9417      9433      9430      9419      9417      9433      9434
      9419      9417      9433      9435      9419      9417      9437      9438
      9419      9417      9437      9439      9419      9417      9437      9440
      9420      9422      9424      9425      9420      9422      9424      9426
      9420      9430      9432      9442      9420      9430      9433      9434
      9420      9430      9433      9435      9421      9420      9422      9423
      9421      9420      9422      9424      9421      9420      9430      9431
      9421      9420      9430      9432      9421      9420      9430      9433
      9422      9420      9430      9431      9422      9420      9430      9432
      9422      9420      9430      9433      9422      9424      9426      9427
      9422      9424      9426      9428      9422      9424      9426      9429
      9423      9422      9420      9430      9423      9422      9424      9425
      9423      9422      9424      9426      9424      9422      9420      9430
      9425      9424      9426      9427      9425      9424      9426      9428
      9425      9424      9426      9429      9430      9432      9442      9443
      9430      9432      9442      9446      9430      9432      9442      9447
      9430      9433      9417      9437      9430      9433      9435      9436
      9431      9430      9432      9442      9431      9430      9433      9434
      9431      9430      9433      9435      9432      9430      9433      9434
      9432      9430      9433      9435      9432      9442      9446      9444
      9432      9442      9447      9448      9432      9442      9447      9449
      9432      9442      9447      9450      9433      9417      9437      9438
      9433      9417      9437      9439      9433      9417      9437      9440
      9433      9430      9432      9442      9434      9433      9417      9437
      9434      9433      9435      9436      9435      9433      9417      9437
      9438      9437      9440      9441      9439      9437      9440      9441
      9442      9446      9444      9445      9442      9446      9444      9454
      9442      9446      9444      9458      9442      9447      9449      9463
      9442      9447      9450      9451      9442      9447      9450      9452
      9442      9447      9450      9454      9443      9442      9446      9444
      9443      9442      9447      9448      9443      9442      9447      9449
      9443      9442      9447      9450      9444      9446      9442      9447
      9444      9454      9450      9447      9444      9454      9450      9451
      9444      9454      9450      9452      9444      9454      9456      9457
      9444      9458      9461      9462      9445      9444      9454      9450
      9445      9444      9454      9455      9445      9444      9454      9456
      9445      9444      9458      9459      9445      9444      9458      9460
      9445      9444      9458      9461      9446      9442      9447      9448
      9446      9442      9447      9449      9446      9442      9447      9450
      9446      9444      9454      9450      9446      9444      9454      9455
      9446      9444      9454      9456      9446      9444      9458      9459
      9446      9444      9458      9460      9446      9444      9458      9461
      9447      9449      9463      9464      9447      9449      9463      9467
      9447      9449      9463      9468      9447      9450      9452      9453
      9447      9450      9454      9455      9447      9450      9454      9456
      9448      9447      9449      9463      9448      9447      9450      9451
      9448      9447      9450      9452      9448      9447      9450      9454
      9449      9447      9450      9451      9449      9447      9450      9452
      9449      9447      9450      9454      9449      9463      9467      9465
      9449      9463      9468      9469      9449      9463      9468      9470
      9449      9463      9468      9471      9450      9447      9449      9463
      9450      9454      9444      9458      9450      9454      9456      9457
      9451      9450      9452      9453      9451      9450      9454      9455
      9451      9450      9454      9456      9452      9450      9454      9455
      9452      9450      9454      9456      9453      9452      9450      9454
      9454      9444      9458      9459      9454      9444      9458      9460
      9454      9444      9458      9461      9455      9454      9444      9458
      9455      9454      9456      9457      9456      9454      9444      9458
      9459      9458      9461      9462      9460      9458      9461      9462
      9463      9467      9465      9466      9463      9467      9465      9475
      9463      9467      9465      9479      9463      9468      9470      9483
      9463      9468      9471      9472      9463      9468      9471      9473
      9463      9468      9471      9475      9464      9463      9467      9465
      9464      9463      9468      9469      9464      9463      9468      9470
      9464      9463      9468      9471      9465      9467      9463      9468
      9465      9475      9471      9468      9465      9475      9471      9472
      9465      9475      9471      9473      9465      9475      9477      9478
      9466      9465      9475      9471      9466      9465      9475      9476
      9466      9465      9475      9477      9466      9465      9479      9480
      9466      9465      9479      9481      9466      9465      9479      9482
      9467      9463      9468      9469      9467      9463      9468      9470
      9467      9463      9468      9471      9467      9465      9475      9471
      9467      9465      9475      9476      9467      9465      9475      9477
      9467      9465      9479      9480      9467      9465      9479      9481
      9467      9465      9479      9482      9468      9470      9483      9484
      9468      9470      9483      9487      9468      9470      9483      9488
      9468      9471      9473      9474      9468      9471      9475      9476
      9468      9471      9475      9477      9469      9468      9470      9483
      9469      9468      9471      9472      9469      9468      9471      9473
      9469      9468      9471      9475      9470      9468      9471      9472
      9470      9468      9471      9473      9470      9468      9471      9475
      9470      9483      9487      9485      9470      9483      9488      9489
      9470      9483      9488      9490      9470      9483      9488      9491
      9471      9468      9470      9483      9471      9475      9465      9479
      9471      9475      9477      9478      9472      9471      9473      9474
      9472      9471      9475      9476      9472      9471      9475      9477
      9473      9471      9475      9476      9473      9471      9475      9477
      9474      9473      9471      9475      9475      9465      9479      9480
      9475      9465      9479      9481      9475      9465      9479      9482
      9476      9475      9465      9479      9476      9475      9477      9478
      9477      9475      9465      9479      9483      9487      9485      9486
      9483      9487      9485      9494      9483      9487      9485      9498
      9483      9488      9490      9502      9483      9488      9491      9492
      9483      9488      9491      9493      9483      9488      9491      9494
      9484      9483      9487      9485      9484      9483      9488      9489
      9484      9483      9488      9490      9484      9483      9488      9491
      9485      9487      9483      9488      9485      9494      9491      9488
      9485      9494      9491      9492      9485      9494      9491      9493
      9485      9494      9496      9497      9486      9485      9494      9491
      9486      9485      9494      9495      9486      9485      9494      9496
      9486      9485      9498      9499      9486      9485      9498      9500
      9486      9485      9498      9501      9487      9483      9488      9489
      9487      9483      9488      9490      9487      9483      9488      9491
      9487      9485      9494      9491      9487      9485      9494      9495
      9487      9485      9494      9496      9487      9485      9498      9499
      9487      9485      9498      9500      9487      9485      9498      9501
      9488      9490      9502      9503      9488      9490      9502      9506
      9488      9490      9502      9507      9488      9491      9493      9530
      9488      9491      9494      9495      9488      9491      9494      9496
      9489      9488      9490      9502      9489      9488      9491      9492
      9489      9488      9491      9493      9489      9488      9491      9494
      9490      9488      9491      9492      9490      9488      9491      9493
      9490      9488      9491      9494      9490      9502      9506      9504
      9490      9502      9507      9508      9490      9502      9507      9509
      9490      9502      9507      9517      9491      9488      9490      9502
      9491      9493      9530      9531      9491      9493      9530      9534
      9491      9493      9530      9535      9491      9494      9485      9498
      9491      9494      9496      9497      9492      9491      9493      9530
      9492      9491      9494      9495      9492      9491      9494      9496
      9493      9491      9494      9495      9493      9491      9494      9496
      9493      9530      9534      9532      9493      9530      9535      9536
      9493      9530      9535      9537      9493      9530      9535      9545
      9494      9485      9498      9499      9494      9485      9498      9500
      9494      9485      9498      9501      9494      9491      9493      9530
      9495      9494      9485      9498      9495      9494      9496      9497
      9496      9494      9485      9498      9502      9506      9504      9505
      9502      9506      9504      9521      9502      9506      9504      9525
      9502      9507      9509      9510      9502      9507      9509      9511
      9502      9507      9517      9518      9502      9507      9517      9519
      9502      9507      9517      9521      9503      9502      9506      9504
      9503      9502      9507      9508      9503      9502      9507      9509
      9503      9502      9507      9517      9504      9506      9502      9507
      9504      9521      9517      9507      9504      9521      9517      9518
      9504      9521      9517      9519      9504      9521      9523      9524
      9504      9525      9528      9529      9505      9504      9521      9517
      9505      9504      9521      9522      9505      9504      9521      9523
      9505      9504      9525      9526      9505      9504      9525      9527
      9505      9504      9525      9528      9506      9502      9507      9508
      9506      9502      9507      9509      9506      9502      9507      9517
      9506      9504      9521      9517      9506      9504      9521      9522
      9506      9504      9521      9523      9506      9504      9525      9526
      9506      9504      9525      9527      9506      9504      9525      9528
      9507      9509      9511      9512      9507      9509      9511      9513
      9507      9517      9519      9520      9507      9517      9521      9522
      9507      9517      9521      9523      9508      9507      9509      9510
      9508      9507      9509      9511      9508      9507      9517      9518
      9508      9507      9517      9519      9508      9507      9517      9521
      9509      9507      9517      9518      9509      9507      9517      9519
      9509      9507      9517      9521      9509      9511      9513      9514
      9509      9511      9513      9515      9509      9511      9513      9516
      9510      9509      9507      9517      9510      9509      9511      9512
      9510      9509      9511      9513      9511      9509      9507      9517
      9512      9511      9513      9514      9512      9511      9513      9515
      9512      9511      9513      9516      9517      9521      9504      9525
      9517      9521      9523      9524      9518      9517      9519      9520
      9518      9517      9521      9522      9518      9517      9521      9523
      9519      9517      9521      9522      9519      9517      9521      9523
      9520      9519      9517      9521      9521      9504      9525      9526
      9521      9504      9525      9527      9521      9504      9525      9528
      9522      9521      9504      9525      9522      9521      9523      9524
      9523      9521      9504      9525      9526      9525      9528      9529
      9527      9525      9528      9529      9530      9534      9532      9533
      9530      9534      9532      9548      9530      9534      9532      9552
      9530      9535      9537      9538      9530      9535      9537      9539
      9530      9535      9545      9546      9530      9535      9545      9547
      9530      9535      9545      9548      9531      9530      9534      9532
      9531      9530      9535      9536      9531      9530      9535      9537
      9531      9530      9535      9545      9532      9534      9530      9535
      9532      9548      9545      9535      9532      9548      9545      9546
      9532      9548      9545      9547      9532      9548      9550      9551
      9532      9552      9555      9556      9533      9532      9548      9545
      9533      9532      9548      9549      9533      9532      9548      9550
      9533      9532      9552      9553      9533      9532      9552      9554
      9533      9532      9552      9555      9534      9530      9535      9536
      9534      9530      9535      9537      9534      9530      9535      9545
      9534      9532      9548      9545      9534      9532      9548      9549
      9534      9532      9548      9550      9534      9532      9552      9553
      9534      9532      9552      9554      9534      9532      9552      9555
      9535      9537      9539      9540      9535      9537      9539      9541
      9535      9545      9547      9557      9535      9545      9548      9549
      9535      9545      9548      9550      9536      9535      9537      9538
      9536      9535      9537      9539      9536      9535      9545      9546
      9536      9535      9545      9547      9536      9535      9545      9548
      9537      9535      9545      9546      9537      9535      9545      9547
      9537      9535      9545      9548      9537      9539      9541      9542
      9537      9539      9541      9543      9537      9539      9541      9544
      9538      9537      9535      9545      9538      9537      9539      9540
      9538      9537      9539      9541      9539      9537      9535      9545
      9540      9539      9541      9542      9540      9539      9541      9543
      9540      9539      9541      9544      9545      9547      9557      9558
      9545      9547      9557      9561      9545      9547      9557      9562
      9545      9548      9532      9552      9545      9548      9550      9551
      9546      9545      9547      9557      9546      9545      9548      9549
      9546      9545      9548      9550      9547      9545      9548      9549
      9547      9545      9548      9550      9547      9557      9561      9559
      9547      9557      9562      9563      9547      9557      9562      9564
      9547      9557      9562      9565      9548      9532      9552      9553
      9548      9532      9552      9554      9548      9532      9552      9555
      9548      9545      9547      9557      9549      9548      9532      9552
      9549      9548      9550      9551      9550      9548      9532      9552
      9553      9552      9555      9556      9554      9552      9555      9556
      9557      9561      9559      9560      9557      9561      9559      9569
      9557      9561      9559      9573      9557      9562      9564      9578
      9557      9562      9565      9566      9557      9562      9565      9567
      9557      9562      9565      9569      9558      9557      9561      9559
      9558      9557      9562      9563      9558      9557      9562      9564
      9558      9557      9562      9565      9559      9561      9557      9562
      9559      9569      9565      9562      9559      9569      9565      9566
      9559      9569      9565      9567      9559      9569      9571      9572
      9559      9573      9576      9577      9560      9559      9569      9565
      9560      9559      9569      9570      9560      9559      9569      9571
      9560      9559      9573      9574      9560      9559      9573      9575
      9560      9559      9573      9576      9561      9557      9562      9563
      9561      9557      9562      9564      9561      9557      9562      9565
      9561      9559      9569      9565      9561      9559      9569      9570
      9561      9559      9569      9571      9561      9559      9573      9574
      9561      9559      9573      9575      9561      9559      9573      9576
      9562      9564      9578      9579      9562      9564      9578      9582
      9562      9564      9578      9583      9562      9565      9567      9568
      9562      9565      9569      9570      9562      9565      9569      9571
      9563      9562      9564      9578      9563      9562      9565      9566
      9563      9562      9565      9567      9563      9562      9565      9569
      9564      9562      9565      9566      9564      9562      9565      9567
      9564      9562      9565      9569      9564      9578      9582      9580
      9564      9578      9583      9584      9564      9578      9583      9585
      9564      9578      9583      9586      9565      9562      9564      9578
      9565      9569      9559      9573      9565      9569      9571      9572
      9566      9565      9567      9568      9566      9565      9569      9570
      9566      9565      9569      9571      9567      9565      9569      9570
      9567      9565      9569      9571      9568      9567      9565      9569
      9569      9559      9573      9574      9569      9559      9573      9575
      9569      9559      9573      9576      9570      9569      9559      9573
      9570      9569      9571      9572      9571      9569      9559      9573
      9574      9573      9576      9577      9575      9573      9576      9577
      9578      9582      9580      9581      9578      9582      9580      9590
      9578      9582      9580      9594      9578      9583      9585      9598
      9578      9583      9586      9587      9578      9583      9586      9588
      9578      9583      9586      9590      9579      9578      9582      9580
      9579      9578      9583      9584      9579      9578      9583      9585
      9579      9578      9583      9586      9580      9582      9578      9583
      9580      9590      9586      9583      9580      9590      9586      9587
      9580      9590      9586      9588      9580      9590      9592      9593
      9581      9580      9590      9586      9581      9580      9590      9591
      9581      9580      9590      9592      9581      9580      9594      9595
      9581      9580      9594      9596      9581      9580      9594      9597
      9582      9578      9583      9584      9582      9578      9583      9585
      9582      9578      9583      9586      9582      9580      9590      9586
      9582      9580      9590      9591      9582      9580      9590      9592
      9582      9580      9594      9595      9582      9580      9594      9596
      9582      9580      9594      9597      9583      9585      9598      9599
      9583      9585      9598      9602      9583      9585      9598      9603
      9583      9586      9588      9589      9583      9586      9590      9591
      9583      9586      9590      9592      9584      9583      9585      9598
      9584      9583      9586      9587      9584      9583      9586      9588
      9584      9583      9586      9590      9585      9583      9586      9587
      9585      9583      9586      9588      9585      9583      9586      9590
      9585      9598      9602      9600      9585      9598      9603      9604
      9585      9598      9603      9605      9585      9598      9603      9606
      9586      9583      9585      9598      9586      9590      9580      9594
      9586      9590      9592      9593      9587      9586      9588      9589
      9587      9586      9590      9591      9587      9586      9590      9592
      9588      9586      9590      9591      9588      9586      9590      9592
      9589      9588      9586      9590      9590      9580      9594      9595
      9590      9580      9594      9596      9590      9580      9594      9597
      9591      9590      9580      9594      9591      9590      9592      9593
      9592      9590      9580      9594      9598      9602      9600      9601
      9598      9602      9600      9609      9598      9602      9600      9613
      9598      9603      9605      9617      9598      9603      9606      9607
      9598      9603      9606      9608      9598      9603      9606      9609
      9599      9598      9602      9600      9599      9598      9603      9604
      9599      9598      9603      9605      9599      9598      9603      9606
      9600      9602      9598      9603      9600      9609      9606      9603
      9600      9609      9606      9607      9600      9609      9606      9608
      9600      9609      9611      9612      9601      9600      9609      9606
      9601      9600      9609      9610      9601      9600      9609      9611
      9601      9600      9613      9614      9601      9600      9613      9615
      9601      9600      9613      9616      9602      9598      9603      9604
      9602      9598      9603      9605      9602      9598      9603      9606
      9602      9600      9609      9606      9602      9600      9609      9610
      9602      9600      9609      9611      9602      9600      9613      9614
      9602      9600      9613      9615      9602      9600      9613      9616
      9603      9605      9617      9618      9603      9605      9617      9621
      9603      9605      9617      9622      9603      9606      9608      9645
      9603      9606      9609      9610      9603      9606      9609      9611
      9604      9603      9605      9617      9604      9603      9606      9607
      9604      9603      9606      9608      9604      9603      9606      9609
      9605      9603      9606      9607      9605      9603      9606      9608
      9605      9603      9606      9609      9605      9617      9621      9619
      9605      9617      9622      9623      9605      9617      9622      9624
      9605      9617      9622      9632      9606      9603      9605      9617
      9606      9608      9645      9646      9606      9608      9645      9649
      9606      9608      9645      9650      9606      9609      9600      9613
      9606      9609      9611      9612      9607      9606      9608      9645
      9607      9606      9609      9610      9607      9606      9609      9611
      9608      9606      9609      9610      9608      9606      9609      9611
      9608      9645      9649      9647      9608      9645      9650      9651
      9608      9645      9650      9652      9608      9645      9650      9660
      9609      9600      9613      9614      9609      9600      9613      9615
      9609      9600      9613      9616      9609      9606      9608      9645
      9610      9609      9600      9613      9610      9609      9611      9612
      9611      9609      9600      9613      9617      9621      9619      9620
      9617      9621      9619      9636      9617      9621      9619      9640
      9617      9622      9624      9625      9617      9622      9624      9626
      9617      9622      9632      9633      9617      9622      9632      9634
      9617      9622      9632      9636      9618      9617      9621      9619
      9618      9617      9622      9623      9618      9617      9622      9624
      9618      9617      9622      9632      9619      9621      9617      9622
      9619      9636      9632      9622      9619      9636      9632      9633
      9619      9636      9632      9634      9619      9636      9638      9639
      9619      9640      9643      9644      9620      9619      9636      9632
      9620      9619      9636      9637      9620      9619      9636      9638
      9620      9619      9640      9641      9620      9619      9640      9642
      9620      9619      9640      9643      9621      9617      9622      9623
      9621      9617      9622      9624      9621      9617      9622      9632
      9621      9619      9636      9632      9621      9619      9636      9637
      9621      9619      9636      9638      9621      9619      9640      9641
      9621      9619      9640      9642      9621      9619      9640      9643
      9622      9624      9626      9627      9622      9624      9626      9628
      9622      9632      9634      9635      9622      9632      9636      9637
      9622      9632      9636      9638      9623      9622      9624      9625
      9623      9622      9624      9626      9623      9622      9632      9633
      9623      9622      9632      9634      9623      9622      9632      9636
      9624      9622      9632      9633      9624      9622      9632      9634
      9624      9622      9632      9636      9624      9626      9628      9629
      9624      9626      9628      9630      9624      9626      9628      9631
      9625      9624      9622      9632      9625      9624      9626      9627
      9625      9624      9626      9628      9626      9624      9622      9632
      9627      9626      9628      9629      9627      9626      9628      9630
      9627      9626      9628      9631      9632      9636      9619      9640
      9632      9636      9638      9639      9633      9632      9634      9635
      9633      9632      9636      9637      9633      9632      9636      9638
      9634      9632      9636      9637      9634      9632      9636      9638
      9635      9634      9632      9636      9636      9619      9640      9641
      9636      9619      9640      9642      9636      9619      9640      9643
      9637      9636      9619      9640      9637      9636      9638      9639
      9638      9636      9619      9640      9641      9640      9643      9644
      9642      9640      9643      9644      9645      9649      9647      9648
      9645      9649      9647      9663      9645      9649      9647      9667
      9645      9650      9652      9653      9645      9650      9652      9654
      9645      9650      9660      9661      9645      9650      9660      9662
      9645      9650      9660      9663      9646      9645      9649      9647
      9646      9645      9650      9651      9646      9645      9650      9652
      9646      9645      9650      9660      9647      9649      9645      9650
      9647      9663      9660      9650      9647      9663      9660      9661
      9647      9663      9660      9662      9647      9663      9665      9666
      9647      9667      9670      9671      9648      9647      9663      9660
      9648      9647      9663      9664      9648      9647      9663      9665
      9648      9647      9667      9668      9648      9647      9667      9669
      9648      9647      9667      9670      9649      9645      9650      9651
      9649      9645      9650      9652      9649      9645      9650      9660
      9649      9647      9663      9660      9649      9647      9663      9664
      9649      9647      9663      9665      9649      9647      9667      9668
      9649      9647      9667      9669      9649      9647      9667      9670
      9650      9652      9654      9655      9650      9652      9654      9656
      9650      9660      9662      9672      9650      9660      9663      9664
      9650      9660      9663      9665      9651      9650      9652      9653
      9651      9650      9652      9654      9651      9650      9660      9661
      9651      9650      9660      9662      9651      9650      9660      9663
      9652      9650      9660      9661      9652      9650      9660      9662
      9652      9650      9660      9663      9652      9654      9656      9657
      9652      9654      9656      9658      9652      9654      9656      9659
      9653      9652      9650      9660      9653      9652      9654      9655
      9653      9652      9654      9656      9654      9652      9650      9660
      9655      9654      9656      9657      9655      9654      9656      9658
      9655      9654      9656      9659      9660      9662      9672      9673
      9660      9662      9672      9676      9660      9662      9672      9677
      9660      9663      9647      9667      9660      9663      9665      9666
      9661      9660      9662      9672      9661      9660      9663      9664
      9661      9660      9663      9665      9662      9660      9663      9664
      9662      9660      9663      9665      9662      9672      9676      9674
      9662      9672      9677      9678      9662      9672      9677      9679
      9662      9672      9677      9680      9663      9647      9667      9668
      9663      9647      9667      9669      9663      9647      9667      9670
      9663      9660      9662      9672      9664      9663      9647      9667
      9664      9663      9665      9666      9665      9663      9647      9667
      9668      9667      9670      9671      9669      9667      9670      9671
      9672      9676      9674      9675      9672      9676      9674      9684
      9672      9676      9674      9688      9672      9677      9679      9693
      9672      9677      9680      9681      9672      9677      9680      9682
      9672      9677      9680      9684      9673      9672      9676      9674
      9673      9672      9677      9678      9673      9672      9677      9679
      9673      9672      9677      9680      9674      9676      9672      9677
      9674      9684      9680      9677      9674      9684      9680      9681
      9674      9684      9680      9682      9674      9684      9686      9687
      9674      9688      9691      9692      9675      9674      9684      9680
      9675      9674      9684      9685      9675      9674      9684      9686
      9675      9674      9688      9689      9675      9674      9688      9690
      9675      9674      9688      9691      9676      9672      9677      9678
      9676      9672      9677      9679      9676      9672      9677      9680
      9676      9674      9684      9680      9676      9674      9684      9685
      9676      9674      9684      9686      9676      9674      9688      9689
      9676      9674      9688      9690      9676      9674      9688      9691
      9677      9679      9693      9694      9677      9679      9693      9697
      9677      9679      9693      9698      9677      9680      9682      9683
      9677      9680      9684      9685      9677      9680      9684      9686
      9678      9677      9679      9693      9678      9677      9680      9681
      9678      9677      9680      9682      9678      9677      9680      9684
      9679      9677      9680      9681      9679      9677      9680      9682
      9679      9677      9680      9684      9679      9693      9697      9695
      9679      9693      9698      9699      9679      9693      9698      9700
      9679      9693      9698      9701      9680      9677      9679      9693
      9680      9684      9674      9688      9680      9684      9686      9687
      9681      9680      9682      9683      9681      9680      9684      9685
      9681      9680      9684      9686      9682      9680      9684      9685
      9682      9680      9684      9686      9683      9682      9680      9684
      9684      9674      9688      9689      9684      9674      9688      9690
      9684      9674      9688      9691      9685      9684      9674      9688
      9685      9684      9686      9687      9686      9684      9674      9688
      9689      9688      9691      9692      9690      9688      9691      9692
      9693      9697      9695      9696      9693      9697      9695      9705
      9693      9697      9695      9709      9693      9698      9700      9713
      9693      9698      9701      9702      9693      9698      9701      9703
      9693      9698      9701      9705      9694      9693      9697      9695
      9694      9693      9698      9699      9694      9693      9698      9700
      9694      9693      9698      9701      9695      9697      9693      9698
      9695      9705      9701      9698      9695      9705      9701      9702
      9695      9705      9701      9703      9695      9705      9707      9708
      9696      9695      9705      9701      9696      9695      9705      9706
      9696      9695      9705      9707      9696      9695      9709      9710
      9696      9695      9709      9711      9696      9695      9709      9712
      9697      9693      9698      9699      9697      9693      9698      9700
      9697      9693      9698      9701      9697      9695      9705      9701
      9697      9695      9705      9706      9697      9695      9705      9707
      9697      9695      9709      9710      9697      9695      9709      9711
      9697      9695      9709      9712      9698      9700      9713      9714
      9698      9700      9713      9717      9698      9700      9713      9718
      9698      9701      9703      9704      9698      9701      9705      9706
      9698      9701      9705      9707      9699      9698      9700      9713
      9699      9698      9701      9702      9699      9698      9701      9703
      9699      9698      9701      9705      9700      9698      9701      9702
      9700      9698      9701      9703      9700      9698      9701      9705
      9700      9713      9717      9715      9700      9713      9718      9719
      9700      9713      9718      9720      9700      9713      9718      9721
      9701      9698      9700      9713      9701      9705      9695      9709
      9701      9705      9707      9708      9702      9701      9703      9704
      9702      9701      9705      9706      9702      9701      9705      9707
      9703      9701      9705      9706      9703      9701      9705      9707
      9704      9703      9701      9705      9705      9695      9709      9710
      9705      9695      9709      9711      9705      9695      9709      9712
      9706      9705      9695      9709      9706      9705      9707      9708
      9707      9705      9695      9709      9713      9717      9715      9716
      9713      9717      9715      9724      9713      9717      9715      9728
      9713      9718      9720      9732      9713      9718      9721      9722
      9713      9718      9721      9723      9713      9718      9721      9724
      9714      9713      9717      9715      9714      9713      9718      9719
      9714      9713      9718      9720      9714      9713      9718      9721
      9715      9717      9713      9718      9715      9724      9721      9718
      9715      9724      9721      9722      9715      9724      9721      9723
      9715      9724      9726      9727      9716      9715      9724      9721
      9716      9715      9724      9725      9716      9715      9724      9726
      9716      9715      9728      9729      9716      9715      9728      9730
      9716      9715      9728      9731      9717      9713      9718      9719
      9717      9713      9718      9720      9717      9713      9718      9721
      9717      9715      9724      9721      9717      9715      9724      9725
      9717      9715      9724      9726      9717      9715      9728      9729
      9717      9715      9728      9730      9717      9715      9728      9731
      9718      9720      9732      9733      9718      9720      9732      9736
      9718      9720      9732      9737      9718      9721      9723      9760
      9718      9721      9724      9725      9718      9721      9724      9726
      9719      9718      9720      9732      9719      9718      9721      9722
      9719      9718      9721      9723      9719      9718      9721      9724
      9720      9718      9721      9722      9720      9718      9721      9723
      9720      9718      9721      9724      9720      9732      9736      9734
      9720      9732      9737      9738      9720      9732      9737      9739
      9720      9732      9737      9747      9721      9718      9720      9732
      9721      9723      9760      9761      9721      9723      9760      9764
      9721      9723      9760      9765      9721      9724      9715      9728
      9721      9724      9726      9727      9722      9721      9723      9760
      9722      9721      9724      9725      9722      9721      9724      9726
      9723      9721      9724      9725      9723      9721      9724      9726
      9723      9760      9764      9762      9723      9760      9765      9766
      9723      9760      9765      9767      9723      9760      9765      9775
      9724      9715      9728      9729      9724      9715      9728      9730
      9724      9715      9728      9731      9724      9721      9723      9760
      9725      9724      9715      9728      9725      9724      9726      9727
      9726      9724      9715      9728      9732      9736      9734      9735
      9732      9736      9734      9751      9732      9736      9734      9755
      9732      9737      9739      9740      9732      9737      9739      9741
      9732      9737      9747      9748      9732      9737      9747      9749
      9732      9737      9747      9751      9733      9732      9736      9734
      9733      9732      9737      9738      9733      9732      9737      9739
      9733      9732      9737      9747      9734      9736      9732      9737
      9734      9751      9747      9737      9734      9751      9747      9748
      9734      9751      9747      9749      9734      9751      9753      9754
      9734      9755      9758      9759      9735      9734      9751      9747
      9735      9734      9751      9752      9735      9734      9751      9753
      9735      9734      9755      9756      9735      9734      9755      9757
      9735      9734      9755      9758      9736      9732      9737      9738
      9736      9732      9737      9739      9736      9732      9737      9747
      9736      9734      9751      9747      9736      9734      9751      9752
      9736      9734      9751      9753      9736      9734      9755      9756
      9736      9734      9755      9757      9736      9734      9755      9758
      9737      9739      9741      9742      9737      9739      9741      9743
      9737      9747      9749      9750      9737      9747      9751      9752
      9737      9747      9751      9753      9738      9737      9739      9740
      9738      9737      9739      9741      9738      9737      9747      9748
      9738      9737      9747      9749      9738      9737      9747      9751
      9739      9737      9747      9748      9739      9737      9747      9749
      9739      9737      9747      9751      9739      9741      9743      9744
      9739      9741      9743      9745      9739      9741      9743      9746
      9740      9739      9737      9747      9740      9739      9741      9742
      9740      9739      9741      9743      9741      9739      9737      9747
      9742      9741      9743      9744      9742      9741      9743      9745
      9742      9741      9743      9746      9747      9751      9734      9755
      9747      9751      9753      9754      9748      9747      9749      9750
      9748      9747      9751      9752      9748      9747      9751      9753
      9749      9747      9751      9752      9749      9747      9751      9753
      9750      9749      9747      9751      9751      9734      9755      9756
      9751      9734      9755      9757      9751      9734      9755      9758
      9752      9751      9734      9755      9752      9751      9753      9754
      9753      9751      9734      9755      9756      9755      9758      9759
      9757      9755      9758      9759      9760      9764      9762      9763
      9760      9764      9762      9778      9760      9764      9762      9782
      9760      9765      9767      9768      9760      9765      9767      9769
      9760      9765      9775      9776      9760      9765      9775      9777
      9760      9765      9775      9778      9761      9760      9764      9762
      9761      9760      9765      9766      9761      9760      9765      9767
      9761      9760      9765      9775      9762      9764      9760      9765
      9762      9778      9775      9765      9762      9778      9775      9776
      9762      9778      9775      9777      9762      9778      9780      9781
      9762      9782      9785      9786      9763      9762      9778      9775
      9763      9762      9778      9779      9763      9762      9778      9780
      9763      9762      9782      9783      9763      9762      9782      9784
      9763      9762      9782      9785      9764      9760      9765      9766
      9764      9760      9765      9767      9764      9760      9765      9775
      9764      9762      9778      9775      9764      9762      9778      9779
      9764      9762      9778      9780      9764      9762      9782      9783
      9764      9762      9782      9784      9764      9762      9782      9785
      9765      9767      9769      9770      9765      9767      9769      9771
      9765      9775      9777      9787      9765      9775      9778      9779
      9765      9775      9778      9780      9766      9765      9767      9768
      9766      9765      9767      9769      9766      9765      9775      9776
      9766      9765      9775      9777      9766      9765      9775      9778
      9767      9765      9775      9776      9767      9765      9775      9777
      9767      9765      9775      9778      9767      9769      9771      9772
      9767      9769      9771      9773      9767      9769      9771      9774
      9768      9767      9765      9775      9768      9767      9769      9770
      9768      9767      9769      9771      9769      9767      9765      9775
      9770      9769      9771      9772      9770      9769      9771      9773
      9770      9769      9771      9774      9775      9777      9787      9788
      9775      9777      9787      9791      9775      9777      9787      9792
      9775      9778      9762      9782      9775      9778      9780      9781
      9776      9775      9777      9787      9776      9775      9778      9779
      9776      9775      9778      9780      9777      9775      9778      9779
      9777      9775      9778      9780      9777      9787      9791      9789
      9777      9787      9792      9793      9777      9787      9792      9794
      9777      9787      9792      9795      9778      9762      9782      9783
      9778      9762      9782      9784      9778      9762      9782      9785
      9778      9775      9777      9787      9779      9778      9762      9782
      9779      9778      9780      9781      9780      9778      9762      9782
      9783      9782      9785      9786      9784      9782      9785      9786
      9787      9791      9789      9790      9787      9791      9789      9799
      9787      9791      9789      9803      9787      9792      9794      9808
      9787      9792      9795      9796      9787      9792      9795      9797
      9787      9792      9795      9799      9788      9787      9791      9789
      9788      9787      9792      9793      9788      9787      9792      9794
      9788      9787      9792      9795      9789      9791      9787      9792
      9789      9799      9795      9792      9789      9799      9795      9796
      9789      9799      9795      9797      9789      9799      9801      9802
      9789      9803      9806      9807      9790      9789      9799      9795
      9790      9789      9799      9800      9790      9789      9799      9801
      9790      9789      9803      9804      9790      9789      9803      9805
      9790      9789      9803      9806      9791      9787      9792      9793
      9791      9787      9792      9794      9791      9787      9792      9795
      9791      9789      9799      9795      9791      9789      9799      9800
      9791      9789      9799      9801      9791      9789      9803      9804
      9791      9789      9803      9805      9791      9789      9803      9806
      9792      9794      9808      9809      9792      9794      9808      9812
      9792      9794      9808      9813      9792      9795      9797      9798
      9792      9795      9799      9800      9792      9795      9799      9801
      9793      9792      9794      9808      9793      9792      9795      9796
      9793      9792      9795      9797      9793      9792      9795      9799
      9794      9792      9795      9796      9794      9792      9795      9797
      9794      9792      9795      9799      9794      9808      9812      9810
      9794      9808      9813      9814      9794      9808      9813      9815
      9794      9808      9813      9816      9795      9792      9794      9808
      9795      9799      9789      9803      9795      9799      9801      9802
      9796      9795      9797      9798      9796      9795      9799      9800
      9796      9795      9799      9801      9797      9795      9799      9800
      9797      9795      9799      9801      9798      9797      9795      9799
      9799      9789      9803      9804      9799      9789      9803      9805
      9799      9789      9803      9806      9800      9799      9789      9803
      9800      9799      9801      9802      9801      9799      9789      9803
      9804      9803      9806      9807      9805      9803      9806      9807
      9808      9812      9810      9811      9808      9812      9810      9820
      9808      9812      9810      9824      9808      9813      9815      9828
      9808      9813      9816      9817      9808      9813      9816      9818
      9808      9813      9816      9820      9809      9808      9812      9810
      9809      9808      9813      9814      9809      9808      9813      9815
      9809      9808      9813      9816      9810      9812      9808      9813
      9810      9820      9816      9813      9810      9820      9816      9817
      9810      9820      9816      9818      9810      9820      9822      9823
      9811      9810      9820      9816      9811      9810      9820      9821
      9811      9810      9820      9822      9811      9810      9824      9825
      9811      9810      9824      9826      9811      9810      9824      9827
      9812      9808      9813      9814      9812      9808      9813      9815
      9812      9808      9813      9816      9812      9810      9820      9816
      9812      9810      9820      9821      9812      9810      9820      9822
      9812      9810      9824      9825      9812      9810      9824      9826
      9812      9810      9824      9827      9813      9815      9828      9829
      9813      9815      9828      9832      9813      9815      9828      9833
      9813      9816      9818      9819      9813      9816      9820      9821
      9813      9816      9820      9822      9814      9813      9815      9828
      9814      9813      9816      9817      9814      9813      9816      9818
      9814      9813      9816      9820      9815      9813      9816      9817
      9815      9813      9816      9818      9815      9813      9816      9820
      9815      9828      9832      9830      9815      9828      9833      9834
      9815      9828      9833      9835      9815      9828      9833      9836
      9816      9813      9815      9828      9816      9820      9810      9824
      9816      9820      9822      9823      9817      9816      9818      9819
      9817      9816      9820      9821      9817      9816      9820      9822
      9818      9816      9820      9821      9818      9816      9820      9822
      9819      9818      9816      9820      9820      9810      9824      9825
      9820      9810      9824      9826      9820      9810      9824      9827
      9821      9820      9810      9824      9821      9820      9822      9823
      9822      9820      9810      9824      9828      9832      9830      9831
      9828      9832      9830      9839      9828      9832      9830      9843
      9828      9833      9835      9847      9828      9833      9836      9837
      9828      9833      9836      9838      9828      9833      9836      9839
      9829      9828      9832      9830      9829      9828      9833      9834
      9829      9828      9833      9835      9829      9828      9833      9836
      9830      9832      9828      9833      9830      9839      9836      9833
      9830      9839      9836      9837      9830      9839      9836      9838
      9830      9839      9841      9842      9831      9830      9839      9836
      9831      9830      9839      9840      9831      9830      9839      9841
      9831      9830      9843      9844      9831      9830      9843      9845
      9831      9830      9843      9846      9832      9828      9833      9834
      9832      9828      9833      9835      9832      9828      9833      9836
      9832      9830      9839      9836      9832      9830      9839      9840
      9832      9830      9839      9841      9832      9830      9843      9844
      9832      9830      9843      9845      9832      9830      9843      9846
      9833      9835      9847      9848      9833      9835      9847      9851
      9833      9835      9847      9852      9833      9836      9838      9875
      9833      9836      9839      9840      9833      9836      9839      9841
      9834      9833      9835      9847      9834      9833      9836      9837
      9834      9833      9836      9838      9834      9833      9836      9839
      9835      9833      9836      9837      9835      9833      9836      9838
      9835      9833      9836      9839      9835      9847      9851      9849
      9835      9847      9852      9853      9835      9847      9852      9854
      9835      9847      9852      9862      9836      9833      9835      9847
      9836      9838      9875      9876      9836      9838      9875      9879
      9836      9838      9875      9880      9836      9839      9830      9843
      9836      9839      9841      9842      9837      9836      9838      9875
      9837      9836      9839      9840      9837      9836      9839      9841
      9838      9836      9839      9840      9838      9836      9839      9841
      9838      9875      9879      9877      9838      9875      9880      9881
      9838      9875      9880      9882      9838      9875      9880      9890
      9839      9830      9843      9844      9839      9830      9843      9845
      9839      9830      9843      9846      9839      9836      9838      9875
      9840      9839      9830      9843      9840      9839      9841      9842
      9841      9839      9830      9843      9847      9851      9849      9850
      9847      9851      9849      9866      9847      9851      9849      9870
      9847      9852      9854      9855      9847      9852      9854      9856
      9847      9852      9862      9863      9847      9852      9862      9864
      9847      9852      9862      9866      9848      9847      9851      9849
      9848      9847      9852      9853      9848      9847      9852      9854
      9848      9847      9852      9862      9849      9851      9847      9852
      9849      9866      9862      9852      9849      9866      9862      9863
      9849      9866      9862      9864      9849      9866      9868      9869
      9849      9870      9873      9874      9850      9849      9866      9862
      9850      9849      9866      9867      9850      9849      9866      9868
      9850      9849      9870      9871      9850      9849      9870      9872
      9850      9849      9870      9873      9851      9847      9852      9853
      9851      9847      9852      9854      9851      9847      9852      9862
      9851      9849      9866      9862      9851      9849      9866      9867
      9851      9849      9866      9868      9851      9849      9870      9871
      9851      9849      9870      9872      9851      9849      9870      9873
      9852      9854      9856      9857      9852      9854      9856      9858
      9852      9862      9864      9865      9852      9862      9866      9867
      9852      9862      9866      9868      9853      9852      9854      9855
      9853      9852      9854      9856      9853      9852      9862      9863
      9853      9852      9862      9864      9853      9852      9862      9866
      9854      9852      9862      9863      9854      9852      9862      9864
      9854      9852      9862      9866      9854      9856      9858      9859
      9854      9856      9858      9860      9854      9856      9858      9861
      9855      9854      9852      9862      9855      9854      9856      9857
      9855      9854      9856      9858      9856      9854      9852      9862
      9857      9856      9858      9859      9857      9856      9858      9860
      9857      9856      9858      9861      9862      9866      9849      9870
      9862      9866      9868      9869      9863      9862      9864      9865
      9863      9862      9866      9867      9863      9862      9866      9868
      9864      9862      9866      9867      9864      9862      9866      9868
      9865      9864      9862      9866      9866      9849      9870      9871
      9866      9849      9870      9872      9866      9849      9870      9873
      9867      9866      9849      9870      9867      9866      9868      9869
      9868      9866      9849      9870      9871      9870      9873      9874
      9872      9870      9873      9874      9875      9879      9877      9878
      9875      9879      9877      9893      9875      9879      9877      9897
      9875      9880      9882      9883      9875      9880      9882      9884
      9875      9880      9890      9891      9875      9880      9890      9892
      9875      9880      9890      9893      9876      9875      9879      9877
      9876      9875      9880      9881      9876      9875      9880      9882
      9876      9875      9880      9890      9877      9879      9875      9880
      9877      9893      9890      9880      9877      9893      9890      9891
      9877      9893      9890      9892      9877      9893      9895      9896
      9877      9897      9900      9901      9878      9877      9893      9890
      9878      9877      9893      9894      9878      9877      9893      9895
      9878      9877      9897      9898      9878      9877      9897      9899
      9878      9877      9897      9900      9879      9875      9880      9881
      9879      9875      9880      9882      9879      9875      9880      9890
      9879      9877      9893      9890      9879      9877      9893      9894
      9879      9877      9893      9895      9879      9877      9897      9898
      9879      9877      9897      9899      9879      9877      9897      9900
      9880      9882      9884      9885      9880      9882      9884      9886
      9880      9890      9892      9902      9880      9890      9893      9894
      9880      9890      9893      9895      9881      9880      9882      9883
      9881      9880      9882      9884      9881      9880      9890      9891
      9881      9880      9890      9892      9881      9880      9890      9893
      9882      9880      9890      9891      9882      9880      9890      9892
      9882      9880      9890      9893      9882      9884      9886      9887
      9882      9884      9886      9888      9882      9884      9886      9889
      9883      9882      9880      9890      9883      9882      9884      9885
      9883      9882      9884      9886      9884      9882      9880      9890
      9885      9884      9886      9887      9885      9884      9886      9888
      9885      9884      9886      9889      9890      9892      9902      9903
      9890      9892      9902      9906      9890      9892      9902      9907
      9890      9893      9877      9897      9890      9893      9895      9896
      9891      9890      9892      9902      9891      9890      9893      9894
      9891      9890      9893      9895      9892      9890      9893      9894
      9892      9890      9893      9895      9892      9902      9906      9904
      9892      9902      9907      9908      9892      9902      9907      9909
      9892      9902      9907      9910      9893      9877      9897      9898
      9893      9877      9897      9899      9893      9877      9897      9900
      9893      9890      9892      9902      9894      9893      9877      9897
      9894      9893      9895      9896      9895      9893      9877      9897
      9898      9897      9900      9901      9899      9897      9900      9901
      9902      9906      9904      9905      9902      9906      9904      9914
      9902      9906      9904      9918      9902      9907      9909      9923
      9902      9907      9910      9911      9902      9907      9910      9912
      9902      9907      9910      9914      9903      9902      9906      9904
      9903      9902      9907      9908      9903      9902      9907      9909
      9903      9902      9907      9910      9904      9906      9902      9907
      9904      9914      9910      9907      9904      9914      9910      9911
      9904      9914      9910      9912      9904      9914      9916      9917
      9904      9918      9921      9922      9905      9904      9914      9910
      9905      9904      9914      9915      9905      9904      9914      9916
      9905      9904      9918      9919      9905      9904      9918      9920
      9905      9904      9918      9921      9906      9902      9907      9908
      9906      9902      9907      9909      9906      9902      9907      9910
      9906      9904      9914      9910      9906      9904      9914      9915
      9906      9904      9914      9916      9906      9904      9918      9919
      9906      9904      9918      9920      9906      9904      9918      9921
      9907      9909      9923      9924      9907      9909      9923      9927
      9907      9909      9923      9928      9907      9910      9912      9913
      9907      9910      9914      9915      9907      9910      9914      9916
      9908      9907      9909      9923      9908      9907      9910      9911
      9908      9907      9910      9912      9908      9907      9910      9914
      9909      9907      9910      9911      9909      9907      9910      9912
      9909      9907      9910      9914      9909      9923      9927      9925
      9909      9923      9928      9929      9909      9923      9928      9930
      9909      9923      9928      9931      9910      9907      9909      9923
      9910      9914      9904      9918      9910      9914      9916      9917
      9911      9910      9912      9913      9911      9910      9914      9915
      9911      9910      9914      9916      9912      9910      9914      9915
      9912      9910      9914      9916      9913      9912      9910      9914
      9914      9904      9918      9919      9914      9904      9918      9920
      9914      9904      9918      9921      9915      9914      9904      9918
      9915      9914      9916      9917      9916      9914      9904      9918
      9919      9918      9921      9922      9920      9918      9921      9922
      9923      9927      9925      9926      9923      9927      9925      9935
      9923      9927      9925      9939      9923      9928      9930      9943
      9923      9928      9931      9932      9923      9928      9931      9933
      9923      9928      9931      9935      9924      9923      9927      9925
      9924      9923      9928      9929      9924      9923      9928      9930
      9924      9923      9928      9931      9925      9927      9923      9928
      9925      9935      9931      9928      9925      9935      9931      9932
      9925      9935      9931      9933      9925      9935      9937      9938
      9926      9925      9935      9931      9926      9925      9935      9936
      9926      9925      9935      9937      9926      9925      9939      9940
      9926      9925      9939      9941      9926      9925      9939      9942
      9927      9923      9928      9929      9927      9923      9928      9930
      9927      9923      9928      9931      9927      9925      9935      9931
      9927      9925      9935      9936      9927      9925      9935      9937
      9927      9925      9939      9940      9927      9925      9939      9941
      9927      9925      9939      9942      9928      9930      9943      9944
      9928      9930      9943      9947      9928      9930      9943      9948
      9928      9931      9933      9934      9928      9931      9935      9936
      9928      9931      9935      9937      9929      9928      9930      9943
      9929      9928      9931      9932      9929      9928      9931      9933
      9929      9928      9931      9935      9930      9928      9931      9932
      9930      9928      9931      9933      9930      9928      9931      9935
      9930      9943      9947      9945      9930      9943      9948      9949
      9930      9943      9948      9950      9930      9943      9948      9951
      9931      9928      9930      9943      9931      9935      9925      9939
      9931      9935      9937      9938      9932      9931      9933      9934
      9932      9931      9935      9936      9932      9931      9935      9937
      9933      9931      9935      9936      9933      9931      9935      9937
      9934      9933      9931      9935      9935      9925      9939      9940
      9935      9925      9939      9941      9935      9925      9939      9942
      9936      9935      9925      9939      9936      9935      9937      9938
      9937      9935      9925      9939      9943      9947      9945      9946
      9943      9947      9945      9955      9943      9947      9945      9959
      9943      9948      9950      9963      9943      9948      9951      9952
      9943      9948      9951      9953      9943      9948      9951      9955
      9944      9943      9947      9945      9944      9943      9948      9949
      9944      9943      9948      9950      9944      9943      9948      9951
      9945      9947      9943      9948      9945      9955      9951      9948
      9945      9955      9951      9952      9945      9955      9951      9953
      9945      9955      9957      9958      9946      9945      9955      9951
      9946      9945      9955      9956      9946      9945      9955      9957
      9946      9945      9959      9960      9946      9945      9959      9961
      9946      9945      9959      9962      9947      9943      9948      9949
      9947      9943      9948      9950      9947      9943      9948      9951
      9947      9945      9955      9951      9947      9945      9955      9956
      9947      9945      9955      9957      9947      9945      9959      9960
      9947      9945      9959      9961      9947      9945      9959      9962
      9948      9950      9963      9964      9948      9950      9963      9967
      9948      9950      9963      9968      9948      9951      9953      9954
      9948      9951      9955      9956      9948      9951      9955      9957
      9949      9948      9950      9963      9949      9948      9951      9952
      9949      9948      9951      9953      9949      9948      9951      9955
      9950      9948      9951      9952      9950      9948      9951      9953
      9950      9948      9951      9955      9950      9963      9967      9965
      9950      9963      9968      9969      9950      9963      9968      9970
      9950      9963      9968      9978      9951      9948      9950      9963
      9951      9955      9945      9959      9951      9955      9957      9958
      9952      9951      9953      9954      9952      9951      9955      9956
      9952      9951      9955      9957      9953      9951      9955      9956
      9953      9951      9955      9957      9954      9953      9951      9955
      9955      9945      9959      9960      9955      9945      9959      9961
      9955      9945      9959      9962      9956      9955      9945      9959
      9956      9955      9957      9958      9957      9955      9945      9959
      9963      9967      9965      9966      9963      9967      9965      9982
      9963      9967      9965      9986      9963      9968      9970      9971
      9963      9968      9970      9972      9963      9968      9978      9979
      9963      9968      9978      9980      9963      9968      9978      9982
      9964      9963      9967      9965      9964      9963      9968      9969
      9964      9963      9968      9970      9964      9963      9968      9978
      9965      9967      9963      9968      9965      9982      9978      9968
      9965      9982      9978      9979      9965      9982      9978      9980
      9965      9982      9984      9985      9965      9986      9989      9990
      9966      9965      9982      9978      9966      9965      9982      9983
      9966      9965      9982      9984      9966      9965      9986      9987
      9966      9965      9986      9988      9966      9965      9986      9989
      9967      9963      9968      9969      9967      9963      9968      9970
      9967      9963      9968      9978      9967      9965      9982      9978
      9967      9965      9982      9983      9967      9965      9982      9984
      9967      9965      9986      9987      9967      9965      9986      9988
      9967      9965      9986      9989      9968      9970      9972      9973
      9968      9970      9972      9974      9968      9978      9980      9981
      9968      9978      9982      9983      9968      9978      9982      9984
      9969      9968      9970      9971      9969      9968      9970      9972
      9969      9968      9978      9979      9969      9968      9978      9980
      9969      9968      9978      9982      9970      9968      9978      9979
      9970      9968      9978      9980      9970      9968      9978      9982
      9970      9972      9974      9975      9970      9972      9974      9976
      9970      9972      9974      9977      9971      9970      9968      9978
      9971      9970      9972      9973      9971      9970      9972      9974
      9972      9970      9968      9978      9973      9972      9974      9975
      9973      9972      9974      9976      9973      9972      9974      9977
      9978      9982      9965      9986      9978      9982      9984      9985
      9979      9978      9980      9981      9979      9978      9982      9983
      9979      9978      9982      9984      9980      9978      9982      9983
      9980      9978      9982      9984      9981      9980      9978      9982
      9982      9965      9986      9987      9982      9965      9986      9988
      9982      9965      9986      9989      9983      9982      9965      9986
      9983      9982      9984      9985      9984      9982      9965      9986
      9987      9986      9989      9990      9988      9986      9989      9990
      9991      9993      9992     10290      9991      9993      9995      9996
      9991      9993      9995      9997      9991      9993      9995     10004
      9992      9993      9995      9996      9992      9993      9995      9997
      9992      9993      9995     10004      9992     10290     10287     10288
      9992     10290     10287     10289      9992     10290     10293     10291
      9992     10290     10294     10295      9992     10290     10294     10296
      9992     10290     10294     10297      9993      9992     10290     10287
      9993      9992     10290     10293      9993      9992     10290     10294
      9993      9995      9996      9998      9993      9995     10004     10005
      9993      9995     10004     10006      9993      9995     10004     10011
      9994      9993      9992     10290      9994      9993      9995      9996
      9994      9993      9995      9997      9994      9993      9995     10004
      9995      9993      9992     10290      9995      9996      9998      9999
      9995      9996      9998     10000      9995      9996      9998     10019
      9995     10004     10006     10007      9995     10004     10011     10012
      9995     10004     10011     10013      9995     10004     10011     10019
      9996      9995     10004     10005      9996      9995     10004     10006
      9996      9995     10004     10011      9996      9998     10000     10001
      9996      9998     10019     10011      9996      9998     10019     10020
      9996      9998     10019     10021      9997      9995      9996      9998
      9997      9995     10004     10005      9997      9995     10004     10006
      9997      9995     10004     10011      9998      9996      9995     10004
      9998     10000     10001     10002      9998     10000     10001     10003
      9998     10000     10001     10027      9998     10019     10011     10004
      9998     10019     10011     10012      9998     10019     10011     10013
      9998     10019     10021     10022      9998     10019     10021     10128
      9999      9998     10000     10001      9999      9998     10019     10011
      9999      9998     10019     10020      9999      9998     10019     10021
     10000      9998     10019     10011     10000      9998     10019     10020
     10000      9998     10019     10021     10000     10001     10027     10023
     10000     10001     10027     10028     10000     10001     10027     10029
     10001     10000      9998     10019     10001     10027     10023     10024
     10001     10027     10023     10025     10001     10027     10023     10037
     10001     10027     10029     10030     10002     10001     10027     10023
     10002     10001     10027     10028     10002     10001     10027     10029
     10003     10001     10027     10023     10003     10001     10027     10028
     10003     10001     10027     10029     10004     10006     10007     10008
     10004     10006     10007     10009     10004     10006     10007     10010
     10004     10011     10012     10014     10004     10011     10019     10020
     10004     10011     10019     10021     10005     10004     10006     10007
     10005     10004     10011     10012     10005     10004     10011     10013
     10005     10004     10011     10019     10006     10004     10011     10012
     10006     10004     10011     10013     10006     10004     10011     10019
     10007     10006     10004     10011     10011     10012     10014     10015
     10011     10012     10014     10016     10011     10019     10021     10022
     10011     10019     10021     10128     10012     10011     10019     10020
     10012     10011     10019     10021     10012     10014     10016     10017
     10012     10014     10016     10018     10012     10014     10016     10049
     10013     10011     10012     10014     10013     10011     10019     10020
     10013     10011     10019     10021     10014     10012     10011     10019
     10014     10016     10049     10050     10014     10016     10049     10051
     10014     10016     10049     10094     10015     10014     10016     10017
     10015     10014     10016     10018     10015     10014     10016     10049
     10016     10049     10051     10052     10016     10049     10094     10095
     10016     10049     10094     10096     10016     10049     10094     10097
     10017     10016     10049     10050     10017     10016     10049     10051
     10017     10016     10049     10094     10018     10016     10049     10050
     10018     10016     10049     10051     10018     10016     10049     10094
     10019     10021     10128     10129     10019     10021     10128     10130
     10020     10019     10021     10022     10020     10019     10021     10128
     10021     10128     10130     10131     10021     10128     10130     10132
     10021     10128     10130     10133     10022     10021     10128     10129
     10022     10021     10128     10130     10023     10027     10029     10030
     10023     10037     10039     10040     10023     10037     10045     10030
     10023     10037     10045     10046     10023     10037     10045     10047
     10024     10023     10025     10026     10024     10023     10027     10028
     10024     10023     10027     10029     10024     10023     10037     10038
     10024     10023     10037     10039     10024     10023     10037     10045
     10025     10023     10027     10028     10025     10023     10027     10029
     10025     10023     10037     10038     10025     10023     10037     10039
     10025     10023     10037     10045     10026     10025     10023     10027
     10026     10025     10023     10037     10027     10023     10037     10038
     10027     10023     10037     10039     10027     10023     10037     10045
     10027     10029     10030     10031     10027     10029     10030     10032
     10027     10029     10030     10045     10028     10027     10023     10037
     10028     10027     10029     10030     10029     10027     10023     10037
     10029     10030     10032     10036     10029     10030     10045     10037
     10029     10030     10045     10046     10029     10030     10045     10047
     10030     10032     10036     10033     10030     10032     10036     10034
     10030     10032     10036     10035     10030     10045     10037     10038
     10030     10045     10037     10039     10030     10045     10047     10048
     10030     10045     10047     10244     10031     10030     10032     10036
     10031     10030     10045     10037     10031     10030     10045     10046
     10031     10030     10045     10047     10032     10030     10045     10037
     10032     10030     10045     10046     10032     10030     10045     10047
     10036     10032     10030     10045     10037     10039     10040     10041
     10037     10039     10040     10042     10037     10045     10047     10048
     10037     10045     10047     10244     10038     10037     10039     10040
     10038     10037     10045     10046     10038     10037     10045     10047
     10039     10037     10045     10046     10039     10037     10045     10047
     10039     10040     10042     10043     10039     10040     10042     10044
     10039     10040     10042     10206     10040     10039     10037     10045
     10040     10042     10206     10207     10040     10042     10206     10208
     10040     10042     10206     10210     10041     10040     10042     10043
     10041     10040     10042     10044     10041     10040     10042     10206
     10042     10206     10208     10209     10042     10206     10210     10211
     10042     10206     10210     10212     10042     10206     10210     10213
     10043     10042     10206     10207     10043     10042     10206     10208
     10043     10042     10206     10210     10044     10042     10206     10207
     10044     10042     10206     10208     10044     10042     10206     10210
     10045     10047     10244     10245     10045     10047     10244     10246
     10046     10045     10047     10048     10046     10045     10047     10244
     10047     10244     10246     10247     10047     10244     10246     10248
     10047     10244     10246     10249     10048     10047     10244     10245
     10048     10047     10244     10246     10049     10051     10052     10053
     10049     10051     10052     10054     10049     10094     10097     10098
     10049     10094     10097     10099     10049     10094     10097     10100
     10050     10049     10051     10052     10050     10049     10094     10095
     10050     10049     10094     10096     10050     10049     10094     10097
     10051     10049     10094     10095     10051     10049     10094     10096
     10051     10049     10094     10097     10051     10052     10054     10055
     10051     10052     10054     10056     10051     10052     10054     10057
     10052     10051     10049     10094     10052     10054     10057     10058
     10052     10054     10057     10059     10052     10054     10057     10060
     10053     10052     10054     10055     10053     10052     10054     10056
     10053     10052     10054     10057     10054     10057     10060     10061
     10054     10057     10060     10062     10054     10057     10060     10063
     10055     10054     10057     10058     10055     10054     10057     10059
     10055     10054     10057     10060     10056     10054     10057     10058
     10056     10054     10057     10059     10056     10054     10057     10060
     10057     10060     10063     10064     10057     10060     10063     10065
     10057     10060     10063     10066     10058     10057     10060     10061
     10058     10057     10060     10062     10058     10057     10060     10063
     10059     10057     10060     10061     10059     10057     10060     10062
     10059     10057     10060     10063     10060     10063     10066     10067
     10060     10063     10066     10068     10060     10063     10066     10069
     10061     10060     10063     10064     10061     10060     10063     10065
     10061     10060     10063     10066     10062     10060     10063     10064
     10062     10060     10063     10065     10062     10060     10063     10066
     10063     10066     10069     10070     10063     10066     10069     10071
     10063     10066     10069     10072     10064     10063     10066     10067
     10064     10063     10066     10068     10064     10063     10066     10069
     10065     10063     10066     10067     10065     10063     10066     10068
     10065     10063     10066     10069     10066     10069     10072     10073
     10066     10069     10072     10074     10066     10069     10072     10075
     10067     10066     10069     10070     10067     10066     10069     10071
     10067     10066     10069     10072     10068     10066     10069     10070
     10068     10066     10069     10071     10068     10066     10069     10072
     10069     10072     10075     10076     10069     10072     10075     10077
     10069     10072     10075     10078     10070     10069     10072     10073
     10070     10069     10072     10074     10070     10069     10072     10075
     10071     10069     10072     10073     10071     10069     10072     10074
     10071     10069     10072     10075     10072     10075     10078     10079
     10072     10075     10078     10080     10072     10075     10078     10081
     10073     10072     10075     10076     10073     10072     10075     10077
     10073     10072     10075     10078     10074     10072     10075     10076
     10074     10072     10075     10077     10074     10072     10075     10078
     10075     10078     10081     10082     10075     10078     10081     10083
     10075     10078     10081     10084     10076     10075     10078     10079
     10076     10075     10078     10080     10076     10075     10078     10081
     10077     10075     10078     10079     10077     10075     10078     10080
     10077     10075     10078     10081     10078     10081     10084     10085
     10078     10081     10084     10086     10078     10081     10084     10087
     10079     10078     10081     10082     10079     10078     10081     10083
     10079     10078     10081     10084     10080     10078     10081     10082
     10080     10078     10081     10083     10080     10078     10081     10084
     10081     10084     10087     10088     10081     10084     10087     10089
     10081     10084     10087     10090     10082     10081     10084     10085
     10082     10081     10084     10086     10082     10081     10084     10087
     10083     10081     10084     10085     10083     10081     10084     10086
     10083     10081     10084     10087     10084     10087     10090     10091
     10084     10087     10090     10092     10084     10087     10090     10093
     10085     10084     10087     10088     10085     10084     10087     10089
     10085     10084     10087     10090     10086     10084     10087     10088
     10086     10084     10087     10089     10086     10084     10087     10090
     10088     10087     10090     10091     10088     10087     10090     10092
     10088     10087     10090     10093     10089     10087     10090     10091
     10089     10087     10090     10092     10089     10087     10090     10093
     10094     10097     10100     10101     10094     10097     10100     10102
     10094     10097     10100     10103     10095     10094     10097     10098
     10095     10094     10097     10099     10095     10094     10097     10100
     10096     10094     10097     10098     10096     10094     10097     10099
     10096     10094     10097     10100     10097     10100     10103     10104
     10097     10100     10103     10105     10097     10100     10103     10106
     10098     10097     10100     10101     10098     10097     10100     10102
     10098     10097     10100     10103     10099     10097     10100     10101
     10099     10097     10100     10102     10099     10097     10100     10103
     10100     10103     10106     10107     10100     10103     10106     10108
     10100     10103     10106     10109     10101     10100     10103     10104
     10101     10100     10103     10105     10101     10100     10103     10106
     10102     10100     10103     10104     10102     10100     10103     10105
     10102     10100     10103     10106     10103     10106     10109     10110
     10103     10106     10109     10111     10103     10106     10109     10112
     10104     10103     10106     10107     10104     10103     10106     10108
     10104     10103     10106     10109     10105     10103     10106     10107
     10105     10103     10106     10108     10105     10103     10106     10109
     10106     10109     10112     10113     10106     10109     10112     10114
     10106     10109     10112     10115     10107     10106     10109     10110
     10107     10106     10109     10111     10107     10106     10109     10112
     10108     10106     10109     10110     10108     10106     10109     10111
     10108     10106     10109     10112     10109     10112     10115     10116
     10109     10112     10115     10117     10109     10112     10115     10118
     10110     10109     10112     10113     10110     10109     10112     10114
     10110     10109     10112     10115     10111     10109     10112     10113
     10111     10109     10112     10114     10111     10109     10112     10115
     10112     10115     10118     10119     10112     10115     10118     10120
     10112     10115     10118     10121     10113     10112     10115     10116
     10113     10112     10115     10117     10113     10112     10115     10118
     10114     10112     10115     10116     10114     10112     10115     10117
     10114     10112     10115     10118     10115     10118     10121     10122
     10115     10118     10121     10123     10115     10118     10121     10124
     10116     10115     10118     10119     10116     10115     10118     10120
     10116     10115     10118     10121     10117     10115     10118     10119
     10117     10115     10118     10120     10117     10115     10118     10121
     10118     10121     10124     10125     10118     10121     10124     10126
     10118     10121     10124     10127     10119     10118     10121     10122
     10119     10118     10121     10123     10119     10118     10121     10124
     10120     10118     10121     10122     10120     10118     10121     10123
     10120     10118     10121     10124     10122     10121     10124     10125
     10122     10121     10124     10126     10122     10121     10124     10127
     10123     10121     10124     10125     10123     10121     10124     10126
     10123     10121     10124     10127     10128     10130     10133     10134
     10128     10130     10133     10135     10128     10130     10133     10172
     10129     10128     10130     10131     10129     10128     10130     10132
     10129     10128     10130     10133     10130     10133     10135     10136
     10130     10133     10172     10173     10130     10133     10172     10174
     10130     10133     10172     10175     10131     10130     10133     10134
     10131     10130     10133     10135     10131     10130     10133     10172
     10132     10130     10133     10134     10132     10130     10133     10135
     10132     10130     10133     10172     10133     10135     10136     10137
     10133     10135     10136     10138     10133     10172     10175     10176
     10133     10172     10175     10177     10133     10172     10175     10178
     10134     10133     10135     10136     10134     10133     10172     10173
     10134     10133     10172     10174     10134     10133     10172     10175
     10135     10133     10172     10173     10135     10133     10172     10174
     10135     10133     10172     10175     10135     10136     10138     10139
     10135     10136     10138     10140     10135     10136     10138     10141
     10136     10135     10133     10172     10136     10138     10141     10142
     10136     10138     10141     10143     10136     10138     10141     10144
     10137     10136     10138     10139     10137     10136     10138     10140
     10137     10136     10138     10141     10138     10141     10144     10145
     10138     10141     10144     10146     10138     10141     10144     10147
     10139     10138     10141     10142     10139     10138     10141     10143
     10139     10138     10141     10144     10140     10138     10141     10142
     10140     10138     10141     10143     10140     10138     10141     10144
     10141     10144     10147     10148     10141     10144     10147     10149
     10141     10144     10147     10150     10142     10141     10144     10145
     10142     10141     10144     10146     10142     10141     10144     10147
     10143     10141     10144     10145     10143     10141     10144     10146
     10143     10141     10144     10147     10144     10147     10150     10151
     10144     10147     10150     10152     10144     10147     10150     10153
     10145     10144     10147     10148     10145     10144     10147     10149
     10145     10144     10147     10150     10146     10144     10147     10148
     10146     10144     10147     10149     10146     10144     10147     10150
     10147     10150     10153     10154     10147     10150     10153     10155
     10147     10150     10153     10156     10148     10147     10150     10151
     10148     10147     10150     10152     10148     10147     10150     10153
     10149     10147     10150     10151     10149     10147     10150     10152
     10149     10147     10150     10153     10150     10153     10156     10157
     10150     10153     10156     10158     10150     10153     10156     10159
     10151     10150     10153     10154     10151     10150     10153     10155
     10151     10150     10153     10156     10152     10150     10153     10154
     10152     10150     10153     10155     10152     10150     10153     10156
     10153     10156     10159     10160     10153     10156     10159     10161
     10153     10156     10159     10162     10154     10153     10156     10157
     10154     10153     10156     10158     10154     10153     10156     10159
     10155     10153     10156     10157     10155     10153     10156     10158
     10155     10153     10156     10159     10156     10159     10162     10163
     10156     10159     10162     10164     10156     10159     10162     10165
     10157     10156     10159     10160     10157     10156     10159     10161
     10157     10156     10159     10162     10158     10156     10159     10160
     10158     10156     10159     10161     10158     10156     10159     10162
     10159     10162     10165     10166     10159     10162     10165     10167
     10159     10162     10165     10168     10160     10159     10162     10163
     10160     10159     10162     10164     10160     10159     10162     10165
     10161     10159     10162     10163     10161     10159     10162     10164
     10161     10159     10162     10165     10162     10165     10168     10169
     10162     10165     10168     10170     10162     10165     10168     10171
     10163     10162     10165     10166     10163     10162     10165     10167
     10163     10162     10165     10168     10164     10162     10165     10166
     10164     10162     10165     10167     10164     10162     10165     10168
     10166     10165     10168     10169     10166     10165     10168     10170
     10166     10165     10168     10171     10167     10165     10168     10169
     10167     10165     10168     10170     10167     10165     10168     10171
     10172     10175     10178     10179     10172     10175     10178     10180
     10172     10175     10178     10181     10173     10172     10175     10176
     10173     10172     10175     10177     10173     10172     10175     10178
     10174     10172     10175     10176     10174     10172     10175     10177
     10174     10172     10175     10178     10175     10178     10181     10182
     10175     10178     10181     10183     10175     10178     10181     10184
     10176     10175     10178     10179     10176     10175     10178     10180
     10176     10175     10178     10181     10177     10175     10178     10179
     10177     10175     10178     10180     10177     10175     10178     10181
     10178     10181     10184     10185     10178     10181     10184     10186
     10178     10181     10184     10187     10179     10178     10181     10182
     10179     10178     10181     10183     10179     10178     10181     10184
     10180     10178     10181     10182     10180     10178     10181     10183
     10180     10178     10181     10184     10181     10184     10187     10188
     10181     10184     10187     10189     10181     10184     10187     10190
     10182     10181     10184     10185     10182     10181     10184     10186
     10182     10181     10184     10187     10183     10181     10184     10185
     10183     10181     10184     10186     10183     10181     10184     10187
     10184     10187     10190     10191     10184     10187     10190     10192
     10184     10187     10190     10193     10185     10184     10187     10188
     10185     10184     10187     10189     10185     10184     10187     10190
     10186     10184     10187     10188     10186     10184     10187     10189
     10186     10184     10187     10190     10187     10190     10193     10194
     10187     10190     10193     10195     10187     10190     10193     10196
     10188     10187     10190     10191     10188     10187     10190     10192
     10188     10187     10190     10193     10189     10187     10190     10191
     10189     10187     10190     10192     10189     10187     10190     10193
     10190     10193     10196     10197     10190     10193     10196     10198
     10190     10193     10196     10199     10191     10190     10193     10194
     10191     10190     10193     10195     10191     10190     10193     10196
     10192     10190     10193     10194     10192     10190     10193     10195
     10192     10190     10193     10196     10193     10196     10199     10200
     10193     10196     10199     10201     10193     10196     10199     10202
     10194     10193     10196     10197     10194     10193     10196     10198
     10194     10193     10196     10199     10195     10193     10196     10197
     10195     10193     10196     10198     10195     10193     10196     10199
     10196     10199     10202     10203     10196     10199     10202     10204
     10196     10199     10202     10205     10197     10196     10199     10200
     10197     10196     10199     10201     10197     10196     10199     10202
     10198     10196     10199     10200     10198     10196     10199     10201
     10198     10196     10199     10202     10200     10199     10202     10203
     10200     10199     10202     10204     10200     10199     10202     10205
     10201     10199     10202     10203     10201     10199     10202     10204
     10201     10199     10202     10205     10206     10210     10213     10214
     10206     10210     10213     10215     10206     10210     10213     10216
     10207     10206     10208     10209     10207     10206     10210     10211
     10207     10206     10210     10212     10207     10206     10210     10213
     10208     10206     10210     10211     10208     10206     10210     10212
     10208     10206     10210     10213     10209     10208     10206     10210
     10210     10213     10216     10217     10210     10213     10216     10218
     10210     10213     10216     10219     10211     10210     10213     10214
     10211     10210     10213     10215     10211     10210     10213     10216
     10212     10210     10213     10214     10212     10210     10213     10215
     10212     10210     10213     10216     10213     10216     10219     10220
     10213     10216     10219     10221     10213     10216     10219     10222
     10214     10213     10216     10217     10214     10213     10216     10218
     10214     10213     10216     10219     10215     10213     10216     10217
     10215     10213     10216     10218     10215     10213     10216     10219
     10216     10219     10222     10223     10216     10219     10222     10224
     10216     10219     10222     10225     10217     10216     10219     10220
     10217     10216     10219     10221     10217     10216     10219     10222
     10218     10216     10219     10220     10218     10216     10219     10221
     10218     10216     10219     10222     10219     10222     10225     10226
     10219     10222     10225     10227     10219     10222     10225     10228
     10220     10219     10222     10223     10220     10219     10222     10224
     10220     10219     10222     10225     10221     10219     10222     10223
     10221     10219     10222     10224     10221     10219     10222     10225
     10222     10225     10228     10229     10222     10225     10228     10230
     10222     10225     10228     10231     10223     10222     10225     10226
     10223     10222     10225     10227     10223     10222     10225     10228
     10224     10222     10225     10226     10224     10222     10225     10227
     10224     10222     10225     10228     10225     10228     10231     10232
     10225     10228     10231     10233     10225     10228     10231     10234
     10226     10225     10228     10229     10226     10225     10228     10230
     10226     10225     10228     10231     10227     10225     10228     10229
     10227     10225     10228     10230     10227     10225     10228     10231
     10228     10231     10234     10235     10228     10231     10234     10236
     10228     10231     10234     10237     10229     10228     10231     10232
     10229     10228     10231     10233     10229     10228     10231     10234
     10230     10228     10231     10232     10230     10228     10231     10233
     10230     10228     10231     10234     10231     10234     10237     10238
     10231     10234     10237     10239     10231     10234     10237     10240
     10232     10231     10234     10235     10232     10231     10234     10236
     10232     10231     10234     10237     10233     10231     10234     10235
     10233     10231     10234     10236     10233     10231     10234     10237
     10234     10237     10240     10241     10234     10237     10240     10242
     10234     10237     10240     10243     10235     10234     10237     10238
     10235     10234     10237     10239     10235     10234     10237     10240
     10236     10234     10237     10238     10236     10234     10237     10239
     10236     10234     10237     10240     10238     10237     10240     10241
     10238     10237     10240     10242     10238     10237     10240     10243
     10239     10237     10240     10241     10239     10237     10240     10242
     10239     10237     10240     10243     10244     10246     10249     10250
     10244     10246     10249     10251     10244     10246     10249     10253
     10245     10244     10246     10247     10245     10244     10246     10248
     10245     10244     10246     10249     10246     10249     10251     10252
     10246     10249     10253     10254     10246     10249     10253     10255
     10246     10249     10253     10256     10247     10246     10249     10250
     10247     10246     10249     10251     10247     10246     10249     10253
     10248     10246     10249     10250     10248     10246     10249     10251
     10248     10246     10249     10253     10249     10253     10256     10257
     10249     10253     10256     10258     10249     10253     10256     10259
     10250     10249     10251     10252     10250     10249     10253     10254
     10250     10249     10253     10255     10250     10249     10253     10256
     10251     10249     10253     10254     10251     10249     10253     10255
     10251     10249     10253     10256     10252     10251     10249     10253
     10253     10256     10259     10260     10253     10256     10259     10261
     10253     10256     10259     10262     10254     10253     10256     10257
     10254     10253     10256     10258     10254     10253     10256     10259
     10255     10253     10256     10257     10255     10253     10256     10258
     10255     10253     10256     10259     10256     10259     10262     10263
     10256     10259     10262     10264     10256     10259     10262     10265
     10257     10256     10259     10260     10257     10256     10259     10261
     10257     10256     10259     10262     10258     10256     10259     10260
     10258     10256     10259     10261     10258     10256     10259     10262
     10259     10262     10265     10266     10259     10262     10265     10267
     10259     10262     10265     10268     10260     10259     10262     10263
     10260     10259     10262     10264     10260     10259     10262     10265
     10261     10259     10262     10263     10261     10259     10262     10264
     10261     10259     10262     10265     10262     10265     10268     10269
     10262     10265     10268     10270     10262     10265     10268     10271
     10263     10262     10265     10266     10263     10262     10265     10267
     10263     10262     10265     10268     10264     10262     10265     10266
     10264     10262     10265     10267     10264     10262     10265     10268
     10265     10268     10271     10272     10265     10268     10271     10273
     10265     10268     10271     10274     10266     10265     10268     10269
     10266     10265     10268     10270     10266     10265     10268     10271
     10267     10265     10268     10269     10267     10265     10268     10270
     10267     10265     10268     10271     10268     10271     10274     10275
     10268     10271     10274     10276     10268     10271     10274     10277
     10269     10268     10271     10272     10269     10268     10271     10273
     10269     10268     10271     10274     10270     10268     10271     10272
     10270     10268     10271     10273     10270     10268     10271     10274
     10271     10274     10277     10278     10271     10274     10277     10279
     10271     10274     10277     10280     10272     10271     10274     10275
     10272     10271     10274     10276     10272     10271     10274     10277
     10273     10271     10274     10275     10273     10271     10274     10276
     10273     10271     10274     10277     10274     10277     10280     10281
     10274     10277     10280     10282     10274     10277     10280     10283
     10275     10274     10277     10278     10275     10274     10277     10279
     10275     10274     10277     10280     10276     10274     10277     10278
     10276     10274     10277     10279     10276     10274     10277     10280
     10277     10280     10283     10284     10277     10280     10283     10285
     10277     10280     10283     10286     10278     10277     10280     10281
     10278     10277     10280     10282     10278     10277     10280     10283
     10279     10277     10280     10281     10279     10277     10280     10282
     10279     10277     10280     10283     10281     10280     10283     10284
     10281     10280     10283     10285     10281     10280     10283     10286
     10282     10280     10283     10284     10282     10280     10283     10285
     10282     10280     10283     10286     10287     10290     10293     10291
     10287     10290     10294     10295     10287     10290     10294     10296
     10287     10290     10294     10297     10288     10287     10290     10293
     10288     10287     10290     10294     10289     10287     10290     10293
     10289     10287     10290     10294     10290     10293     10291     10292
     10290     10293     10291     10300     10290     10293     10291     10303
     10290     10294     10297     10298     10290     10294     10297     10299
     10290     10294     10297     10300     10291     10293     10290     10294
     10291     10300     10297     10294     10291     10300     10297     10298
     10291     10300     10297     10299     10291     10300     10302     10339
     10291     10303     10305     10306     10291     10303     10307     10308
     10291     10303     10307     10309     10291     10303     10307     10310
     10292     10291     10300     10297     10292     10291     10300     10301
     10292     10291     10300     10302     10292     10291     10303     10304
     10292     10291     10303     10305     10292     10291     10303     10307
     10293     10290     10294     10295     10293     10290     10294     10296
     10293     10290     10294     10297     10293     10291     10300     10297
     10293     10291     10300     10301     10293     10291     10300     10302
     10293     10291     10303     10304     10293     10291     10303     10305
     10293     10291     10303     10307     10294     10297     10299     10315
     10294     10297     10300     10301     10294     10297     10300     10302
     10295     10294     10297     10298     10295     10294     10297     10299
     10295     10294     10297     10300     10296     10294     10297     10298
     10296     10294     10297     10299     10296     10294     10297     10300
     10297     10299     10315     10312     10297     10299     10315     10318
     10297     10299     10315     10319     10297     10300     10291     10303
     10297     10300     10302     10339     10298     10297     10299     10315
     10298     10297     10300     10301     10298     10297     10300     10302
     10299     10297     10300     10301     10299     10297     10300     10302
     10299     10315     10312     10313     10299     10315     10312     10314
     10299     10315     10318     10316     10299     10315     10319     10320
     10299     10315     10319     10321     10299     10315     10319     10322
     10300     10291     10303     10304     10300     10291     10303     10305
     10300     10291     10303     10307     10300     10297     10299     10315
     10300     10302     10339     10340     10300     10302     10339     10343
     10300     10302     10339     10344     10301     10300     10291     10303
     10301     10300     10302     10339     10302     10300     10291     10303
     10302     10339     10343     10341     10302     10339     10344     10345
     10302     10339     10344     10346     10302     10339     10344     10348
     10303     10307     10310     10311     10304     10303     10305     10306
     10304     10303     10307     10308     10304     10303     10307     10309
     10304     10303     10307     10310     10305     10303     10307     10308
     10305     10303     10307     10309     10305     10303     10307     10310
     10306     10305     10303     10307     10308     10307     10310     10311
     10309     10307     10310     10311     10312     10315     10318     10316
     10312     10315     10319     10320     10312     10315     10319     10321
     10312     10315     10319     10322     10313     10312     10315     10318
     10313     10312     10315     10319     10314     10312     10315     10318
     10314     10312     10315     10319     10315     10318     10316     10317
     10315     10318     10316     10326     10315     10318     10316     10330
     10315     10319     10322     10323     10315     10319     10322     10324
     10315     10319     10322     10326     10316     10318     10315     10319
     10316     10326     10322     10319     10316     10326     10322     10323
     10316     10326     10322     10324     10316     10326     10328     10329
     10316     10330     10332     10333     10316     10330     10334     10335
     10316     10330     10334     10336     10316     10330     10334     10337
     10317     10316     10326     10322     10317     10316     10326     10327
     10317     10316     10326     10328     10317     10316     10330     10331
     10317     10316     10330     10332     10317     10316     10330     10334
     10318     10315     10319     10320     10318     10315     10319     10321
     10318     10315     10319     10322     10318     10316     10326     10322
     10318     10316     10326     10327     10318     10316     10326     10328
     10318     10316     10330     10331     10318     10316     10330     10332
     10318     10316     10330     10334     10319     10322     10324     10325
     10319     10322     10326     10327     10319     10322     10326     10328
     10320     10319     10322     10323     10320     10319     10322     10324
     10320     10319     10322     10326     10321     10319     10322     10323
     10321     10319     10322     10324     10321     10319     10322     10326
     10322     10326     10316     10330     10322     10326     10328     10329
     10323     10322     10324     10325     10323     10322     10326     10327
     10323     10322     10326     10328     10324     10322     10326     10327
     10324     10322     10326     10328     10325     10324     10322     10326
     10326     10316     10330     10331     10326     10316     10330     10332
     10326     10316     10330     10334     10327     10326     10316     10330
     10327     10326     10328     10329     10328     10326     10316     10330
     10330     10334     10337     10338     10331     10330     10332     10333
     10331     10330     10334     10335     10331     10330     10334     10336
     10331     10330     10334     10337     10332     10330     10334     10335
     10332     10330     10334     10336     10332     10330     10334     10337
     10333     10332     10330     10334     10335     10334     10337     10338
     10336     10334     10337     10338     10339     10343     10341     10342
     10339     10343     10341     10351     10339     10343     10341     10358
     10339     10344     10346     10347     10339     10344     10348     10349
     10339     10344     10348     10350     10339     10344     10348     10351
     10340     10339     10343     10341     10340     10339     10344     10345
     10340     10339     10344     10346     10340     10339     10344     10348
     10341     10343     10339     10344     10341     10351     10348     10344
     10341     10351     10348     10349     10341     10351     10348     10350
     10341     10351     10353     10354     10341     10358     10360     10361
     10341     10358     10362     10363     10341     10358     10362     10364
     10341     10358     10362     10365     10342     10341     10351     10348
     10342     10341     10351     10352     10342     10341     10351     10353
     10342     10341     10358     10359     10342     10341     10358     10360
     10342     10341     10358     10362     10343     10339     10344     10345
     10343     10339     10344     10346     10343     10339     10344     10348
     10343     10341     10351     10348     10343     10341     10351     10352
     10343     10341     10351     10353     10343     10341     10358     10359
     10343     10341     10358     10360     10343     10341     10358     10362
     10344     10348     10350     10367     10344     10348     10351     10352
     10344     10348     10351     10353     10345     10344     10346     10347
     10345     10344     10348     10349     10345     10344     10348     10350
     10345     10344     10348     10351     10346     10344     10348     10349
     10346     10344     10348     10350     10346     10344     10348     10351
     10347     10346     10344     10348     10348     10350     10367     10368
     10348     10350     10367     10371     10348     10350     10367     10372
     10348     10351     10341     10358     10348     10351     10353     10354
     10349     10348     10350     10367     10349     10348     10351     10352
     10349     10348     10351     10353     10350     10348     10351     10352
     10350     10348     10351     10353     10350     10367     10371     10369
     10350     10367     10372     10373     10350     10367     10372     10374
     10350     10367     10372     10376     10351     10341     10358     10359
     10351     10341     10358     10360     10351     10341     10358     10362
     10351     10348     10350     10367     10351     10353     10354     10355
     10351     10353     10354     10356     10351     10353     10354     10357
     10352     10351     10341     10358     10352     10351     10353     10354
     10353     10351     10341     10358     10358     10362     10365     10366
     10359     10358     10360     10361     10359     10358     10362     10363
     10359     10358     10362     10364     10359     10358     10362     10365
     10360     10358     10362     10363     10360     10358     10362     10364
     10360     10358     10362     10365     10361     10360     10358     10362
     10363     10362     10365     10366     10364     10362     10365     10366
     10367     10371     10369     10370     10367     10371     10369     10379
     10367     10371     10369     10386     10367     10372     10374     10375
     10367     10372     10376     10377     10367     10372     10376     10378
     10367     10372     10376     10379     10368     10367     10371     10369
     10368     10367     10372     10373     10368     10367     10372     10374
     10368     10367     10372     10376     10369     10371     10367     10372
     10369     10379     10376     10372     10369     10379     10376     10377
     10369     10379     10376     10378     10369     10379     10381     10382
     10369     10386     10388     10389     10369     10386     10390     10391
     10369     10386     10390     10392     10369     10386     10390     10393
     10370     10369     10379     10376     10370     10369     10379     10380
     10370     10369     10379     10381     10370     10369     10386     10387
     10370     10369     10386     10388     10370     10369     10386     10390
     10371     10367     10372     10373     10371     10367     10372     10374
     10371     10367     10372     10376     10371     10369     10379     10376
     10371     10369     10379     10380     10371     10369     10379     10381
     10371     10369     10386     10387     10371     10369     10386     10388
     10371     10369     10386     10390     10372     10376     10378     10420
     10372     10376     10379     10380     10372     10376     10379     10381
     10373     10372     10374     10375     10373     10372     10376     10377
     10373     10372     10376     10378     10373     10372     10376     10379
     10374     10372     10376     10377     10374     10372     10376     10378
     10374     10372     10376     10379     10375     10374     10372     10376
     10376     10378     10420     10421     10376     10378     10420     10424
     10376     10378     10420     10425     10376     10379     10369     10386
     10376     10379     10381     10382     10377     10376     10378     10420
     10377     10376     10379     10380     10377     10376     10379     10381
     10378     10376     10379     10380     10378     10376     10379     10381
     10378     10420     10424     10422     10378     10420     10425     10426
     10378     10420     10425     10427     10378     10420     10425     10429
     10379     10369     10386     10387     10379     10369     10386     10388
     10379     10369     10386     10390     10379     10376     10378     10420
     10379     10381     10382     10383     10379     10381     10382     10384
     10379     10381     10382     10385     10380     10379     10369     10386
     10380     10379     10381     10382     10381     10379     10369     10386
     10386     10390     10393     10394     10387     10386     10388     10389
     10387     10386     10390     10391     10387     10386     10390     10392
     10387     10386     10390     10393     10388     10386     10390     10391
     10388     10386     10390     10392     10388     10386     10390     10393
     10389     10388     10386     10390     10390     10393     10394     10395
     10390     10393     10394     10398     10390     10393     10394     10399
     10391     10390     10393     10394     10392     10390     10393     10394
     10393     10394     10398     10396     10393     10394     10399     10400
     10393     10394     10399     10401     10393     10394     10399     10403
     10394     10398     10396     10397     10394     10398     10396     10407
     10394     10398     10396     10411     10394     10399     10401     10402
     10394     10399     10403     10404     10394     10399     10403     10405
     10394     10399     10403     10407     10395     10394     10398     10396
     10395     10394     10399     10400     10395     10394     10399     10401
     10395     10394     10399     10403     10396     10398     10394     10399
     10396     10407     10403     10399     10396     10407     10403     10404
     10396     10407     10403     10405     10396     10407     10409     10410
     10396     10411     10413     10414     10396     10411     10415     10416
     10396     10411     10415     10417     10396     10411     10415     10418
     10397     10396     10407     10403     10397     10396     10407     10408
     10397     10396     10407     10409     10397     10396     10411     10412
     10397     10396     10411     10413     10397     10396     10411     10415
     10398     10394     10399     10400     10398     10394     10399     10401
     10398     10394     10399     10403     10398     10396     10407     10403
     10398     10396     10407     10408     10398     10396     10407     10409
     10398     10396     10411     10412     10398     10396     10411     10413
     10398     10396     10411     10415     10399     10403     10405     10406
     10399     10403     10407     10408     10399     10403     10407     10409
     10400     10399     10401     10402     10400     10399     10403     10404
     10400     10399     10403     10405     10400     10399     10403     10407
     10401     10399     10403     10404     10401     10399     10403     10405
     10401     10399     10403     10407     10402     10401     10399     10403
     10403     10407     10396     10411     10403     10407     10409     10410
     10404     10403     10405     10406     10404     10403     10407     10408
     10404     10403     10407     10409     10405     10403     10407     10408
     10405     10403     10407     10409     10406     10405     10403     10407
     10407     10396     10411     10412     10407     10396     10411     10413
     10407     10396     10411     10415     10408     10407     10396     10411
     10408     10407     10409     10410     10409     10407     10396     10411
     10411     10415     10418     10419     10412     10411     10413     10414
     10412     10411     10415     10416     10412     10411     10415     10417
     10412     10411     10415     10418     10413     10411     10415     10416
     10413     10411     10415     10417     10413     10411     10415     10418
     10414     10413     10411     10415     10416     10415     10418     10419
     10417     10415     10418     10419     10420     10424     10422     10423
     10420     10424     10422     10432     10420     10424     10422     10436
     10420     10425     10427     10428     10420     10425     10429     10430
     10420     10425     10429     10431     10420     10425     10429     10432
     10421     10420     10424     10422     10421     10420     10425     10426
     10421     10420     10425     10427     10421     10420     10425     10429
     10422     10424     10420     10425     10422     10432     10429     10425
     10422     10432     10429     10430     10422     10432     10429     10431
     10422     10432     10434     10435     10422     10436     10439     10440
     10423     10422     10432     10429     10423     10422     10432     10433
     10423     10422     10432     10434     10423     10422     10436     10437
     10423     10422     10436     10438     10423     10422     10436     10439
     10424     10420     10425     10426     10424     10420     10425     10427
     10424     10420     10425     10429     10424     10422     10432     10429
     10424     10422     10432     10433     10424     10422     10432     10434
     10424     10422     10436     10437     10424     10422     10436     10438
     10424     10422     10436     10439     10425     10429     10431     10441
     10425     10429     10432     10433     10425     10429     10432     10434
     10426     10425     10427     10428     10426     10425     10429     10430
     10426     10425     10429     10431     10426     10425     10429     10432
     10427     10425     10429     10430     10427     10425     10429     10431
     10427     10425     10429     10432     10428     10427     10425     10429
     10429     10431     10441     10442     10429     10431     10441     10445
     10429     10431     10441     10446     10429     10432     10422     10436
     10429     10432     10434     10435     10430     10429     10431     10441
     10430     10429     10432     10433     10430     10429     10432     10434
     10431     10429     10432     10433     10431     10429     10432     10434
     10431     10441     10445     10443     10431     10441     10446     10447
     10431     10441     10446     10448     10431     10441     10446     10449
     10432     10422     10436     10437     10432     10422     10436     10438
     10432     10422     10436     10439     10432     10429     10431     10441
     10433     10432     10422     10436     10433     10432     10434     10435
     10434     10432     10422     10436     10437     10436     10439     10440
     10438     10436     10439     10440     10441     10445     10443     10444
     10441     10445     10443     10452     10441     10445     10443     10456
     10441     10446     10448     10461     10441     10446     10449     10450
     10441     10446     10449     10451     10441     10446     10449     10452
     10442     10441     10445     10443     10442     10441     10446     10447
     10442     10441     10446     10448     10442     10441     10446     10449
     10443     10445     10441     10446     10443     10452     10449     10446
     10443     10452     10449     10450     10443     10452     10449     10451
     10443     10452     10454     10455     10443     10456     10459     10460
     10444     10443     10452     10449     10444     10443     10452     10453
     10444     10443     10452     10454     10444     10443     10456     10457
     10444     10443     10456     10458     10444     10443     10456     10459
     10445     10441     10446     10447     10445     10441     10446     10448
     10445     10441     10446     10449     10445     10443     10452     10449
     10445     10443     10452     10453     10445     10443     10452     10454
     10445     10443     10456     10457     10445     10443     10456     10458
     10445     10443     10456     10459     10446     10448     10461     10462
     10446     10448     10461     10465     10446     10448     10461     10466
     10446     10449     10451     10504     10446     10449     10452     10453
     10446     10449     10452     10454     10447     10446     10448     10461
     10447     10446     10449     10450     10447     10446     10449     10451
     10447     10446     10449     10452     10448     10446     10449     10450
     10448     10446     10449     10451     10448     10446     10449     10452
     10448     10461     10465     10463     10448     10461     10466     10467
     10448     10461     10466     10468     10448     10461     10466     10469
     10449     10446     10448     10461     10449     10451     10504     10505
     10449     10451     10504     10508     10449     10451     10504     10509
     10449     10452     10443     10456     10449     10452     10454     10455
     10450     10449     10451     10504     10450     10449     10452     10453
     10450     10449     10452     10454     10451     10449     10452     10453
     10451     10449     10452     10454     10451     10504     10508     10506
     10451     10504     10509     10510     10451     10504     10509     10511
     10451     10504     10509     10513     10452     10443     10456     10457
     10452     10443     10456     10458     10452     10443     10456     10459
     10452     10449     10451     10504     10453     10452     10443     10456
     10453     10452     10454     10455     10454     10452     10443     10456
     10457     10456     10459     10460     10458     10456     10459     10460
     10461     10465     10463     10464     10461     10465     10463     10473
     10461     10465     10463     10477     10461     10466     10468     10482
     10461     10466     10469     10470     10461     10466     10469     10471
     10461     10466     10469     10473     10462     10461     10465     10463
     10462     10461     10466     10467     10462     10461     10466     10468
     10462     10461     10466     10469     10463     10465     10461     10466
     10463     10473     10469     10466     10463     10473     10469     10470
     10463     10473     10469     10471     10463     10473     10475     10476
     10463     10477     10480     10481     10464     10463     10473     10469
     10464     10463     10473     10474     10464     10463     10473     10475
     10464     10463     10477     10478     10464     10463     10477     10479
     10464     10463     10477     10480     10465     10461     10466     10467
     10465     10461     10466     10468     10465     10461     10466     10469
     10465     10463     10473     10469     10465     10463     10473     10474
     10465     10463     10473     10475     10465     10463     10477     10478
     10465     10463     10477     10479     10465     10463     10477     10480
     10466     10468     10482     10483     10466     10468     10482     10486
     10466     10468     10482     10487     10466     10469     10471     10472
     10466     10469     10473     10474     10466     10469     10473     10475
     10467     10466     10468     10482     10467     10466     10469     10470
     10467     10466     10469     10471     10467     10466     10469     10473
     10468     10466     10469     10470     10468     10466     10469     10471
     10468     10466     10469     10473     10468     10482     10486     10484
     10468     10482     10487     10488     10468     10482     10487     10489
     10468     10482     10487     10491     10469     10466     10468     10482
     10469     10473     10463     10477     10469     10473     10475     10476
     10470     10469     10471     10472     10470     10469     10473     10474
     10470     10469     10473     10475     10471     10469     10473     10474
     10471     10469     10473     10475     10472     10471     10469     10473
     10473     10463     10477     10478     10473     10463     10477     10479
     10473     10463     10477     10480     10474     10473     10463     10477
     10474     10473     10475     10476     10475     10473     10463     10477
     10478     10477     10480     10481     10479     10477     10480     10481
     10482     10486     10484     10485     10482     10486     10484     10495
     10482     10486     10484     10499     10482     10487     10489     10490
     10482     10487     10491     10492     10482     10487     10491     10493
     10482     10487     10491     10495     10483     10482     10486     10484
     10483     10482     10487     10488     10483     10482     10487     10489
     10483     10482     10487     10491     10484     10486     10482     10487
     10484     10495     10491     10487     10484     10495     10491     10492
     10484     10495     10491     10493     10484     10495     10497     10498
     10484     10499     10502     10503     10485     10484     10495     10491
     10485     10484     10495     10496     10485     10484     10495     10497
     10485     10484     10499     10500     10485     10484     10499     10501
     10485     10484     10499     10502     10486     10482     10487     10488
     10486     10482     10487     10489     10486     10482     10487     10491
     10486     10484     10495     10491     10486     10484     10495     10496
     10486     10484     10495     10497     10486     10484     10499     10500
     10486     10484     10499     10501     10486     10484     10499     10502
     10487     10491     10493     10494     10487     10491     10495     10496
     10487     10491     10495     10497     10488     10487     10489     10490
     10488     10487     10491     10492     10488     10487     10491     10493
     10488     10487     10491     10495     10489     10487     10491     10492
     10489     10487     10491     10493     10489     10487     10491     10495
     10490     10489     10487     10491     10491     10495     10484     10499
     10491     10495     10497     10498     10492     10491     10493     10494
     10492     10491     10495     10496     10492     10491     10495     10497
     10493     10491     10495     10496     10493     10491     10495     10497
     10494     10493     10491     10495     10495     10484     10499     10500
     10495     10484     10499     10501     10495     10484     10499     10502
     10496     10495     10484     10499     10496     10495     10497     10498
     10497     10495     10484     10499     10500     10499     10502     10503
     10501     10499     10502     10503     10504     10508     10506     10507
     10504     10508     10506     10516     10504     10508     10506     10520
     10504     10509     10511     10512     10504     10509     10513     10514
     10504     10509     10513     10515     10504     10509     10513     10516
     10505     10504     10508     10506     10505     10504     10509     10510
     10505     10504     10509     10511     10505     10504     10509     10513
     10506     10508     10504     10509     10506     10516     10513     10509
     10506     10516     10513     10514     10506     10516     10513     10515
     10506     10516     10518     10519     10506     10520     10523     10524
     10507     10506     10516     10513     10507     10506     10516     10517
     10507     10506     10516     10518     10507     10506     10520     10521
     10507     10506     10520     10522     10507     10506     10520     10523
     10508     10504     10509     10510     10508     10504     10509     10511
     10508     10504     10509     10513     10508     10506     10516     10513
     10508     10506     10516     10517     10508     10506     10516     10518
     10508     10506     10520     10521     10508     10506     10520     10522
     10508     10506     10520     10523     10509     10513     10515     10525
     10509     10513     10516     10517     10509     10513     10516     10518
     10510     10509     10511     10512     10510     10509     10513     10514
     10510     10509     10513     10515     10510     10509     10513     10516
     10511     10509     10513     10514     10511     10509     10513     10515
     10511     10509     10513     10516     10512     10511     10509     10513
     10513     10515     10525     10526     10513     10515     10525     10529
     10513     10515     10525     10530     10513     10516     10506     10520
     10513     10516     10518     10519     10514     10513     10515     10525
     10514     10513     10516     10517     10514     10513     10516     10518
     10515     10513     10516     10517     10515     10513     10516     10518
     10515     10525     10529     10527     10515     10525     10530     10531
     10515     10525     10530     10532     10515     10525     10530     10540
     10516     10506     10520     10521     10516     10506     10520     10522
     10516     10506     10520     10523     10516     10513     10515     10525
     10517     10516     10506     10520     10517     10516     10518     10519
     10518     10516     10506     10520     10521     10520     10523     10524
     10522     10520     10523     10524     10525     10529     10527     10528
     10525     10529     10527     10543     10525     10529     10527     10547
     10525     10530     10532     10533     10525     10530     10532     10534
     10525     10530     10540     10541     10525     10530     10540     10542
     10525     10530     10540     10543     10526     10525     10529     10527
     10526     10525     10530     10531     10526     10525     10530     10532
     10526     10525     10530     10540     10527     10529     10525     10530
     10527     10543     10540     10530     10527     10543     10540     10541
     10527     10543     10540     10542     10527     10543     10545     10546
     10527     10547     10550     10551     10528     10527     10543     10540
     10528     10527     10543     10544     10528     10527     10543     10545
     10528     10527     10547     10548     10528     10527     10547     10549
     10528     10527     10547     10550     10529     10525     10530     10531
     10529     10525     10530     10532     10529     10525     10530     10540
     10529     10527     10543     10540     10529     10527     10543     10544
     10529     10527     10543     10545     10529     10527     10547     10548
     10529     10527     10547     10549     10529     10527     10547     10550
     10530     10532     10534     10535     10530     10532     10534     10536
     10530     10540     10542     10552     10530     10540     10543     10544
     10530     10540     10543     10545     10531     10530     10532     10533
     10531     10530     10532     10534     10531     10530     10540     10541
     10531     10530     10540     10542     10531     10530     10540     10543
     10532     10530     10540     10541     10532     10530     10540     10542
     10532     10530     10540     10543     10532     10534     10536     10537
     10532     10534     10536     10538     10532     10534     10536     10539
     10533     10532     10530     10540     10533     10532     10534     10535
     10533     10532     10534     10536     10534     10532     10530     10540
     10535     10534     10536     10537     10535     10534     10536     10538
     10535     10534     10536     10539     10540     10542     10552     10553
     10540     10542     10552     10556     10540     10542     10552     10557
     10540     10543     10527     10547     10540     10543     10545     10546
     10541     10540     10542     10552     10541     10540     10543     10544
     10541     10540     10543     10545     10542     10540     10543     10544
     10542     10540     10543     10545     10542     10552     10556     10554
     10542     10552     10557     10558     10542     10552     10557     10559
     10542     10552     10557     10560     10543     10527     10547     10548
     10543     10527     10547     10549     10543     10527     10547     10550
     10543     10540     10542     10552     10544     10543     10527     10547
     10544     10543     10545     10546     10545     10543     10527     10547
     10548     10547     10550     10551     10549     10547     10550     10551
     10552     10556     10554     10555     10552     10556     10554     10564
     10552     10556     10554     10568     10552     10557     10559     10573
     10552     10557     10560     10561     10552     10557     10560     10562
     10552     10557     10560     10564     10553     10552     10556     10554
     10553     10552     10557     10558     10553     10552     10557     10559
     10553     10552     10557     10560     10554     10556     10552     10557
     10554     10564     10560     10557     10554     10564     10560     10561
     10554     10564     10560     10562     10554     10564     10566     10567
     10554     10568     10571     10572     10555     10554     10564     10560
     10555     10554     10564     10565     10555     10554     10564     10566
     10555     10554     10568     10569     10555     10554     10568     10570
     10555     10554     10568     10571     10556     10552     10557     10558
     10556     10552     10557     10559     10556     10552     10557     10560
     10556     10554     10564     10560     10556     10554     10564     10565
     10556     10554     10564     10566     10556     10554     10568     10569
     10556     10554     10568     10570     10556     10554     10568     10571
     10557     10559     10573     10574     10557     10559     10573     10577
     10557     10559     10573     10578     10557     10560     10562     10563
     10557     10560     10564     10565     10557     10560     10564     10566
     10558     10557     10559     10573     10558     10557     10560     10561
     10558     10557     10560     10562     10558     10557     10560     10564
     10559     10557     10560     10561     10559     10557     10560     10562
     10559     10557     10560     10564     10559     10573     10577     10575
     10559     10573     10578     10579     10559     10573     10578     10580
     10559     10573     10578     10581     10560     10557     10559     10573
     10560     10564     10554     10568     10560     10564     10566     10567
     10561     10560     10562     10563     10561     10560     10564     10565
     10561     10560     10564     10566     10562     10560     10564     10565
     10562     10560     10564     10566     10563     10562     10560     10564
     10564     10554     10568     10569     10564     10554     10568     10570
     10564     10554     10568     10571     10565     10564     10554     10568
     10565     10564     10566     10567     10566     10564     10554     10568
     10569     10568     10571     10572     10570     10568     10571     10572
     10573     10577     10575     10576     10573     10577     10575     10585
     10573     10577     10575     10589     10573     10578     10580     10593
     10573     10578     10581     10582     10573     10578     10581     10583
     10573     10578     10581     10585     10574     10573     10577     10575
     10574     10573     10578     10579     10574     10573     10578     10580
     10574     10573     10578     10581     10575     10577     10573     10578
     10575     10585     10581     10578     10575     10585     10581     10582
     10575     10585     10581     10583     10575     10585     10587     10588
     10576     10575     10585     10581     10576     10575     10585     10586
     10576     10575     10585     10587     10576     10575     10589     10590
     10576     10575     10589     10591     10576     10575     10589     10592
     10577     10573     10578     10579     10577     10573     10578     10580
     10577     10573     10578     10581     10577     10575     10585     10581
     10577     10575     10585     10586     10577     10575     10585     10587
     10577     10575     10589     10590     10577     10575     10589     10591
     10577     10575     10589     10592     10578     10580     10593     10594
     10578     10580     10593     10597     10578     10580     10593     10598
     10578     10581     10583     10584     10578     10581     10585     10586
     10578     10581     10585     10587     10579     10578     10580     10593
     10579     10578     10581     10582     10579     10578     10581     10583
     10579     10578     10581     10585     10580     10578     10581     10582
     10580     10578     10581     10583     10580     10578     10581     10585
     10580     10593     10597     10595     10580     10593     10598     10599
     10580     10593     10598     10600     10580     10593     10598     10601
     10581     10578     10580     10593     10581     10585     10575     10589
     10581     10585     10587     10588     10582     10581     10583     10584
     10582     10581     10585     10586     10582     10581     10585     10587
     10583     10581     10585     10586     10583     10581     10585     10587
     10584     10583     10581     10585     10585     10575     10589     10590
     10585     10575     10589     10591     10585     10575     10589     10592
     10586     10585     10575     10589     10586     10585     10587     10588
     10587     10585     10575     10589     10593     10597     10595     10596
     10593     10597     10595     10604     10593     10597     10595     10608
     10593     10598     10600     10612     10593     10598     10601     10602
     10593     10598     10601     10603     10593     10598     10601     10604
     10594     10593     10597     10595     10594     10593     10598     10599
     10594     10593     10598     10600     10594     10593     10598     10601
     10595     10597     10593     10598     10595     10604     10601     10598
     10595     10604     10601     10602     10595     10604     10601     10603
     10595     10604     10606     10607     10596     10595     10604     10601
     10596     10595     10604     10605     10596     10595     10604     10606
     10596     10595     10608     10609     10596     10595     10608     10610
     10596     10595     10608     10611     10597     10593     10598     10599
     10597     10593     10598     10600     10597     10593     10598     10601
     10597     10595     10604     10601     10597     10595     10604     10605
     10597     10595     10604     10606     10597     10595     10608     10609
     10597     10595     10608     10610     10597     10595     10608     10611
     10598     10600     10612     10613     10598     10600     10612     10616
     10598     10600     10612     10617     10598     10601     10603     10640
     10598     10601     10604     10605     10598     10601     10604     10606
     10599     10598     10600     10612     10599     10598     10601     10602
     10599     10598     10601     10603     10599     10598     10601     10604
     10600     10598     10601     10602     10600     10598     10601     10603
     10600     10598     10601     10604     10600     10612     10616     10614
     10600     10612     10617     10618     10600     10612     10617     10619
     10600     10612     10617     10627     10601     10598     10600     10612
     10601     10603     10640     10641     10601     10603     10640     10644
     10601     10603     10640     10645     10601     10604     10595     10608
     10601     10604     10606     10607     10602     10601     10603     10640
     10602     10601     10604     10605     10602     10601     10604     10606
     10603     10601     10604     10605     10603     10601     10604     10606
     10603     10640     10644     10642     10603     10640     10645     10646
     10603     10640     10645     10647     10603     10640     10645     10655
     10604     10595     10608     10609     10604     10595     10608     10610
     10604     10595     10608     10611     10604     10601     10603     10640
     10605     10604     10595     10608     10605     10604     10606     10607
     10606     10604     10595     10608     10612     10616     10614     10615
     10612     10616     10614     10631     10612     10616     10614     10635
     10612     10617     10619     10620     10612     10617     10619     10621
     10612     10617     10627     10628     10612     10617     10627     10629
     10612     10617     10627     10631     10613     10612     10616     10614
     10613     10612     10617     10618     10613     10612     10617     10619
     10613     10612     10617     10627     10614     10616     10612     10617
     10614     10631     10627     10617     10614     10631     10627     10628
     10614     10631     10627     10629     10614     10631     10633     10634
     10614     10635     10638     10639     10615     10614     10631     10627
     10615     10614     10631     10632     10615     10614     10631     10633
     10615     10614     10635     10636     10615     10614     10635     10637
     10615     10614     10635     10638     10616     10612     10617     10618
     10616     10612     10617     10619     10616     10612     10617     10627
     10616     10614     10631     10627     10616     10614     10631     10632
     10616     10614     10631     10633     10616     10614     10635     10636
     10616     10614     10635     10637     10616     10614     10635     10638
     10617     10619     10621     10622     10617     10619     10621     10623
     10617     10627     10629     10630     10617     10627     10631     10632
     10617     10627     10631     10633     10618     10617     10619     10620
     10618     10617     10619     10621     10618     10617     10627     10628
     10618     10617     10627     10629     10618     10617     10627     10631
     10619     10617     10627     10628     10619     10617     10627     10629
     10619     10617     10627     10631     10619     10621     10623     10624
     10619     10621     10623     10625     10619     10621     10623     10626
     10620     10619     10617     10627     10620     10619     10621     10622
     10620     10619     10621     10623     10621     10619     10617     10627
     10622     10621     10623     10624     10622     10621     10623     10625
     10622     10621     10623     10626     10627     10631     10614     10635
     10627     10631     10633     10634     10628     10627     10629     10630
     10628     10627     10631     10632     10628     10627     10631     10633
     10629     10627     10631     10632     10629     10627     10631     10633
     10630     10629     10627     10631     10631     10614     10635     10636
     10631     10614     10635     10637     10631     10614     10635     10638
     10632     10631     10614     10635     10632     10631     10633     10634
     10633     10631     10614     10635     10636     10635     10638     10639
     10637     10635     10638     10639     10640     10644     10642     10643
     10640     10644     10642     10658     10640     10644     10642     10662
     10640     10645     10647     10648     10640     10645     10647     10649
     10640     10645     10655     10656     10640     10645     10655     10657
     10640     10645     10655     10658     10641     10640     10644     10642
     10641     10640     10645     10646     10641     10640     10645     10647
     10641     10640     10645     10655     10642     10644     10640     10645
     10642     10658     10655     10645     10642     10658     10655     10656
     10642     10658     10655     10657     10642     10658     10660     10661
     10642     10662     10665     10666     10643     10642     10658     10655
     10643     10642     10658     10659     10643     10642     10658     10660
     10643     10642     10662     10663     10643     10642     10662     10664
     10643     10642     10662     10665     10644     10640     10645     10646
     10644     10640     10645     10647     10644     10640     10645     10655
     10644     10642     10658     10655     10644     10642     10658     10659
     10644     10642     10658     10660     10644     10642     10662     10663
     10644     10642     10662     10664     10644     10642     10662     10665
     10645     10647     10649     10650     10645     10647     10649     10651
     10645     10655     10657     10667     10645     10655     10658     10659
     10645     10655     10658     10660     10646     10645     10647     10648
     10646     10645     10647     10649     10646     10645     10655     10656
     10646     10645     10655     10657     10646     10645     10655     10658
     10647     10645     10655     10656     10647     10645     10655     10657
     10647     10645     10655     10658     10647     10649     10651     10652
     10647     10649     10651     10653     10647     10649     10651     10654
     10648     10647     10645     10655     10648     10647     10649     10650
     10648     10647     10649     10651     10649     10647     10645     10655
     10650     10649     10651     10652     10650     10649     10651     10653
     10650     10649     10651     10654     10655     10657     10667     10668
     10655     10657     10667     10671     10655     10657     10667     10672
     10655     10658     10642     10662     10655     10658     10660     10661
     10656     10655     10657     10667     10656     10655     10658     10659
     10656     10655     10658     10660     10657     10655     10658     10659
     10657     10655     10658     10660     10657     10667     10671     10669
     10657     10667     10672     10673     10657     10667     10672     10674
     10657     10667     10672     10675     10658     10642     10662     10663
     10658     10642     10662     10664     10658     10642     10662     10665
     10658     10655     10657     10667     10659     10658     10642     10662
     10659     10658     10660     10661     10660     10658     10642     10662
     10663     10662     10665     10666     10664     10662     10665     10666
     10667     10671     10669     10670     10667     10671     10669     10679
     10667     10671     10669     10683     10667     10672     10674     10688
     10667     10672     10675     10676     10667     10672     10675     10677
     10667     10672     10675     10679     10668     10667     10671     10669
     10668     10667     10672     10673     10668     10667     10672     10674
     10668     10667     10672     10675     10669     10671     10667     10672
     10669     10679     10675     10672     10669     10679     10675     10676
     10669     10679     10675     10677     10669     10679     10681     10682
     10669     10683     10686     10687     10670     10669     10679     10675
     10670     10669     10679     10680     10670     10669     10679     10681
     10670     10669     10683     10684     10670     10669     10683     10685
     10670     10669     10683     10686     10671     10667     10672     10673
     10671     10667     10672     10674     10671     10667     10672     10675
     10671     10669     10679     10675     10671     10669     10679     10680
     10671     10669     10679     10681     10671     10669     10683     10684
     10671     10669     10683     10685     10671     10669     10683     10686
     10672     10674     10688     10689     10672     10674     10688     10692
     10672     10674     10688     10693     10672     10675     10677     10678
     10672     10675     10679     10680     10672     10675     10679     10681
     10673     10672     10674     10688     10673     10672     10675     10676
     10673     10672     10675     10677     10673     10672     10675     10679
     10674     10672     10675     10676     10674     10672     10675     10677
     10674     10672     10675     10679     10674     10688     10692     10690
     10674     10688     10693     10694     10674     10688     10693     10695
     10674     10688     10693     10696     10675     10672     10674     10688
     10675     10679     10669     10683     10675     10679     10681     10682
     10676     10675     10677     10678     10676     10675     10679     10680
     10676     10675     10679     10681     10677     10675     10679     10680
     10677     10675     10679     10681     10678     10677     10675     10679
     10679     10669     10683     10684     10679     10669     10683     10685
     10679     10669     10683     10686     10680     10679     10669     10683
     10680     10679     10681     10682     10681     10679     10669     10683
     10684     10683     10686     10687     10685     10683     10686     10687
     10688     10692     10690     10691     10688     10692     10690     10700
     10688     10692     10690     10704     10688     10693     10695     10708
     10688     10693     10696     10697     10688     10693     10696     10698
     10688     10693     10696     10700     10689     10688     10692     10690
     10689     10688     10693     10694     10689     10688     10693     10695
     10689     10688     10693     10696     10690     10692     10688     10693
     10690     10700     10696     10693     10690     10700     10696     10697
     10690     10700     10696     10698     10690     10700     10702     10703
     10691     10690     10700     10696     10691     10690     10700     10701
     10691     10690     10700     10702     10691     10690     10704     10705
     10691     10690     10704     10706     10691     10690     10704     10707
     10692     10688     10693     10694     10692     10688     10693     10695
     10692     10688     10693     10696     10692     10690     10700     10696
     10692     10690     10700     10701     10692     10690     10700     10702
     10692     10690     10704     10705     10692     10690     10704     10706
     10692     10690     10704     10707     10693     10695     10708     10709
     10693     10695     10708     10712     10693     10695     10708     10713
     10693     10696     10698     10699     10693     10696     10700     10701
     10693     10696     10700     10702     10694     10693     10695     10708
     10694     10693     10696     10697     10694     10693     10696     10698
     10694     10693     10696     10700     10695     10693     10696     10697
     10695     10693     10696     10698     10695     10693     10696     10700
     10695     10708     10712     10710     10695     10708     10713     10714
     10695     10708     10713     10715     10695     10708     10713     10716
     10696     10693     10695     10708     10696     10700     10690     10704
     10696     10700     10702     10703     10697     10696     10698     10699
     10697     10696     10700     10701     10697     10696     10700     10702
     10698     10696     10700     10701     10698     10696     10700     10702
     10699     10698     10696     10700     10700     10690     10704     10705
     10700     10690     10704     10706     10700     10690     10704     10707
     10701     10700     10690     10704     10701     10700     10702     10703
     10702     10700     10690     10704     10708     10712     10710     10711
     10708     10712     10710     10719     10708     10712     10710     10723
     10708     10713     10715     10727     10708     10713     10716     10717
     10708     10713     10716     10718     10708     10713     10716     10719
     10709     10708     10712     10710     10709     10708     10713     10714
     10709     10708     10713     10715     10709     10708     10713     10716
     10710     10712     10708     10713     10710     10719     10716     10713
     10710     10719     10716     10717     10710     10719     10716     10718
     10710     10719     10721     10722     10711     10710     10719     10716
     10711     10710     10719     10720     10711     10710     10719     10721
     10711     10710     10723     10724     10711     10710     10723     10725
     10711     10710     10723     10726     10712     10708     10713     10714
     10712     10708     10713     10715     10712     10708     10713     10716
     10712     10710     10719     10716     10712     10710     10719     10720
     10712     10710     10719     10721     10712     10710     10723     10724
     10712     10710     10723     10725     10712     10710     10723     10726
     10713     10715     10727     10728     10713     10715     10727     10731
     10713     10715     10727     10732     10713     10716     10718     10755
     10713     10716     10719     10720     10713     10716     10719     10721
     10714     10713     10715     10727     10714     10713     10716     10717
     10714     10713     10716     10718     10714     10713     10716     10719
     10715     10713     10716     10717     10715     10713     10716     10718
     10715     10713     10716     10719     10715     10727     10731     10729
     10715     10727     10732     10733     10715     10727     10732     10734
     10715     10727     10732     10742     10716     10713     10715     10727
     10716     10718     10755     10756     10716     10718     10755     10759
     10716     10718     10755     10760     10716     10719     10710     10723
     10716     10719     10721     10722     10717     10716     10718     10755
     10717     10716     10719     10720     10717     10716     10719     10721
     10718     10716     10719     10720     10718     10716     10719     10721
     10718     10755     10759     10757     10718     10755     10760     10761
     10718     10755     10760     10762     10718     10755     10760     10770
     10719     10710     10723     10724     10719     10710     10723     10725
     10719     10710     10723     10726     10719     10716     10718     10755
     10720     10719     10710     10723     10720     10719     10721     10722
     10721     10719     10710     10723     10727     10731     10729     10730
     10727     10731     10729     10746     10727     10731     10729     10750
     10727     10732     10734     10735     10727     10732     10734     10736
     10727     10732     10742     10743     10727     10732     10742     10744
     10727     10732     10742     10746     10728     10727     10731     10729
     10728     10727     10732     10733     10728     10727     10732     10734
     10728     10727     10732     10742     10729     10731     10727     10732
     10729     10746     10742     10732     10729     10746     10742     10743
     10729     10746     10742     10744     10729     10746     10748     10749
     10729     10750     10753     10754     10730     10729     10746     10742
     10730     10729     10746     10747     10730     10729     10746     10748
     10730     10729     10750     10751     10730     10729     10750     10752
     10730     10729     10750     10753     10731     10727     10732     10733
     10731     10727     10732     10734     10731     10727     10732     10742
     10731     10729     10746     10742     10731     10729     10746     10747
     10731     10729     10746     10748     10731     10729     10750     10751
     10731     10729     10750     10752     10731     10729     10750     10753
     10732     10734     10736     10737     10732     10734     10736     10738
     10732     10742     10744     10745     10732     10742     10746     10747
     10732     10742     10746     10748     10733     10732     10734     10735
     10733     10732     10734     10736     10733     10732     10742     10743
     10733     10732     10742     10744     10733     10732     10742     10746
     10734     10732     10742     10743     10734     10732     10742     10744
     10734     10732     10742     10746     10734     10736     10738     10739
     10734     10736     10738     10740     10734     10736     10738     10741
     10735     10734     10732     10742     10735     10734     10736     10737
     10735     10734     10736     10738     10736     10734     10732     10742
     10737     10736     10738     10739     10737     10736     10738     10740
     10737     10736     10738     10741     10742     10746     10729     10750
     10742     10746     10748     10749     10743     10742     10744     10745
     10743     10742     10746     10747     10743     10742     10746     10748
     10744     10742     10746     10747     10744     10742     10746     10748
     10745     10744     10742     10746     10746     10729     10750     10751
     10746     10729     10750     10752     10746     10729     10750     10753
     10747     10746     10729     10750     10747     10746     10748     10749
     10748     10746     10729     10750     10751     10750     10753     10754
     10752     10750     10753     10754     10755     10759     10757     10758
     10755     10759     10757     10773     10755     10759     10757     10777
     10755     10760     10762     10763     10755     10760     10762     10764
     10755     10760     10770     10771     10755     10760     10770     10772
     10755     10760     10770     10773     10756     10755     10759     10757
     10756     10755     10760     10761     10756     10755     10760     10762
     10756     10755     10760     10770     10757     10759     10755     10760
     10757     10773     10770     10760     10757     10773     10770     10771
     10757     10773     10770     10772     10757     10773     10775     10776
     10757     10777     10780     10781     10758     10757     10773     10770
     10758     10757     10773     10774     10758     10757     10773     10775
     10758     10757     10777     10778     10758     10757     10777     10779
     10758     10757     10777     10780     10759     10755     10760     10761
     10759     10755     10760     10762     10759     10755     10760     10770
     10759     10757     10773     10770     10759     10757     10773     10774
     10759     10757     10773     10775     10759     10757     10777     10778
     10759     10757     10777     10779     10759     10757     10777     10780
     10760     10762     10764     10765     10760     10762     10764     10766
     10760     10770     10772     10782     10760     10770     10773     10774
     10760     10770     10773     10775     10761     10760     10762     10763
     10761     10760     10762     10764     10761     10760     10770     10771
     10761     10760     10770     10772     10761     10760     10770     10773
     10762     10760     10770     10771     10762     10760     10770     10772
     10762     10760     10770     10773     10762     10764     10766     10767
     10762     10764     10766     10768     10762     10764     10766     10769
     10763     10762     10760     10770     10763     10762     10764     10765
     10763     10762     10764     10766     10764     10762     10760     10770
     10765     10764     10766     10767     10765     10764     10766     10768
     10765     10764     10766     10769     10770     10772     10782     10783
     10770     10772     10782     10786     10770     10772     10782     10787
     10770     10773     10757     10777     10770     10773     10775     10776
     10771     10770     10772     10782     10771     10770     10773     10774
     10771     10770     10773     10775     10772     10770     10773     10774
     10772     10770     10773     10775     10772     10782     10786     10784
     10772     10782     10787     10788     10772     10782     10787     10789
     10772     10782     10787     10790     10773     10757     10777     10778
     10773     10757     10777     10779     10773     10757     10777     10780
     10773     10770     10772     10782     10774     10773     10757     10777
     10774     10773     10775     10776     10775     10773     10757     10777
     10778     10777     10780     10781     10779     10777     10780     10781
     10782     10786     10784     10785     10782     10786     10784     10794
     10782     10786     10784     10798     10782     10787     10789     10803
     10782     10787     10790     10791     10782     10787     10790     10792
     10782     10787     10790     10794     10783     10782     10786     10784
     10783     10782     10787     10788     10783     10782     10787     10789
     10783     10782     10787     10790     10784     10786     10782     10787
     10784     10794     10790     10787     10784     10794     10790     10791
     10784     10794     10790     10792     10784     10794     10796     10797
     10784     10798     10801     10802     10785     10784     10794     10790
     10785     10784     10794     10795     10785     10784     10794     10796
     10785     10784     10798     10799     10785     10784     10798     10800
     10785     10784     10798     10801     10786     10782     10787     10788
     10786     10782     10787     10789     10786     10782     10787     10790
     10786     10784     10794     10790     10786     10784     10794     10795
     10786     10784     10794     10796     10786     10784     10798     10799
     10786     10784     10798     10800     10786     10784     10798     10801
     10787     10789     10803     10804     10787     10789     10803     10807
     10787     10789     10803     10808     10787     10790     10792     10793
     10787     10790     10794     10795     10787     10790     10794     10796
     10788     10787     10789     10803     10788     10787     10790     10791
     10788     10787     10790     10792     10788     10787     10790     10794
     10789     10787     10790     10791     10789     10787     10790     10792
     10789     10787     10790     10794     10789     10803     10807     10805
     10789     10803     10808     10809     10789     10803     10808     10810
     10789     10803     10808     10811     10790     10787     10789     10803
     10790     10794     10784     10798     10790     10794     10796     10797
     10791     10790     10792     10793     10791     10790     10794     10795
     10791     10790     10794     10796     10792     10790     10794     10795
     10792     10790     10794     10796     10793     10792     10790     10794
     10794     10784     10798     10799     10794     10784     10798     10800
     10794     10784     10798     10801     10795     10794     10784     10798
     10795     10794     10796     10797     10796     10794     10784     10798
     10799     10798     10801     10802     10800     10798     10801     10802
     10803     10807     10805     10806     10803     10807     10805     10815
     10803     10807     10805     10819     10803     10808     10810     10823
     10803     10808     10811     10812     10803     10808     10811     10813
     10803     10808     10811     10815     10804     10803     10807     10805
     10804     10803     10808     10809     10804     10803     10808     10810
     10804     10803     10808     10811     10805     10807     10803     10808
     10805     10815     10811     10808     10805     10815     10811     10812
     10805     10815     10811     10813     10805     10815     10817     10818
     10806     10805     10815     10811     10806     10805     10815     10816
     10806     10805     10815     10817     10806     10805     10819     10820
     10806     10805     10819     10821     10806     10805     10819     10822
     10807     10803     10808     10809     10807     10803     10808     10810
     10807     10803     10808     10811     10807     10805     10815     10811
     10807     10805     10815     10816     10807     10805     10815     10817
     10807     10805     10819     10820     10807     10805     10819     10821
     10807     10805     10819     10822     10808     10810     10823     10824
     10808     10810     10823     10827     10808     10810     10823     10828
     10808     10811     10813     10814     10808     10811     10815     10816
     10808     10811     10815     10817     10809     10808     10810     10823
     10809     10808     10811     10812     10809     10808     10811     10813
     10809     10808     10811     10815     10810     10808     10811     10812
     10810     10808     10811     10813     10810     10808     10811     10815
     10810     10823     10827     10825     10810     10823     10828     10829
     10810     10823     10828     10830     10810     10823     10828     10831
     10811     10808     10810     10823     10811     10815     10805     10819
     10811     10815     10817     10818     10812     10811     10813     10814
     10812     10811     10815     10816     10812     10811     10815     10817
     10813     10811     10815     10816     10813     10811     10815     10817
     10814     10813     10811     10815     10815     10805     10819     10820
     10815     10805     10819     10821     10815     10805     10819     10822
     10816     10815     10805     10819     10816     10815     10817     10818
     10817     10815     10805     10819     10823     10827     10825     10826
     10823     10827     10825     10834     10823     10827     10825     10838
     10823     10828     10830     10842     10823     10828     10831     10832
     10823     10828     10831     10833     10823     10828     10831     10834
     10824     10823     10827     10825     10824     10823     10828     10829
     10824     10823     10828     10830     10824     10823     10828     10831
     10825     10827     10823     10828     10825     10834     10831     10828
     10825     10834     10831     10832     10825     10834     10831     10833
     10825     10834     10836     10837     10826     10825     10834     10831
     10826     10825     10834     10835     10826     10825     10834     10836
     10826     10825     10838     10839     10826     10825     10838     10840
     10826     10825     10838     10841     10827     10823     10828     10829
     10827     10823     10828     10830     10827     10823     10828     10831
     10827     10825     10834     10831     10827     10825     10834     10835
     10827     10825     10834     10836     10827     10825     10838     10839
     10827     10825     10838     10840     10827     10825     10838     10841
     10828     10830     10842     10843     10828     10830     10842     10846
     10828     10830     10842     10847     10828     10831     10833     10870
     10828     10831     10834     10835     10828     10831     10834     10836
     10829     10828     10830     10842     10829     10828     10831     10832
     10829     10828     10831     10833     10829     10828     10831     10834
     10830     10828     10831     10832     10830     10828     10831     10833
     10830     10828     10831     10834     10830     10842     10846     10844
     10830     10842     10847     10848     10830     10842     10847     10849
     10830     10842     10847     10857     10831     10828     10830     10842
     10831     10833     10870     10871     10831     10833     10870     10874
     10831     10833     10870     10875     10831     10834     10825     10838
     10831     10834     10836     10837     10832     10831     10833     10870
     10832     10831     10834     10835     10832     10831     10834     10836
     10833     10831     10834     10835     10833     10831     10834     10836
     10833     10870     10874     10872     10833     10870     10875     10876
     10833     10870     10875     10877     10833     10870     10875     10885
     10834     10825     10838     10839     10834     10825     10838     10840
     10834     10825     10838     10841     10834     10831     10833     10870
     10835     10834     10825     10838     10835     10834     10836     10837
     10836     10834     10825     10838     10842     10846     10844     10845
     10842     10846     10844     10861     10842     10846     10844     10865
     10842     10847     10849     10850     10842     10847     10849     10851
     10842     10847     10857     10858     10842     10847     10857     10859
     10842     10847     10857     10861     10843     10842     10846     10844
     10843     10842     10847     10848     10843     10842     10847     10849
     10843     10842     10847     10857     10844     10846     10842     10847
     10844     10861     10857     10847     10844     10861     10857     10858
     10844     10861     10857     10859     10844     10861     10863     10864
     10844     10865     10868     10869     10845     10844     10861     10857
     10845     10844     10861     10862     10845     10844     10861     10863
     10845     10844     10865     10866     10845     10844     10865     10867
     10845     10844     10865     10868     10846     10842     10847     10848
     10846     10842     10847     10849     10846     10842     10847     10857
     10846     10844     10861     10857     10846     10844     10861     10862
     10846     10844     10861     10863     10846     10844     10865     10866
     10846     10844     10865     10867     10846     10844     10865     10868
     10847     10849     10851     10852     10847     10849     10851     10853
     10847     10857     10859     10860     10847     10857     10861     10862
     10847     10857     10861     10863     10848     10847     10849     10850
     10848     10847     10849     10851     10848     10847     10857     10858
     10848     10847     10857     10859     10848     10847     10857     10861
     10849     10847     10857     10858     10849     10847     10857     10859
     10849     10847     10857     10861     10849     10851     10853     10854
     10849     10851     10853     10855     10849     10851     10853     10856
     10850     10849     10847     10857     10850     10849     10851     10852
     10850     10849     10851     10853     10851     10849     10847     10857
     10852     10851     10853     10854     10852     10851     10853     10855
     10852     10851     10853     10856     10857     10861     10844     10865
     10857     10861     10863     10864     10858     10857     10859     10860
     10858     10857     10861     10862     10858     10857     10861     10863
     10859     10857     10861     10862     10859     10857     10861     10863
     10860     10859     10857     10861     10861     10844     10865     10866
     10861     10844     10865     10867     10861     10844     10865     10868
     10862     10861     10844     10865     10862     10861     10863     10864
     10863     10861     10844     10865     10866     10865     10868     10869
     10867     10865     10868     10869     10870     10874     10872     10873
     10870     10874     10872     10888     10870     10874     10872     10892
     10870     10875     10877     10878     10870     10875     10877     10879
     10870     10875     10885     10886     10870     10875     10885     10887
     10870     10875     10885     10888     10871     10870     10874     10872
     10871     10870     10875     10876     10871     10870     10875     10877
     10871     10870     10875     10885     10872     10874     10870     10875
     10872     10888     10885     10875     10872     10888     10885     10886
     10872     10888     10885     10887     10872     10888     10890     10891
     10872     10892     10895     10896     10873     10872     10888     10885
     10873     10872     10888     10889     10873     10872     10888     10890
     10873     10872     10892     10893     10873     10872     10892     10894
     10873     10872     10892     10895     10874     10870     10875     10876
     10874     10870     10875     10877     10874     10870     10875     10885
     10874     10872     10888     10885     10874     10872     10888     10889
     10874     10872     10888     10890     10874     10872     10892     10893
     10874     10872     10892     10894     10874     10872     10892     10895
     10875     10877     10879     10880     10875     10877     10879     10881
     10875     10885     10887     10897     10875     10885     10888     10889
     10875     10885     10888     10890     10876     10875     10877     10878
     10876     10875     10877     10879     10876     10875     10885     10886
     10876     10875     10885     10887     10876     10875     10885     10888
     10877     10875     10885     10886     10877     10875     10885     10887
     10877     10875     10885     10888     10877     10879     10881     10882
     10877     10879     10881     10883     10877     10879     10881     10884
     10878     10877     10875     10885     10878     10877     10879     10880
     10878     10877     10879     10881     10879     10877     10875     10885
     10880     10879     10881     10882     10880     10879     10881     10883
     10880     10879     10881     10884     10885     10887     10897     10898
     10885     10887     10897     10901     10885     10887     10897     10902
     10885     10888     10872     10892     10885     10888     10890     10891
     10886     10885     10887     10897     10886     10885     10888     10889
     10886     10885     10888     10890     10887     10885     10888     10889
     10887     10885     10888     10890     10887     10897     10901     10899
     10887     10897     10902     10903     10887     10897     10902     10904
     10887     10897     10902     10905     10888     10872     10892     10893
     10888     10872     10892     10894     10888     10872     10892     10895
     10888     10885     10887     10897     10889     10888     10872     10892
     10889     10888     10890     10891     10890     10888     10872     10892
     10893     10892     10895     10896     10894     10892     10895     10896
     10897     10901     10899     10900     10897     10901     10899     10909
     10897     10901     10899     10913     10897     10902     10904     10918
     10897     10902     10905     10906     10897     10902     10905     10907
     10897     10902     10905     10909     10898     10897     10901     10899
     10898     10897     10902     10903     10898     10897     10902     10904
     10898     10897     10902     10905     10899     10901     10897     10902
     10899     10909     10905     10902     10899     10909     10905     10906
     10899     10909     10905     10907     10899     10909     10911     10912
     10899     10913     10916     10917     10900     10899     10909     10905
     10900     10899     10909     10910     10900     10899     10909     10911
     10900     10899     10913     10914     10900     10899     10913     10915
     10900     10899     10913     10916     10901     10897     10902     10903
     10901     10897     10902     10904     10901     10897     10902     10905
     10901     10899     10909     10905     10901     10899     10909     10910
     10901     10899     10909     10911     10901     10899     10913     10914
     10901     10899     10913     10915     10901     10899     10913     10916
     10902     10904     10918     10919     10902     10904     10918     10922
     10902     10904     10918     10923     10902     10905     10907     10908
     10902     10905     10909     10910     10902     10905     10909     10911
     10903     10902     10904     10918     10903     10902     10905     10906
     10903     10902     10905     10907     10903     10902     10905     10909
     10904     10902     10905     10906     10904     10902     10905     10907
     10904     10902     10905     10909     10904     10918     10922     10920
     10904     10918     10923     10924     10904     10918     10923     10925
     10904     10918     10923     10926     10905     10902     10904     10918
     10905     10909     10899     10913     10905     10909     10911     10912
     10906     10905     10907     10908     10906     10905     10909     10910
     10906     10905     10909     10911     10907     10905     10909     10910
     10907     10905     10909     10911     10908     10907     10905     10909
     10909     10899     10913     10914     10909     10899     10913     10915
     10909     10899     10913     10916     10910     10909     10899     10913
     10910     10909     10911     10912     10911     10909     10899     10913
     10914     10913     10916     10917     10915     10913     10916     10917
     10918     10922     10920     10921     10918     10922     10920     10930
     10918     10922     10920     10934     10918     10923     10925     10938
     10918     10923     10926     10927     10918     10923     10926     10928
     10918     10923     10926     10930     10919     10918     10922     10920
     10919     10918     10923     10924     10919     10918     10923     10925
     10919     10918     10923     10926     10920     10922     10918     10923
     10920     10930     10926     10923     10920     10930     10926     10927
     10920     10930     10926     10928     10920     10930     10932     10933
     10921     10920     10930     10926     10921     10920     10930     10931
     10921     10920     10930     10932     10921     10920     10934     10935
     10921     10920     10934     10936     10921     10920     10934     10937
     10922     10918     10923     10924     10922     10918     10923     10925
     10922     10918     10923     10926     10922     10920     10930     10926
     10922     10920     10930     10931     10922     10920     10930     10932
     10922     10920     10934     10935     10922     10920     10934     10936
     10922     10920     10934     10937     10923     10925     10938     10939
     10923     10925     10938     10942     10923     10925     10938     10943
     10923     10926     10928     10929     10923     10926     10930     10931
     10923     10926     10930     10932     10924     10923     10925     10938
     10924     10923     10926     10927     10924     10923     10926     10928
     10924     10923     10926     10930     10925     10923     10926     10927
     10925     10923     10926     10928     10925     10923     10926     10930
     10925     10938     10942     10940     10925     10938     10943     10944
     10925     10938     10943     10945     10925     10938     10943     10946
     10926     10923     10925     10938     10926     10930     10920     10934
     10926     10930     10932     10933     10927     10926     10928     10929
     10927     10926     10930     10931     10927     10926     10930     10932
     10928     10926     10930     10931     10928     10926     10930     10932
     10929     10928     10926     10930     10930     10920     10934     10935
     10930     10920     10934     10936     10930     10920     10934     10937
     10931     10930     10920     10934     10931     10930     10932     10933
     10932     10930     10920     10934     10938     10942     10940     10941
     10938     10942     10940     10949     10938     10942     10940     10953
     10938     10943     10945     10957     10938     10943     10946     10947
     10938     10943     10946     10948     10938     10943     10946     10949
     10939     10938     10942     10940     10939     10938     10943     10944
     10939     10938     10943     10945     10939     10938     10943     10946
     10940     10942     10938     10943     10940     10949     10946     10943
     10940     10949     10946     10947     10940     10949     10946     10948
     10940     10949     10951     10952     10941     10940     10949     10946
     10941     10940     10949     10950     10941     10940     10949     10951
     10941     10940     10953     10954     10941     10940     10953     10955
     10941     10940     10953     10956     10942     10938     10943     10944
     10942     10938     10943     10945     10942     10938     10943     10946
     10942     10940     10949     10946     10942     10940     10949     10950
     10942     10940     10949     10951     10942     10940     10953     10954
     10942     10940     10953     10955     10942     10940     10953     10956
     10943     10945     10957     10958     10943     10945     10957     10961
     10943     10945     10957     10962     10943     10946     10948     10985
     10943     10946     10949     10950     10943     10946     10949     10951
     10944     10943     10945     10957     10944     10943     10946     10947
     10944     10943     10946     10948     10944     10943     10946     10949
     10945     10943     10946     10947     10945     10943     10946     10948
     10945     10943     10946     10949     10945     10957     10961     10959
     10945     10957     10962     10963     10945     10957     10962     10964
     10945     10957     10962     10972     10946     10943     10945     10957
     10946     10948     10985     10986     10946     10948     10985     10989
     10946     10948     10985     10990     10946     10949     10940     10953
     10946     10949     10951     10952     10947     10946     10948     10985
     10947     10946     10949     10950     10947     10946     10949     10951
     10948     10946     10949     10950     10948     10946     10949     10951
     10948     10985     10989     10987     10948     10985     10990     10991
     10948     10985     10990     10992     10948     10985     10990     11000
     10949     10940     10953     10954     10949     10940     10953     10955
     10949     10940     10953     10956     10949     10946     10948     10985
     10950     10949     10940     10953     10950     10949     10951     10952
     10951     10949     10940     10953     10957     10961     10959     10960
     10957     10961     10959     10976     10957     10961     10959     10980
     10957     10962     10964     10965     10957     10962     10964     10966
     10957     10962     10972     10973     10957     10962     10972     10974
     10957     10962     10972     10976     10958     10957     10961     10959
     10958     10957     10962     10963     10958     10957     10962     10964
     10958     10957     10962     10972     10959     10961     10957     10962
     10959     10976     10972     10962     10959     10976     10972     10973
     10959     10976     10972     10974     10959     10976     10978     10979
     10959     10980     10983     10984     10960     10959     10976     10972
     10960     10959     10976     10977     10960     10959     10976     10978
     10960     10959     10980     10981     10960     10959     10980     10982
     10960     10959     10980     10983     10961     10957     10962     10963
     10961     10957     10962     10964     10961     10957     10962     10972
     10961     10959     10976     10972     10961     10959     10976     10977
     10961     10959     10976     10978     10961     10959     10980     10981
     10961     10959     10980     10982     10961     10959     10980     10983
     10962     10964     10966     10967     10962     10964     10966     10968
     10962     10972     10974     10975     10962     10972     10976     10977
     10962     10972     10976     10978     10963     10962     10964     10965
     10963     10962     10964     10966     10963     10962     10972     10973
     10963     10962     10972     10974     10963     10962     10972     10976
     10964     10962     10972     10973     10964     10962     10972     10974
     10964     10962     10972     10976     10964     10966     10968     10969
     10964     10966     10968     10970     10964     10966     10968     10971
     10965     10964     10962     10972     10965     10964     10966     10967
     10965     10964     10966     10968     10966     10964     10962     10972
     10967     10966     10968     10969     10967     10966     10968     10970
     10967     10966     10968     10971     10972     10976     10959     10980
     10972     10976     10978     10979     10973     10972     10974     10975
     10973     10972     10976     10977     10973     10972     10976     10978
     10974     10972     10976     10977     10974     10972     10976     10978
     10975     10974     10972     10976     10976     10959     10980     10981
     10976     10959     10980     10982     10976     10959     10980     10983
     10977     10976     10959     10980     10977     10976     10978     10979
     10978     10976     10959     10980     10981     10980     10983     10984
     10982     10980     10983     10984     10985     10989     10987     10988
     10985     10989     10987     11003     10985     10989     10987     11007
     10985     10990     10992     10993     10985     10990     10992     10994
     10985     10990     11000     11001     10985     10990     11000     11002
     10985     10990     11000     11003     10986     10985     10989     10987
     10986     10985     10990     10991     10986     10985     10990     10992
     10986     10985     10990     11000     10987     10989     10985     10990
     10987     11003     11000     10990     10987     11003     11000     11001
     10987     11003     11000     11002     10987     11003     11005     11006
     10987     11007     11010     11011     10988     10987     11003     11000
     10988     10987     11003     11004     10988     10987     11003     11005
     10988     10987     11007     11008     10988     10987     11007     11009
     10988     10987     11007     11010     10989     10985     10990     10991
     10989     10985     10990     10992     10989     10985     10990     11000
     10989     10987     11003     11000     10989     10987     11003     11004
     10989     10987     11003     11005     10989     10987     11007     11008
     10989     10987     11007     11009     10989     10987     11007     11010
     10990     10992     10994     10995     10990     10992     10994     10996
     10990     11000     11002     11012     10990     11000     11003     11004
     10990     11000     11003     11005     10991     10990     10992     10993
     10991     10990     10992     10994     10991     10990     11000     11001
     10991     10990     11000     11002     10991     10990     11000     11003
     10992     10990     11000     11001     10992     10990     11000     11002
     10992     10990     11000     11003     10992     10994     10996     10997
     10992     10994     10996     10998     10992     10994     10996     10999
     10993     10992     10990     11000     10993     10992     10994     10995
     10993     10992     10994     10996     10994     10992     10990     11000
     10995     10994     10996     10997     10995     10994     10996     10998
     10995     10994     10996     10999     11000     11002     11012     11013
     11000     11002     11012     11016     11000     11002     11012     11017
     11000     11003     10987     11007     11000     11003     11005     11006
     11001     11000     11002     11012     11001     11000     11003     11004
     11001     11000     11003     11005     11002     11000     11003     11004
     11002     11000     11003     11005     11002     11012     11016     11014
     11002     11012     11017     11018     11002     11012     11017     11019
     11002     11012     11017     11020     11003     10987     11007     11008
     11003     10987     11007     11009     11003     10987     11007     11010
     11003     11000     11002     11012     11004     11003     10987     11007
     11004     11003     11005     11006     11005     11003     10987     11007
     11008     11007     11010     11011     11009     11007     11010     11011
     11012     11016     11014     11015     11012     11016     11014     11024
     11012     11016     11014     11028     11012     11017     11019     11033
     11012     11017     11020     11021     11012     11017     11020     11022
     11012     11017     11020     11024     11013     11012     11016     11014
     11013     11012     11017     11018     11013     11012     11017     11019
     11013     11012     11017     11020     11014     11016     11012     11017
     11014     11024     11020     11017     11014     11024     11020     11021
     11014     11024     11020     11022     11014     11024     11026     11027
     11014     11028     11031     11032     11015     11014     11024     11020
     11015     11014     11024     11025     11015     11014     11024     11026
     11015     11014     11028     11029     11015     11014     11028     11030
     11015     11014     11028     11031     11016     11012     11017     11018
     11016     11012     11017     11019     11016     11012     11017     11020
     11016     11014     11024     11020     11016     11014     11024     11025
     11016     11014     11024     11026     11016     11014     11028     11029
     11016     11014     11028     11030     11016     11014     11028     11031
     11017     11019     11033     11034     11017     11019     11033     11037
     11017     11019     11033     11038     11017     11020     11022     11023
     11017     11020     11024     11025     11017     11020     11024     11026
     11018     11017     11019     11033     11018     11017     11020     11021
     11018     11017     11020     11022     11018     11017     11020     11024
     11019     11017     11020     11021     11019     11017     11020     11022
     11019     11017     11020     11024     11019     11033     11037     11035
     11019     11033     11038     11039     11019     11033     11038     11040
     11019     11033     11038     11041     11020     11017     11019     11033
     11020     11024     11014     11028     11020     11024     11026     11027
     11021     11020     11022     11023     11021     11020     11024     11025
     11021     11020     11024     11026     11022     11020     11024     11025
     11022     11020     11024     11026     11023     11022     11020     11024
     11024     11014     11028     11029     11024     11014     11028     11030
     11024     11014     11028     11031     11025     11024     11014     11028
     11025     11024     11026     11027     11026     11024     11014     11028
     11029     11028     11031     11032     11030     11028     11031     11032
     11033     11037     11035     11036     11033     11037     11035     11045
     11033     11037     11035     11049     11033     11038     11040     11053
     11033     11038     11041     11042     11033     11038     11041     11043
     11033     11038     11041     11045     11034     11033     11037     11035
     11034     11033     11038     11039     11034     11033     11038     11040
     11034     11033     11038     11041     11035     11037     11033     11038
     11035     11045     11041     11038     11035     11045     11041     11042
     11035     11045     11041     11043     11035     11045     11047     11048
     11036     11035     11045     11041     11036     11035     11045     11046
     11036     11035     11045     11047     11036     11035     11049     11050
     11036     11035     11049     11051     11036     11035     11049     11052
     11037     11033     11038     11039     11037     11033     11038     11040
     11037     11033     11038     11041     11037     11035     11045     11041
     11037     11035     11045     11046     11037     11035     11045     11047
     11037     11035     11049     11050     11037     11035     11049     11051
     11037     11035     11049     11052     11038     11040     11053     11054
     11038     11040     11053     11057     11038     11040     11053     11058
     11038     11041     11043     11044     11038     11041     11045     11046
     11038     11041     11045     11047     11039     11038     11040     11053
     11039     11038     11041     11042     11039     11038     11041     11043
     11039     11038     11041     11045     11040     11038     11041     11042
     11040     11038     11041     11043     11040     11038     11041     11045
     11040     11053     11057     11055     11040     11053     11058     11059
     11040     11053     11058     11060     11040     11053     11058     11061
     11041     11038     11040     11053     11041     11045     11035     11049
     11041     11045     11047     11048     11042     11041     11043     11044
     11042     11041     11045     11046     11042     11041     11045     11047
     11043     11041     11045     11046     11043     11041     11045     11047
     11044     11043     11041     11045     11045     11035     11049     11050
     11045     11035     11049     11051     11045     11035     11049     11052
     11046     11045     11035     11049     11046     11045     11047     11048
     11047     11045     11035     11049     11053     11057     11055     11056
     11053     11057     11055     11065     11053     11057     11055     11069
     11053     11058     11060     11073     11053     11058     11061     11062
     11053     11058     11061     11063     11053     11058     11061     11065
     11054     11053     11057     11055     11054     11053     11058     11059
     11054     11053     11058     11060     11054     11053     11058     11061
     11055     11057     11053     11058     11055     11065     11061     11058
     11055     11065     11061     11062     11055     11065     11061     11063
     11055     11065     11067     11068     11056     11055     11065     11061
     11056     11055     11065     11066     11056     11055     11065     11067
     11056     11055     11069     11070     11056     11055     11069     11071
     11056     11055     11069     11072     11057     11053     11058     11059
     11057     11053     11058     11060     11057     11053     11058     11061
     11057     11055     11065     11061     11057     11055     11065     11066
     11057     11055     11065     11067     11057     11055     11069     11070
     11057     11055     11069     11071     11057     11055     11069     11072
     11058     11060     11073     11074     11058     11060     11073     11077
     11058     11060     11073     11078     11058     11061     11063     11064
     11058     11061     11065     11066     11058     11061     11065     11067
     11059     11058     11060     11073     11059     11058     11061     11062
     11059     11058     11061     11063     11059     11058     11061     11065
     11060     11058     11061     11062     11060     11058     11061     11063
     11060     11058     11061     11065     11060     11073     11077     11075
     11060     11073     11078     11079     11060     11073     11078     11080
     11060     11073     11078     11088     11061     11058     11060     11073
     11061     11065     11055     11069     11061     11065     11067     11068
     11062     11061     11063     11064     11062     11061     11065     11066
     11062     11061     11065     11067     11063     11061     11065     11066
     11063     11061     11065     11067     11064     11063     11061     11065
     11065     11055     11069     11070     11065     11055     11069     11071
     11065     11055     11069     11072     11066     11065     11055     11069
     11066     11065     11067     11068     11067     11065     11055     11069
     11073     11077     11075     11076     11073     11077     11075     11092
     11073     11077     11075     11096     11073     11078     11080     11081
     11073     11078     11080     11082     11073     11078     11088     11089
     11073     11078     11088     11090     11073     11078     11088     11092
     11074     11073     11077     11075     11074     11073     11078     11079
     11074     11073     11078     11080     11074     11073     11078     11088
     11075     11077     11073     11078     11075     11092     11088     11078
     11075     11092     11088     11089     11075     11092     11088     11090
     11075     11092     11094     11095     11075     11096     11099     11100
     11076     11075     11092     11088     11076     11075     11092     11093
     11076     11075     11092     11094     11076     11075     11096     11097
     11076     11075     11096     11098     11076     11075     11096     11099
     11077     11073     11078     11079     11077     11073     11078     11080
     11077     11073     11078     11088     11077     11075     11092     11088
     11077     11075     11092     11093     11077     11075     11092     11094
     11077     11075     11096     11097     11077     11075     11096     11098
     11077     11075     11096     11099     11078     11080     11082     11083
     11078     11080     11082     11084     11078     11088     11090     11091
     11078     11088     11092     11093     11078     11088     11092     11094
     11079     11078     11080     11081     11079     11078     11080     11082
     11079     11078     11088     11089     11079     11078     11088     11090
     11079     11078     11088     11092     11080     11078     11088     11089
     11080     11078     11088     11090     11080     11078     11088     11092
     11080     11082     11084     11085     11080     11082     11084     11086
     11080     11082     11084     11087     11081     11080     11078     11088
     11081     11080     11082     11083     11081     11080     11082     11084
     11082     11080     11078     11088     11083     11082     11084     11085
     11083     11082     11084     11086     11083     11082     11084     11087
     11088     11092     11075     11096     11088     11092     11094     11095
     11089     11088     11090     11091     11089     11088     11092     11093
     11089     11088     11092     11094     11090     11088     11092     11093
     11090     11088     11092     11094     11091     11090     11088     11092
     11092     11075     11096     11097     11092     11075     11096     11098
     11092     11075     11096     11099     11093     11092     11075     11096
     11093     11092     11094     11095     11094     11092     11075     11096
     11097     11096     11099     11100     11098     11096     11099     11100
     11101     11103     11102     11400     11101     11103     11105     11106
     11101     11103     11105     11107     11101     11103     11105     11114
     11102     11103     11105     11106     11102     11103     11105     11107
     11102     11103     11105     11114     11102     11400     11397     11398
     11102     11400     11397     11399     11102     11400     11403     11401
     11102     11400     11404     11405     11102     11400     11404     11406
     11102     11400     11404     11407     11103     11102     11400     11397
     11103     11102     11400     11403     11103     11102     11400     11404
     11103     11105     11106     11108     11103     11105     11114     11115
     11103     11105     11114     11116     11103     11105     11114     11121
     11104     11103     11102     11400     11104     11103     11105     11106
     11104     11103     11105     11107     11104     11103     11105     11114
     11105     11103     11102     11400     11105     11106     11108     11109
     11105     11106     11108     11110     11105     11106     11108     11129
     11105     11114     11116     11117     11105     11114     11121     11122
     11105     11114     11121     11123     11105     11114     11121     11129
     11106     11105     11114     11115     11106     11105     11114     11116
     11106     11105     11114     11121     11106     11108     11110     11111
     11106     11108     11129     11121     11106     11108     11129     11130
     11106     11108     11129     11131     11107     11105     11106     11108
     11107     11105     11114     11115     11107     11105     11114     11116
     11107     11105     11114     11121     11108     11106     11105     11114
     11108     11110     11111     11112     11108     11110     11111     11113
     11108     11110     11111     11137     11108     11129     11121     11114
     11108     11129     11121     11122     11108     11129     11121     11123
     11108     11129     11131     11132     11108     11129     11131     11238
     11109     11108     11110     11111     11109     11108     11129     11121
     11109     11108     11129     11130     11109     11108     11129     11131
     11110     11108     11129     11121     11110     11108     11129     11130
     11110     11108     11129     11131     11110     11111     11137     11133
     11110     11111     11137     11138     11110     11111     11137     11139
     11111     11110     11108     11129     11111     11137     11133     11134
     11111     11137     11133     11135     11111     11137     11133     11147
     11111     11137     11139     11140     11112     11111     11137     11133
     11112     11111     11137     11138     11112     11111     11137     11139
     11113     11111     11137     11133     11113     11111     11137     11138
     11113     11111     11137     11139     11114     11116     11117     11118
     11114     11116     11117     11119     11114     11116     11117     11120
     11114     11121     11122     11124     11114     11121     11129     11130
     11114     11121     11129     11131     11115     11114     11116     11117
     11115     11114     11121     11122     11115     11114     11121     11123
     11115     11114     11121     11129     11116     11114     11121     11122
     11116     11114     11121     11123     11116     11114     11121     11129
     11117     11116     11114     11121     11121     11122     11124     11125
     11121     11122     11124     11126     11121     11129     11131     11132
     11121     11129     11131     11238     11122     11121     11129     11130
     11122     11121     11129     11131     11122     11124     11126     11127
     11122     11124     11126     11128     11122     11124     11126     11159
     11123     11121     11122     11124     11123     11121     11129     11130
     11123     11121     11129     11131     11124     11122     11121     11129
     11124     11126     11159     11160     11124     11126     11159     11161
     11124     11126     11159     11204     11125     11124     11126     11127
     11125     11124     11126     11128     11125     11124     11126     11159
     11126     11159     11161     11162     11126     11159     11204     11205
     11126     11159     11204     11206     11126     11159     11204     11207
     11127     11126     11159     11160     11127     11126     11159     11161
     11127     11126     11159     11204     11128     11126     11159     11160
     11128     11126     11159     11161     11128     11126     11159     11204
     11129     11131     11238     11239     11129     11131     11238     11240
     11130     11129     11131     11132     11130     11129     11131     11238
     11131     11238     11240     11241     11131     11238     11240     11242
     11131     11238     11240     11243     11132     11131     11238     11239
     11132     11131     11238     11240     11133     11137     11139     11140
     11133     11147     11149     11150     11133     11147     11155     11140
     11133     11147     11155     11156     11133     11147     11155     11157
     11134     11133     11135     11136     11134     11133     11137     11138
     11134     11133     11137     11139     11134     11133     11147     11148
     11134     11133     11147     11149     11134     11133     11147     11155
     11135     11133     11137     11138     11135     11133     11137     11139
     11135     11133     11147     11148     11135     11133     11147     11149
     11135     11133     11147     11155     11136     11135     11133     11137
     11136     11135     11133     11147     11137     11133     11147     11148
     11137     11133     11147     11149     11137     11133     11147     11155
     11137     11139     11140     11141     11137     11139     11140     11142
     11137     11139     11140     11155     11138     11137     11133     11147
     11138     11137     11139     11140     11139     11137     11133     11147
     11139     11140     11142     11146     11139     11140     11155     11147
     11139     11140     11155     11156     11139     11140     11155     11157
     11140     11142     11146     11143     11140     11142     11146     11144
     11140     11142     11146     11145     11140     11155     11147     11148
     11140     11155     11147     11149     11140     11155     11157     11158
     11140     11155     11157     11354     11141     11140     11142     11146
     11141     11140     11155     11147     11141     11140     11155     11156
     11141     11140     11155     11157     11142     11140     11155     11147
     11142     11140     11155     11156     11142     11140     11155     11157
     11146     11142     11140     11155     11147     11149     11150     11151
     11147     11149     11150     11152     11147     11155     11157     11158
     11147     11155     11157     11354     11148     11147     11149     11150
     11148     11147     11155     11156     11148     11147     11155     11157
     11149     11147     11155     11156     11149     11147     11155     11157
     11149     11150     11152     11153     11149     11150     11152     11154
     11149     11150     11152     11316     11150     11149     11147     11155
     11150     11152     11316     11317     11150     11152     11316     11318
     11150     11152     11316     11320     11151     11150     11152     11153
     11151     11150     11152     11154     11151     11150     11152     11316
     11152     11316     11318     11319     11152     11316     11320     11321
     11152     11316     11320     11322     11152     11316     11320     11323
     11153     11152     11316     11317     11153     11152     11316     11318
     11153     11152     11316     11320     11154     11152     11316     11317
     11154     11152     11316     11318     11154     11152     11316     11320
     11155     11157     11354     11355     11155     11157     11354     11356
     11156     11155     11157     11158     11156     11155     11157     11354
     11157     11354     11356     11357     11157     11354     11356     11358
     11157     11354     11356     11359     11158     11157     11354     11355
     11158     11157     11354     11356     11159     11161     11162     11163
     11159     11161     11162     11164     11159     11204     11207     11208
     11159     11204     11207     11209     11159     11204     11207     11210
     11160     11159     11161     11162     11160     11159     11204     11205
     11160     11159     11204     11206     11160     11159     11204     11207
     11161     11159     11204     11205     11161     11159     11204     11206
     11161     11159     11204     11207     11161     11162     11164     11165
     11161     11162     11164     11166     11161     11162     11164     11167
     11162     11161     11159     11204     11162     11164     11167     11168
     11162     11164     11167     11169     11162     11164     11167     11170
     11163     11162     11164     11165     11163     11162     11164     11166
     11163     11162     11164     11167     11164     11167     11170     11171
     11164     11167     11170     11172     11164     11167     11170     11173
     11165     11164     11167     11168     11165     11164     11167     11169
     11165     11164     11167     11170     11166     11164     11167     11168
     11166     11164     11167     11169     11166     11164     11167     11170
     11167     11170     11173     11174     11167     11170     11173     11175
     11167     11170     11173     11176     11168     11167     11170     11171
     11168     11167     11170     11172     11168     11167     11170     11173
     11169     11167     11170     11171     11169     11167     11170     11172
     11169     11167     11170     11173     11170     11173     11176     11177
     11170     11173     11176     11178     11170     11173     11176     11179
     11171     11170     11173     11174     11171     11170     11173     11175
     11171     11170     11173     11176     11172     11170     11173     11174
     11172     11170     11173     11175     11172     11170     11173     11176
     11173     11176     11179     11180     11173     11176     11179     11181
     11173     11176     11179     11182     11174     11173     11176     11177
     11174     11173     11176     11178     11174     11173     11176     11179
     11175     11173     11176     11177     11175     11173     11176     11178
     11175     11173     11176     11179     11176     11179     11182     11183
     11176     11179     11182     11184     11176     11179     11182     11185
     11177     11176     11179     11180     11177     11176     11179     11181
     11177     11176     11179     11182     11178     11176     11179     11180
     11178     11176     11179     11181     11178     11176     11179     11182
     11179     11182     11185     11186     11179     11182     11185     11187
     11179     11182     11185     11188     11180     11179     11182     11183
     11180     11179     11182     11184     11180     11179     11182     11185
     11181     11179     11182     11183     11181     11179     11182     11184
     11181     11179     11182     11185     11182     11185     11188     11189
     11182     11185     11188     11190     11182     11185     11188     11191
     11183     11182     11185     11186     11183     11182     11185     11187
     11183     11182     11185     11188     11184     11182     11185     11186
     11184     11182     11185     11187     11184     11182     11185     11188
     11185     11188     11191     11192     11185     11188     11191     11193
     11185     11188     11191     11194     11186     11185     11188     11189
     11186     11185     11188     11190     11186     11185     11188     11191
     11187     11185     11188     11189     11187     11185     11188     11190
     11187     11185     11188     11191     11188     11191     11194     11195
     11188     11191     11194     11196     11188     11191     11194     11197
     11189     11188     11191     11192     11189     11188     11191     11193
     11189     11188     11191     11194     11190     11188     11191     11192
     11190     11188     11191     11193     11190     11188     11191     11194
     11191     11194     11197     11198     11191     11194     11197     11199
     11191     11194     11197     11200     11192     11191     11194     11195
     11192     11191     11194     11196     11192     11191     11194     11197
     11193     11191     11194     11195     11193     11191     11194     11196
     11193     11191     11194     11197     11194     11197     11200     11201
     11194     11197     11200     11202     11194     11197     11200     11203
     11195     11194     11197     11198     11195     11194     11197     11199
     11195     11194     11197     11200     11196     11194     11197     11198
     11196     11194     11197     11199     11196     11194     11197     11200
     11198     11197     11200     11201     11198     11197     11200     11202
     11198     11197     11200     11203     11199     11197     11200     11201
     11199     11197     11200     11202     11199     11197     11200     11203
     11204     11207     11210     11211     11204     11207     11210     11212
     11204     11207     11210     11213     11205     11204     11207     11208
     11205     11204     11207     11209     11205     11204     11207     11210
     11206     11204     11207     11208     11206     11204     11207     11209
     11206     11204     11207     11210     11207     11210     11213     11214
     11207     11210     11213     11215     11207     11210     11213     11216
     11208     11207     11210     11211     11208     11207     11210     11212
     11208     11207     11210     11213     11209     11207     11210     11211
     11209     11207     11210     11212     11209     11207     11210     11213
     11210     11213     11216     11217     11210     11213     11216     11218
     11210     11213     11216     11219     11211     11210     11213     11214
     11211     11210     11213     11215     11211     11210     11213     11216
     11212     11210     11213     11214     11212     11210     11213     11215
     11212     11210     11213     11216     11213     11216     11219     11220
     11213     11216     11219     11221     11213     11216     11219     11222
     11214     11213     11216     11217     11214     11213     11216     11218
     11214     11213     11216     11219     11215     11213     11216     11217
     11215     11213     11216     11218     11215     11213     11216     11219
     11216     11219     11222     11223     11216     11219     11222     11224
     11216     11219     11222     11225     11217     11216     11219     11220
     11217     11216     11219     11221     11217     11216     11219     11222
     11218     11216     11219     11220     11218     11216     11219     11221
     11218     11216     11219     11222     11219     11222     11225     11226
     11219     11222     11225     11227     11219     11222     11225     11228
     11220     11219     11222     11223     11220     11219     11222     11224
     11220     11219     11222     11225     11221     11219     11222     11223
     11221     11219     11222     11224     11221     11219     11222     11225
     11222     11225     11228     11229     11222     11225     11228     11230
     11222     11225     11228     11231     11223     11222     11225     11226
     11223     11222     11225     11227     11223     11222     11225     11228
     11224     11222     11225     11226     11224     11222     11225     11227
     11224     11222     11225     11228     11225     11228     11231     11232
     11225     11228     11231     11233     11225     11228     11231     11234
     11226     11225     11228     11229     11226     11225     11228     11230
     11226     11225     11228     11231     11227     11225     11228     11229
     11227     11225     11228     11230     11227     11225     11228     11231
     11228     11231     11234     11235     11228     11231     11234     11236
     11228     11231     11234     11237     11229     11228     11231     11232
     11229     11228     11231     11233     11229     11228     11231     11234
     11230     11228     11231     11232     11230     11228     11231     11233
     11230     11228     11231     11234     11232     11231     11234     11235
     11232     11231     11234     11236     11232     11231     11234     11237
     11233     11231     11234     11235     11233     11231     11234     11236
     11233     11231     11234     11237     11238     11240     11243     11244
     11238     11240     11243     11245     11238     11240     11243     11282
     11239     11238     11240     11241     11239     11238     11240     11242
     11239     11238     11240     11243     11240     11243     11245     11246
     11240     11243     11282     11283     11240     11243     11282     11284
     11240     11243     11282     11285     11241     11240     11243     11244
     11241     11240     11243     11245     11241     11240     11243     11282
     11242     11240     11243     11244     11242     11240     11243     11245
     11242     11240     11243     11282     11243     11245     11246     11247
     11243     11245     11246     11248     11243     11282     11285     11286
     11243     11282     11285     11287     11243     11282     11285     11288
     11244     11243     11245     11246     11244     11243     11282     11283
     11244     11243     11282     11284     11244     11243     11282     11285
     11245     11243     11282     11283     11245     11243     11282     11284
     11245     11243     11282     11285     11245     11246     11248     11249
     11245     11246     11248     11250     11245     11246     11248     11251
     11246     11245     11243     11282     11246     11248     11251     11252
     11246     11248     11251     11253     11246     11248     11251     11254
     11247     11246     11248     11249     11247     11246     11248     11250
     11247     11246     11248     11251     11248     11251     11254     11255
     11248     11251     11254     11256     11248     11251     11254     11257
     11249     11248     11251     11252     11249     11248     11251     11253
     11249     11248     11251     11254     11250     11248     11251     11252
     11250     11248     11251     11253     11250     11248     11251     11254
     11251     11254     11257     11258     11251     11254     11257     11259
     11251     11254     11257     11260     11252     11251     11254     11255
     11252     11251     11254     11256     11252     11251     11254     11257
     11253     11251     11254     11255     11253     11251     11254     11256
     11253     11251     11254     11257     11254     11257     11260     11261
     11254     11257     11260     11262     11254     11257     11260     11263
     11255     11254     11257     11258     11255     11254     11257     11259
     11255     11254     11257     11260     11256     11254     11257     11258
     11256     11254     11257     11259     11256     11254     11257     11260
     11257     11260     11263     11264     11257     11260     11263     11265
     11257     11260     11263     11266     11258     11257     11260     11261
     11258     11257     11260     11262     11258     11257     11260     11263
     11259     11257     11260     11261     11259     11257     11260     11262
     11259     11257     11260     11263     11260     11263     11266     11267
     11260     11263     11266     11268     11260     11263     11266     11269
     11261     11260     11263     11264     11261     11260     11263     11265
     11261     11260     11263     11266     11262     11260     11263     11264
     11262     11260     11263     11265     11262     11260     11263     11266
     11263     11266     11269     11270     11263     11266     11269     11271
     11263     11266     11269     11272     11264     11263     11266     11267
     11264     11263     11266     11268     11264     11263     11266     11269
     11265     11263     11266     11267     11265     11263     11266     11268
     11265     11263     11266     11269     11266     11269     11272     11273
     11266     11269     11272     11274     11266     11269     11272     11275
     11267     11266     11269     11270     11267     11266     11269     11271
     11267     11266     11269     11272     11268     11266     11269     11270
     11268     11266     11269     11271     11268     11266     11269     11272
     11269     11272     11275     11276     11269     11272     11275     11277
     11269     11272     11275     11278     11270     11269     11272     11273
     11270     11269     11272     11274     11270     11269     11272     11275
     11271     11269     11272     11273     11271     11269     11272     11274
     11271     11269     11272     11275     11272     11275     11278     11279
     11272     11275     11278     11280     11272     11275     11278     11281
     11273     11272     11275     11276     11273     11272     11275     11277
     11273     11272     11275     11278     11274     11272     11275     11276
     11274     11272     11275     11277     11274     11272     11275     11278
     11276     11275     11278     11279     11276     11275     11278     11280
     11276     11275     11278     11281     11277     11275     11278     11279
     11277     11275     11278     11280     11277     11275     11278     11281
     11282     11285     11288     11289     11282     11285     11288     11290
     11282     11285     11288     11291     11283     11282     11285     11286
     11283     11282     11285     11287     11283     11282     11285     11288
     11284     11282     11285     11286     11284     11282     11285     11287
     11284     11282     11285     11288     11285     11288     11291     11292
     11285     11288     11291     11293     11285     11288     11291     11294
     11286     11285     11288     11289     11286     11285     11288     11290
     11286     11285     11288     11291     11287     11285     11288     11289
     11287     11285     11288     11290     11287     11285     11288     11291
     11288     11291     11294     11295     11288     11291     11294     11296
     11288     11291     11294     11297     11289     11288     11291     11292
     11289     11288     11291     11293     11289     11288     11291     11294
     11290     11288     11291     11292     11290     11288     11291     11293
     11290     11288     11291     11294     11291     11294     11297     11298
     11291     11294     11297     11299     11291     11294     11297     11300
     11292     11291     11294     11295     11292     11291     11294     11296
     11292     11291     11294     11297     11293     11291     11294     11295
     11293     11291     11294     11296     11293     11291     11294     11297
     11294     11297     11300     11301     11294     11297     11300     11302
     11294     11297     11300     11303     11295     11294     11297     11298
     11295     11294     11297     11299     11295     11294     11297     11300
     11296     11294     11297     11298     11296     11294     11297     11299
     11296     11294     11297     11300     11297     11300     11303     11304
     11297     11300     11303     11305     11297     11300     11303     11306
     11298     11297     11300     11301     11298     11297     11300     11302
     11298     11297     11300     11303     11299     11297     11300     11301
     11299     11297     11300     11302     11299     11297     11300     11303
     11300     11303     11306     11307     11300     11303     11306     11308
     11300     11303     11306     11309     11301     11300     11303     11304
     11301     11300     11303     11305     11301     11300     11303     11306
     11302     11300     11303     11304     11302     11300     11303     11305
     11302     11300     11303     11306     11303     11306     11309     11310
     11303     11306     11309     11311     11303     11306     11309     11312
     11304     11303     11306     11307     11304     11303     11306     11308
     11304     11303     11306     11309     11305     11303     11306     11307
     11305     11303     11306     11308     11305     11303     11306     11309
     11306     11309     11312     11313     11306     11309     11312     11314
     11306     11309     11312     11315     11307     11306     11309     11310
     11307     11306     11309     11311     11307     11306     11309     11312
     11308     11306     11309     11310     11308     11306     11309     11311
     11308     11306     11309     11312     11310     11309     11312     11313
     11310     11309     11312     11314     11310     11309     11312     11315
     11311     11309     11312     11313     11311     11309     11312     11314
     11311     11309     11312     11315     11316     11320     11323     11324
     11316     11320     11323     11325     11316     11320     11323     11326
     11317     11316     11318     11319     11317     11316     11320     11321
     11317     11316     11320     11322     11317     11316     11320     11323
     11318     11316     11320     11321     11318     11316     11320     11322
     11318     11316     11320     11323     11319     11318     11316     11320
     11320     11323     11326     11327     11320     11323     11326     11328
     11320     11323     11326     11329     11321     11320     11323     11324
     11321     11320     11323     11325     11321     11320     11323     11326
     11322     11320     11323     11324     11322     11320     11323     11325
     11322     11320     11323     11326     11323     11326     11329     11330
     11323     11326     11329     11331     11323     11326     11329     11332
     11324     11323     11326     11327     11324     11323     11326     11328
     11324     11323     11326     11329     11325     11323     11326     11327
     11325     11323     11326     11328     11325     11323     11326     11329
     11326     11329     11332     11333     11326     11329     11332     11334
     11326     11329     11332     11335     11327     11326     11329     11330
     11327     11326     11329     11331     11327     11326     11329     11332
     11328     11326     11329     11330     11328     11326     11329     11331
     11328     11326     11329     11332     11329     11332     11335     11336
     11329     11332     11335     11337     11329     11332     11335     11338
     11330     11329     11332     11333     11330     11329     11332     11334
     11330     11329     11332     11335     11331     11329     11332     11333
     11331     11329     11332     11334     11331     11329     11332     11335
     11332     11335     11338     11339     11332     11335     11338     11340
     11332     11335     11338     11341     11333     11332     11335     11336
     11333     11332     11335     11337     11333     11332     11335     11338
     11334     11332     11335     11336     11334     11332     11335     11337
     11334     11332     11335     11338     11335     11338     11341     11342
     11335     11338     11341     11343     11335     11338     11341     11344
     11336     11335     11338     11339     11336     11335     11338     11340
     11336     11335     11338     11341     11337     11335     11338     11339
     11337     11335     11338     11340     11337     11335     11338     11341
     11338     11341     11344     11345     11338     11341     11344     11346
     11338     11341     11344     11347     11339     11338     11341     11342
     11339     11338     11341     11343     11339     11338     11341     11344
     11340     11338     11341     11342     11340     11338     11341     11343
     11340     11338     11341     11344     11341     11344     11347     11348
     11341     11344     11347     11349     11341     11344     11347     11350
     11342     11341     11344     11345     11342     11341     11344     11346
     11342     11341     11344     11347     11343     11341     11344     11345
     11343     11341     11344     11346     11343     11341     11344     11347
     11344     11347     11350     11351     11344     11347     11350     11352
     11344     11347     11350     11353     11345     11344     11347     11348
     11345     11344     11347     11349     11345     11344     11347     11350
     11346     11344     11347     11348     11346     11344     11347     11349
     11346     11344     11347     11350     11348     11347     11350     11351
     11348     11347     11350     11352     11348     11347     11350     11353
     11349     11347     11350     11351     11349     11347     11350     11352
     11349     11347     11350     11353     11354     11356     11359     11360
     11354     11356     11359     11361     11354     11356     11359     11363
     11355     11354     11356     11357     11355     11354     11356     11358
     11355     11354     11356     11359     11356     11359     11361     11362
     11356     11359     11363     11364     11356     11359     11363     11365
     11356     11359     11363     11366     11357     11356     11359     11360
     11357     11356     11359     11361     11357     11356     11359     11363
     11358     11356     11359     11360     11358     11356     11359     11361
     11358     11356     11359     11363     11359     11363     11366     11367
     11359     11363     11366     11368     11359     11363     11366     11369
     11360     11359     11361     11362     11360     11359     11363     11364
     11360     11359     11363     11365     11360     11359     11363     11366
     11361     11359     11363     11364     11361     11359     11363     11365
     11361     11359     11363     11366     11362     11361     11359     11363
     11363     11366     11369     11370     11363     11366     11369     11371
     11363     11366     11369     11372     11364     11363     11366     11367
     11364     11363     11366     11368     11364     11363     11366     11369
     11365     11363     11366     11367     11365     11363     11366     11368
     11365     11363     11366     11369     11366     11369     11372     11373
     11366     11369     11372     11374     11366     11369     11372     11375
     11367     11366     11369     11370     11367     11366     11369     11371
     11367     11366     11369     11372     11368     11366     11369     11370
     11368     11366     11369     11371     11368     11366     11369     11372
     11369     11372     11375     11376     11369     11372     11375     11377
     11369     11372     11375     11378     11370     11369     11372     11373
     11370     11369     11372     11374     11370     11369     11372     11375
     11371     11369     11372     11373     11371     11369     11372     11374
     11371     11369     11372     11375     11372     11375     11378     11379
     11372     11375     11378     11380     11372     11375     11378     11381
     11373     11372     11375     11376     11373     11372     11375     11377
     11373     11372     11375     11378     11374     11372     11375     11376
     11374     11372     11375     11377     11374     11372     11375     11378
     11375     11378     11381     11382     11375     11378     11381     11383
     11375     11378     11381     11384     11376     11375     11378     11379
     11376     11375     11378     11380     11376     11375     11378     11381
     11377     11375     11378     11379     11377     11375     11378     11380
     11377     11375     11378     11381     11378     11381     11384     11385
     11378     11381     11384     11386     11378     11381     11384     11387
     11379     11378     11381     11382     11379     11378     11381     11383
     11379     11378     11381     11384     11380     11378     11381     11382
     11380     11378     11381     11383     11380     11378     11381     11384
     11381     11384     11387     11388     11381     11384     11387     11389
     11381     11384     11387     11390     11382     11381     11384     11385
     11382     11381     11384     11386     11382     11381     11384     11387
     11383     11381     11384     11385     11383     11381     11384     11386
     11383     11381     11384     11387     11384     11387     11390     11391
     11384     11387     11390     11392     11384     11387     11390     11393
     11385     11384     11387     11388     11385     11384     11387     11389
     11385     11384     11387     11390     11386     11384     11387     11388
     11386     11384     11387     11389     11386     11384     11387     11390
     11387     11390     11393     11394     11387     11390     11393     11395
     11387     11390     11393     11396     11388     11387     11390     11391
     11388     11387     11390     11392     11388     11387     11390     11393
     11389     11387     11390     11391     11389     11387     11390     11392
     11389     11387     11390     11393     11391     11390     11393     11394
     11391     11390     11393     11395     11391     11390     11393     11396
     11392     11390     11393     11394     11392     11390     11393     11395
     11392     11390     11393     11396     11397     11400     11403     11401
     11397     11400     11404     11405     11397     11400     11404     11406
     11397     11400     11404     11407     11398     11397     11400     11403
     11398     11397     11400     11404     11399     11397     11400     11403
     11399     11397     11400     11404     11400     11403     11401     11402
     11400     11403     11401     11410     11400     11403     11401     11413
     11400     11404     11407     11408     11400     11404     11407     11409
     11400     11404     11407     11410     11401     11403     11400     11404
     11401     11410     11407     11404     11401     11410     11407     11408
     11401     11410     11407     11409     11401     11410     11412     11449
     11401     11413     11415     11416     11401     11413     11417     11418
     11401     11413     11417     11419     11401     11413     11417     11420
     11402     11401     11410     11407     11402     11401     11410     11411
     11402     11401     11410     11412     11402     11401     11413     11414
     11402     11401     11413     11415     11402     11401     11413     11417
     11403     11400     11404     11405     11403     11400     11404     11406
     11403     11400     11404     11407     11403     11401     11410     11407
     11403     11401     11410     11411     11403     11401     11410     11412
     11403     11401     11413     11414     11403     11401     11413     11415
     11403     11401     11413     11417     11404     11407     11409     11425
     11404     11407     11410     11411     11404     11407     11410     11412
     11405     11404     11407     11408     11405     11404     11407     11409
     11405     11404     11407     11410     11406     11404     11407     11408
     11406     11404     11407     11409     11406     11404     11407     11410
     11407     11409     11425     11422     11407     11409     11425     11428
     11407     11409     11425     11429     11407     11410     11401     11413
     11407     11410     11412     11449     11408     11407     11409     11425
     11408     11407     11410     11411     11408     11407     11410     11412
     11409     11407     11410     11411     11409     11407     11410     11412
     11409     11425     11422     11423     11409     11425     11422     11424
     11409     11425     11428     11426     11409     11425     11429     11430
     11409     11425     11429     11431     11409     11425     11429     11432
     11410     11401     11413     11414     11410     11401     11413     11415
     11410     11401     11413     11417     11410     11407     11409     11425
     11410     11412     11449     11450     11410     11412     11449     11453
     11410     11412     11449     11454     11411     11410     11401     11413
     11411     11410     11412     11449     11412     11410     11401     11413
     11412     11449     11453     11451     11412     11449     11454     11455
     11412     11449     11454     11456     11412     11449     11454     11458
     11413     11417     11420     11421     11414     11413     11415     11416
     11414     11413     11417     11418     11414     11413     11417     11419
     11414     11413     11417     11420     11415     11413     11417     11418
     11415     11413     11417     11419     11415     11413     11417     11420
     11416     11415     11413     11417     11418     11417     11420     11421
     11419     11417     11420     11421     11422     11425     11428     11426
     11422     11425     11429     11430     11422     11425     11429     11431
     11422     11425     11429     11432     11423     11422     11425     11428
     11423     11422     11425     11429     11424     11422     11425     11428
     11424     11422     11425     11429     11425     11428     11426     11427
     11425     11428     11426     11436     11425     11428     11426     11440
     11425     11429     11432     11433     11425     11429     11432     11434
     11425     11429     11432     11436     11426     11428     11425     11429
     11426     11436     11432     11429     11426     11436     11432     11433
     11426     11436     11432     11434     11426     11436     11438     11439
     11426     11440     11442     11443     11426     11440     11444     11445
     11426     11440     11444     11446     11426     11440     11444     11447
     11427     11426     11436     11432     11427     11426     11436     11437
     11427     11426     11436     11438     11427     11426     11440     11441
     11427     11426     11440     11442     11427     11426     11440     11444
     11428     11425     11429     11430     11428     11425     11429     11431
     11428     11425     11429     11432     11428     11426     11436     11432
     11428     11426     11436     11437     11428     11426     11436     11438
     11428     11426     11440     11441     11428     11426     11440     11442
     11428     11426     11440     11444     11429     11432     11434     11435
     11429     11432     11436     11437     11429     11432     11436     11438
     11430     11429     11432     11433     11430     11429     11432     11434
     11430     11429     11432     11436     11431     11429     11432     11433
     11431     11429     11432     11434     11431     11429     11432     11436
     11432     11436     11426     11440     11432     11436     11438     11439
     11433     11432     11434     11435     11433     11432     11436     11437
     11433     11432     11436     11438     11434     11432     11436     11437
     11434     11432     11436     11438     11435     11434     11432     11436
     11436     11426     11440     11441     11436     11426     11440     11442
     11436     11426     11440     11444     11437     11436     11426     11440
     11437     11436     11438     11439     11438     11436     11426     11440
     11440     11444     11447     11448     11441     11440     11442     11443
     11441     11440     11444     11445     11441     11440     11444     11446
     11441     11440     11444     11447     11442     11440     11444     11445
     11442     11440     11444     11446     11442     11440     11444     11447
     11443     11442     11440     11444     11445     11444     11447     11448
     11446     11444     11447     11448     11449     11453     11451     11452
     11449     11453     11451     11461     11449     11453     11451     11468
     11449     11454     11456     11457     11449     11454     11458     11459
     11449     11454     11458     11460     11449     11454     11458     11461
     11450     11449     11453     11451     11450     11449     11454     11455
     11450     11449     11454     11456     11450     11449     11454     11458
     11451     11453     11449     11454     11451     11461     11458     11454
     11451     11461     11458     11459     11451     11461     11458     11460
     11451     11461     11463     11464     11451     11468     11470     11471
     11451     11468     11472     11473     11451     11468     11472     11474
     11451     11468     11472     11475     11452     11451     11461     11458
     11452     11451     11461     11462     11452     11451     11461     11463
     11452     11451     11468     11469     11452     11451     11468     11470
     11452     11451     11468     11472     11453     11449     11454     11455
     11453     11449     11454     11456     11453     11449     11454     11458
     11453     11451     11461     11458     11453     11451     11461     11462
     11453     11451     11461     11463     11453     11451     11468     11469
     11453     11451     11468     11470     11453     11451     11468     11472
     11454     11458     11460     11477     11454     11458     11461     11462
     11454     11458     11461     11463     11455     11454     11456     11457
     11455     11454     11458     11459     11455     11454     11458     11460
     11455     11454     11458     11461     11456     11454     11458     11459
     11456     11454     11458     11460     11456     11454     11458     11461
     11457     11456     11454     11458     11458     11460     11477     11478
     11458     11460     11477     11481     11458     11460     11477     11482
     11458     11461     11451     11468     11458     11461     11463     11464
     11459     11458     11460     11477     11459     11458     11461     11462
     11459     11458     11461     11463     11460     11458     11461     11462
     11460     11458     11461     11463     11460     11477     11481     11479
     11460     11477     11482     11483     11460     11477     11482     11484
     11460     11477     11482     11486     11461     11451     11468     11469
     11461     11451     11468     11470     11461     11451     11468     11472
     11461     11458     11460     11477     11461     11463     11464     11465
     11461     11463     11464     11466     11461     11463     11464     11467
     11462     11461     11451     11468     11462     11461     11463     11464
     11463     11461     11451     11468     11468     11472     11475     11476
     11469     11468     11470     11471     11469     11468     11472     11473
     11469     11468     11472     11474     11469     11468     11472     11475
     11470     11468     11472     11473     11470     11468     11472     11474
     11470     11468     11472     11475     11471     11470     11468     11472
     11473     11472     11475     11476     11474     11472     11475     11476
     11477     11481     11479     11480     11477     11481     11479     11489
     11477     11481     11479     11496     11477     11482     11484     11485
     11477     11482     11486     11487     11477     11482     11486     11488
     11477     11482     11486     11489     11478     11477     11481     11479
     11478     11477     11482     11483     11478     11477     11482     11484
     11478     11477     11482     11486     11479     11481     11477     11482
     11479     11489     11486     11482     11479     11489     11486     11487
     11479     11489     11486     11488     11479     11489     11491     11492
     11479     11496     11498     11499     11479     11496     11500     11501
     11479     11496     11500     11502     11479     11496     11500     11503
     11480     11479     11489     11486     11480     11479     11489     11490
     11480     11479     11489     11491     11480     11479     11496     11497
     11480     11479     11496     11498     11480     11479     11496     11500
     11481     11477     11482     11483     11481     11477     11482     11484
     11481     11477     11482     11486     11481     11479     11489     11486
     11481     11479     11489     11490     11481     11479     11489     11491
     11481     11479     11496     11497     11481     11479     11496     11498
     11481     11479     11496     11500     11482     11486     11488     11530
     11482     11486     11489     11490     11482     11486     11489     11491
     11483     11482     11484     11485     11483     11482     11486     11487
     11483     11482     11486     11488     11483     11482     11486     11489
     11484     11482     11486     11487     11484     11482     11486     11488
     11484     11482     11486     11489     11485     11484     11482     11486
     11486     11488     11530     11531     11486     11488     11530     11534
     11486     11488     11530     11535     11486     11489     11479     11496
     11486     11489     11491     11492     11487     11486     11488     11530
     11487     11486     11489     11490     11487     11486     11489     11491
     11488     11486     11489     11490     11488     11486     11489     11491
     11488     11530     11534     11532     11488     11530     11535     11536
     11488     11530     11535     11537     11488     11530     11535     11539
     11489     11479     11496     11497     11489     11479     11496     11498
     11489     11479     11496     11500     11489     11486     11488     11530
     11489     11491     11492     11493     11489     11491     11492     11494
     11489     11491     11492     11495     11490     11489     11479     11496
     11490     11489     11491     11492     11491     11489     11479     11496
     11496     11500     11503     11504     11497     11496     11498     11499
     11497     11496     11500     11501     11497     11496     11500     11502
     11497     11496     11500     11503     11498     11496     11500     11501
     11498     11496     11500     11502     11498     11496     11500     11503
     11499     11498     11496     11500     11500     11503     11504     11505
     11500     11503     11504     11508     11500     11503     11504     11509
     11501     11500     11503     11504     11502     11500     11503     11504
     11503     11504     11508     11506     11503     11504     11509     11510
     11503     11504     11509     11511     11503     11504     11509     11513
     11504     11508     11506     11507     11504     11508     11506     11517
     11504     11508     11506     11521     11504     11509     11511     11512
     11504     11509     11513     11514     11504     11509     11513     11515
     11504     11509     11513     11517     11505     11504     11508     11506
     11505     11504     11509     11510     11505     11504     11509     11511
     11505     11504     11509     11513     11506     11508     11504     11509
     11506     11517     11513     11509     11506     11517     11513     11514
     11506     11517     11513     11515     11506     11517     11519     11520
     11506     11521     11523     11524     11506     11521     11525     11526
     11506     11521     11525     11527     11506     11521     11525     11528
     11507     11506     11517     11513     11507     11506     11517     11518
     11507     11506     11517     11519     11507     11506     11521     11522
     11507     11506     11521     11523     11507     11506     11521     11525
     11508     11504     11509     11510     11508     11504     11509     11511
     11508     11504     11509     11513     11508     11506     11517     11513
     11508     11506     11517     11518     11508     11506     11517     11519
     11508     11506     11521     11522     11508     11506     11521     11523
     11508     11506     11521     11525     11509     11513     11515     11516
     11509     11513     11517     11518     11509     11513     11517     11519
     11510     11509     11511     11512     11510     11509     11513     11514
     11510     11509     11513     11515     11510     11509     11513     11517
     11511     11509     11513     11514     11511     11509     11513     11515
     11511     11509     11513     11517     11512     11511     11509     11513
     11513     11517     11506     11521     11513     11517     11519     11520
     11514     11513     11515     11516     11514     11513     11517     11518
     11514     11513     11517     11519     11515     11513     11517     11518
     11515     11513     11517     11519     11516     11515     11513     11517
     11517     11506     11521     11522     11517     11506     11521     11523
     11517     11506     11521     11525     11518     11517     11506     11521
     11518     11517     11519     11520     11519     11517     11506     11521
     11521     11525     11528     11529     11522     11521     11523     11524
     11522     11521     11525     11526     11522     11521     11525     11527
     11522     11521     11525     11528     11523     11521     11525     11526
     11523     11521     11525     11527     11523     11521     11525     11528
     11524     11523     11521     11525     11526     11525     11528     11529
     11527     11525     11528     11529     11530     11534     11532     11533
     11530     11534     11532     11542     11530     11534     11532     11546
     11530     11535     11537     11538     11530     11535     11539     11540
     11530     11535     11539     11541     11530     11535     11539     11542
     11531     11530     11534     11532     11531     11530     11535     11536
     11531     11530     11535     11537     11531     11530     11535     11539
     11532     11534     11530     11535     11532     11542     11539     11535
     11532     11542     11539     11540     11532     11542     11539     11541
     11532     11542     11544     11545     11532     11546     11549     11550
     11533     11532     11542     11539     11533     11532     11542     11543
     11533     11532     11542     11544     11533     11532     11546     11547
     11533     11532     11546     11548     11533     11532     11546     11549
     11534     11530     11535     11536     11534     11530     11535     11537
     11534     11530     11535     11539     11534     11532     11542     11539
     11534     11532     11542     11543     11534     11532     11542     11544
     11534     11532     11546     11547     11534     11532     11546     11548
     11534     11532     11546     11549     11535     11539     11541     11551
     11535     11539     11542     11543     11535     11539     11542     11544
     11536     11535     11537     11538     11536     11535     11539     11540
     11536     11535     11539     11541     11536     11535     11539     11542
     11537     11535     11539     11540     11537     11535     11539     11541
     11537     11535     11539     11542     11538     11537     11535     11539
     11539     11541     11551     11552     11539     11541     11551     11555
     11539     11541     11551     11556     11539     11542     11532     11546
     11539     11542     11544     11545     11540     11539     11541     11551
     11540     11539     11542     11543     11540     11539     11542     11544
     11541     11539     11542     11543     11541     11539     11542     11544
     11541     11551     11555     11553     11541     11551     11556     11557
     11541     11551     11556     11558     11541     11551     11556     11559
     11542     11532     11546     11547     11542     11532     11546     11548
     11542     11532     11546     11549     11542     11539     11541     11551
     11543     11542     11532     11546     11543     11542     11544     11545
     11544     11542     11532     11546     11547     11546     11549     11550
     11548     11546     11549     11550     11551     11555     11553     11554
     11551     11555     11553     11562     11551     11555     11553     11566
     11551     11556     11558     11571     11551     11556     11559     11560
     11551     11556     11559     11561     11551     11556     11559     11562
     11552     11551     11555     11553     11552     11551     11556     11557
     11552     11551     11556     11558     11552     11551     11556     11559
     11553     11555     11551     11556     11553     11562     11559     11556
     11553     11562     11559     11560     11553     11562     11559     11561
     11553     11562     11564     11565     11553     11566     11569     11570
     11554     11553     11562     11559     11554     11553     11562     11563
     11554     11553     11562     11564     11554     11553     11566     11567
     11554     11553     11566     11568     11554     11553     11566     11569
     11555     11551     11556     11557     11555     11551     11556     11558
     11555     11551     11556     11559     11555     11553     11562     11559
     11555     11553     11562     11563     11555     11553     11562     11564
     11555     11553     11566     11567     11555     11553     11566     11568
     11555     11553     11566     11569     11556     11558     11571     11572
     11556     11558     11571     11575     11556     11558     11571     11576
     11556     11559     11561     11614     11556     11559     11562     11563
     11556     11559     11562     11564     11557     11556     11558     11571
     11557     11556     11559     11560     11557     11556     11559     11561
     11557     11556     11559     11562     11558     11556     11559     11560
     11558     11556     11559     11561     11558     11556     11559     11562
     11558     11571     11575     11573     11558     11571     11576     11577
     11558     11571     11576     11578     11558     11571     11576     11579
     11559     11556     11558     11571     11559     11561     11614     11615
     11559     11561     11614     11618     11559     11561     11614     11619
     11559     11562     11553     11566     11559     11562     11564     11565
     11560     11559     11561     11614     11560     11559     11562     11563
     11560     11559     11562     11564     11561     11559     11562     11563
     11561     11559     11562     11564     11561     11614     11618     11616
     11561     11614     11619     11620     11561     11614     11619     11621
     11561     11614     11619     11623     11562     11553     11566     11567
     11562     11553     11566     11568     11562     11553     11566     11569
     11562     11559     11561     11614     11563     11562     11553     11566
     11563     11562     11564     11565     11564     11562     11553     11566
     11567     11566     11569     11570     11568     11566     11569     11570
     11571     11575     11573     11574     11571     11575     11573     11583
     11571     11575     11573     11587     11571     11576     11578     11592
     11571     11576     11579     11580     11571     11576     11579     11581
     11571     11576     11579     11583     11572     11571     11575     11573
     11572     11571     11576     11577     11572     11571     11576     11578
     11572     11571     11576     11579     11573     11575     11571     11576
     11573     11583     11579     11576     11573     11583     11579     11580
     11573     11583     11579     11581     11573     11583     11585     11586
     11573     11587     11590     11591     11574     11573     11583     11579
     11574     11573     11583     11584     11574     11573     11583     11585
     11574     11573     11587     11588     11574     11573     11587     11589
     11574     11573     11587     11590     11575     11571     11576     11577
     11575     11571     11576     11578     11575     11571     11576     11579
     11575     11573     11583     11579     11575     11573     11583     11584
     11575     11573     11583     11585     11575     11573     11587     11588
     11575     11573     11587     11589     11575     11573     11587     11590
     11576     11578     11592     11593     11576     11578     11592     11596
     11576     11578     11592     11597     11576     11579     11581     11582
     11576     11579     11583     11584     11576     11579     11583     11585
     11577     11576     11578     11592     11577     11576     11579     11580
     11577     11576     11579     11581     11577     11576     11579     11583
     11578     11576     11579     11580     11578     11576     11579     11581
     11578     11576     11579     11583     11578     11592     11596     11594
     11578     11592     11597     11598     11578     11592     11597     11599
     11578     11592     11597     11601     11579     11576     11578     11592
     11579     11583     11573     11587     11579     11583     11585     11586
     11580     11579     11581     11582     11580     11579     11583     11584
     11580     11579     11583     11585     11581     11579     11583     11584
     11581     11579     11583     11585     11582     11581     11579     11583
     11583     11573     11587     11588     11583     11573     11587     11589
     11583     11573     11587     11590     11584     11583     11573     11587
     11584     11583     11585     11586     11585     11583     11573     11587
     11588     11587     11590     11591     11589     11587     11590     11591
     11592     11596     11594     11595     11592     11596     11594     11605
     11592     11596     11594     11609     11592     11597     11599     11600
     11592     11597     11601     11602     11592     11597     11601     11603
     11592     11597     11601     11605     11593     11592     11596     11594
     11593     11592     11597     11598     11593     11592     11597     11599
     11593     11592     11597     11601     11594     11596     11592     11597
     11594     11605     11601     11597     11594     11605     11601     11602
     11594     11605     11601     11603     11594     11605     11607     11608
     11594     11609     11612     11613     11595     11594     11605     11601
     11595     11594     11605     11606     11595     11594     11605     11607
     11595     11594     11609     11610     11595     11594     11609     11611
     11595     11594     11609     11612     11596     11592     11597     11598
     11596     11592     11597     11599     11596     11592     11597     11601
     11596     11594     11605     11601     11596     11594     11605     11606
     11596     11594     11605     11607     11596     11594     11609     11610
     11596     11594     11609     11611     11596     11594     11609     11612
     11597     11601     11603     11604     11597     11601     11605     11606
     11597     11601     11605     11607     11598     11597     11599     11600
     11598     11597     11601     11602     11598     11597     11601     11603
     11598     11597     11601     11605     11599     11597     11601     11602
     11599     11597     11601     11603     11599     11597     11601     11605
     11600     11599     11597     11601     11601     11605     11594     11609
     11601     11605     11607     11608     11602     11601     11603     11604
     11602     11601     11605     11606     11602     11601     11605     11607
     11603     11601     11605     11606     11603     11601     11605     11607
     11604     11603     11601     11605     11605     11594     11609     11610
     11605     11594     11609     11611     11605     11594     11609     11612
     11606     11605     11594     11609     11606     11605     11607     11608
     11607     11605     11594     11609     11610     11609     11612     11613
     11611     11609     11612     11613     11614     11618     11616     11617
     11614     11618     11616     11626     11614     11618     11616     11630
     11614     11619     11621     11622     11614     11619     11623     11624
     11614     11619     11623     11625     11614     11619     11623     11626
     11615     11614     11618     11616     11615     11614     11619     11620
     11615     11614     11619     11621     11615     11614     11619     11623
     11616     11618     11614     11619     11616     11626     11623     11619
     11616     11626     11623     11624     11616     11626     11623     11625
     11616     11626     11628     11629     11616     11630     11633     11634
     11617     11616     11626     11623     11617     11616     11626     11627
     11617     11616     11626     11628     11617     11616     11630     11631
     11617     11616     11630     11632     11617     11616     11630     11633
     11618     11614     11619     11620     11618     11614     11619     11621
     11618     11614     11619     11623     11618     11616     11626     11623
     11618     11616     11626     11627     11618     11616     11626     11628
     11618     11616     11630     11631     11618     11616     11630     11632
     11618     11616     11630     11633     11619     11623     11625     11635
     11619     11623     11626     11627     11619     11623     11626     11628
     11620     11619     11621     11622     11620     11619     11623     11624
     11620     11619     11623     11625     11620     11619     11623     11626
     11621     11619     11623     11624     11621     11619     11623     11625
     11621     11619     11623     11626     11622     11621     11619     11623
     11623     11625     11635     11636     11623     11625     11635     11639
     11623     11625     11635     11640     11623     11626     11616     11630
     11623     11626     11628     11629     11624     11623     11625     11635
     11624     11623     11626     11627     11624     11623     11626     11628
     11625     11623     11626     11627     11625     11623     11626     11628
     11625     11635     11639     11637     11625     11635     11640     11641
     11625     11635     11640     11642     11625     11635     11640     11650
     11626     11616     11630     11631     11626     11616     11630     11632
     11626     11616     11630     11633     11626     11623     11625     11635
     11627     11626     11616     11630     11627     11626     11628     11629
     11628     11626     11616     11630     11631     11630     11633     11634
     11632     11630     11633     11634     11635     11639     11637     11638
     11635     11639     11637     11653     11635     11639     11637     11657
     11635     11640     11642     11643     11635     11640     11642     11644
     11635     11640     11650     11651     11635     11640     11650     11652
     11635     11640     11650     11653     11636     11635     11639     11637
     11636     11635     11640     11641     11636     11635     11640     11642
     11636     11635     11640     11650     11637     11639     11635     11640
     11637     11653     11650     11640     11637     11653     11650     11651
     11637     11653     11650     11652     11637     11653     11655     11656
     11637     11657     11660     11661     11638     11637     11653     11650
     11638     11637     11653     11654     11638     11637     11653     11655
     11638     11637     11657     11658     11638     11637     11657     11659
     11638     11637     11657     11660     11639     11635     11640     11641
     11639     11635     11640     11642     11639     11635     11640     11650
     11639     11637     11653     11650     11639     11637     11653     11654
     11639     11637     11653     11655     11639     11637     11657     11658
     11639     11637     11657     11659     11639     11637     11657     11660
     11640     11642     11644     11645     11640     11642     11644     11646
     11640     11650     11652     11662     11640     11650     11653     11654
     11640     11650     11653     11655     11641     11640     11642     11643
     11641     11640     11642     11644     11641     11640     11650     11651
     11641     11640     11650     11652     11641     11640     11650     11653
     11642     11640     11650     11651     11642     11640     11650     11652
     11642     11640     11650     11653     11642     11644     11646     11647
     11642     11644     11646     11648     11642     11644     11646     11649
     11643     11642     11640     11650     11643     11642     11644     11645
     11643     11642     11644     11646     11644     11642     11640     11650
     11645     11644     11646     11647     11645     11644     11646     11648
     11645     11644     11646     11649     11650     11652     11662     11663
     11650     11652     11662     11666     11650     11652     11662     11667
     11650     11653     11637     11657     11650     11653     11655     11656
     11651     11650     11652     11662     11651     11650     11653     11654
     11651     11650     11653     11655     11652     11650     11653     11654
     11652     11650     11653     11655     11652     11662     11666     11664
     11652     11662     11667     11668     11652     11662     11667     11669
     11652     11662     11667     11670     11653     11637     11657     11658
     11653     11637     11657     11659     11653     11637     11657     11660
     11653     11650     11652     11662     11654     11653     11637     11657
     11654     11653     11655     11656     11655     11653     11637     11657
     11658     11657     11660     11661     11659     11657     11660     11661
     11662     11666     11664     11665     11662     11666     11664     11674
     11662     11666     11664     11678     11662     11667     11669     11683
     11662     11667     11670     11671     11662     11667     11670     11672
     11662     11667     11670     11674     11663     11662     11666     11664
     11663     11662     11667     11668     11663     11662     11667     11669
     11663     11662     11667     11670     11664     11666     11662     11667
     11664     11674     11670     11667     11664     11674     11670     11671
     11664     11674     11670     11672     11664     11674     11676     11677
     11664     11678     11681     11682     11665     11664     11674     11670
     11665     11664     11674     11675     11665     11664     11674     11676
     11665     11664     11678     11679     11665     11664     11678     11680
     11665     11664     11678     11681     11666     11662     11667     11668
     11666     11662     11667     11669     11666     11662     11667     11670
     11666     11664     11674     11670     11666     11664     11674     11675
     11666     11664     11674     11676     11666     11664     11678     11679
     11666     11664     11678     11680     11666     11664     11678     11681
     11667     11669     11683     11684     11667     11669     11683     11687
     11667     11669     11683     11688     11667     11670     11672     11673
     11667     11670     11674     11675     11667     11670     11674     11676
     11668     11667     11669     11683     11668     11667     11670     11671
     11668     11667     11670     11672     11668     11667     11670     11674
     11669     11667     11670     11671     11669     11667     11670     11672
     11669     11667     11670     11674     11669     11683     11687     11685
     11669     11683     11688     11689     11669     11683     11688     11690
     11669     11683     11688     11691     11670     11667     11669     11683
     11670     11674     11664     11678     11670     11674     11676     11677
     11671     11670     11672     11673     11671     11670     11674     11675
     11671     11670     11674     11676     11672     11670     11674     11675
     11672     11670     11674     11676     11673     11672     11670     11674
     11674     11664     11678     11679     11674     11664     11678     11680
     11674     11664     11678     11681     11675     11674     11664     11678
     11675     11674     11676     11677     11676     11674     11664     11678
     11679     11678     11681     11682     11680     11678     11681     11682
     11683     11687     11685     11686     11683     11687     11685     11695
     11683     11687     11685     11699     11683     11688     11690     11703
     11683     11688     11691     11692     11683     11688     11691     11693
     11683     11688     11691     11695     11684     11683     11687     11685
     11684     11683     11688     11689     11684     11683     11688     11690
     11684     11683     11688     11691     11685     11687     11683     11688
     11685     11695     11691     11688     11685     11695     11691     11692
     11685     11695     11691     11693     11685     11695     11697     11698
     11686     11685     11695     11691     11686     11685     11695     11696
     11686     11685     11695     11697     11686     11685     11699     11700
     11686     11685     11699     11701     11686     11685     11699     11702
     11687     11683     11688     11689     11687     11683     11688     11690
     11687     11683     11688     11691     11687     11685     11695     11691
     11687     11685     11695     11696     11687     11685     11695     11697
     11687     11685     11699     11700     11687     11685     11699     11701
     11687     11685     11699     11702     11688     11690     11703     11704
     11688     11690     11703     11707     11688     11690     11703     11708
     11688     11691     11693     11694     11688     11691     11695     11696
     11688     11691     11695     11697     11689     11688     11690     11703
     11689     11688     11691     11692     11689     11688     11691     11693
     11689     11688     11691     11695     11690     11688     11691     11692
     11690     11688     11691     11693     11690     11688     11691     11695
     11690     11703     11707     11705     11690     11703     11708     11709
     11690     11703     11708     11710     11690     11703     11708     11711
     11691     11688     11690     11703     11691     11695     11685     11699
     11691     11695     11697     11698     11692     11691     11693     11694
     11692     11691     11695     11696     11692     11691     11695     11697
     11693     11691     11695     11696     11693     11691     11695     11697
     11694     11693     11691     11695     11695     11685     11699     11700
     11695     11685     11699     11701     11695     11685     11699     11702
     11696     11695     11685     11699     11696     11695     11697     11698
     11697     11695     11685     11699     11703     11707     11705     11706
     11703     11707     11705     11714     11703     11707     11705     11718
     11703     11708     11710     11722     11703     11708     11711     11712
     11703     11708     11711     11713     11703     11708     11711     11714
     11704     11703     11707     11705     11704     11703     11708     11709
     11704     11703     11708     11710     11704     11703     11708     11711
     11705     11707     11703     11708     11705     11714     11711     11708
     11705     11714     11711     11712     11705     11714     11711     11713
     11705     11714     11716     11717     11706     11705     11714     11711
     11706     11705     11714     11715     11706     11705     11714     11716
     11706     11705     11718     11719     11706     11705     11718     11720
     11706     11705     11718     11721     11707     11703     11708     11709
     11707     11703     11708     11710     11707     11703     11708     11711
     11707     11705     11714     11711     11707     11705     11714     11715
     11707     11705     11714     11716     11707     11705     11718     11719
     11707     11705     11718     11720     11707     11705     11718     11721
     11708     11710     11722     11723     11708     11710     11722     11726
     11708     11710     11722     11727     11708     11711     11713     11750
     11708     11711     11714     11715     11708     11711     11714     11716
     11709     11708     11710     11722     11709     11708     11711     11712
     11709     11708     11711     11713     11709     11708     11711     11714
     11710     11708     11711     11712     11710     11708     11711     11713
     11710     11708     11711     11714     11710     11722     11726     11724
     11710     11722     11727     11728     11710     11722     11727     11729
     11710     11722     11727     11737     11711     11708     11710     11722
     11711     11713     11750     11751     11711     11713     11750     11754
     11711     11713     11750     11755     11711     11714     11705     11718
     11711     11714     11716     11717     11712     11711     11713     11750
     11712     11711     11714     11715     11712     11711     11714     11716
     11713     11711     11714     11715     11713     11711     11714     11716
     11713     11750     11754     11752     11713     11750     11755     11756
     11713     11750     11755     11757     11713     11750     11755     11765
     11714     11705     11718     11719     11714     11705     11718     11720
     11714     11705     11718     11721     11714     11711     11713     11750
     11715     11714     11705     11718     11715     11714     11716     11717
     11716     11714     11705     11718     11722     11726     11724     11725
     11722     11726     11724     11741     11722     11726     11724     11745
     11722     11727     11729     11730     11722     11727     11729     11731
     11722     11727     11737     11738     11722     11727     11737     11739
     11722     11727     11737     11741     11723     11722     11726     11724
     11723     11722     11727     11728     11723     11722     11727     11729
     11723     11722     11727     11737     11724     11726     11722     11727
     11724     11741     11737     11727     11724     11741     11737     11738
     11724     11741     11737     11739     11724     11741     11743     11744
     11724     11745     11748     11749     11725     11724     11741     11737
     11725     11724     11741     11742     11725     11724     11741     11743
     11725     11724     11745     11746     11725     11724     11745     11747
     11725     11724     11745     11748     11726     11722     11727     11728
     11726     11722     11727     11729     11726     11722     11727     11737
     11726     11724     11741     11737     11726     11724     11741     11742
     11726     11724     11741     11743     11726     11724     11745     11746
     11726     11724     11745     11747     11726     11724     11745     11748
     11727     11729     11731     11732     11727     11729     11731     11733
     11727     11737     11739     11740     11727     11737     11741     11742
     11727     11737     11741     11743     11728     11727     11729     11730
     11728     11727     11729     11731     11728     11727     11737     11738
     11728     11727     11737     11739     11728     11727     11737     11741
     11729     11727     11737     11738     11729     11727     11737     11739
     11729     11727     11737     11741     11729     11731     11733     11734
     11729     11731     11733     11735     11729     11731     11733     11736
     11730     11729     11727     11737     11730     11729     11731     11732
     11730     11729     11731     11733     11731     11729     11727     11737
     11732     11731     11733     11734     11732     11731     11733     11735
     11732     11731     11733     11736     11737     11741     11724     11745
     11737     11741     11743     11744     11738     11737     11739     11740
     11738     11737     11741     11742     11738     11737     11741     11743
     11739     11737     11741     11742     11739     11737     11741     11743
     11740     11739     11737     11741     11741     11724     11745     11746
     11741     11724     11745     11747     11741     11724     11745     11748
     11742     11741     11724     11745     11742     11741     11743     11744
     11743     11741     11724     11745     11746     11745     11748     11749
     11747     11745     11748     11749     11750     11754     11752     11753
     11750     11754     11752     11768     11750     11754     11752     11772
     11750     11755     11757     11758     11750     11755     11757     11759
     11750     11755     11765     11766     11750     11755     11765     11767
     11750     11755     11765     11768     11751     11750     11754     11752
     11751     11750     11755     11756     11751     11750     11755     11757
     11751     11750     11755     11765     11752     11754     11750     11755
     11752     11768     11765     11755     11752     11768     11765     11766
     11752     11768     11765     11767     11752     11768     11770     11771
     11752     11772     11775     11776     11753     11752     11768     11765
     11753     11752     11768     11769     11753     11752     11768     11770
     11753     11752     11772     11773     11753     11752     11772     11774
     11753     11752     11772     11775     11754     11750     11755     11756
     11754     11750     11755     11757     11754     11750     11755     11765
     11754     11752     11768     11765     11754     11752     11768     11769
     11754     11752     11768     11770     11754     11752     11772     11773
     11754     11752     11772     11774     11754     11752     11772     11775
     11755     11757     11759     11760     11755     11757     11759     11761
     11755     11765     11767     11777     11755     11765     11768     11769
     11755     11765     11768     11770     11756     11755     11757     11758
     11756     11755     11757     11759     11756     11755     11765     11766
     11756     11755     11765     11767     11756     11755     11765     11768
     11757     11755     11765     11766     11757     11755     11765     11767
     11757     11755     11765     11768     11757     11759     11761     11762
     11757     11759     11761     11763     11757     11759     11761     11764
     11758     11757     11755     11765     11758     11757     11759     11760
     11758     11757     11759     11761     11759     11757     11755     11765
     11760     11759     11761     11762     11760     11759     11761     11763
     11760     11759     11761     11764     11765     11767     11777     11778
     11765     11767     11777     11781     11765     11767     11777     11782
     11765     11768     11752     11772     11765     11768     11770     11771
     11766     11765     11767     11777     11766     11765     11768     11769
     11766     11765     11768     11770     11767     11765     11768     11769
     11767     11765     11768     11770     11767     11777     11781     11779
     11767     11777     11782     11783     11767     11777     11782     11784
     11767     11777     11782     11785     11768     11752     11772     11773
     11768     11752     11772     11774     11768     11752     11772     11775
     11768     11765     11767     11777     11769     11768     11752     11772
     11769     11768     11770     11771     11770     11768     11752     11772
     11773     11772     11775     11776     11774     11772     11775     11776
     11777     11781     11779     11780     11777     11781     11779     11789
     11777     11781     11779     11793     11777     11782     11784     11798
     11777     11782     11785     11786     11777     11782     11785     11787
     11777     11782     11785     11789     11778     11777     11781     11779
     11778     11777     11782     11783     11778     11777     11782     11784
     11778     11777     11782     11785     11779     11781     11777     11782
     11779     11789     11785     11782     11779     11789     11785     11786
     11779     11789     11785     11787     11779     11789     11791     11792
     11779     11793     11796     11797     11780     11779     11789     11785
     11780     11779     11789     11790     11780     11779     11789     11791
     11780     11779     11793     11794     11780     11779     11793     11795
     11780     11779     11793     11796     11781     11777     11782     11783
     11781     11777     11782     11784     11781     11777     11782     11785
     11781     11779     11789     11785     11781     11779     11789     11790
     11781     11779     11789     11791     11781     11779     11793     11794
     11781     11779     11793     11795     11781     11779     11793     11796
     11782     11784     11798     11799     11782     11784     11798     11802
     11782     11784     11798     11803     11782     11785     11787     11788
     11782     11785     11789     11790     11782     11785     11789     11791
     11783     11782     11784     11798     11783     11782     11785     11786
     11783     11782     11785     11787     11783     11782     11785     11789
     11784     11782     11785     11786     11784     11782     11785     11787
     11784     11782     11785     11789     11784     11798     11802     11800
     11784     11798     11803     11804     11784     11798     11803     11805
     11784     11798     11803     11806     11785     11782     11784     11798
     11785     11789     11779     11793     11785     11789     11791     11792
     11786     11785     11787     11788     11786     11785     11789     11790
     11786     11785     11789     11791     11787     11785     11789     11790
     11787     11785     11789     11791     11788     11787     11785     11789
     11789     11779     11793     11794     11789     11779     11793     11795
     11789     11779     11793     11796     11790     11789     11779     11793
     11790     11789     11791     11792     11791     11789     11779     11793
     11794     11793     11796     11797     11795     11793     11796     11797
     11798     11802     11800     11801     11798     11802     11800     11810
     11798     11802     11800     11814     11798     11803     11805     11818
     11798     11803     11806     11807     11798     11803     11806     11808
     11798     11803     11806     11810     11799     11798     11802     11800
     11799     11798     11803     11804     11799     11798     11803     11805
     11799     11798     11803     11806     11800     11802     11798     11803
     11800     11810     11806     11803     11800     11810     11806     11807
     11800     11810     11806     11808     11800     11810     11812     11813
     11801     11800     11810     11806     11801     11800     11810     11811
     11801     11800     11810     11812     11801     11800     11814     11815
     11801     11800     11814     11816     11801     11800     11814     11817
     11802     11798     11803     11804     11802     11798     11803     11805
     11802     11798     11803     11806     11802     11800     11810     11806
     11802     11800     11810     11811     11802     11800     11810     11812
     11802     11800     11814     11815     11802     11800     11814     11816
     11802     11800     11814     11817     11803     11805     11818     11819
     11803     11805     11818     11822     11803     11805     11818     11823
     11803     11806     11808     11809     11803     11806     11810     11811
     11803     11806     11810     11812     11804     11803     11805     11818
     11804     11803     11806     11807     11804     11803     11806     11808
     11804     11803     11806     11810     11805     11803     11806     11807
     11805     11803     11806     11808     11805     11803     11806     11810
     11805     11818     11822     11820     11805     11818     11823     11824
     11805     11818     11823     11825     11805     11818     11823     11826
     11806     11803     11805     11818     11806     11810     11800     11814
     11806     11810     11812     11813     11807     11806     11808     11809
     11807     11806     11810     11811     11807     11806     11810     11812
     11808     11806     11810     11811     11808     11806     11810     11812
     11809     11808     11806     11810     11810     11800     11814     11815
     11810     11800     11814     11816     11810     11800     11814     11817
     11811     11810     11800     11814     11811     11810     11812     11813
     11812     11810     11800     11814     11818     11822     11820     11821
     11818     11822     11820     11829     11818     11822     11820     11833
     11818     11823     11825     11837     11818     11823     11826     11827
     11818     11823     11826     11828     11818     11823     11826     11829
     11819     11818     11822     11820     11819     11818     11823     11824
     11819     11818     11823     11825     11819     11818     11823     11826
     11820     11822     11818     11823     11820     11829     11826     11823
     11820     11829     11826     11827     11820     11829     11826     11828
     11820     11829     11831     11832     11821     11820     11829     11826
     11821     11820     11829     11830     11821     11820     11829     11831
     11821     11820     11833     11834     11821     11820     11833     11835
     11821     11820     11833     11836     11822     11818     11823     11824
     11822     11818     11823     11825     11822     11818     11823     11826
     11822     11820     11829     11826     11822     11820     11829     11830
     11822     11820     11829     11831     11822     11820     11833     11834
     11822     11820     11833     11835     11822     11820     11833     11836
     11823     11825     11837     11838     11823     11825     11837     11841
     11823     11825     11837     11842     11823     11826     11828     11865
     11823     11826     11829     11830     11823     11826     11829     11831
     11824     11823     11825     11837     11824     11823     11826     11827
     11824     11823     11826     11828     11824     11823     11826     11829
     11825     11823     11826     11827     11825     11823     11826     11828
     11825     11823     11826     11829     11825     11837     11841     11839
     11825     11837     11842     11843     11825     11837     11842     11844
     11825     11837     11842     11852     11826     11823     11825     11837
     11826     11828     11865     11866     11826     11828     11865     11869
     11826     11828     11865     11870     11826     11829     11820     11833
     11826     11829     11831     11832     11827     11826     11828     11865
     11827     11826     11829     11830     11827     11826     11829     11831
     11828     11826     11829     11830     11828     11826     11829     11831
     11828     11865     11869     11867     11828     11865     11870     11871
     11828     11865     11870     11872     11828     11865     11870     11880
     11829     11820     11833     11834     11829     11820     11833     11835
     11829     11820     11833     11836     11829     11826     11828     11865
     11830     11829     11820     11833     11830     11829     11831     11832
     11831     11829     11820     11833     11837     11841     11839     11840
     11837     11841     11839     11856     11837     11841     11839     11860
     11837     11842     11844     11845     11837     11842     11844     11846
     11837     11842     11852     11853     11837     11842     11852     11854
     11837     11842     11852     11856     11838     11837     11841     11839
     11838     11837     11842     11843     11838     11837     11842     11844
     11838     11837     11842     11852     11839     11841     11837     11842
     11839     11856     11852     11842     11839     11856     11852     11853
     11839     11856     11852     11854     11839     11856     11858     11859
     11839     11860     11863     11864     11840     11839     11856     11852
     11840     11839     11856     11857     11840     11839     11856     11858
     11840     11839     11860     11861     11840     11839     11860     11862
     11840     11839     11860     11863     11841     11837     11842     11843
     11841     11837     11842     11844     11841     11837     11842     11852
     11841     11839     11856     11852     11841     11839     11856     11857
     11841     11839     11856     11858     11841     11839     11860     11861
     11841     11839     11860     11862     11841     11839     11860     11863
     11842     11844     11846     11847     11842     11844     11846     11848
     11842     11852     11854     11855     11842     11852     11856     11857
     11842     11852     11856     11858     11843     11842     11844     11845
     11843     11842     11844     11846     11843     11842     11852     11853
     11843     11842     11852     11854     11843     11842     11852     11856
     11844     11842     11852     11853     11844     11842     11852     11854
     11844     11842     11852     11856     11844     11846     11848     11849
     11844     11846     11848     11850     11844     11846     11848     11851
     11845     11844     11842     11852     11845     11844     11846     11847
     11845     11844     11846     11848     11846     11844     11842     11852
     11847     11846     11848     11849     11847     11846     11848     11850
     11847     11846     11848     11851     11852     11856     11839     11860
     11852     11856     11858     11859     11853     11852     11854     11855
     11853     11852     11856     11857     11853     11852     11856     11858
     11854     11852     11856     11857     11854     11852     11856     11858
     11855     11854     11852     11856     11856     11839     11860     11861
     11856     11839     11860     11862     11856     11839     11860     11863
     11857     11856     11839     11860     11857     11856     11858     11859
     11858     11856     11839     11860     11861     11860     11863     11864
     11862     11860     11863     11864     11865     11869     11867     11868
     11865     11869     11867     11883     11865     11869     11867     11887
     11865     11870     11872     11873     11865     11870     11872     11874
     11865     11870     11880     11881     11865     11870     11880     11882
     11865     11870     11880     11883     11866     11865     11869     11867
     11866     11865     11870     11871     11866     11865     11870     11872
     11866     11865     11870     11880     11867     11869     11865     11870
     11867     11883     11880     11870     11867     11883     11880     11881
     11867     11883     11880     11882     11867     11883     11885     11886
     11867     11887     11890     11891     11868     11867     11883     11880
     11868     11867     11883     11884     11868     11867     11883     11885
     11868     11867     11887     11888     11868     11867     11887     11889
     11868     11867     11887     11890     11869     11865     11870     11871
     11869     11865     11870     11872     11869     11865     11870     11880
     11869     11867     11883     11880     11869     11867     11883     11884
     11869     11867     11883     11885     11869     11867     11887     11888
     11869     11867     11887     11889     11869     11867     11887     11890
     11870     11872     11874     11875     11870     11872     11874     11876
     11870     11880     11882     11892     11870     11880     11883     11884
     11870     11880     11883     11885     11871     11870     11872     11873
     11871     11870     11872     11874     11871     11870     11880     11881
     11871     11870     11880     11882     11871     11870     11880     11883
     11872     11870     11880     11881     11872     11870     11880     11882
     11872     11870     11880     11883     11872     11874     11876     11877
     11872     11874     11876     11878     11872     11874     11876     11879
     11873     11872     11870     11880     11873     11872     11874     11875
     11873     11872     11874     11876     11874     11872     11870     11880
     11875     11874     11876     11877     11875     11874     11876     11878
     11875     11874     11876     11879     11880     11882     11892     11893
     11880     11882     11892     11896     11880     11882     11892     11897
     11880     11883     11867     11887     11880     11883     11885     11886
     11881     11880     11882     11892     11881     11880     11883     11884
     11881     11880     11883     11885     11882     11880     11883     11884
     11882     11880     11883     11885     11882     11892     11896     11894
     11882     11892     11897     11898     11882     11892     11897     11899
     11882     11892     11897     11900     11883     11867     11887     11888
     11883     11867     11887     11889     11883     11867     11887     11890
     11883     11880     11882     11892     11884     11883     11867     11887
     11884     11883     11885     11886     11885     11883     11867     11887
     11888     11887     11890     11891     11889     11887     11890     11891
     11892     11896     11894     11895     11892     11896     11894     11904
     11892     11896     11894     11908     11892     11897     11899     11913
     11892     11897     11900     11901     11892     11897     11900     11902
     11892     11897     11900     11904     11893     11892     11896     11894
     11893     11892     11897     11898     11893     11892     11897     11899
     11893     11892     11897     11900     11894     11896     11892     11897
     11894     11904     11900     11897     11894     11904     11900     11901
     11894     11904     11900     11902     11894     11904     11906     11907
     11894     11908     11911     11912     11895     11894     11904     11900
     11895     11894     11904     11905     11895     11894     11904     11906
     11895     11894     11908     11909     11895     11894     11908     11910
     11895     11894     11908     11911     11896     11892     11897     11898
     11896     11892     11897     11899     11896     11892     11897     11900
     11896     11894     11904     11900     11896     11894     11904     11905
     11896     11894     11904     11906     11896     11894     11908     11909
     11896     11894     11908     11910     11896     11894     11908     11911
     11897     11899     11913     11914     11897     11899     11913     11917
     11897     11899     11913     11918     11897     11900     11902     11903
     11897     11900     11904     11905     11897     11900     11904     11906
     11898     11897     11899     11913     11898     11897     11900     11901
     11898     11897     11900     11902     11898     11897     11900     11904
     11899     11897     11900     11901     11899     11897     11900     11902
     11899     11897     11900     11904     11899     11913     11917     11915
     11899     11913     11918     11919     11899     11913     11918     11920
     11899     11913     11918     11921     11900     11897     11899     11913
     11900     11904     11894     11908     11900     11904     11906     11907
     11901     11900     11902     11903     11901     11900     11904     11905
     11901     11900     11904     11906     11902     11900     11904     11905
     11902     11900     11904     11906     11903     11902     11900     11904
     11904     11894     11908     11909     11904     11894     11908     11910
     11904     11894     11908     11911     11905     11904     11894     11908
     11905     11904     11906     11907     11906     11904     11894     11908
     11909     11908     11911     11912     11910     11908     11911     11912
     11913     11917     11915     11916     11913     11917     11915     11925
     11913     11917     11915     11929     11913     11918     11920     11933
     11913     11918     11921     11922     11913     11918     11921     11923
     11913     11918     11921     11925     11914     11913     11917     11915
     11914     11913     11918     11919     11914     11913     11918     11920
     11914     11913     11918     11921     11915     11917     11913     11918
     11915     11925     11921     11918     11915     11925     11921     11922
     11915     11925     11921     11923     11915     11925     11927     11928
     11916     11915     11925     11921     11916     11915     11925     11926
     11916     11915     11925     11927     11916     11915     11929     11930
     11916     11915     11929     11931     11916     11915     11929     11932
     11917     11913     11918     11919     11917     11913     11918     11920
     11917     11913     11918     11921     11917     11915     11925     11921
     11917     11915     11925     11926     11917     11915     11925     11927
     11917     11915     11929     11930     11917     11915     11929     11931
     11917     11915     11929     11932     11918     11920     11933     11934
     11918     11920     11933     11937     11918     11920     11933     11938
     11918     11921     11923     11924     11918     11921     11925     11926
     11918     11921     11925     11927     11919     11918     11920     11933
     11919     11918     11921     11922     11919     11918     11921     11923
     11919     11918     11921     11925     11920     11918     11921     11922
     11920     11918     11921     11923     11920     11918     11921     11925
     11920     11933     11937     11935     11920     11933     11938     11939
     11920     11933     11938     11940     11920     11933     11938     11941
     11921     11918     11920     11933     11921     11925     11915     11929
     11921     11925     11927     11928     11922     11921     11923     11924
     11922     11921     11925     11926     11922     11921     11925     11927
     11923     11921     11925     11926     11923     11921     11925     11927
     11924     11923     11921     11925     11925     11915     11929     11930
     11925     11915     11929     11931     11925     11915     11929     11932
     11926     11925     11915     11929     11926     11925     11927     11928
     11927     11925     11915     11929     11933     11937     11935     11936
     11933     11937     11935     11944     11933     11937     11935     11948
     11933     11938     11940     11952     11933     11938     11941     11942
     11933     11938     11941     11943     11933     11938     11941     11944
     11934     11933     11937     11935     11934     11933     11938     11939
     11934     11933     11938     11940     11934     11933     11938     11941
     11935     11937     11933     11938     11935     11944     11941     11938
     11935     11944     11941     11942     11935     11944     11941     11943
     11935     11944     11946     11947     11936     11935     11944     11941
     11936     11935     11944     11945     11936     11935     11944     11946
     11936     11935     11948     11949     11936     11935     11948     11950
     11936     11935     11948     11951     11937     11933     11938     11939
     11937     11933     11938     11940     11937     11933     11938     11941
     11937     11935     11944     11941     11937     11935     11944     11945
     11937     11935     11944     11946     11937     11935     11948     11949
     11937     11935     11948     11950     11937     11935     11948     11951
     11938     11940     11952     11953     11938     11940     11952     11956
     11938     11940     11952     11957     11938     11941     11943     11980
     11938     11941     11944     11945     11938     11941     11944     11946
     11939     11938     11940     11952     11939     11938     11941     11942
     11939     11938     11941     11943     11939     11938     11941     11944
     11940     11938     11941     11942     11940     11938     11941     11943
     11940     11938     11941     11944     11940     11952     11956     11954
     11940     11952     11957     11958     11940     11952     11957     11959
     11940     11952     11957     11967     11941     11938     11940     11952
     11941     11943     11980     11981     11941     11943     11980     11984
     11941     11943     11980     11985     11941     11944     11935     11948
     11941     11944     11946     11947     11942     11941     11943     11980
     11942     11941     11944     11945     11942     11941     11944     11946
     11943     11941     11944     11945     11943     11941     11944     11946
     11943     11980     11984     11982     11943     11980     11985     11986
     11943     11980     11985     11987     11943     11980     11985     11995
     11944     11935     11948     11949     11944     11935     11948     11950
     11944     11935     11948     11951     11944     11941     11943     11980
     11945     11944     11935     11948     11945     11944     11946     11947
     11946     11944     11935     11948     11952     11956     11954     11955
     11952     11956     11954     11971     11952     11956     11954     11975
     11952     11957     11959     11960     11952     11957     11959     11961
     11952     11957     11967     11968     11952     11957     11967     11969
     11952     11957     11967     11971     11953     11952     11956     11954
     11953     11952     11957     11958     11953     11952     11957     11959
     11953     11952     11957     11967     11954     11956     11952     11957
     11954     11971     11967     11957     11954     11971     11967     11968
     11954     11971     11967     11969     11954     11971     11973     11974
     11954     11975     11978     11979     11955     11954     11971     11967
     11955     11954     11971     11972     11955     11954     11971     11973
     11955     11954     11975     11976     11955     11954     11975     11977
     11955     11954     11975     11978     11956     11952     11957     11958
     11956     11952     11957     11959     11956     11952     11957     11967
     11956     11954     11971     11967     11956     11954     11971     11972
     11956     11954     11971     11973     11956     11954     11975     11976
     11956     11954     11975     11977     11956     11954     11975     11978
     11957     11959     11961     11962     11957     11959     11961     11963
     11957     11967     11969     11970     11957     11967     11971     11972
     11957     11967     11971     11973     11958     11957     11959     11960
     11958     11957     11959     11961     11958     11957     11967     11968
     11958     11957     11967     11969     11958     11957     11967     11971
     11959     11957     11967     11968     11959     11957     11967     11969
     11959     11957     11967     11971     11959     11961     11963     11964
     11959     11961     11963     11965     11959     11961     11963     11966
     11960     11959     11957     11967     11960     11959     11961     11962
     11960     11959     11961     11963     11961     11959     11957     11967
     11962     11961     11963     11964     11962     11961     11963     11965
     11962     11961     11963     11966     11967     11971     11954     11975
     11967     11971     11973     11974     11968     11967     11969     11970
     11968     11967     11971     11972     11968     11967     11971     11973
     11969     11967     11971     11972     11969     11967     11971     11973
     11970     11969     11967     11971     11971     11954     11975     11976
     11971     11954     11975     11977     11971     11954     11975     11978
     11972     11971     11954     11975     11972     11971     11973     11974
     11973     11971     11954     11975     11976     11975     11978     11979
     11977     11975     11978     11979     11980     11984     11982     11983
     11980     11984     11982     11998     11980     11984     11982     12002
     11980     11985     11987     11988     11980     11985     11987     11989
     11980     11985     11995     11996     11980     11985     11995     11997
     11980     11985     11995     11998     11981     11980     11984     11982
     11981     11980     11985     11986     11981     11980     11985     11987
     11981     11980     11985     11995     11982     11984     11980     11985
     11982     11998     11995     11985     11982     11998     11995     11996
     11982     11998     11995     11997     11982     11998     12000     12001
     11982     12002     12005     12006     11983     11982     11998     11995
     11983     11982     11998     11999     11983     11982     11998     12000
     11983     11982     12002     12003     11983     11982     12002     12004
     11983     11982     12002     12005     11984     11980     11985     11986
     11984     11980     11985     11987     11984     11980     11985     11995
     11984     11982     11998     11995     11984     11982     11998     11999
     11984     11982     11998     12000     11984     11982     12002     12003
     11984     11982     12002     12004     11984     11982     12002     12005
     11985     11987     11989     11990     11985     11987     11989     11991
     11985     11995     11997     12007     11985     11995     11998     11999
     11985     11995     11998     12000     11986     11985     11987     11988
     11986     11985     11987     11989     11986     11985     11995     11996
     11986     11985     11995     11997     11986     11985     11995     11998
     11987     11985     11995     11996     11987     11985     11995     11997
     11987     11985     11995     11998     11987     11989     11991     11992
     11987     11989     11991     11993     11987     11989     11991     11994
     11988     11987     11985     11995     11988     11987     11989     11990
     11988     11987     11989     11991     11989     11987     11985     11995
     11990     11989     11991     11992     11990     11989     11991     11993
     11990     11989     11991     11994     11995     11997     12007     12008
     11995     11997     12007     12011     11995     11997     12007     12012
     11995     11998     11982     12002     11995     11998     12000     12001
     11996     11995     11997     12007     11996     11995     11998     11999
     11996     11995     11998     12000     11997     11995     11998     11999
     11997     11995     11998     12000     11997     12007     12011     12009
     11997     12007     12012     12013     11997     12007     12012     12014
     11997     12007     12012     12015     11998     11982     12002     12003
     11998     11982     12002     12004     11998     11982     12002     12005
     11998     11995     11997     12007     11999     11998     11982     12002
     11999     11998     12000     12001     12000     11998     11982     12002
     12003     12002     12005     12006     12004     12002     12005     12006
     12007     12011     12009     12010     12007     12011     12009     12019
     12007     12011     12009     12023     12007     12012     12014     12028
     12007     12012     12015     12016     12007     12012     12015     12017
     12007     12012     12015     12019     12008     12007     12011     12009
     12008     12007     12012     12013     12008     12007     12012     12014
     12008     12007     12012     12015     12009     12011     12007     12012
     12009     12019     12015     12012     12009     12019     12015     12016
     12009     12019     12015     12017     12009     12019     12021     12022
     12009     12023     12026     12027     12010     12009     12019     12015
     12010     12009     12019     12020     12010     12009     12019     12021
     12010     12009     12023     12024     12010     12009     12023     12025
     12010     12009     12023     12026     12011     12007     12012     12013
     12011     12007     12012     12014     12011     12007     12012     12015
     12011     12009     12019     12015     12011     12009     12019     12020
     12011     12009     12019     12021     12011     12009     12023     12024
     12011     12009     12023     12025     12011     12009     12023     12026
     12012     12014     12028     12029     12012     12014     12028     12032
     12012     12014     12028     12033     12012     12015     12017     12018
     12012     12015     12019     12020     12012     12015     12019     12021
     12013     12012     12014     12028     12013     12012     12015     12016
     12013     12012     12015     12017     12013     12012     12015     12019
     12014     12012     12015     12016     12014     12012     12015     12017
     12014     12012     12015     12019     12014     12028     12032     12030
     12014     12028     12033     12034     12014     12028     12033     12035
     12014     12028     12033     12036     12015     12012     12014     12028
     12015     12019     12009     12023     12015     12019     12021     12022
     12016     12015     12017     12018     12016     12015     12019     12020
     12016     12015     12019     12021     12017     12015     12019     12020
     12017     12015     12019     12021     12018     12017     12015     12019
     12019     12009     12023     12024     12019     12009     12023     12025
     12019     12009     12023     12026     12020     12019     12009     12023
     12020     12019     12021     12022     12021     12019     12009     12023
     12024     12023     12026     12027     12025     12023     12026     12027
     12028     12032     12030     12031     12028     12032     12030     12040
     12028     12032     12030     12044     12028     12033     12035     12048
     12028     12033     12036     12037     12028     12033     12036     12038
     12028     12033     12036     12040     12029     12028     12032     12030
     12029     12028     12033     12034     12029     12028     12033     12035
     12029     12028     12033     12036     12030     12032     12028     12033
     12030     12040     12036     12033     12030     12040     12036     12037
     12030     12040     12036     12038     12030     12040     12042     12043
     12031     12030     12040     12036     12031     12030     12040     12041
     12031     12030     12040     12042     12031     12030     12044     12045
     12031     12030     12044     12046     12031     12030     12044     12047
     12032     12028     12033     12034     12032     12028     12033     12035
     12032     12028     12033     12036     12032     12030     12040     12036
     12032     12030     12040     12041     12032     12030     12040     12042
     12032     12030     12044     12045     12032     12030     12044     12046
     12032     12030     12044     12047     12033     12035     12048     12049
     12033     12035     12048     12052     12033     12035     12048     12053
     12033     12036     12038     12039     12033     12036     12040     12041
     12033     12036     12040     12042     12034     12033     12035     12048
     12034     12033     12036     12037     12034     12033     12036     12038
     12034     12033     12036     12040     12035     12033     12036     12037
     12035     12033     12036     12038     12035     12033     12036     12040
     12035     12048     12052     12050     12035     12048     12053     12054
     12035     12048     12053     12055     12035     12048     12053     12056
     12036     12033     12035     12048     12036     12040     12030     12044
     12036     12040     12042     12043     12037     12036     12038     12039
     12037     12036     12040     12041     12037     12036     12040     12042
     12038     12036     12040     12041     12038     12036     12040     12042
     12039     12038     12036     12040     12040     12030     12044     12045
     12040     12030     12044     12046     12040     12030     12044     12047
     12041     12040     12030     12044     12041     12040     12042     12043
     12042     12040     12030     12044     12048     12052     12050     12051
     12048     12052     12050     12059     12048     12052     12050     12063
     12048     12053     12055     12067     12048     12053     12056     12057
     12048     12053     12056     12058     12048     12053     12056     12059
     12049     12048     12052     12050     12049     12048     12053     12054
     12049     12048     12053     12055     12049     12048     12053     12056
     12050     12052     12048     12053     12050     12059     12056     12053
     12050     12059     12056     12057     12050     12059     12056     12058
     12050     12059     12061     12062     12051     12050     12059     12056
     12051     12050     12059     12060     12051     12050     12059     12061
     12051     12050     12063     12064     12051     12050     12063     12065
     12051     12050     12063     12066     12052     12048     12053     12054
     12052     12048     12053     12055     12052     12048     12053     12056
     12052     12050     12059     12056     12052     12050     12059     12060
     12052     12050     12059     12061     12052     12050     12063     12064
     12052     12050     12063     12065     12052     12050     12063     12066
     12053     12055     12067     12068     12053     12055     12067     12071
     12053     12055     12067     12072     12053     12056     12058     12095
     12053     12056     12059     12060     12053     12056     12059     12061
     12054     12053     12055     12067     12054     12053     12056     12057
     12054     12053     12056     12058     12054     12053     12056     12059
     12055     12053     12056     12057     12055     12053     12056     12058
     12055     12053     12056     12059     12055     12067     12071     12069
     12055     12067     12072     12073     12055     12067     12072     12074
     12055     12067     12072     12082     12056     12053     12055     12067
     12056     12058     12095     12096     12056     12058     12095     12099
     12056     12058     12095     12100     12056     12059     12050     12063
     12056     12059     12061     12062     12057     12056     12058     12095
     12057     12056     12059     12060     12057     12056     12059     12061
     12058     12056     12059     12060     12058     12056     12059     12061
     12058     12095     12099     12097     12058     12095     12100     12101
     12058     12095     12100     12102     12058     12095     12100     12110
     12059     12050     12063     12064     12059     12050     12063     12065
     12059     12050     12063     12066     12059     12056     12058     12095
     12060     12059     12050     12063     12060     12059     12061     12062
     12061     12059     12050     12063     12067     12071     12069     12070
     12067     12071     12069     12086     12067     12071     12069     12090
     12067     12072     12074     12075     12067     12072     12074     12076
     12067     12072     12082     12083     12067     12072     12082     12084
     12067     12072     12082     12086     12068     12067     12071     12069
     12068     12067     12072     12073     12068     12067     12072     12074
     12068     12067     12072     12082     12069     12071     12067     12072
     12069     12086     12082     12072     12069     12086     12082     12083
     12069     12086     12082     12084     12069     12086     12088     12089
     12069     12090     12093     12094     12070     12069     12086     12082
     12070     12069     12086     12087     12070     12069     12086     12088
     12070     12069     12090     12091     12070     12069     12090     12092
     12070     12069     12090     12093     12071     12067     12072     12073
     12071     12067     12072     12074     12071     12067     12072     12082
     12071     12069     12086     12082     12071     12069     12086     12087
     12071     12069     12086     12088     12071     12069     12090     12091
     12071     12069     12090     12092     12071     12069     12090     12093
     12072     12074     12076     12077     12072     12074     12076     12078
     12072     12082     12084     12085     12072     12082     12086     12087
     12072     12082     12086     12088     12073     12072     12074     12075
     12073     12072     12074     12076     12073     12072     12082     12083
     12073     12072     12082     12084     12073     12072     12082     12086
     12074     12072     12082     12083     12074     12072     12082     12084
     12074     12072     12082     12086     12074     12076     12078     12079
     12074     12076     12078     12080     12074     12076     12078     12081
     12075     12074     12072     12082     12075     12074     12076     12077
     12075     12074     12076     12078     12076     12074     12072     12082
     12077     12076     12078     12079     12077     12076     12078     12080
     12077     12076     12078     12081     12082     12086     12069     12090
     12082     12086     12088     12089     12083     12082     12084     12085
     12083     12082     12086     12087     12083     12082     12086     12088
     12084     12082     12086     12087     12084     12082     12086     12088
     12085     12084     12082     12086     12086     12069     12090     12091
     12086     12069     12090     12092     12086     12069     12090     12093
     12087     12086     12069     12090     12087     12086     12088     12089
     12088     12086     12069     12090     12091     12090     12093     12094
     12092     12090     12093     12094     12095     12099     12097     12098
     12095     12099     12097     12113     12095     12099     12097     12117
     12095     12100     12102     12103     12095     12100     12102     12104
     12095     12100     12110     12111     12095     12100     12110     12112
     12095     12100     12110     12113     12096     12095     12099     12097
     12096     12095     12100     12101     12096     12095     12100     12102
     12096     12095     12100     12110     12097     12099     12095     12100
     12097     12113     12110     12100     12097     12113     12110     12111
     12097     12113     12110     12112     12097     12113     12115     12116
     12097     12117     12120     12121     12098     12097     12113     12110
     12098     12097     12113     12114     12098     12097     12113     12115
     12098     12097     12117     12118     12098     12097     12117     12119
     12098     12097     12117     12120     12099     12095     12100     12101
     12099     12095     12100     12102     12099     12095     12100     12110
     12099     12097     12113     12110     12099     12097     12113     12114
     12099     12097     12113     12115     12099     12097     12117     12118
     12099     12097     12117     12119     12099     12097     12117     12120
     12100     12102     12104     12105     12100     12102     12104     12106
     12100     12110     12112     12122     12100     12110     12113     12114
     12100     12110     12113     12115     12101     12100     12102     12103
     12101     12100     12102     12104     12101     12100     12110     12111
     12101     12100     12110     12112     12101     12100     12110     12113
     12102     12100     12110     12111     12102     12100     12110     12112
     12102     12100     12110     12113     12102     12104     12106     12107
     12102     12104     12106     12108     12102     12104     12106     12109
     12103     12102     12100     12110     12103     12102     12104     12105
     12103     12102     12104     12106     12104     12102     12100     12110
     12105     12104     12106     12107     12105     12104     12106     12108
     12105     12104     12106     12109     12110     12112     12122     12123
     12110     12112     12122     12126     12110     12112     12122     12127
     12110     12113     12097     12117     12110     12113     12115     12116
     12111     12110     12112     12122     12111     12110     12113     12114
     12111     12110     12113     12115     12112     12110     12113     12114
     12112     12110     12113     12115     12112     12122     12126     12124
     12112     12122     12127     12128     12112     12122     12127     12129
     12112     12122     12127     12130     12113     12097     12117     12118
     12113     12097     12117     12119     12113     12097     12117     12120
     12113     12110     12112     12122     12114     12113     12097     12117
     12114     12113     12115     12116     12115     12113     12097     12117
     12118     12117     12120     12121     12119     12117     12120     12121
     12122     12126     12124     12125     12122     12126     12124     12134
     12122     12126     12124     12138     12122     12127     12129     12143
     12122     12127     12130     12131     12122     12127     12130     12132
     12122     12127     12130     12134     12123     12122     12126     12124
     12123     12122     12127     12128     12123     12122     12127     12129
     12123     12122     12127     12130     12124     12126     12122     12127
     12124     12134     12130     12127     12124     12134     12130     12131
     12124     12134     12130     12132     12124     12134     12136     12137
     12124     12138     12141     12142     12125     12124     12134     12130
     12125     12124     12134     12135     12125     12124     12134     12136
     12125     12124     12138     12139     12125     12124     12138     12140
     12125     12124     12138     12141     12126     12122     12127     12128
     12126     12122     12127     12129     12126     12122     12127     12130
     12126     12124     12134     12130     12126     12124     12134     12135
     12126     12124     12134     12136     12126     12124     12138     12139
     12126     12124     12138     12140     12126     12124     12138     12141
     12127     12129     12143     12144     12127     12129     12143     12147
     12127     12129     12143     12148     12127     12130     12132     12133
     12127     12130     12134     12135     12127     12130     12134     12136
     12128     12127     12129     12143     12128     12127     12130     12131
     12128     12127     12130     12132     12128     12127     12130     12134
     12129     12127     12130     12131     12129     12127     12130     12132
     12129     12127     12130     12134     12129     12143     12147     12145
     12129     12143     12148     12149     12129     12143     12148     12150
     12129     12143     12148     12151     12130     12127     12129     12143
     12130     12134     12124     12138     12130     12134     12136     12137
     12131     12130     12132     12133     12131     12130     12134     12135
     12131     12130     12134     12136     12132     12130     12134     12135
     12132     12130     12134     12136     12133     12132     12130     12134
     12134     12124     12138     12139     12134     12124     12138     12140
     12134     12124     12138     12141     12135     12134     12124     12138
     12135     12134     12136     12137     12136     12134     12124     12138
     12139     12138     12141     12142     12140     12138     12141     12142
     12143     12147     12145     12146     12143     12147     12145     12155
     12143     12147     12145     12159     12143     12148     12150     12163
     12143     12148     12151     12152     12143     12148     12151     12153
     12143     12148     12151     12155     12144     12143     12147     12145
     12144     12143     12148     12149     12144     12143     12148     12150
     12144     12143     12148     12151     12145     12147     12143     12148
     12145     12155     12151     12148     12145     12155     12151     12152
     12145     12155     12151     12153     12145     12155     12157     12158
     12146     12145     12155     12151     12146     12145     12155     12156
     12146     12145     12155     12157     12146     12145     12159     12160
     12146     12145     12159     12161     12146     12145     12159     12162
     12147     12143     12148     12149     12147     12143     12148     12150
     12147     12143     12148     12151     12147     12145     12155     12151
     12147     12145     12155     12156     12147     12145     12155     12157
     12147     12145     12159     12160     12147     12145     12159     12161
     12147     12145     12159     12162     12148     12150     12163     12164
     12148     12150     12163     12167     12148     12150     12163     12168
     12148     12151     12153     12154     12148     12151     12155     12156
     12148     12151     12155     12157     12149     12148     12150     12163
     12149     12148     12151     12152     12149     12148     12151     12153
     12149     12148     12151     12155     12150     12148     12151     12152
     12150     12148     12151     12153     12150     12148     12151     12155
     12150     12163     12167     12165     12150     12163     12168     12169
     12150     12163     12168     12170     12150     12163     12168     12171
     12151     12148     12150     12163     12151     12155     12145     12159
     12151     12155     12157     12158     12152     12151     12153     12154
     12152     12151     12155     12156     12152     12151     12155     12157
     12153     12151     12155     12156     12153     12151     12155     12157
     12154     12153     12151     12155     12155     12145     12159     12160
     12155     12145     12159     12161     12155     12145     12159     12162
     12156     12155     12145     12159     12156     12155     12157     12158
     12157     12155     12145     12159     12163     12167     12165     12166
     12163     12167     12165     12175     12163     12167     12165     12179
     12163     12168     12170     12183     12163     12168     12171     12172
     12163     12168     12171     12173     12163     12168     12171     12175
     12164     12163     12167     12165     12164     12163     12168     12169
     12164     12163     12168     12170     12164     12163     12168     12171
     12165     12167     12163     12168     12165     12175     12171     12168
     12165     12175     12171     12172     12165     12175     12171     12173
     12165     12175     12177     12178     12166     12165     12175     12171
     12166     12165     12175     12176     12166     12165     12175     12177
     12166     12165     12179     12180     12166     12165     12179     12181
     12166     12165     12179     12182     12167     12163     12168     12169
     12167     12163     12168     12170     12167     12163     12168     12171
     12167     12165     12175     12171     12167     12165     12175     12176
     12167     12165     12175     12177     12167     12165     12179     12180
     12167     12165     12179     12181     12167     12165     12179     12182
     12168     12170     12183     12184     12168     12170     12183     12187
     12168     12170     12183     12188     12168     12171     12173     12174
     12168     12171     12175     12176     12168     12171     12175     12177
     12169     12168     12170     12183     12169     12168     12171     12172
     12169     12168     12171     12173     12169     12168     12171     12175
     12170     12168     12171     12172     12170     12168     12171     12173
     12170     12168     12171     12175     12170     12183     12187     12185
     12170     12183     12188     12189     12170     12183     12188     12190
     12170     12183     12188     12198     12171     12168     12170     12183
     12171     12175     12165     12179     12171     12175     12177     12178
     12172     12171     12173     12174     12172     12171     12175     12176
     12172     12171     12175     12177     12173     12171     12175     12176
     12173     12171     12175     12177     12174     12173     12171     12175
     12175     12165     12179     12180     12175     12165     12179     12181
     12175     12165     12179     12182     12176     12175     12165     12179
     12176     12175     12177     12178     12177     12175     12165     12179
     12183     12187     12185     12186     12183     12187     12185     12202
     12183     12187     12185     12206     12183     12188     12190     12191
     12183     12188     12190     12192     12183     12188     12198     12199
     12183     12188     12198     12200     12183     12188     12198     12202
     12184     12183     12187     12185     12184     12183     12188     12189
     12184     12183     12188     12190     12184     12183     12188     12198
     12185     12187     12183     12188     12185     12202     12198     12188
     12185     12202     12198     12199     12185     12202     12198     12200
     12185     12202     12204     12205     12185     12206     12209     12210
     12186     12185     12202     12198     12186     12185     12202     12203
     12186     12185     12202     12204     12186     12185     12206     12207
     12186     12185     12206     12208     12186     12185     12206     12209
     12187     12183     12188     12189     12187     12183     12188     12190
     12187     12183     12188     12198     12187     12185     12202     12198
     12187     12185     12202     12203     12187     12185     12202     12204
     12187     12185     12206     12207     12187     12185     12206     12208
     12187     12185     12206     12209     12188     12190     12192     12193
     12188     12190     12192     12194     12188     12198     12200     12201
     12188     12198     12202     12203     12188     12198     12202     12204
     12189     12188     12190     12191     12189     12188     12190     12192
     12189     12188     12198     12199     12189     12188     12198     12200
     12189     12188     12198     12202     12190     12188     12198     12199
     12190     12188     12198     12200     12190     12188     12198     12202
     12190     12192     12194     12195     12190     12192     12194     12196
     12190     12192     12194     12197     12191     12190     12188     12198
     12191     12190     12192     12193     12191     12190     12192     12194
     12192     12190     12188     12198     12193     12192     12194     12195
     12193     12192     12194     12196     12193     12192     12194     12197
     12198     12202     12185     12206     12198     12202     12204     12205
     12199     12198     12200     12201     12199     12198     12202     12203
     12199     12198     12202     12204     12200     12198     12202     12203
     12200     12198     12202     12204     12201     12200     12198     12202
     12202     12185     12206     12207     12202     12185     12206     12208
     12202     12185     12206     12209     12203     12202     12185     12206
     12203     12202     12204     12205     12204     12202     12185     12206
     12207     12206     12209     12210     12208     12206     12209     12210
     12211     12213     12212     12510     12211     12213     12215     12216
     12211     12213     12215     12217     12211     12213     12215     12224
     12212     12213     12215     12216     12212     12213     12215     12217
     12212     12213     12215     12224     12212     12510     12507     12508
     12212     12510     12507     12509     12212     12510     12513     12511
     12212     12510     12514     12515     12212     12510     12514     12516
     12212     12510     12514     12517     12213     12212     12510     12507
     12213     12212     12510     12513     12213     12212     12510     12514
     12213     12215     12216     12218     12213     12215     12224     12225
     12213     12215     12224     12226     12213     12215     12224     12231
     12214     12213     12212     12510     12214     12213     12215     12216
     12214     12213     12215     12217     12214     12213     12215     12224
     12215     12213     12212     12510     12215     12216     12218     12219
     12215     12216     12218     12220     12215     12216     12218     12239
     12215     12224     12226     12227     12215     12224     12231     12232
     12215     12224     12231     12233     12215     12224     12231     12239
     12216     12215     12224     12225     12216     12215     12224     12226
     12216     12215     12224     12231     12216     12218     12220     12221
     12216     12218     12239     12231     12216     12218     12239     12240
     12216     12218     12239     12241     12217     12215     12216     12218
     12217     12215     12224     12225     12217     12215     12224     12226
     12217     12215     12224     12231     12218     12216     12215     12224
     12218     12220     12221     12222     12218     12220     12221     12223
     12218     12220     12221     12247     12218     12239     12231     12224
     12218     12239     12231     12232     12218     12239     12231     12233
     12218     12239     12241     12242     12218     12239     12241     12348
     12219     12218     12220     12221     12219     12218     12239     12231
     12219     12218     12239     12240     12219     12218     12239     12241
     12220     12218     12239     12231     12220     12218     12239     12240
     12220     12218     12239     12241     12220     12221     12247     12243
     12220     12221     12247     12248     12220     12221     12247     12249
     12221     12220     12218     12239     12221     12247     12243     12244
     12221     12247     12243     12245     12221     12247     12243     12257
     12221     12247     12249     12250     12222     12221     12247     12243
     12222     12221     12247     12248     12222     12221     12247     12249
     12223     12221     12247     12243     12223     12221     12247     12248
     12223     12221     12247     12249     12224     12226     12227     12228
     12224     12226     12227     12229     12224     12226     12227     12230
     12224     12231     12232     12234     12224     12231     12239     12240
     12224     12231     12239     12241     12225     12224     12226     12227
     12225     12224     12231     12232     12225     12224     12231     12233
     12225     12224     12231     12239     12226     12224     12231     12232
     12226     12224     12231     12233     12226     12224     12231     12239
     12227     12226     12224     12231     12231     12232     12234     12235
     12231     12232     12234     12236     12231     12239     12241     12242
     12231     12239     12241     12348     12232     12231     12239     12240
     12232     12231     12239     12241     12232     12234     12236     12237
     12232     12234     12236     12238     12232     12234     12236     12269
     12233     12231     12232     12234     12233     12231     12239     12240
     12233     12231     12239     12241     12234     12232     12231     12239
     12234     12236     12269     12270     12234     12236     12269     12271
     12234     12236     12269     12314     12235     12234     12236     12237
     12235     12234     12236     12238     12235     12234     12236     12269
     12236     12269     12271     12272     12236     12269     12314     12315
     12236     12269     12314     12316     12236     12269     12314     12317
     12237     12236     12269     12270     12237     12236     12269     12271
     12237     12236     12269     12314     12238     12236     12269     12270
     12238     12236     12269     12271     12238     12236     12269     12314
     12239     12241     12348     12349     12239     12241     12348     12350
     12240     12239     12241     12242     12240     12239     12241     12348
     12241     12348     12350     12351     12241     12348     12350     12352
     12241     12348     12350     12353     12242     12241     12348     12349
     12242     12241     12348     12350     12243     12247     12249     12250
     12243     12257     12259     12260     12243     12257     12265     12250
     12243     12257     12265     12266     12243     12257     12265     12267
     12244     12243     12245     12246     12244     12243     12247     12248
     12244     12243     12247     12249     12244     12243     12257     12258
     12244     12243     12257     12259     12244     12243     12257     12265
     12245     12243     12247     12248     12245     12243     12247     12249
     12245     12243     12257     12258     12245     12243     12257     12259
     12245     12243     12257     12265     12246     12245     12243     12247
     12246     12245     12243     12257     12247     12243     12257     12258
     12247     12243     12257     12259     12247     12243     12257     12265
     12247     12249     12250     12251     12247     12249     12250     12252
     12247     12249     12250     12265     12248     12247     12243     12257
     12248     12247     12249     12250     12249     12247     12243     12257
     12249     12250     12252     12256     12249     12250     12265     12257
     12249     12250     12265     12266     12249     12250     12265     12267
     12250     12252     12256     12253     12250     12252     12256     12254
     12250     12252     12256     12255     12250     12265     12257     12258
     12250     12265     12257     12259     12250     12265     12267     12268
     12250     12265     12267     12464     12251     12250     12252     12256
     12251     12250     12265     12257     12251     12250     12265     12266
     12251     12250     12265     12267     12252     12250     12265     12257
     12252     12250     12265     12266     12252     12250     12265     12267
     12256     12252     12250     12265     12257     12259     12260     12261
     12257     12259     12260     12262     12257     12265     12267     12268
     12257     12265     12267     12464     12258     12257     12259     12260
     12258     12257     12265     12266     12258     12257     12265     12267
     12259     12257     12265     12266     12259     12257     12265     12267
     12259     12260     12262     12263     12259     12260     12262     12264
     12259     12260     12262     12426     12260     12259     12257     12265
     12260     12262     12426     12427     12260     12262     12426     12428
     12260     12262     12426     12430     12261     12260     12262     12263
     12261     12260     12262     12264     12261     12260     12262     12426
     12262     12426     12428     12429     12262     12426     12430     12431
     12262     12426     12430     12432     12262     12426     12430     12433
     12263     12262     12426     12427     12263     12262     12426     12428
     12263     12262     12426     12430     12264     12262     12426     12427
     12264     12262     12426     12428     12264     12262     12426     12430
     12265     12267     12464     12465     12265     12267     12464     12466
     12266     12265     12267     12268     12266     12265     12267     12464
     12267     12464     12466     12467     12267     12464     12466     12468
     12267     12464     12466     12469     12268     12267     12464     12465
     12268     12267     12464     12466     12269     12271     12272     12273
     12269     12271     12272     12274     12269     12314     12317     12318
     12269     12314     12317     12319     12269     12314     12317     12320
     12270     12269     12271     12272     12270     12269     12314     12315
     12270     12269     12314     12316     12270     12269     12314     12317
     12271     12269     12314     12315     12271     12269     12314     12316
     12271     12269     12314     12317     12271     12272     12274     12275
     12271     12272     12274     12276     12271     12272     12274     12277
     12272     12271     12269     12314     12272     12274     12277     12278
     12272     12274     12277     12279     12272     12274     12277     12280
     12273     12272     12274     12275     12273     12272     12274     12276
     12273     12272     12274     12277     12274     12277     12280     12281
     12274     12277     12280     12282     12274     12277     12280     12283
     12275     12274     12277     12278     12275     12274     12277     12279
     12275     12274     12277     12280     12276     12274     12277     12278
     12276     12274     12277     12279     12276     12274     12277     12280
     12277     12280     12283     12284     12277     12280     12283     12285
     12277     12280     12283     12286     12278     12277     12280     12281
     12278     12277     12280     12282     12278     12277     12280     12283
     12279     12277     12280     12281     12279     12277     12280     12282
     12279     12277     12280     12283     12280     12283     12286     12287
     12280     12283     12286     12288     12280     12283     12286     12289
     12281     12280     12283     12284     12281     12280     12283     12285
     12281     12280     12283     12286     12282     12280     12283     12284
     12282     12280     12283     12285     12282     12280     12283     12286
     12283     12286     12289     12290     12283     12286     12289     12291
     12283     12286     12289     12292     12284     12283     12286     12287
     12284     12283     12286     12288     12284     12283     12286     12289
     12285     12283     12286     12287     12285     12283     12286     12288
     12285     12283     12286     12289     12286     12289     12292     12293
     12286     12289     12292     12294     12286     12289     12292     12295
     12287     12286     12289     12290     12287     12286     12289     12291
     12287     12286     12289     12292     12288     12286     12289     12290
     12288     12286     12289     12291     12288     12286     12289     12292
     12289     12292     12295     12296     12289     12292     12295     12297
     12289     12292     12295     12298     12290     12289     12292     12293
     12290     12289     12292     12294     12290     12289     12292     12295
     12291     12289     12292     12293     12291     12289     12292     12294
     12291     12289     12292     12295     12292     12295     12298     12299
     12292     12295     12298     12300     12292     12295     12298     12301
     12293     12292     12295     12296     12293     12292     12295     12297
     12293     12292     12295     12298     12294     12292     12295     12296
     12294     12292     12295     12297     12294     12292     12295     12298
     12295     12298     12301     12302     12295     12298     12301     12303
     12295     12298     12301     12304     12296     12295     12298     12299
     12296     12295     12298     12300     12296     12295     12298     12301
     12297     12295     12298     12299     12297     12295     12298     12300
     12297     12295     12298     12301     12298     12301     12304     12305
     12298     12301     12304     12306     12298     12301     12304     12307
     12299     12298     12301     12302     12299     12298     12301     12303
     12299     12298     12301     12304     12300     12298     12301     12302
     12300     12298     12301     12303     12300     12298     12301     12304
     12301     12304     12307     12308     12301     12304     12307     12309
     12301     12304     12307     12310     12302     12301     12304     12305
     12302     12301     12304     12306     12302     12301     12304     12307
     12303     12301     12304     12305     12303     12301     12304     12306
     12303     12301     12304     12307     12304     12307     12310     12311
     12304     12307     12310     12312     12304     12307     12310     12313
     12305     12304     12307     12308     12305     12304     12307     12309
     12305     12304     12307     12310     12306     12304     12307     12308
     12306     12304     12307     12309     12306     12304     12307     12310
     12308     12307     12310     12311     12308     12307     12310     12312
     12308     12307     12310     12313     12309     12307     12310     12311
     12309     12307     12310     12312     12309     12307     12310     12313
     12314     12317     12320     12321     12314     12317     12320     12322
     12314     12317     12320     12323     12315     12314     12317     12318
     12315     12314     12317     12319     12315     12314     12317     12320
     12316     12314     12317     12318     12316     12314     12317     12319
     12316     12314     12317     12320     12317     12320     12323     12324
     12317     12320     12323     12325     12317     12320     12323     12326
     12318     12317     12320     12321     12318     12317     12320     12322
     12318     12317     12320     12323     12319     12317     12320     12321
     12319     12317     12320     12322     12319     12317     12320     12323
     12320     12323     12326     12327     12320     12323     12326     12328
     12320     12323     12326     12329     12321     12320     12323     12324
     12321     12320     12323     12325     12321     12320     12323     12326
     12322     12320     12323     12324     12322     12320     12323     12325
     12322     12320     12323     12326     12323     12326     12329     12330
     12323     12326     12329     12331     12323     12326     12329     12332
     12324     12323     12326     12327     12324     12323     12326     12328
     12324     12323     12326     12329     12325     12323     12326     12327
     12325     12323     12326     12328     12325     12323     12326     12329
     12326     12329     12332     12333     12326     12329     12332     12334
     12326     12329     12332     12335     12327     12326     12329     12330
     12327     12326     12329     12331     12327     12326     12329     12332
     12328     12326     12329     12330     12328     12326     12329     12331
     12328     12326     12329     12332     12329     12332     12335     12336
     12329     12332     12335     12337     12329     12332     12335     12338
     12330     12329     12332     12333     12330     12329     12332     12334
     12330     12329     12332     12335     12331     12329     12332     12333
     12331     12329     12332     12334     12331     12329     12332     12335
     12332     12335     12338     12339     12332     12335     12338     12340
     12332     12335     12338     12341     12333     12332     12335     12336
     12333     12332     12335     12337     12333     12332     12335     12338
     12334     12332     12335     12336     12334     12332     12335     12337
     12334     12332     12335     12338     12335     12338     12341     12342
     12335     12338     12341     12343     12335     12338     12341     12344
     12336     12335     12338     12339     12336     12335     12338     12340
     12336     12335     12338     12341     12337     12335     12338     12339
     12337     12335     12338     12340     12337     12335     12338     12341
     12338     12341     12344     12345     12338     12341     12344     12346
     12338     12341     12344     12347     12339     12338     12341     12342
     12339     12338     12341     12343     12339     12338     12341     12344
     12340     12338     12341     12342     12340     12338     12341     12343
     12340     12338     12341     12344     12342     12341     12344     12345
     12342     12341     12344     12346     12342     12341     12344     12347
     12343     12341     12344     12345     12343     12341     12344     12346
     12343     12341     12344     12347     12348     12350     12353     12354
     12348     12350     12353     12355     12348     12350     12353     12392
     12349     12348     12350     12351     12349     12348     12350     12352
     12349     12348     12350     12353     12350     12353     12355     12356
     12350     12353     12392     12393     12350     12353     12392     12394
     12350     12353     12392     12395     12351     12350     12353     12354
     12351     12350     12353     12355     12351     12350     12353     12392
     12352     12350     12353     12354     12352     12350     12353     12355
     12352     12350     12353     12392     12353     12355     12356     12357
     12353     12355     12356     12358     12353     12392     12395     12396
     12353     12392     12395     12397     12353     12392     12395     12398
     12354     12353     12355     12356     12354     12353     12392     12393
     12354     12353     12392     12394     12354     12353     12392     12395
     12355     12353     12392     12393     12355     12353     12392     12394
     12355     12353     12392     12395     12355     12356     12358     12359
     12355     12356     12358     12360     12355     12356     12358     12361
     12356     12355     12353     12392     12356     12358     12361     12362
     12356     12358     12361     12363     12356     12358     12361     12364
     12357     12356     12358     12359     12357     12356     12358     12360
     12357     12356     12358     12361     12358     12361     12364     12365
     12358     12361     12364     12366     12358     12361     12364     12367
     12359     12358     12361     12362     12359     12358     12361     12363
     12359     12358     12361     12364     12360     12358     12361     12362
     12360     12358     12361     12363     12360     12358     12361     12364
     12361     12364     12367     12368     12361     12364     12367     12369
     12361     12364     12367     12370     12362     12361     12364     12365
     12362     12361     12364     12366     12362     12361     12364     12367
     12363     12361     12364     12365     12363     12361     12364     12366
     12363     12361     12364     12367     12364     12367     12370     12371
     12364     12367     12370     12372     12364     12367     12370     12373
     12365     12364     12367     12368     12365     12364     12367     12369
     12365     12364     12367     12370     12366     12364     12367     12368
     12366     12364     12367     12369     12366     12364     12367     12370
     12367     12370     12373     12374     12367     12370     12373     12375
     12367     12370     12373     12376     12368     12367     12370     12371
     12368     12367     12370     12372     12368     12367     12370     12373
     12369     12367     12370     12371     12369     12367     12370     12372
     12369     12367     12370     12373     12370     12373     12376     12377
     12370     12373     12376     12378     12370     12373     12376     12379
     12371     12370     12373     12374     12371     12370     12373     12375
     12371     12370     12373     12376     12372     12370     12373     12374
     12372     12370     12373     12375     12372     12370     12373     12376
     12373     12376     12379     12380     12373     12376     12379     12381
     12373     12376     12379     12382     12374     12373     12376     12377
     12374     12373     12376     12378     12374     12373     12376     12379
     12375     12373     12376     12377     12375     12373     12376     12378
     12375     12373     12376     12379     12376     12379     12382     12383
     12376     12379     12382     12384     12376     12379     12382     12385
     12377     12376     12379     12380     12377     12376     12379     12381
     12377     12376     12379     12382     12378     12376     12379     12380
     12378     12376     12379     12381     12378     12376     12379     12382
     12379     12382     12385     12386     12379     12382     12385     12387
     12379     12382     12385     12388     12380     12379     12382     12383
     12380     12379     12382     12384     12380     12379     12382     12385
     12381     12379     12382     12383     12381     12379     12382     12384
     12381     12379     12382     12385     12382     12385     12388     12389
     12382     12385     12388     12390     12382     12385     12388     12391
     12383     12382     12385     12386     12383     12382     12385     12387
     12383     12382     12385     12388     12384     12382     12385     12386
     12384     12382     12385     12387     12384     12382     12385     12388
     12386     12385     12388     12389     12386     12385     12388     12390
     12386     12385     12388     12391     12387     12385     12388     12389
     12387     12385     12388     12390     12387     12385     12388     12391
     12392     12395     12398     12399     12392     12395     12398     12400
     12392     12395     12398     12401     12393     12392     12395     12396
     12393     12392     12395     12397     12393     12392     12395     12398
     12394     12392     12395     12396     12394     12392     12395     12397
     12394     12392     12395     12398     12395     12398     12401     12402
     12395     12398     12401     12403     12395     12398     12401     12404
     12396     12395     12398     12399     12396     12395     12398     12400
     12396     12395     12398     12401     12397     12395     12398     12399
     12397     12395     12398     12400     12397     12395     12398     12401
     12398     12401     12404     12405     12398     12401     12404     12406
     12398     12401     12404     12407     12399     12398     12401     12402
     12399     12398     12401     12403     12399     12398     12401     12404
     12400     12398     12401     12402     12400     12398     12401     12403
     12400     12398     12401     12404     12401     12404     12407     12408
     12401     12404     12407     12409     12401     12404     12407     12410
     12402     12401     12404     12405     12402     12401     12404     12406
     12402     12401     12404     12407     12403     12401     12404     12405
     12403     12401     12404     12406     12403     12401     12404     12407
     12404     12407     12410     12411     12404     12407     12410     12412
     12404     12407     12410     12413     12405     12404     12407     12408
     12405     12404     12407     12409     12405     12404     12407     12410
     12406     12404     12407     12408     12406     12404     12407     12409
     12406     12404     12407     12410     12407     12410     12413     12414
     12407     12410     12413     12415     12407     12410     12413     12416
     12408     12407     12410     12411     12408     12407     12410     12412
     12408     12407     12410     12413     12409     12407     12410     12411
     12409     12407     12410     12412     12409     12407     12410     12413
     12410     12413     12416     12417     12410     12413     12416     12418
     12410     12413     12416     12419     12411     12410     12413     12414
     12411     12410     12413     12415     12411     12410     12413     12416
     12412     12410     12413     12414     12412     12410     12413     12415
     12412     12410     12413     12416     12413     12416     12419     12420
     12413     12416     12419     12421     12413     12416     12419     12422
     12414     12413     12416     12417     12414     12413     12416     12418
     12414     12413     12416     12419     12415     12413     12416     12417
     12415     12413     12416     12418     12415     12413     12416     12419
     12416     12419     12422     12423     12416     12419     12422     12424
     12416     12419     12422     12425     12417     12416     12419     12420
     12417     12416     12419     12421     12417     12416     12419     12422
     12418     12416     12419     12420     12418     12416     12419     12421
     12418     12416     12419     12422     12420     12419     12422     12423
     12420     12419     12422     12424     12420     12419     12422     12425
     12421     12419     12422     12423     12421     12419     12422     12424
     12421     12419     12422     12425     12426     12430     12433     12434
     12426     12430     12433     12435     12426     12430     12433     12436
     12427     12426     12428     12429     12427     12426     12430     12431
     12427     12426     12430     12432     12427     12426     12430     12433
     12428     12426     12430     12431     12428     12426     12430     12432
     12428     12426     12430     12433     12429     12428     12426     12430
     12430     12433     12436     12437     12430     12433     12436     12438
     12430     12433     12436     12439     12431     12430     12433     12434
     12431     12430     12433     12435     12431     12430     12433     12436
     12432     12430     12433     12434     12432     12430     12433     12435
     12432     12430     12433     12436     12433     12436     12439     12440
     12433     12436     12439     12441     12433     12436     12439     12442
     12434     12433     12436     12437     12434     12433     12436     12438
     12434     12433     12436     12439     12435     12433     12436     12437
     12435     12433     12436     12438     12435     12433     12436     12439
     12436     12439     12442     12443     12436     12439     12442     12444
     12436     12439     12442     12445     12437     12436     12439     12440
     12437     12436     12439     12441     12437     12436     12439     12442
     12438     12436     12439     12440     12438     12436     12439     12441
     12438     12436     12439     12442     12439     12442     12445     12446
     12439     12442     12445     12447     12439     12442     12445     12448
     12440     12439     12442     12443     12440     12439     12442     12444
     12440     12439     12442     12445     12441     12439     12442     12443
     12441     12439     12442     12444     12441     12439     12442     12445
     12442     12445     12448     12449     12442     12445     12448     12450
     12442     12445     12448     12451     12443     12442     12445     12446
     12443     12442     12445     12447     12443     12442     12445     12448
     12444     12442     12445     12446     12444     12442     12445     12447
     12444     12442     12445     12448     12445     12448     12451     12452
     12445     12448     12451     12453     12445     12448     12451     12454
     12446     12445     12448     12449     12446     12445     12448     12450
     12446     12445     12448     12451     12447     12445     12448     12449
     12447     12445     12448     12450     12447     12445     12448     12451
     12448     12451     12454     12455     12448     12451     12454     12456
     12448     12451     12454     12457     12449     12448     12451     12452
     12449     12448     12451     12453     12449     12448     12451     12454
     12450     12448     12451     12452     12450     12448     12451     12453
     12450     12448     12451     12454     12451     12454     12457     12458
     12451     12454     12457     12459     12451     12454     12457     12460
     12452     12451     12454     12455     12452     12451     12454     12456
     12452     12451     12454     12457     12453     12451     12454     12455
     12453     12451     12454     12456     12453     12451     12454     12457
     12454     12457     12460     12461     12454     12457     12460     12462
     12454     12457     12460     12463     12455     12454     12457     12458
     12455     12454     12457     12459     12455     12454     12457     12460
     12456     12454     12457     12458     12456     12454     12457     12459
     12456     12454     12457     12460     12458     12457     12460     12461
     12458     12457     12460     12462     12458     12457     12460     12463
     12459     12457     12460     12461     12459     12457     12460     12462
     12459     12457     12460     12463     12464     12466     12469     12470
     12464     12466     12469     12471     12464     12466     12469     12473
     12465     12464     12466     12467     12465     12464     12466     12468
     12465     12464     12466     12469     12466     12469     12471     12472
     12466     12469     12473     12474     12466     12469     12473     12475
     12466     12469     12473     12476     12467     12466     12469     12470
     12467     12466     12469     12471     12467     12466     12469     12473
     12468     12466     12469     12470     12468     12466     12469     12471
     12468     12466     12469     12473     12469     12473     12476     12477
     12469     12473     12476     12478     12469     12473     12476     12479
     12470     12469     12471     12472     12470     12469     12473     12474
     12470     12469     12473     12475     12470     12469     12473     12476
     12471     12469     12473     12474     12471     12469     12473     12475
     12471     12469     12473     12476     12472     12471     12469     12473
     12473     12476     12479     12480     12473     12476     12479     12481
     12473     12476     12479     12482     12474     12473     12476     12477
     12474     12473     12476     12478     12474     12473     12476     12479
     12475     12473     12476     12477     12475     12473     12476     12478
     12475     12473     12476     12479     12476     12479     12482     12483
     12476     12479     12482     12484     12476     12479     12482     12485
     12477     12476     12479     12480     12477     12476     12479     12481
     12477     12476     12479     12482     12478     12476     12479     12480
     12478     12476     12479     12481     12478     12476     12479     12482
     12479     12482     12485     12486     12479     12482     12485     12487
     12479     12482     12485     12488     12480     12479     12482     12483
     12480     12479     12482     12484     12480     12479     12482     12485
     12481     12479     12482     12483     12481     12479     12482     12484
     12481     12479     12482     12485     12482     12485     12488     12489
     12482     12485     12488     12490     12482     12485     12488     12491
     12483     12482     12485     12486     12483     12482     12485     12487
     12483     12482     12485     12488     12484     12482     12485     12486
     12484     12482     12485     12487     12484     12482     12485     12488
     12485     12488     12491     12492     12485     12488     12491     12493
     12485     12488     12491     12494     12486     12485     12488     12489
     12486     12485     12488     12490     12486     12485     12488     12491
     12487     12485     12488     12489     12487     12485     12488     12490
     12487     12485     12488     12491     12488     12491     12494     12495
     12488     12491     12494     12496     12488     12491     12494     12497
     12489     12488     12491     12492     12489     12488     12491     12493
     12489     12488     12491     12494     12490     12488     12491     12492
     12490     12488     12491     12493     12490     12488     12491     12494
     12491     12494     12497     12498     12491     12494     12497     12499
     12491     12494     12497     12500     12492     12491     12494     12495
     12492     12491     12494     12496     12492     12491     12494     12497
     12493     12491     12494     12495     12493     12491     12494     12496
     12493     12491     12494     12497     12494     12497     12500     12501
     12494     12497     12500     12502     12494     12497     12500     12503
     12495     12494     12497     12498     12495     12494     12497     12499
     12495     12494     12497     12500     12496     12494     12497     12498
     12496     12494     12497     12499     12496     12494     12497     12500
     12497     12500     12503     12504     12497     12500     12503     12505
     12497     12500     12503     12506     12498     12497     12500     12501
     12498     12497     12500     12502     12498     12497     12500     12503
     12499     12497     12500     12501     12499     12497     12500     12502
     12499     12497     12500     12503     12501     12500     12503     12504
     12501     12500     12503     12505     12501     12500     12503     12506
     12502     12500     12503     12504     12502     12500     12503     12505
     12502     12500     12503     12506     12507     12510     12513     12511
     12507     12510     12514     12515     12507     12510     12514     12516
     12507     12510     12514     12517     12508     12507     12510     12513
     12508     12507     12510     12514     12509     12507     12510     12513
     12509     12507     12510     12514     12510     12513     12511     12512
     12510     12513     12511     12520     12510     12513     12511     12523
     12510     12514     12517     12518     12510     12514     12517     12519
     12510     12514     12517     12520     12511     12513     12510     12514
     12511     12520     12517     12514     12511     12520     12517     12518
     12511     12520     12517     12519     12511     12520     12522     12559
     12511     12523     12525     12526     12511     12523     12527     12528
     12511     12523     12527     12529     12511     12523     12527     12530
     12512     12511     12520     12517     12512     12511     12520     12521
     12512     12511     12520     12522     12512     12511     12523     12524
     12512     12511     12523     12525     12512     12511     12523     12527
     12513     12510     12514     12515     12513     12510     12514     12516
     12513     12510     12514     12517     12513     12511     12520     12517
     12513     12511     12520     12521     12513     12511     12520     12522
     12513     12511     12523     12524     12513     12511     12523     12525
     12513     12511     12523     12527     12514     12517     12519     12535
     12514     12517     12520     12521     12514     12517     12520     12522
     12515     12514     12517     12518     12515     12514     12517     12519
     12515     12514     12517     12520     12516     12514     12517     12518
     12516     12514     12517     12519     12516     12514     12517     12520
     12517     12519     12535     12532     12517     12519     12535     12538
     12517     12519     12535     12539     12517     12520     12511     12523
     12517     12520     12522     12559     12518     12517     12519     12535
     12518     12517     12520     12521     12518     12517     12520     12522
     12519     12517     12520     12521     12519     12517     12520     12522
     12519     12535     12532     12533     12519     12535     12532     12534
     12519     12535     12538     12536     12519     12535     12539     12540
     12519     12535     12539     12541     12519     12535     12539     12542
     12520     12511     12523     12524     12520     12511     12523     12525
     12520     12511     12523     12527     12520     12517     12519     12535
     12520     12522     12559     12560     12520     12522     12559     12563
     12520     12522     12559     12564     12521     12520     12511     12523
     12521     12520     12522     12559     12522     12520     12511     12523
     12522     12559     12563     12561     12522     12559     12564     12565
     12522     12559     12564     12566     12522     12559     12564     12568
     12523     12527     12530     12531     12524     12523     12525     12526
     12524     12523     12527     12528     12524     12523     12527     12529
     12524     12523     12527     12530     12525     12523     12527     12528
     12525     12523     12527     12529     12525     12523     12527     12530
     12526     12525     12523     12527     12528     12527     12530     12531
     12529     12527     12530     12531     12532     12535     12538     12536
     12532     12535     12539     12540     12532     12535     12539     12541
     12532     12535     12539     12542     12533     12532     12535     12538
     12533     12532     12535     12539     12534     12532     12535     12538
     12534     12532     12535     12539     12535     12538     12536     12537
     12535     12538     12536     12546     12535     12538     12536     12550
     12535     12539     12542     12543     12535     12539     12542     12544
     12535     12539     12542     12546     12536     12538     12535     12539
     12536     12546     12542     12539     12536     12546     12542     12543
     12536     12546     12542     12544     12536     12546     12548     12549
     12536     12550     12552     12553     12536     12550     12554     12555
     12536     12550     12554     12556     12536     12550     12554     12557
     12537     12536     12546     12542     12537     12536     12546     12547
     12537     12536     12546     12548     12537     12536     12550     12551
     12537     12536     12550     12552     12537     12536     12550     12554
     12538     12535     12539     12540     12538     12535     12539     12541
     12538     12535     12539     12542     12538     12536     12546     12542
     12538     12536     12546     12547     12538     12536     12546     12548
     12538     12536     12550     12551     12538     12536     12550     12552
     12538     12536     12550     12554     12539     12542     12544     12545
     12539     12542     12546     12547     12539     12542     12546     12548
     12540     12539     12542     12543     12540     12539     12542     12544
     12540     12539     12542     12546     12541     12539     12542     12543
     12541     12539     12542     12544     12541     12539     12542     12546
     12542     12546     12536     12550     12542     12546     12548     12549
     12543     12542     12544     12545     12543     12542     12546     12547
     12543     12542     12546     12548     12544     12542     12546     12547
     12544     12542     12546     12548     12545     12544     12542     12546
     12546     12536     12550     12551     12546     12536     12550     12552
     12546     12536     12550     12554     12547     12546     12536     12550
     12547     12546     12548     12549     12548     12546     12536     12550
     12550     12554     12557     12558     12551     12550     12552     12553
     12551     12550     12554     12555     12551     12550     12554     12556
     12551     12550     12554     12557     12552     12550     12554     12555
     12552     12550     12554     12556     12552     12550     12554     12557
     12553     12552     12550     12554     12555     12554     12557     12558
     12556     12554     12557     12558     12559     12563     12561     12562
     12559     12563     12561     12571     12559     12563     12561     12578
     12559     12564     12566     12567     12559     12564     12568     12569
     12559     12564     12568     12570     12559     12564     12568     12571
     12560     12559     12563     12561     12560     12559     12564     12565
     12560     12559     12564     12566     12560     12559     12564     12568
     12561     12563     12559     12564     12561     12571     12568     12564
     12561     12571     12568     12569     12561     12571     12568     12570
     12561     12571     12573     12574     12561     12578     12580     12581
     12561     12578     12582     12583     12561     12578     12582     12584
     12561     12578     12582     12585     12562     12561     12571     12568
     12562     12561     12571     12572     12562     12561     12571     12573
     12562     12561     12578     12579     12562     12561     12578     12580
     12562     12561     12578     12582     12563     12559     12564     12565
     12563     12559     12564     12566     12563     12559     12564     12568
     12563     12561     12571     12568     12563     12561     12571     12572
     12563     12561     12571     12573     12563     12561     12578     12579
     12563     12561     12578     12580     12563     12561     12578     12582
     12564     12568     12570     12587     12564     12568     12571     12572
     12564     12568     12571     12573     12565     12564     12566     12567
     12565     12564     12568     12569     12565     12564     12568     12570
     12565     12564     12568     12571     12566     12564     12568     12569
     12566     12564     12568     12570     12566     12564     12568     12571
     12567     12566     12564     12568     12568     12570     12587     12588
     12568     12570     12587     12591     12568     12570     12587     12592
     12568     12571     12561     12578     12568     12571     12573     12574
     12569     12568     12570     12587     12569     12568     12571     12572
     12569     12568     12571     12573     12570     12568     12571     12572
     12570     12568     12571     12573     12570     12587     12591     12589
     12570     12587     12592     12593     12570     12587     12592     12594
     12570     12587     12592     12596     12571     12561     12578     12579
     12571     12561     12578     12580     12571     12561     12578     12582
     12571     12568     12570     12587     12571     12573     12574     12575
     12571     12573     12574     12576     12571     12573     12574     12577
     12572     12571     12561     12578     12572     12571     12573     12574
     12573     12571     12561     12578     12578     12582     12585     12586
     12579     12578     12580     12581     12579     12578     12582     12583
     12579     12578     12582     12584     12579     12578     12582     12585
     12580     12578     12582     12583     12580     12578     12582     12584
     12580     12578     12582     12585     12581     12580     12578     12582
     12583     12582     12585     12586     12584     12582     12585     12586
     12587     12591     12589     12590     12587     12591     12589     12599
     12587     12591     12589     12606     12587     12592     12594     12595
     12587     12592     12596     12597     12587     12592     12596     12598
     12587     12592     12596     12599     12588     12587     12591     12589
     12588     12587     12592     12593     12588     12587     12592     12594
     12588     12587     12592     12596     12589     12591     12587     12592
     12589     12599     12596     12592     12589     12599     12596     12597
     12589     12599     12596     12598     12589     12599     12601     12602
     12589     12606     12608     12609     12589     12606     12610     12611
     12589     12606     12610     12612     12589     12606     12610     12613
     12590     12589     12599     12596     12590     12589     12599     12600
     12590     12589     12599     12601     12590     12589     12606     12607
     12590     12589     12606     12608     12590     12589     12606     12610
     12591     12587     12592     12593     12591     12587     12592     12594
     12591     12587     12592     12596     12591     12589     12599     12596
     12591     12589     12599     12600     12591     12589     12599     12601
     12591     12589     12606     12607     12591     12589     12606     12608
     12591     12589     12606     12610     12592     12596     12598     12640
     12592     12596     12599     12600     12592     12596     12599     12601
     12593     12592     12594     12595     12593     12592     12596     12597
     12593     12592     12596     12598     12593     12592     12596     12599
     12594     12592     12596     12597     12594     12592     12596     12598
     12594     12592     12596     12599     12595     12594     12592     12596
     12596     12598     12640     12641     12596     12598     12640     12644
     12596     12598     12640     12645     12596     12599     12589     12606
     12596     12599     12601     12602     12597     12596     12598     12640
     12597     12596     12599     12600     12597     12596     12599     12601
     12598     12596     12599     12600     12598     12596     12599     12601
     12598     12640     12644     12642     12598     12640     12645     12646
     12598     12640     12645     12647     12598     12640     12645     12649
     12599     12589     12606     12607     12599     12589     12606     12608
     12599     12589     12606     12610     12599     12596     12598     12640
     12599     12601     12602     12603     12599     12601     12602     12604
     12599     12601     12602     12605     12600     12599     12589     12606
     12600     12599     12601     12602     12601     12599     12589     12606
     12606     12610     12613     12614     12607     12606     12608     12609
     12607     12606     12610     12611     12607     12606     12610     12612
     12607     12606     12610     12613     12608     12606     12610     12611
     12608     12606     12610     12612     12608     12606     12610     12613
     12609     12608     12606     12610     12610     12613     12614     12615
     12610     12613     12614     12618     12610     12613     12614     12619
     12611     12610     12613     12614     12612     12610     12613     12614
     12613     12614     12618     12616     12613     12614     12619     12620
     12613     12614     12619     12621     12613     12614     12619     12623
     12614     12618     12616     12617     12614     12618     12616     12627
     12614     12618     12616     12631     12614     12619     12621     12622
     12614     12619     12623     12624     12614     12619     12623     12625
     12614     12619     12623     12627     12615     12614     12618     12616
     12615     12614     12619     12620     12615     12614     12619     12621
     12615     12614     12619     12623     12616     12618     12614     12619
     12616     12627     12623     12619     12616     12627     12623     12624
     12616     12627     12623     12625     12616     12627     12629     12630
     12616     12631     12633     12634     12616     12631     12635     12636
     12616     12631     12635     12637     12616     12631     12635     12638
     12617     12616     12627     12623     12617     12616     12627     12628
     12617     12616     12627     12629     12617     12616     12631     12632
     12617     12616     12631     12633     12617     12616     12631     12635
     12618     12614     12619     12620     12618     12614     12619     12621
     12618     12614     12619     12623     12618     12616     12627     12623
     12618     12616     12627     12628     12618     12616     12627     12629
     12618     12616     12631     12632     12618     12616     12631     12633
     12618     12616     12631     12635     12619     12623     12625     12626
     12619     12623     12627     12628     12619     12623     12627     12629
     12620     12619     12621     12622     12620     12619     12623     12624
     12620     12619     12623     12625     12620     12619     12623     12627
     12621     12619     12623     12624     12621     12619     12623     12625
     12621     12619     12623     12627     12622     12621     12619     12623
     12623     12627     12616     12631     12623     12627     12629     12630
     12624     12623     12625     12626     12624     12623     12627     12628
     12624     12623     12627     12629     12625     12623     12627     12628
     12625     12623     12627     12629     12626     12625     12623     12627
     12627     12616     12631     12632     12627     12616     12631     12633
     12627     12616     12631     12635     12628     12627     12616     12631
     12628     12627     12629     12630     12629     12627     12616     12631
     12631     12635     12638     12639     12632     12631     12633     12634
     12632     12631     12635     12636     12632     12631     12635     12637
     12632     12631     12635     12638     12633     12631     12635     12636
     12633     12631     12635     12637     12633     12631     12635     12638
     12634     12633     12631     12635     12636     12635     12638     12639
     12637     12635     12638     12639     12640     12644     12642     12643
     12640     12644     12642     12652     12640     12644     12642     12656
     12640     12645     12647     12648     12640     12645     12649     12650
     12640     12645     12649     12651     12640     12645     12649     12652
     12641     12640     12644     12642     12641     12640     12645     12646
     12641     12640     12645     12647     12641     12640     12645     12649
     12642     12644     12640     12645     12642     12652     12649     12645
     12642     12652     12649     12650     12642     12652     12649     12651
     12642     12652     12654     12655     12642     12656     12659     12660
     12643     12642     12652     12649     12643     12642     12652     12653
     12643     12642     12652     12654     12643     12642     12656     12657
     12643     12642     12656     12658     12643     12642     12656     12659
     12644     12640     12645     12646     12644     12640     12645     12647
     12644     12640     12645     12649     12644     12642     12652     12649
     12644     12642     12652     12653     12644     12642     12652     12654
     12644     12642     12656     12657     12644     12642     12656     12658
     12644     12642     12656     12659     12645     12649     12651     12661
     12645     12649     12652     12653     12645     12649     12652     12654
     12646     12645     12647     12648     12646     12645     12649     12650
     12646     12645     12649     12651     12646     12645     12649     12652
     12647     12645     12649     12650     12647     12645     12649     12651
     12647     12645     12649     12652     12648     12647     12645     12649
     12649     12651     12661     12662     12649     12651     12661     12665
     12649     12651     12661     12666     12649     12652     12642     12656
     12649     12652     12654     12655     12650     12649     12651     12661
     12650     12649     12652     12653     12650     12649     12652     12654
     12651     12649     12652     12653     12651     12649     12652     12654
     12651     12661     12665     12663     12651     12661     12666     12667
     12651     12661     12666     12668     12651     12661     12666     12669
     12652     12642     12656     12657     12652     12642     12656     12658
     12652     12642     12656     12659     12652     12649     12651     12661
     12653     12652     12642     12656     12653     12652     12654     12655
     12654     12652     12642     12656     12657     12656     12659     12660
     12658     12656     12659     12660     12661     12665     12663     12664
     12661     12665     12663     12672     12661     12665     12663     12676
     12661     12666     12668     12681     12661     12666     12669     12670
     12661     12666     12669     12671     12661     12666     12669     12672
     12662     12661     12665     12663     12662     12661     12666     12667
     12662     12661     12666     12668     12662     12661     12666     12669
     12663     12665     12661     12666     12663     12672     12669     12666
     12663     12672     12669     12670     12663     12672     12669     12671
     12663     12672     12674     12675     12663     12676     12679     12680
     12664     12663     12672     12669     12664     12663     12672     12673
     12664     12663     12672     12674     12664     12663     12676     12677
     12664     12663     12676     12678     12664     12663     12676     12679
     12665     12661     12666     12667     12665     12661     12666     12668
     12665     12661     12666     12669     12665     12663     12672     12669
     12665     12663     12672     12673     12665     12663     12672     12674
     12665     12663     12676     12677     12665     12663     12676     12678
     12665     12663     12676     12679     12666     12668     12681     12682
     12666     12668     12681     12685     12666     12668     12681     12686
     12666     12669     12671     12724     12666     12669     12672     12673
     12666     12669     12672     12674     12667     12666     12668     12681
     12667     12666     12669     12670     12667     12666     12669     12671
     12667     12666     12669     12672     12668     12666     12669     12670
     12668     12666     12669     12671     12668     12666     12669     12672
     12668     12681     12685     12683     12668     12681     12686     12687
     12668     12681     12686     12688     12668     12681     12686     12689
     12669     12666     12668     12681     12669     12671     12724     12725
     12669     12671     12724     12728     12669     12671     12724     12729
     12669     12672     12663     12676     12669     12672     12674     12675
     12670     12669     12671     12724     12670     12669     12672     12673
     12670     12669     12672     12674     12671     12669     12672     12673
     12671     12669     12672     12674     12671     12724     12728     12726
     12671     12724     12729     12730     12671     12724     12729     12731
     12671     12724     12729     12733     12672     12663     12676     12677
     12672     12663     12676     12678     12672     12663     12676     12679
     12672     12669     12671     12724     12673     12672     12663     12676
     12673     12672     12674     12675     12674     12672     12663     12676
     12677     12676     12679     12680     12678     12676     12679     12680
     12681     12685     12683     12684     12681     12685     12683     12693
     12681     12685     12683     12697     12681     12686     12688     12702
     12681     12686     12689     12690     12681     12686     12689     12691
     12681     12686     12689     12693     12682     12681     12685     12683
     12682     12681     12686     12687     12682     12681     12686     12688
     12682     12681     12686     12689     12683     12685     12681     12686
     12683     12693     12689     12686     12683     12693     12689     12690
     12683     12693     12689     12691     12683     12693     12695     12696
     12683     12697     12700     12701     12684     12683     12693     12689
     12684     12683     12693     12694     12684     12683     12693     12695
     12684     12683     12697     12698     12684     12683     12697     12699
     12684     12683     12697     12700     12685     12681     12686     12687
     12685     12681     12686     12688     12685     12681     12686     12689
     12685     12683     12693     12689     12685     12683     12693     12694
     12685     12683     12693     12695     12685     12683     12697     12698
     12685     12683     12697     12699     12685     12683     12697     12700
     12686     12688     12702     12703     12686     12688     12702     12706
     12686     12688     12702     12707     12686     12689     12691     12692
     12686     12689     12693     12694     12686     12689     12693     12695
     12687     12686     12688     12702     12687     12686     12689     12690
     12687     12686     12689     12691     12687     12686     12689     12693
     12688     12686     12689     12690     12688     12686     12689     12691
     12688     12686     12689     12693     12688     12702     12706     12704
     12688     12702     12707     12708     12688     12702     12707     12709
     12688     12702     12707     12711     12689     12686     12688     12702
     12689     12693     12683     12697     12689     12693     12695     12696
     12690     12689     12691     12692     12690     12689     12693     12694
     12690     12689     12693     12695     12691     12689     12693     12694
     12691     12689     12693     12695     12692     12691     12689     12693
     12693     12683     12697     12698     12693     12683     12697     12699
     12693     12683     12697     12700     12694     12693     12683     12697
     12694     12693     12695     12696     12695     12693     12683     12697
     12698     12697     12700     12701     12699     12697     12700     12701
     12702     12706     12704     12705     12702     12706     12704     12715
     12702     12706     12704     12719     12702     12707     12709     12710
     12702     12707     12711     12712     12702     12707     12711     12713
     12702     12707     12711     12715     12703     12702     12706     12704
     12703     12702     12707     12708     12703     12702     12707     12709
     12703     12702     12707     12711     12704     12706     12702     12707
     12704     12715     12711     12707     12704     12715     12711     12712
     12704     12715     12711     12713     12704     12715     12717     12718
     12704     12719     12722     12723     12705     12704     12715     12711
     12705     12704     12715     12716     12705     12704     12715     12717
     12705     12704     12719     12720     12705     12704     12719     12721
     12705     12704     12719     12722     12706     12702     12707     12708
     12706     12702     12707     12709     12706     12702     12707     12711
     12706     12704     12715     12711     12706     12704     12715     12716
     12706     12704     12715     12717     12706     12704     12719     12720
     12706     12704     12719     12721     12706     12704     12719     12722
     12707     12711     12713     12714     12707     12711     12715     12716
     12707     12711     12715     12717     12708     12707     12709     12710
     12708     12707     12711     12712     12708     12707     12711     12713
     12708     12707     12711     12715     12709     12707     12711     12712
     12709     12707     12711     12713     12709     12707     12711     12715
     12710     12709     12707     12711     12711     12715     12704     12719
     12711     12715     12717     12718     12712     12711     12713     12714
     12712     12711     12715     12716     12712     12711     12715     12717
     12713     12711     12715     12716     12713     12711     12715     12717
     12714     12713     12711     12715     12715     12704     12719     12720
     12715     12704     12719     12721     12715     12704     12719     12722
     12716     12715     12704     12719     12716     12715     12717     12718
     12717     12715     12704     12719     12720     12719     12722     12723
     12721     12719     12722     12723     12724     12728     12726     12727
     12724     12728     12726     12736     12724     12728     12726     12740
     12724     12729     12731     12732     12724     12729     12733     12734
     12724     12729     12733     12735     12724     12729     12733     12736
     12725     12724     12728     12726     12725     12724     12729     12730
     12725     12724     12729     12731     12725     12724     12729     12733
     12726     12728     12724     12729     12726     12736     12733     12729
     12726     12736     12733     12734     12726     12736     12733     12735
     12726     12736     12738     12739     12726     12740     12743     12744
     12727     12726     12736     12733     12727     12726     12736     12737
     12727     12726     12736     12738     12727     12726     12740     12741
     12727     12726     12740     12742     12727     12726     12740     12743
     12728     12724     12729     12730     12728     12724     12729     12731
     12728     12724     12729     12733     12728     12726     12736     12733
     12728     12726     12736     12737     12728     12726     12736     12738
     12728     12726     12740     12741     12728     12726     12740     12742
     12728     12726     12740     12743     12729     12733     12735     12745
     12729     12733     12736     12737     12729     12733     12736     12738
     12730     12729     12731     12732     12730     12729     12733     12734
     12730     12729     12733     12735     12730     12729     12733     12736
     12731     12729     12733     12734     12731     12729     12733     12735
     12731     12729     12733     12736     12732     12731     12729     12733
     12733     12735     12745     12746     12733     12735     12745     12749
     12733     12735     12745     12750     12733     12736     12726     12740
     12733     12736     12738     12739     12734     12733     12735     12745
     12734     12733     12736     12737     12734     12733     12736     12738
     12735     12733     12736     12737     12735     12733     12736     12738
     12735     12745     12749     12747     12735     12745     12750     12751
     12735     12745     12750     12752     12735     12745     12750     12760
     12736     12726     12740     12741     12736     12726     12740     12742
     12736     12726     12740     12743     12736     12733     12735     12745
     12737     12736     12726     12740     12737     12736     12738     12739
     12738     12736     12726     12740     12741     12740     12743     12744
     12742     12740     12743     12744     12745     12749     12747     12748
     12745     12749     12747     12763     12745     12749     12747     12767
     12745     12750     12752     12753     12745     12750     12752     12754
     12745     12750     12760     12761     12745     12750     12760     12762
     12745     12750     12760     12763     12746     12745     12749     12747
     12746     12745     12750     12751     12746     12745     12750     12752
     12746     12745     12750     12760     12747     12749     12745     12750
     12747     12763     12760     12750     12747     12763     12760     12761
     12747     12763     12760     12762     12747     12763     12765     12766
     12747     12767     12770     12771     12748     12747     12763     12760
     12748     12747     12763     12764     12748     12747     12763     12765
     12748     12747     12767     12768     12748     12747     12767     12769
     12748     12747     12767     12770     12749     12745     12750     12751
     12749     12745     12750     12752     12749     12745     12750     12760
     12749     12747     12763     12760     12749     12747     12763     12764
     12749     12747     12763     12765     12749     12747     12767     12768
     12749     12747     12767     12769     12749     12747     12767     12770
     12750     12752     12754     12755     12750     12752     12754     12756
     12750     12760     12762     12772     12750     12760     12763     12764
     12750     12760     12763     12765     12751     12750     12752     12753
     12751     12750     12752     12754     12751     12750     12760     12761
     12751     12750     12760     12762     12751     12750     12760     12763
     12752     12750     12760     12761     12752     12750     12760     12762
     12752     12750     12760     12763     12752     12754     12756     12757
     12752     12754     12756     12758     12752     12754     12756     12759
     12753     12752     12750     12760     12753     12752     12754     12755
     12753     12752     12754     12756     12754     12752     12750     12760
     12755     12754     12756     12757     12755     12754     12756     12758
     12755     12754     12756     12759     12760     12762     12772     12773
     12760     12762     12772     12776     12760     12762     12772     12777
     12760     12763     12747     12767     12760     12763     12765     12766
     12761     12760     12762     12772     12761     12760     12763     12764
     12761     12760     12763     12765     12762     12760     12763     12764
     12762     12760     12763     12765     12762     12772     12776     12774
     12762     12772     12777     12778     12762     12772     12777     12779
     12762     12772     12777     12780     12763     12747     12767     12768
     12763     12747     12767     12769     12763     12747     12767     12770
     12763     12760     12762     12772     12764     12763     12747     12767
     12764     12763     12765     12766     12765     12763     12747     12767
     12768     12767     12770     12771     12769     12767     12770     12771
     12772     12776     12774     12775     12772     12776     12774     12784
     12772     12776     12774     12788     12772     12777     12779     12793
     12772     12777     12780     12781     12772     12777     12780     12782
     12772     12777     12780     12784     12773     12772     12776     12774
     12773     12772     12777     12778     12773     12772     12777     12779
     12773     12772     12777     12780     12774     12776     12772     12777
     12774     12784     12780     12777     12774     12784     12780     12781
     12774     12784     12780     12782     12774     12784     12786     12787
     12774     12788     12791     12792     12775     12774     12784     12780
     12775     12774     12784     12785     12775     12774     12784     12786
     12775     12774     12788     12789     12775     12774     12788     12790
     12775     12774     12788     12791     12776     12772     12777     12778
     12776     12772     12777     12779     12776     12772     12777     12780
     12776     12774     12784     12780     12776     12774     12784     12785
     12776     12774     12784     12786     12776     12774     12788     12789
     12776     12774     12788     12790     12776     12774     12788     12791
     12777     12779     12793     12794     12777     12779     12793     12797
     12777     12779     12793     12798     12777     12780     12782     12783
     12777     12780     12784     12785     12777     12780     12784     12786
     12778     12777     12779     12793     12778     12777     12780     12781
     12778     12777     12780     12782     12778     12777     12780     12784
     12779     12777     12780     12781     12779     12777     12780     12782
     12779     12777     12780     12784     12779     12793     12797     12795
     12779     12793     12798     12799     12779     12793     12798     12800
     12779     12793     12798     12801     12780     12777     12779     12793
     12780     12784     12774     12788     12780     12784     12786     12787
     12781     12780     12782     12783     12781     12780     12784     12785
     12781     12780     12784     12786     12782     12780     12784     12785
     12782     12780     12784     12786     12783     12782     12780     12784
     12784     12774     12788     12789     12784     12774     12788     12790
     12784     12774     12788     12791     12785     12784     12774     12788
     12785     12784     12786     12787     12786     12784     12774     12788
     12789     12788     12791     12792     12790     12788     12791     12792
     12793     12797     12795     12796     12793     12797     12795     12805
     12793     12797     12795     12809     12793     12798     12800     12813
     12793     12798     12801     12802     12793     12798     12801     12803
     12793     12798     12801     12805     12794     12793     12797     12795
     12794     12793     12798     12799     12794     12793     12798     12800
     12794     12793     12798     12801     12795     12797     12793     12798
     12795     12805     12801     12798     12795     12805     12801     12802
     12795     12805     12801     12803     12795     12805     12807     12808
     12796     12795     12805     12801     12796     12795     12805     12806
     12796     12795     12805     12807     12796     12795     12809     12810
     12796     12795     12809     12811     12796     12795     12809     12812
     12797     12793     12798     12799     12797     12793     12798     12800
     12797     12793     12798     12801     12797     12795     12805     12801
     12797     12795     12805     12806     12797     12795     12805     12807
     12797     12795     12809     12810     12797     12795     12809     12811
     12797     12795     12809     12812     12798     12800     12813     12814
     12798     12800     12813     12817     12798     12800     12813     12818
     12798     12801     12803     12804     12798     12801     12805     12806
     12798     12801     12805     12807     12799     12798     12800     12813
     12799     12798     12801     12802     12799     12798     12801     12803
     12799     12798     12801     12805     12800     12798     12801     12802
     12800     12798     12801     12803     12800     12798     12801     12805
     12800     12813     12817     12815     12800     12813     12818     12819
     12800     12813     12818     12820     12800     12813     12818     12821
     12801     12798     12800     12813     12801     12805     12795     12809
     12801     12805     12807     12808     12802     12801     12803     12804
     12802     12801     12805     12806     12802     12801     12805     12807
     12803     12801     12805     12806     12803     12801     12805     12807
     12804     12803     12801     12805     12805     12795     12809     12810
     12805     12795     12809     12811     12805     12795     12809     12812
     12806     12805     12795     12809     12806     12805     12807     12808
     12807     12805     12795     12809     12813     12817     12815     12816
     12813     12817     12815     12824     12813     12817     12815     12828
     12813     12818     12820     12832     12813     12818     12821     12822
     12813     12818     12821     12823     12813     12818     12821     12824
     12814     12813     12817     12815     12814     12813     12818     12819
     12814     12813     12818     12820     12814     12813     12818     12821
     12815     12817     12813     12818     12815     12824     12821     12818
     12815     12824     12821     12822     12815     12824     12821     12823
     12815     12824     12826     12827     12816     12815     12824     12821
     12816     12815     12824     12825     12816     12815     12824     12826
     12816     12815     12828     12829     12816     12815     12828     12830
     12816     12815     12828     12831     12817     12813     12818     12819
     12817     12813     12818     12820     12817     12813     12818     12821
     12817     12815     12824     12821     12817     12815     12824     12825
     12817     12815     12824     12826     12817     12815     12828     12829
     12817     12815     12828     12830     12817     12815     12828     12831
     12818     12820     12832     12833     12818     12820     12832     12836
     12818     12820     12832     12837     12818     12821     12823     12860
     12818     12821     12824     12825     12818     12821     12824     12826
     12819     12818     12820     12832     12819     12818     12821     12822
     12819     12818     12821     12823     12819     12818     12821     12824
     12820     12818     12821     12822     12820     12818     12821     12823
     12820     12818     12821     12824     12820     12832     12836     12834
     12820     12832     12837     12838     12820     12832     12837     12839
     12820     12832     12837     12847     12821     12818     12820     12832
     12821     12823     12860     12861     12821     12823     12860     12864
     12821     12823     12860     12865     12821     12824     12815     12828
     12821     12824     12826     12827     12822     12821     12823     12860
     12822     12821     12824     12825     12822     12821     12824     12826
     12823     12821     12824     12825     12823     12821     12824     12826
     12823     12860     12864     12862     12823     12860     12865     12866
     12823     12860     12865     12867     12823     12860     12865     12875
     12824     12815     12828     12829     12824     12815     12828     12830
     12824     12815     12828     12831     12824     12821     12823     12860
     12825     12824     12815     12828     12825     12824     12826     12827
     12826     12824     12815     12828     12832     12836     12834     12835
     12832     12836     12834     12851     12832     12836     12834     12855
     12832     12837     12839     12840     12832     12837     12839     12841
     12832     12837     12847     12848     12832     12837     12847     12849
     12832     12837     12847     12851     12833     12832     12836     12834
     12833     12832     12837     12838     12833     12832     12837     12839
     12833     12832     12837     12847     12834     12836     12832     12837
     12834     12851     12847     12837     12834     12851     12847     12848
     12834     12851     12847     12849     12834     12851     12853     12854
     12834     12855     12858     12859     12835     12834     12851     12847
     12835     12834     12851     12852     12835     12834     12851     12853
     12835     12834     12855     12856     12835     12834     12855     12857
     12835     12834     12855     12858     12836     12832     12837     12838
     12836     12832     12837     12839     12836     12832     12837     12847
     12836     12834     12851     12847     12836     12834     12851     12852
     12836     12834     12851     12853     12836     12834     12855     12856
     12836     12834     12855     12857     12836     12834     12855     12858
     12837     12839     12841     12842     12837     12839     12841     12843
     12837     12847     12849     12850     12837     12847     12851     12852
     12837     12847     12851     12853     12838     12837     12839     12840
     12838     12837     12839     12841     12838     12837     12847     12848
     12838     12837     12847     12849     12838     12837     12847     12851
     12839     12837     12847     12848     12839     12837     12847     12849
     12839     12837     12847     12851     12839     12841     12843     12844
     12839     12841     12843     12845     12839     12841     12843     12846
     12840     12839     12837     12847     12840     12839     12841     12842
     12840     12839     12841     12843     12841     12839     12837     12847
     12842     12841     12843     12844     12842     12841     12843     12845
     12842     12841     12843     12846     12847     12851     12834     12855
     12847     12851     12853     12854     12848     12847     12849     12850
     12848     12847     12851     12852     12848     12847     12851     12853
     12849     12847     12851     12852     12849     12847     12851     12853
     12850     12849     12847     12851     12851     12834     12855     12856
     12851     12834     12855     12857     12851     12834     12855     12858
     12852     12851     12834     12855     12852     12851     12853     12854
     12853     12851     12834     12855     12856     12855     12858     12859
     12857     12855     12858     12859     12860     12864     12862     12863
     12860     12864     12862     12878     12860     12864     12862     12882
     12860     12865     12867     12868     12860     12865     12867     12869
     12860     12865     12875     12876     12860     12865     12875     12877
     12860     12865     12875     12878     12861     12860     12864     12862
     12861     12860     12865     12866     12861     12860     12865     12867
     12861     12860     12865     12875     12862     12864     12860     12865
     12862     12878     12875     12865     12862     12878     12875     12876
     12862     12878     12875     12877     12862     12878     12880     12881
     12862     12882     12885     12886     12863     12862     12878     12875
     12863     12862     12878     12879     12863     12862     12878     12880
     12863     12862     12882     12883     12863     12862     12882     12884
     12863     12862     12882     12885     12864     12860     12865     12866
     12864     12860     12865     12867     12864     12860     12865     12875
     12864     12862     12878     12875     12864     12862     12878     12879
     12864     12862     12878     12880     12864     12862     12882     12883
     12864     12862     12882     12884     12864     12862     12882     12885
     12865     12867     12869     12870     12865     12867     12869     12871
     12865     12875     12877     12887     12865     12875     12878     12879
     12865     12875     12878     12880     12866     12865     12867     12868
     12866     12865     12867     12869     12866     12865     12875     12876
     12866     12865     12875     12877     12866     12865     12875     12878
     12867     12865     12875     12876     12867     12865     12875     12877
     12867     12865     12875     12878     12867     12869     12871     12872
     12867     12869     12871     12873     12867     12869     12871     12874
     12868     12867     12865     12875     12868     12867     12869     12870
     12868     12867     12869     12871     12869     12867     12865     12875
     12870     12869     12871     12872     12870     12869     12871     12873
     12870     12869     12871     12874     12875     12877     12887     12888
     12875     12877     12887     12891     12875     12877     12887     12892
     12875     12878     12862     12882     12875     12878     12880     12881
     12876     12875     12877     12887     12876     12875     12878     12879
     12876     12875     12878     12880     12877     12875     12878     12879
     12877     12875     12878     12880     12877     12887     12891     12889
     12877     12887     12892     12893     12877     12887     12892     12894
     12877     12887     12892     12895     12878     12862     12882     12883
     12878     12862     12882     12884     12878     12862     12882     12885
     12878     12875     12877     12887     12879     12878     12862     12882
     12879     12878     12880     12881     12880     12878     12862     12882
     12883     12882     12885     12886     12884     12882     12885     12886
     12887     12891     12889     12890     12887     12891     12889     12899
     12887     12891     12889     12903     12887     12892     12894     12908
     12887     12892     12895     12896     12887     12892     12895     12897
     12887     12892     12895     12899     12888     12887     12891     12889
     12888     12887     12892     12893     12888     12887     12892     12894
     12888     12887     12892     12895     12889     12891     12887     12892
     12889     12899     12895     12892     12889     12899     12895     12896
     12889     12899     12895     12897     12889     12899     12901     12902
     12889     12903     12906     12907     12890     12889     12899     12895
     12890     12889     12899     12900     12890     12889     12899     12901
     12890     12889     12903     12904     12890     12889     12903     12905
     12890     12889     12903     12906     12891     12887     12892     12893
     12891     12887     12892     12894     12891     12887     12892     12895
     12891     12889     12899     12895     12891     12889     12899     12900
     12891     12889     12899     12901     12891     12889     12903     12904
     12891     12889     12903     12905     12891     12889     12903     12906
     12892     12894     12908     12909     12892     12894     12908     12912
     12892     12894     12908     12913     12892     12895     12897     12898
     12892     12895     12899     12900     12892     12895     12899     12901
     12893     12892     12894     12908     12893     12892     12895     12896
     12893     12892     12895     12897     12893     12892     12895     12899
     12894     12892     12895     12896     12894     12892     12895     12897
     12894     12892     12895     12899     12894     12908     12912     12910
     12894     12908     12913     12914     12894     12908     12913     12915
     12894     12908     12913     12916     12895     12892     12894     12908
     12895     12899     12889     12903     12895     12899     12901     12902
     12896     12895     12897     12898     12896     12895     12899     12900
     12896     12895     12899     12901     12897     12895     12899     12900
     12897     12895     12899     12901     12898     12897     12895     12899
     12899     12889     12903     12904     12899     12889     12903     12905
     12899     12889     12903     12906     12900     12899     12889     12903
     12900     12899     12901     12902     12901     12899     12889     12903
     12904     12903     12906     12907     12905     12903     12906     12907
     12908     12912     12910     12911     12908     12912     12910     12920
     12908     12912     12910     12924     12908     12913     12915     12928
     12908     12913     12916     12917     12908     12913     12916     12918
     12908     12913     12916     12920     12909     12908     12912     12910
     12909     12908     12913     12914     12909     12908     12913     12915
     12909     12908     12913     12916     12910     12912     12908     12913
     12910     12920     12916     12913     12910     12920     12916     12917
     12910     12920     12916     12918     12910     12920     12922     12923
     12911     12910     12920     12916     12911     12910     12920     12921
     12911     12910     12920     12922     12911     12910     12924     12925
     12911     12910     12924     12926     12911     12910     12924     12927
     12912     12908     12913     12914     12912     12908     12913     12915
     12912     12908     12913     12916     12912     12910     12920     12916
     12912     12910     12920     12921     12912     12910     12920     12922
     12912     12910     12924     12925     12912     12910     12924     12926
     12912     12910     12924     12927     12913     12915     12928     12929
     12913     12915     12928     12932     12913     12915     12928     12933
     12913     12916     12918     12919     12913     12916     12920     12921
     12913     12916     12920     12922     12914     12913     12915     12928
     12914     12913     12916     12917     12914     12913     12916     12918
     12914     12913     12916     12920     12915     12913     12916     12917
     12915     12913     12916     12918     12915     12913     12916     12920
     12915     12928     12932     12930     12915     12928     12933     12934
     12915     12928     12933     12935     12915     12928     12933     12936
     12916     12913     12915     12928     12916     12920     12910     12924
     12916     12920     12922     12923     12917     12916     12918     12919
     12917     12916     12920     12921     12917     12916     12920     12922
     12918     12916     12920     12921     12918     12916     12920     12922
     12919     12918     12916     12920     12920     12910     12924     12925
     12920     12910     12924     12926     12920     12910     12924     12927
     12921     12920     12910     12924     12921     12920     12922     12923
     12922     12920     12910     12924     12928     12932     12930     12931
     12928     12932     12930     12939     12928     12932     12930     12943
     12928     12933     12935     12947     12928     12933     12936     12937
     12928     12933     12936     12938     12928     12933     12936     12939
     12929     12928     12932     12930     12929     12928     12933     12934
     12929     12928     12933     12935     12929     12928     12933     12936
     12930     12932     12928     12933     12930     12939     12936     12933
     12930     12939     12936     12937     12930     12939     12936     12938
     12930     12939     12941     12942     12931     12930     12939     12936
     12931     12930     12939     12940     12931     12930     12939     12941
     12931     12930     12943     12944     12931     12930     12943     12945
     12931     12930     12943     12946     12932     12928     12933     12934
     12932     12928     12933     12935     12932     12928     12933     12936
     12932     12930     12939     12936     12932     12930     12939     12940
     12932     12930     12939     12941     12932     12930     12943     12944
     12932     12930     12943     12945     12932     12930     12943     12946
     12933     12935     12947     12948     12933     12935     12947     12951
     12933     12935     12947     12952     12933     12936     12938     12975
     12933     12936     12939     12940     12933     12936     12939     12941
     12934     12933     12935     12947     12934     12933     12936     12937
     12934     12933     12936     12938     12934     12933     12936     12939
     12935     12933     12936     12937     12935     12933     12936     12938
     12935     12933     12936     12939     12935     12947     12951     12949
     12935     12947     12952     12953     12935     12947     12952     12954
     12935     12947     12952     12962     12936     12933     12935     12947
     12936     12938     12975     12976     12936     12938     12975     12979
     12936     12938     12975     12980     12936     12939     12930     12943
     12936     12939     12941     12942     12937     12936     12938     12975
     12937     12936     12939     12940     12937     12936     12939     12941
     12938     12936     12939     12940     12938     12936     12939     12941
     12938     12975     12979     12977     12938     12975     12980     12981
     12938     12975     12980     12982     12938     12975     12980     12990
     12939     12930     12943     12944     12939     12930     12943     12945
     12939     12930     12943     12946     12939     12936     12938     12975
     12940     12939     12930     12943     12940     12939     12941     12942
     12941     12939     12930     12943     12947     12951     12949     12950
     12947     12951     12949     12966     12947     12951     12949     12970
     12947     12952     12954     12955     12947     12952     12954     12956
     12947     12952     12962     12963     12947     12952     12962     12964
     12947     12952     12962     12966     12948     12947     12951     12949
     12948     12947     12952     12953     12948     12947     12952     12954
     12948     12947     12952     12962     12949     12951     12947     12952
     12949     12966     12962     12952     12949     12966     12962     12963
     12949     12966     12962     12964     12949     12966     12968     12969
     12949     12970     12973     12974     12950     12949     12966     12962
     12950     12949     12966     12967     12950     12949     12966     12968
     12950     12949     12970     12971     12950     12949     12970     12972
     12950     12949     12970     12973     12951     12947     12952     12953
     12951     12947     12952     12954     12951     12947     12952     12962
     12951     12949     12966     12962     12951     12949     12966     12967
     12951     12949     12966     12968     12951     12949     12970     12971
     12951     12949     12970     12972     12951     12949     12970     12973
     12952     12954     12956     12957     12952     12954     12956     12958
     12952     12962     12964     12965     12952     12962     12966     12967
     12952     12962     12966     12968     12953     12952     12954     12955
     12953     12952     12954     12956     12953     12952     12962     12963
     12953     12952     12962     12964     12953     12952     12962     12966
     12954     12952     12962     12963     12954     12952     12962     12964
     12954     12952     12962     12966     12954     12956     12958     12959
     12954     12956     12958     12960     12954     12956     12958     12961
     12955     12954     12952     12962     12955     12954     12956     12957
     12955     12954     12956     12958     12956     12954     12952     12962
     12957     12956     12958     12959     12957     12956     12958     12960
     12957     12956     12958     12961     12962     12966     12949     12970
     12962     12966     12968     12969     12963     12962     12964     12965
     12963     12962     12966     12967     12963     12962     12966     12968
     12964     12962     12966     12967     12964     12962     12966     12968
     12965     12964     12962     12966     12966     12949     12970     12971
     12966     12949     12970     12972     12966     12949     12970     12973
     12967     12966     12949     12970     12967     12966     12968     12969
     12968     12966     12949     12970     12971     12970     12973     12974
     12972     12970     12973     12974     12975     12979     12977     12978
     12975     12979     12977     12993     12975     12979     12977     12997
     12975     12980     12982     12983     12975     12980     12982     12984
     12975     12980     12990     12991     12975     12980     12990     12992
     12975     12980     12990     12993     12976     12975     12979     12977
     12976     12975     12980     12981     12976     12975     12980     12982
     12976     12975     12980     12990     12977     12979     12975     12980
     12977     12993     12990     12980     12977     12993     12990     12991
     12977     12993     12990     12992     12977     12993     12995     12996
     12977     12997     13000     13001     12978     12977     12993     12990
     12978     12977     12993     12994     12978     12977     12993     12995
     12978     12977     12997     12998     12978     12977     12997     12999
     12978     12977     12997     13000     12979     12975     12980     12981
     12979     12975     12980     12982     12979     12975     12980     12990
     12979     12977     12993     12990     12979     12977     12993     12994
     12979     12977     12993     12995     12979     12977     12997     12998
     12979     12977     12997     12999     12979     12977     12997     13000
     12980     12982     12984     12985     12980     12982     12984     12986
     12980     12990     12992     13002     12980     12990     12993     12994
     12980     12990     12993     12995     12981     12980     12982     12983
     12981     12980     12982     12984     12981     12980     12990     12991
     12981     12980     12990     12992     12981     12980     12990     12993
     12982     12980     12990     12991     12982     12980     12990     12992
     12982     12980     12990     12993     12982     12984     12986     12987
     12982     12984     12986     12988     12982     12984     12986     12989
     12983     12982     12980     12990     12983     12982     12984     12985
     12983     12982     12984     12986     12984     12982     12980     12990
     12985     12984     12986     12987     12985     12984     12986     12988
     12985     12984     12986     12989     12990     12992     13002     13003
     12990     12992     13002     13006     12990     12992     13002     13007
     12990     12993     12977     12997     12990     12993     12995     12996
     12991     12990     12992     13002     12991     12990     12993     12994
     12991     12990     12993     12995     12992     12990     12993     12994
     12992     12990     12993     12995     12992     13002     13006     13004
     12992     13002     13007     13008     12992     13002     13007     13009
     12992     13002     13007     13010     12993     12977     12997     12998
     12993     12977     12997     12999     12993     12977     12997     13000
     12993     12990     12992     13002     12994     12993     12977     12997
     12994     12993     12995     12996     12995     12993     12977     12997
     12998     12997     13000     13001     12999     12997     13000     13001
     13002     13006     13004     13005     13002     13006     13004     13014
     13002     13006     13004     13018     13002     13007     13009     13023
     13002     13007     13010     13011     13002     13007     13010     13012
     13002     13007     13010     13014     13003     13002     13006     13004
     13003     13002     13007     13008     13003     13002     13007     13009
     13003     13002     13007     13010     13004     13006     13002     13007
     13004     13014     13010     13007     13004     13014     13010     13011
     13004     13014     13010     13012     13004     13014     13016     13017
     13004     13018     13021     13022     13005     13004     13014     13010
     13005     13004     13014     13015     13005     13004     13014     13016
     13005     13004     13018     13019     13005     13004     13018     13020
     13005     13004     13018     13021     13006     13002     13007     13008
     13006     13002     13007     13009     13006     13002     13007     13010
     13006     13004     13014     13010     13006     13004     13014     13015
     13006     13004     13014     13016     13006     13004     13018     13019
     13006     13004     13018     13020     13006     13004     13018     13021
     13007     13009     13023     13024     13007     13009     13023     13027
     13007     13009     13023     13028     13007     13010     13012     13013
     13007     13010     13014     13015     13007     13010     13014     13016
     13008     13007     13009     13023     13008     13007     13010     13011
     13008     13007     13010     13012     13008     13007     13010     13014
     13009     13007     13010     13011     13009     13007     13010     13012
     13009     13007     13010     13014     13009     13023     13027     13025
     13009     13023     13028     13029     13009     13023     13028     13030
     13009     13023     13028     13031     13010     13007     13009     13023
     13010     13014     13004     13018     13010     13014     13016     13017
     13011     13010     13012     13013     13011     13010     13014     13015
     13011     13010     13014     13016     13012     13010     13014     13015
     13012     13010     13014     13016     13013     13012     13010     13014
     13014     13004     13018     13019     13014     13004     13018     13020
     13014     13004     13018     13021     13015     13014     13004     13018
     13015     13014     13016     13017     13016     13014     13004     13018
     13019     13018     13021     13022     13020     13018     13021     13022
     13023     13027     13025     13026     13023     13027     13025     13035
     13023     13027     13025     13039     13023     13028     13030     13043
     13023     13028     13031     13032     13023     13028     13031     13033
     13023     13028     13031     13035     13024     13023     13027     13025
     13024     13023     13028     13029     13024     13023     13028     13030
     13024     13023     13028     13031     13025     13027     13023     13028
     13025     13035     13031     13028     13025     13035     13031     13032
     13025     13035     13031     13033     13025     13035     13037     13038
     13026     13025     13035     13031     13026     13025     13035     13036
     13026     13025     13035     13037     13026     13025     13039     13040
     13026     13025     13039     13041     13026     13025     13039     13042
     13027     13023     13028     13029     13027     13023     13028     13030
     13027     13023     13028     13031     13027     13025     13035     13031
     13027     13025     13035     13036     13027     13025     13035     13037
     13027     13025     13039     13040     13027     13025     13039     13041
     13027     13025     13039     13042     13028     13030     13043     13044
     13028     13030     13043     13047     13028     13030     13043     13048
     13028     13031     13033     13034     13028     13031     13035     13036
     13028     13031     13035     13037     13029     13028     13030     13043
     13029     13028     13031     13032     13029     13028     13031     13033
     13029     13028     13031     13035     13030     13028     13031     13032
     13030     13028     13031     13033     13030     13028     13031     13035
     13030     13043     13047     13045     13030     13043     13048     13049
     13030     13043     13048     13050     13030     13043     13048     13051
     13031     13028     13030     13043     13031     13035     13025     13039
     13031     13035     13037     13038     13032     13031     13033     13034
     13032     13031     13035     13036     13032     13031     13035     13037
     13033     13031     13035     13036     13033     13031     13035     13037
     13034     13033     13031     13035     13035     13025     13039     13040
     13035     13025     13039     13041     13035     13025     13039     13042
     13036     13035     13025     13039     13036     13035     13037     13038
     13037     13035     13025     13039     13043     13047     13045     13046
     13043     13047     13045     13054     13043     13047     13045     13058
     13043     13048     13050     13062     13043     13048     13051     13052
     13043     13048     13051     13053     13043     13048     13051     13054
     13044     13043     13047     13045     13044     13043     13048     13049
     13044     13043     13048     13050     13044     13043     13048     13051
     13045     13047     13043     13048     13045     13054     13051     13048
     13045     13054     13051     13052     13045     13054     13051     13053
     13045     13054     13056     13057     13046     13045     13054     13051
     13046     13045     13054     13055     13046     13045     13054     13056
     13046     13045     13058     13059     13046     13045     13058     13060
     13046     13045     13058     13061     13047     13043     13048     13049
     13047     13043     13048     13050     13047     13043     13048     13051
     13047     13045     13054     13051     13047     13045     13054     13055
     13047     13045     13054     13056     13047     13045     13058     13059
     13047     13045     13058     13060     13047     13045     13058     13061
     13048     13050     13062     13063     13048     13050     13062     13066
     13048     13050     13062     13067     13048     13051     13053     13090
     13048     13051     13054     13055     13048     13051     13054     13056
     13049     13048     13050     13062     13049     13048     13051     13052
     13049     13048     13051     13053     13049     13048     13051     13054
     13050     13048     13051     13052     13050     13048     13051     13053
     13050     13048     13051     13054     13050     13062     13066     13064
     13050     13062     13067     13068     13050     13062     13067     13069
     13050     13062     13067     13077     13051     13048     13050     13062
     13051     13053     13090     13091     13051     13053     13090     13094
     13051     13053     13090     13095     13051     13054     13045     13058
     13051     13054     13056     13057     13052     13051     13053     13090
     13052     13051     13054     13055     13052     13051     13054     13056
     13053     13051     13054     13055     13053     13051     13054     13056
     13053     13090     13094     13092     13053     13090     13095     13096
     13053     13090     13095     13097     13053     13090     13095     13105
     13054     13045     13058     13059     13054     13045     13058     13060
     13054     13045     13058     13061     13054     13051     13053     13090
     13055     13054     13045     13058     13055     13054     13056     13057
     13056     13054     13045     13058     13062     13066     13064     13065
     13062     13066     13064     13081     13062     13066     13064     13085
     13062     13067     13069     13070     13062     13067     13069     13071
     13062     13067     13077     13078     13062     13067     13077     13079
     13062     13067     13077     13081     13063     13062     13066     13064
     13063     13062     13067     13068     13063     13062     13067     13069
     13063     13062     13067     13077     13064     13066     13062     13067
     13064     13081     13077     13067     13064     13081     13077     13078
     13064     13081     13077     13079     13064     13081     13083     13084
     13064     13085     13088     13089     13065     13064     13081     13077
     13065     13064     13081     13082     13065     13064     13081     13083
     13065     13064     13085     13086     13065     13064     13085     13087
     13065     13064     13085     13088     13066     13062     13067     13068
     13066     13062     13067     13069     13066     13062     13067     13077
     13066     13064     13081     13077     13066     13064     13081     13082
     13066     13064     13081     13083     13066     13064     13085     13086
     13066     13064     13085     13087     13066     13064     13085     13088
     13067     13069     13071     13072     13067     13069     13071     13073
     13067     13077     13079     13080     13067     13077     13081     13082
     13067     13077     13081     13083     13068     13067     13069     13070
     13068     13067     13069     13071     13068     13067     13077     13078
     13068     13067     13077     13079     13068     13067     13077     13081
     13069     13067     13077     13078     13069     13067     13077     13079
     13069     13067     13077     13081     13069     13071     13073     13074
     13069     13071     13073     13075     13069     13071     13073     13076
     13070     13069     13067     13077     13070     13069     13071     13072
     13070     13069     13071     13073     13071     13069     13067     13077
     13072     13071     13073     13074     13072     13071     13073     13075
     13072     13071     13073     13076     13077     13081     13064     13085
     13077     13081     13083     13084     13078     13077     13079     13080
     13078     13077     13081     13082     13078     13077     13081     13083
     13079     13077     13081     13082     13079     13077     13081     13083
     13080     13079     13077     13081     13081     13064     13085     13086
     13081     13064     13085     13087     13081     13064     13085     13088
     13082     13081     13064     13085     13082     13081     13083     13084
     13083     13081     13064     13085     13086     13085     13088     13089
     13087     13085     13088     13089     13090     13094     13092     13093
     13090     13094     13092     13108     13090     13094     13092     13112
     13090     13095     13097     13098     13090     13095     13097     13099
     13090     13095     13105     13106     13090     13095     13105     13107
     13090     13095     13105     13108     13091     13090     13094     13092
     13091     13090     13095     13096     13091     13090     13095     13097
     13091     13090     13095     13105     13092     13094     13090     13095
     13092     13108     13105     13095     13092     13108     13105     13106
     13092     13108     13105     13107     13092     13108     13110     13111
     13092     13112     13115     13116     13093     13092     13108     13105
     13093     13092     13108     13109     13093     13092     13108     13110
     13093     13092     13112     13113     13093     13092     13112     13114
     13093     13092     13112     13115     13094     13090     13095     13096
     13094     13090     13095     13097     13094     13090     13095     13105
     13094     13092     13108     13105     13094     13092     13108     13109
     13094     13092     13108     13110     13094     13092     13112     13113
     13094     13092     13112     13114     13094     13092     13112     13115
     13095     13097     13099     13100     13095     13097     13099     13101
     13095     13105     13107     13117     13095     13105     13108     13109
     13095     13105     13108     13110     13096     13095     13097     13098
     13096     13095     13097     13099     13096     13095     13105     13106
     13096     13095     13105     13107     13096     13095     13105     13108
     13097     13095     13105     13106     13097     13095     13105     13107
     13097     13095     13105     13108     13097     13099     13101     13102
     13097     13099     13101     13103     13097     13099     13101     13104
     13098     13097     13095     13105     13098     13097     13099     13100
     13098     13097     13099     13101     13099     13097     13095     13105
     13100     13099     13101     13102     13100     13099     13101     13103
     13100     13099     13101     13104     13105     13107     13117     13118
     13105     13107     13117     13121     13105     13107     13117     13122
     13105     13108     13092     13112     13105     13108     13110     13111
     13106     13105     13107     13117     13106     13105     13108     13109
     13106     13105     13108     13110     13107     13105     13108     13109
     13107     13105     13108     13110     13107     13117     13121     13119
     13107     13117     13122     13123     13107     13117     13122     13124
     13107     13117     13122     13125     13108     13092     13112     13113
     13108     13092     13112     13114     13108     13092     13112     13115
     13108     13105     13107     13117     13109     13108     13092     13112
     13109     13108     13110     13111     13110     13108     13092     13112
     13113     13112     13115     13116     13114     13112     13115     13116
     13117     13121     13119     13120     13117     13121     13119     13129
     13117     13121     13119     13133     13117     13122     13124     13138
     13117     13122     13125     13126     13117     13122     13125     13127
     13117     13122     13125     13129     13118     13117     13121     13119
     13118     13117     13122     13123     13118     13117     13122     13124
     13118     13117     13122     13125     13119     13121     13117     13122
     13119     13129     13125     13122     13119     13129     13125     13126
     13119     13129     13125     13127     13119     13129     13131     13132
     13119     13133     13136     13137     13120     13119     13129     13125
     13120     13119     13129     13130     13120     13119     13129     13131
     13120     13119     13133     13134     13120     13119     13133     13135
     13120     13119     13133     13136     13121     13117     13122     13123
     13121     13117     13122     13124     13121     13117     13122     13125
     13121     13119     13129     13125     13121     13119     13129     13130
     13121     13119     13129     13131     13121     13119     13133     13134
     13121     13119     13133     13135     13121     13119     13133     13136
     13122     13124     13138     13139     13122     13124     13138     13142
     13122     13124     13138     13143     13122     13125     13127     13128
     13122     13125     13129     13130     13122     13125     13129     13131
     13123     13122     13124     13138     13123     13122     13125     13126
     13123     13122     13125     13127     13123     13122     13125     13129
     13124     13122     13125     13126     13124     13122     13125     13127
     13124     13122     13125     13129     13124     13138     13142     13140
     13124     13138     13143     13144     13124     13138     13143     13145
     13124     13138     13143     13146     13125     13122     13124     13138
     13125     13129     13119     13133     13125     13129     13131     13132
     13126     13125     13127     13128     13126     13125     13129     13130
     13126     13125     13129     13131     13127     13125     13129     13130
     13127     13125     13129     13131     13128     13127     13125     13129
     13129     13119     13133     13134     13129     13119     13133     13135
     13129     13119     13133     13136     13130     13129     13119     13133
     13130     13129     13131     13132     13131     13129     13119     13133
     13134     13133     13136     13137     13135     13133     13136     13137
     13138     13142     13140     13141     13138     13142     13140     13150
     13138     13142     13140     13154     13138     13143     13145     13158
     13138     13143     13146     13147     13138     13143     13146     13148
     13138     13143     13146     13150     13139     13138     13142     13140
     13139     13138     13143     13144     13139     13138     13143     13145
     13139     13138     13143     13146     13140     13142     13138     13143
     13140     13150     13146     13143     13140     13150     13146     13147
     13140     13150     13146     13148     13140     13150     13152     13153
     13141     13140     13150     13146     13141     13140     13150     13151
     13141     13140     13150     13152     13141     13140     13154     13155
     13141     13140     13154     13156     13141     13140     13154     13157
     13142     13138     13143     13144     13142     13138     13143     13145
     13142     13138     13143     13146     13142     13140     13150     13146
     13142     13140     13150     13151     13142     13140     13150     13152
     13142     13140     13154     13155     13142     13140     13154     13156
     13142     13140     13154     13157     13143     13145     13158     13159
     13143     13145     13158     13162     13143     13145     13158     13163
     13143     13146     13148     13149     13143     13146     13150     13151
     13143     13146     13150     13152     13144     13143     13145     13158
     13144     13143     13146     13147     13144     13143     13146     13148
     13144     13143     13146     13150     13145     13143     13146     13147
     13145     13143     13146     13148     13145     13143     13146     13150
     13145     13158     13162     13160     13145     13158     13163     13164
     13145     13158     13163     13165     13145     13158     13163     13166
     13146     13143     13145     13158     13146     13150     13140     13154
     13146     13150     13152     13153     13147     13146     13148     13149
     13147     13146     13150     13151     13147     13146     13150     13152
     13148     13146     13150     13151     13148     13146     13150     13152
     13149     13148     13146     13150     13150     13140     13154     13155
     13150     13140     13154     13156     13150     13140     13154     13157
     13151     13150     13140     13154     13151     13150     13152     13153
     13152     13150     13140     13154     13158     13162     13160     13161
     13158     13162     13160     13169     13158     13162     13160     13173
     13158     13163     13165     13177     13158     13163     13166     13167
     13158     13163     13166     13168     13158     13163     13166     13169
     13159     13158     13162     13160     13159     13158     13163     13164
     13159     13158     13163     13165     13159     13158     13163     13166
     13160     13162     13158     13163     13160     13169     13166     13163
     13160     13169     13166     13167     13160     13169     13166     13168
     13160     13169     13171     13172     13161     13160     13169     13166
     13161     13160     13169     13170     13161     13160     13169     13171
     13161     13160     13173     13174     13161     13160     13173     13175
     13161     13160     13173     13176     13162     13158     13163     13164
     13162     13158     13163     13165     13162     13158     13163     13166
     13162     13160     13169     13166     13162     13160     13169     13170
     13162     13160     13169     13171     13162     13160     13173     13174
     13162     13160     13173     13175     13162     13160     13173     13176
     13163     13165     13177     13178     13163     13165     13177     13181
     13163     13165     13177     13182     13163     13166     13168     13205
     13163     13166     13169     13170     13163     13166     13169     13171
     13164     13163     13165     13177     13164     13163     13166     13167
     13164     13163     13166     13168     13164     13163     13166     13169
     13165     13163     13166     13167     13165     13163     13166     13168
     13165     13163     13166     13169     13165     13177     13181     13179
     13165     13177     13182     13183     13165     13177     13182     13184
     13165     13177     13182     13192     13166     13163     13165     13177
     13166     13168     13205     13206     13166     13168     13205     13209
     13166     13168     13205     13210     13166     13169     13160     13173
     13166     13169     13171     13172     13167     13166     13168     13205
     13167     13166     13169     13170     13167     13166     13169     13171
     13168     13166     13169     13170     13168     13166     13169     13171
     13168     13205     13209     13207     13168     13205     13210     13211
     13168     13205     13210     13212     13168     13205     13210     13220
     13169     13160     13173     13174     13169     13160     13173     13175
     13169     13160     13173     13176     13169     13166     13168     13205
     13170     13169     13160     13173     13170     13169     13171     13172
     13171     13169     13160     13173     13177     13181     13179     13180
     13177     13181     13179     13196     13177     13181     13179     13200
     13177     13182     13184     13185     13177     13182     13184     13186
     13177     13182     13192     13193     13177     13182     13192     13194
     13177     13182     13192     13196     13178     13177     13181     13179
     13178     13177     13182     13183     13178     13177     13182     13184
     13178     13177     13182     13192     13179     13181     13177     13182
     13179     13196     13192     13182     13179     13196     13192     13193
     13179     13196     13192     13194     13179     13196     13198     13199
     13179     13200     13203     13204     13180     13179     13196     13192
     13180     13179     13196     13197     13180     13179     13196     13198
     13180     13179     13200     13201     13180     13179     13200     13202
     13180     13179     13200     13203     13181     13177     13182     13183
     13181     13177     13182     13184     13181     13177     13182     13192
     13181     13179     13196     13192     13181     13179     13196     13197
     13181     13179     13196     13198     13181     13179     13200     13201
     13181     13179     13200     13202     13181     13179     13200     13203
     13182     13184     13186     13187     13182     13184     13186     13188
     13182     13192     13194     13195     13182     13192     13196     13197
     13182     13192     13196     13198     13183     13182     13184     13185
     13183     13182     13184     13186     13183     13182     13192     13193
     13183     13182     13192     13194     13183     13182     13192     13196
     13184     13182     13192     13193     13184     13182     13192     13194
     13184     13182     13192     13196     13184     13186     13188     13189
     13184     13186     13188     13190     13184     13186     13188     13191
     13185     13184     13182     13192     13185     13184     13186     13187
     13185     13184     13186     13188     13186     13184     13182     13192
     13187     13186     13188     13189     13187     13186     13188     13190
     13187     13186     13188     13191     13192     13196     13179     13200
     13192     13196     13198     13199     13193     13192     13194     13195
     13193     13192     13196     13197     13193     13192     13196     13198
     13194     13192     13196     13197     13194     13192     13196     13198
     13195     13194     13192     13196     13196     13179     13200     13201
     13196     13179     13200     13202     13196     13179     13200     13203
     13197     13196     13179     13200     13197     13196     13198     13199
     13198     13196     13179     13200     13201     13200     13203     13204
     13202     13200     13203     13204     13205     13209     13207     13208
     13205     13209     13207     13223     13205     13209     13207     13227
     13205     13210     13212     13213     13205     13210     13212     13214
     13205     13210     13220     13221     13205     13210     13220     13222
     13205     13210     13220     13223     13206     13205     13209     13207
     13206     13205     13210     13211     13206     13205     13210     13212
     13206     13205     13210     13220     13207     13209     13205     13210
     13207     13223     13220     13210     13207     13223     13220     13221
     13207     13223     13220     13222     13207     13223     13225     13226
     13207     13227     13230     13231     13208     13207     13223     13220
     13208     13207     13223     13224     13208     13207     13223     13225
     13208     13207     13227     13228     13208     13207     13227     13229
     13208     13207     13227     13230     13209     13205     13210     13211
     13209     13205     13210     13212     13209     13205     13210     13220
     13209     13207     13223     13220     13209     13207     13223     13224
     13209     13207     13223     13225     13209     13207     13227     13228
     13209     13207     13227     13229     13209     13207     13227     13230
     13210     13212     13214     13215     13210     13212     13214     13216
     13210     13220     13222     13232     13210     13220     13223     13224
     13210     13220     13223     13225     13211     13210     13212     13213
     13211     13210     13212     13214     13211     13210     13220     13221
     13211     13210     13220     13222     13211     13210     13220     13223
     13212     13210     13220     13221     13212     13210     13220     13222
     13212     13210     13220     13223     13212     13214     13216     13217
     13212     13214     13216     13218     13212     13214     13216     13219
     13213     13212     13210     13220     13213     13212     13214     13215
     13213     13212     13214     13216     13214     13212     13210     13220
     13215     13214     13216     13217     13215     13214     13216     13218
     13215     13214     13216     13219     13220     13222     13232     13233
     13220     13222     13232     13236     13220     13222     13232     13237
     13220     13223     13207     13227     13220     13223     13225     13226
     13221     13220     13222     13232     13221     13220     13223     13224
     13221     13220     13223     13225     13222     13220     13223     13224
     13222     13220     13223     13225     13222     13232     13236     13234
     13222     13232     13237     13238     13222     13232     13237     13239
     13222     13232     13237     13240     13223     13207     13227     13228
     13223     13207     13227     13229     13223     13207     13227     13230
     13223     13220     13222     13232     13224     13223     13207     13227
     13224     13223     13225     13226     13225     13223     13207     13227
     13228     13227     13230     13231     13229     13227     13230     13231
     13232     13236     13234     13235     13232     13236     13234     13244
     13232     13236     13234     13248     13232     13237     13239     13253
     13232     13237     13240     13241     13232     13237     13240     13242
     13232     13237     13240     13244     13233     13232     13236     13234
     13233     13232     13237     13238     13233     13232     13237     13239
     13233     13232     13237     13240     13234     13236     13232     13237
     13234     13244     13240     13237     13234     13244     13240     13241
     13234     13244     13240     13242     13234     13244     13246     13247
     13234     13248     13251     13252     13235     13234     13244     13240
     13235     13234     13244     13245     13235     13234     13244     13246
     13235     13234     13248     13249     13235     13234     13248     13250
     13235     13234     13248     13251     13236     13232     13237     13238
     13236     13232     13237     13239     13236     13232     13237     13240
     13236     13234     13244     13240     13236     13234     13244     13245
     13236     13234     13244     13246     13236     13234     13248     13249
     13236     13234     13248     13250     13236     13234     13248     13251
     13237     13239     13253     13254     13237     13239     13253     13257
     13237     13239     13253     13258     13237     13240     13242     13243
     13237     13240     13244     13245     13237     13240     13244     13246
     13238     13237     13239     13253     13238     13237     13240     13241
     13238     13237     13240     13242     13238     13237     13240     13244
     13239     13237     13240     13241     13239     13237     13240     13242
     13239     13237     13240     13244     13239     13253     13257     13255
     13239     13253     13258     13259     13239     13253     13258     13260
     13239     13253     13258     13261     13240     13237     13239     13253
     13240     13244     13234     13248     13240     13244     13246     13247
     13241     13240     13242     13243     13241     13240     13244     13245
     13241     13240     13244     13246     13242     13240     13244     13245
     13242     13240     13244     13246     13243     13242     13240     13244
     13244     13234     13248     13249     13244     13234     13248     13250
     13244     13234     13248     13251     13245     13244     13234     13248
     13245     13244     13246     13247     13246     13244     13234     13248
     13249     13248     13251     13252     13250     13248     13251     13252
     13253     13257     13255     13256     13253     13257     13255     13265
     13253     13257     13255     13269     13253     13258     13260     13273
     13253     13258     13261     13262     13253     13258     13261     13263
     13253     13258     13261     13265     13254     13253     13257     13255
     13254     13253     13258     13259     13254     13253     13258     13260
     13254     13253     13258     13261     13255     13257     13253     13258
     13255     13265     13261     13258     13255     13265     13261     13262
     13255     13265     13261     13263     13255     13265     13267     13268
     13256     13255     13265     13261     13256     13255     13265     13266
     13256     13255     13265     13267     13256     13255     13269     13270
     13256     13255     13269     13271     13256     13255     13269     13272
     13257     13253     13258     13259     13257     13253     13258     13260
     13257     13253     13258     13261     13257     13255     13265     13261
     13257     13255     13265     13266     13257     13255     13265     13267
     13257     13255     13269     13270     13257     13255     13269     13271
     13257     13255     13269     13272     13258     13260     13273     13274
     13258     13260     13273     13277     13258     13260     13273     13278
     13258     13261     13263     13264     13258     13261     13265     13266
     13258     13261     13265     13267     13259     13258     13260     13273
     13259     13258     13261     13262     13259     13258     13261     13263
     13259     13258     13261     13265     13260     13258     13261     13262
     13260     13258     13261     13263     13260     13258     13261     13265
     13260     13273     13277     13275     13260     13273     13278     13279
     13260     13273     13278     13280     13260     13273     13278     13281
     13261     13258     13260     13273     13261     13265     13255     13269
     13261     13265     13267     13268     13262     13261     13263     13264
     13262     13261     13265     13266     13262     13261     13265     13267
     13263     13261     13265     13266     13263     13261     13265     13267
     13264     13263     13261     13265     13265     13255     13269     13270
     13265     13255     13269     13271     13265     13255     13269     13272
     13266     13265     13255     13269     13266     13265     13267     13268
     13267     13265     13255     13269     13273     13277     13275     13276
     13273     13277     13275     13285     13273     13277     13275     13289
     13273     13278     13280     13293     13273     13278     13281     13282
     13273     13278     13281     13283     13273     13278     13281     13285
     13274     13273     13277     13275     13274     13273     13278     13279
     13274     13273     13278     13280     13274     13273     13278     13281
     13275     13277     13273     13278     13275     13285     13281     13278
     13275     13285     13281     13282     13275     13285     13281     13283
     13275     13285     13287     13288     13276     13275     13285     13281
     13276     13275     13285     13286     13276     13275     13285     13287
     13276     13275     13289     13290     13276     13275     13289     13291
     13276     13275     13289     13292     13277     13273     13278     13279
     13277     13273     13278     13280     13277     13273     13278     13281
     13277     13275     13285     13281     13277     13275     13285     13286
     13277     13275     13285     13287     13277     13275     13289     13290
     13277     13275     13289     13291     13277     13275     13289     13292
     13278     13280     13293     13294     13278     13280     13293     13297
     13278     13280     13293     13298     13278     13281     13283     13284
     13278     13281     13285     13286     13278     13281     13285     13287
     13279     13278     13280     13293     13279     13278     13281     13282
     13279     13278     13281     13283     13279     13278     13281     13285
     13280     13278     13281     13282     13280     13278     13281     13283
     13280     13278     13281     13285     13280     13293     13297     13295
     13280     13293     13298     13299     13280     13293     13298     13300
     13280     13293     13298     13308     13281     13278     13280     13293
     13281     13285     13275     13289     13281     13285     13287     13288
     13282     13281     13283     13284     13282     13281     13285     13286
     13282     13281     13285     13287     13283     13281     13285     13286
     13283     13281     13285     13287     13284     13283     13281     13285
     13285     13275     13289     13290     13285     13275     13289     13291
     13285     13275     13289     13292     13286     13285     13275     13289
     13286     13285     13287     13288     13287     13285     13275     13289
     13293     13297     13295     13296     13293     13297     13295     13312
     13293     13297     13295     13316     13293     13298     13300     13301
     13293     13298     13300     13302     13293     13298     13308     13309
     13293     13298     13308     13310     13293     13298     13308     13312
     13294     13293     13297     13295     13294     13293     13298     13299
     13294     13293     13298     13300     13294     13293     13298     13308
     13295     13297     13293     13298     13295     13312     13308     13298
     13295     13312     13308     13309     13295     13312     13308     13310
     13295     13312     13314     13315     13295     13316     13319     13320
     13296     13295     13312     13308     13296     13295     13312     13313
     13296     13295     13312     13314     13296     13295     13316     13317
     13296     13295     13316     13318     13296     13295     13316     13319
     13297     13293     13298     13299     13297     13293     13298     13300
     13297     13293     13298     13308     13297     13295     13312     13308
     13297     13295     13312     13313     13297     13295     13312     13314
     13297     13295     13316     13317     13297     13295     13316     13318
     13297     13295     13316     13319     13298     13300     13302     13303
     13298     13300     13302     13304     13298     13308     13310     13311
     13298     13308     13312     13313     13298     13308     13312     13314
     13299     13298     13300     13301     13299     13298     13300     13302
     13299     13298     13308     13309     13299     13298     13308     13310
     13299     13298     13308     13312     13300     13298     13308     13309
     13300     13298     13308     13310     13300     13298     13308     13312
     13300     13302     13304     13305     13300     13302     13304     13306
     13300     13302     13304     13307     13301     13300     13298     13308
     13301     13300     13302     13303     13301     13300     13302     13304
     13302     13300     13298     13308     13303     13302     13304     13305
     13303     13302     13304     13306     13303     13302     13304     13307
     13308     13312     13295     13316     13308     13312     13314     13315
     13309     13308     13310     13311     13309     13308     13312     13313
     13309     13308     13312     13314     13310     13308     13312     13313
     13310     13308     13312     13314     13311     13310     13308     13312
     13312     13295     13316     13317     13312     13295     13316     13318
     13312     13295     13316     13319     13313     13312     13295     13316
     13313     13312     13314     13315     13314     13312     13295     13316
     13317     13316     13319     13320     13318     13316     13319     13320
     13321     13323     13322     13620     13321     13323     13325     13326
     13321     13323     13325     13327     13321     13323     13325     13334
     13322     13323     13325     13326     13322     13323     13325     13327
     13322     13323     13325     13334     13322     13620     13617     13618
     13322     13620     13617     13619     13322     13620     13623     13621
     13322     13620     13624     13625     13322     13620     13624     13626
     13322     13620     13624     13627     13323     13322     13620     13617
     13323     13322     13620     13623     13323     13322     13620     13624
     13323     13325     13326     13328     13323     13325     13334     13335
     13323     13325     13334     13336     13323     13325     13334     13341
     13324     13323     13322     13620     13324     13323     13325     13326
     13324     13323     13325     13327     13324     13323     13325     13334
     13325     13323     13322     13620     13325     13326     13328     13329
     13325     13326     13328     13330     13325     13326     13328     13349
     13325     13334     13336     13337     13325     13334     13341     13342
     13325     13334     13341     13343     13325     13334     13341     13349
     13326     13325     13334     13335     13326     13325     13334     13336
     13326     13325     13334     13341     13326     13328     13330     13331
     13326     13328     13349     13341     13326     13328     13349     13350
     13326     13328     13349     13351     13327     13325     13326     13328
     13327     13325     13334     13335     13327     13325     13334     13336
     13327     13325     13334     13341     13328     13326     13325     13334
     13328     13330     13331     13332     13328     13330     13331     13333
     13328     13330     13331     13357     13328     13349     13341     13334
     13328     13349     13341     13342     13328     13349     13341     13343
     13328     13349     13351     13352     13328     13349     13351     13458
     13329     13328     13330     13331     13329     13328     13349     13341
     13329     13328     13349     13350     13329     13328     13349     13351
     13330     13328     13349     13341     13330     13328     13349     13350
     13330     13328     13349     13351     13330     13331     13357     13353
     13330     13331     13357     13358     13330     13331     13357     13359
     13331     13330     13328     13349     13331     13357     13353     13354
     13331     13357     13353     13355     13331     13357     13353     13367
     13331     13357     13359     13360     13332     13331     13357     13353
     13332     13331     13357     13358     13332     13331     13357     13359
     13333     13331     13357     13353     13333     13331     13357     13358
     13333     13331     13357     13359     13334     13336     13337     13338
     13334     13336     13337     13339     13334     13336     13337     13340
     13334     13341     13342     13344     13334     13341     13349     13350
     13334     13341     13349     13351     13335     13334     13336     13337
     13335     13334     13341     13342     13335     13334     13341     13343
     13335     13334     13341     13349     13336     13334     13341     13342
     13336     13334     13341     13343     13336     13334     13341     13349
     13337     13336     13334     13341     13341     13342     13344     13345
     13341     13342     13344     13346     13341     13349     13351     13352
     13341     13349     13351     13458     13342     13341     13349     13350
     13342     13341     13349     13351     13342     13344     13346     13347
     13342     13344     13346     13348     13342     13344     13346     13379
     13343     13341     13342     13344     13343     13341     13349     13350
     13343     13341     13349     13351     13344     13342     13341     13349
     13344     13346     13379     13380     13344     13346     13379     13381
     13344     13346     13379     13424     13345     13344     13346     13347
     13345     13344     13346     13348     13345     13344     13346     13379
     13346     13379     13381     13382     13346     13379     13424     13425
     13346     13379     13424     13426     13346     13379     13424     13427
     13347     13346     13379     13380     13347     13346     13379     13381
     13347     13346     13379     13424     13348     13346     13379     13380
     13348     13346     13379     13381     13348     13346     13379     13424
     13349     13351     13458     13459     13349     13351     13458     13460
     13350     13349     13351     13352     13350     13349     13351     13458
     13351     13458     13460     13461     13351     13458     13460     13462
     13351     13458     13460     13463     13352     13351     13458     13459
     13352     13351     13458     13460     13353     13357     13359     13360
     13353     13367     13369     13370     13353     13367     13375     13360
     13353     13367     13375     13376     13353     13367     13375     13377
     13354     13353     13355     13356     13354     13353     13357     13358
     13354     13353     13357     13359     13354     13353     13367     13368
     13354     13353     13367     13369     13354     13353     13367     13375
     13355     13353     13357     13358     13355     13353     13357     13359
     13355     13353     13367     13368     13355     13353     13367     13369
     13355     13353     13367     13375     13356     13355     13353     13357
     13356     13355     13353     13367     13357     13353     13367     13368
     13357     13353     13367     13369     13357     13353     13367     13375
     13357     13359     13360     13361     13357     13359     13360     13362
     13357     13359     13360     13375     13358     13357     13353     13367
     13358     13357     13359     13360     13359     13357     13353     13367
     13359     13360     13362     13366     13359     13360     13375     13367
     13359     13360     13375     13376     13359     13360     13375     13377
     13360     13362     13366     13363     13360     13362     13366     13364
     13360     13362     13366     13365     13360     13375     13367     13368
     13360     13375     13367     13369     13360     13375     13377     13378
     13360     13375     13377     13574     13361     13360     13362     13366
     13361     13360     13375     13367     13361     13360     13375     13376
     13361     13360     13375     13377     13362     13360     13375     13367
     13362     13360     13375     13376     13362     13360     13375     13377
     13366     13362     13360     13375     13367     13369     13370     13371
     13367     13369     13370     13372     13367     13375     13377     13378
     13367     13375     13377     13574     13368     13367     13369     13370
     13368     13367     13375     13376     13368     13367     13375     13377
     13369     13367     13375     13376     13369     13367     13375     13377
     13369     13370     13372     13373     13369     13370     13372     13374
     13369     13370     13372     13536     13370     13369     13367     13375
     13370     13372     13536     13537     13370     13372     13536     13538
     13370     13372     13536     13540     13371     13370     13372     13373
     13371     13370     13372     13374     13371     13370     13372     13536
     13372     13536     13538     13539     13372     13536     13540     13541
     13372     13536     13540     13542     13372     13536     13540     13543
     13373     13372     13536     13537     13373     13372     13536     13538
     13373     13372     13536     13540     13374     13372     13536     13537
     13374     13372     13536     13538     13374     13372     13536     13540
     13375     13377     13574     13575     13375     13377     13574     13576
     13376     13375     13377     13378     13376     13375     13377     13574
     13377     13574     13576     13577     13377     13574     13576     13578
     13377     13574     13576     13579     13378     13377     13574     13575
     13378     13377     13574     13576     13379     13381     13382     13383
     13379     13381     13382     13384     13379     13424     13427     13428
     13379     13424     13427     13429     13379     13424     13427     13430
     13380     13379     13381     13382     13380     13379     13424     13425
     13380     13379     13424     13426     13380     13379     13424     13427
     13381     13379     13424     13425     13381     13379     13424     13426
     13381     13379     13424     13427     13381     13382     13384     13385
     13381     13382     13384     13386     13381     13382     13384     13387
     13382     13381     13379     13424     13382     13384     13387     13388
     13382     13384     13387     13389     13382     13384     13387     13390
     13383     13382     13384     13385     13383     13382     13384     13386
     13383     13382     13384     13387     13384     13387     13390     13391
     13384     13387     13390     13392     13384     13387     13390     13393
     13385     13384     13387     13388     13385     13384     13387     13389
     13385     13384     13387     13390     13386     13384     13387     13388
     13386     13384     13387     13389     13386     13384     13387     13390
     13387     13390     13393     13394     13387     13390     13393     13395
     13387     13390     13393     13396     13388     13387     13390     13391
     13388     13387     13390     13392     13388     13387     13390     13393
     13389     13387     13390     13391     13389     13387     13390     13392
     13389     13387     13390     13393     13390     13393     13396     13397
     13390     13393     13396     13398     13390     13393     13396     13399
     13391     13390     13393     13394     13391     13390     13393     13395
     13391     13390     13393     13396     13392     13390     13393     13394
     13392     13390     13393     13395     13392     13390     13393     13396
     13393     13396     13399     13400     13393     13396     13399     13401
     13393     13396     13399     13402     13394     13393     13396     13397
     13394     13393     13396     13398     13394     13393     13396     13399
     13395     13393     13396     13397     13395     13393     13396     13398
     13395     13393     13396     13399     13396     13399     13402     13403
     13396     13399     13402     13404     13396     13399     13402     13405
     13397     13396     13399     13400     13397     13396     13399     13401
     13397     13396     13399     13402     13398     13396     13399     13400
     13398     13396     13399     13401     13398     13396     13399     13402
     13399     13402     13405     13406     13399     13402     13405     13407
     13399     13402     13405     13408     13400     13399     13402     13403
     13400     13399     13402     13404     13400     13399     13402     13405
     13401     13399     13402     13403     13401     13399     13402     13404
     13401     13399     13402     13405     13402     13405     13408     13409
     13402     13405     13408     13410     13402     13405     13408     13411
     13403     13402     13405     13406     13403     13402     13405     13407
     13403     13402     13405     13408     13404     13402     13405     13406
     13404     13402     13405     13407     13404     13402     13405     13408
     13405     13408     13411     13412     13405     13408     13411     13413
     13405     13408     13411     13414     13406     13405     13408     13409
     13406     13405     13408     13410     13406     13405     13408     13411
     13407     13405     13408     13409     13407     13405     13408     13410
     13407     13405     13408     13411     13408     13411     13414     13415
     13408     13411     13414     13416     13408     13411     13414     13417
     13409     13408     13411     13412     13409     13408     13411     13413
     13409     13408     13411     13414     13410     13408     13411     13412
     13410     13408     13411     13413     13410     13408     13411     13414
     13411     13414     13417     13418     13411     13414     13417     13419
     13411     13414     13417     13420     13412     13411     13414     13415
     13412     13411     13414     13416     13412     13411     13414     13417
     13413     13411     13414     13415     13413     13411     13414     13416
     13413     13411     13414     13417     13414     13417     13420     13421
     13414     13417     13420     13422     13414     13417     13420     13423
     13415     13414     13417     13418     13415     13414     13417     13419
     13415     13414     13417     13420     13416     13414     13417     13418
     13416     13414     13417     13419     13416     13414     13417     13420
     13418     13417     13420     13421     13418     13417     13420     13422
     13418     13417     13420     13423     13419     13417     13420     13421
     13419     13417     13420     13422     13419     13417     13420     13423
     13424     13427     13430     13431     13424     13427     13430     13432
     13424     13427     13430     13433     13425     13424     13427     13428
     13425     13424     13427     13429     13425     13424     13427     13430
     13426     13424     13427     13428     13426     13424     13427     13429
     13426     13424     13427     13430     13427     13430     13433     13434
     13427     13430     13433     13435     13427     13430     13433     13436
     13428     13427     13430     13431     13428     13427     13430     13432
     13428     13427     13430     13433     13429     13427     13430     13431
     13429     13427     13430     13432     13429     13427     13430     13433
     13430     13433     13436     13437     13430     13433     13436     13438
     13430     13433     13436     13439     13431     13430     13433     13434
     13431     13430     13433     13435     13431     13430     13433     13436
     13432     13430     13433     13434     13432     13430     13433     13435
     13432     13430     13433     13436     13433     13436     13439     13440
     13433     13436     13439     13441     13433     13436     13439     13442
     13434     13433     13436     13437     13434     13433     13436     13438
     13434     13433     13436     13439     13435     13433     13436     13437
     13435     13433     13436     13438     13435     13433     13436     13439
     13436     13439     13442     13443     13436     13439     13442     13444
     13436     13439     13442     13445     13437     13436     13439     13440
     13437     13436     13439     13441     13437     13436     13439     13442
     13438     13436     13439     13440     13438     13436     13439     13441
     13438     13436     13439     13442     13439     13442     13445     13446
     13439     13442     13445     13447     13439     13442     13445     13448
     13440     13439     13442     13443     13440     13439     13442     13444
     13440     13439     13442     13445     13441     13439     13442     13443
     13441     13439     13442     13444     13441     13439     13442     13445
     13442     13445     13448     13449     13442     13445     13448     13450
     13442     13445     13448     13451     13443     13442     13445     13446
     13443     13442     13445     13447     13443     13442     13445     13448
     13444     13442     13445     13446     13444     13442     13445     13447
     13444     13442     13445     13448     13445     13448     13451     13452
     13445     13448     13451     13453     13445     13448     13451     13454
     13446     13445     13448     13449     13446     13445     13448     13450
     13446     13445     13448     13451     13447     13445     13448     13449
     13447     13445     13448     13450     13447     13445     13448     13451
     13448     13451     13454     13455     13448     13451     13454     13456
     13448     13451     13454     13457     13449     13448     13451     13452
     13449     13448     13451     13453     13449     13448     13451     13454
     13450     13448     13451     13452     13450     13448     13451     13453
     13450     13448     13451     13454     13452     13451     13454     13455
     13452     13451     13454     13456     13452     13451     13454     13457
     13453     13451     13454     13455     13453     13451     13454     13456
     13453     13451     13454     13457     13458     13460     13463     13464
     13458     13460     13463     13465     13458     13460     13463     13502
     13459     13458     13460     13461     13459     13458     13460     13462
     13459     13458     13460     13463     13460     13463     13465     13466
     13460     13463     13502     13503     13460     13463     13502     13504
     13460     13463     13502     13505     13461     13460     13463     13464
     13461     13460     13463     13465     13461     13460     13463     13502
     13462     13460     13463     13464     13462     13460     13463     13465
     13462     13460     13463     13502     13463     13465     13466     13467
     13463     13465     13466     13468     13463     13502     13505     13506
     13463     13502     13505     13507     13463     13502     13505     13508
     13464     13463     13465     13466     13464     13463     13502     13503
     13464     13463     13502     13504     13464     13463     13502     13505
     13465     13463     13502     13503     13465     13463     13502     13504
     13465     13463     13502     13505     13465     13466     13468     13469
     13465     13466     13468     13470     13465     13466     13468     13471
     13466     13465     13463     13502     13466     13468     13471     13472
     13466     13468     13471     13473     13466     13468     13471     13474
     13467     13466     13468     13469     13467     13466     13468     13470
     13467     13466     13468     13471     13468     13471     13474     13475
     13468     13471     13474     13476     13468     13471     13474     13477
     13469     13468     13471     13472     13469     13468     13471     13473
     13469     13468     13471     13474     13470     13468     13471     13472
     13470     13468     13471     13473     13470     13468     13471     13474
     13471     13474     13477     13478     13471     13474     13477     13479
     13471     13474     13477     13480     13472     13471     13474     13475
     13472     13471     13474     13476     13472     13471     13474     13477
     13473     13471     13474     13475     13473     13471     13474     13476
     13473     13471     13474     13477     13474     13477     13480     13481
     13474     13477     13480     13482     13474     13477     13480     13483
     13475     13474     13477     13478     13475     13474     13477     13479
     13475     13474     13477     13480     13476     13474     13477     13478
     13476     13474     13477     13479     13476     13474     13477     13480
     13477     13480     13483     13484     13477     13480     13483     13485
     13477     13480     13483     13486     13478     13477     13480     13481
     13478     13477     13480     13482     13478     13477     13480     13483
     13479     13477     13480     13481     13479     13477     13480     13482
     13479     13477     13480     13483     13480     13483     13486     13487
     13480     13483     13486     13488     13480     13483     13486     13489
     13481     13480     13483     13484     13481     13480     13483     13485
     13481     13480     13483     13486     13482     13480     13483     13484
     13482     13480     13483     13485     13482     13480     13483     13486
     13483     13486     13489     13490     13483     13486     13489     13491
     13483     13486     13489     13492     13484     13483     13486     13487
     13484     13483     13486     13488     13484     13483     13486     13489
     13485     13483     13486     13487     13485     13483     13486     13488
     13485     13483     13486     13489     13486     13489     13492     13493
     13486     13489     13492     13494     13486     13489     13492     13495
     13487     13486     13489     13490     13487     13486     13489     13491
     13487     13486     13489     13492     13488     13486     13489     13490
     13488     13486     13489     13491     13488     13486     13489     13492
     13489     13492     13495     13496     13489     13492     13495     13497
     13489     13492     13495     13498     13490     13489     13492     13493
     13490     13489     13492     13494     13490     13489     13492     13495
     13491     13489     13492     13493     13491     13489     13492     13494
     13491     13489     13492     13495     13492     13495     13498     13499
     13492     13495     13498     13500     13492     13495     13498     13501
     13493     13492     13495     13496     13493     13492     13495     13497
     13493     13492     13495     13498     13494     13492     13495     13496
     13494     13492     13495     13497     13494     13492     13495     13498
     13496     13495     13498     13499     13496     13495     13498     13500
     13496     13495     13498     13501     13497     13495     13498     13499
     13497     13495     13498     13500     13497     13495     13498     13501
     13502     13505     13508     13509     13502     13505     13508     13510
     13502     13505     13508     13511     13503     13502     13505     13506
     13503     13502     13505     13507     13503     13502     13505     13508
     13504     13502     13505     13506     13504     13502     13505     13507
     13504     13502     13505     13508     13505     13508     13511     13512
     13505     13508     13511     13513     13505     13508     13511     13514
     13506     13505     13508     13509     13506     13505     13508     13510
     13506     13505     13508     13511     13507     13505     13508     13509
     13507     13505     13508     13510     13507     13505     13508     13511
     13508     13511     13514     13515     13508     13511     13514     13516
     13508     13511     13514     13517     13509     13508     13511     13512
     13509     13508     13511     13513     13509     13508     13511     13514
     13510     13508     13511     13512     13510     13508     13511     13513
     13510     13508     13511     13514     13511     13514     13517     13518
     13511     13514     13517     13519     13511     13514     13517     13520
     13512     13511     13514     13515     13512     13511     13514     13516
     13512     13511     13514     13517     13513     13511     13514     13515
     13513     13511     13514     13516     13513     13511     13514     13517
     13514     13517     13520     13521     13514     13517     13520     13522
     13514     13517     13520     13523     13515     13514     13517     13518
     13515     13514     13517     13519     13515     13514     13517     13520
     13516     13514     13517     13518     13516     13514     13517     13519
     13516     13514     13517     13520     13517     13520     13523     13524
     13517     13520     13523     13525     13517     13520     13523     13526
     13518     13517     13520     13521     13518     13517     13520     13522
     13518     13517     13520     13523     13519     13517     13520     13521
     13519     13517     13520     13522     13519     13517     13520     13523
     13520     13523     13526     13527     13520     13523     13526     13528
     13520     13523     13526     13529     13521     13520     13523     13524
     13521     13520     13523     13525     13521     13520     13523     13526
     13522     13520     13523     13524     13522     13520     13523     13525
     13522     13520     13523     13526     13523     13526     13529     13530
     13523     13526     13529     13531     13523     13526     13529     13532
     13524     13523     13526     13527     13524     13523     13526     13528
     13524     13523     13526     13529     13525     13523     13526     13527
     13525     13523     13526     13528     13525     13523     13526     13529
     13526     13529     13532     13533     13526     13529     13532     13534
     13526     13529     13532     13535     13527     13526     13529     13530
     13527     13526     13529     13531     13527     13526     13529     13532
     13528     13526     13529     13530     13528     13526     13529     13531
     13528     13526     13529     13532     13530     13529     13532     13533
     13530     13529     13532     13534     13530     13529     13532     13535
     13531     13529     13532     13533     13531     13529     13532     13534
     13531     13529     13532     13535     13536     13540     13543     13544
     13536     13540     13543     13545     13536     13540     13543     13546
     13537     13536     13538     13539     13537     13536     13540     13541
     13537     13536     13540     13542     13537     13536     13540     13543
     13538     13536     13540     13541     13538     13536     13540     13542
     13538     13536     13540     13543     13539     13538     13536     13540
     13540     13543     13546     13547     13540     13543     13546     13548
     13540     13543     13546     13549     13541     13540     13543     13544
     13541     13540     13543     13545     13541     13540     13543     13546
     13542     13540     13543     13544     13542     13540     13543     13545
     13542     13540     13543     13546     13543     13546     13549     13550
     13543     13546     13549     13551     13543     13546     13549     13552
     13544     13543     13546     13547     13544     13543     13546     13548
     13544     13543     13546     13549     13545     13543     13546     13547
     13545     13543     13546     13548     13545     13543     13546     13549
     13546     13549     13552     13553     13546     13549     13552     13554
     13546     13549     13552     13555     13547     13546     13549     13550
     13547     13546     13549     13551     13547     13546     13549     13552
     13548     13546     13549     13550     13548     13546     13549     13551
     13548     13546     13549     13552     13549     13552     13555     13556
     13549     13552     13555     13557     13549     13552     13555     13558
     13550     13549     13552     13553     13550     13549     13552     13554
     13550     13549     13552     13555     13551     13549     13552     13553
     13551     13549     13552     13554     13551     13549     13552     13555
     13552     13555     13558     13559     13552     13555     13558     13560
     13552     13555     13558     13561     13553     13552     13555     13556
     13553     13552     13555     13557     13553     13552     13555     13558
     13554     13552     13555     13556     13554     13552     13555     13557
     13554     13552     13555     13558     13555     13558     13561     13562
     13555     13558     13561     13563     13555     13558     13561     13564
     13556     13555     13558     13559     13556     13555     13558     13560
     13556     13555     13558     13561     13557     13555     13558     13559
     13557     13555     13558     13560     13557     13555     13558     13561
     13558     13561     13564     13565     13558     13561     13564     13566
     13558     13561     13564     13567     13559     13558     13561     13562
     13559     13558     13561     13563     13559     13558     13561     13564
     13560     13558     13561     13562     13560     13558     13561     13563
     13560     13558     13561     13564     13561     13564     13567     13568
     13561     13564     13567     13569     13561     13564     13567     13570
     13562     13561     13564     13565     13562     13561     13564     13566
     13562     13561     13564     13567     13563     13561     13564     13565
     13563     13561     13564     13566     13563     13561     13564     13567
     13564     13567     13570     13571     13564     13567     13570     13572
     13564     13567     13570     13573     13565     13564     13567     13568
     13565     13564     13567     13569     13565     13564     13567     13570
     13566     13564     13567     13568     13566     13564     13567     13569
     13566     13564     13567     13570     13568     13567     13570     13571
     13568     13567     13570     13572     13568     13567     13570     13573
     13569     13567     13570     13571     13569     13567     13570     13572
     13569     13567     13570     13573     13574     13576     13579     13580
     13574     13576     13579     13581     13574     13576     13579     13583
     13575     13574     13576     13577     13575     13574     13576     13578
     13575     13574     13576     13579     13576     13579     13581     13582
     13576     13579     13583     13584     13576     13579     13583     13585
     13576     13579     13583     13586     13577     13576     13579     13580
     13577     13576     13579     13581     13577     13576     13579     13583
     13578     13576     13579     13580     13578     13576     13579     13581
     13578     13576     13579     13583     13579     13583     13586     13587
     13579     13583     13586     13588     13579     13583     13586     13589
     13580     13579     13581     13582     13580     13579     13583     13584
     13580     13579     13583     13585     13580     13579     13583     13586
     13581     13579     13583     13584     13581     13579     13583     13585
     13581     13579     13583     13586     13582     13581     13579     13583
     13583     13586     13589     13590     13583     13586     13589     13591
     13583     13586     13589     13592     13584     13583     13586     13587
     13584     13583     13586     13588     13584     13583     13586     13589
     13585     13583     13586     13587     13585     13583     13586     13588
     13585     13583     13586     13589     13586     13589     13592     13593
     13586     13589     13592     13594     13586     13589     13592     13595
     13587     13586     13589     13590     13587     13586     13589     13591
     13587     13586     13589     13592     13588     13586     13589     13590
     13588     13586     13589     13591     13588     13586     13589     13592
     13589     13592     13595     13596     13589     13592     13595     13597
     13589     13592     13595     13598     13590     13589     13592     13593
     13590     13589     13592     13594     13590     13589     13592     13595
     13591     13589     13592     13593     13591     13589     13592     13594
     13591     13589     13592     13595     13592     13595     13598     13599
     13592     13595     13598     13600     13592     13595     13598     13601
     13593     13592     13595     13596     13593     13592     13595     13597
     13593     13592     13595     13598     13594     13592     13595     13596
     13594     13592     13595     13597     13594     13592     13595     13598
     13595     13598     13601     13602     13595     13598     13601     13603
     13595     13598     13601     13604     13596     13595     13598     13599
     13596     13595     13598     13600     13596     13595     13598     13601
     13597     13595     13598     13599     13597     13595     13598     13600
     13597     13595     13598     13601     13598     13601     13604     13605
     13598     13601     13604     13606     13598     13601     13604     13607
     13599     13598     13601     13602     13599     13598     13601     13603
     13599     13598     13601     13604     13600     13598     13601     13602
     13600     13598     13601     13603     13600     13598     13601     13604
     13601     13604     13607     13608     13601     13604     13607     13609
     13601     13604     13607     13610     13602     13601     13604     13605
     13602     13601     13604     13606     13602     13601     13604     13607
     13603     13601     13604     13605     13603     13601     13604     13606
     13603     13601     13604     13607     13604     13607     13610     13611
     13604     13607     13610     13612     13604     13607     13610     13613
     13605     13604     13607     13608     13605     13604     13607     13609
     13605     13604     13607     13610     13606     13604     13607     13608
     13606     13604     13607     13609     13606     13604     13607     13610
     13607     13610     13613     13614     13607     13610     13613     13615
     13607     13610     13613     13616     13608     13607     13610     13611
     13608     13607     13610     13612     13608     13607     13610     13613
     13609     13607     13610     13611     13609     13607     13610     13612
     13609     13607     13610     13613     13611     13610     13613     13614
     13611     13610     13613     13615     13611     13610     13613     13616
     13612     13610     13613     13614     13612     13610     13613     13615
     13612     13610     13613     13616     13617     13620     13623     13621
     13617     13620     13624     13625     13617     13620     13624     13626
     13617     13620     13624     13627     13618     13617     13620     13623
     13618     13617     13620     13624     13619     13617     13620     13623
     13619     13617     13620     13624     13620     13623     13621     13622
     13620     13623     13621     13630     13620     13623     13621     13633
     13620     13624     13627     13628     13620     13624     13627     13629
     13620     13624     13627     13630     13621     13623     13620     13624
     13621     13630     13627     13624     13621     13630     13627     13628
     13621     13630     13627     13629     13621     13630     13632     13669
     13621     13633     13635     13636     13621     13633     13637     13638
     13621     13633     13637     13639     13621     13633     13637     13640
     13622     13621     13630     13627     13622     13621     13630     13631
     13622     13621     13630     13632     13622     13621     13633     13634
     13622     13621     13633     13635     13622     13621     13633     13637
     13623     13620     13624     13625     13623     13620     13624     13626
     13623     13620     13624     13627     13623     13621     13630     13627
     13623     13621     13630     13631     13623     13621     13630     13632
     13623     13621     13633     13634     13623     13621     13633     13635
     13623     13621     13633     13637     13624     13627     13629     13645
     13624     13627     13630     13631     13624     13627     13630     13632
     13625     13624     13627     13628     13625     13624     13627     13629
     13625     13624     13627     13630     13626     13624     13627     13628
     13626     13624     13627     13629     13626     13624     13627     13630
     13627     13629     13645     13642     13627     13629     13645     13648
     13627     13629     13645     13649     13627     13630     13621     13633
     13627     13630     13632     13669     13628     13627     13629     13645
     13628     13627     13630     13631     13628     13627     13630     13632
     13629     13627     13630     13631     13629     13627     13630     13632
     13629     13645     13642     13643     13629     13645     13642     13644
     13629     13645     13648     13646     13629     13645     13649     13650
     13629     13645     13649     13651     13629     13645     13649     13652
     13630     13621     13633     13634     13630     13621     13633     13635
     13630     13621     13633     13637     13630     13627     13629     13645
     13630     13632     13669     13670     13630     13632     13669     13673
     13630     13632     13669     13674     13631     13630     13621     13633
     13631     13630     13632     13669     13632     13630     13621     13633
     13632     13669     13673     13671     13632     13669     13674     13675
     13632     13669     13674     13676     13632     13669     13674     13678
     13633     13637     13640     13641     13634     13633     13635     13636
     13634     13633     13637     13638     13634     13633     13637     13639
     13634     13633     13637     13640     13635     13633     13637     13638
     13635     13633     13637     13639     13635     13633     13637     13640
     13636     13635     13633     13637     13638     13637     13640     13641
     13639     13637     13640     13641     13642     13645     13648     13646
     13642     13645     13649     13650     13642     13645     13649     13651
     13642     13645     13649     13652     13643     13642     13645     13648
     13643     13642     13645     13649     13644     13642     13645     13648
     13644     13642     13645     13649     13645     13648     13646     13647
     13645     13648     13646     13656     13645     13648     13646     13660
     13645     13649     13652     13653     13645     13649     13652     13654
     13645     13649     13652     13656     13646     13648     13645     13649
     13646     13656     13652     13649     13646     13656     13652     13653
     13646     13656     13652     13654     13646     13656     13658     13659
     13646     13660     13662     13663     13646     13660     13664     13665
     13646     13660     13664     13666     13646     13660     13664     13667
     13647     13646     13656     13652     13647     13646     13656     13657
     13647     13646     13656     13658     13647     13646     13660     13661
     13647     13646     13660     13662     13647     13646     13660     13664
     13648     13645     13649     13650     13648     13645     13649     13651
     13648     13645     13649     13652     13648     13646     13656     13652
     13648     13646     13656     13657     13648     13646     13656     13658
     13648     13646     13660     13661     13648     13646     13660     13662
     13648     13646     13660     13664     13649     13652     13654     13655
     13649     13652     13656     13657     13649     13652     13656     13658
     13650     13649     13652     13653     13650     13649     13652     13654
     13650     13649     13652     13656     13651     13649     13652     13653
     13651     13649     13652     13654     13651     13649     13652     13656
     13652     13656     13646     13660     13652     13656     13658     13659
     13653     13652     13654     13655     13653     13652     13656     13657
     13653     13652     13656     13658     13654     13652     13656     13657
     13654     13652     13656     13658     13655     13654     13652     13656
     13656     13646     13660     13661     13656     13646     13660     13662
     13656     13646     13660     13664     13657     13656     13646     13660
     13657     13656     13658     13659     13658     13656     13646     13660
     13660     13664     13667     13668     13661     13660     13662     13663
     13661     13660     13664     13665     13661     13660     13664     13666
     13661     13660     13664     13667     13662     13660     13664     13665
     13662     13660     13664     13666     13662     13660     13664     13667
     13663     13662     13660     13664     13665     13664     13667     13668
     13666     13664     13667     13668     13669     13673     13671     13672
     13669     13673     13671     13681     13669     13673     13671     13688
     13669     13674     13676     13677     13669     13674     13678     13679
     13669     13674     13678     13680     13669     13674     13678     13681
     13670     13669     13673     13671     13670     13669     13674     13675
     13670     13669     13674     13676     13670     13669     13674     13678
     13671     13673     13669     13674     13671     13681     13678     13674
     13671     13681     13678     13679     13671     13681     13678     13680
     13671     13681     13683     13684     13671     13688     13690     13691
     13671     13688     13692     13693     13671     13688     13692     13694
     13671     13688     13692     13695     13672     13671     13681     13678
     13672     13671     13681     13682     13672     13671     13681     13683
     13672     13671     13688     13689     13672     13671     13688     13690
     13672     13671     13688     13692     13673     13669     13674     13675
     13673     13669     13674     13676     13673     13669     13674     13678
     13673     13671     13681     13678     13673     13671     13681     13682
     13673     13671     13681     13683     13673     13671     13688     13689
     13673     13671     13688     13690     13673     13671     13688     13692
     13674     13678     13680     13697     13674     13678     13681     13682
     13674     13678     13681     13683     13675     13674     13676     13677
     13675     13674     13678     13679     13675     13674     13678     13680
     13675     13674     13678     13681     13676     13674     13678     13679
     13676     13674     13678     13680     13676     13674     13678     13681
     13677     13676     13674     13678     13678     13680     13697     13698
     13678     13680     13697     13701     13678     13680     13697     13702
     13678     13681     13671     13688     13678     13681     13683     13684
     13679     13678     13680     13697     13679     13678     13681     13682
     13679     13678     13681     13683     13680     13678     13681     13682
     13680     13678     13681     13683     13680     13697     13701     13699
     13680     13697     13702     13703     13680     13697     13702     13704
     13680     13697     13702     13706     13681     13671     13688     13689
     13681     13671     13688     13690     13681     13671     13688     13692
     13681     13678     13680     13697     13681     13683     13684     13685
     13681     13683     13684     13686     13681     13683     13684     13687
     13682     13681     13671     13688     13682     13681     13683     13684
     13683     13681     13671     13688     13688     13692     13695     13696
     13689     13688     13690     13691     13689     13688     13692     13693
     13689     13688     13692     13694     13689     13688     13692     13695
     13690     13688     13692     13693     13690     13688     13692     13694
     13690     13688     13692     13695     13691     13690     13688     13692
     13693     13692     13695     13696     13694     13692     13695     13696
     13697     13701     13699     13700     13697     13701     13699     13709
     13697     13701     13699     13716     13697     13702     13704     13705
     13697     13702     13706     13707     13697     13702     13706     13708
     13697     13702     13706     13709     13698     13697     13701     13699
     13698     13697     13702     13703     13698     13697     13702     13704
     13698     13697     13702     13706     13699     13701     13697     13702
     13699     13709     13706     13702     13699     13709     13706     13707
     13699     13709     13706     13708     13699     13709     13711     13712
     13699     13716     13718     13719     13699     13716     13720     13721
     13699     13716     13720     13722     13699     13716     13720     13723
     13700     13699     13709     13706     13700     13699     13709     13710
     13700     13699     13709     13711     13700     13699     13716     13717
     13700     13699     13716     13718     13700     13699     13716     13720
     13701     13697     13702     13703     13701     13697     13702     13704
     13701     13697     13702     13706     13701     13699     13709     13706
     13701     13699     13709     13710     13701     13699     13709     13711
     13701     13699     13716     13717     13701     13699     13716     13718
     13701     13699     13716     13720     13702     13706     13708     13750
     13702     13706     13709     13710     13702     13706     13709     13711
     13703     13702     13704     13705     13703     13702     13706     13707
     13703     13702     13706     13708     13703     13702     13706     13709
     13704     13702     13706     13707     13704     13702     13706     13708
     13704     13702     13706     13709     13705     13704     13702     13706
     13706     13708     13750     13751     13706     13708     13750     13754
     13706     13708     13750     13755     13706     13709     13699     13716
     13706     13709     13711     13712     13707     13706     13708     13750
     13707     13706     13709     13710     13707     13706     13709     13711
     13708     13706     13709     13710     13708     13706     13709     13711
     13708     13750     13754     13752     13708     13750     13755     13756
     13708     13750     13755     13757     13708     13750     13755     13759
     13709     13699     13716     13717     13709     13699     13716     13718
     13709     13699     13716     13720     13709     13706     13708     13750
     13709     13711     13712     13713     13709     13711     13712     13714
     13709     13711     13712     13715     13710     13709     13699     13716
     13710     13709     13711     13712     13711     13709     13699     13716
     13716     13720     13723     13724     13717     13716     13718     13719
     13717     13716     13720     13721     13717     13716     13720     13722
     13717     13716     13720     13723     13718     13716     13720     13721
     13718     13716     13720     13722     13718     13716     13720     13723
     13719     13718     13716     13720     13720     13723     13724     13725
     13720     13723     13724     13728     13720     13723     13724     13729
     13721     13720     13723     13724     13722     13720     13723     13724
     13723     13724     13728     13726     13723     13724     13729     13730
     13723     13724     13729     13731     13723     13724     13729     13733
     13724     13728     13726     13727     13724     13728     13726     13737
     13724     13728     13726     13741     13724     13729     13731     13732
     13724     13729     13733     13734     13724     13729     13733     13735
     13724     13729     13733     13737     13725     13724     13728     13726
     13725     13724     13729     13730     13725     13724     13729     13731
     13725     13724     13729     13733     13726     13728     13724     13729
     13726     13737     13733     13729     13726     13737     13733     13734
     13726     13737     13733     13735     13726     13737     13739     13740
     13726     13741     13743     13744     13726     13741     13745     13746
     13726     13741     13745     13747     13726     13741     13745     13748
     13727     13726     13737     13733     13727     13726     13737     13738
     13727     13726     13737     13739     13727     13726     13741     13742
     13727     13726     13741     13743     13727     13726     13741     13745
     13728     13724     13729     13730     13728     13724     13729     13731
     13728     13724     13729     13733     13728     13726     13737     13733
     13728     13726     13737     13738     13728     13726     13737     13739
     13728     13726     13741     13742     13728     13726     13741     13743
     13728     13726     13741     13745     13729     13733     13735     13736
     13729     13733     13737     13738     13729     13733     13737     13739
     13730     13729     13731     13732     13730     13729     13733     13734
     13730     13729     13733     13735     13730     13729     13733     13737
     13731     13729     13733     13734     13731     13729     13733     13735
     13731     13729     13733     13737     13732     13731     13729     13733
     13733     13737     13726     13741     13733     13737     13739     13740
     13734     13733     13735     13736     13734     13733     13737     13738
     13734     13733     13737     13739     13735     13733     13737     13738
     13735     13733     13737     13739     13736     13735     13733     13737
     13737     13726     13741     13742     13737     13726     13741     13743
     13737     13726     13741     13745     13738     13737     13726     13741
     13738     13737     13739     13740     13739     13737     13726     13741
     13741     13745     13748     13749     13742     13741     13743     13744
     13742     13741     13745     13746     13742     13741     13745     13747
     13742     13741     13745     13748     13743     13741     13745     13746
     13743     13741     13745     13747     13743     13741     13745     13748
     13744     13743     13741     13745     13746     13745     13748     13749
     13747     13745     13748     13749     13750     13754     13752     13753
     13750     13754     13752     13762     13750     13754     13752     13766
     13750     13755     13757     13758     13750     13755     13759     13760
     13750     13755     13759     13761     13750     13755     13759     13762
     13751     13750     13754     13752     13751     13750     13755     13756
     13751     13750     13755     13757     13751     13750     13755     13759
     13752     13754     13750     13755     13752     13762     13759     13755
     13752     13762     13759     13760     13752     13762     13759     13761
     13752     13762     13764     13765     13752     13766     13769     13770
     13753     13752     13762     13759     13753     13752     13762     13763
     13753     13752     13762     13764     13753     13752     13766     13767
     13753     13752     13766     13768     13753     13752     13766     13769
     13754     13750     13755     13756     13754     13750     13755     13757
     13754     13750     13755     13759     13754     13752     13762     13759
     13754     13752     13762     13763     13754     13752     13762     13764
     13754     13752     13766     13767     13754     13752     13766     13768
     13754     13752     13766     13769     13755     13759     13761     13771
     13755     13759     13762     13763     13755     13759     13762     13764
     13756     13755     13757     13758     13756     13755     13759     13760
     13756     13755     13759     13761     13756     13755     13759     13762
     13757     13755     13759     13760     13757     13755     13759     13761
     13757     13755     13759     13762     13758     13757     13755     13759
     13759     13761     13771     13772     13759     13761     13771     13775
     13759     13761     13771     13776     13759     13762     13752     13766
     13759     13762     13764     13765     13760     13759     13761     13771
     13760     13759     13762     13763     13760     13759     13762     13764
     13761     13759     13762     13763     13761     13759     13762     13764
     13761     13771     13775     13773     13761     13771     13776     13777
     13761     13771     13776     13778     13761     13771     13776     13779
     13762     13752     13766     13767     13762     13752     13766     13768
     13762     13752     13766     13769     13762     13759     13761     13771
     13763     13762     13752     13766     13763     13762     13764     13765
     13764     13762     13752     13766     13767     13766     13769     13770
     13768     13766     13769     13770     13771     13775     13773     13774
     13771     13775     13773     13782     13771     13775     13773     13786
     13771     13776     13778     13791     13771     13776     13779     13780
     13771     13776     13779     13781     13771     13776     13779     13782
     13772     13771     13775     13773     13772     13771     13776     13777
     13772     13771     13776     13778     13772     13771     13776     13779
     13773     13775     13771     13776     13773     13782     13779     13776
     13773     13782     13779     13780     13773     13782     13779     13781
     13773     13782     13784     13785     13773     13786     13789     13790
     13774     13773     13782     13779     13774     13773     13782     13783
     13774     13773     13782     13784     13774     13773     13786     13787
     13774     13773     13786     13788     13774     13773     13786     13789
     13775     13771     13776     13777     13775     13771     13776     13778
     13775     13771     13776     13779     13775     13773     13782     13779
     13775     13773     13782     13783     13775     13773     13782     13784
     13775     13773     13786     13787     13775     13773     13786     13788
     13775     13773     13786     13789     13776     13778     13791     13792
     13776     13778     13791     13795     13776     13778     13791     13796
     13776     13779     13781     13834     13776     13779     13782     13783
     13776     13779     13782     13784     13777     13776     13778     13791
     13777     13776     13779     13780     13777     13776     13779     13781
     13777     13776     13779     13782     13778     13776     13779     13780
     13778     13776     13779     13781     13778     13776     13779     13782
     13778     13791     13795     13793     13778     13791     13796     13797
     13778     13791     13796     13798     13778     13791     13796     13799
     13779     13776     13778     13791     13779     13781     13834     13835
     13779     13781     13834     13838     13779     13781     13834     13839
     13779     13782     13773     13786     13779     13782     13784     13785
     13780     13779     13781     13834     13780     13779     13782     13783
     13780     13779     13782     13784     13781     13779     13782     13783
     13781     13779     13782     13784     13781     13834     13838     13836
     13781     13834     13839     13840     13781     13834     13839     13841
     13781     13834     13839     13843     13782     13773     13786     13787
     13782     13773     13786     13788     13782     13773     13786     13789
     13782     13779     13781     13834     13783     13782     13773     13786
     13783     13782     13784     13785     13784     13782     13773     13786
     13787     13786     13789     13790     13788     13786     13789     13790
     13791     13795     13793     13794     13791     13795     13793     13803
     13791     13795     13793     13807     13791     13796     13798     13812
     13791     13796     13799     13800     13791     13796     13799     13801
     13791     13796     13799     13803     13792     13791     13795     13793
     13792     13791     13796     13797     13792     13791     13796     13798
     13792     13791     13796     13799     13793     13795     13791     13796
     13793     13803     13799     13796     13793     13803     13799     13800
     13793     13803     13799     13801     13793     13803     13805     13806
     13793     13807     13810     13811     13794     13793     13803     13799
     13794     13793     13803     13804     13794     13793     13803     13805
     13794     13793     13807     13808     13794     13793     13807     13809
     13794     13793     13807     13810     13795     13791     13796     13797
     13795     13791     13796     13798     13795     13791     13796     13799
     13795     13793     13803     13799     13795     13793     13803     13804
     13795     13793     13803     13805     13795     13793     13807     13808
     13795     13793     13807     13809     13795     13793     13807     13810
     13796     13798     13812     13813     13796     13798     13812     13816
     13796     13798     13812     13817     13796     13799     13801     13802
     13796     13799     13803     13804     13796     13799     13803     13805
     13797     13796     13798     13812     13797     13796     13799     13800
     13797     13796     13799     13801     13797     13796     13799     13803
     13798     13796     13799     13800     13798     13796     13799     13801
     13798     13796     13799     13803     13798     13812     13816     13814
     13798     13812     13817     13818     13798     13812     13817     13819
     13798     13812     13817     13821     13799     13796     13798     13812
     13799     13803     13793     13807     13799     13803     13805     13806
     13800     13799     13801     13802     13800     13799     13803     13804
     13800     13799     13803     13805     13801     13799     13803     13804
     13801     13799     13803     13805     13802     13801     13799     13803
     13803     13793     13807     13808     13803     13793     13807     13809
     13803     13793     13807     13810     13804     13803     13793     13807
     13804     13803     13805     13806     13805     13803     13793     13807
     13808     13807     13810     13811     13809     13807     13810     13811
     13812     13816     13814     13815     13812     13816     13814     13825
     13812     13816     13814     13829     13812     13817     13819     13820
     13812     13817     13821     13822     13812     13817     13821     13823
     13812     13817     13821     13825     13813     13812     13816     13814
     13813     13812     13817     13818     13813     13812     13817     13819
     13813     13812     13817     13821     13814     13816     13812     13817
     13814     13825     13821     13817     13814     13825     13821     13822
     13814     13825     13821     13823     13814     13825     13827     13828
     13814     13829     13832     13833     13815     13814     13825     13821
     13815     13814     13825     13826     13815     13814     13825     13827
     13815     13814     13829     13830     13815     13814     13829     13831
     13815     13814     13829     13832     13816     13812     13817     13818
     13816     13812     13817     13819     13816     13812     13817     13821
     13816     13814     13825     13821     13816     13814     13825     13826
     13816     13814     13825     13827     13816     13814     13829     13830
     13816     13814     13829     13831     13816     13814     13829     13832
     13817     13821     13823     13824     13817     13821     13825     13826
     13817     13821     13825     13827     13818     13817     13819     13820
     13818     13817     13821     13822     13818     13817     13821     13823
     13818     13817     13821     13825     13819     13817     13821     13822
     13819     13817     13821     13823     13819     13817     13821     13825
     13820     13819     13817     13821     13821     13825     13814     13829
     13821     13825     13827     13828     13822     13821     13823     13824
     13822     13821     13825     13826     13822     13821     13825     13827
     13823     13821     13825     13826     13823     13821     13825     13827
     13824     13823     13821     13825     13825     13814     13829     13830
     13825     13814     13829     13831     13825     13814     13829     13832
     13826     13825     13814     13829     13826     13825     13827     13828
     13827     13825     13814     13829     13830     13829     13832     13833
     13831     13829     13832     13833     13834     13838     13836     13837
     13834     13838     13836     13846     13834     13838     13836     13850
     13834     13839     13841     13842     13834     13839     13843     13844
     13834     13839     13843     13845     13834     13839     13843     13846
     13835     13834     13838     13836     13835     13834     13839     13840
     13835     13834     13839     13841     13835     13834     13839     13843
     13836     13838     13834     13839     13836     13846     13843     13839
     13836     13846     13843     13844     13836     13846     13843     13845
     13836     13846     13848     13849     13836     13850     13853     13854
     13837     13836     13846     13843     13837     13836     13846     13847
     13837     13836     13846     13848     13837     13836     13850     13851
     13837     13836     13850     13852     13837     13836     13850     13853
     13838     13834     13839     13840     13838     13834     13839     13841
     13838     13834     13839     13843     13838     13836     13846     13843
     13838     13836     13846     13847     13838     13836     13846     13848
     13838     13836     13850     13851     13838     13836     13850     13852
     13838     13836     13850     13853     13839     13843     13845     13855
     13839     13843     13846     13847     13839     13843     13846     13848
     13840     13839     13841     13842     13840     13839     13843     13844
     13840     13839     13843     13845     13840     13839     13843     13846
     13841     13839     13843     13844     13841     13839     13843     13845
     13841     13839     13843     13846     13842     13841     13839     13843
     13843     13845     13855     13856     13843     13845     13855     13859
     13843     13845     13855     13860     13843     13846     13836     13850
     13843     13846     13848     13849     13844     13843     13845     13855
     13844     13843     13846     13847     13844     13843     13846     13848
     13845     13843     13846     13847     13845     13843     13846     13848
     13845     13855     13859     13857     13845     13855     13860     13861
     13845     13855     13860     13862     13845     13855     13860     13870
     13846     13836     13850     13851     13846     13836     13850     13852
     13846     13836     13850     13853     13846     13843     13845     13855
     13847     13846     13836     13850     13847     13846     13848     13849
     13848     13846     13836     13850     13851     13850     13853     13854
     13852     13850     13853     13854     13855     13859     13857     13858
     13855     13859     13857     13873     13855     13859     13857     13877
     13855     13860     13862     13863     13855     13860     13862     13864
     13855     13860     13870     13871     13855     13860     13870     13872
     13855     13860     13870     13873     13856     13855     13859     13857
     13856     13855     13860     13861     13856     13855     13860     13862
     13856     13855     13860     13870     13857     13859     13855     13860
     13857     13873     13870     13860     13857     13873     13870     13871
     13857     13873     13870     13872     13857     13873     13875     13876
     13857     13877     13880     13881     13858     13857     13873     13870
     13858     13857     13873     13874     13858     13857     13873     13875
     13858     13857     13877     13878     13858     13857     13877     13879
     13858     13857     13877     13880     13859     13855     13860     13861
     13859     13855     13860     13862     13859     13855     13860     13870
     13859     13857     13873     13870     13859     13857     13873     13874
     13859     13857     13873     13875     13859     13857     13877     13878
     13859     13857     13877     13879     13859     13857     13877     13880
     13860     13862     13864     13865     13860     13862     13864     13866
     13860     13870     13872     13882     13860     13870     13873     13874
     13860     13870     13873     13875     13861     13860     13862     13863
     13861     13860     13862     13864     13861     13860     13870     13871
     13861     13860     13870     13872     13861     13860     13870     13873
     13862     13860     13870     13871     13862     13860     13870     13872
     13862     13860     13870     13873     13862     13864     13866     13867
     13862     13864     13866     13868     13862     13864     13866     13869
     13863     13862     13860     13870     13863     13862     13864     13865
     13863     13862     13864     13866     13864     13862     13860     13870
     13865     13864     13866     13867     13865     13864     13866     13868
     13865     13864     13866     13869     13870     13872     13882     13883
     13870     13872     13882     13886     13870     13872     13882     13887
     13870     13873     13857     13877     13870     13873     13875     13876
     13871     13870     13872     13882     13871     13870     13873     13874
     13871     13870     13873     13875     13872     13870     13873     13874
     13872     13870     13873     13875     13872     13882     13886     13884
     13872     13882     13887     13888     13872     13882     13887     13889
     13872     13882     13887     13890     13873     13857     13877     13878
     13873     13857     13877     13879     13873     13857     13877     13880
     13873     13870     13872     13882     13874     13873     13857     13877
     13874     13873     13875     13876     13875     13873     13857     13877
     13878     13877     13880     13881     13879     13877     13880     13881
     13882     13886     13884     13885     13882     13886     13884     13894
     13882     13886     13884     13898     13882     13887     13889     13903
     13882     13887     13890     13891     13882     13887     13890     13892
     13882     13887     13890     13894     13883     13882     13886     13884
     13883     13882     13887     13888     13883     13882     13887     13889
     13883     13882     13887     13890     13884     13886     13882     13887
     13884     13894     13890     13887     13884     13894     13890     13891
     13884     13894     13890     13892     13884     13894     13896     13897
     13884     13898     13901     13902     13885     13884     13894     13890
     13885     13884     13894     13895     13885     13884     13894     13896
     13885     13884     13898     13899     13885     13884     13898     13900
     13885     13884     13898     13901     13886     13882     13887     13888
     13886     13882     13887     13889     13886     13882     13887     13890
     13886     13884     13894     13890     13886     13884     13894     13895
     13886     13884     13894     13896     13886     13884     13898     13899
     13886     13884     13898     13900     13886     13884     13898     13901
     13887     13889     13903     13904     13887     13889     13903     13907
     13887     13889     13903     13908     13887     13890     13892     13893
     13887     13890     13894     13895     13887     13890     13894     13896
     13888     13887     13889     13903     13888     13887     13890     13891
     13888     13887     13890     13892     13888     13887     13890     13894
     13889     13887     13890     13891     13889     13887     13890     13892
     13889     13887     13890     13894     13889     13903     13907     13905
     13889     13903     13908     13909     13889     13903     13908     13910
     13889     13903     13908     13911     13890     13887     13889     13903
     13890     13894     13884     13898     13890     13894     13896     13897
     13891     13890     13892     13893     13891     13890     13894     13895
     13891     13890     13894     13896     13892     13890     13894     13895
     13892     13890     13894     13896     13893     13892     13890     13894
     13894     13884     13898     13899     13894     13884     13898     13900
     13894     13884     13898     13901     13895     13894     13884     13898
     13895     13894     13896     13897     13896     13894     13884     13898
     13899     13898     13901     13902     13900     13898     13901     13902
     13903     13907     13905     13906     13903     13907     13905     13915
     13903     13907     13905     13919     13903     13908     13910     13923
     13903     13908     13911     13912     13903     13908     13911     13913
     13903     13908     13911     13915     13904     13903     13907     13905
     13904     13903     13908     13909     13904     13903     13908     13910
     13904     13903     13908     13911     13905     13907     13903     13908
     13905     13915     13911     13908     13905     13915     13911     13912
     13905     13915     13911     13913     13905     13915     13917     13918
     13906     13905     13915     13911     13906     13905     13915     13916
     13906     13905     13915     13917     13906     13905     13919     13920
     13906     13905     13919     13921     13906     13905     13919     13922
     13907     13903     13908     13909     13907     13903     13908     13910
     13907     13903     13908     13911     13907     13905     13915     13911
     13907     13905     13915     13916     13907     13905     13915     13917
     13907     13905     13919     13920     13907     13905     13919     13921
     13907     13905     13919     13922     13908     13910     13923     13924
     13908     13910     13923     13927     13908     13910     13923     13928
     13908     13911     13913     13914     13908     13911     13915     13916
     13908     13911     13915     13917     13909     13908     13910     13923
     13909     13908     13911     13912     13909     13908     13911     13913
     13909     13908     13911     13915     13910     13908     13911     13912
     13910     13908     13911     13913     13910     13908     13911     13915
     13910     13923     13927     13925     13910     13923     13928     13929
     13910     13923     13928     13930     13910     13923     13928     13931
     13911     13908     13910     13923     13911     13915     13905     13919
     13911     13915     13917     13918     13912     13911     13913     13914
     13912     13911     13915     13916     13912     13911     13915     13917
     13913     13911     13915     13916     13913     13911     13915     13917
     13914     13913     13911     13915     13915     13905     13919     13920
     13915     13905     13919     13921     13915     13905     13919     13922
     13916     13915     13905     13919     13916     13915     13917     13918
     13917     13915     13905     13919     13923     13927     13925     13926
     13923     13927     13925     13934     13923     13927     13925     13938
     13923     13928     13930     13942     13923     13928     13931     13932
     13923     13928     13931     13933     13923     13928     13931     13934
     13924     13923     13927     13925     13924     13923     13928     13929
     13924     13923     13928     13930     13924     13923     13928     13931
     13925     13927     13923     13928     13925     13934     13931     13928
     13925     13934     13931     13932     13925     13934     13931     13933
     13925     13934     13936     13937     13926     13925     13934     13931
     13926     13925     13934     13935     13926     13925     13934     13936
     13926     13925     13938     13939     13926     13925     13938     13940
     13926     13925     13938     13941     13927     13923     13928     13929
     13927     13923     13928     13930     13927     13923     13928     13931
     13927     13925     13934     13931     13927     13925     13934     13935
     13927     13925     13934     13936     13927     13925     13938     13939
     13927     13925     13938     13940     13927     13925     13938     13941
     13928     13930     13942     13943     13928     13930     13942     13946
     13928     13930     13942     13947     13928     13931     13933     13970
     13928     13931     13934     13935     13928     13931     13934     13936
     13929     13928     13930     13942     13929     13928     13931     13932
     13929     13928     13931     13933     13929     13928     13931     13934
     13930     13928     13931     13932     13930     13928     13931     13933
     13930     13928     13931     13934     13930     13942     13946     13944
     13930     13942     13947     13948     13930     13942     13947     13949
     13930     13942     13947     13957     13931     13928     13930     13942
     13931     13933     13970     13971     13931     13933     13970     13974
     13931     13933     13970     13975     13931     13934     13925     13938
     13931     13934     13936     13937     13932     13931     13933     13970
     13932     13931     13934     13935     13932     13931     13934     13936
     13933     13931     13934     13935     13933     13931     13934     13936
     13933     13970     13974     13972     13933     13970     13975     13976
     13933     13970     13975     13977     13933     13970     13975     13985
     13934     13925     13938     13939     13934     13925     13938     13940
     13934     13925     13938     13941     13934     13931     13933     13970
     13935     13934     13925     13938     13935     13934     13936     13937
     13936     13934     13925     13938     13942     13946     13944     13945
     13942     13946     13944     13961     13942     13946     13944     13965
     13942     13947     13949     13950     13942     13947     13949     13951
     13942     13947     13957     13958     13942     13947     13957     13959
     13942     13947     13957     13961     13943     13942     13946     13944
     13943     13942     13947     13948     13943     13942     13947     13949
     13943     13942     13947     13957     13944     13946     13942     13947
     13944     13961     13957     13947     13944     13961     13957     13958
     13944     13961     13957     13959     13944     13961     13963     13964
     13944     13965     13968     13969     13945     13944     13961     13957
     13945     13944     13961     13962     13945     13944     13961     13963
     13945     13944     13965     13966     13945     13944     13965     13967
     13945     13944     13965     13968     13946     13942     13947     13948
     13946     13942     13947     13949     13946     13942     13947     13957
     13946     13944     13961     13957     13946     13944     13961     13962
     13946     13944     13961     13963     13946     13944     13965     13966
     13946     13944     13965     13967     13946     13944     13965     13968
     13947     13949     13951     13952     13947     13949     13951     13953
     13947     13957     13959     13960     13947     13957     13961     13962
     13947     13957     13961     13963     13948     13947     13949     13950
     13948     13947     13949     13951     13948     13947     13957     13958
     13948     13947     13957     13959     13948     13947     13957     13961
     13949     13947     13957     13958     13949     13947     13957     13959
     13949     13947     13957     13961     13949     13951     13953     13954
     13949     13951     13953     13955     13949     13951     13953     13956
     13950     13949     13947     13957     13950     13949     13951     13952
     13950     13949     13951     13953     13951     13949     13947     13957
     13952     13951     13953     13954     13952     13951     13953     13955
     13952     13951     13953     13956     13957     13961     13944     13965
     13957     13961     13963     13964     13958     13957     13959     13960
     13958     13957     13961     13962     13958     13957     13961     13963
     13959     13957     13961     13962     13959     13957     13961     13963
     13960     13959     13957     13961     13961     13944     13965     13966
     13961     13944     13965     13967     13961     13944     13965     13968
     13962     13961     13944     13965     13962     13961     13963     13964
     13963     13961     13944     13965     13966     13965     13968     13969
     13967     13965     13968     13969     13970     13974     13972     13973
     13970     13974     13972     13988     13970     13974     13972     13992
     13970     13975     13977     13978     13970     13975     13977     13979
     13970     13975     13985     13986     13970     13975     13985     13987
     13970     13975     13985     13988     13971     13970     13974     13972
     13971     13970     13975     13976     13971     13970     13975     13977
     13971     13970     13975     13985     13972     13974     13970     13975
     13972     13988     13985     13975     13972     13988     13985     13986
     13972     13988     13985     13987     13972     13988     13990     13991
     13972     13992     13995     13996     13973     13972     13988     13985
     13973     13972     13988     13989     13973     13972     13988     13990
     13973     13972     13992     13993     13973     13972     13992     13994
     13973     13972     13992     13995     13974     13970     13975     13976
     13974     13970     13975     13977     13974     13970     13975     13985
     13974     13972     13988     13985     13974     13972     13988     13989
     13974     13972     13988     13990     13974     13972     13992     13993
     13974     13972     13992     13994     13974     13972     13992     13995
     13975     13977     13979     13980     13975     13977     13979     13981
     13975     13985     13987     13997     13975     13985     13988     13989
     13975     13985     13988     13990     13976     13975     13977     13978
     13976     13975     13977     13979     13976     13975     13985     13986
     13976     13975     13985     13987     13976     13975     13985     13988
     13977     13975     13985     13986     13977     13975     13985     13987
     13977     13975     13985     13988     13977     13979     13981     13982
     13977     13979     13981     13983     13977     13979     13981     13984
     13978     13977     13975     13985     13978     13977     13979     13980
     13978     13977     13979     13981     13979     13977     13975     13985
     13980     13979     13981     13982     13980     13979     13981     13983
     13980     13979     13981     13984     13985     13987     13997     13998
     13985     13987     13997     14001     13985     13987     13997     14002
     13985     13988     13972     13992     13985     13988     13990     13991
     13986     13985     13987     13997     13986     13985     13988     13989
     13986     13985     13988     13990     13987     13985     13988     13989
     13987     13985     13988     13990     13987     13997     14001     13999
     13987     13997     14002     14003     13987     13997     14002     14004
     13987     13997     14002     14005     13988     13972     13992     13993
     13988     13972     13992     13994     13988     13972     13992     13995
     13988     13985     13987     13997     13989     13988     13972     13992
     13989     13988     13990     13991     13990     13988     13972     13992
     13993     13992     13995     13996     13994     13992     13995     13996
     13997     14001     13999     14000     13997     14001     13999     14009
     13997     14001     13999     14013     13997     14002     14004     14018
     13997     14002     14005     14006     13997     14002     14005     14007
     13997     14002     14005     14009     13998     13997     14001     13999
     13998     13997     14002     14003     13998     13997     14002     14004
     13998     13997     14002     14005     13999     14001     13997     14002
     13999     14009     14005     14002     13999     14009     14005     14006
     13999     14009     14005     14007     13999     14009     14011     14012
     13999     14013     14016     14017     14000     13999     14009     14005
     14000     13999     14009     14010     14000     13999     14009     14011
     14000     13999     14013     14014     14000     13999     14013     14015
     14000     13999     14013     14016     14001     13997     14002     14003
     14001     13997     14002     14004     14001     13997     14002     14005
     14001     13999     14009     14005     14001     13999     14009     14010
     14001     13999     14009     14011     14001     13999     14013     14014
     14001     13999     14013     14015     14001     13999     14013     14016
     14002     14004     14018     14019     14002     14004     14018     14022
     14002     14004     14018     14023     14002     14005     14007     14008
     14002     14005     14009     14010     14002     14005     14009     14011
     14003     14002     14004     14018     14003     14002     14005     14006
     14003     14002     14005     14007     14003     14002     14005     14009
     14004     14002     14005     14006     14004     14002     14005     14007
     14004     14002     14005     14009     14004     14018     14022     14020
     14004     14018     14023     14024     14004     14018     14023     14025
     14004     14018     14023     14026     14005     14002     14004     14018
     14005     14009     13999     14013     14005     14009     14011     14012
     14006     14005     14007     14008     14006     14005     14009     14010
     14006     14005     14009     14011     14007     14005     14009     14010
     14007     14005     14009     14011     14008     14007     14005     14009
     14009     13999     14013     14014     14009     13999     14013     14015
     14009     13999     14013     14016     14010     14009     13999     14013
     14010     14009     14011     14012     14011     14009     13999     14013
     14014     14013     14016     14017     14015     14013     14016     14017
     14018     14022     14020     14021     14018     14022     14020     14030
     14018     14022     14020     14034     14018     14023     14025     14038
     14018     14023     14026     14027     14018     14023     14026     14028
     14018     14023     14026     14030     14019     14018     14022     14020
     14019     14018     14023     14024     14019     14018     14023     14025
     14019     14018     14023     14026     14020     14022     14018     14023
     14020     14030     14026     14023     14020     14030     14026     14027
     14020     14030     14026     14028     14020     14030     14032     14033
     14021     14020     14030     14026     14021     14020     14030     14031
     14021     14020     14030     14032     14021     14020     14034     14035
     14021     14020     14034     14036     14021     14020     14034     14037
     14022     14018     14023     14024     14022     14018     14023     14025
     14022     14018     14023     14026     14022     14020     14030     14026
     14022     14020     14030     14031     14022     14020     14030     14032
     14022     14020     14034     14035     14022     14020     14034     14036
     14022     14020     14034     14037     14023     14025     14038     14039
     14023     14025     14038     14042     14023     14025     14038     14043
     14023     14026     14028     14029     14023     14026     14030     14031
     14023     14026     14030     14032     14024     14023     14025     14038
     14024     14023     14026     14027     14024     14023     14026     14028
     14024     14023     14026     14030     14025     14023     14026     14027
     14025     14023     14026     14028     14025     14023     14026     14030
     14025     14038     14042     14040     14025     14038     14043     14044
     14025     14038     14043     14045     14025     14038     14043     14046
     14026     14023     14025     14038     14026     14030     14020     14034
     14026     14030     14032     14033     14027     14026     14028     14029
     14027     14026     14030     14031     14027     14026     14030     14032
     14028     14026     14030     14031     14028     14026     14030     14032
     14029     14028     14026     14030     14030     14020     14034     14035
     14030     14020     14034     14036     14030     14020     14034     14037
     14031     14030     14020     14034     14031     14030     14032     14033
     14032     14030     14020     14034     14038     14042     14040     14041
     14038     14042     14040     14049     14038     14042     14040     14053
     14038     14043     14045     14057     14038     14043     14046     14047
     14038     14043     14046     14048     14038     14043     14046     14049
     14039     14038     14042     14040     14039     14038     14043     14044
     14039     14038     14043     14045     14039     14038     14043     14046
     14040     14042     14038     14043     14040     14049     14046     14043
     14040     14049     14046     14047     14040     14049     14046     14048
     14040     14049     14051     14052     14041     14040     14049     14046
     14041     14040     14049     14050     14041     14040     14049     14051
     14041     14040     14053     14054     14041     14040     14053     14055
     14041     14040     14053     14056     14042     14038     14043     14044
     14042     14038     14043     14045     14042     14038     14043     14046
     14042     14040     14049     14046     14042     14040     14049     14050
     14042     14040     14049     14051     14042     14040     14053     14054
     14042     14040     14053     14055     14042     14040     14053     14056
     14043     14045     14057     14058     14043     14045     14057     14061
     14043     14045     14057     14062     14043     14046     14048     14085
     14043     14046     14049     14050     14043     14046     14049     14051
     14044     14043     14045     14057     14044     14043     14046     14047
     14044     14043     14046     14048     14044     14043     14046     14049
     14045     14043     14046     14047     14045     14043     14046     14048
     14045     14043     14046     14049     14045     14057     14061     14059
     14045     14057     14062     14063     14045     14057     14062     14064
     14045     14057     14062     14072     14046     14043     14045     14057
     14046     14048     14085     14086     14046     14048     14085     14089
     14046     14048     14085     14090     14046     14049     14040     14053
     14046     14049     14051     14052     14047     14046     14048     14085
     14047     14046     14049     14050     14047     14046     14049     14051
     14048     14046     14049     14050     14048     14046     14049     14051
     14048     14085     14089     14087     14048     14085     14090     14091
     14048     14085     14090     14092     14048     14085     14090     14100
     14049     14040     14053     14054     14049     14040     14053     14055
     14049     14040     14053     14056     14049     14046     14048     14085
     14050     14049     14040     14053     14050     14049     14051     14052
     14051     14049     14040     14053     14057     14061     14059     14060
     14057     14061     14059     14076     14057     14061     14059     14080
     14057     14062     14064     14065     14057     14062     14064     14066
     14057     14062     14072     14073     14057     14062     14072     14074
     14057     14062     14072     14076     14058     14057     14061     14059
     14058     14057     14062     14063     14058     14057     14062     14064
     14058     14057     14062     14072     14059     14061     14057     14062
     14059     14076     14072     14062     14059     14076     14072     14073
     14059     14076     14072     14074     14059     14076     14078     14079
     14059     14080     14083     14084     14060     14059     14076     14072
     14060     14059     14076     14077     14060     14059     14076     14078
     14060     14059     14080     14081     14060     14059     14080     14082
     14060     14059     14080     14083     14061     14057     14062     14063
     14061     14057     14062     14064     14061     14057     14062     14072
     14061     14059     14076     14072     14061     14059     14076     14077
     14061     14059     14076     14078     14061     14059     14080     14081
     14061     14059     14080     14082     14061     14059     14080     14083
     14062     14064     14066     14067     14062     14064     14066     14068
     14062     14072     14074     14075     14062     14072     14076     14077
     14062     14072     14076     14078     14063     14062     14064     14065
     14063     14062     14064     14066     14063     14062     14072     14073
     14063     14062     14072     14074     14063     14062     14072     14076
     14064     14062     14072     14073     14064     14062     14072     14074
     14064     14062     14072     14076     14064     14066     14068     14069
     14064     14066     14068     14070     14064     14066     14068     14071
     14065     14064     14062     14072     14065     14064     14066     14067
     14065     14064     14066     14068     14066     14064     14062     14072
     14067     14066     14068     14069     14067     14066     14068     14070
     14067     14066     14068     14071     14072     14076     14059     14080
     14072     14076     14078     14079     14073     14072     14074     14075
     14073     14072     14076     14077     14073     14072     14076     14078
     14074     14072     14076     14077     14074     14072     14076     14078
     14075     14074     14072     14076     14076     14059     14080     14081
     14076     14059     14080     14082     14076     14059     14080     14083
     14077     14076     14059     14080     14077     14076     14078     14079
     14078     14076     14059     14080     14081     14080     14083     14084
     14082     14080     14083     14084     14085     14089     14087     14088
     14085     14089     14087     14103     14085     14089     14087     14107
     14085     14090     14092     14093     14085     14090     14092     14094
     14085     14090     14100     14101     14085     14090     14100     14102
     14085     14090     14100     14103     14086     14085     14089     14087
     14086     14085     14090     14091     14086     14085     14090     14092
     14086     14085     14090     14100     14087     14089     14085     14090
     14087     14103     14100     14090     14087     14103     14100     14101
     14087     14103     14100     14102     14087     14103     14105     14106
     14087     14107     14110     14111     14088     14087     14103     14100
     14088     14087     14103     14104     14088     14087     14103     14105
     14088     14087     14107     14108     14088     14087     14107     14109
     14088     14087     14107     14110     14089     14085     14090     14091
     14089     14085     14090     14092     14089     14085     14090     14100
     14089     14087     14103     14100     14089     14087     14103     14104
     14089     14087     14103     14105     14089     14087     14107     14108
     14089     14087     14107     14109     14089     14087     14107     14110
     14090     14092     14094     14095     14090     14092     14094     14096
     14090     14100     14102     14112     14090     14100     14103     14104
     14090     14100     14103     14105     14091     14090     14092     14093
     14091     14090     14092     14094     14091     14090     14100     14101
     14091     14090     14100     14102     14091     14090     14100     14103
     14092     14090     14100     14101     14092     14090     14100     14102
     14092     14090     14100     14103     14092     14094     14096     14097
     14092     14094     14096     14098     14092     14094     14096     14099
     14093     14092     14090     14100     14093     14092     14094     14095
     14093     14092     14094     14096     14094     14092     14090     14100
     14095     14094     14096     14097     14095     14094     14096     14098
     14095     14094     14096     14099     14100     14102     14112     14113
     14100     14102     14112     14116     14100     14102     14112     14117
     14100     14103     14087     14107     14100     14103     14105     14106
     14101     14100     14102     14112     14101     14100     14103     14104
     14101     14100     14103     14105     14102     14100     14103     14104
     14102     14100     14103     14105     14102     14112     14116     14114
     14102     14112     14117     14118     14102     14112     14117     14119
     14102     14112     14117     14120     14103     14087     14107     14108
     14103     14087     14107     14109     14103     14087     14107     14110
     14103     14100     14102     14112     14104     14103     14087     14107
     14104     14103     14105     14106     14105     14103     14087     14107
     14108     14107     14110     14111     14109     14107     14110     14111
     14112     14116     14114     14115     14112     14116     14114     14124
     14112     14116     14114     14128     14112     14117     14119     14133
     14112     14117     14120     14121     14112     14117     14120     14122
     14112     14117     14120     14124     14113     14112     14116     14114
     14113     14112     14117     14118     14113     14112     14117     14119
     14113     14112     14117     14120     14114     14116     14112     14117
     14114     14124     14120     14117     14114     14124     14120     14121
     14114     14124     14120     14122     14114     14124     14126     14127
     14114     14128     14131     14132     14115     14114     14124     14120
     14115     14114     14124     14125     14115     14114     14124     14126
     14115     14114     14128     14129     14115     14114     14128     14130
     14115     14114     14128     14131     14116     14112     14117     14118
     14116     14112     14117     14119     14116     14112     14117     14120
     14116     14114     14124     14120     14116     14114     14124     14125
     14116     14114     14124     14126     14116     14114     14128     14129
     14116     14114     14128     14130     14116     14114     14128     14131
     14117     14119     14133     14134     14117     14119     14133     14137
     14117     14119     14133     14138     14117     14120     14122     14123
     14117     14120     14124     14125     14117     14120     14124     14126
     14118     14117     14119     14133     14118     14117     14120     14121
     14118     14117     14120     14122     14118     14117     14120     14124
     14119     14117     14120     14121     14119     14117     14120     14122
     14119     14117     14120     14124     14119     14133     14137     14135
     14119     14133     14138     14139     14119     14133     14138     14140
     14119     14133     14138     14141     14120     14117     14119     14133
     14120     14124     14114     14128     14120     14124     14126     14127
     14121     14120     14122     14123     14121     14120     14124     14125
     14121     14120     14124     14126     14122     14120     14124     14125
     14122     14120     14124     14126     14123     14122     14120     14124
     14124     14114     14128     14129     14124     14114     14128     14130
     14124     14114     14128     14131     14125     14124     14114     14128
     14125     14124     14126     14127     14126     14124     14114     14128
     14129     14128     14131     14132     14130     14128     14131     14132
     14133     14137     14135     14136     14133     14137     14135     14145
     14133     14137     14135     14149     14133     14138     14140     14153
     14133     14138     14141     14142     14133     14138     14141     14143
     14133     14138     14141     14145     14134     14133     14137     14135
     14134     14133     14138     14139     14134     14133     14138     14140
     14134     14133     14138     14141     14135     14137     14133     14138
     14135     14145     14141     14138     14135     14145     14141     14142
     14135     14145     14141     14143     14135     14145     14147     14148
     14136     14135     14145     14141     14136     14135     14145     14146
     14136     14135     14145     14147     14136     14135     14149     14150
     14136     14135     14149     14151     14136     14135     14149     14152
     14137     14133     14138     14139     14137     14133     14138     14140
     14137     14133     14138     14141     14137     14135     14145     14141
     14137     14135     14145     14146     14137     14135     14145     14147
     14137     14135     14149     14150     14137     14135     14149     14151
     14137     14135     14149     14152     14138     14140     14153     14154
     14138     14140     14153     14157     14138     14140     14153     14158
     14138     14141     14143     14144     14138     14141     14145     14146
     14138     14141     14145     14147     14139     14138     14140     14153
     14139     14138     14141     14142     14139     14138     14141     14143
     14139     14138     14141     14145     14140     14138     14141     14142
     14140     14138     14141     14143     14140     14138     14141     14145
     14140     14153     14157     14155     14140     14153     14158     14159
     14140     14153     14158     14160     14140     14153     14158     14161
     14141     14138     14140     14153     14141     14145     14135     14149
     14141     14145     14147     14148     14142     14141     14143     14144
     14142     14141     14145     14146     14142     14141     14145     14147
     14143     14141     14145     14146     14143     14141     14145     14147
     14144     14143     14141     14145     14145     14135     14149     14150
     14145     14135     14149     14151     14145     14135     14149     14152
     14146     14145     14135     14149     14146     14145     14147     14148
     14147     14145     14135     14149     14153     14157     14155     14156
     14153     14157     14155     14164     14153     14157     14155     14168
     14153     14158     14160     14172     14153     14158     14161     14162
     14153     14158     14161     14163     14153     14158     14161     14164
     14154     14153     14157     14155     14154     14153     14158     14159
     14154     14153     14158     14160     14154     14153     14158     14161
     14155     14157     14153     14158     14155     14164     14161     14158
     14155     14164     14161     14162     14155     14164     14161     14163
     14155     14164     14166     14167     14156     14155     14164     14161
     14156     14155     14164     14165     14156     14155     14164     14166
     14156     14155     14168     14169     14156     14155     14168     14170
     14156     14155     14168     14171     14157     14153     14158     14159
     14157     14153     14158     14160     14157     14153     14158     14161
     14157     14155     14164     14161     14157     14155     14164     14165
     14157     14155     14164     14166     14157     14155     14168     14169
     14157     14155     14168     14170     14157     14155     14168     14171
     14158     14160     14172     14173     14158     14160     14172     14176
     14158     14160     14172     14177     14158     14161     14163     14200
     14158     14161     14164     14165     14158     14161     14164     14166
     14159     14158     14160     14172     14159     14158     14161     14162
     14159     14158     14161     14163     14159     14158     14161     14164
     14160     14158     14161     14162     14160     14158     14161     14163
     14160     14158     14161     14164     14160     14172     14176     14174
     14160     14172     14177     14178     14160     14172     14177     14179
     14160     14172     14177     14187     14161     14158     14160     14172
     14161     14163     14200     14201     14161     14163     14200     14204
     14161     14163     14200     14205     14161     14164     14155     14168
     14161     14164     14166     14167     14162     14161     14163     14200
     14162     14161     14164     14165     14162     14161     14164     14166
     14163     14161     14164     14165     14163     14161     14164     14166
     14163     14200     14204     14202     14163     14200     14205     14206
     14163     14200     14205     14207     14163     14200     14205     14215
     14164     14155     14168     14169     14164     14155     14168     14170
     14164     14155     14168     14171     14164     14161     14163     14200
     14165     14164     14155     14168     14165     14164     14166     14167
     14166     14164     14155     14168     14172     14176     14174     14175
     14172     14176     14174     14191     14172     14176     14174     14195
     14172     14177     14179     14180     14172     14177     14179     14181
     14172     14177     14187     14188     14172     14177     14187     14189
     14172     14177     14187     14191     14173     14172     14176     14174
     14173     14172     14177     14178     14173     14172     14177     14179
     14173     14172     14177     14187     14174     14176     14172     14177
     14174     14191     14187     14177     14174     14191     14187     14188
     14174     14191     14187     14189     14174     14191     14193     14194
     14174     14195     14198     14199     14175     14174     14191     14187
     14175     14174     14191     14192     14175     14174     14191     14193
     14175     14174     14195     14196     14175     14174     14195     14197
     14175     14174     14195     14198     14176     14172     14177     14178
     14176     14172     14177     14179     14176     14172     14177     14187
     14176     14174     14191     14187     14176     14174     14191     14192
     14176     14174     14191     14193     14176     14174     14195     14196
     14176     14174     14195     14197     14176     14174     14195     14198
     14177     14179     14181     14182     14177     14179     14181     14183
     14177     14187     14189     14190     14177     14187     14191     14192
     14177     14187     14191     14193     14178     14177     14179     14180
     14178     14177     14179     14181     14178     14177     14187     14188
     14178     14177     14187     14189     14178     14177     14187     14191
     14179     14177     14187     14188     14179     14177     14187     14189
     14179     14177     14187     14191     14179     14181     14183     14184
     14179     14181     14183     14185     14179     14181     14183     14186
     14180     14179     14177     14187     14180     14179     14181     14182
     14180     14179     14181     14183     14181     14179     14177     14187
     14182     14181     14183     14184     14182     14181     14183     14185
     14182     14181     14183     14186     14187     14191     14174     14195
     14187     14191     14193     14194     14188     14187     14189     14190
     14188     14187     14191     14192     14188     14187     14191     14193
     14189     14187     14191     14192     14189     14187     14191     14193
     14190     14189     14187     14191     14191     14174     14195     14196
     14191     14174     14195     14197     14191     14174     14195     14198
     14192     14191     14174     14195     14192     14191     14193     14194
     14193     14191     14174     14195     14196     14195     14198     14199
     14197     14195     14198     14199     14200     14204     14202     14203
     14200     14204     14202     14218     14200     14204     14202     14222
     14200     14205     14207     14208     14200     14205     14207     14209
     14200     14205     14215     14216     14200     14205     14215     14217
     14200     14205     14215     14218     14201     14200     14204     14202
     14201     14200     14205     14206     14201     14200     14205     14207
     14201     14200     14205     14215     14202     14204     14200     14205
     14202     14218     14215     14205     14202     14218     14215     14216
     14202     14218     14215     14217     14202     14218     14220     14221
     14202     14222     14225     14226     14203     14202     14218     14215
     14203     14202     14218     14219     14203     14202     14218     14220
     14203     14202     14222     14223     14203     14202     14222     14224
     14203     14202     14222     14225     14204     14200     14205     14206
     14204     14200     14205     14207     14204     14200     14205     14215
     14204     14202     14218     14215     14204     14202     14218     14219
     14204     14202     14218     14220     14204     14202     14222     14223
     14204     14202     14222     14224     14204     14202     14222     14225
     14205     14207     14209     14210     14205     14207     14209     14211
     14205     14215     14217     14227     14205     14215     14218     14219
     14205     14215     14218     14220     14206     14205     14207     14208
     14206     14205     14207     14209     14206     14205     14215     14216
     14206     14205     14215     14217     14206     14205     14215     14218
     14207     14205     14215     14216     14207     14205     14215     14217
     14207     14205     14215     14218     14207     14209     14211     14212
     14207     14209     14211     14213     14207     14209     14211     14214
     14208     14207     14205     14215     14208     14207     14209     14210
     14208     14207     14209     14211     14209     14207     14205     14215
     14210     14209     14211     14212     14210     14209     14211     14213
     14210     14209     14211     14214     14215     14217     14227     14228
     14215     14217     14227     14231     14215     14217     14227     14232
     14215     14218     14202     14222     14215     14218     14220     14221
     14216     14215     14217     14227     14216     14215     14218     14219
     14216     14215     14218     14220     14217     14215     14218     14219
     14217     14215     14218     14220     14217     14227     14231     14229
     14217     14227     14232     14233     14217     14227     14232     14234
     14217     14227     14232     14235     14218     14202     14222     14223
     14218     14202     14222     14224     14218     14202     14222     14225
     14218     14215     14217     14227     14219     14218     14202     14222
     14219     14218     14220     14221     14220     14218     14202     14222
     14223     14222     14225     14226     14224     14222     14225     14226
     14227     14231     14229     14230     14227     14231     14229     14239
     14227     14231     14229     14243     14227     14232     14234     14248
     14227     14232     14235     14236     14227     14232     14235     14237
     14227     14232     14235     14239     14228     14227     14231     14229
     14228     14227     14232     14233     14228     14227     14232     14234
     14228     14227     14232     14235     14229     14231     14227     14232
     14229     14239     14235     14232     14229     14239     14235     14236
     14229     14239     14235     14237     14229     14239     14241     14242
     14229     14243     14246     14247     14230     14229     14239     14235
     14230     14229     14239     14240     14230     14229     14239     14241
     14230     14229     14243     14244     14230     14229     14243     14245
     14230     14229     14243     14246     14231     14227     14232     14233
     14231     14227     14232     14234     14231     14227     14232     14235
     14231     14229     14239     14235     14231     14229     14239     14240
     14231     14229     14239     14241     14231     14229     14243     14244
     14231     14229     14243     14245     14231     14229     14243     14246
     14232     14234     14248     14249     14232     14234     14248     14252
     14232     14234     14248     14253     14232     14235     14237     14238
     14232     14235     14239     14240     14232     14235     14239     14241
     14233     14232     14234     14248     14233     14232     14235     14236
     14233     14232     14235     14237     14233     14232     14235     14239
     14234     14232     14235     14236     14234     14232     14235     14237
     14234     14232     14235     14239     14234     14248     14252     14250
     14234     14248     14253     14254     14234     14248     14253     14255
     14234     14248     14253     14256     14235     14232     14234     14248
     14235     14239     14229     14243     14235     14239     14241     14242
     14236     14235     14237     14238     14236     14235     14239     14240
     14236     14235     14239     14241     14237     14235     14239     14240
     14237     14235     14239     14241     14238     14237     14235     14239
     14239     14229     14243     14244     14239     14229     14243     14245
     14239     14229     14243     14246     14240     14239     14229     14243
     14240     14239     14241     14242     14241     14239     14229     14243
     14244     14243     14246     14247     14245     14243     14246     14247
     14248     14252     14250     14251     14248     14252     14250     14260
     14248     14252     14250     14264     14248     14253     14255     14268
     14248     14253     14256     14257     14248     14253     14256     14258
     14248     14253     14256     14260     14249     14248     14252     14250
     14249     14248     14253     14254     14249     14248     14253     14255
     14249     14248     14253     14256     14250     14252     14248     14253
     14250     14260     14256     14253     14250     14260     14256     14257
     14250     14260     14256     14258     14250     14260     14262     14263
     14251     14250     14260     14256     14251     14250     14260     14261
     14251     14250     14260     14262     14251     14250     14264     14265
     14251     14250     14264     14266     14251     14250     14264     14267
     14252     14248     14253     14254     14252     14248     14253     14255
     14252     14248     14253     14256     14252     14250     14260     14256
     14252     14250     14260     14261     14252     14250     14260     14262
     14252     14250     14264     14265     14252     14250     14264     14266
     14252     14250     14264     14267     14253     14255     14268     14269
     14253     14255     14268     14272     14253     14255     14268     14273
     14253     14256     14258     14259     14253     14256     14260     14261
     14253     14256     14260     14262     14254     14253     14255     14268
     14254     14253     14256     14257     14254     14253     14256     14258
     14254     14253     14256     14260     14255     14253     14256     14257
     14255     14253     14256     14258     14255     14253     14256     14260
     14255     14268     14272     14270     14255     14268     14273     14274
     14255     14268     14273     14275     14255     14268     14273     14276
     14256     14253     14255     14268     14256     14260     14250     14264
     14256     14260     14262     14263     14257     14256     14258     14259
     14257     14256     14260     14261     14257     14256     14260     14262
     14258     14256     14260     14261     14258     14256     14260     14262
     14259     14258     14256     14260     14260     14250     14264     14265
     14260     14250     14264     14266     14260     14250     14264     14267
     14261     14260     14250     14264     14261     14260     14262     14263
     14262     14260     14250     14264     14268     14272     14270     14271
     14268     14272     14270     14279     14268     14272     14270     14283
     14268     14273     14275     14287     14268     14273     14276     14277
     14268     14273     14276     14278     14268     14273     14276     14279
     14269     14268     14272     14270     14269     14268     14273     14274
     14269     14268     14273     14275     14269     14268     14273     14276
     14270     14272     14268     14273     14270     14279     14276     14273
     14270     14279     14276     14277     14270     14279     14276     14278
     14270     14279     14281     14282     14271     14270     14279     14276
     14271     14270     14279     14280     14271     14270     14279     14281
     14271     14270     14283     14284     14271     14270     14283     14285
     14271     14270     14283     14286     14272     14268     14273     14274
     14272     14268     14273     14275     14272     14268     14273     14276
     14272     14270     14279     14276     14272     14270     14279     14280
     14272     14270     14279     14281     14272     14270     14283     14284
     14272     14270     14283     14285     14272     14270     14283     14286
     14273     14275     14287     14288     14273     14275     14287     14291
     14273     14275     14287     14292     14273     14276     14278     14315
     14273     14276     14279     14280     14273     14276     14279     14281
     14274     14273     14275     14287     14274     14273     14276     14277
     14274     14273     14276     14278     14274     14273     14276     14279
     14275     14273     14276     14277     14275     14273     14276     14278
     14275     14273     14276     14279     14275     14287     14291     14289
     14275     14287     14292     14293     14275     14287     14292     14294
     14275     14287     14292     14302     14276     14273     14275     14287
     14276     14278     14315     14316     14276     14278     14315     14319
     14276     14278     14315     14320     14276     14279     14270     14283
     14276     14279     14281     14282     14277     14276     14278     14315
     14277     14276     14279     14280     14277     14276     14279     14281
     14278     14276     14279     14280     14278     14276     14279     14281
     14278     14315     14319     14317     14278     14315     14320     14321
     14278     14315     14320     14322     14278     14315     14320     14330
     14279     14270     14283     14284     14279     14270     14283     14285
     14279     14270     14283     14286     14279     14276     14278     14315
     14280     14279     14270     14283     14280     14279     14281     14282
     14281     14279     14270     14283     14287     14291     14289     14290
     14287     14291     14289     14306     14287     14291     14289     14310
     14287     14292     14294     14295     14287     14292     14294     14296
     14287     14292     14302     14303     14287     14292     14302     14304
     14287     14292     14302     14306     14288     14287     14291     14289
     14288     14287     14292     14293     14288     14287     14292     14294
     14288     14287     14292     14302     14289     14291     14287     14292
     14289     14306     14302     14292     14289     14306     14302     14303
     14289     14306     14302     14304     14289     14306     14308     14309
     14289     14310     14313     14314     14290     14289     14306     14302
     14290     14289     14306     14307     14290     14289     14306     14308
     14290     14289     14310     14311     14290     14289     14310     14312
     14290     14289     14310     14313     14291     14287     14292     14293
     14291     14287     14292     14294     14291     14287     14292     14302
     14291     14289     14306     14302     14291     14289     14306     14307
     14291     14289     14306     14308     14291     14289     14310     14311
     14291     14289     14310     14312     14291     14289     14310     14313
     14292     14294     14296     14297     14292     14294     14296     14298
     14292     14302     14304     14305     14292     14302     14306     14307
     14292     14302     14306     14308     14293     14292     14294     14295
     14293     14292     14294     14296     14293     14292     14302     14303
     14293     14292     14302     14304     14293     14292     14302     14306
     14294     14292     14302     14303     14294     14292     14302     14304
     14294     14292     14302     14306     14294     14296     14298     14299
     14294     14296     14298     14300     14294     14296     14298     14301
     14295     14294     14292     14302     14295     14294     14296     14297
     14295     14294     14296     14298     14296     14294     14292     14302
     14297     14296     14298     14299     14297     14296     14298     14300
     14297     14296     14298     14301     14302     14306     14289     14310
     14302     14306     14308     14309     14303     14302     14304     14305
     14303     14302     14306     14307     14303     14302     14306     14308
     14304     14302     14306     14307     14304     14302     14306     14308
     14305     14304     14302     14306     14306     14289     14310     14311
     14306     14289     14310     14312     14306     14289     14310     14313
     14307     14306     14289     14310     14307     14306     14308     14309
     14308     14306     14289     14310     14311     14310     14313     14314
     14312     14310     14313     14314     14315     14319     14317     14318
     14315     14319     14317     14333     14315     14319     14317     14337
     14315     14320     14322     14323     14315     14320     14322     14324
     14315     14320     14330     14331     14315     14320     14330     14332
     14315     14320     14330     14333     14316     14315     14319     14317
     14316     14315     14320     14321     14316     14315     14320     14322
     14316     14315     14320     14330     14317     14319     14315     14320
     14317     14333     14330     14320     14317     14333     14330     14331
     14317     14333     14330     14332     14317     14333     14335     14336
     14317     14337     14340     14341     14318     14317     14333     14330
     14318     14317     14333     14334     14318     14317     14333     14335
     14318     14317     14337     14338     14318     14317     14337     14339
     14318     14317     14337     14340     14319     14315     14320     14321
     14319     14315     14320     14322     14319     14315     14320     14330
     14319     14317     14333     14330     14319     14317     14333     14334
     14319     14317     14333     14335     14319     14317     14337     14338
     14319     14317     14337     14339     14319     14317     14337     14340
     14320     14322     14324     14325     14320     14322     14324     14326
     14320     14330     14332     14342     14320     14330     14333     14334
     14320     14330     14333     14335     14321     14320     14322     14323
     14321     14320     14322     14324     14321     14320     14330     14331
     14321     14320     14330     14332     14321     14320     14330     14333
     14322     14320     14330     14331     14322     14320     14330     14332
     14322     14320     14330     14333     14322     14324     14326     14327
     14322     14324     14326     14328     14322     14324     14326     14329
     14323     14322     14320     14330     14323     14322     14324     14325
     14323     14322     14324     14326     14324     14322     14320     14330
     14325     14324     14326     14327     14325     14324     14326     14328
     14325     14324     14326     14329     14330     14332     14342     14343
     14330     14332     14342     14346     14330     14332     14342     14347
     14330     14333     14317     14337     14330     14333     14335     14336
     14331     14330     14332     14342     14331     14330     14333     14334
     14331     14330     14333     14335     14332     14330     14333     14334
     14332     14330     14333     14335     14332     14342     14346     14344
     14332     14342     14347     14348     14332     14342     14347     14349
     14332     14342     14347     14350     14333     14317     14337     14338
     14333     14317     14337     14339     14333     14317     14337     14340
     14333     14330     14332     14342     14334     14333     14317     14337
     14334     14333     14335     14336     14335     14333     14317     14337
     14338     14337     14340     14341     14339     14337     14340     14341
     14342     14346     14344     14345     14342     14346     14344     14354
     14342     14346     14344     14358     14342     14347     14349     14363
     14342     14347     14350     14351     14342     14347     14350     14352
     14342     14347     14350     14354     14343     14342     14346     14344
     14343     14342     14347     14348     14343     14342     14347     14349
     14343     14342     14347     14350     14344     14346     14342     14347
     14344     14354     14350     14347     14344     14354     14350     14351
     14344     14354     14350     14352     14344     14354     14356     14357
     14344     14358     14361     14362     14345     14344     14354     14350
     14345     14344     14354     14355     14345     14344     14354     14356
     14345     14344     14358     14359     14345     14344     14358     14360
     14345     14344     14358     14361     14346     14342     14347     14348
     14346     14342     14347     14349     14346     14342     14347     14350
     14346     14344     14354     14350     14346     14344     14354     14355
     14346     14344     14354     14356     14346     14344     14358     14359
     14346     14344     14358     14360     14346     14344     14358     14361
     14347     14349     14363     14364     14347     14349     14363     14367
     14347     14349     14363     14368     14347     14350     14352     14353
     14347     14350     14354     14355     14347     14350     14354     14356
     14348     14347     14349     14363     14348     14347     14350     14351
     14348     14347     14350     14352     14348     14347     14350     14354
     14349     14347     14350     14351     14349     14347     14350     14352
     14349     14347     14350     14354     14349     14363     14367     14365
     14349     14363     14368     14369     14349     14363     14368     14370
     14349     14363     14368     14371     14350     14347     14349     14363
     14350     14354     14344     14358     14350     14354     14356     14357
     14351     14350     14352     14353     14351     14350     14354     14355
     14351     14350     14354     14356     14352     14350     14354     14355
     14352     14350     14354     14356     14353     14352     14350     14354
     14354     14344     14358     14359     14354     14344     14358     14360
     14354     14344     14358     14361     14355     14354     14344     14358
     14355     14354     14356     14357     14356     14354     14344     14358
     14359     14358     14361     14362     14360     14358     14361     14362
     14363     14367     14365     14366     14363     14367     14365     14375
     14363     14367     14365     14379     14363     14368     14370     14383
     14363     14368     14371     14372     14363     14368     14371     14373
     14363     14368     14371     14375     14364     14363     14367     14365
     14364     14363     14368     14369     14364     14363     14368     14370
     14364     14363     14368     14371     14365     14367     14363     14368
     14365     14375     14371     14368     14365     14375     14371     14372
     14365     14375     14371     14373     14365     14375     14377     14378
     14366     14365     14375     14371     14366     14365     14375     14376
     14366     14365     14375     14377     14366     14365     14379     14380
     14366     14365     14379     14381     14366     14365     14379     14382
     14367     14363     14368     14369     14367     14363     14368     14370
     14367     14363     14368     14371     14367     14365     14375     14371
     14367     14365     14375     14376     14367     14365     14375     14377
     14367     14365     14379     14380     14367     14365     14379     14381
     14367     14365     14379     14382     14368     14370     14383     14384
     14368     14370     14383     14387     14368     14370     14383     14388
     14368     14371     14373     14374     14368     14371     14375     14376
     14368     14371     14375     14377     14369     14368     14370     14383
     14369     14368     14371     14372     14369     14368     14371     14373
     14369     14368     14371     14375     14370     14368     14371     14372
     14370     14368     14371     14373     14370     14368     14371     14375
     14370     14383     14387     14385     14370     14383     14388     14389
     14370     14383     14388     14390     14370     14383     14388     14391
     14371     14368     14370     14383     14371     14375     14365     14379
     14371     14375     14377     14378     14372     14371     14373     14374
     14372     14371     14375     14376     14372     14371     14375     14377
     14373     14371     14375     14376     14373     14371     14375     14377
     14374     14373     14371     14375     14375     14365     14379     14380
     14375     14365     14379     14381     14375     14365     14379     14382
     14376     14375     14365     14379     14376     14375     14377     14378
     14377     14375     14365     14379     14383     14387     14385     14386
     14383     14387     14385     14395     14383     14387     14385     14399
     14383     14388     14390     14403     14383     14388     14391     14392
     14383     14388     14391     14393     14383     14388     14391     14395
     14384     14383     14387     14385     14384     14383     14388     14389
     14384     14383     14388     14390     14384     14383     14388     14391
     14385     14387     14383     14388     14385     14395     14391     14388
     14385     14395     14391     14392     14385     14395     14391     14393
     14385     14395     14397     14398     14386     14385     14395     14391
     14386     14385     14395     14396     14386     14385     14395     14397
     14386     14385     14399     14400     14386     14385     14399     14401
     14386     14385     14399     14402     14387     14383     14388     14389
     14387     14383     14388     14390     14387     14383     14388     14391
     14387     14385     14395     14391     14387     14385     14395     14396
     14387     14385     14395     14397     14387     14385     14399     14400
     14387     14385     14399     14401     14387     14385     14399     14402
     14388     14390     14403     14404     14388     14390     14403     14407
     14388     14390     14403     14408     14388     14391     14393     14394
     14388     14391     14395     14396     14388     14391     14395     14397
     14389     14388     14390     14403     14389     14388     14391     14392
     14389     14388     14391     14393     14389     14388     14391     14395
     14390     14388     14391     14392     14390     14388     14391     14393
     14390     14388     14391     14395     14390     14403     14407     14405
     14390     14403     14408     14409     14390     14403     14408     14410
     14390     14403     14408     14418     14391     14388     14390     14403
     14391     14395     14385     14399     14391     14395     14397     14398
     14392     14391     14393     14394     14392     14391     14395     14396
     14392     14391     14395     14397     14393     14391     14395     14396
     14393     14391     14395     14397     14394     14393     14391     14395
     14395     14385     14399     14400     14395     14385     14399     14401
     14395     14385     14399     14402     14396     14395     14385     14399
     14396     14395     14397     14398     14397     14395     14385     14399
     14403     14407     14405     14406     14403     14407     14405     14422
     14403     14407     14405     14426     14403     14408     14410     14411
     14403     14408     14410     14412     14403     14408     14418     14419
     14403     14408     14418     14420     14403     14408     14418     14422
     14404     14403     14407     14405     14404     14403     14408     14409
     14404     14403     14408     14410     14404     14403     14408     14418
     14405     14407     14403     14408     14405     14422     14418     14408
     14405     14422     14418     14419     14405     14422     14418     14420
     14405     14422     14424     14425     14405     14426     14429     14430
     14406     14405     14422     14418     14406     14405     14422     14423
     14406     14405     14422     14424     14406     14405     14426     14427
     14406     14405     14426     14428     14406     14405     14426     14429
     14407     14403     14408     14409     14407     14403     14408     14410
     14407     14403     14408     14418     14407     14405     14422     14418
     14407     14405     14422     14423     14407     14405     14422     14424
     14407     14405     14426     14427     14407     14405     14426     14428
     14407     14405     14426     14429     14408     14410     14412     14413
     14408     14410     14412     14414     14408     14418     14420     14421
     14408     14418     14422     14423     14408     14418     14422     14424
     14409     14408     14410     14411     14409     14408     14410     14412
     14409     14408     14418     14419     14409     14408     14418     14420
     14409     14408     14418     14422     14410     14408     14418     14419
     14410     14408     14418     14420     14410     14408     14418     14422
     14410     14412     14414     14415     14410     14412     14414     14416
     14410     14412     14414     14417     14411     14410     14408     14418
     14411     14410     14412     14413     14411     14410     14412     14414
     14412     14410     14408     14418     14413     14412     14414     14415
     14413     14412     14414     14416     14413     14412     14414     14417
     14418     14422     14405     14426     14418     14422     14424     14425
     14419     14418     14420     14421     14419     14418     14422     14423
     14419     14418     14422     14424     14420     14418     14422     14423
     14420     14418     14422     14424     14421     14420     14418     14422
     14422     14405     14426     14427     14422     14405     14426     14428
     14422     14405     14426     14429     14423     14422     14405     14426
     14423     14422     14424     14425     14424     14422     14405     14426
     14427     14426     14429     14430     14428     14426     14429     14430
     14431     14433     14432     14730     14431     14433     14435     14436
     14431     14433     14435     14437     14431     14433     14435     14444
     14432     14433     14435     14436     14432     14433     14435     14437
     14432     14433     14435     14444     14432     14730     14727     14728
     14432     14730     14727     14729     14432     14730     14733     14731
     14432     14730     14734     14735     14432     14730     14734     14736
     14432     14730     14734     14737     14433     14432     14730     14727
     14433     14432     14730     14733     14433     14432     14730     14734
     14433     14435     14436     14438     14433     14435     14444     14445
     14433     14435     14444     14446     14433     14435     14444     14451
     14434     14433     14432     14730     14434     14433     14435     14436
     14434     14433     14435     14437     14434     14433     14435     14444
     14435     14433     14432     14730     14435     14436     14438     14439
     14435     14436     14438     14440     14435     14436     14438     14459
     14435     14444     14446     14447     14435     14444     14451     14452
     14435     14444     14451     14453     14435     14444     14451     14459
     14436     14435     14444     14445     14436     14435     14444     14446
     14436     14435     14444     14451     14436     14438     14440     14441
     14436     14438     14459     14451     14436     14438     14459     14460
     14436     14438     14459     14461     14437     14435     14436     14438
     14437     14435     14444     14445     14437     14435     14444     14446
     14437     14435     14444     14451     14438     14436     14435     14444
     14438     14440     14441     14442     14438     14440     14441     14443
     14438     14440     14441     14467     14438     14459     14451     14444
     14438     14459     14451     14452     14438     14459     14451     14453
     14438     14459     14461     14462     14438     14459     14461     14568
     14439     14438     14440     14441     14439     14438     14459     14451
     14439     14438     14459     14460     14439     14438     14459     14461
     14440     14438     14459     14451     14440     14438     14459     14460
     14440     14438     14459     14461     14440     14441     14467     14463
     14440     14441     14467     14468     14440     14441     14467     14469
     14441     14440     14438     14459     14441     14467     14463     14464
     14441     14467     14463     14465     14441     14467     14463     14477
     14441     14467     14469     14470     14442     14441     14467     14463
     14442     14441     14467     14468     14442     14441     14467     14469
     14443     14441     14467     14463     14443     14441     14467     14468
     14443     14441     14467     14469     14444     14446     14447     14448
     14444     14446     14447     14449     14444     14446     14447     14450
     14444     14451     14452     14454     14444     14451     14459     14460
     14444     14451     14459     14461     14445     14444     14446     14447
     14445     14444     14451     14452     14445     14444     14451     14453
     14445     14444     14451     14459     14446     14444     14451     14452
     14446     14444     14451     14453     14446     14444     14451     14459
     14447     14446     14444     14451     14451     14452     14454     14455
     14451     14452     14454     14456     14451     14459     14461     14462
     14451     14459     14461     14568     14452     14451     14459     14460
     14452     14451     14459     14461     14452     14454     14456     14457
     14452     14454     14456     14458     14452     14454     14456     14489
     14453     14451     14452     14454     14453     14451     14459     14460
     14453     14451     14459     14461     14454     14452     14451     14459
     14454     14456     14489     14490     14454     14456     14489     14491
     14454     14456     14489     14534     14455     14454     14456     14457
     14455     14454     14456     14458     14455     14454     14456     14489
     14456     14489     14491     14492     14456     14489     14534     14535
     14456     14489     14534     14536     14456     14489     14534     14537
     14457     14456     14489     14490     14457     14456     14489     14491
     14457     14456     14489     14534     14458     14456     14489     14490
     14458     14456     14489     14491     14458     14456     14489     14534
     14459     14461     14568     14569     14459     14461     14568     14570
     14460     14459     14461     14462     14460     14459     14461     14568
     14461     14568     14570     14571     14461     14568     14570     14572
     14461     14568     14570     14573     14462     14461     14568     14569
     14462     14461     14568     14570     14463     14467     14469     14470
     14463     14477     14479     14480     14463     14477     14485     14470
     14463     14477     14485     14486     14463     14477     14485     14487
     14464     14463     14465     14466     14464     14463     14467     14468
     14464     14463     14467     14469     14464     14463     14477     14478
     14464     14463     14477     14479     14464     14463     14477     14485
     14465     14463     14467     14468     14465     14463     14467     14469
     14465     14463     14477     14478     14465     14463     14477     14479
     14465     14463     14477     14485     14466     14465     14463     14467
     14466     14465     14463     14477     14467     14463     14477     14478
     14467     14463     14477     14479     14467     14463     14477     14485
     14467     14469     14470     14471     14467     14469     14470     14472
     14467     14469     14470     14485     14468     14467     14463     14477
     14468     14467     14469     14470     14469     14467     14463     14477
     14469     14470     14472     14476     14469     14470     14485     14477
     14469     14470     14485     14486     14469     14470     14485     14487
     14470     14472     14476     14473     14470     14472     14476     14474
     14470     14472     14476     14475     14470     14485     14477     14478
     14470     14485     14477     14479     14470     14485     14487     14488
     14470     14485     14487     14684     14471     14470     14472     14476
     14471     14470     14485     14477     14471     14470     14485     14486
     14471     14470     14485     14487     14472     14470     14485     14477
     14472     14470     14485     14486     14472     14470     14485     14487
     14476     14472     14470     14485     14477     14479     14480     14481
     14477     14479     14480     14482     14477     14485     14487     14488
     14477     14485     14487     14684     14478     14477     14479     14480
     14478     14477     14485     14486     14478     14477     14485     14487
     14479     14477     14485     14486     14479     14477     14485     14487
     14479     14480     14482     14483     14479     14480     14482     14484
     14479     14480     14482     14646     14480     14479     14477     14485
     14480     14482     14646     14647     14480     14482     14646     14648
     14480     14482     14646     14650     14481     14480     14482     14483
     14481     14480     14482     14484     14481     14480     14482     14646
     14482     14646     14648     14649     14482     14646     14650     14651
     14482     14646     14650     14652     14482     14646     14650     14653
     14483     14482     14646     14647     14483     14482     14646     14648
     14483     14482     14646     14650     14484     14482     14646     14647
     14484     14482     14646     14648     14484     14482     14646     14650
     14485     14487     14684     14685     14485     14487     14684     14686
     14486     14485     14487     14488     14486     14485     14487     14684
     14487     14684     14686     14687     14487     14684     14686     14688
     14487     14684     14686     14689     14488     14487     14684     14685
     14488     14487     14684     14686     14489     14491     14492     14493
     14489     14491     14492     14494     14489     14534     14537     14538
     14489     14534     14537     14539     14489     14534     14537     14540
     14490     14489     14491     14492     14490     14489     14534     14535
     14490     14489     14534     14536     14490     14489     14534     14537
     14491     14489     14534     14535     14491     14489     14534     14536
     14491     14489     14534     14537     14491     14492     14494     14495
     14491     14492     14494     14496     14491     14492     14494     14497
     14492     14491     14489     14534     14492     14494     14497     14498
     14492     14494     14497     14499     14492     14494     14497     14500
     14493     14492     14494     14495     14493     14492     14494     14496
     14493     14492     14494     14497     14494     14497     14500     14501
     14494     14497     14500     14502     14494     14497     14500     14503
     14495     14494     14497     14498     14495     14494     14497     14499
     14495     14494     14497     14500     14496     14494     14497     14498
     14496     14494     14497     14499     14496     14494     14497     14500
     14497     14500     14503     14504     14497     14500     14503     14505
     14497     14500     14503     14506     14498     14497     14500     14501
     14498     14497     14500     14502     14498     14497     14500     14503
     14499     14497     14500     14501     14499     14497     14500     14502
     14499     14497     14500     14503     14500     14503     14506     14507
     14500     14503     14506     14508     14500     14503     14506     14509
     14501     14500     14503     14504     14501     14500     14503     14505
     14501     14500     14503     14506     14502     14500     14503     14504
     14502     14500     14503     14505     14502     14500     14503     14506
     14503     14506     14509     14510     14503     14506     14509     14511
     14503     14506     14509     14512     14504     14503     14506     14507
     14504     14503     14506     14508     14504     14503     14506     14509
     14505     14503     14506     14507     14505     14503     14506     14508
     14505     14503     14506     14509     14506     14509     14512     14513
     14506     14509     14512     14514     14506     14509     14512     14515
     14507     14506     14509     14510     14507     14506     14509     14511
     14507     14506     14509     14512     14508     14506     14509     14510
     14508     14506     14509     14511     14508     14506     14509     14512
     14509     14512     14515     14516     14509     14512     14515     14517
     14509     14512     14515     14518     14510     14509     14512     14513
     14510     14509     14512     14514     14510     14509     14512     14515
     14511     14509     14512     14513     14511     14509     14512     14514
     14511     14509     14512     14515     14512     14515     14518     14519
     14512     14515     14518     14520     14512     14515     14518     14521
     14513     14512     14515     14516     14513     14512     14515     14517
     14513     14512     14515     14518     14514     14512     14515     14516
     14514     14512     14515     14517     14514     14512     14515     14518
     14515     14518     14521     14522     14515     14518     14521     14523
     14515     14518     14521     14524     14516     14515     14518     14519
     14516     14515     14518     14520     14516     14515     14518     14521
     14517     14515     14518     14519     14517     14515     14518     14520
     14517     14515     14518     14521     14518     14521     14524     14525
     14518     14521     14524     14526     14518     14521     14524     14527
     14519     14518     14521     14522     14519     14518     14521     14523
     14519     14518     14521     14524     14520     14518     14521     14522
     14520     14518     14521     14523     14520     14518     14521     14524
     14521     14524     14527     14528     14521     14524     14527     14529
     14521     14524     14527     14530     14522     14521     14524     14525
     14522     14521     14524     14526     14522     14521     14524     14527
     14523     14521     14524     14525     14523     14521     14524     14526
     14523     14521     14524     14527     14524     14527     14530     14531
     14524     14527     14530     14532     14524     14527     14530     14533
     14525     14524     14527     14528     14525     14524     14527     14529
     14525     14524     14527     14530     14526     14524     14527     14528
     14526     14524     14527     14529     14526     14524     14527     14530
     14528     14527     14530     14531     14528     14527     14530     14532
     14528     14527     14530     14533     14529     14527     14530     14531
     14529     14527     14530     14532     14529     14527     14530     14533
     14534     14537     14540     14541     14534     14537     14540     14542
     14534     14537     14540     14543     14535     14534     14537     14538
     14535     14534     14537     14539     14535     14534     14537     14540
     14536     14534     14537     14538     14536     14534     14537     14539
     14536     14534     14537     14540     14537     14540     14543     14544
     14537     14540     14543     14545     14537     14540     14543     14546
     14538     14537     14540     14541     14538     14537     14540     14542
     14538     14537     14540     14543     14539     14537     14540     14541
     14539     14537     14540     14542     14539     14537     14540     14543
     14540     14543     14546     14547     14540     14543     14546     14548
     14540     14543     14546     14549     14541     14540     14543     14544
     14541     14540     14543     14545     14541     14540     14543     14546
     14542     14540     14543     14544     14542     14540     14543     14545
     14542     14540     14543     14546     14543     14546     14549     14550
     14543     14546     14549     14551     14543     14546     14549     14552
     14544     14543     14546     14547     14544     14543     14546     14548
     14544     14543     14546     14549     14545     14543     14546     14547
     14545     14543     14546     14548     14545     14543     14546     14549
     14546     14549     14552     14553     14546     14549     14552     14554
     14546     14549     14552     14555     14547     14546     14549     14550
     14547     14546     14549     14551     14547     14546     14549     14552
     14548     14546     14549     14550     14548     14546     14549     14551
     14548     14546     14549     14552     14549     14552     14555     14556
     14549     14552     14555     14557     14549     14552     14555     14558
     14550     14549     14552     14553     14550     14549     14552     14554
     14550     14549     14552     14555     14551     14549     14552     14553
     14551     14549     14552     14554     14551     14549     14552     14555
     14552     14555     14558     14559     14552     14555     14558     14560
     14552     14555     14558     14561     14553     14552     14555     14556
     14553     14552     14555     14557     14553     14552     14555     14558
     14554     14552     14555     14556     14554     14552     14555     14557
     14554     14552     14555     14558     14555     14558     14561     14562
     14555     14558     14561     14563     14555     14558     14561     14564
     14556     14555     14558     14559     14556     14555     14558     14560
     14556     14555     14558     14561     14557     14555     14558     14559
     14557     14555     14558     14560     14557     14555     14558     14561
     14558     14561     14564     14565     14558     14561     14564     14566
     14558     14561     14564     14567     14559     14558     14561     14562
     14559     14558     14561     14563     14559     14558     14561     14564
     14560     14558     14561     14562     14560     14558     14561     14563
     14560     14558     14561     14564     14562     14561     14564     14565
     14562     14561     14564     14566     14562     14561     14564     14567
     14563     14561     14564     14565     14563     14561     14564     14566
     14563     14561     14564     14567     14568     14570     14573     14574
     14568     14570     14573     14575     14568     14570     14573     14612
     14569     14568     14570     14571     14569     14568     14570     14572
     14569     14568     14570     14573     14570     14573     14575     14576
     14570     14573     14612     14613     14570     14573     14612     14614
     14570     14573     14612     14615     14571     14570     14573     14574
     14571     14570     14573     14575     14571     14570     14573     14612
     14572     14570     14573     14574     14572     14570     14573     14575
     14572     14570     14573     14612     14573     14575     14576     14577
     14573     14575     14576     14578     14573     14612     14615     14616
     14573     14612     14615     14617     14573     14612     14615     14618
     14574     14573     14575     14576     14574     14573     14612     14613
     14574     14573     14612     14614     14574     14573     14612     14615
     14575     14573     14612     14613     14575     14573     14612     14614
     14575     14573     14612     14615     14575     14576     14578     14579
     14575     14576     14578     14580     14575     14576     14578     14581
     14576     14575     14573     14612     14576     14578     14581     14582
     14576     14578     14581     14583     14576     14578     14581     14584
     14577     14576     14578     14579     14577     14576     14578     14580
     14577     14576     14578     14581     14578     14581     14584     14585
     14578     14581     14584     14586     14578     14581     14584     14587
     14579     14578     14581     14582     14579     14578     14581     14583
     14579     14578     14581     14584     14580     14578     14581     14582
     14580     14578     14581     14583     14580     14578     14581     14584
     14581     14584     14587     14588     14581     14584     14587     14589
     14581     14584     14587     14590     14582     14581     14584     14585
     14582     14581     14584     14586     14582     14581     14584     14587
     14583     14581     14584     14585     14583     14581     14584     14586
     14583     14581     14584     14587     14584     14587     14590     14591
     14584     14587     14590     14592     14584     14587     14590     14593
     14585     14584     14587     14588     14585     14584     14587     14589
     14585     14584     14587     14590     14586     14584     14587     14588
     14586     14584     14587     14589     14586     14584     14587     14590
     14587     14590     14593     14594     14587     14590     14593     14595
     14587     14590     14593     14596     14588     14587     14590     14591
     14588     14587     14590     14592     14588     14587     14590     14593
     14589     14587     14590     14591     14589     14587     14590     14592
     14589     14587     14590     14593     14590     14593     14596     14597
     14590     14593     14596     14598     14590     14593     14596     14599
     14591     14590     14593     14594     14591     14590     14593     14595
     14591     14590     14593     14596     14592     14590     14593     14594
     14592     14590     14593     14595     14592     14590     14593     14596
     14593     14596     14599     14600     14593     14596     14599     14601
     14593     14596     14599     14602     14594     14593     14596     14597
     14594     14593     14596     14598     14594     14593     14596     14599
     14595     14593     14596     14597     14595     14593     14596     14598
     14595     14593     14596     14599     14596     14599     14602     14603
     14596     14599     14602     14604     14596     14599     14602     14605
     14597     14596     14599     14600     14597     14596     14599     14601
     14597     14596     14599     14602     14598     14596     14599     14600
     14598     14596     14599     14601     14598     14596     14599     14602
     14599     14602     14605     14606     14599     14602     14605     14607
     14599     14602     14605     14608     14600     14599     14602     14603
     14600     14599     14602     14604     14600     14599     14602     14605
     14601     14599     14602     14603     14601     14599     14602     14604
     14601     14599     14602     14605     14602     14605     14608     14609
     14602     14605     14608     14610     14602     14605     14608     14611
     14603     14602     14605     14606     14603     14602     14605     14607
     14603     14602     14605     14608     14604     14602     14605     14606
     14604     14602     14605     14607     14604     14602     14605     14608
     14606     14605     14608     14609     14606     14605     14608     14610
     14606     14605     14608     14611     14607     14605     14608     14609
     14607     14605     14608     14610     14607     14605     14608     14611
     14612     14615     14618     14619     14612     14615     14618     14620
     14612     14615     14618     14621     14613     14612     14615     14616
     14613     14612     14615     14617     14613     14612     14615     14618
     14614     14612     14615     14616     14614     14612     14615     14617
     14614     14612     14615     14618     14615     14618     14621     14622
     14615     14618     14621     14623     14615     14618     14621     14624
     14616     14615     14618     14619     14616     14615     14618     14620
     14616     14615     14618     14621     14617     14615     14618     14619
     14617     14615     14618     14620     14617     14615     14618     14621
     14618     14621     14624     14625     14618     14621     14624     14626
     14618     14621     14624     14627     14619     14618     14621     14622
     14619     14618     14621     14623     14619     14618     14621     14624
     14620     14618     14621     14622     14620     14618     14621     14623
     14620     14618     14621     14624     14621     14624     14627     14628
     14621     14624     14627     14629     14621     14624     14627     14630
     14622     14621     14624     14625     14622     14621     14624     14626
     14622     14621     14624     14627     14623     14621     14624     14625
     14623     14621     14624     14626     14623     14621     14624     14627
     14624     14627     14630     14631     14624     14627     14630     14632
     14624     14627     14630     14633     14625     14624     14627     14628
     14625     14624     14627     14629     14625     14624     14627     14630
     14626     14624     14627     14628     14626     14624     14627     14629
     14626     14624     14627     14630     14627     14630     14633     14634
     14627     14630     14633     14635     14627     14630     14633     14636
     14628     14627     14630     14631     14628     14627     14630     14632
     14628     14627     14630     14633     14629     14627     14630     14631
     14629     14627     14630     14632     14629     14627     14630     14633
     14630     14633     14636     14637     14630     14633     14636     14638
     14630     14633     14636     14639     14631     14630     14633     14634
     14631     14630     14633     14635     14631     14630     14633     14636
     14632     14630     14633     14634     14632     14630     14633     14635
     14632     14630     14633     14636     14633     14636     14639     14640
     14633     14636     14639     14641     14633     14636     14639     14642
     14634     14633     14636     14637     14634     14633     14636     14638
     14634     14633     14636     14639     14635     14633     14636     14637
     14635     14633     14636     14638     14635     14633     14636     14639
     14636     14639     14642     14643     14636     14639     14642     14644
     14636     14639     14642     14645     14637     14636     14639     14640
     14637     14636     14639     14641     14637     14636     14639     14642
     14638     14636     14639     14640     14638     14636     14639     14641
     14638     14636     14639     14642     14640     14639     14642     14643
     14640     14639     14642     14644     14640     14639     14642     14645
     14641     14639     14642     14643     14641     14639     14642     14644
     14641     14639     14642     14645     14646     14650     14653     14654
     14646     14650     14653     14655     14646     14650     14653     14656
     14647     14646     14648     14649     14647     14646     14650     14651
     14647     14646     14650     14652     14647     14646     14650     14653
     14648     14646     14650     14651     14648     14646     14650     14652
     14648     14646     14650     14653     14649     14648     14646     14650
     14650     14653     14656     14657     14650     14653     14656     14658
     14650     14653     14656     14659     14651     14650     14653     14654
     14651     14650     14653     14655     14651     14650     14653     14656
     14652     14650     14653     14654     14652     14650     14653     14655
     14652     14650     14653     14656     14653     14656     14659     14660
     14653     14656     14659     14661     14653     14656     14659     14662
     14654     14653     14656     14657     14654     14653     14656     14658
     14654     14653     14656     14659     14655     14653     14656     14657
     14655     14653     14656     14658     14655     14653     14656     14659
     14656     14659     14662     14663     14656     14659     14662     14664
     14656     14659     14662     14665     14657     14656     14659     14660
     14657     14656     14659     14661     14657     14656     14659     14662
     14658     14656     14659     14660     14658     14656     14659     14661
     14658     14656     14659     14662     14659     14662     14665     14666
     14659     14662     14665     14667     14659     14662     14665     14668
     14660     14659     14662     14663     14660     14659     14662     14664
     14660     14659     14662     14665     14661     14659     14662     14663
     14661     14659     14662     14664     14661     14659     14662     14665
     14662     14665     14668     14669     14662     14665     14668     14670
     14662     14665     14668     14671     14663     14662     14665     14666
     14663     14662     14665     14667     14663     14662     14665     14668
     14664     14662     14665     14666     14664     14662     14665     14667
     14664     14662     14665     14668     14665     14668     14671     14672
     14665     14668     14671     14673     14665     14668     14671     14674
     14666     14665     14668     14669     14666     14665     14668     14670
     14666     14665     14668     14671     14667     14665     14668     14669
     14667     14665     14668     14670     14667     14665     14668     14671
     14668     14671     14674     14675     14668     14671     14674     14676
     14668     14671     14674     14677     14669     14668     14671     14672
     14669     14668     14671     14673     14669     14668     14671     14674
     14670     14668     14671     14672     14670     14668     14671     14673
     14670     14668     14671     14674     14671     14674     14677     14678
     14671     14674     14677     14679     14671     14674     14677     14680
     14672     14671     14674     14675     14672     14671     14674     14676
     14672     14671     14674     14677     14673     14671     14674     14675
     14673     14671     14674     14676     14673     14671     14674     14677
     14674     14677     14680     14681     14674     14677     14680     14682
     14674     14677     14680     14683     14675     14674     14677     14678
     14675     14674     14677     14679     14675     14674     14677     14680
     14676     14674     14677     14678     14676     14674     14677     14679
     14676     14674     14677     14680     14678     14677     14680     14681
     14678     14677     14680     14682     14678     14677     14680     14683
     14679     14677     14680     14681     14679     14677     14680     14682
     14679     14677     14680     14683     14684     14686     14689     14690
     14684     14686     14689     14691     14684     14686     14689     14693
     14685     14684     14686     14687     14685     14684     14686     14688
     14685     14684     14686     14689     14686     14689     14691     14692
     14686     14689     14693     14694     14686     14689     14693     14695
     14686     14689     14693     14696     14687     14686     14689     14690
     14687     14686     14689     14691     14687     14686     14689     14693
     14688     14686     14689     14690     14688     14686     14689     14691
     14688     14686     14689     14693     14689     14693     14696     14697
     14689     14693     14696     14698     14689     14693     14696     14699
     14690     14689     14691     14692     14690     14689     14693     14694
     14690     14689     14693     14695     14690     14689     14693     14696
     14691     14689     14693     14694     14691     14689     14693     14695
     14691     14689     14693     14696     14692     14691     14689     14693
     14693     14696     14699     14700     14693     14696     14699     14701
     14693     14696     14699     14702     14694     14693     14696     14697
     14694     14693     14696     14698     14694     14693     14696     14699
     14695     14693     14696     14697     14695     14693     14696     14698
     14695     14693     14696     14699     14696     14699     14702     14703
     14696     14699     14702     14704     14696     14699     14702     14705
     14697     14696     14699     14700     14697     14696     14699     14701
     14697     14696     14699     14702     14698     14696     14699     14700
     14698     14696     14699     14701     14698     14696     14699     14702
     14699     14702     14705     14706     14699     14702     14705     14707
     14699     14702     14705     14708     14700     14699     14702     14703
     14700     14699     14702     14704     14700     14699     14702     14705
     14701     14699     14702     14703     14701     14699     14702     14704
     14701     14699     14702     14705     14702     14705     14708     14709
     14702     14705     14708     14710     14702     14705     14708     14711
     14703     14702     14705     14706     14703     14702     14705     14707
     14703     14702     14705     14708     14704     14702     14705     14706
     14704     14702     14705     14707     14704     14702     14705     14708
     14705     14708     14711     14712     14705     14708     14711     14713
     14705     14708     14711     14714     14706     14705     14708     14709
     14706     14705     14708     14710     14706     14705     14708     14711
     14707     14705     14708     14709     14707     14705     14708     14710
     14707     14705     14708     14711     14708     14711     14714     14715
     14708     14711     14714     14716     14708     14711     14714     14717
     14709     14708     14711     14712     14709     14708     14711     14713
     14709     14708     14711     14714     14710     14708     14711     14712
     14710     14708     14711     14713     14710     14708     14711     14714
     14711     14714     14717     14718     14711     14714     14717     14719
     14711     14714     14717     14720     14712     14711     14714     14715
     14712     14711     14714     14716     14712     14711     14714     14717
     14713     14711     14714     14715     14713     14711     14714     14716
     14713     14711     14714     14717     14714     14717     14720     14721
     14714     14717     14720     14722     14714     14717     14720     14723
     14715     14714     14717     14718     14715     14714     14717     14719
     14715     14714     14717     14720     14716     14714     14717     14718
     14716     14714     14717     14719     14716     14714     14717     14720
     14717     14720     14723     14724     14717     14720     14723     14725
     14717     14720     14723     14726     14718     14717     14720     14721
     14718     14717     14720     14722     14718     14717     14720     14723
     14719     14717     14720     14721     14719     14717     14720     14722
     14719     14717     14720     14723     14721     14720     14723     14724
     14721     14720     14723     14725     14721     14720     14723     14726
     14722     14720     14723     14724     14722     14720     14723     14725
     14722     14720     14723     14726     14727     14730     14733     14731
     14727     14730     14734     14735     14727     14730     14734     14736
     14727     14730     14734     14737     14728     14727     14730     14733
     14728     14727     14730     14734     14729     14727     14730     14733
     14729     14727     14730     14734     14730     14733     14731     14732
     14730     14733     14731     14740     14730     14733     14731     14743
     14730     14734     14737     14738     14730     14734     14737     14739
     14730     14734     14737     14740     14731     14733     14730     14734
     14731     14740     14737     14734     14731     14740     14737     14738
     14731     14740     14737     14739     14731     14740     14742     14779
     14731     14743     14745     14746     14731     14743     14747     14748
     14731     14743     14747     14749     14731     14743     14747     14750
     14732     14731     14740     14737     14732     14731     14740     14741
     14732     14731     14740     14742     14732     14731     14743     14744
     14732     14731     14743     14745     14732     14731     14743     14747
     14733     14730     14734     14735     14733     14730     14734     14736
     14733     14730     14734     14737     14733     14731     14740     14737
     14733     14731     14740     14741     14733     14731     14740     14742
     14733     14731     14743     14744     14733     14731     14743     14745
     14733     14731     14743     14747     14734     14737     14739     14755
     14734     14737     14740     14741     14734     14737     14740     14742
     14735     14734     14737     14738     14735     14734     14737     14739
     14735     14734     14737     14740     14736     14734     14737     14738
     14736     14734     14737     14739     14736     14734     14737     14740
     14737     14739     14755     14752     14737     14739     14755     14758
     14737     14739     14755     14759     14737     14740     14731     14743
     14737     14740     14742     14779     14738     14737     14739     14755
     14738     14737     14740     14741     14738     14737     14740     14742
     14739     14737     14740     14741     14739     14737     14740     14742
     14739     14755     14752     14753     14739     14755     14752     14754
     14739     14755     14758     14756     14739     14755     14759     14760
     14739     14755     14759     14761     14739     14755     14759     14762
     14740     14731     14743     14744     14740     14731     14743     14745
     14740     14731     14743     14747     14740     14737     14739     14755
     14740     14742     14779     14780     14740     14742     14779     14783
     14740     14742     14779     14784     14741     14740     14731     14743
     14741     14740     14742     14779     14742     14740     14731     14743
     14742     14779     14783     14781     14742     14779     14784     14785
     14742     14779     14784     14786     14742     14779     14784     14788
     14743     14747     14750     14751     14744     14743     14745     14746
     14744     14743     14747     14748     14744     14743     14747     14749
     14744     14743     14747     14750     14745     14743     14747     14748
     14745     14743     14747     14749     14745     14743     14747     14750
     14746     14745     14743     14747     14748     14747     14750     14751
     14749     14747     14750     14751     14752     14755     14758     14756
     14752     14755     14759     14760     14752     14755     14759     14761
     14752     14755     14759     14762     14753     14752     14755     14758
     14753     14752     14755     14759     14754     14752     14755     14758
     14754     14752     14755     14759     14755     14758     14756     14757
     14755     14758     14756     14766     14755     14758     14756     14770
     14755     14759     14762     14763     14755     14759     14762     14764
     14755     14759     14762     14766     14756     14758     14755     14759
     14756     14766     14762     14759     14756     14766     14762     14763
     14756     14766     14762     14764     14756     14766     14768     14769
     14756     14770     14772     14773     14756     14770     14774     14775
     14756     14770     14774     14776     14756     14770     14774     14777
     14757     14756     14766     14762     14757     14756     14766     14767
     14757     14756     14766     14768     14757     14756     14770     14771
     14757     14756     14770     14772     14757     14756     14770     14774
     14758     14755     14759     14760     14758     14755     14759     14761
     14758     14755     14759     14762     14758     14756     14766     14762
     14758     14756     14766     14767     14758     14756     14766     14768
     14758     14756     14770     14771     14758     14756     14770     14772
     14758     14756     14770     14774     14759     14762     14764     14765
     14759     14762     14766     14767     14759     14762     14766     14768
     14760     14759     14762     14763     14760     14759     14762     14764
     14760     14759     14762     14766     14761     14759     14762     14763
     14761     14759     14762     14764     14761     14759     14762     14766
     14762     14766     14756     14770     14762     14766     14768     14769
     14763     14762     14764     14765     14763     14762     14766     14767
     14763     14762     14766     14768     14764     14762     14766     14767
     14764     14762     14766     14768     14765     14764     14762     14766
     14766     14756     14770     14771     14766     14756     14770     14772
     14766     14756     14770     14774     14767     14766     14756     14770
     14767     14766     14768     14769     14768     14766     14756     14770
     14770     14774     14777     14778     14771     14770     14772     14773
     14771     14770     14774     14775     14771     14770     14774     14776
     14771     14770     14774     14777     14772     14770     14774     14775
     14772     14770     14774     14776     14772     14770     14774     14777
     14773     14772     14770     14774     14775     14774     14777     14778
     14776     14774     14777     14778     14779     14783     14781     14782
     14779     14783     14781     14791     14779     14783     14781     14798
     14779     14784     14786     14787     14779     14784     14788     14789
     14779     14784     14788     14790     14779     14784     14788     14791
     14780     14779     14783     14781     14780     14779     14784     14785
     14780     14779     14784     14786     14780     14779     14784     14788
     14781     14783     14779     14784     14781     14791     14788     14784
     14781     14791     14788     14789     14781     14791     14788     14790
     14781     14791     14793     14794     14781     14798     14800     14801
     14781     14798     14802     14803     14781     14798     14802     14804
     14781     14798     14802     14805     14782     14781     14791     14788
     14782     14781     14791     14792     14782     14781     14791     14793
     14782     14781     14798     14799     14782     14781     14798     14800
     14782     14781     14798     14802     14783     14779     14784     14785
     14783     14779     14784     14786     14783     14779     14784     14788
     14783     14781     14791     14788     14783     14781     14791     14792
     14783     14781     14791     14793     14783     14781     14798     14799
     14783     14781     14798     14800     14783     14781     14798     14802
     14784     14788     14790     14807     14784     14788     14791     14792
     14784     14788     14791     14793     14785     14784     14786     14787
     14785     14784     14788     14789     14785     14784     14788     14790
     14785     14784     14788     14791     14786     14784     14788     14789
     14786     14784     14788     14790     14786     14784     14788     14791
     14787     14786     14784     14788     14788     14790     14807     14808
     14788     14790     14807     14811     14788     14790     14807     14812
     14788     14791     14781     14798     14788     14791     14793     14794
     14789     14788     14790     14807     14789     14788     14791     14792
     14789     14788     14791     14793     14790     14788     14791     14792
     14790     14788     14791     14793     14790     14807     14811     14809
     14790     14807     14812     14813     14790     14807     14812     14814
     14790     14807     14812     14816     14791     14781     14798     14799
     14791     14781     14798     14800     14791     14781     14798     14802
     14791     14788     14790     14807     14791     14793     14794     14795
     14791     14793     14794     14796     14791     14793     14794     14797
     14792     14791     14781     14798     14792     14791     14793     14794
     14793     14791     14781     14798     14798     14802     14805     14806
     14799     14798     14800     14801     14799     14798     14802     14803
     14799     14798     14802     14804     14799     14798     14802     14805
     14800     14798     14802     14803     14800     14798     14802     14804
     14800     14798     14802     14805     14801     14800     14798     14802
     14803     14802     14805     14806     14804     14802     14805     14806
     14807     14811     14809     14810     14807     14811     14809     14819
     14807     14811     14809     14826     14807     14812     14814     14815
     14807     14812     14816     14817     14807     14812     14816     14818
     14807     14812     14816     14819     14808     14807     14811     14809
     14808     14807     14812     14813     14808     14807     14812     14814
     14808     14807     14812     14816     14809     14811     14807     14812
     14809     14819     14816     14812     14809     14819     14816     14817
     14809     14819     14816     14818     14809     14819     14821     14822
     14809     14826     14828     14829     14809     14826     14830     14831
     14809     14826     14830     14832     14809     14826     14830     14833
     14810     14809     14819     14816     14810     14809     14819     14820
     14810     14809     14819     14821     14810     14809     14826     14827
     14810     14809     14826     14828     14810     14809     14826     14830
     14811     14807     14812     14813     14811     14807     14812     14814
     14811     14807     14812     14816     14811     14809     14819     14816
     14811     14809     14819     14820     14811     14809     14819     14821
     14811     14809     14826     14827     14811     14809     14826     14828
     14811     14809     14826     14830     14812     14816     14818     14860
     14812     14816     14819     14820     14812     14816     14819     14821
     14813     14812     14814     14815     14813     14812     14816     14817
     14813     14812     14816     14818     14813     14812     14816     14819
     14814     14812     14816     14817     14814     14812     14816     14818
     14814     14812     14816     14819     14815     14814     14812     14816
     14816     14818     14860     14861     14816     14818     14860     14864
     14816     14818     14860     14865     14816     14819     14809     14826
     14816     14819     14821     14822     14817     14816     14818     14860
     14817     14816     14819     14820     14817     14816     14819     14821
     14818     14816     14819     14820     14818     14816     14819     14821
     14818     14860     14864     14862     14818     14860     14865     14866
     14818     14860     14865     14867     14818     14860     14865     14869
     14819     14809     14826     14827     14819     14809     14826     14828
     14819     14809     14826     14830     14819     14816     14818     14860
     14819     14821     14822     14823     14819     14821     14822     14824
     14819     14821     14822     14825     14820     14819     14809     14826
     14820     14819     14821     14822     14821     14819     14809     14826
     14826     14830     14833     14834     14827     14826     14828     14829
     14827     14826     14830     14831     14827     14826     14830     14832
     14827     14826     14830     14833     14828     14826     14830     14831
     14828     14826     14830     14832     14828     14826     14830     14833
     14829     14828     14826     14830     14830     14833     14834     14835
     14830     14833     14834     14838     14830     14833     14834     14839
     14831     14830     14833     14834     14832     14830     14833     14834
     14833     14834     14838     14836     14833     14834     14839     14840
     14833     14834     14839     14841     14833     14834     14839     14843
     14834     14838     14836     14837     14834     14838     14836     14847
     14834     14838     14836     14851     14834     14839     14841     14842
     14834     14839     14843     14844     14834     14839     14843     14845
     14834     14839     14843     14847     14835     14834     14838     14836
     14835     14834     14839     14840     14835     14834     14839     14841
     14835     14834     14839     14843     14836     14838     14834     14839
     14836     14847     14843     14839     14836     14847     14843     14844
     14836     14847     14843     14845     14836     14847     14849     14850
     14836     14851     14853     14854     14836     14851     14855     14856
     14836     14851     14855     14857     14836     14851     14855     14858
     14837     14836     14847     14843     14837     14836     14847     14848
     14837     14836     14847     14849     14837     14836     14851     14852
     14837     14836     14851     14853     14837     14836     14851     14855
     14838     14834     14839     14840     14838     14834     14839     14841
     14838     14834     14839     14843     14838     14836     14847     14843
     14838     14836     14847     14848     14838     14836     14847     14849
     14838     14836     14851     14852     14838     14836     14851     14853
     14838     14836     14851     14855     14839     14843     14845     14846
     14839     14843     14847     14848     14839     14843     14847     14849
     14840     14839     14841     14842     14840     14839     14843     14844
     14840     14839     14843     14845     14840     14839     14843     14847
     14841     14839     14843     14844     14841     14839     14843     14845
     14841     14839     14843     14847     14842     14841     14839     14843
     14843     14847     14836     14851     14843     14847     14849     14850
     14844     14843     14845     14846     14844     14843     14847     14848
     14844     14843     14847     14849     14845     14843     14847     14848
     14845     14843     14847     14849     14846     14845     14843     14847
     14847     14836     14851     14852     14847     14836     14851     14853
     14847     14836     14851     14855     14848     14847     14836     14851
     14848     14847     14849     14850     14849     14847     14836     14851
     14851     14855     14858     14859     14852     14851     14853     14854
     14852     14851     14855     14856     14852     14851     14855     14857
     14852     14851     14855     14858     14853     14851     14855     14856
     14853     14851     14855     14857     14853     14851     14855     14858
     14854     14853     14851     14855     14856     14855     14858     14859
     14857     14855     14858     14859     14860     14864     14862     14863
     14860     14864     14862     14872     14860     14864     14862     14876
     14860     14865     14867     14868     14860     14865     14869     14870
     14860     14865     14869     14871     14860     14865     14869     14872
     14861     14860     14864     14862     14861     14860     14865     14866
     14861     14860     14865     14867     14861     14860     14865     14869
     14862     14864     14860     14865     14862     14872     14869     14865
     14862     14872     14869     14870     14862     14872     14869     14871
     14862     14872     14874     14875     14862     14876     14879     14880
     14863     14862     14872     14869     14863     14862     14872     14873
     14863     14862     14872     14874     14863     14862     14876     14877
     14863     14862     14876     14878     14863     14862     14876     14879
     14864     14860     14865     14866     14864     14860     14865     14867
     14864     14860     14865     14869     14864     14862     14872     14869
     14864     14862     14872     14873     14864     14862     14872     14874
     14864     14862     14876     14877     14864     14862     14876     14878
     14864     14862     14876     14879     14865     14869     14871     14881
     14865     14869     14872     14873     14865     14869     14872     14874
     14866     14865     14867     14868     14866     14865     14869     14870
     14866     14865     14869     14871     14866     14865     14869     14872
     14867     14865     14869     14870     14867     14865     14869     14871
     14867     14865     14869     14872     14868     14867     14865     14869
     14869     14871     14881     14882     14869     14871     14881     14885
     14869     14871     14881     14886     14869     14872     14862     14876
     14869     14872     14874     14875     14870     14869     14871     14881
     14870     14869     14872     14873     14870     14869     14872     14874
     14871     14869     14872     14873     14871     14869     14872     14874
     14871     14881     14885     14883     14871     14881     14886     14887
     14871     14881     14886     14888     14871     14881     14886     14889
     14872     14862     14876     14877     14872     14862     14876     14878
     14872     14862     14876     14879     14872     14869     14871     14881
     14873     14872     14862     14876     14873     14872     14874     14875
     14874     14872     14862     14876     14877     14876     14879     14880
     14878     14876     14879     14880     14881     14885     14883     14884
     14881     14885     14883     14892     14881     14885     14883     14896
     14881     14886     14888     14901     14881     14886     14889     14890
     14881     14886     14889     14891     14881     14886     14889     14892
     14882     14881     14885     14883     14882     14881     14886     14887
     14882     14881     14886     14888     14882     14881     14886     14889
     14883     14885     14881     14886     14883     14892     14889     14886
     14883     14892     14889     14890     14883     14892     14889     14891
     14883     14892     14894     14895     14883     14896     14899     14900
     14884     14883     14892     14889     14884     14883     14892     14893
     14884     14883     14892     14894     14884     14883     14896     14897
     14884     14883     14896     14898     14884     14883     14896     14899
     14885     14881     14886     14887     14885     14881     14886     14888
     14885     14881     14886     14889     14885     14883     14892     14889
     14885     14883     14892     14893     14885     14883     14892     14894
     14885     14883     14896     14897     14885     14883     14896     14898
     14885     14883     14896     14899     14886     14888     14901     14902
     14886     14888     14901     14905     14886     14888     14901     14906
     14886     14889     14891     14944     14886     14889     14892     14893
     14886     14889     14892     14894     14887     14886     14888     14901
     14887     14886     14889     14890     14887     14886     14889     14891
     14887     14886     14889     14892     14888     14886     14889     14890
     14888     14886     14889     14891     14888     14886     14889     14892
     14888     14901     14905     14903     14888     14901     14906     14907
     14888     14901     14906     14908     14888     14901     14906     14909
     14889     14886     14888     14901     14889     14891     14944     14945
     14889     14891     14944     14948     14889     14891     14944     14949
     14889     14892     14883     14896     14889     14892     14894     14895
     14890     14889     14891     14944     14890     14889     14892     14893
     14890     14889     14892     14894     14891     14889     14892     14893
     14891     14889     14892     14894     14891     14944     14948     14946
     14891     14944     14949     14950     14891     14944     14949     14951
     14891     14944     14949     14953     14892     14883     14896     14897
     14892     14883     14896     14898     14892     14883     14896     14899
     14892     14889     14891     14944     14893     14892     14883     14896
     14893     14892     14894     14895     14894     14892     14883     14896
     14897     14896     14899     14900     14898     14896     14899     14900
     14901     14905     14903     14904     14901     14905     14903     14913
     14901     14905     14903     14917     14901     14906     14908     14922
     14901     14906     14909     14910     14901     14906     14909     14911
     14901     14906     14909     14913     14902     14901     14905     14903
     14902     14901     14906     14907     14902     14901     14906     14908
     14902     14901     14906     14909     14903     14905     14901     14906
     14903     14913     14909     14906     14903     14913     14909     14910
     14903     14913     14909     14911     14903     14913     14915     14916
     14903     14917     14920     14921     14904     14903     14913     14909
     14904     14903     14913     14914     14904     14903     14913     14915
     14904     14903     14917     14918     14904     14903     14917     14919
     14904     14903     14917     14920     14905     14901     14906     14907
     14905     14901     14906     14908     14905     14901     14906     14909
     14905     14903     14913     14909     14905     14903     14913     14914
     14905     14903     14913     14915     14905     14903     14917     14918
     14905     14903     14917     14919     14905     14903     14917     14920
     14906     14908     14922     14923     14906     14908     14922     14926
     14906     14908     14922     14927     14906     14909     14911     14912
     14906     14909     14913     14914     14906     14909     14913     14915
     14907     14906     14908     14922     14907     14906     14909     14910
     14907     14906     14909     14911     14907     14906     14909     14913
     14908     14906     14909     14910     14908     14906     14909     14911
     14908     14906     14909     14913     14908     14922     14926     14924
     14908     14922     14927     14928     14908     14922     14927     14929
     14908     14922     14927     14931     14909     14906     14908     14922
     14909     14913     14903     14917     14909     14913     14915     14916
     14910     14909     14911     14912     14910     14909     14913     14914
     14910     14909     14913     14915     14911     14909     14913     14914
     14911     14909     14913     14915     14912     14911     14909     14913
     14913     14903     14917     14918     14913     14903     14917     14919
     14913     14903     14917     14920     14914     14913     14903     14917
     14914     14913     14915     14916     14915     14913     14903     14917
     14918     14917     14920     14921     14919     14917     14920     14921
     14922     14926     14924     14925     14922     14926     14924     14935
     14922     14926     14924     14939     14922     14927     14929     14930
     14922     14927     14931     14932     14922     14927     14931     14933
     14922     14927     14931     14935     14923     14922     14926     14924
     14923     14922     14927     14928     14923     14922     14927     14929
     14923     14922     14927     14931     14924     14926     14922     14927
     14924     14935     14931     14927     14924     14935     14931     14932
     14924     14935     14931     14933     14924     14935     14937     14938
     14924     14939     14942     14943     14925     14924     14935     14931
     14925     14924     14935     14936     14925     14924     14935     14937
     14925     14924     14939     14940     14925     14924     14939     14941
     14925     14924     14939     14942     14926     14922     14927     14928
     14926     14922     14927     14929     14926     14922     14927     14931
     14926     14924     14935     14931     14926     14924     14935     14936
     14926     14924     14935     14937     14926     14924     14939     14940
     14926     14924     14939     14941     14926     14924     14939     14942
     14927     14931     14933     14934     14927     14931     14935     14936
     14927     14931     14935     14937     14928     14927     14929     14930
     14928     14927     14931     14932     14928     14927     14931     14933
     14928     14927     14931     14935     14929     14927     14931     14932
     14929     14927     14931     14933     14929     14927     14931     14935
     14930     14929     14927     14931     14931     14935     14924     14939
     14931     14935     14937     14938     14932     14931     14933     14934
     14932     14931     14935     14936     14932     14931     14935     14937
     14933     14931     14935     14936     14933     14931     14935     14937
     14934     14933     14931     14935     14935     14924     14939     14940
     14935     14924     14939     14941     14935     14924     14939     14942
     14936     14935     14924     14939     14936     14935     14937     14938
     14937     14935     14924     14939     14940     14939     14942     14943
     14941     14939     14942     14943     14944     14948     14946     14947
     14944     14948     14946     14956     14944     14948     14946     14960
     14944     14949     14951     14952     14944     14949     14953     14954
     14944     14949     14953     14955     14944     14949     14953     14956
     14945     14944     14948     14946     14945     14944     14949     14950
     14945     14944     14949     14951     14945     14944     14949     14953
     14946     14948     14944     14949     14946     14956     14953     14949
     14946     14956     14953     14954     14946     14956     14953     14955
     14946     14956     14958     14959     14946     14960     14963     14964
     14947     14946     14956     14953     14947     14946     14956     14957
     14947     14946     14956     14958     14947     14946     14960     14961
     14947     14946     14960     14962     14947     14946     14960     14963
     14948     14944     14949     14950     14948     14944     14949     14951
     14948     14944     14949     14953     14948     14946     14956     14953
     14948     14946     14956     14957     14948     14946     14956     14958
     14948     14946     14960     14961     14948     14946     14960     14962
     14948     14946     14960     14963     14949     14953     14955     14965
     14949     14953     14956     14957     14949     14953     14956     14958
     14950     14949     14951     14952     14950     14949     14953     14954
     14950     14949     14953     14955     14950     14949     14953     14956
     14951     14949     14953     14954     14951     14949     14953     14955
     14951     14949     14953     14956     14952     14951     14949     14953
     14953     14955     14965     14966     14953     14955     14965     14969
     14953     14955     14965     14970     14953     14956     14946     14960
     14953     14956     14958     14959     14954     14953     14955     14965
     14954     14953     14956     14957     14954     14953     14956     14958
     14955     14953     14956     14957     14955     14953     14956     14958
     14955     14965     14969     14967     14955     14965     14970     14971
     14955     14965     14970     14972     14955     14965     14970     14980
     14956     14946     14960     14961     14956     14946     14960     14962
     14956     14946     14960     14963     14956     14953     14955     14965
     14957     14956     14946     14960     14957     14956     14958     14959
     14958     14956     14946     14960     14961     14960     14963     14964
     14962     14960     14963     14964     14965     14969     14967     14968
     14965     14969     14967     14983     14965     14969     14967     14987
     14965     14970     14972     14973     14965     14970     14972     14974
     14965     14970     14980     14981     14965     14970     14980     14982
     14965     14970     14980     14983     14966     14965     14969     14967
     14966     14965     14970     14971     14966     14965     14970     14972
     14966     14965     14970     14980     14967     14969     14965     14970
     14967     14983     14980     14970     14967     14983     14980     14981
     14967     14983     14980     14982     14967     14983     14985     14986
     14967     14987     14990     14991     14968     14967     14983     14980
     14968     14967     14983     14984     14968     14967     14983     14985
     14968     14967     14987     14988     14968     14967     14987     14989
     14968     14967     14987     14990     14969     14965     14970     14971
     14969     14965     14970     14972     14969     14965     14970     14980
     14969     14967     14983     14980     14969     14967     14983     14984
     14969     14967     14983     14985     14969     14967     14987     14988
     14969     14967     14987     14989     14969     14967     14987     14990
     14970     14972     14974     14975     14970     14972     14974     14976
     14970     14980     14982     14992     14970     14980     14983     14984
     14970     14980     14983     14985     14971     14970     14972     14973
     14971     14970     14972     14974     14971     14970     14980     14981
     14971     14970     14980     14982     14971     14970     14980     14983
     14972     14970     14980     14981     14972     14970     14980     14982
     14972     14970     14980     14983     14972     14974     14976     14977
     14972     14974     14976     14978     14972     14974     14976     14979
     14973     14972     14970     14980     14973     14972     14974     14975
     14973     14972     14974     14976     14974     14972     14970     14980
     14975     14974     14976     14977     14975     14974     14976     14978
     14975     14974     14976     14979     14980     14982     14992     14993
     14980     14982     14992     14996     14980     14982     14992     14997
     14980     14983     14967     14987     14980     14983     14985     14986
     14981     14980     14982     14992     14981     14980     14983     14984
     14981     14980     14983     14985     14982     14980     14983     14984
     14982     14980     14983     14985     14982     14992     14996     14994
     14982     14992     14997     14998     14982     14992     14997     14999
     14982     14992     14997     15000     14983     14967     14987     14988
     14983     14967     14987     14989     14983     14967     14987     14990
     14983     14980     14982     14992     14984     14983     14967     14987
     14984     14983     14985     14986     14985     14983     14967     14987
     14988     14987     14990     14991     14989     14987     14990     14991
     14992     14996     14994     14995     14992     14996     14994     15004
     14992     14996     14994     15008     14992     14997     14999     15013
     14992     14997     15000     15001     14992     14997     15000     15002
     14992     14997     15000     15004     14993     14992     14996     14994
     14993     14992     14997     14998     14993     14992     14997     14999
     14993     14992     14997     15000     14994     14996     14992     14997
     14994     15004     15000     14997     14994     15004     15000     15001
     14994     15004     15000     15002     14994     15004     15006     15007
     14994     15008     15011     15012     14995     14994     15004     15000
     14995     14994     15004     15005     14995     14994     15004     15006
     14995     14994     15008     15009     14995     14994     15008     15010
     14995     14994     15008     15011     14996     14992     14997     14998
     14996     14992     14997     14999     14996     14992     14997     15000
     14996     14994     15004     15000     14996     14994     15004     15005
     14996     14994     15004     15006     14996     14994     15008     15009
     14996     14994     15008     15010     14996     14994     15008     15011
     14997     14999     15013     15014     14997     14999     15013     15017
     14997     14999     15013     15018     14997     15000     15002     15003
     14997     15000     15004     15005     14997     15000     15004     15006
     14998     14997     14999     15013     14998     14997     15000     15001
     14998     14997     15000     15002     14998     14997     15000     15004
     14999     14997     15000     15001     14999     14997     15000     15002
     14999     14997     15000     15004     14999     15013     15017     15015
     14999     15013     15018     15019     14999     15013     15018     15020
     14999     15013     15018     15021     15000     14997     14999     15013
     15000     15004     14994     15008     15000     15004     15006     15007
     15001     15000     15002     15003     15001     15000     15004     15005
     15001     15000     15004     15006     15002     15000     15004     15005
     15002     15000     15004     15006     15003     15002     15000     15004
     15004     14994     15008     15009     15004     14994     15008     15010
     15004     14994     15008     15011     15005     15004     14994     15008
     15005     15004     15006     15007     15006     15004     14994     15008
     15009     15008     15011     15012     15010     15008     15011     15012
     15013     15017     15015     15016     15013     15017     15015     15025
     15013     15017     15015     15029     15013     15018     15020     15033
     15013     15018     15021     15022     15013     15018     15021     15023
     15013     15018     15021     15025     15014     15013     15017     15015
     15014     15013     15018     15019     15014     15013     15018     15020
     15014     15013     15018     15021     15015     15017     15013     15018
     15015     15025     15021     15018     15015     15025     15021     15022
     15015     15025     15021     15023     15015     15025     15027     15028
     15016     15015     15025     15021     15016     15015     15025     15026
     15016     15015     15025     15027     15016     15015     15029     15030
     15016     15015     15029     15031     15016     15015     15029     15032
     15017     15013     15018     15019     15017     15013     15018     15020
     15017     15013     15018     15021     15017     15015     15025     15021
     15017     15015     15025     15026     15017     15015     15025     15027
     15017     15015     15029     15030     15017     15015     15029     15031
     15017     15015     15029     15032     15018     15020     15033     15034
     15018     15020     15033     15037     15018     15020     15033     15038
     15018     15021     15023     15024     15018     15021     15025     15026
     15018     15021     15025     15027     15019     15018     15020     15033
     15019     15018     15021     15022     15019     15018     15021     15023
     15019     15018     15021     15025     15020     15018     15021     15022
     15020     15018     15021     15023     15020     15018     15021     15025
     15020     15033     15037     15035     15020     15033     15038     15039
     15020     15033     15038     15040     15020     15033     15038     15041
     15021     15018     15020     15033     15021     15025     15015     15029
     15021     15025     15027     15028     15022     15021     15023     15024
     15022     15021     15025     15026     15022     15021     15025     15027
     15023     15021     15025     15026     15023     15021     15025     15027
     15024     15023     15021     15025     15025     15015     15029     15030
     15025     15015     15029     15031     15025     15015     15029     15032
     15026     15025     15015     15029     15026     15025     15027     15028
     15027     15025     15015     15029     15033     15037     15035     15036
     15033     15037     15035     15044     15033     15037     15035     15048
     15033     15038     15040     15052     15033     15038     15041     15042
     15033     15038     15041     15043     15033     15038     15041     15044
     15034     15033     15037     15035     15034     15033     15038     15039
     15034     15033     15038     15040     15034     15033     15038     15041
     15035     15037     15033     15038     15035     15044     15041     15038
     15035     15044     15041     15042     15035     15044     15041     15043
     15035     15044     15046     15047     15036     15035     15044     15041
     15036     15035     15044     15045     15036     15035     15044     15046
     15036     15035     15048     15049     15036     15035     15048     15050
     15036     15035     15048     15051     15037     15033     15038     15039
     15037     15033     15038     15040     15037     15033     15038     15041
     15037     15035     15044     15041     15037     15035     15044     15045
     15037     15035     15044     15046     15037     15035     15048     15049
     15037     15035     15048     15050     15037     15035     15048     15051
     15038     15040     15052     15053     15038     15040     15052     15056
     15038     15040     15052     15057     15038     15041     15043     15080
     15038     15041     15044     15045     15038     15041     15044     15046
     15039     15038     15040     15052     15039     15038     15041     15042
     15039     15038     15041     15043     15039     15038     15041     15044
     15040     15038     15041     15042     15040     15038     15041     15043
     15040     15038     15041     15044     15040     15052     15056     15054
     15040     15052     15057     15058     15040     15052     15057     15059
     15040     15052     15057     15067     15041     15038     15040     15052
     15041     15043     15080     15081     15041     15043     15080     15084
     15041     15043     15080     15085     15041     15044     15035     15048
     15041     15044     15046     15047     15042     15041     15043     15080
     15042     15041     15044     15045     15042     15041     15044     15046
     15043     15041     15044     15045     15043     15041     15044     15046
     15043     15080     15084     15082     15043     15080     15085     15086
     15043     15080     15085     15087     15043     15080     15085     15095
     15044     15035     15048     15049     15044     15035     15048     15050
     15044     15035     15048     15051     15044     15041     15043     15080
     15045     15044     15035     15048     15045     15044     15046     15047
     15046     15044     15035     15048     15052     15056     15054     15055
     15052     15056     15054     15071     15052     15056     15054     15075
     15052     15057     15059     15060     15052     15057     15059     15061
     15052     15057     15067     15068     15052     15057     15067     15069
     15052     15057     15067     15071     15053     15052     15056     15054
     15053     15052     15057     15058     15053     15052     15057     15059
     15053     15052     15057     15067     15054     15056     15052     15057
     15054     15071     15067     15057     15054     15071     15067     15068
     15054     15071     15067     15069     15054     15071     15073     15074
     15054     15075     15078     15079     15055     15054     15071     15067
     15055     15054     15071     15072     15055     15054     15071     15073
     15055     15054     15075     15076     15055     15054     15075     15077
     15055     15054     15075     15078     15056     15052     15057     15058
     15056     15052     15057     15059     15056     15052     15057     15067
     15056     15054     15071     15067     15056     15054     15071     15072
     15056     15054     15071     15073     15056     15054     15075     15076
     15056     15054     15075     15077     15056     15054     15075     15078
     15057     15059     15061     15062     15057     15059     15061     15063
     15057     15067     15069     15070     15057     15067     15071     15072
     15057     15067     15071     15073     15058     15057     15059     15060
     15058     15057     15059     15061     15058     15057     15067     15068
     15058     15057     15067     15069     15058     15057     15067     15071
     15059     15057     15067     15068     15059     15057     15067     15069
     15059     15057     15067     15071     15059     15061     15063     15064
     15059     15061     15063     15065     15059     15061     15063     15066
     15060     15059     15057     15067     15060     15059     15061     15062
     15060     15059     15061     15063     15061     15059     15057     15067
     15062     15061     15063     15064     15062     15061     15063     15065
     15062     15061     15063     15066     15067     15071     15054     15075
     15067     15071     15073     15074     15068     15067     15069     15070
     15068     15067     15071     15072     15068     15067     15071     15073
     15069     15067     15071     15072     15069     15067     15071     15073
     15070     15069     15067     15071     15071     15054     15075     15076
     15071     15054     15075     15077     15071     15054     15075     15078
     15072     15071     15054     15075     15072     15071     15073     15074
     15073     15071     15054     15075     15076     15075     15078     15079
     15077     15075     15078     15079     15080     15084     15082     15083
     15080     15084     15082     15098     15080     15084     15082     15102
     15080     15085     15087     15088     15080     15085     15087     15089
     15080     15085     15095     15096     15080     15085     15095     15097
     15080     15085     15095     15098     15081     15080     15084     15082
     15081     15080     15085     15086     15081     15080     15085     15087
     15081     15080     15085     15095     15082     15084     15080     15085
     15082     15098     15095     15085     15082     15098     15095     15096
     15082     15098     15095     15097     15082     15098     15100     15101
     15082     15102     15105     15106     15083     15082     15098     15095
     15083     15082     15098     15099     15083     15082     15098     15100
     15083     15082     15102     15103     15083     15082     15102     15104
     15083     15082     15102     15105     15084     15080     15085     15086
     15084     15080     15085     15087     15084     15080     15085     15095
     15084     15082     15098     15095     15084     15082     15098     15099
     15084     15082     15098     15100     15084     15082     15102     15103
     15084     15082     15102     15104     15084     15082     15102     15105
     15085     15087     15089     15090     15085     15087     15089     15091
     15085     15095     15097     15107     15085     15095     15098     15099
     15085     15095     15098     15100     15086     15085     15087     15088
     15086     15085     15087     15089     15086     15085     15095     15096
     15086     15085     15095     15097     15086     15085     15095     15098
     15087     15085     15095     15096     15087     15085     15095     15097
     15087     15085     15095     15098     15087     15089     15091     15092
     15087     15089     15091     15093     15087     15089     15091     15094
     15088     15087     15085     15095     15088     15087     15089     15090
     15088     15087     15089     15091     15089     15087     15085     15095
     15090     15089     15091     15092     15090     15089     15091     15093
     15090     15089     15091     15094     15095     15097     15107     15108
     15095     15097     15107     15111     15095     15097     15107     15112
     15095     15098     15082     15102     15095     15098     15100     15101
     15096     15095     15097     15107     15096     15095     15098     15099
     15096     15095     15098     15100     15097     15095     15098     15099
     15097     15095     15098     15100     15097     15107     15111     15109
     15097     15107     15112     15113     15097     15107     15112     15114
     15097     15107     15112     15115     15098     15082     15102     15103
     15098     15082     15102     15104     15098     15082     15102     15105
     15098     15095     15097     15107     15099     15098     15082     15102
     15099     15098     15100     15101     15100     15098     15082     15102
     15103     15102     15105     15106     15104     15102     15105     15106
     15107     15111     15109     15110     15107     15111     15109     15119
     15107     15111     15109     15123     15107     15112     15114     15128
     15107     15112     15115     15116     15107     15112     15115     15117
     15107     15112     15115     15119     15108     15107     15111     15109
     15108     15107     15112     15113     15108     15107     15112     15114
     15108     15107     15112     15115     15109     15111     15107     15112
     15109     15119     15115     15112     15109     15119     15115     15116
     15109     15119     15115     15117     15109     15119     15121     15122
     15109     15123     15126     15127     15110     15109     15119     15115
     15110     15109     15119     15120     15110     15109     15119     15121
     15110     15109     15123     15124     15110     15109     15123     15125
     15110     15109     15123     15126     15111     15107     15112     15113
     15111     15107     15112     15114     15111     15107     15112     15115
     15111     15109     15119     15115     15111     15109     15119     15120
     15111     15109     15119     15121     15111     15109     15123     15124
     15111     15109     15123     15125     15111     15109     15123     15126
     15112     15114     15128     15129     15112     15114     15128     15132
     15112     15114     15128     15133     15112     15115     15117     15118
     15112     15115     15119     15120     15112     15115     15119     15121
     15113     15112     15114     15128     15113     15112     15115     15116
     15113     15112     15115     15117     15113     15112     15115     15119
     15114     15112     15115     15116     15114     15112     15115     15117
     15114     15112     15115     15119     15114     15128     15132     15130
     15114     15128     15133     15134     15114     15128     15133     15135
     15114     15128     15133     15136     15115     15112     15114     15128
     15115     15119     15109     15123     15115     15119     15121     15122
     15116     15115     15117     15118     15116     15115     15119     15120
     15116     15115     15119     15121     15117     15115     15119     15120
     15117     15115     15119     15121     15118     15117     15115     15119
     15119     15109     15123     15124     15119     15109     15123     15125
     15119     15109     15123     15126     15120     15119     15109     15123
     15120     15119     15121     15122     15121     15119     15109     15123
     15124     15123     15126     15127     15125     15123     15126     15127
     15128     15132     15130     15131     15128     15132     15130     15140
     15128     15132     15130     15144     15128     15133     15135     15148
     15128     15133     15136     15137     15128     15133     15136     15138
     15128     15133     15136     15140     15129     15128     15132     15130
     15129     15128     15133     15134     15129     15128     15133     15135
     15129     15128     15133     15136     15130     15132     15128     15133
     15130     15140     15136     15133     15130     15140     15136     15137
     15130     15140     15136     15138     15130     15140     15142     15143
     15131     15130     15140     15136     15131     15130     15140     15141
     15131     15130     15140     15142     15131     15130     15144     15145
     15131     15130     15144     15146     15131     15130     15144     15147
     15132     15128     15133     15134     15132     15128     15133     15135
     15132     15128     15133     15136     15132     15130     15140     15136
     15132     15130     15140     15141     15132     15130     15140     15142
     15132     15130     15144     15145     15132     15130     15144     15146
     15132     15130     15144     15147     15133     15135     15148     15149
     15133     15135     15148     15152     15133     15135     15148     15153
     15133     15136     15138     15139     15133     15136     15140     15141
     15133     15136     15140     15142     15134     15133     15135     15148
     15134     15133     15136     15137     15134     15133     15136     15138
     15134     15133     15136     15140     15135     15133     15136     15137
     15135     15133     15136     15138     15135     15133     15136     15140
     15135     15148     15152     15150     15135     15148     15153     15154
     15135     15148     15153     15155     15135     15148     15153     15156
     15136     15133     15135     15148     15136     15140     15130     15144
     15136     15140     15142     15143     15137     15136     15138     15139
     15137     15136     15140     15141     15137     15136     15140     15142
     15138     15136     15140     15141     15138     15136     15140     15142
     15139     15138     15136     15140     15140     15130     15144     15145
     15140     15130     15144     15146     15140     15130     15144     15147
     15141     15140     15130     15144     15141     15140     15142     15143
     15142     15140     15130     15144     15148     15152     15150     15151
     15148     15152     15150     15159     15148     15152     15150     15163
     15148     15153     15155     15167     15148     15153     15156     15157
     15148     15153     15156     15158     15148     15153     15156     15159
     15149     15148     15152     15150     15149     15148     15153     15154
     15149     15148     15153     15155     15149     15148     15153     15156
     15150     15152     15148     15153     15150     15159     15156     15153
     15150     15159     15156     15157     15150     15159     15156     15158
     15150     15159     15161     15162     15151     15150     15159     15156
     15151     15150     15159     15160     15151     15150     15159     15161
     15151     15150     15163     15164     15151     15150     15163     15165
     15151     15150     15163     15166     15152     15148     15153     15154
     15152     15148     15153     15155     15152     15148     15153     15156
     15152     15150     15159     15156     15152     15150     15159     15160
     15152     15150     15159     15161     15152     15150     15163     15164
     15152     15150     15163     15165     15152     15150     15163     15166
     15153     15155     15167     15168     15153     15155     15167     15171
     15153     15155     15167     15172     15153     15156     15158     15195
     15153     15156     15159     15160     15153     15156     15159     15161
     15154     15153     15155     15167     15154     15153     15156     15157
     15154     15153     15156     15158     15154     15153     15156     15159
     15155     15153     15156     15157     15155     15153     15156     15158
     15155     15153     15156     15159     15155     15167     15171     15169
     15155     15167     15172     15173     15155     15167     15172     15174
     15155     15167     15172     15182     15156     15153     15155     15167
     15156     15158     15195     15196     15156     15158     15195     15199
     15156     15158     15195     15200     15156     15159     15150     15163
     15156     15159     15161     15162     15157     15156     15158     15195
     15157     15156     15159     15160     15157     15156     15159     15161
     15158     15156     15159     15160     15158     15156     15159     15161
     15158     15195     15199     15197     15158     15195     15200     15201
     15158     15195     15200     15202     15158     15195     15200     15210
     15159     15150     15163     15164     15159     15150     15163     15165
     15159     15150     15163     15166     15159     15156     15158     15195
     15160     15159     15150     15163     15160     15159     15161     15162
     15161     15159     15150     15163     15167     15171     15169     15170
     15167     15171     15169     15186     15167     15171     15169     15190
     15167     15172     15174     15175     15167     15172     15174     15176
     15167     15172     15182     15183     15167     15172     15182     15184
     15167     15172     15182     15186     15168     15167     15171     15169
     15168     15167     15172     15173     15168     15167     15172     15174
     15168     15167     15172     15182     15169     15171     15167     15172
     15169     15186     15182     15172     15169     15186     15182     15183
     15169     15186     15182     15184     15169     15186     15188     15189
     15169     15190     15193     15194     15170     15169     15186     15182
     15170     15169     15186     15187     15170     15169     15186     15188
     15170     15169     15190     15191     15170     15169     15190     15192
     15170     15169     15190     15193     15171     15167     15172     15173
     15171     15167     15172     15174     15171     15167     15172     15182
     15171     15169     15186     15182     15171     15169     15186     15187
     15171     15169     15186     15188     15171     15169     15190     15191
     15171     15169     15190     15192     15171     15169     15190     15193
     15172     15174     15176     15177     15172     15174     15176     15178
     15172     15182     15184     15185     15172     15182     15186     15187
     15172     15182     15186     15188     15173     15172     15174     15175
     15173     15172     15174     15176     15173     15172     15182     15183
     15173     15172     15182     15184     15173     15172     15182     15186
     15174     15172     15182     15183     15174     15172     15182     15184
     15174     15172     15182     15186     15174     15176     15178     15179
     15174     15176     15178     15180     15174     15176     15178     15181
     15175     15174     15172     15182     15175     15174     15176     15177
     15175     15174     15176     15178     15176     15174     15172     15182
     15177     15176     15178     15179     15177     15176     15178     15180
     15177     15176     15178     15181     15182     15186     15169     15190
     15182     15186     15188     15189     15183     15182     15184     15185
     15183     15182     15186     15187     15183     15182     15186     15188
     15184     15182     15186     15187     15184     15182     15186     15188
     15185     15184     15182     15186     15186     15169     15190     15191
     15186     15169     15190     15192     15186     15169     15190     15193
     15187     15186     15169     15190     15187     15186     15188     15189
     15188     15186     15169     15190     15191     15190     15193     15194
     15192     15190     15193     15194     15195     15199     15197     15198
     15195     15199     15197     15213     15195     15199     15197     15217
     15195     15200     15202     15203     15195     15200     15202     15204
     15195     15200     15210     15211     15195     15200     15210     15212
     15195     15200     15210     15213     15196     15195     15199     15197
     15196     15195     15200     15201     15196     15195     15200     15202
     15196     15195     15200     15210     15197     15199     15195     15200
     15197     15213     15210     15200     15197     15213     15210     15211
     15197     15213     15210     15212     15197     15213     15215     15216
     15197     15217     15220     15221     15198     15197     15213     15210
     15198     15197     15213     15214     15198     15197     15213     15215
     15198     15197     15217     15218     15198     15197     15217     15219
     15198     15197     15217     15220     15199     15195     15200     15201
     15199     15195     15200     15202     15199     15195     15200     15210
     15199     15197     15213     15210     15199     15197     15213     15214
     15199     15197     15213     15215     15199     15197     15217     15218
     15199     15197     15217     15219     15199     15197     15217     15220
     15200     15202     15204     15205     15200     15202     15204     15206
     15200     15210     15212     15222     15200     15210     15213     15214
     15200     15210     15213     15215     15201     15200     15202     15203
     15201     15200     15202     15204     15201     15200     15210     15211
     15201     15200     15210     15212     15201     15200     15210     15213
     15202     15200     15210     15211     15202     15200     15210     15212
     15202     15200     15210     15213     15202     15204     15206     15207
     15202     15204     15206     15208     15202     15204     15206     15209
     15203     15202     15200     15210     15203     15202     15204     15205
     15203     15202     15204     15206     15204     15202     15200     15210
     15205     15204     15206     15207     15205     15204     15206     15208
     15205     15204     15206     15209     15210     15212     15222     15223
     15210     15212     15222     15226     15210     15212     15222     15227
     15210     15213     15197     15217     15210     15213     15215     15216
     15211     15210     15212     15222     15211     15210     15213     15214
     15211     15210     15213     15215     15212     15210     15213     15214
     15212     15210     15213     15215     15212     15222     15226     15224
     15212     15222     15227     15228     15212     15222     15227     15229
     15212     15222     15227     15230     15213     15197     15217     15218
     15213     15197     15217     15219     15213     15197     15217     15220
     15213     15210     15212     15222     15214     15213     15197     15217
     15214     15213     15215     15216     15215     15213     15197     15217
     15218     15217     15220     15221     15219     15217     15220     15221
     15222     15226     15224     15225     15222     15226     15224     15234
     15222     15226     15224     15238     15222     15227     15229     15243
     15222     15227     15230     15231     15222     15227     15230     15232
     15222     15227     15230     15234     15223     15222     15226     15224
     15223     15222     15227     15228     15223     15222     15227     15229
     15223     15222     15227     15230     15224     15226     15222     15227
     15224     15234     15230     15227     15224     15234     15230     15231
     15224     15234     15230     15232     15224     15234     15236     15237
     15224     15238     15241     15242     15225     15224     15234     15230
     15225     15224     15234     15235     15225     15224     15234     15236
     15225     15224     15238     15239     15225     15224     15238     15240
     15225     15224     15238     15241     15226     15222     15227     15228
     15226     15222     15227     15229     15226     15222     15227     15230
     15226     15224     15234     15230     15226     15224     15234     15235
     15226     15224     15234     15236     15226     15224     15238     15239
     15226     15224     15238     15240     15226     15224     15238     15241
     15227     15229     15243     15244     15227     15229     15243     15247
     15227     15229     15243     15248     15227     15230     15232     15233
     15227     15230     15234     15235     15227     15230     15234     15236
     15228     15227     15229     15243     15228     15227     15230     15231
     15228     15227     15230     15232     15228     15227     15230     15234
     15229     15227     15230     15231     15229     15227     15230     15232
     15229     15227     15230     15234     15229     15243     15247     15245
     15229     15243     15248     15249     15229     15243     15248     15250
     15229     15243     15248     15251     15230     15227     15229     15243
     15230     15234     15224     15238     15230     15234     15236     15237
     15231     15230     15232     15233     15231     15230     15234     15235
     15231     15230     15234     15236     15232     15230     15234     15235
     15232     15230     15234     15236     15233     15232     15230     15234
     15234     15224     15238     15239     15234     15224     15238     15240
     15234     15224     15238     15241     15235     15234     15224     15238
     15235     15234     15236     15237     15236     15234     15224     15238
     15239     15238     15241     15242     15240     15238     15241     15242
     15243     15247     15245     15246     15243     15247     15245     15255
     15243     15247     15245     15259     15243     15248     15250     15263
     15243     15248     15251     15252     15243     15248     15251     15253
     15243     15248     15251     15255     15244     15243     15247     15245
     15244     15243     15248     15249     15244     15243     15248     15250
     15244     15243     15248     15251     15245     15247     15243     15248
     15245     15255     15251     15248     15245     15255     15251     15252
     15245     15255     15251     15253     15245     15255     15257     15258
     15246     15245     15255     15251     15246     15245     15255     15256
     15246     15245     15255     15257     15246     15245     15259     15260
     15246     15245     15259     15261     15246     15245     15259     15262
     15247     15243     15248     15249     15247     15243     15248     15250
     15247     15243     15248     15251     15247     15245     15255     15251
     15247     15245     15255     15256     15247     15245     15255     15257
     15247     15245     15259     15260     15247     15245     15259     15261
     15247     15245     15259     15262     15248     15250     15263     15264
     15248     15250     15263     15267     15248     15250     15263     15268
     15248     15251     15253     15254     15248     15251     15255     15256
     15248     15251     15255     15257     15249     15248     15250     15263
     15249     15248     15251     15252     15249     15248     15251     15253
     15249     15248     15251     15255     15250     15248     15251     15252
     15250     15248     15251     15253     15250     15248     15251     15255
     15250     15263     15267     15265     15250     15263     15268     15269
     15250     15263     15268     15270     15250     15263     15268     15271
     15251     15248     15250     15263     15251     15255     15245     15259
     15251     15255     15257     15258     15252     15251     15253     15254
     15252     15251     15255     15256     15252     15251     15255     15257
     15253     15251     15255     15256     15253     15251     15255     15257
     15254     15253     15251     15255     15255     15245     15259     15260
     15255     15245     15259     15261     15255     15245     15259     15262
     15256     15255     15245     15259     15256     15255     15257     15258
     15257     15255     15245     15259     15263     15267     15265     15266
     15263     15267     15265     15274     15263     15267     15265     15278
     15263     15268     15270     15282     15263     15268     15271     15272
     15263     15268     15271     15273     15263     15268     15271     15274
     15264     15263     15267     15265     15264     15263     15268     15269
     15264     15263     15268     15270     15264     15263     15268     15271
     15265     15267     15263     15268     15265     15274     15271     15268
     15265     15274     15271     15272     15265     15274     15271     15273
     15265     15274     15276     15277     15266     15265     15274     15271
     15266     15265     15274     15275     15266     15265     15274     15276
     15266     15265     15278     15279     15266     15265     15278     15280
     15266     15265     15278     15281     15267     15263     15268     15269
     15267     15263     15268     15270     15267     15263     15268     15271
     15267     15265     15274     15271     15267     15265     15274     15275
     15267     15265     15274     15276     15267     15265     15278     15279
     15267     15265     15278     15280     15267     15265     15278     15281
     15268     15270     15282     15283     15268     15270     15282     15286
     15268     15270     15282     15287     15268     15271     15273     15310
     15268     15271     15274     15275     15268     15271     15274     15276
     15269     15268     15270     15282     15269     15268     15271     15272
     15269     15268     15271     15273     15269     15268     15271     15274
     15270     15268     15271     15272     15270     15268     15271     15273
     15270     15268     15271     15274     15270     15282     15286     15284
     15270     15282     15287     15288     15270     15282     15287     15289
     15270     15282     15287     15297     15271     15268     15270     15282
     15271     15273     15310     15311     15271     15273     15310     15314
     15271     15273     15310     15315     15271     15274     15265     15278
     15271     15274     15276     15277     15272     15271     15273     15310
     15272     15271     15274     15275     15272     15271     15274     15276
     15273     15271     15274     15275     15273     15271     15274     15276
     15273     15310     15314     15312     15273     15310     15315     15316
     15273     15310     15315     15317     15273     15310     15315     15325
     15274     15265     15278     15279     15274     15265     15278     15280
     15274     15265     15278     15281     15274     15271     15273     15310
     15275     15274     15265     15278     15275     15274     15276     15277
     15276     15274     15265     15278     15282     15286     15284     15285
     15282     15286     15284     15301     15282     15286     15284     15305
     15282     15287     15289     15290     15282     15287     15289     15291
     15282     15287     15297     15298     15282     15287     15297     15299
     15282     15287     15297     15301     15283     15282     15286     15284
     15283     15282     15287     15288     15283     15282     15287     15289
     15283     15282     15287     15297     15284     15286     15282     15287
     15284     15301     15297     15287     15284     15301     15297     15298
     15284     15301     15297     15299     15284     15301     15303     15304
     15284     15305     15308     15309     15285     15284     15301     15297
     15285     15284     15301     15302     15285     15284     15301     15303
     15285     15284     15305     15306     15285     15284     15305     15307
     15285     15284     15305     15308     15286     15282     15287     15288
     15286     15282     15287     15289     15286     15282     15287     15297
     15286     15284     15301     15297     15286     15284     15301     15302
     15286     15284     15301     15303     15286     15284     15305     15306
     15286     15284     15305     15307     15286     15284     15305     15308
     15287     15289     15291     15292     15287     15289     15291     15293
     15287     15297     15299     15300     15287     15297     15301     15302
     15287     15297     15301     15303     15288     15287     15289     15290
     15288     15287     15289     15291     15288     15287     15297     15298
     15288     15287     15297     15299     15288     15287     15297     15301
     15289     15287     15297     15298     15289     15287     15297     15299
     15289     15287     15297     15301     15289     15291     15293     15294
     15289     15291     15293     15295     15289     15291     15293     15296
     15290     15289     15287     15297     15290     15289     15291     15292
     15290     15289     15291     15293     15291     15289     15287     15297
     15292     15291     15293     15294     15292     15291     15293     15295
     15292     15291     15293     15296     15297     15301     15284     15305
     15297     15301     15303     15304     15298     15297     15299     15300
     15298     15297     15301     15302     15298     15297     15301     15303
     15299     15297     15301     15302     15299     15297     15301     15303
     15300     15299     15297     15301     15301     15284     15305     15306
     15301     15284     15305     15307     15301     15284     15305     15308
     15302     15301     15284     15305     15302     15301     15303     15304
     15303     15301     15284     15305     15306     15305     15308     15309
     15307     15305     15308     15309     15310     15314     15312     15313
     15310     15314     15312     15328     15310     15314     15312     15332
     15310     15315     15317     15318     15310     15315     15317     15319
     15310     15315     15325     15326     15310     15315     15325     15327
     15310     15315     15325     15328     15311     15310     15314     15312
     15311     15310     15315     15316     15311     15310     15315     15317
     15311     15310     15315     15325     15312     15314     15310     15315
     15312     15328     15325     15315     15312     15328     15325     15326
     15312     15328     15325     15327     15312     15328     15330     15331
     15312     15332     15335     15336     15313     15312     15328     15325
     15313     15312     15328     15329     15313     15312     15328     15330
     15313     15312     15332     15333     15313     15312     15332     15334
     15313     15312     15332     15335     15314     15310     15315     15316
     15314     15310     15315     15317     15314     15310     15315     15325
     15314     15312     15328     15325     15314     15312     15328     15329
     15314     15312     15328     15330     15314     15312     15332     15333
     15314     15312     15332     15334     15314     15312     15332     15335
     15315     15317     15319     15320     15315     15317     15319     15321
     15315     15325     15327     15337     15315     15325     15328     15329
     15315     15325     15328     15330     15316     15315     15317     15318
     15316     15315     15317     15319     15316     15315     15325     15326
     15316     15315     15325     15327     15316     15315     15325     15328
     15317     15315     15325     15326     15317     15315     15325     15327
     15317     15315     15325     15328     15317     15319     15321     15322
     15317     15319     15321     15323     15317     15319     15321     15324
     15318     15317     15315     15325     15318     15317     15319     15320
     15318     15317     15319     15321     15319     15317     15315     15325
     15320     15319     15321     15322     15320     15319     15321     15323
     15320     15319     15321     15324     15325     15327     15337     15338
     15325     15327     15337     15341     15325     15327     15337     15342
     15325     15328     15312     15332     15325     15328     15330     15331
     15326     15325     15327     15337     15326     15325     15328     15329
     15326     15325     15328     15330     15327     15325     15328     15329
     15327     15325     15328     15330     15327     15337     15341     15339
     15327     15337     15342     15343     15327     15337     15342     15344
     15327     15337     15342     15345     15328     15312     15332     15333
     15328     15312     15332     15334     15328     15312     15332     15335
     15328     15325     15327     15337     15329     15328     15312     15332
     15329     15328     15330     15331     15330     15328     15312     15332
     15333     15332     15335     15336     15334     15332     15335     15336
     15337     15341     15339     15340     15337     15341     15339     15349
     15337     15341     15339     15353     15337     15342     15344     15358
     15337     15342     15345     15346     15337     15342     15345     15347
     15337     15342     15345     15349     15338     15337     15341     15339
     15338     15337     15342     15343     15338     15337     15342     15344
     15338     15337     15342     15345     15339     15341     15337     15342
     15339     15349     15345     15342     15339     15349     15345     15346
     15339     15349     15345     15347     15339     15349     15351     15352
     15339     15353     15356     15357     15340     15339     15349     15345
     15340     15339     15349     15350     15340     15339     15349     15351
     15340     15339     15353     15354     15340     15339     15353     15355
     15340     15339     15353     15356     15341     15337     15342     15343
     15341     15337     15342     15344     15341     15337     15342     15345
     15341     15339     15349     15345     15341     15339     15349     15350
     15341     15339     15349     15351     15341     15339     15353     15354
     15341     15339     15353     15355     15341     15339     15353     15356
     15342     15344     15358     15359     15342     15344     15358     15362
     15342     15344     15358     15363     15342     15345     15347     15348
     15342     15345     15349     15350     15342     15345     15349     15351
     15343     15342     15344     15358     15343     15342     15345     15346
     15343     15342     15345     15347     15343     15342     15345     15349
     15344     15342     15345     15346     15344     15342     15345     15347
     15344     15342     15345     15349     15344     15358     15362     15360
     15344     15358     15363     15364     15344     15358     15363     15365
     15344     15358     15363     15366     15345     15342     15344     15358
     15345     15349     15339     15353     15345     15349     15351     15352
     15346     15345     15347     15348     15346     15345     15349     15350
     15346     15345     15349     15351     15347     15345     15349     15350
     15347     15345     15349     15351     15348     15347     15345     15349
     15349     15339     15353     15354     15349     15339     15353     15355
     15349     15339     15353     15356     15350     15349     15339     15353
     15350     15349     15351     15352     15351     15349     15339     15353
     15354     15353     15356     15357     15355     15353     15356     15357
     15358     15362     15360     15361     15358     15362     15360     15370
     15358     15362     15360     15374     15358     15363     15365     15378
     15358     15363     15366     15367     15358     15363     15366     15368
     15358     15363     15366     15370     15359     15358     15362     15360
     15359     15358     15363     15364     15359     15358     15363     15365
     15359     15358     15363     15366     15360     15362     15358     15363
     15360     15370     15366     15363     15360     15370     15366     15367
     15360     15370     15366     15368     15360     15370     15372     15373
     15361     15360     15370     15366     15361     15360     15370     15371
     15361     15360     15370     15372     15361     15360     15374     15375
     15361     15360     15374     15376     15361     15360     15374     15377
     15362     15358     15363     15364     15362     15358     15363     15365
     15362     15358     15363     15366     15362     15360     15370     15366
     15362     15360     15370     15371     15362     15360     15370     15372
     15362     15360     15374     15375     15362     15360     15374     15376
     15362     15360     15374     15377     15363     15365     15378     15379
     15363     15365     15378     15382     15363     15365     15378     15383
     15363     15366     15368     15369     15363     15366     15370     15371
     15363     15366     15370     15372     15364     15363     15365     15378
     15364     15363     15366     15367     15364     15363     15366     15368
     15364     15363     15366     15370     15365     15363     15366     15367
     15365     15363     15366     15368     15365     15363     15366     15370
     15365     15378     15382     15380     15365     15378     15383     15384
     15365     15378     15383     15385     15365     15378     15383     15386
     15366     15363     15365     15378     15366     15370     15360     15374
     15366     15370     15372     15373     15367     15366     15368     15369
     15367     15366     15370     15371     15367     15366     15370     15372
     15368     15366     15370     15371     15368     15366     15370     15372
     15369     15368     15366     15370     15370     15360     15374     15375
     15370     15360     15374     15376     15370     15360     15374     15377
     15371     15370     15360     15374     15371     15370     15372     15373
     15372     15370     15360     15374     15378     15382     15380     15381
     15378     15382     15380     15389     15378     15382     15380     15393
     15378     15383     15385     15397     15378     15383     15386     15387
     15378     15383     15386     15388     15378     15383     15386     15389
     15379     15378     15382     15380     15379     15378     15383     15384
     15379     15378     15383     15385     15379     15378     15383     15386
     15380     15382     15378     15383     15380     15389     15386     15383
     15380     15389     15386     15387     15380     15389     15386     15388
     15380     15389     15391     15392     15381     15380     15389     15386
     15381     15380     15389     15390     15381     15380     15389     15391
     15381     15380     15393     15394     15381     15380     15393     15395
     15381     15380     15393     15396     15382     15378     15383     15384
     15382     15378     15383     15385     15382     15378     15383     15386
     15382     15380     15389     15386     15382     15380     15389     15390
     15382     15380     15389     15391     15382     15380     15393     15394
     15382     15380     15393     15395     15382     15380     15393     15396
     15383     15385     15397     15398     15383     15385     15397     15401
     15383     15385     15397     15402     15383     15386     15388     15425
     15383     15386     15389     15390     15383     15386     15389     15391
     15384     15383     15385     15397     15384     15383     15386     15387
     15384     15383     15386     15388     15384     15383     15386     15389
     15385     15383     15386     15387     15385     15383     15386     15388
     15385     15383     15386     15389     15385     15397     15401     15399
     15385     15397     15402     15403     15385     15397     15402     15404
     15385     15397     15402     15412     15386     15383     15385     15397
     15386     15388     15425     15426     15386     15388     15425     15429
     15386     15388     15425     15430     15386     15389     15380     15393
     15386     15389     15391     15392     15387     15386     15388     15425
     15387     15386     15389     15390     15387     15386     15389     15391
     15388     15386     15389     15390     15388     15386     15389     15391
     15388     15425     15429     15427     15388     15425     15430     15431
     15388     15425     15430     15432     15388     15425     15430     15440
     15389     15380     15393     15394     15389     15380     15393     15395
     15389     15380     15393     15396     15389     15386     15388     15425
     15390     15389     15380     15393     15390     15389     15391     15392
     15391     15389     15380     15393     15397     15401     15399     15400
     15397     15401     15399     15416     15397     15401     15399     15420
     15397     15402     15404     15405     15397     15402     15404     15406
     15397     15402     15412     15413     15397     15402     15412     15414
     15397     15402     15412     15416     15398     15397     15401     15399
     15398     15397     15402     15403     15398     15397     15402     15404
     15398     15397     15402     15412     15399     15401     15397     15402
     15399     15416     15412     15402     15399     15416     15412     15413
     15399     15416     15412     15414     15399     15416     15418     15419
     15399     15420     15423     15424     15400     15399     15416     15412
     15400     15399     15416     15417     15400     15399     15416     15418
     15400     15399     15420     15421     15400     15399     15420     15422
     15400     15399     15420     15423     15401     15397     15402     15403
     15401     15397     15402     15404     15401     15397     15402     15412
     15401     15399     15416     15412     15401     15399     15416     15417
     15401     15399     15416     15418     15401     15399     15420     15421
     15401     15399     15420     15422     15401     15399     15420     15423
     15402     15404     15406     15407     15402     15404     15406     15408
     15402     15412     15414     15415     15402     15412     15416     15417
     15402     15412     15416     15418     15403     15402     15404     15405
     15403     15402     15404     15406     15403     15402     15412     15413
     15403     15402     15412     15414     15403     15402     15412     15416
     15404     15402     15412     15413     15404     15402     15412     15414
     15404     15402     15412     15416     15404     15406     15408     15409
     15404     15406     15408     15410     15404     15406     15408     15411
     15405     15404     15402     15412     15405     15404     15406     15407
     15405     15404     15406     15408     15406     15404     15402     15412
     15407     15406     15408     15409     15407     15406     15408     15410
     15407     15406     15408     15411     15412     15416     15399     15420
     15412     15416     15418     15419     15413     15412     15414     15415
     15413     15412     15416     15417     15413     15412     15416     15418
     15414     15412     15416     15417     15414     15412     15416     15418
     15415     15414     15412     15416     15416     15399     15420     15421
     15416     15399     15420     15422     15416     15399     15420     15423
     15417     15416     15399     15420     15417     15416     15418     15419
     15418     15416     15399     15420     15421     15420     15423     15424
     15422     15420     15423     15424     15425     15429     15427     15428
     15425     15429     15427     15443     15425     15429     15427     15447
     15425     15430     15432     15433     15425     15430     15432     15434
     15425     15430     15440     15441     15425     15430     15440     15442
     15425     15430     15440     15443     15426     15425     15429     15427
     15426     15425     15430     15431     15426     15425     15430     15432
     15426     15425     15430     15440     15427     15429     15425     15430
     15427     15443     15440     15430     15427     15443     15440     15441
     15427     15443     15440     15442     15427     15443     15445     15446
     15427     15447     15450     15451     15428     15427     15443     15440
     15428     15427     15443     15444     15428     15427     15443     15445
     15428     15427     15447     15448     15428     15427     15447     15449
     15428     15427     15447     15450     15429     15425     15430     15431
     15429     15425     15430     15432     15429     15425     15430     15440
     15429     15427     15443     15440     15429     15427     15443     15444
     15429     15427     15443     15445     15429     15427     15447     15448
     15429     15427     15447     15449     15429     15427     15447     15450
     15430     15432     15434     15435     15430     15432     15434     15436
     15430     15440     15442     15452     15430     15440     15443     15444
     15430     15440     15443     15445     15431     15430     15432     15433
     15431     15430     15432     15434     15431     15430     15440     15441
     15431     15430     15440     15442     15431     15430     15440     15443
     15432     15430     15440     15441     15432     15430     15440     15442
     15432     15430     15440     15443     15432     15434     15436     15437
     15432     15434     15436     15438     15432     15434     15436     15439
     15433     15432     15430     15440     15433     15432     15434     15435
     15433     15432     15434     15436     15434     15432     15430     15440
     15435     15434     15436     15437     15435     15434     15436     15438
     15435     15434     15436     15439     15440     15442     15452     15453
     15440     15442     15452     15456     15440     15442     15452     15457
     15440     15443     15427     15447     15440     15443     15445     15446
     15441     15440     15442     15452     15441     15440     15443     15444
     15441     15440     15443     15445     15442     15440     15443     15444
     15442     15440     15443     15445     15442     15452     15456     15454
     15442     15452     15457     15458     15442     15452     15457     15459
     15442     15452     15457     15460     15443     15427     15447     15448
     15443     15427     15447     15449     15443     15427     15447     15450
     15443     15440     15442     15452     15444     15443     15427     15447
     15444     15443     15445     15446     15445     15443     15427     15447
     15448     15447     15450     15451     15449     15447     15450     15451
     15452     15456     15454     15455     15452     15456     15454     15464
     15452     15456     15454     15468     15452     15457     15459     15473
     15452     15457     15460     15461     15452     15457     15460     15462
     15452     15457     15460     15464     15453     15452     15456     15454
     15453     15452     15457     15458     15453     15452     15457     15459
     15453     15452     15457     15460     15454     15456     15452     15457
     15454     15464     15460     15457     15454     15464     15460     15461
     15454     15464     15460     15462     15454     15464     15466     15467
     15454     15468     15471     15472     15455     15454     15464     15460
     15455     15454     15464     15465     15455     15454     15464     15466
     15455     15454     15468     15469     15455     15454     15468     15470
     15455     15454     15468     15471     15456     15452     15457     15458
     15456     15452     15457     15459     15456     15452     15457     15460
     15456     15454     15464     15460     15456     15454     15464     15465
     15456     15454     15464     15466     15456     15454     15468     15469
     15456     15454     15468     15470     15456     15454     15468     15471
     15457     15459     15473     15474     15457     15459     15473     15477
     15457     15459     15473     15478     15457     15460     15462     15463
     15457     15460     15464     15465     15457     15460     15464     15466
     15458     15457     15459     15473     15458     15457     15460     15461
     15458     15457     15460     15462     15458     15457     15460     15464
     15459     15457     15460     15461     15459     15457     15460     15462
     15459     15457     15460     15464     15459     15473     15477     15475
     15459     15473     15478     15479     15459     15473     15478     15480
     15459     15473     15478     15481     15460     15457     15459     15473
     15460     15464     15454     15468     15460     15464     15466     15467
     15461     15460     15462     15463     15461     15460     15464     15465
     15461     15460     15464     15466     15462     15460     15464     15465
     15462     15460     15464     15466     15463     15462     15460     15464
     15464     15454     15468     15469     15464     15454     15468     15470
     15464     15454     15468     15471     15465     15464     15454     15468
     15465     15464     15466     15467     15466     15464     15454     15468
     15469     15468     15471     15472     15470     15468     15471     15472
     15473     15477     15475     15476     15473     15477     15475     15485
     15473     15477     15475     15489     15473     15478     15480     15493
     15473     15478     15481     15482     15473     15478     15481     15483
     15473     15478     15481     15485     15474     15473     15477     15475
     15474     15473     15478     15479     15474     15473     15478     15480
     15474     15473     15478     15481     15475     15477     15473     15478
     15475     15485     15481     15478     15475     15485     15481     15482
     15475     15485     15481     15483     15475     15485     15487     15488
     15476     15475     15485     15481     15476     15475     15485     15486
     15476     15475     15485     15487     15476     15475     15489     15490
     15476     15475     15489     15491     15476     15475     15489     15492
     15477     15473     15478     15479     15477     15473     15478     15480
     15477     15473     15478     15481     15477     15475     15485     15481
     15477     15475     15485     15486     15477     15475     15485     15487
     15477     15475     15489     15490     15477     15475     15489     15491
     15477     15475     15489     15492     15478     15480     15493     15494
     15478     15480     15493     15497     15478     15480     15493     15498
     15478     15481     15483     15484     15478     15481     15485     15486
     15478     15481     15485     15487     15479     15478     15480     15493
     15479     15478     15481     15482     15479     15478     15481     15483
     15479     15478     15481     15485     15480     15478     15481     15482
     15480     15478     15481     15483     15480     15478     15481     15485
     15480     15493     15497     15495     15480     15493     15498     15499
     15480     15493     15498     15500     15480     15493     15498     15501
     15481     15478     15480     15493     15481     15485     15475     15489
     15481     15485     15487     15488     15482     15481     15483     15484
     15482     15481     15485     15486     15482     15481     15485     15487
     15483     15481     15485     15486     15483     15481     15485     15487
     15484     15483     15481     15485     15485     15475     15489     15490
     15485     15475     15489     15491     15485     15475     15489     15492
     15486     15485     15475     15489     15486     15485     15487     15488
     15487     15485     15475     15489     15493     15497     15495     15496
     15493     15497     15495     15505     15493     15497     15495     15509
     15493     15498     15500     15513     15493     15498     15501     15502
     15493     15498     15501     15503     15493     15498     15501     15505
     15494     15493     15497     15495     15494     15493     15498     15499
     15494     15493     15498     15500     15494     15493     15498     15501
     15495     15497     15493     15498     15495     15505     15501     15498
     15495     15505     15501     15502     15495     15505     15501     15503
     15495     15505     15507     15508     15496     15495     15505     15501
     15496     15495     15505     15506     15496     15495     15505     15507
     15496     15495     15509     15510     15496     15495     15509     15511
     15496     15495     15509     15512     15497     15493     15498     15499
     15497     15493     15498     15500     15497     15493     15498     15501
     15497     15495     15505     15501     15497     15495     15505     15506
     15497     15495     15505     15507     15497     15495     15509     15510
     15497     15495     15509     15511     15497     15495     15509     15512
     15498     15500     15513     15514     15498     15500     15513     15517
     15498     15500     15513     15518     15498     15501     15503     15504
     15498     15501     15505     15506     15498     15501     15505     15507
     15499     15498     15500     15513     15499     15498     15501     15502
     15499     15498     15501     15503     15499     15498     15501     15505
     15500     15498     15501     15502     15500     15498     15501     15503
     15500     15498     15501     15505     15500     15513     15517     15515
     15500     15513     15518     15519     15500     15513     15518     15520
     15500     15513     15518     15528     15501     15498     15500     15513
     15501     15505     15495     15509     15501     15505     15507     15508
     15502     15501     15503     15504     15502     15501     15505     15506
     15502     15501     15505     15507     15503     15501     15505     15506
     15503     15501     15505     15507     15504     15503     15501     15505
     15505     15495     15509     15510     15505     15495     15509     15511
     15505     15495     15509     15512     15506     15505     15495     15509
     15506     15505     15507     15508     15507     15505     15495     15509
     15513     15517     15515     15516     15513     15517     15515     15532
     15513     15517     15515     15536     15513     15518     15520     15521
     15513     15518     15520     15522     15513     15518     15528     15529
     15513     15518     15528     15530     15513     15518     15528     15532
     15514     15513     15517     15515     15514     15513     15518     15519
     15514     15513     15518     15520     15514     15513     15518     15528
     15515     15517     15513     15518     15515     15532     15528     15518
     15515     15532     15528     15529     15515     15532     15528     15530
     15515     15532     15534     15535     15515     15536     15539     15540
     15516     15515     15532     15528     15516     15515     15532     15533
     15516     15515     15532     15534     15516     15515     15536     15537
     15516     15515     15536     15538     15516     15515     15536     15539
     15517     15513     15518     15519     15517     15513     15518     15520
     15517     15513     15518     15528     15517     15515     15532     15528
     15517     15515     15532     15533     15517     15515     15532     15534
     15517     15515     15536     15537     15517     15515     15536     15538
     15517     15515     15536     15539     15518     15520     15522     15523
     15518     15520     15522     15524     15518     15528     15530     15531
     15518     15528     15532     15533     15518     15528     15532     15534
     15519     15518     15520     15521     15519     15518     15520     15522
     15519     15518     15528     15529     15519     15518     15528     15530
     15519     15518     15528     15532     15520     15518     15528     15529
     15520     15518     15528     15530     15520     15518     15528     15532
     15520     15522     15524     15525     15520     15522     15524     15526
     15520     15522     15524     15527     15521     15520     15518     15528
     15521     15520     15522     15523     15521     15520     15522     15524
     15522     15520     15518     15528     15523     15522     15524     15525
     15523     15522     15524     15526     15523     15522     15524     15527
     15528     15532     15515     15536     15528     15532     15534     15535
     15529     15528     15530     15531     15529     15528     15532     15533
     15529     15528     15532     15534     15530     15528     15532     15533
     15530     15528     15532     15534     15531     15530     15528     15532
     15532     15515     15536     15537     15532     15515     15536     15538
     15532     15515     15536     15539     15533     15532     15515     15536
     15533     15532     15534     15535     15534     15532     15515     15536
     15537     15536     15539     15540     15538     15536     15539     15540
     15541     15543     15542     15840     15541     15543     15545     15546
     15541     15543     15545     15547     15541     15543     15545     15554
     15542     15543     15545     15546     15542     15543     15545     15547
     15542     15543     15545     15554     15542     15840     15837     15838
     15542     15840     15837     15839     15542     15840     15843     15841
     15542     15840     15844     15845     15542     15840     15844     15846
     15542     15840     15844     15847     15543     15542     15840     15837
     15543     15542     15840     15843     15543     15542     15840     15844
     15543     15545     15546     15548     15543     15545     15554     15555
     15543     15545     15554     15556     15543     15545     15554     15561
     15544     15543     15542     15840     15544     15543     15545     15546
     15544     15543     15545     15547     15544     15543     15545     15554
     15545     15543     15542     15840     15545     15546     15548     15549
     15545     15546     15548     15550     15545     15546     15548     15569
     15545     15554     15556     15557     15545     15554     15561     15562
     15545     15554     15561     15563     15545     15554     15561     15569
     15546     15545     15554     15555     15546     15545     15554     15556
     15546     15545     15554     15561     15546     15548     15550     15551
     15546     15548     15569     15561     15546     15548     15569     15570
     15546     15548     15569     15571     15547     15545     15546     15548
     15547     15545     15554     15555     15547     15545     15554     15556
     15547     15545     15554     15561     15548     15546     15545     15554
     15548     15550     15551     15552     15548     15550     15551     15553
     15548     15550     15551     15577     15548     15569     15561     15554
     15548     15569     15561     15562     15548     15569     15561     15563
     15548     15569     15571     15572     15548     15569     15571     15678
     15549     15548     15550     15551     15549     15548     15569     15561
     15549     15548     15569     15570     15549     15548     15569     15571
     15550     15548     15569     15561     15550     15548     15569     15570
     15550     15548     15569     15571     15550     15551     15577     15573
     15550     15551     15577     15578     15550     15551     15577     15579
     15551     15550     15548     15569     15551     15577     15573     15574
     15551     15577     15573     15575     15551     15577     15573     15587
     15551     15577     15579     15580     15552     15551     15577     15573
     15552     15551     15577     15578     15552     15551     15577     15579
     15553     15551     15577     15573     15553     15551     15577     15578
     15553     15551     15577     15579     15554     15556     15557     15558
     15554     15556     15557     15559     15554     15556     15557     15560
     15554     15561     15562     15564     15554     15561     15569     15570
     15554     15561     15569     15571     15555     15554     15556     15557
     15555     15554     15561     15562     15555     15554     15561     15563
     15555     15554     15561     15569     15556     15554     15561     15562
     15556     15554     15561     15563     15556     15554     15561     15569
     15557     15556     15554     15561     15561     15562     15564     15565
     15561     15562     15564     15566     15561     15569     15571     15572
     15561     15569     15571     15678     15562     15561     15569     15570
     15562     15561     15569     15571     15562     15564     15566     15567
     15562     15564     15566     15568     15562     15564     15566     15599
     15563     15561     15562     15564     15563     15561     15569     15570
     15563     15561     15569     15571     15564     15562     15561     15569
     15564     15566     15599     15600     15564     15566     15599     15601
     15564     15566     15599     15644     15565     15564     15566     15567
     15565     15564     15566     15568     15565     15564     15566     15599
     15566     15599     15601     15602     15566     15599     15644     15645
     15566     15599     15644     15646     15566     15599     15644     15647
     15567     15566     15599     15600     15567     15566     15599     15601
     15567     15566     15599     15644     15568     15566     15599     15600
     15568     15566     15599     15601     15568     15566     15599     15644
     15569     15571     15678     15679     15569     15571     15678     15680
     15570     15569     15571     15572     15570     15569     15571     15678
     15571     15678     15680     15681     15571     15678     15680     15682
     15571     15678     15680     15683     15572     15571     15678     15679
     15572     15571     15678     15680     15573     15577     15579     15580
     15573     15587     15589     15590     15573     15587     15595     15580
     15573     15587     15595     15596     15573     15587     15595     15597
     15574     15573     15575     15576     15574     15573     15577     15578
     15574     15573     15577     15579     15574     15573     15587     15588
     15574     15573     15587     15589     15574     15573     15587     15595
     15575     15573     15577     15578     15575     15573     15577     15579
     15575     15573     15587     15588     15575     15573     15587     15589
     15575     15573     15587     15595     15576     15575     15573     15577
     15576     15575     15573     15587     15577     15573     15587     15588
     15577     15573     15587     15589     15577     15573     15587     15595
     15577     15579     15580     15581     15577     15579     15580     15582
     15577     15579     15580     15595     15578     15577     15573     15587
     15578     15577     15579     15580     15579     15577     15573     15587
     15579     15580     15582     15586     15579     15580     15595     15587
     15579     15580     15595     15596     15579     15580     15595     15597
     15580     15582     15586     15583     15580     15582     15586     15584
     15580     15582     15586     15585     15580     15595     15587     15588
     15580     15595     15587     15589     15580     15595     15597     15598
     15580     15595     15597     15794     15581     15580     15582     15586
     15581     15580     15595     15587     15581     15580     15595     15596
     15581     15580     15595     15597     15582     15580     15595     15587
     15582     15580     15595     15596     15582     15580     15595     15597
     15586     15582     15580     15595     15587     15589     15590     15591
     15587     15589     15590     15592     15587     15595     15597     15598
     15587     15595     15597     15794     15588     15587     15589     15590
     15588     15587     15595     15596     15588     15587     15595     15597
     15589     15587     15595     15596     15589     15587     15595     15597
     15589     15590     15592     15593     15589     15590     15592     15594
     15589     15590     15592     15756     15590     15589     15587     15595
     15590     15592     15756     15757     15590     15592     15756     15758
     15590     15592     15756     15760     15591     15590     15592     15593
     15591     15590     15592     15594     15591     15590     15592     15756
     15592     15756     15758     15759     15592     15756     15760     15761
     15592     15756     15760     15762     15592     15756     15760     15763
     15593     15592     15756     15757     15593     15592     15756     15758
     15593     15592     15756     15760     15594     15592     15756     15757
     15594     15592     15756     15758     15594     15592     15756     15760
     15595     15597     15794     15795     15595     15597     15794     15796
     15596     15595     15597     15598     15596     15595     15597     15794
     15597     15794     15796     15797     15597     15794     15796     15798
     15597     15794     15796     15799     15598     15597     15794     15795
     15598     15597     15794     15796     15599     15601     15602     15603
     15599     15601     15602     15604     15599     15644     15647     15648
     15599     15644     15647     15649     15599     15644     15647     15650
     15600     15599     15601     15602     15600     15599     15644     15645
     15600     15599     15644     15646     15600     15599     15644     15647
     15601     15599     15644     15645     15601     15599     15644     15646
     15601     15599     15644     15647     15601     15602     15604     15605
     15601     15602     15604     15606     15601     15602     15604     15607
     15602     15601     15599     15644     15602     15604     15607     15608
     15602     15604     15607     15609     15602     15604     15607     15610
     15603     15602     15604     15605     15603     15602     15604     15606
     15603     15602     15604     15607     15604     15607     15610     15611
     15604     15607     15610     15612     15604     15607     15610     15613
     15605     15604     15607     15608     15605     15604     15607     15609
     15605     15604     15607     15610     15606     15604     15607     15608
     15606     15604     15607     15609     15606     15604     15607     15610
     15607     15610     15613     15614     15607     15610     15613     15615
     15607     15610     15613     15616     15608     15607     15610     15611
     15608     15607     15610     15612     15608     15607     15610     15613
     15609     15607     15610     15611     15609     15607     15610     15612
     15609     15607     15610     15613     15610     15613     15616     15617
     15610     15613     15616     15618     15610     15613     15616     15619
     15611     15610     15613     15614     15611     15610     15613     15615
     15611     15610     15613     15616     15612     15610     15613     15614
     15612     15610     15613     15615     15612     15610     15613     15616
     15613     15616     15619     15620     15613     15616     15619     15621
     15613     15616     15619     15622     15614     15613     15616     15617
     15614     15613     15616     15618     15614     15613     15616     15619
     15615     15613     15616     15617     15615     15613     15616     15618
     15615     15613     15616     15619     15616     15619     15622     15623
     15616     15619     15622     15624     15616     15619     15622     15625
     15617     15616     15619     15620     15617     15616     15619     15621
     15617     15616     15619     15622     15618     15616     15619     15620
     15618     15616     15619     15621     15618     15616     15619     15622
     15619     15622     15625     15626     15619     15622     15625     15627
     15619     15622     15625     15628     15620     15619     15622     15623
     15620     15619     15622     15624     15620     15619     15622     15625
     15621     15619     15622     15623     15621     15619     15622     15624
     15621     15619     15622     15625     15622     15625     15628     15629
     15622     15625     15628     15630     15622     15625     15628     15631
     15623     15622     15625     15626     15623     15622     15625     15627
     15623     15622     15625     15628     15624     15622     15625     15626
     15624     15622     15625     15627     15624     15622     15625     15628
     15625     15628     15631     15632     15625     15628     15631     15633
     15625     15628     15631     15634     15626     15625     15628     15629
     15626     15625     15628     15630     15626     15625     15628     15631
     15627     15625     15628     15629     15627     15625     15628     15630
     15627     15625     15628     15631     15628     15631     15634     15635
     15628     15631     15634     15636     15628     15631     15634     15637
     15629     15628     15631     15632     15629     15628     15631     15633
     15629     15628     15631     15634     15630     15628     15631     15632
     15630     15628     15631     15633     15630     15628     15631     15634
     15631     15634     15637     15638     15631     15634     15637     15639
     15631     15634     15637     15640     15632     15631     15634     15635
     15632     15631     15634     15636     15632     15631     15634     15637
     15633     15631     15634     15635     15633     15631     15634     15636
     15633     15631     15634     15637     15634     15637     15640     15641
     15634     15637     15640     15642     15634     15637     15640     15643
     15635     15634     15637     15638     15635     15634     15637     15639
     15635     15634     15637     15640     15636     15634     15637     15638
     15636     15634     15637     15639     15636     15634     15637     15640
     15638     15637     15640     15641     15638     15637     15640     15642
     15638     15637     15640     15643     15639     15637     15640     15641
     15639     15637     15640     15642     15639     15637     15640     15643
     15644     15647     15650     15651     15644     15647     15650     15652
     15644     15647     15650     15653     15645     15644     15647     15648
     15645     15644     15647     15649     15645     15644     15647     15650
     15646     15644     15647     15648     15646     15644     15647     15649
     15646     15644     15647     15650     15647     15650     15653     15654
     15647     15650     15653     15655     15647     15650     15653     15656
     15648     15647     15650     15651     15648     15647     15650     15652
     15648     15647     15650     15653     15649     15647     15650     15651
     15649     15647     15650     15652     15649     15647     15650     15653
     15650     15653     15656     15657     15650     15653     15656     15658
     15650     15653     15656     15659     15651     15650     15653     15654
     15651     15650     15653     15655     15651     15650     15653     15656
     15652     15650     15653     15654     15652     15650     15653     15655
     15652     15650     15653     15656     15653     15656     15659     15660
     15653     15656     15659     15661     15653     15656     15659     15662
     15654     15653     15656     15657     15654     15653     15656     15658
     15654     15653     15656     15659     15655     15653     15656     15657
     15655     15653     15656     15658     15655     15653     15656     15659
     15656     15659     15662     15663     15656     15659     15662     15664
     15656     15659     15662     15665     15657     15656     15659     15660
     15657     15656     15659     15661     15657     15656     15659     15662
     15658     15656     15659     15660     15658     15656     15659     15661
     15658     15656     15659     15662     15659     15662     15665     15666
     15659     15662     15665     15667     15659     15662     15665     15668
     15660     15659     15662     15663     15660     15659     15662     15664
     15660     15659     15662     15665     15661     15659     15662     15663
     15661     15659     15662     15664     15661     15659     15662     15665
     15662     15665     15668     15669     15662     15665     15668     15670
     15662     15665     15668     15671     15663     15662     15665     15666
     15663     15662     15665     15667     15663     15662     15665     15668
     15664     15662     15665     15666     15664     15662     15665     15667
     15664     15662     15665     15668     15665     15668     15671     15672
     15665     15668     15671     15673     15665     15668     15671     15674
     15666     15665     15668     15669     15666     15665     15668     15670
     15666     15665     15668     15671     15667     15665     15668     15669
     15667     15665     15668     15670     15667     15665     15668     15671
     15668     15671     15674     15675     15668     15671     15674     15676
     15668     15671     15674     15677     15669     15668     15671     15672
     15669     15668     15671     15673     15669     15668     15671     15674
     15670     15668     15671     15672     15670     15668     15671     15673
     15670     15668     15671     15674     15672     15671     15674     15675
     15672     15671     15674     15676     15672     15671     15674     15677
     15673     15671     15674     15675     15673     15671     15674     15676
     15673     15671     15674     15677     15678     15680     15683     15684
     15678     15680     15683     15685     15678     15680     15683     15722
     15679     15678     15680     15681     15679     15678     15680     15682
     15679     15678     15680     15683     15680     15683     15685     15686
     15680     15683     15722     15723     15680     15683     15722     15724
     15680     15683     15722     15725     15681     15680     15683     15684
     15681     15680     15683     15685     15681     15680     15683     15722
     15682     15680     15683     15684     15682     15680     15683     15685
     15682     15680     15683     15722     15683     15685     15686     15687
     15683     15685     15686     15688     15683     15722     15725     15726
     15683     15722     15725     15727     15683     15722     15725     15728
     15684     15683     15685     15686     15684     15683     15722     15723
     15684     15683     15722     15724     15684     15683     15722     15725
     15685     15683     15722     15723     15685     15683     15722     15724
     15685     15683     15722     15725     15685     15686     15688     15689
     15685     15686     15688     15690     15685     15686     15688     15691
     15686     15685     15683     15722     15686     15688     15691     15692
     15686     15688     15691     15693     15686     15688     15691     15694
     15687     15686     15688     15689     15687     15686     15688     15690
     15687     15686     15688     15691     15688     15691     15694     15695
     15688     15691     15694     15696     15688     15691     15694     15697
     15689     15688     15691     15692     15689     15688     15691     15693
     15689     15688     15691     15694     15690     15688     15691     15692
     15690     15688     15691     15693     15690     15688     15691     15694
     15691     15694     15697     15698     15691     15694     15697     15699
     15691     15694     15697     15700     15692     15691     15694     15695
     15692     15691     15694     15696     15692     15691     15694     15697
     15693     15691     15694     15695     15693     15691     15694     15696
     15693     15691     15694     15697     15694     15697     15700     15701
     15694     15697     15700     15702     15694     15697     15700     15703
     15695     15694     15697     15698     15695     15694     15697     15699
     15695     15694     15697     15700     15696     15694     15697     15698
     15696     15694     15697     15699     15696     15694     15697     15700
     15697     15700     15703     15704     15697     15700     15703     15705
     15697     15700     15703     15706     15698     15697     15700     15701
     15698     15697     15700     15702     15698     15697     15700     15703
     15699     15697     15700     15701     15699     15697     15700     15702
     15699     15697     15700     15703     15700     15703     15706     15707
     15700     15703     15706     15708     15700     15703     15706     15709
     15701     15700     15703     15704     15701     15700     15703     15705
     15701     15700     15703     15706     15702     15700     15703     15704
     15702     15700     15703     15705     15702     15700     15703     15706
     15703     15706     15709     15710     15703     15706     15709     15711
     15703     15706     15709     15712     15704     15703     15706     15707
     15704     15703     15706     15708     15704     15703     15706     15709
     15705     15703     15706     15707     15705     15703     15706     15708
     15705     15703     15706     15709     15706     15709     15712     15713
     15706     15709     15712     15714     15706     15709     15712     15715
     15707     15706     15709     15710     15707     15706     15709     15711
     15707     15706     15709     15712     15708     15706     15709     15710
     15708     15706     15709     15711     15708     15706     15709     15712
     15709     15712     15715     15716     15709     15712     15715     15717
     15709     15712     15715     15718     15710     15709     15712     15713
     15710     15709     15712     15714     15710     15709     15712     15715
     15711     15709     15712     15713     15711     15709     15712     15714
     15711     15709     15712     15715     15712     15715     15718     15719
     15712     15715     15718     15720     15712     15715     15718     15721
     15713     15712     15715     15716     15713     15712     15715     15717
     15713     15712     15715     15718     15714     15712     15715     15716
     15714     15712     15715     15717     15714     15712     15715     15718
     15716     15715     15718     15719     15716     15715     15718     15720
     15716     15715     15718     15721     15717     15715     15718     15719
     15717     15715     15718     15720     15717     15715     15718     15721
     15722     15725     15728     15729     15722     15725     15728     15730
     15722     15725     15728     15731     15723     15722     15725     15726
     15723     15722     15725     15727     15723     15722     15725     15728
     15724     15722     15725     15726     15724     15722     15725     15727
     15724     15722     15725     15728     15725     15728     15731     15732
     15725     15728     15731     15733     15725     15728     15731     15734
     15726     15725     15728     15729     15726     15725     15728     15730
     15726     15725     15728     15731     15727     15725     15728     15729
     15727     15725     15728     15730     15727     15725     15728     15731
     15728     15731     15734     15735     15728     15731     15734     15736
     15728     15731     15734     15737     15729     15728     15731     15732
     15729     15728     15731     15733     15729     15728     15731     15734
     15730     15728     15731     15732     15730     15728     15731     15733
     15730     15728     15731     15734     15731     15734     15737     15738
     15731     15734     15737     15739     15731     15734     15737     15740
     15732     15731     15734     15735     15732     15731     15734     15736
     15732     15731     15734     15737     15733     15731     15734     15735
     15733     15731     15734     15736     15733     15731     15734     15737
     15734     15737     15740     15741     15734     15737     15740     15742
     15734     15737     15740     15743     15735     15734     15737     15738
     15735     15734     15737     15739     15735     15734     15737     15740
     15736     15734     15737     15738     15736     15734     15737     15739
     15736     15734     15737     15740     15737     15740     15743     15744
     15737     15740     15743     15745     15737     15740     15743     15746
     15738     15737     15740     15741     15738     15737     15740     15742
     15738     15737     15740     15743     15739     15737     15740     15741
     15739     15737     15740     15742     15739     15737     15740     15743
     15740     15743     15746     15747     15740     15743     15746     15748
     15740     15743     15746     15749     15741     15740     15743     15744
     15741     15740     15743     15745     15741     15740     15743     15746
     15742     15740     15743     15744     15742     15740     15743     15745
     15742     15740     15743     15746     15743     15746     15749     15750
     15743     15746     15749     15751     15743     15746     15749     15752
     15744     15743     15746     15747     15744     15743     15746     15748
     15744     15743     15746     15749     15745     15743     15746     15747
     15745     15743     15746     15748     15745     15743     15746     15749
     15746     15749     15752     15753     15746     15749     15752     15754
     15746     15749     15752     15755     15747     15746     15749     15750
     15747     15746     15749     15751     15747     15746     15749     15752
     15748     15746     15749     15750     15748     15746     15749     15751
     15748     15746     15749     15752     15750     15749     15752     15753
     15750     15749     15752     15754     15750     15749     15752     15755
     15751     15749     15752     15753     15751     15749     15752     15754
     15751     15749     15752     15755     15756     15760     15763     15764
     15756     15760     15763     15765     15756     15760     15763     15766
     15757     15756     15758     15759     15757     15756     15760     15761
     15757     15756     15760     15762     15757     15756     15760     15763
     15758     15756     15760     15761     15758     15756     15760     15762
     15758     15756     15760     15763     15759     15758     15756     15760
     15760     15763     15766     15767     15760     15763     15766     15768
     15760     15763     15766     15769     15761     15760     15763     15764
     15761     15760     15763     15765     15761     15760     15763     15766
     15762     15760     15763     15764     15762     15760     15763     15765
     15762     15760     15763     15766     15763     15766     15769     15770
     15763     15766     15769     15771     15763     15766     15769     15772
     15764     15763     15766     15767     15764     15763     15766     15768
     15764     15763     15766     15769     15765     15763     15766     15767
     15765     15763     15766     15768     15765     15763     15766     15769
     15766     15769     15772     15773     15766     15769     15772     15774
     15766     15769     15772     15775     15767     15766     15769     15770
     15767     15766     15769     15771     15767     15766     15769     15772
     15768     15766     15769     15770     15768     15766     15769     15771
     15768     15766     15769     15772     15769     15772     15775     15776
     15769     15772     15775     15777     15769     15772     15775     15778
     15770     15769     15772     15773     15770     15769     15772     15774
     15770     15769     15772     15775     15771     15769     15772     15773
     15771     15769     15772     15774     15771     15769     15772     15775
     15772     15775     15778     15779     15772     15775     15778     15780
     15772     15775     15778     15781     15773     15772     15775     15776
     15773     15772     15775     15777     15773     15772     15775     15778
     15774     15772     15775     15776     15774     15772     15775     15777
     15774     15772     15775     15778     15775     15778     15781     15782
     15775     15778     15781     15783     15775     15778     15781     15784
     15776     15775     15778     15779     15776     15775     15778     15780
     15776     15775     15778     15781     15777     15775     15778     15779
     15777     15775     15778     15780     15777     15775     15778     15781
     15778     15781     15784     15785     15778     15781     15784     15786
     15778     15781     15784     15787     15779     15778     15781     15782
     15779     15778     15781     15783     15779     15778     15781     15784
     15780     15778     15781     15782     15780     15778     15781     15783
     15780     15778     15781     15784     15781     15784     15787     15788
     15781     15784     15787     15789     15781     15784     15787     15790
     15782     15781     15784     15785     15782     15781     15784     15786
     15782     15781     15784     15787     15783     15781     15784     15785
     15783     15781     15784     15786     15783     15781     15784     15787
     15784     15787     15790     15791     15784     15787     15790     15792
     15784     15787     15790     15793     15785     15784     15787     15788
     15785     15784     15787     15789     15785     15784     15787     15790
     15786     15784     15787     15788     15786     15784     15787     15789
     15786     15784     15787     15790     15788     15787     15790     15791
     15788     15787     15790     15792     15788     15787     15790     15793
     15789     15787     15790     15791     15789     15787     15790     15792
     15789     15787     15790     15793     15794     15796     15799     15800
     15794     15796     15799     15801     15794     15796     15799     15803
     15795     15794     15796     15797     15795     15794     15796     15798
     15795     15794     15796     15799     15796     15799     15801     15802
     15796     15799     15803     15804     15796     15799     15803     15805
     15796     15799     15803     15806     15797     15796     15799     15800
     15797     15796     15799     15801     15797     15796     15799     15803
     15798     15796     15799     15800     15798     15796     15799     15801
     15798     15796     15799     15803     15799     15803     15806     15807
     15799     15803     15806     15808     15799     15803     15806     15809
     15800     15799     15801     15802     15800     15799     15803     15804
     15800     15799     15803     15805     15800     15799     15803     15806
     15801     15799     15803     15804     15801     15799     15803     15805
     15801     15799     15803     15806     15802     15801     15799     15803
     15803     15806     15809     15810     15803     15806     15809     15811
     15803     15806     15809     15812     15804     15803     15806     15807
     15804     15803     15806     15808     15804     15803     15806     15809
     15805     15803     15806     15807     15805     15803     15806     15808
     15805     15803     15806     15809     15806     15809     15812     15813
     15806     15809     15812     15814     15806     15809     15812     15815
     15807     15806     15809     15810     15807     15806     15809     15811
     15807     15806     15809     15812     15808     15806     15809     15810
     15808     15806     15809     15811     15808     15806     15809     15812
     15809     15812     15815     15816     15809     15812     15815     15817
     15809     15812     15815     15818     15810     15809     15812     15813
     15810     15809     15812     15814     15810     15809     15812     15815
     15811     15809     15812     15813     15811     15809     15812     15814
     15811     15809     15812     15815     15812     15815     15818     15819
     15812     15815     15818     15820     15812     15815     15818     15821
     15813     15812     15815     15816     15813     15812     15815     15817
     15813     15812     15815     15818     15814     15812     15815     15816
     15814     15812     15815     15817     15814     15812     15815     15818
     15815     15818     15821     15822     15815     15818     15821     15823
     15815     15818     15821     15824     15816     15815     15818     15819
     15816     15815     15818     15820     15816     15815     15818     15821
     15817     15815     15818     15819     15817     15815     15818     15820
     15817     15815     15818     15821     15818     15821     15824     15825
     15818     15821     15824     15826     15818     15821     15824     15827
     15819     15818     15821     15822     15819     15818     15821     15823
     15819     15818     15821     15824     15820     15818     15821     15822
     15820     15818     15821     15823     15820     15818     15821     15824
     15821     15824     15827     15828     15821     15824     15827     15829
     15821     15824     15827     15830     15822     15821     15824     15825
     15822     15821     15824     15826     15822     15821     15824     15827
     15823     15821     15824     15825     15823     15821     15824     15826
     15823     15821     15824     15827     15824     15827     15830     15831
     15824     15827     15830     15832     15824     15827     15830     15833
     15825     15824     15827     15828     15825     15824     15827     15829
     15825     15824     15827     15830     15826     15824     15827     15828
     15826     15824     15827     15829     15826     15824     15827     15830
     15827     15830     15833     15834     15827     15830     15833     15835
     15827     15830     15833     15836     15828     15827     15830     15831
     15828     15827     15830     15832     15828     15827     15830     15833
     15829     15827     15830     15831     15829     15827     15830     15832
     15829     15827     15830     15833     15831     15830     15833     15834
     15831     15830     15833     15835     15831     15830     15833     15836
     15832     15830     15833     15834     15832     15830     15833     15835
     15832     15830     15833     15836     15837     15840     15843     15841
     15837     15840     15844     15845     15837     15840     15844     15846
     15837     15840     15844     15847     15838     15837     15840     15843
     15838     15837     15840     15844     15839     15837     15840     15843
     15839     15837     15840     15844     15840     15843     15841     15842
     15840     15843     15841     15850     15840     15843     15841     15853
     15840     15844     15847     15848     15840     15844     15847     15849
     15840     15844     15847     15850     15841     15843     15840     15844
     15841     15850     15847     15844     15841     15850     15847     15848
     15841     15850     15847     15849     15841     15850     15852     15889
     15841     15853     15855     15856     15841     15853     15857     15858
     15841     15853     15857     15859     15841     15853     15857     15860
     15842     15841     15850     15847     15842     15841     15850     15851
     15842     15841     15850     15852     15842     15841     15853     15854
     15842     15841     15853     15855     15842     15841     15853     15857
     15843     15840     15844     15845     15843     15840     15844     15846
     15843     15840     15844     15847     15843     15841     15850     15847
     15843     15841     15850     15851     15843     15841     15850     15852
     15843     15841     15853     15854     15843     15841     15853     15855
     15843     15841     15853     15857     15844     15847     15849     15865
     15844     15847     15850     15851     15844     15847     15850     15852
     15845     15844     15847     15848     15845     15844     15847     15849
     15845     15844     15847     15850     15846     15844     15847     15848
     15846     15844     15847     15849     15846     15844     15847     15850
     15847     15849     15865     15862     15847     15849     15865     15868
     15847     15849     15865     15869     15847     15850     15841     15853
     15847     15850     15852     15889     15848     15847     15849     15865
     15848     15847     15850     15851     15848     15847     15850     15852
     15849     15847     15850     15851     15849     15847     15850     15852
     15849     15865     15862     15863     15849     15865     15862     15864
     15849     15865     15868     15866     15849     15865     15869     15870
     15849     15865     15869     15871     15849     15865     15869     15872
     15850     15841     15853     15854     15850     15841     15853     15855
     15850     15841     15853     15857     15850     15847     15849     15865
     15850     15852     15889     15890     15850     15852     15889     15893
     15850     15852     15889     15894     15851     15850     15841     15853
     15851     15850     15852     15889     15852     15850     15841     15853
     15852     15889     15893     15891     15852     15889     15894     15895
     15852     15889     15894     15896     15852     15889     15894     15898
     15853     15857     15860     15861     15854     15853     15855     15856
     15854     15853     15857     15858     15854     15853     15857     15859
     15854     15853     15857     15860     15855     15853     15857     15858
     15855     15853     15857     15859     15855     15853     15857     15860
     15856     15855     15853     15857     15858     15857     15860     15861
     15859     15857     15860     15861     15862     15865     15868     15866
     15862     15865     15869     15870     15862     15865     15869     15871
     15862     15865     15869     15872     15863     15862     15865     15868
     15863     15862     15865     15869     15864     15862     15865     15868
     15864     15862     15865     15869     15865     15868     15866     15867
     15865     15868     15866     15876     15865     15868     15866     15880
     15865     15869     15872     15873     15865     15869     15872     15874
     15865     15869     15872     15876     15866     15868     15865     15869
     15866     15876     15872     15869     15866     15876     15872     15873
     15866     15876     15872     15874     15866     15876     15878     15879
     15866     15880     15882     15883     15866     15880     15884     15885
     15866     15880     15884     15886     15866     15880     15884     15887
     15867     15866     15876     15872     15867     15866     15876     15877
     15867     15866     15876     15878     15867     15866     15880     15881
     15867     15866     15880     15882     15867     15866     15880     15884
     15868     15865     15869     15870     15868     15865     15869     15871
     15868     15865     15869     15872     15868     15866     15876     15872
     15868     15866     15876     15877     15868     15866     15876     15878
     15868     15866     15880     15881     15868     15866     15880     15882
     15868     15866     15880     15884     15869     15872     15874     15875
     15869     15872     15876     15877     15869     15872     15876     15878
     15870     15869     15872     15873     15870     15869     15872     15874
     15870     15869     15872     15876     15871     15869     15872     15873
     15871     15869     15872     15874     15871     15869     15872     15876
     15872     15876     15866     15880     15872     15876     15878     15879
     15873     15872     15874     15875     15873     15872     15876     15877
     15873     15872     15876     15878     15874     15872     15876     15877
     15874     15872     15876     15878     15875     15874     15872     15876
     15876     15866     15880     15881     15876     15866     15880     15882
     15876     15866     15880     15884     15877     15876     15866     15880
     15877     15876     15878     15879     15878     15876     15866     15880
     15880     15884     15887     15888     15881     15880     15882     15883
     15881     15880     15884     15885     15881     15880     15884     15886
     15881     15880     15884     15887     15882     15880     15884     15885
     15882     15880     15884     15886     15882     15880     15884     15887
     15883     15882     15880     15884     15885     15884     15887     15888
     15886     15884     15887     15888     15889     15893     15891     15892
     15889     15893     15891     15901     15889     15893     15891     15908
     15889     15894     15896     15897     15889     15894     15898     15899
     15889     15894     15898     15900     15889     15894     15898     15901
     15890     15889     15893     15891     15890     15889     15894     15895
     15890     15889     15894     15896     15890     15889     15894     15898
     15891     15893     15889     15894     15891     15901     15898     15894
     15891     15901     15898     15899     15891     15901     15898     15900
     15891     15901     15903     15904     15891     15908     15910     15911
     15891     15908     15912     15913     15891     15908     15912     15914
     15891     15908     15912     15915     15892     15891     15901     15898
     15892     15891     15901     15902     15892     15891     15901     15903
     15892     15891     15908     15909     15892     15891     15908     15910
     15892     15891     15908     15912     15893     15889     15894     15895
     15893     15889     15894     15896     15893     15889     15894     15898
     15893     15891     15901     15898     15893     15891     15901     15902
     15893     15891     15901     15903     15893     15891     15908     15909
     15893     15891     15908     15910     15893     15891     15908     15912
     15894     15898     15900     15917     15894     15898     15901     15902
     15894     15898     15901     15903     15895     15894     15896     15897
     15895     15894     15898     15899     15895     15894     15898     15900
     15895     15894     15898     15901     15896     15894     15898     15899
     15896     15894     15898     15900     15896     15894     15898     15901
     15897     15896     15894     15898     15898     15900     15917     15918
     15898     15900     15917     15921     15898     15900     15917     15922
     15898     15901     15891     15908     15898     15901     15903     15904
     15899     15898     15900     15917     15899     15898     15901     15902
     15899     15898     15901     15903     15900     15898     15901     15902
     15900     15898     15901     15903     15900     15917     15921     15919
     15900     15917     15922     15923     15900     15917     15922     15924
     15900     15917     15922     15926     15901     15891     15908     15909
     15901     15891     15908     15910     15901     15891     15908     15912
     15901     15898     15900     15917     15901     15903     15904     15905
     15901     15903     15904     15906     15901     15903     15904     15907
     15902     15901     15891     15908     15902     15901     15903     15904
     15903     15901     15891     15908     15908     15912     15915     15916
     15909     15908     15910     15911     15909     15908     15912     15913
     15909     15908     15912     15914     15909     15908     15912     15915
     15910     15908     15912     15913     15910     15908     15912     15914
     15910     15908     15912     15915     15911     15910     15908     15912
     15913     15912     15915     15916     15914     15912     15915     15916
     15917     15921     15919     15920     15917     15921     15919     15929
     15917     15921     15919     15936     15917     15922     15924     15925
     15917     15922     15926     15927     15917     15922     15926     15928
     15917     15922     15926     15929     15918     15917     15921     15919
     15918     15917     15922     15923     15918     15917     15922     15924
     15918     15917     15922     15926     15919     15921     15917     15922
     15919     15929     15926     15922     15919     15929     15926     15927
     15919     15929     15926     15928     15919     15929     15931     15932
     15919     15936     15938     15939     15919     15936     15940     15941
     15919     15936     15940     15942     15919     15936     15940     15943
     15920     15919     15929     15926     15920     15919     15929     15930
     15920     15919     15929     15931     15920     15919     15936     15937
     15920     15919     15936     15938     15920     15919     15936     15940
     15921     15917     15922     15923     15921     15917     15922     15924
     15921     15917     15922     15926     15921     15919     15929     15926
     15921     15919     15929     15930     15921     15919     15929     15931
     15921     15919     15936     15937     15921     15919     15936     15938
     15921     15919     15936     15940     15922     15926     15928     15970
     15922     15926     15929     15930     15922     15926     15929     15931
     15923     15922     15924     15925     15923     15922     15926     15927
     15923     15922     15926     15928     15923     15922     15926     15929
     15924     15922     15926     15927     15924     15922     15926     15928
     15924     15922     15926     15929     15925     15924     15922     15926
     15926     15928     15970     15971     15926     15928     15970     15974
     15926     15928     15970     15975     15926     15929     15919     15936
     15926     15929     15931     15932     15927     15926     15928     15970
     15927     15926     15929     15930     15927     15926     15929     15931
     15928     15926     15929     15930     15928     15926     15929     15931
     15928     15970     15974     15972     15928     15970     15975     15976
     15928     15970     15975     15977     15928     15970     15975     15979
     15929     15919     15936     15937     15929     15919     15936     15938
     15929     15919     15936     15940     15929     15926     15928     15970
     15929     15931     15932     15933     15929     15931     15932     15934
     15929     15931     15932     15935     15930     15929     15919     15936
     15930     15929     15931     15932     15931     15929     15919     15936
     15936     15940     15943     15944     15937     15936     15938     15939
     15937     15936     15940     15941     15937     15936     15940     15942
     15937     15936     15940     15943     15938     15936     15940     15941
     15938     15936     15940     15942     15938     15936     15940     15943
     15939     15938     15936     15940     15940     15943     15944     15945
     15940     15943     15944     15948     15940     15943     15944     15949
     15941     15940     15943     15944     15942     15940     15943     15944
     15943     15944     15948     15946     15943     15944     15949     15950
     15943     15944     15949     15951     15943     15944     15949     15953
     15944     15948     15946     15947     15944     15948     15946     15957
     15944     15948     15946     15961     15944     15949     15951     15952
     15944     15949     15953     15954     15944     15949     15953     15955
     15944     15949     15953     15957     15945     15944     15948     15946
     15945     15944     15949     15950     15945     15944     15949     15951
     15945     15944     15949     15953     15946     15948     15944     15949
     15946     15957     15953     15949     15946     15957     15953     15954
     15946     15957     15953     15955     15946     15957     15959     15960
     15946     15961     15963     15964     15946     15961     15965     15966
     15946     15961     15965     15967     15946     15961     15965     15968
     15947     15946     15957     15953     15947     15946     15957     15958
     15947     15946     15957     15959     15947     15946     15961     15962
     15947     15946     15961     15963     15947     15946     15961     15965
     15948     15944     15949     15950     15948     15944     15949     15951
     15948     15944     15949     15953     15948     15946     15957     15953
     15948     15946     15957     15958     15948     15946     15957     15959
     15948     15946     15961     15962     15948     15946     15961     15963
     15948     15946     15961     15965     15949     15953     15955     15956
     15949     15953     15957     15958     15949     15953     15957     15959
     15950     15949     15951     15952     15950     15949     15953     15954
     15950     15949     15953     15955     15950     15949     15953     15957
     15951     15949     15953     15954     15951     15949     15953     15955
     15951     15949     15953     15957     15952     15951     15949     15953
     15953     15957     15946     15961     15953     15957     15959     15960
     15954     15953     15955     15956     15954     15953     15957     15958
     15954     15953     15957     15959     15955     15953     15957     15958
     15955     15953     15957     15959     15956     15955     15953     15957
     15957     15946     15961     15962     15957     15946     15961     15963
     15957     15946     15961     15965     15958     15957     15946     15961
     15958     15957     15959     15960     15959     15957     15946     15961
     15961     15965     15968     15969     15962     15961     15963     15964
     15962     15961     15965     15966     15962     15961     15965     15967
     15962     15961     15965     15968     15963     15961     15965     15966
     15963     15961     15965     15967     15963     15961     15965     15968
     15964     15963     15961     15965     15966     15965     15968     15969
     15967     15965     15968     15969     15970     15974     15972     15973
     15970     15974     15972     15982     15970     15974     15972     15986
     15970     15975     15977     15978     15970     15975     15979     15980
     15970     15975     15979     15981     15970     15975     15979     15982
     15971     15970     15974     15972     15971     15970     15975     15976
     15971     15970     15975     15977     15971     15970     15975     15979
     15972     15974     15970     15975     15972     15982     15979     15975
     15972     15982     15979     15980     15972     15982     15979     15981
     15972     15982     15984     15985     15972     15986     15989     15990
     15973     15972     15982     15979     15973     15972     15982     15983
     15973     15972     15982     15984     15973     15972     15986     15987
     15973     15972     15986     15988     15973     15972     15986     15989
     15974     15970     15975     15976     15974     15970     15975     15977
     15974     15970     15975     15979     15974     15972     15982     15979
     15974     15972     15982     15983     15974     15972     15982     15984
     15974     15972     15986     15987     15974     15972     15986     15988
     15974     15972     15986     15989     15975     15979     15981     15991
     15975     15979     15982     15983     15975     15979     15982     15984
     15976     15975     15977     15978     15976     15975     15979     15980
     15976     15975     15979     15981     15976     15975     15979     15982
     15977     15975     15979     15980     15977     15975     15979     15981
     15977     15975     15979     15982     15978     15977     15975     15979
     15979     15981     15991     15992     15979     15981     15991     15995
     15979     15981     15991     15996     15979     15982     15972     15986
     15979     15982     15984     15985     15980     15979     15981     15991
     15980     15979     15982     15983     15980     15979     15982     15984
     15981     15979     15982     15983     15981     15979     15982     15984
     15981     15991     15995     15993     15981     15991     15996     15997
     15981     15991     15996     15998     15981     15991     15996     15999
     15982     15972     15986     15987     15982     15972     15986     15988
     15982     15972     15986     15989     15982     15979     15981     15991
     15983     15982     15972     15986     15983     15982     15984     15985
     15984     15982     15972     15986     15987     15986     15989     15990
     15988     15986     15989     15990     15991     15995     15993     15994
     15991     15995     15993     16002     15991     15995     15993     16006
     15991     15996     15998     16011     15991     15996     15999     16000
     15991     15996     15999     16001     15991     15996     15999     16002
     15992     15991     15995     15993     15992     15991     15996     15997
     15992     15991     15996     15998     15992     15991     15996     15999
     15993     15995     15991     15996     15993     16002     15999     15996
     15993     16002     15999     16000     15993     16002     15999     16001
     15993     16002     16004     16005     15993     16006     16009     16010
     15994     15993     16002     15999     15994     15993     16002     16003
     15994     15993     16002     16004     15994     15993     16006     16007
     15994     15993     16006     16008     15994     15993     16006     16009
     15995     15991     15996     15997     15995     15991     15996     15998
     15995     15991     15996     15999     15995     15993     16002     15999
     15995     15993     16002     16003     15995     15993     16002     16004
     15995     15993     16006     16007     15995     15993     16006     16008
     15995     15993     16006     16009     15996     15998     16011     16012
     15996     15998     16011     16015     15996     15998     16011     16016
     15996     15999     16001     16054     15996     15999     16002     16003
     15996     15999     16002     16004     15997     15996     15998     16011
     15997     15996     15999     16000     15997     15996     15999     16001
     15997     15996     15999     16002     15998     15996     15999     16000
     15998     15996     15999     16001     15998     15996     15999     16002
     15998     16011     16015     16013     15998     16011     16016     16017
     15998     16011     16016     16018     15998     16011     16016     16019
     15999     15996     15998     16011     15999     16001     16054     16055
     15999     16001     16054     16058     15999     16001     16054     16059
     15999     16002     15993     16006     15999     16002     16004     16005
     16000     15999     16001     16054     16000     15999     16002     16003
     16000     15999     16002     16004     16001     15999     16002     16003
     16001     15999     16002     16004     16001     16054     16058     16056
     16001     16054     16059     16060     16001     16054     16059     16061
     16001     16054     16059     16063     16002     15993     16006     16007
     16002     15993     16006     16008     16002     15993     16006     16009
     16002     15999     16001     16054     16003     16002     15993     16006
     16003     16002     16004     16005     16004     16002     15993     16006
     16007     16006     16009     16010     16008     16006     16009     16010
     16011     16015     16013     16014     16011     16015     16013     16023
     16011     16015     16013     16027     16011     16016     16018     16032
     16011     16016     16019     16020     16011     16016     16019     16021
     16011     16016     16019     16023     16012     16011     16015     16013
     16012     16011     16016     16017     16012     16011     16016     16018
     16012     16011     16016     16019     16013     16015     16011     16016
     16013     16023     16019     16016     16013     16023     16019     16020
     16013     16023     16019     16021     16013     16023     16025     16026
     16013     16027     16030     16031     16014     16013     16023     16019
     16014     16013     16023     16024     16014     16013     16023     16025
     16014     16013     16027     16028     16014     16013     16027     16029
     16014     16013     16027     16030     16015     16011     16016     16017
     16015     16011     16016     16018     16015     16011     16016     16019
     16015     16013     16023     16019     16015     16013     16023     16024
     16015     16013     16023     16025     16015     16013     16027     16028
     16015     16013     16027     16029     16015     16013     16027     16030
     16016     16018     16032     16033     16016     16018     16032     16036
     16016     16018     16032     16037     16016     16019     16021     16022
     16016     16019     16023     16024     16016     16019     16023     16025
     16017     16016     16018     16032     16017     16016     16019     16020
     16017     16016     16019     16021     16017     16016     16019     16023
     16018     16016     16019     16020     16018     16016     16019     16021
     16018     16016     16019     16023     16018     16032     16036     16034
     16018     16032     16037     16038     16018     16032     16037     16039
     16018     16032     16037     16041     16019     16016     16018     16032
     16019     16023     16013     16027     16019     16023     16025     16026
     16020     16019     16021     16022     16020     16019     16023     16024
     16020     16019     16023     16025     16021     16019     16023     16024
     16021     16019     16023     16025     16022     16021     16019     16023
     16023     16013     16027     16028     16023     16013     16027     16029
     16023     16013     16027     16030     16024     16023     16013     16027
     16024     16023     16025     16026     16025     16023     16013     16027
     16028     16027     16030     16031     16029     16027     16030     16031
     16032     16036     16034     16035     16032     16036     16034     16045
     16032     16036     16034     16049     16032     16037     16039     16040
     16032     16037     16041     16042     16032     16037     16041     16043
     16032     16037     16041     16045     16033     16032     16036     16034
     16033     16032     16037     16038     16033     16032     16037     16039
     16033     16032     16037     16041     16034     16036     16032     16037
     16034     16045     16041     16037     16034     16045     16041     16042
     16034     16045     16041     16043     16034     16045     16047     16048
     16034     16049     16052     16053     16035     16034     16045     16041
     16035     16034     16045     16046     16035     16034     16045     16047
     16035     16034     16049     16050     16035     16034     16049     16051
     16035     16034     16049     16052     16036     16032     16037     16038
     16036     16032     16037     16039     16036     16032     16037     16041
     16036     16034     16045     16041     16036     16034     16045     16046
     16036     16034     16045     16047     16036     16034     16049     16050
     16036     16034     16049     16051     16036     16034     16049     16052
     16037     16041     16043     16044     16037     16041     16045     16046
     16037     16041     16045     16047     16038     16037     16039     16040
     16038     16037     16041     16042     16038     16037     16041     16043
     16038     16037     16041     16045     16039     16037     16041     16042
     16039     16037     16041     16043     16039     16037     16041     16045
     16040     16039     16037     16041     16041     16045     16034     16049
     16041     16045     16047     16048     16042     16041     16043     16044
     16042     16041     16045     16046     16042     16041     16045     16047
     16043     16041     16045     16046     16043     16041     16045     16047
     16044     16043     16041     16045     16045     16034     16049     16050
     16045     16034     16049     16051     16045     16034     16049     16052
     16046     16045     16034     16049     16046     16045     16047     16048
     16047     16045     16034     16049     16050     16049     16052     16053
     16051     16049     16052     16053     16054     16058     16056     16057
     16054     16058     16056     16066     16054     16058     16056     16070
     16054     16059     16061     16062     16054     16059     16063     16064
     16054     16059     16063     16065     16054     16059     16063     16066
     16055     16054     16058     16056     16055     16054     16059     16060
     16055     16054     16059     16061     16055     16054     16059     16063
     16056     16058     16054     16059     16056     16066     16063     16059
     16056     16066     16063     16064     16056     16066     16063     16065
     16056     16066     16068     16069     16056     16070     16073     16074
     16057     16056     16066     16063     16057     16056     16066     16067
     16057     16056     16066     16068     16057     16056     16070     16071
     16057     16056     16070     16072     16057     16056     16070     16073
     16058     16054     16059     16060     16058     16054     16059     16061
     16058     16054     16059     16063     16058     16056     16066     16063
     16058     16056     16066     16067     16058     16056     16066     16068
     16058     16056     16070     16071     16058     16056     16070     16072
     16058     16056     16070     16073     16059     16063     16065     16075
     16059     16063     16066     16067     16059     16063     16066     16068
     16060     16059     16061     16062     16060     16059     16063     16064
     16060     16059     16063     16065     16060     16059     16063     16066
     16061     16059     16063     16064     16061     16059     16063     16065
     16061     16059     16063     16066     16062     16061     16059     16063
     16063     16065     16075     16076     16063     16065     16075     16079
     16063     16065     16075     16080     16063     16066     16056     16070
     16063     16066     16068     16069     16064     16063     16065     16075
     16064     16063     16066     16067     16064     16063     16066     16068
     16065     16063     16066     16067     16065     16063     16066     16068
     16065     16075     16079     16077     16065     16075     16080     16081
     16065     16075     16080     16082     16065     16075     16080     16090
     16066     16056     16070     16071     16066     16056     16070     16072
     16066     16056     16070     16073     16066     16063     16065     16075
     16067     16066     16056     16070     16067     16066     16068     16069
     16068     16066     16056     16070     16071     16070     16073     16074
     16072     16070     16073     16074     16075     16079     16077     16078
     16075     16079     16077     16093     16075     16079     16077     16097
     16075     16080     16082     16083     16075     16080     16082     16084
     16075     16080     16090     16091     16075     16080     16090     16092
     16075     16080     16090     16093     16076     16075     16079     16077
     16076     16075     16080     16081     16076     16075     16080     16082
     16076     16075     16080     16090     16077     16079     16075     16080
     16077     16093     16090     16080     16077     16093     16090     16091
     16077     16093     16090     16092     16077     16093     16095     16096
     16077     16097     16100     16101     16078     16077     16093     16090
     16078     16077     16093     16094     16078     16077     16093     16095
     16078     16077     16097     16098     16078     16077     16097     16099
     16078     16077     16097     16100     16079     16075     16080     16081
     16079     16075     16080     16082     16079     16075     16080     16090
     16079     16077     16093     16090     16079     16077     16093     16094
     16079     16077     16093     16095     16079     16077     16097     16098
     16079     16077     16097     16099     16079     16077     16097     16100
     16080     16082     16084     16085     16080     16082     16084     16086
     16080     16090     16092     16102     16080     16090     16093     16094
     16080     16090     16093     16095     16081     16080     16082     16083
     16081     16080     16082     16084     16081     16080     16090     16091
     16081     16080     16090     16092     16081     16080     16090     16093
     16082     16080     16090     16091     16082     16080     16090     16092
     16082     16080     16090     16093     16082     16084     16086     16087
     16082     16084     16086     16088     16082     16084     16086     16089
     16083     16082     16080     16090     16083     16082     16084     16085
     16083     16082     16084     16086     16084     16082     16080     16090
     16085     16084     16086     16087     16085     16084     16086     16088
     16085     16084     16086     16089     16090     16092     16102     16103
     16090     16092     16102     16106     16090     16092     16102     16107
     16090     16093     16077     16097     16090     16093     16095     16096
     16091     16090     16092     16102     16091     16090     16093     16094
     16091     16090     16093     16095     16092     16090     16093     16094
     16092     16090     16093     16095     16092     16102     16106     16104
     16092     16102     16107     16108     16092     16102     16107     16109
     16092     16102     16107     16110     16093     16077     16097     16098
     16093     16077     16097     16099     16093     16077     16097     16100
     16093     16090     16092     16102     16094     16093     16077     16097
     16094     16093     16095     16096     16095     16093     16077     16097
     16098     16097     16100     16101     16099     16097     16100     16101
     16102     16106     16104     16105     16102     16106     16104     16114
     16102     16106     16104     16118     16102     16107     16109     16123
     16102     16107     16110     16111     16102     16107     16110     16112
     16102     16107     16110     16114     16103     16102     16106     16104
     16103     16102     16107     16108     16103     16102     16107     16109
     16103     16102     16107     16110     16104     16106     16102     16107
     16104     16114     16110     16107     16104     16114     16110     16111
     16104     16114     16110     16112     16104     16114     16116     16117
     16104     16118     16121     16122     16105     16104     16114     16110
     16105     16104     16114     16115     16105     16104     16114     16116
     16105     16104     16118     16119     16105     16104     16118     16120
     16105     16104     16118     16121     16106     16102     16107     16108
     16106     16102     16107     16109     16106     16102     16107     16110
     16106     16104     16114     16110     16106     16104     16114     16115
     16106     16104     16114     16116     16106     16104     16118     16119
     16106     16104     16118     16120     16106     16104     16118     16121
     16107     16109     16123     16124     16107     16109     16123     16127
     16107     16109     16123     16128     16107     16110     16112     16113
     16107     16110     16114     16115     16107     16110     16114     16116
     16108     16107     16109     16123     16108     16107     16110     16111
     16108     16107     16110     16112     16108     16107     16110     16114
     16109     16107     16110     16111     16109     16107     16110     16112
     16109     16107     16110     16114     16109     16123     16127     16125
     16109     16123     16128     16129     16109     16123     16128     16130
     16109     16123     16128     16131     16110     16107     16109     16123
     16110     16114     16104     16118     16110     16114     16116     16117
     16111     16110     16112     16113     16111     16110     16114     16115
     16111     16110     16114     16116     16112     16110     16114     16115
     16112     16110     16114     16116     16113     16112     16110     16114
     16114     16104     16118     16119     16114     16104     16118     16120
     16114     16104     16118     16121     16115     16114     16104     16118
     16115     16114     16116     16117     16116     16114     16104     16118
     16119     16118     16121     16122     16120     16118     16121     16122
     16123     16127     16125     16126     16123     16127     16125     16135
     16123     16127     16125     16139     16123     16128     16130     16143
     16123     16128     16131     16132     16123     16128     16131     16133
     16123     16128     16131     16135     16124     16123     16127     16125
     16124     16123     16128     16129     16124     16123     16128     16130
     16124     16123     16128     16131     16125     16127     16123     16128
     16125     16135     16131     16128     16125     16135     16131     16132
     16125     16135     16131     16133     16125     16135     16137     16138
     16126     16125     16135     16131     16126     16125     16135     16136
     16126     16125     16135     16137     16126     16125     16139     16140
     16126     16125     16139     16141     16126     16125     16139     16142
     16127     16123     16128     16129     16127     16123     16128     16130
     16127     16123     16128     16131     16127     16125     16135     16131
     16127     16125     16135     16136     16127     16125     16135     16137
     16127     16125     16139     16140     16127     16125     16139     16141
     16127     16125     16139     16142     16128     16130     16143     16144
     16128     16130     16143     16147     16128     16130     16143     16148
     16128     16131     16133     16134     16128     16131     16135     16136
     16128     16131     16135     16137     16129     16128     16130     16143
     16129     16128     16131     16132     16129     16128     16131     16133
     16129     16128     16131     16135     16130     16128     16131     16132
     16130     16128     16131     16133     16130     16128     16131     16135
     16130     16143     16147     16145     16130     16143     16148     16149
     16130     16143     16148     16150     16130     16143     16148     16151
     16131     16128     16130     16143     16131     16135     16125     16139
     16131     16135     16137     16138     16132     16131     16133     16134
     16132     16131     16135     16136     16132     16131     16135     16137
     16133     16131     16135     16136     16133     16131     16135     16137
     16134     16133     16131     16135     16135     16125     16139     16140
     16135     16125     16139     16141     16135     16125     16139     16142
     16136     16135     16125     16139     16136     16135     16137     16138
     16137     16135     16125     16139     16143     16147     16145     16146
     16143     16147     16145     16154     16143     16147     16145     16158
     16143     16148     16150     16162     16143     16148     16151     16152
     16143     16148     16151     16153     16143     16148     16151     16154
     16144     16143     16147     16145     16144     16143     16148     16149
     16144     16143     16148     16150     16144     16143     16148     16151
     16145     16147     16143     16148     16145     16154     16151     16148
     16145     16154     16151     16152     16145     16154     16151     16153
     16145     16154     16156     16157     16146     16145     16154     16151
     16146     16145     16154     16155     16146     16145     16154     16156
     16146     16145     16158     16159     16146     16145     16158     16160
     16146     16145     16158     16161     16147     16143     16148     16149
     16147     16143     16148     16150     16147     16143     16148     16151
     16147     16145     16154     16151     16147     16145     16154     16155
     16147     16145     16154     16156     16147     16145     16158     16159
     16147     16145     16158     16160     16147     16145     16158     16161
     16148     16150     16162     16163     16148     16150     16162     16166
     16148     16150     16162     16167     16148     16151     16153     16190
     16148     16151     16154     16155     16148     16151     16154     16156
     16149     16148     16150     16162     16149     16148     16151     16152
     16149     16148     16151     16153     16149     16148     16151     16154
     16150     16148     16151     16152     16150     16148     16151     16153
     16150     16148     16151     16154     16150     16162     16166     16164
     16150     16162     16167     16168     16150     16162     16167     16169
     16150     16162     16167     16177     16151     16148     16150     16162
     16151     16153     16190     16191     16151     16153     16190     16194
     16151     16153     16190     16195     16151     16154     16145     16158
     16151     16154     16156     16157     16152     16151     16153     16190
     16152     16151     16154     16155     16152     16151     16154     16156
     16153     16151     16154     16155     16153     16151     16154     16156
     16153     16190     16194     16192     16153     16190     16195     16196
     16153     16190     16195     16197     16153     16190     16195     16205
     16154     16145     16158     16159     16154     16145     16158     16160
     16154     16145     16158     16161     16154     16151     16153     16190
     16155     16154     16145     16158     16155     16154     16156     16157
     16156     16154     16145     16158     16162     16166     16164     16165
     16162     16166     16164     16181     16162     16166     16164     16185
     16162     16167     16169     16170     16162     16167     16169     16171
     16162     16167     16177     16178     16162     16167     16177     16179
     16162     16167     16177     16181     16163     16162     16166     16164
     16163     16162     16167     16168     16163     16162     16167     16169
     16163     16162     16167     16177     16164     16166     16162     16167
     16164     16181     16177     16167     16164     16181     16177     16178
     16164     16181     16177     16179     16164     16181     16183     16184
     16164     16185     16188     16189     16165     16164     16181     16177
     16165     16164     16181     16182     16165     16164     16181     16183
     16165     16164     16185     16186     16165     16164     16185     16187
     16165     16164     16185     16188     16166     16162     16167     16168
     16166     16162     16167     16169     16166     16162     16167     16177
     16166     16164     16181     16177     16166     16164     16181     16182
     16166     16164     16181     16183     16166     16164     16185     16186
     16166     16164     16185     16187     16166     16164     16185     16188
     16167     16169     16171     16172     16167     16169     16171     16173
     16167     16177     16179     16180     16167     16177     16181     16182
     16167     16177     16181     16183     16168     16167     16169     16170
     16168     16167     16169     16171     16168     16167     16177     16178
     16168     16167     16177     16179     16168     16167     16177     16181
     16169     16167     16177     16178     16169     16167     16177     16179
     16169     16167     16177     16181     16169     16171     16173     16174
     16169     16171     16173     16175     16169     16171     16173     16176
     16170     16169     16167     16177     16170     16169     16171     16172
     16170     16169     16171     16173     16171     16169     16167     16177
     16172     16171     16173     16174     16172     16171     16173     16175
     16172     16171     16173     16176     16177     16181     16164     16185
     16177     16181     16183     16184     16178     16177     16179     16180
     16178     16177     16181     16182     16178     16177     16181     16183
     16179     16177     16181     16182     16179     16177     16181     16183
     16180     16179     16177     16181     16181     16164     16185     16186
     16181     16164     16185     16187     16181     16164     16185     16188
     16182     16181     16164     16185     16182     16181     16183     16184
     16183     16181     16164     16185     16186     16185     16188     16189
     16187     16185     16188     16189     16190     16194     16192     16193
     16190     16194     16192     16208     16190     16194     16192     16212
     16190     16195     16197     16198     16190     16195     16197     16199
     16190     16195     16205     16206     16190     16195     16205     16207
     16190     16195     16205     16208     16191     16190     16194     16192
     16191     16190     16195     16196     16191     16190     16195     16197
     16191     16190     16195     16205     16192     16194     16190     16195
     16192     16208     16205     16195     16192     16208     16205     16206
     16192     16208     16205     16207     16192     16208     16210     16211
     16192     16212     16215     16216     16193     16192     16208     16205
     16193     16192     16208     16209     16193     16192     16208     16210
     16193     16192     16212     16213     16193     16192     16212     16214
     16193     16192     16212     16215     16194     16190     16195     16196
     16194     16190     16195     16197     16194     16190     16195     16205
     16194     16192     16208     16205     16194     16192     16208     16209
     16194     16192     16208     16210     16194     16192     16212     16213
     16194     16192     16212     16214     16194     16192     16212     16215
     16195     16197     16199     16200     16195     16197     16199     16201
     16195     16205     16207     16217     16195     16205     16208     16209
     16195     16205     16208     16210     16196     16195     16197     16198
     16196     16195     16197     16199     16196     16195     16205     16206
     16196     16195     16205     16207     16196     16195     16205     16208
     16197     16195     16205     16206     16197     16195     16205     16207
     16197     16195     16205     16208     16197     16199     16201     16202
     16197     16199     16201     16203     16197     16199     16201     16204
     16198     16197     16195     16205     16198     16197     16199     16200
     16198     16197     16199     16201     16199     16197     16195     16205
     16200     16199     16201     16202     16200     16199     16201     16203
     16200     16199     16201     16204     16205     16207     16217     16218
     16205     16207     16217     16221     16205     16207     16217     16222
     16205     16208     16192     16212     16205     16208     16210     16211
     16206     16205     16207     16217     16206     16205     16208     16209
     16206     16205     16208     16210     16207     16205     16208     16209
     16207     16205     16208     16210     16207     16217     16221     16219
     16207     16217     16222     16223     16207     16217     16222     16224
     16207     16217     16222     16225     16208     16192     16212     16213
     16208     16192     16212     16214     16208     16192     16212     16215
     16208     16205     16207     16217     16209     16208     16192     16212
     16209     16208     16210     16211     16210     16208     16192     16212
     16213     16212     16215     16216     16214     16212     16215     16216
     16217     16221     16219     16220     16217     16221     16219     16229
     16217     16221     16219     16233     16217     16222     16224     16238
     16217     16222     16225     16226     16217     16222     16225     16227
     16217     16222     16225     16229     16218     16217     16221     16219
     16218     16217     16222     16223     16218     16217     16222     16224
     16218     16217     16222     16225     16219     16221     16217     16222
     16219     16229     16225     16222     16219     16229     16225     16226
     16219     16229     16225     16227     16219     16229     16231     16232
     16219     16233     16236     16237     16220     16219     16229     16225
     16220     16219     16229     16230     16220     16219     16229     16231
     16220     16219     16233     16234     16220     16219     16233     16235
     16220     16219     16233     16236     16221     16217     16222     16223
     16221     16217     16222     16224     16221     16217     16222     16225
     16221     16219     16229     16225     16221     16219     16229     16230
     16221     16219     16229     16231     16221     16219     16233     16234
     16221     16219     16233     16235     16221     16219     16233     16236
     16222     16224     16238     16239     16222     16224     16238     16242
     16222     16224     16238     16243     16222     16225     16227     16228
     16222     16225     16229     16230     16222     16225     16229     16231
     16223     16222     16224     16238     16223     16222     16225     16226
     16223     16222     16225     16227     16223     16222     16225     16229
     16224     16222     16225     16226     16224     16222     16225     16227
     16224     16222     16225     16229     16224     16238     16242     16240
     16224     16238     16243     16244     16224     16238     16243     16245
     16224     16238     16243     16246     16225     16222     16224     16238
     16225     16229     16219     16233     16225     16229     16231     16232
     16226     16225     16227     16228     16226     16225     16229     16230
     16226     16225     16229     16231     16227     16225     16229     16230
     16227     16225     16229     16231     16228     16227     16225     16229
     16229     16219     16233     16234     16229     16219     16233     16235
     16229     16219     16233     16236     16230     16229     16219     16233
     16230     16229     16231     16232     16231     16229     16219     16233
     16234     16233     16236     16237     16235     16233     16236     16237
     16238     16242     16240     16241     16238     16242     16240     16250
     16238     16242     16240     16254     16238     16243     16245     16258
     16238     16243     16246     16247     16238     16243     16246     16248
     16238     16243     16246     16250     16239     16238     16242     16240
     16239     16238     16243     16244     16239     16238     16243     16245
     16239     16238     16243     16246     16240     16242     16238     16243
     16240     16250     16246     16243     16240     16250     16246     16247
     16240     16250     16246     16248     16240     16250     16252     16253
     16241     16240     16250     16246     16241     16240     16250     16251
     16241     16240     16250     16252     16241     16240     16254     16255
     16241     16240     16254     16256     16241     16240     16254     16257
     16242     16238     16243     16244     16242     16238     16243     16245
     16242     16238     16243     16246     16242     16240     16250     16246
     16242     16240     16250     16251     16242     16240     16250     16252
     16242     16240     16254     16255     16242     16240     16254     16256
     16242     16240     16254     16257     16243     16245     16258     16259
     16243     16245     16258     16262     16243     16245     16258     16263
     16243     16246     16248     16249     16243     16246     16250     16251
     16243     16246     16250     16252     16244     16243     16245     16258
     16244     16243     16246     16247     16244     16243     16246     16248
     16244     16243     16246     16250     16245     16243     16246     16247
     16245     16243     16246     16248     16245     16243     16246     16250
     16245     16258     16262     16260     16245     16258     16263     16264
     16245     16258     16263     16265     16245     16258     16263     16266
     16246     16243     16245     16258     16246     16250     16240     16254
     16246     16250     16252     16253     16247     16246     16248     16249
     16247     16246     16250     16251     16247     16246     16250     16252
     16248     16246     16250     16251     16248     16246     16250     16252
     16249     16248     16246     16250     16250     16240     16254     16255
     16250     16240     16254     16256     16250     16240     16254     16257
     16251     16250     16240     16254     16251     16250     16252     16253
     16252     16250     16240     16254     16258     16262     16260     16261
     16258     16262     16260     16269     16258     16262     16260     16273
     16258     16263     16265     16277     16258     16263     16266     16267
     16258     16263     16266     16268     16258     16263     16266     16269
     16259     16258     16262     16260     16259     16258     16263     16264
     16259     16258     16263     16265     16259     16258     16263     16266
     16260     16262     16258     16263     16260     16269     16266     16263
     16260     16269     16266     16267     16260     16269     16266     16268
     16260     16269     16271     16272     16261     16260     16269     16266
     16261     16260     16269     16270     16261     16260     16269     16271
     16261     16260     16273     16274     16261     16260     16273     16275
     16261     16260     16273     16276     16262     16258     16263     16264
     16262     16258     16263     16265     16262     16258     16263     16266
     16262     16260     16269     16266     16262     16260     16269     16270
     16262     16260     16269     16271     16262     16260     16273     16274
     16262     16260     16273     16275     16262     16260     16273     16276
     16263     16265     16277     16278     16263     16265     16277     16281
     16263     16265     16277     16282     16263     16266     16268     16305
     16263     16266     16269     16270     16263     16266     16269     16271
     16264     16263     16265     16277     16264     16263     16266     16267
     16264     16263     16266     16268     16264     16263     16266     16269
     16265     16263     16266     16267     16265     16263     16266     16268
     16265     16263     16266     16269     16265     16277     16281     16279
     16265     16277     16282     16283     16265     16277     16282     16284
     16265     16277     16282     16292     16266     16263     16265     16277
     16266     16268     16305     16306     16266     16268     16305     16309
     16266     16268     16305     16310     16266     16269     16260     16273
     16266     16269     16271     16272     16267     16266     16268     16305
     16267     16266     16269     16270     16267     16266     16269     16271
     16268     16266     16269     16270     16268     16266     16269     16271
     16268     16305     16309     16307     16268     16305     16310     16311
     16268     16305     16310     16312     16268     16305     16310     16320
     16269     16260     16273     16274     16269     16260     16273     16275
     16269     16260     16273     16276     16269     16266     16268     16305
     16270     16269     16260     16273     16270     16269     16271     16272
     16271     16269     16260     16273     16277     16281     16279     16280
     16277     16281     16279     16296     16277     16281     16279     16300
     16277     16282     16284     16285     16277     16282     16284     16286
     16277     16282     16292     16293     16277     16282     16292     16294
     16277     16282     16292     16296     16278     16277     16281     16279
     16278     16277     16282     16283     16278     16277     16282     16284
     16278     16277     16282     16292     16279     16281     16277     16282
     16279     16296     16292     16282     16279     16296     16292     16293
     16279     16296     16292     16294     16279     16296     16298     16299
     16279     16300     16303     16304     16280     16279     16296     16292
     16280     16279     16296     16297     16280     16279     16296     16298
     16280     16279     16300     16301     16280     16279     16300     16302
     16280     16279     16300     16303     16281     16277     16282     16283
     16281     16277     16282     16284     16281     16277     16282     16292
     16281     16279     16296     16292     16281     16279     16296     16297
     16281     16279     16296     16298     16281     16279     16300     16301
     16281     16279     16300     16302     16281     16279     16300     16303
     16282     16284     16286     16287     16282     16284     16286     16288
     16282     16292     16294     16295     16282     16292     16296     16297
     16282     16292     16296     16298     16283     16282     16284     16285
     16283     16282     16284     16286     16283     16282     16292     16293
     16283     16282     16292     16294     16283     16282     16292     16296
     16284     16282     16292     16293     16284     16282     16292     16294
     16284     16282     16292     16296     16284     16286     16288     16289
     16284     16286     16288     16290     16284     16286     16288     16291
     16285     16284     16282     16292     16285     16284     16286     16287
     16285     16284     16286     16288     16286     16284     16282     16292
     16287     16286     16288     16289     16287     16286     16288     16290
     16287     16286     16288     16291     16292     16296     16279     16300
     16292     16296     16298     16299     16293     16292     16294     16295
     16293     16292     16296     16297     16293     16292     16296     16298
     16294     16292     16296     16297     16294     16292     16296     16298
     16295     16294     16292     16296     16296     16279     16300     16301
     16296     16279     16300     16302     16296     16279     16300     16303
     16297     16296     16279     16300     16297     16296     16298     16299
     16298     16296     16279     16300     16301     16300     16303     16304
     16302     16300     16303     16304     16305     16309     16307     16308
     16305     16309     16307     16323     16305     16309     16307     16327
     16305     16310     16312     16313     16305     16310     16312     16314
     16305     16310     16320     16321     16305     16310     16320     16322
     16305     16310     16320     16323     16306     16305     16309     16307
     16306     16305     16310     16311     16306     16305     16310     16312
     16306     16305     16310     16320     16307     16309     16305     16310
     16307     16323     16320     16310     16307     16323     16320     16321
     16307     16323     16320     16322     16307     16323     16325     16326
     16307     16327     16330     16331     16308     16307     16323     16320
     16308     16307     16323     16324     16308     16307     16323     16325
     16308     16307     16327     16328     16308     16307     16327     16329
     16308     16307     16327     16330     16309     16305     16310     16311
     16309     16305     16310     16312     16309     16305     16310     16320
     16309     16307     16323     16320     16309     16307     16323     16324
     16309     16307     16323     16325     16309     16307     16327     16328
     16309     16307     16327     16329     16309     16307     16327     16330
     16310     16312     16314     16315     16310     16312     16314     16316
     16310     16320     16322     16332     16310     16320     16323     16324
     16310     16320     16323     16325     16311     16310     16312     16313
     16311     16310     16312     16314     16311     16310     16320     16321
     16311     16310     16320     16322     16311     16310     16320     16323
     16312     16310     16320     16321     16312     16310     16320     16322
     16312     16310     16320     16323     16312     16314     16316     16317
     16312     16314     16316     16318     16312     16314     16316     16319
     16313     16312     16310     16320     16313     16312     16314     16315
     16313     16312     16314     16316     16314     16312     16310     16320
     16315     16314     16316     16317     16315     16314     16316     16318
     16315     16314     16316     16319     16320     16322     16332     16333
     16320     16322     16332     16336     16320     16322     16332     16337
     16320     16323     16307     16327     16320     16323     16325     16326
     16321     16320     16322     16332     16321     16320     16323     16324
     16321     16320     16323     16325     16322     16320     16323     16324
     16322     16320     16323     16325     16322     16332     16336     16334
     16322     16332     16337     16338     16322     16332     16337     16339
     16322     16332     16337     16340     16323     16307     16327     16328
     16323     16307     16327     16329     16323     16307     16327     16330
     16323     16320     16322     16332     16324     16323     16307     16327
     16324     16323     16325     16326     16325     16323     16307     16327
     16328     16327     16330     16331     16329     16327     16330     16331
     16332     16336     16334     16335     16332     16336     16334     16344
     16332     16336     16334     16348     16332     16337     16339     16353
     16332     16337     16340     16341     16332     16337     16340     16342
     16332     16337     16340     16344     16333     16332     16336     16334
     16333     16332     16337     16338     16333     16332     16337     16339
     16333     16332     16337     16340     16334     16336     16332     16337
     16334     16344     16340     16337     16334     16344     16340     16341
     16334     16344     16340     16342     16334     16344     16346     16347
     16334     16348     16351     16352     16335     16334     16344     16340
     16335     16334     16344     16345     16335     16334     16344     16346
     16335     16334     16348     16349     16335     16334     16348     16350
     16335     16334     16348     16351     16336     16332     16337     16338
     16336     16332     16337     16339     16336     16332     16337     16340
     16336     16334     16344     16340     16336     16334     16344     16345
     16336     16334     16344     16346     16336     16334     16348     16349
     16336     16334     16348     16350     16336     16334     16348     16351
     16337     16339     16353     16354     16337     16339     16353     16357
     16337     16339     16353     16358     16337     16340     16342     16343
     16337     16340     16344     16345     16337     16340     16344     16346
     16338     16337     16339     16353     16338     16337     16340     16341
     16338     16337     16340     16342     16338     16337     16340     16344
     16339     16337     16340     16341     16339     16337     16340     16342
     16339     16337     16340     16344     16339     16353     16357     16355
     16339     16353     16358     16359     16339     16353     16358     16360
     16339     16353     16358     16361     16340     16337     16339     16353
     16340     16344     16334     16348     16340     16344     16346     16347
     16341     16340     16342     16343     16341     16340     16344     16345
     16341     16340     16344     16346     16342     16340     16344     16345
     16342     16340     16344     16346     16343     16342     16340     16344
     16344     16334     16348     16349     16344     16334     16348     16350
     16344     16334     16348     16351     16345     16344     16334     16348
     16345     16344     16346     16347     16346     16344     16334     16348
     16349     16348     16351     16352     16350     16348     16351     16352
     16353     16357     16355     16356     16353     16357     16355     16365
     16353     16357     16355     16369     16353     16358     16360     16373
     16353     16358     16361     16362     16353     16358     16361     16363
     16353     16358     16361     16365     16354     16353     16357     16355
     16354     16353     16358     16359     16354     16353     16358     16360
     16354     16353     16358     16361     16355     16357     16353     16358
     16355     16365     16361     16358     16355     16365     16361     16362
     16355     16365     16361     16363     16355     16365     16367     16368
     16356     16355     16365     16361     16356     16355     16365     16366
     16356     16355     16365     16367     16356     16355     16369     16370
     16356     16355     16369     16371     16356     16355     16369     16372
     16357     16353     16358     16359     16357     16353     16358     16360
     16357     16353     16358     16361     16357     16355     16365     16361
     16357     16355     16365     16366     16357     16355     16365     16367
     16357     16355     16369     16370     16357     16355     16369     16371
     16357     16355     16369     16372     16358     16360     16373     16374
     16358     16360     16373     16377     16358     16360     16373     16378
     16358     16361     16363     16364     16358     16361     16365     16366
     16358     16361     16365     16367     16359     16358     16360     16373
     16359     16358     16361     16362     16359     16358     16361     16363
     16359     16358     16361     16365     16360     16358     16361     16362
     16360     16358     16361     16363     16360     16358     16361     16365
     16360     16373     16377     16375     16360     16373     16378     16379
     16360     16373     16378     16380     16360     16373     16378     16381
     16361     16358     16360     16373     16361     16365     16355     16369
     16361     16365     16367     16368     16362     16361     16363     16364
     16362     16361     16365     16366     16362     16361     16365     16367
     16363     16361     16365     16366     16363     16361     16365     16367
     16364     16363     16361     16365     16365     16355     16369     16370
     16365     16355     16369     16371     16365     16355     16369     16372
     16366     16365     16355     16369     16366     16365     16367     16368
     16367     16365     16355     16369     16373     16377     16375     16376
     16373     16377     16375     16384     16373     16377     16375     16388
     16373     16378     16380     16392     16373     16378     16381     16382
     16373     16378     16381     16383     16373     16378     16381     16384
     16374     16373     16377     16375     16374     16373     16378     16379
     16374     16373     16378     16380     16374     16373     16378     16381
     16375     16377     16373     16378     16375     16384     16381     16378
     16375     16384     16381     16382     16375     16384     16381     16383
     16375     16384     16386     16387     16376     16375     16384     16381
     16376     16375     16384     16385     16376     16375     16384     16386
     16376     16375     16388     16389     16376     16375     16388     16390
     16376     16375     16388     16391     16377     16373     16378     16379
     16377     16373     16378     16380     16377     16373     16378     16381
     16377     16375     16384     16381     16377     16375     16384     16385
     16377     16375     16384     16386     16377     16375     16388     16389
     16377     16375     16388     16390     16377     16375     16388     16391
     16378     16380     16392     16393     16378     16380     16392     16396
     16378     16380     16392     16397     16378     16381     16383     16420
     16378     16381     16384     16385     16378     16381     16384     16386
     16379     16378     16380     16392     16379     16378     16381     16382
     16379     16378     16381     16383     16379     16378     16381     16384
     16380     16378     16381     16382     16380     16378     16381     16383
     16380     16378     16381     16384     16380     16392     16396     16394
     16380     16392     16397     16398     16380     16392     16397     16399
     16380     16392     16397     16407     16381     16378     16380     16392
     16381     16383     16420     16421     16381     16383     16420     16424
     16381     16383     16420     16425     16381     16384     16375     16388
     16381     16384     16386     16387     16382     16381     16383     16420
     16382     16381     16384     16385     16382     16381     16384     16386
     16383     16381     16384     16385     16383     16381     16384     16386
     16383     16420     16424     16422     16383     16420     16425     16426
     16383     16420     16425     16427     16383     16420     16425     16435
     16384     16375     16388     16389     16384     16375     16388     16390
     16384     16375     16388     16391     16384     16381     16383     16420
     16385     16384     16375     16388     16385     16384     16386     16387
     16386     16384     16375     16388     16392     16396     16394     16395
     16392     16396     16394     16411     16392     16396     16394     16415
     16392     16397     16399     16400     16392     16397     16399     16401
     16392     16397     16407     16408     16392     16397     16407     16409
     16392     16397     16407     16411     16393     16392     16396     16394
     16393     16392     16397     16398     16393     16392     16397     16399
     16393     16392     16397     16407     16394     16396     16392     16397
     16394     16411     16407     16397     16394     16411     16407     16408
     16394     16411     16407     16409     16394     16411     16413     16414
     16394     16415     16418     16419     16395     16394     16411     16407
     16395     16394     16411     16412     16395     16394     16411     16413
     16395     16394     16415     16416     16395     16394     16415     16417
     16395     16394     16415     16418     16396     16392     16397     16398
     16396     16392     16397     16399     16396     16392     16397     16407
     16396     16394     16411     16407     16396     16394     16411     16412
     16396     16394     16411     16413     16396     16394     16415     16416
     16396     16394     16415     16417     16396     16394     16415     16418
     16397     16399     16401     16402     16397     16399     16401     16403
     16397     16407     16409     16410     16397     16407     16411     16412
     16397     16407     16411     16413     16398     16397     16399     16400
     16398     16397     16399     16401     16398     16397     16407     16408
     16398     16397     16407     16409     16398     16397     16407     16411
     16399     16397     16407     16408     16399     16397     16407     16409
     16399     16397     16407     16411     16399     16401     16403     16404
     16399     16401     16403     16405     16399     16401     16403     16406
     16400     16399     16397     16407     16400     16399     16401     16402
     16400     16399     16401     16403     16401     16399     16397     16407
     16402     16401     16403     16404     16402     16401     16403     16405
     16402     16401     16403     16406     16407     16411     16394     16415
     16407     16411     16413     16414     16408     16407     16409     16410
     16408     16407     16411     16412     16408     16407     16411     16413
     16409     16407     16411     16412     16409     16407     16411     16413
     16410     16409     16407     16411     16411     16394     16415     16416
     16411     16394     16415     16417     16411     16394     16415     16418
     16412     16411     16394     16415     16412     16411     16413     16414
     16413     16411     16394     16415     16416     16415     16418     16419
     16417     16415     16418     16419     16420     16424     16422     16423
     16420     16424     16422     16438     16420     16424     16422     16442
     16420     16425     16427     16428     16420     16425     16427     16429
     16420     16425     16435     16436     16420     16425     16435     16437
     16420     16425     16435     16438     16421     16420     16424     16422
     16421     16420     16425     16426     16421     16420     16425     16427
     16421     16420     16425     16435     16422     16424     16420     16425
     16422     16438     16435     16425     16422     16438     16435     16436
     16422     16438     16435     16437     16422     16438     16440     16441
     16422     16442     16445     16446     16423     16422     16438     16435
     16423     16422     16438     16439     16423     16422     16438     16440
     16423     16422     16442     16443     16423     16422     16442     16444
     16423     16422     16442     16445     16424     16420     16425     16426
     16424     16420     16425     16427     16424     16420     16425     16435
     16424     16422     16438     16435     16424     16422     16438     16439
     16424     16422     16438     16440     16424     16422     16442     16443
     16424     16422     16442     16444     16424     16422     16442     16445
     16425     16427     16429     16430     16425     16427     16429     16431
     16425     16435     16437     16447     16425     16435     16438     16439
     16425     16435     16438     16440     16426     16425     16427     16428
     16426     16425     16427     16429     16426     16425     16435     16436
     16426     16425     16435     16437     16426     16425     16435     16438
     16427     16425     16435     16436     16427     16425     16435     16437
     16427     16425     16435     16438     16427     16429     16431     16432
     16427     16429     16431     16433     16427     16429     16431     16434
     16428     16427     16425     16435     16428     16427     16429     16430
     16428     16427     16429     16431     16429     16427     16425     16435
     16430     16429     16431     16432     16430     16429     16431     16433
     16430     16429     16431     16434     16435     16437     16447     16448
     16435     16437     16447     16451     16435     16437     16447     16452
     16435     16438     16422     16442     16435     16438     16440     16441
     16436     16435     16437     16447     16436     16435     16438     16439
     16436     16435     16438     16440     16437     16435     16438     16439
     16437     16435     16438     16440     16437     16447     16451     16449
     16437     16447     16452     16453     16437     16447     16452     16454
     16437     16447     16452     16455     16438     16422     16442     16443
     16438     16422     16442     16444     16438     16422     16442     16445
     16438     16435     16437     16447     16439     16438     16422     16442
     16439     16438     16440     16441     16440     16438     16422     16442
     16443     16442     16445     16446     16444     16442     16445     16446
     16447     16451     16449     16450     16447     16451     16449     16459
     16447     16451     16449     16463     16447     16452     16454     16468
     16447     16452     16455     16456     16447     16452     16455     16457
     16447     16452     16455     16459     16448     16447     16451     16449
     16448     16447     16452     16453     16448     16447     16452     16454
     16448     16447     16452     16455     16449     16451     16447     16452
     16449     16459     16455     16452     16449     16459     16455     16456
     16449     16459     16455     16457     16449     16459     16461     16462
     16449     16463     16466     16467     16450     16449     16459     16455
     16450     16449     16459     16460     16450     16449     16459     16461
     16450     16449     16463     16464     16450     16449     16463     16465
     16450     16449     16463     16466     16451     16447     16452     16453
     16451     16447     16452     16454     16451     16447     16452     16455
     16451     16449     16459     16455     16451     16449     16459     16460
     16451     16449     16459     16461     16451     16449     16463     16464
     16451     16449     16463     16465     16451     16449     16463     16466
     16452     16454     16468     16469     16452     16454     16468     16472
     16452     16454     16468     16473     16452     16455     16457     16458
     16452     16455     16459     16460     16452     16455     16459     16461
     16453     16452     16454     16468     16453     16452     16455     16456
     16453     16452     16455     16457     16453     16452     16455     16459
     16454     16452     16455     16456     16454     16452     16455     16457
     16454     16452     16455     16459     16454     16468     16472     16470
     16454     16468     16473     16474     16454     16468     16473     16475
     16454     16468     16473     16476     16455     16452     16454     16468
     16455     16459     16449     16463     16455     16459     16461     16462
     16456     16455     16457     16458     16456     16455     16459     16460
     16456     16455     16459     16461     16457     16455     16459     16460
     16457     16455     16459     16461     16458     16457     16455     16459
     16459     16449     16463     16464     16459     16449     16463     16465
     16459     16449     16463     16466     16460     16459     16449     16463
     16460     16459     16461     16462     16461     16459     16449     16463
     16464     16463     16466     16467     16465     16463     16466     16467
     16468     16472     16470     16471     16468     16472     16470     16480
     16468     16472     16470     16484     16468     16473     16475     16488
     16468     16473     16476     16477     16468     16473     16476     16478
     16468     16473     16476     16480     16469     16468     16472     16470
     16469     16468     16473     16474     16469     16468     16473     16475
     16469     16468     16473     16476     16470     16472     16468     16473
     16470     16480     16476     16473     16470     16480     16476     16477
     16470     16480     16476     16478     16470     16480     16482     16483
     16471     16470     16480     16476     16471     16470     16480     16481
     16471     16470     16480     16482     16471     16470     16484     16485
     16471     16470     16484     16486     16471     16470     16484     16487
     16472     16468     16473     16474     16472     16468     16473     16475
     16472     16468     16473     16476     16472     16470     16480     16476
     16472     16470     16480     16481     16472     16470     16480     16482
     16472     16470     16484     16485     16472     16470     16484     16486
     16472     16470     16484     16487     16473     16475     16488     16489
     16473     16475     16488     16492     16473     16475     16488     16493
     16473     16476     16478     16479     16473     16476     16480     16481
     16473     16476     16480     16482     16474     16473     16475     16488
     16474     16473     16476     16477     16474     16473     16476     16478
     16474     16473     16476     16480     16475     16473     16476     16477
     16475     16473     16476     16478     16475     16473     16476     16480
     16475     16488     16492     16490     16475     16488     16493     16494
     16475     16488     16493     16495     16475     16488     16493     16496
     16476     16473     16475     16488     16476     16480     16470     16484
     16476     16480     16482     16483     16477     16476     16478     16479
     16477     16476     16480     16481     16477     16476     16480     16482
     16478     16476     16480     16481     16478     16476     16480     16482
     16479     16478     16476     16480     16480     16470     16484     16485
     16480     16470     16484     16486     16480     16470     16484     16487
     16481     16480     16470     16484     16481     16480     16482     16483
     16482     16480     16470     16484     16488     16492     16490     16491
     16488     16492     16490     16499     16488     16492     16490     16503
     16488     16493     16495     16507     16488     16493     16496     16497
     16488     16493     16496     16498     16488     16493     16496     16499
     16489     16488     16492     16490     16489     16488     16493     16494
     16489     16488     16493     16495     16489     16488     16493     16496
     16490     16492     16488     16493     16490     16499     16496     16493
     16490     16499     16496     16497     16490     16499     16496     16498
     16490     16499     16501     16502     16491     16490     16499     16496
     16491     16490     16499     16500     16491     16490     16499     16501
     16491     16490     16503     16504     16491     16490     16503     16505
     16491     16490     16503     16506     16492     16488     16493     16494
     16492     16488     16493     16495     16492     16488     16493     16496
     16492     16490     16499     16496     16492     16490     16499     16500
     16492     16490     16499     16501     16492     16490     16503     16504
     16492     16490     16503     16505     16492     16490     16503     16506
     16493     16495     16507     16508     16493     16495     16507     16511
     16493     16495     16507     16512     16493     16496     16498     16535
     16493     16496     16499     16500     16493     16496     16499     16501
     16494     16493     16495     16507     16494     16493     16496     16497
     16494     16493     16496     16498     16494     16493     16496     16499
     16495     16493     16496     16497     16495     16493     16496     16498
     16495     16493     16496     16499     16495     16507     16511     16509
     16495     16507     16512     16513     16495     16507     16512     16514
     16495     16507     16512     16522     16496     16493     16495     16507
     16496     16498     16535     16536     16496     16498     16535     16539
     16496     16498     16535     16540     16496     16499     16490     16503
     16496     16499     16501     16502     16497     16496     16498     16535
     16497     16496     16499     16500     16497     16496     16499     16501
     16498     16496     16499     16500     16498     16496     16499     16501
     16498     16535     16539     16537     16498     16535     16540     16541
     16498     16535     16540     16542     16498     16535     16540     16550
     16499     16490     16503     16504     16499     16490     16503     16505
     16499     16490     16503     16506     16499     16496     16498     16535
     16500     16499     16490     16503     16500     16499     16501     16502
     16501     16499     16490     16503     16507     16511     16509     16510
     16507     16511     16509     16526     16507     16511     16509     16530
     16507     16512     16514     16515     16507     16512     16514     16516
     16507     16512     16522     16523     16507     16512     16522     16524
     16507     16512     16522     16526     16508     16507     16511     16509
     16508     16507     16512     16513     16508     16507     16512     16514
     16508     16507     16512     16522     16509     16511     16507     16512
     16509     16526     16522     16512     16509     16526     16522     16523
     16509     16526     16522     16524     16509     16526     16528     16529
     16509     16530     16533     16534     16510     16509     16526     16522
     16510     16509     16526     16527     16510     16509     16526     16528
     16510     16509     16530     16531     16510     16509     16530     16532
     16510     16509     16530     16533     16511     16507     16512     16513
     16511     16507     16512     16514     16511     16507     16512     16522
     16511     16509     16526     16522     16511     16509     16526     16527
     16511     16509     16526     16528     16511     16509     16530     16531
     16511     16509     16530     16532     16511     16509     16530     16533
     16512     16514     16516     16517     16512     16514     16516     16518
     16512     16522     16524     16525     16512     16522     16526     16527
     16512     16522     16526     16528     16513     16512     16514     16515
     16513     16512     16514     16516     16513     16512     16522     16523
     16513     16512     16522     16524     16513     16512     16522     16526
     16514     16512     16522     16523     16514     16512     16522     16524
     16514     16512     16522     16526     16514     16516     16518     16519
     16514     16516     16518     16520     16514     16516     16518     16521
     16515     16514     16512     16522     16515     16514     16516     16517
     16515     16514     16516     16518     16516     16514     16512     16522
     16517     16516     16518     16519     16517     16516     16518     16520
     16517     16516     16518     16521     16522     16526     16509     16530
     16522     16526     16528     16529     16523     16522     16524     16525
     16523     16522     16526     16527     16523     16522     16526     16528
     16524     16522     16526     16527     16524     16522     16526     16528
     16525     16524     16522     16526     16526     16509     16530     16531
     16526     16509     16530     16532     16526     16509     16530     16533
     16527     16526     16509     16530     16527     16526     16528     16529
     16528     16526     16509     16530     16531     16530     16533     16534
     16532     16530     16533     16534     16535     16539     16537     16538
     16535     16539     16537     16553     16535     16539     16537     16557
     16535     16540     16542     16543     16535     16540     16542     16544
     16535     16540     16550     16551     16535     16540     16550     16552
     16535     16540     16550     16553     16536     16535     16539     16537
     16536     16535     16540     16541     16536     16535     16540     16542
     16536     16535     16540     16550     16537     16539     16535     16540
     16537     16553     16550     16540     16537     16553     16550     16551
     16537     16553     16550     16552     16537     16553     16555     16556
     16537     16557     16560     16561     16538     16537     16553     16550
     16538     16537     16553     16554     16538     16537     16553     16555
     16538     16537     16557     16558     16538     16537     16557     16559
     16538     16537     16557     16560     16539     16535     16540     16541
     16539     16535     16540     16542     16539     16535     16540     16550
     16539     16537     16553     16550     16539     16537     16553     16554
     16539     16537     16553     16555     16539     16537     16557     16558
     16539     16537     16557     16559     16539     16537     16557     16560
     16540     16542     16544     16545     16540     16542     16544     16546
     16540     16550     16552     16562     16540     16550     16553     16554
     16540     16550     16553     16555     16541     16540     16542     16543
     16541     16540     16542     16544     16541     16540     16550     16551
     16541     16540     16550     16552     16541     16540     16550     16553
     16542     16540     16550     16551     16542     16540     16550     16552
     16542     16540     16550     16553     16542     16544     16546     16547
     16542     16544     16546     16548     16542     16544     16546     16549
     16543     16542     16540     16550     16543     16542     16544     16545
     16543     16542     16544     16546     16544     16542     16540     16550
     16545     16544     16546     16547     16545     16544     16546     16548
     16545     16544     16546     16549     16550     16552     16562     16563
     16550     16552     16562     16566     16550     16552     16562     16567
     16550     16553     16537     16557     16550     16553     16555     16556
     16551     16550     16552     16562     16551     16550     16553     16554
     16551     16550     16553     16555     16552     16550     16553     16554
     16552     16550     16553     16555     16552     16562     16566     16564
     16552     16562     16567     16568     16552     16562     16567     16569
     16552     16562     16567     16570     16553     16537     16557     16558
     16553     16537     16557     16559     16553     16537     16557     16560
     16553     16550     16552     16562     16554     16553     16537     16557
     16554     16553     16555     16556     16555     16553     16537     16557
     16558     16557     16560     16561     16559     16557     16560     16561
     16562     16566     16564     16565     16562     16566     16564     16574
     16562     16566     16564     16578     16562     16567     16569     16583
     16562     16567     16570     16571     16562     16567     16570     16572
     16562     16567     16570     16574     16563     16562     16566     16564
     16563     16562     16567     16568     16563     16562     16567     16569
     16563     16562     16567     16570     16564     16566     16562     16567
     16564     16574     16570     16567     16564     16574     16570     16571
     16564     16574     16570     16572     16564     16574     16576     16577
     16564     16578     16581     16582     16565     16564     16574     16570
     16565     16564     16574     16575     16565     16564     16574     16576
     16565     16564     16578     16579     16565     16564     16578     16580
     16565     16564     16578     16581     16566     16562     16567     16568
     16566     16562     16567     16569     16566     16562     16567     16570
     16566     16564     16574     16570     16566     16564     16574     16575
     16566     16564     16574     16576     16566     16564     16578     16579
     16566     16564     16578     16580     16566     16564     16578     16581
     16567     16569     16583     16584     16567     16569     16583     16587
     16567     16569     16583     16588     16567     16570     16572     16573
     16567     16570     16574     16575     16567     16570     16574     16576
     16568     16567     16569     16583     16568     16567     16570     16571
     16568     16567     16570     16572     16568     16567     16570     16574
     16569     16567     16570     16571     16569     16567     16570     16572
     16569     16567     16570     16574     16569     16583     16587     16585
     16569     16583     16588     16589     16569     16583     16588     16590
     16569     16583     16588     16591     16570     16567     16569     16583
     16570     16574     16564     16578     16570     16574     16576     16577
     16571     16570     16572     16573     16571     16570     16574     16575
     16571     16570     16574     16576     16572     16570     16574     16575
     16572     16570     16574     16576     16573     16572     16570     16574
     16574     16564     16578     16579     16574     16564     16578     16580
     16574     16564     16578     16581     16575     16574     16564     16578
     16575     16574     16576     16577     16576     16574     16564     16578
     16579     16578     16581     16582     16580     16578     16581     16582
     16583     16587     16585     16586     16583     16587     16585     16595
     16583     16587     16585     16599     16583     16588     16590     16603
     16583     16588     16591     16592     16583     16588     16591     16593
     16583     16588     16591     16595     16584     16583     16587     16585
     16584     16583     16588     16589     16584     16583     16588     16590
     16584     16583     16588     16591     16585     16587     16583     16588
     16585     16595     16591     16588     16585     16595     16591     16592
     16585     16595     16591     16593     16585     16595     16597     16598
     16586     16585     16595     16591     16586     16585     16595     16596
     16586     16585     16595     16597     16586     16585     16599     16600
     16586     16585     16599     16601     16586     16585     16599     16602
     16587     16583     16588     16589     16587     16583     16588     16590
     16587     16583     16588     16591     16587     16585     16595     16591
     16587     16585     16595     16596     16587     16585     16595     16597
     16587     16585     16599     16600     16587     16585     16599     16601
     16587     16585     16599     16602     16588     16590     16603     16604
     16588     16590     16603     16607     16588     16590     16603     16608
     16588     16591     16593     16594     16588     16591     16595     16596
     16588     16591     16595     16597     16589     16588     16590     16603
     16589     16588     16591     16592     16589     16588     16591     16593
     16589     16588     16591     16595     16590     16588     16591     16592
     16590     16588     16591     16593     16590     16588     16591     16595
     16590     16603     16607     16605     16590     16603     16608     16609
     16590     16603     16608     16610     16590     16603     16608     16611
     16591     16588     16590     16603     16591     16595     16585     16599
     16591     16595     16597     16598     16592     16591     16593     16594
     16592     16591     16595     16596     16592     16591     16595     16597
     16593     16591     16595     16596     16593     16591     16595     16597
     16594     16593     16591     16595     16595     16585     16599     16600
     16595     16585     16599     16601     16595     16585     16599     16602
     16596     16595     16585     16599     16596     16595     16597     16598
     16597     16595     16585     16599     16603     16607     16605     16606
     16603     16607     16605     16615     16603     16607     16605     16619
     16603     16608     16610     16623     16603     16608     16611     16612
     16603     16608     16611     16613     16603     16608     16611     16615
     16604     16603     16607     16605     16604     16603     16608     16609
     16604     16603     16608     16610     16604     16603     16608     16611
     16605     16607     16603     16608     16605     16615     16611     16608
     16605     16615     16611     16612     16605     16615     16611     16613
     16605     16615     16617     16618     16606     16605     16615     16611
     16606     16605     16615     16616     16606     16605     16615     16617
     16606     16605     16619     16620     16606     16605     16619     16621
     16606     16605     16619     16622     16607     16603     16608     16609
     16607     16603     16608     16610     16607     16603     16608     16611
     16607     16605     16615     16611     16607     16605     16615     16616
     16607     16605     16615     16617     16607     16605     16619     16620
     16607     16605     16619     16621     16607     16605     16619     16622
     16608     16610     16623     16624     16608     16610     16623     16627
     16608     16610     16623     16628     16608     16611     16613     16614
     16608     16611     16615     16616     16608     16611     16615     16617
     16609     16608     16610     16623     16609     16608     16611     16612
     16609     16608     16611     16613     16609     16608     16611     16615
     16610     16608     16611     16612     16610     16608     16611     16613
     16610     16608     16611     16615     16610     16623     16627     16625
     16610     16623     16628     16629     16610     16623     16628     16630
     16610     16623     16628     16638     16611     16608     16610     16623
     16611     16615     16605     16619     16611     16615     16617     16618
     16612     16611     16613     16614     16612     16611     16615     16616
     16612     16611     16615     16617     16613     16611     16615     16616
     16613     16611     16615     16617     16614     16613     16611     16615
     16615     16605     16619     16620     16615     16605     16619     16621
     16615     16605     16619     16622     16616     16615     16605     16619
     16616     16615     16617     16618     16617     16615     16605     16619
     16623     16627     16625     16626     16623     16627     16625     16642
     16623     16627     16625     16646     16623     16628     16630     16631
     16623     16628     16630     16632     16623     16628     16638     16639
     16623     16628     16638     16640     16623     16628     16638     16642
     16624     16623     16627     16625     16624     16623     16628     16629
     16624     16623     16628     16630     16624     16623     16628     16638
     16625     16627     16623     16628     16625     16642     16638     16628
     16625     16642     16638     16639     16625     16642     16638     16640
     16625     16642     16644     16645     16625     16646     16649     16650
     16626     16625     16642     16638     16626     16625     16642     16643
     16626     16625     16642     16644     16626     16625     16646     16647
     16626     16625     16646     16648     16626     16625     16646     16649
     16627     16623     16628     16629     16627     16623     16628     16630
     16627     16623     16628     16638     16627     16625     16642     16638
     16627     16625     16642     16643     16627     16625     16642     16644
     16627     16625     16646     16647     16627     16625     16646     16648
     16627     16625     16646     16649     16628     16630     16632     16633
     16628     16630     16632     16634     16628     16638     16640     16641
     16628     16638     16642     16643     16628     16638     16642     16644
     16629     16628     16630     16631     16629     16628     16630     16632
     16629     16628     16638     16639     16629     16628     16638     16640
     16629     16628     16638     16642     16630     16628     16638     16639
     16630     16628     16638     16640     16630     16628     16638     16642
     16630     16632     16634     16635     16630     16632     16634     16636
     16630     16632     16634     16637     16631     16630     16628     16638
     16631     16630     16632     16633     16631     16630     16632     16634
     16632     16630     16628     16638     16633     16632     16634     16635
     16633     16632     16634     16636     16633     16632     16634     16637
     16638     16642     16625     16646     16638     16642     16644     16645
     16639     16638     16640     16641     16639     16638     16642     16643
     16639     16638     16642     16644     16640     16638     16642     16643
     16640     16638     16642     16644     16641     16640     16638     16642
     16642     16625     16646     16647     16642     16625     16646     16648
     16642     16625     16646     16649     16643     16642     16625     16646
     16643     16642     16644     16645     16644     16642     16625     16646
     16647     16646     16649     16650     16648     16646     16649     16650
     16651     16653     16652     16950     16651     16653     16655     16656
     16651     16653     16655     16657     16651     16653     16655     16664
     16652     16653     16655     16656     16652     16653     16655     16657
     16652     16653     16655     16664     16652     16950     16947     16948
     16652     16950     16947     16949     16652     16950     16953     16951
     16652     16950     16954     16955     16652     16950     16954     16956
     16652     16950     16954     16957     16653     16652     16950     16947
     16653     16652     16950     16953     16653     16652     16950     16954
     16653     16655     16656     16658     16653     16655     16664     16665
     16653     16655     16664     16666     16653     16655     16664     16671
     16654     16653     16652     16950     16654     16653     16655     16656
     16654     16653     16655     16657     16654     16653     16655     16664
     16655     16653     16652     16950     16655     16656     16658     16659
     16655     16656     16658     16660     16655     16656     16658     16679
     16655     16664     16666     16667     16655     16664     16671     16672
     16655     16664     16671     16673     16655     16664     16671     16679
     16656     16655     16664     16665     16656     16655     16664     16666
     16656     16655     16664     16671     16656     16658     16660     16661
     16656     16658     16679     16671     16656     16658     16679     16680
     16656     16658     16679     16681     16657     16655     16656     16658
     16657     16655     16664     16665     16657     16655     16664     16666
     16657     16655     16664     16671     16658     16656     16655     16664
     16658     16660     16661     16662     16658     16660     16661     16663
     16658     16660     16661     16687     16658     16679     16671     16664
     16658     16679     16671     16672     16658     16679     16671     16673
     16658     16679     16681     16682     16658     16679     16681     16788
     16659     16658     16660     16661     16659     16658     16679     16671
     16659     16658     16679     16680     16659     16658     16679     16681
     16660     16658     16679     16671     16660     16658     16679     16680
     16660     16658     16679     16681     16660     16661     16687     16683
     16660     16661     16687     16688     16660     16661     16687     16689
     16661     16660     16658     16679     16661     16687     16683     16684
     16661     16687     16683     16685     16661     16687     16683     16697
     16661     16687     16689     16690     16662     16661     16687     16683
     16662     16661     16687     16688     16662     16661     16687     16689
     16663     16661     16687     16683     16663     16661     16687     16688
     16663     16661     16687     16689     16664     16666     16667     16668
     16664     16666     16667     16669     16664     16666     16667     16670
     16664     16671     16672     16674     16664     16671     16679     16680
     16664     16671     16679     16681     16665     16664     16666     16667
     16665     16664     16671     16672     16665     16664     16671     16673
     16665     16664     16671     16679     16666     16664     16671     16672
     16666     16664     16671     16673     16666     16664     16671     16679
     16667     16666     16664     16671     16671     16672     16674     16675
     16671     16672     16674     16676     16671     16679     16681     16682
     16671     16679     16681     16788     16672     16671     16679     16680
     16672     16671     16679     16681     16672     16674     16676     16677
     16672     16674     16676     16678     16672     16674     16676     16709
     16673     16671     16672     16674     16673     16671     16679     16680
     16673     16671     16679     16681     16674     16672     16671     16679
     16674     16676     16709     16710     16674     16676     16709     16711
     16674     16676     16709     16754     16675     16674     16676     16677
     16675     16674     16676     16678     16675     16674     16676     16709
     16676     16709     16711     16712     16676     16709     16754     16755
     16676     16709     16754     16756     16676     16709     16754     16757
     16677     16676     16709     16710     16677     16676     16709     16711
     16677     16676     16709     16754     16678     16676     16709     16710
     16678     16676     16709     16711     16678     16676     16709     16754
     16679     16681     16788     16789     16679     16681     16788     16790
     16680     16679     16681     16682     16680     16679     16681     16788
     16681     16788     16790     16791     16681     16788     16790     16792
     16681     16788     16790     16793     16682     16681     16788     16789
     16682     16681     16788     16790     16683     16687     16689     16690
     16683     16697     16699     16700     16683     16697     16705     16690
     16683     16697     16705     16706     16683     16697     16705     16707
     16684     16683     16685     16686     16684     16683     16687     16688
     16684     16683     16687     16689     16684     16683     16697     16698
     16684     16683     16697     16699     16684     16683     16697     16705
     16685     16683     16687     16688     16685     16683     16687     16689
     16685     16683     16697     16698     16685     16683     16697     16699
     16685     16683     16697     16705     16686     16685     16683     16687
     16686     16685     16683     16697     16687     16683     16697     16698
     16687     16683     16697     16699     16687     16683     16697     16705
     16687     16689     16690     16691     16687     16689     16690     16692
     16687     16689     16690     16705     16688     16687     16683     16697
     16688     16687     16689     16690     16689     16687     16683     16697
     16689     16690     16692     16696     16689     16690     16705     16697
     16689     16690     16705     16706     16689     16690     16705     16707
     16690     16692     16696     16693     16690     16692     16696     16694
     16690     16692     16696     16695     16690     16705     16697     16698
     16690     16705     16697     16699     16690     16705     16707     16708
     16690     16705     16707     16904     16691     16690     16692     16696
     16691     16690     16705     16697     16691     16690     16705     16706
     16691     16690     16705     16707     16692     16690     16705     16697
     16692     16690     16705     16706     16692     16690     16705     16707
     16696     16692     16690     16705     16697     16699     16700     16701
     16697     16699     16700     16702     16697     16705     16707     16708
     16697     16705     16707     16904     16698     16697     16699     16700
     16698     16697     16705     16706     16698     16697     16705     16707
     16699     16697     16705     16706     16699     16697     16705     16707
     16699     16700     16702     16703     16699     16700     16702     16704
     16699     16700     16702     16866     16700     16699     16697     16705
     16700     16702     16866     16867     16700     16702     16866     16868
     16700     16702     16866     16870     16701     16700     16702     16703
     16701     16700     16702     16704     16701     16700     16702     16866
     16702     16866     16868     16869     16702     16866     16870     16871
     16702     16866     16870     16872     16702     16866     16870     16873
     16703     16702     16866     16867     16703     16702     16866     16868
     16703     16702     16866     16870     16704     16702     16866     16867
     16704     16702     16866     16868     16704     16702     16866     16870
     16705     16707     16904     16905     16705     16707     16904     16906
     16706     16705     16707     16708     16706     16705     16707     16904
     16707     16904     16906     16907     16707     16904     16906     16908
     16707     16904     16906     16909     16708     16707     16904     16905
     16708     16707     16904     16906     16709     16711     16712     16713
     16709     16711     16712     16714     16709     16754     16757     16758
     16709     16754     16757     16759     16709     16754     16757     16760
     16710     16709     16711     16712     16710     16709     16754     16755
     16710     16709     16754     16756     16710     16709     16754     16757
     16711     16709     16754     16755     16711     16709     16754     16756
     16711     16709     16754     16757     16711     16712     16714     16715
     16711     16712     16714     16716     16711     16712     16714     16717
     16712     16711     16709     16754     16712     16714     16717     16718
     16712     16714     16717     16719     16712     16714     16717     16720
     16713     16712     16714     16715     16713     16712     16714     16716
     16713     16712     16714     16717     16714     16717     16720     16721
     16714     16717     16720     16722     16714     16717     16720     16723
     16715     16714     16717     16718     16715     16714     16717     16719
     16715     16714     16717     16720     16716     16714     16717     16718
     16716     16714     16717     16719     16716     16714     16717     16720
     16717     16720     16723     16724     16717     16720     16723     16725
     16717     16720     16723     16726     16718     16717     16720     16721
     16718     16717     16720     16722     16718     16717     16720     16723
     16719     16717     16720     16721     16719     16717     16720     16722
     16719     16717     16720     16723     16720     16723     16726     16727
     16720     16723     16726     16728     16720     16723     16726     16729
     16721     16720     16723     16724     16721     16720     16723     16725
     16721     16720     16723     16726     16722     16720     16723     16724
     16722     16720     16723     16725     16722     16720     16723     16726
     16723     16726     16729     16730     16723     16726     16729     16731
     16723     16726     16729     16732     16724     16723     16726     16727
     16724     16723     16726     16728     16724     16723     16726     16729
     16725     16723     16726     16727     16725     16723     16726     16728
     16725     16723     16726     16729     16726     16729     16732     16733
     16726     16729     16732     16734     16726     16729     16732     16735
     16727     16726     16729     16730     16727     16726     16729     16731
     16727     16726     16729     16732     16728     16726     16729     16730
     16728     16726     16729     16731     16728     16726     16729     16732
     16729     16732     16735     16736     16729     16732     16735     16737
     16729     16732     16735     16738     16730     16729     16732     16733
     16730     16729     16732     16734     16730     16729     16732     16735
     16731     16729     16732     16733     16731     16729     16732     16734
     16731     16729     16732     16735     16732     16735     16738     16739
     16732     16735     16738     16740     16732     16735     16738     16741
     16733     16732     16735     16736     16733     16732     16735     16737
     16733     16732     16735     16738     16734     16732     16735     16736
     16734     16732     16735     16737     16734     16732     16735     16738
     16735     16738     16741     16742     16735     16738     16741     16743
     16735     16738     16741     16744     16736     16735     16738     16739
     16736     16735     16738     16740     16736     16735     16738     16741
     16737     16735     16738     16739     16737     16735     16738     16740
     16737     16735     16738     16741     16738     16741     16744     16745
     16738     16741     16744     16746     16738     16741     16744     16747
     16739     16738     16741     16742     16739     16738     16741     16743
     16739     16738     16741     16744     16740     16738     16741     16742
     16740     16738     16741     16743     16740     16738     16741     16744
     16741     16744     16747     16748     16741     16744     16747     16749
     16741     16744     16747     16750     16742     16741     16744     16745
     16742     16741     16744     16746     16742     16741     16744     16747
     16743     16741     16744     16745     16743     16741     16744     16746
     16743     16741     16744     16747     16744     16747     16750     16751
     16744     16747     16750     16752     16744     16747     16750     16753
     16745     16744     16747     16748     16745     16744     16747     16749
     16745     16744     16747     16750     16746     16744     16747     16748
     16746     16744     16747     16749     16746     16744     16747     16750
     16748     16747     16750     16751     16748     16747     16750     16752
     16748     16747     16750     16753     16749     16747     16750     16751
     16749     16747     16750     16752     16749     16747     16750     16753
     16754     16757     16760     16761     16754     16757     16760     16762
     16754     16757     16760     16763     16755     16754     16757     16758
     16755     16754     16757     16759     16755     16754     16757     16760
     16756     16754     16757     16758     16756     16754     16757     16759
     16756     16754     16757     16760     16757     16760     16763     16764
     16757     16760     16763     16765     16757     16760     16763     16766
     16758     16757     16760     16761     16758     16757     16760     16762
     16758     16757     16760     16763     16759     16757     16760     16761
     16759     16757     16760     16762     16759     16757     16760     16763
     16760     16763     16766     16767     16760     16763     16766     16768
     16760     16763     16766     16769     16761     16760     16763     16764
     16761     16760     16763     16765     16761     16760     16763     16766
     16762     16760     16763     16764     16762     16760     16763     16765
     16762     16760     16763     16766     16763     16766     16769     16770
     16763     16766     16769     16771     16763     16766     16769     16772
     16764     16763     16766     16767     16764     16763     16766     16768
     16764     16763     16766     16769     16765     16763     16766     16767
     16765     16763     16766     16768     16765     16763     16766     16769
     16766     16769     16772     16773     16766     16769     16772     16774
     16766     16769     16772     16775     16767     16766     16769     16770
     16767     16766     16769     16771     16767     16766     16769     16772
     16768     16766     16769     16770     16768     16766     16769     16771
     16768     16766     16769     16772     16769     16772     16775     16776
     16769     16772     16775     16777     16769     16772     16775     16778
     16770     16769     16772     16773     16770     16769     16772     16774
     16770     16769     16772     16775     16771     16769     16772     16773
     16771     16769     16772     16774     16771     16769     16772     16775
     16772     16775     16778     16779     16772     16775     16778     16780
     16772     16775     16778     16781     16773     16772     16775     16776
     16773     16772     16775     16777     16773     16772     16775     16778
     16774     16772     16775     16776     16774     16772     16775     16777
     16774     16772     16775     16778     16775     16778     16781     16782
     16775     16778     16781     16783     16775     16778     16781     16784
     16776     16775     16778     16779     16776     16775     16778     16780
     16776     16775     16778     16781     16777     16775     16778     16779
     16777     16775     16778     16780     16777     16775     16778     16781
     16778     16781     16784     16785     16778     16781     16784     16786
     16778     16781     16784     16787     16779     16778     16781     16782
     16779     16778     16781     16783     16779     16778     16781     16784
     16780     16778     16781     16782     16780     16778     16781     16783
     16780     16778     16781     16784     16782     16781     16784     16785
     16782     16781     16784     16786     16782     16781     16784     16787
     16783     16781     16784     16785     16783     16781     16784     16786
     16783     16781     16784     16787     16788     16790     16793     16794
     16788     16790     16793     16795     16788     16790     16793     16832
     16789     16788     16790     16791     16789     16788     16790     16792
     16789     16788     16790     16793     16790     16793     16795     16796
     16790     16793     16832     16833     16790     16793     16832     16834
     16790     16793     16832     16835     16791     16790     16793     16794
     16791     16790     16793     16795     16791     16790     16793     16832
     16792     16790     16793     16794     16792     16790     16793     16795
     16792     16790     16793     16832     16793     16795     16796     16797
     16793     16795     16796     16798     16793     16832     16835     16836
     16793     16832     16835     16837     16793     16832     16835     16838
     16794     16793     16795     16796     16794     16793     16832     16833
     16794     16793     16832     16834     16794     16793     16832     16835
     16795     16793     16832     16833     16795     16793     16832     16834
     16795     16793     16832     16835     16795     16796     16798     16799
     16795     16796     16798     16800     16795     16796     16798     16801
     16796     16795     16793     16832     16796     16798     16801     16802
     16796     16798     16801     16803     16796     16798     16801     16804
     16797     16796     16798     16799     16797     16796     16798     16800
     16797     16796     16798     16801     16798     16801     16804     16805
     16798     16801     16804     16806     16798     16801     16804     16807
     16799     16798     16801     16802     16799     16798     16801     16803
     16799     16798     16801     16804     16800     16798     16801     16802
     16800     16798     16801     16803     16800     16798     16801     16804
     16801     16804     16807     16808     16801     16804     16807     16809
     16801     16804     16807     16810     16802     16801     16804     16805
     16802     16801     16804     16806     16802     16801     16804     16807
     16803     16801     16804     16805     16803     16801     16804     16806
     16803     16801     16804     16807     16804     16807     16810     16811
     16804     16807     16810     16812     16804     16807     16810     16813
     16805     16804     16807     16808     16805     16804     16807     16809
     16805     16804     16807     16810     16806     16804     16807     16808
     16806     16804     16807     16809     16806     16804     16807     16810
     16807     16810     16813     16814     16807     16810     16813     16815
     16807     16810     16813     16816     16808     16807     16810     16811
     16808     16807     16810     16812     16808     16807     16810     16813
     16809     16807     16810     16811     16809     16807     16810     16812
     16809     16807     16810     16813     16810     16813     16816     16817
     16810     16813     16816     16818     16810     16813     16816     16819
     16811     16810     16813     16814     16811     16810     16813     16815
     16811     16810     16813     16816     16812     16810     16813     16814
     16812     16810     16813     16815     16812     16810     16813     16816
     16813     16816     16819     16820     16813     16816     16819     16821
     16813     16816     16819     16822     16814     16813     16816     16817
     16814     16813     16816     16818     16814     16813     16816     16819
     16815     16813     16816     16817     16815     16813     16816     16818
     16815     16813     16816     16819     16816     16819     16822     16823
     16816     16819     16822     16824     16816     16819     16822     16825
     16817     16816     16819     16820     16817     16816     16819     16821
     16817     16816     16819     16822     16818     16816     16819     16820
     16818     16816     16819     16821     16818     16816     16819     16822
     16819     16822     16825     16826     16819     16822     16825     16827
     16819     16822     16825     16828     16820     16819     16822     16823
     16820     16819     16822     16824     16820     16819     16822     16825
     16821     16819     16822     16823     16821     16819     16822     16824
     16821     16819     16822     16825     16822     16825     16828     16829
     16822     16825     16828     16830     16822     16825     16828     16831
     16823     16822     16825     16826     16823     16822     16825     16827
     16823     16822     16825     16828     16824     16822     16825     16826
     16824     16822     16825     16827     16824     16822     16825     16828
     16826     16825     16828     16829     16826     16825     16828     16830
     16826     16825     16828     16831     16827     16825     16828     16829
     16827     16825     16828     16830     16827     16825     16828     16831
     16832     16835     16838     16839     16832     16835     16838     16840
     16832     16835     16838     16841     16833     16832     16835     16836
     16833     16832     16835     16837     16833     16832     16835     16838
     16834     16832     16835     16836     16834     16832     16835     16837
     16834     16832     16835     16838     16835     16838     16841     16842
     16835     16838     16841     16843     16835     16838     16841     16844
     16836     16835     16838     16839     16836     16835     16838     16840
     16836     16835     16838     16841     16837     16835     16838     16839
     16837     16835     16838     16840     16837     16835     16838     16841
     16838     16841     16844     16845     16838     16841     16844     16846
     16838     16841     16844     16847     16839     16838     16841     16842
     16839     16838     16841     16843     16839     16838     16841     16844
     16840     16838     16841     16842     16840     16838     16841     16843
     16840     16838     16841     16844     16841     16844     16847     16848
     16841     16844     16847     16849     16841     16844     16847     16850
     16842     16841     16844     16845     16842     16841     16844     16846
     16842     16841     16844     16847     16843     16841     16844     16845
     16843     16841     16844     16846     16843     16841     16844     16847
     16844     16847     16850     16851     16844     16847     16850     16852
     16844     16847     16850     16853     16845     16844     16847     16848
     16845     16844     16847     16849     16845     16844     16847     16850
     16846     16844     16847     16848     16846     16844     16847     16849
     16846     16844     16847     16850     16847     16850     16853     16854
     16847     16850     16853     16855     16847     16850     16853     16856
     16848     16847     16850     16851     16848     16847     16850     16852
     16848     16847     16850     16853     16849     16847     16850     16851
     16849     16847     16850     16852     16849     16847     16850     16853
     16850     16853     16856     16857     16850     16853     16856     16858
     16850     16853     16856     16859     16851     16850     16853     16854
     16851     16850     16853     16855     16851     16850     16853     16856
     16852     16850     16853     16854     16852     16850     16853     16855
     16852     16850     16853     16856     16853     16856     16859     16860
     16853     16856     16859     16861     16853     16856     16859     16862
     16854     16853     16856     16857     16854     16853     16856     16858
     16854     16853     16856     16859     16855     16853     16856     16857
     16855     16853     16856     16858     16855     16853     16856     16859
     16856     16859     16862     16863     16856     16859     16862     16864
     16856     16859     16862     16865     16857     16856     16859     16860
     16857     16856     16859     16861     16857     16856     16859     16862
     16858     16856     16859     16860     16858     16856     16859     16861
     16858     16856     16859     16862     16860     16859     16862     16863
     16860     16859     16862     16864     16860     16859     16862     16865
     16861     16859     16862     16863     16861     16859     16862     16864
     16861     16859     16862     16865     16866     16870     16873     16874
     16866     16870     16873     16875     16866     16870     16873     16876
     16867     16866     16868     16869     16867     16866     16870     16871
     16867     16866     16870     16872     16867     16866     16870     16873
     16868     16866     16870     16871     16868     16866     16870     16872
     16868     16866     16870     16873     16869     16868     16866     16870
     16870     16873     16876     16877     16870     16873     16876     16878
     16870     16873     16876     16879     16871     16870     16873     16874
     16871     16870     16873     16875     16871     16870     16873     16876
     16872     16870     16873     16874     16872     16870     16873     16875
     16872     16870     16873     16876     16873     16876     16879     16880
     16873     16876     16879     16881     16873     16876     16879     16882
     16874     16873     16876     16877     16874     16873     16876     16878
     16874     16873     16876     16879     16875     16873     16876     16877
     16875     16873     16876     16878     16875     16873     16876     16879
     16876     16879     16882     16883     16876     16879     16882     16884
     16876     16879     16882     16885     16877     16876     16879     16880
     16877     16876     16879     16881     16877     16876     16879     16882
     16878     16876     16879     16880     16878     16876     16879     16881
     16878     16876     16879     16882     16879     16882     16885     16886
     16879     16882     16885     16887     16879     16882     16885     16888
     16880     16879     16882     16883     16880     16879     16882     16884
     16880     16879     16882     16885     16881     16879     16882     16883
     16881     16879     16882     16884     16881     16879     16882     16885
     16882     16885     16888     16889     16882     16885     16888     16890
     16882     16885     16888     16891     16883     16882     16885     16886
     16883     16882     16885     16887     16883     16882     16885     16888
     16884     16882     16885     16886     16884     16882     16885     16887
     16884     16882     16885     16888     16885     16888     16891     16892
     16885     16888     16891     16893     16885     16888     16891     16894
     16886     16885     16888     16889     16886     16885     16888     16890
     16886     16885     16888     16891     16887     16885     16888     16889
     16887     16885     16888     16890     16887     16885     16888     16891
     16888     16891     16894     16895     16888     16891     16894     16896
     16888     16891     16894     16897     16889     16888     16891     16892
     16889     16888     16891     16893     16889     16888     16891     16894
     16890     16888     16891     16892     16890     16888     16891     16893
     16890     16888     16891     16894     16891     16894     16897     16898
     16891     16894     16897     16899     16891     16894     16897     16900
     16892     16891     16894     16895     16892     16891     16894     16896
     16892     16891     16894     16897     16893     16891     16894     16895
     16893     16891     16894     16896     16893     16891     16894     16897
     16894     16897     16900     16901     16894     16897     16900     16902
     16894     16897     16900     16903     16895     16894     16897     16898
     16895     16894     16897     16899     16895     16894     16897     16900
     16896     16894     16897     16898     16896     16894     16897     16899
     16896     16894     16897     16900     16898     16897     16900     16901
     16898     16897     16900     16902     16898     16897     16900     16903
     16899     16897     16900     16901     16899     16897     16900     16902
     16899     16897     16900     16903     16904     16906     16909     16910
     16904     16906     16909     16911     16904     16906     16909     16913
     16905     16904     16906     16907     16905     16904     16906     16908
     16905     16904     16906     16909     16906     16909     16911     16912
     16906     16909     16913     16914     16906     16909     16913     16915
     16906     16909     16913     16916     16907     16906     16909     16910
     16907     16906     16909     16911     16907     16906     16909     16913
     16908     16906     16909     16910     16908     16906     16909     16911
     16908     16906     16909     16913     16909     16913     16916     16917
     16909     16913     16916     16918     16909     16913     16916     16919
     16910     16909     16911     16912     16910     16909     16913     16914
     16910     16909     16913     16915     16910     16909     16913     16916
     16911     16909     16913     16914     16911     16909     16913     16915
     16911     16909     16913     16916     16912     16911     16909     16913
     16913     16916     16919     16920     16913     16916     16919     16921
     16913     16916     16919     16922     16914     16913     16916     16917
     16914     16913     16916     16918     16914     16913     16916     16919
     16915     16913     16916     16917     16915     16913     16916     16918
     16915     16913     16916     16919     16916     16919     16922     16923
     16916     16919     16922     16924     16916     16919     16922     16925
     16917     16916     16919     16920     16917     16916     16919     16921
     16917     16916     16919     16922     16918     16916     16919     16920
     16918     16916     16919     16921     16918     16916     16919     16922
     16919     16922     16925     16926     16919     16922     16925     16927
     16919     16922     16925     16928     16920     16919     16922     16923
     16920     16919     16922     16924     16920     16919     16922     16925
     16921     16919     16922     16923     16921     16919     16922     16924
     16921     16919     16922     16925     16922     16925     16928     16929
     16922     16925     16928     16930     16922     16925     16928     16931
     16923     16922     16925     16926     16923     16922     16925     16927
     16923     16922     16925     16928     16924     16922     16925     16926
     16924     16922     16925     16927     16924     16922     16925     16928
     16925     16928     16931     16932     16925     16928     16931     16933
     16925     16928     16931     16934     16926     16925     16928     16929
     16926     16925     16928     16930     16926     16925     16928     16931
     16927     16925     16928     16929     16927     16925     16928     16930
     16927     16925     16928     16931     16928     16931     16934     16935
     16928     16931     16934     16936     16928     16931     16934     16937
     16929     16928     16931     16932     16929     16928     16931     16933
     16929     16928     16931     16934     16930     16928     16931     16932
     16930     16928     16931     16933     16930     16928     16931     16934
     16931     16934     16937     16938     16931     16934     16937     16939
     16931     16934     16937     16940     16932     16931     16934     16935
     16932     16931     16934     16936     16932     16931     16934     16937
     16933     16931     16934     16935     16933     16931     16934     16936
     16933     16931     16934     16937     16934     16937     16940     16941
     16934     16937     16940     16942     16934     16937     16940     16943
     16935     16934     16937     16938     16935     16934     16937     16939
     16935     16934     16937     16940     16936     16934     16937     16938
     16936     16934     16937     16939     16936     16934     16937     16940
     16937     16940     16943     16944     16937     16940     16943     16945
     16937     16940     16943     16946     16938     16937     16940     16941
     16938     16937     16940     16942     16938     16937     16940     16943
     16939     16937     16940     16941     16939     16937     16940     16942
     16939     16937     16940     16943     16941     16940     16943     16944
     16941     16940     16943     16945     16941     16940     16943     16946
     16942     16940     16943     16944     16942     16940     16943     16945
     16942     16940     16943     16946     16947     16950     16953     16951
     16947     16950     16954     16955     16947     16950     16954     16956
     16947     16950     16954     16957     16948     16947     16950     16953
     16948     16947     16950     16954     16949     16947     16950     16953
     16949     16947     16950     16954     16950     16953     16951     16952
     16950     16953     16951     16960     16950     16953     16951     16963
     16950     16954     16957     16958     16950     16954     16957     16959
     16950     16954     16957     16960     16951     16953     16950     16954
     16951     16960     16957     16954     16951     16960     16957     16958
     16951     16960     16957     16959     16951     16960     16962     16999
     16951     16963     16965     16966     16951     16963     16967     16968
     16951     16963     16967     16969     16951     16963     16967     16970
     16952     16951     16960     16957     16952     16951     16960     16961
     16952     16951     16960     16962     16952     16951     16963     16964
     16952     16951     16963     16965     16952     16951     16963     16967
     16953     16950     16954     16955     16953     16950     16954     16956
     16953     16950     16954     16957     16953     16951     16960     16957
     16953     16951     16960     16961     16953     16951     16960     16962
     16953     16951     16963     16964     16953     16951     16963     16965
     16953     16951     16963     16967     16954     16957     16959     16975
     16954     16957     16960     16961     16954     16957     16960     16962
     16955     16954     16957     16958     16955     16954     16957     16959
     16955     16954     16957     16960     16956     16954     16957     16958
     16956     16954     16957     16959     16956     16954     16957     16960
     16957     16959     16975     16972     16957     16959     16975     16978
     16957     16959     16975     16979     16957     16960     16951     16963
     16957     16960     16962     16999     16958     16957     16959     16975
     16958     16957     16960     16961     16958     16957     16960     16962
     16959     16957     16960     16961     16959     16957     16960     16962
     16959     16975     16972     16973     16959     16975     16972     16974
     16959     16975     16978     16976     16959     16975     16979     16980
     16959     16975     16979     16981     16959     16975     16979     16982
     16960     16951     16963     16964     16960     16951     16963     16965
     16960     16951     16963     16967     16960     16957     16959     16975
     16960     16962     16999     17000     16960     16962     16999     17003
     16960     16962     16999     17004     16961     16960     16951     16963
     16961     16960     16962     16999     16962     16960     16951     16963
     16962     16999     17003     17001     16962     16999     17004     17005
     16962     16999     17004     17006     16962     16999     17004     17008
     16963     16967     16970     16971     16964     16963     16965     16966
     16964     16963     16967     16968     16964     16963     16967     16969
     16964     16963     16967     16970     16965     16963     16967     16968
     16965     16963     16967     16969     16965     16963     16967     16970
     16966     16965     16963     16967     16968     16967     16970     16971
     16969     16967     16970     16971     16972     16975     16978     16976
     16972     16975     16979     16980     16972     16975     16979     16981
     16972     16975     16979     16982     16973     16972     16975     16978
     16973     16972     16975     16979     16974     16972     16975     16978
     16974     16972     16975     16979     16975     16978     16976     16977
     16975     16978     16976     16986     16975     16978     16976     16990
     16975     16979     16982     16983     16975     16979     16982     16984
     16975     16979     16982     16986     16976     16978     16975     16979
     16976     16986     16982     16979     16976     16986     16982     16983
     16976     16986     16982     16984     16976     16986     16988     16989
     16976     16990     16992     16993     16976     16990     16994     16995
     16976     16990     16994     16996     16976     16990     16994     16997
     16977     16976     16986     16982     16977     16976     16986     16987
     16977     16976     16986     16988     16977     16976     16990     16991
     16977     16976     16990     16992     16977     16976     16990     16994
     16978     16975     16979     16980     16978     16975     16979     16981
     16978     16975     16979     16982     16978     16976     16986     16982
     16978     16976     16986     16987     16978     16976     16986     16988
     16978     16976     16990     16991     16978     16976     16990     16992
     16978     16976     16990     16994     16979     16982     16984     16985
     16979     16982     16986     16987     16979     16982     16986     16988
     16980     16979     16982     16983     16980     16979     16982     16984
     16980     16979     16982     16986     16981     16979     16982     16983
     16981     16979     16982     16984     16981     16979     16982     16986
     16982     16986     16976     16990     16982     16986     16988     16989
     16983     16982     16984     16985     16983     16982     16986     16987
     16983     16982     16986     16988     16984     16982     16986     16987
     16984     16982     16986     16988     16985     16984     16982     16986
     16986     16976     16990     16991     16986     16976     16990     16992
     16986     16976     16990     16994     16987     16986     16976     16990
     16987     16986     16988     16989     16988     16986     16976     16990
     16990     16994     16997     16998     16991     16990     16992     16993
     16991     16990     16994     16995     16991     16990     16994     16996
     16991     16990     16994     16997     16992     16990     16994     16995
     16992     16990     16994     16996     16992     16990     16994     16997
     16993     16992     16990     16994     16995     16994     16997     16998
     16996     16994     16997     16998     16999     17003     17001     17002
     16999     17003     17001     17011     16999     17003     17001     17018
     16999     17004     17006     17007     16999     17004     17008     17009
     16999     17004     17008     17010     16999     17004     17008     17011
     17000     16999     17003     17001     17000     16999     17004     17005
     17000     16999     17004     17006     17000     16999     17004     17008
     17001     17003     16999     17004     17001     17011     17008     17004
     17001     17011     17008     17009     17001     17011     17008     17010
     17001     17011     17013     17014     17001     17018     17020     17021
     17001     17018     17022     17023     17001     17018     17022     17024
     17001     17018     17022     17025     17002     17001     17011     17008
     17002     17001     17011     17012     17002     17001     17011     17013
     17002     17001     17018     17019     17002     17001     17018     17020
     17002     17001     17018     17022     17003     16999     17004     17005
     17003     16999     17004     17006     17003     16999     17004     17008
     17003     17001     17011     17008     17003     17001     17011     17012
     17003     17001     17011     17013     17003     17001     17018     17019
     17003     17001     17018     17020     17003     17001     17018     17022
     17004     17008     17010     17027     17004     17008     17011     17012
     17004     17008     17011     17013     17005     17004     17006     17007
     17005     17004     17008     17009     17005     17004     17008     17010
     17005     17004     17008     17011     17006     17004     17008     17009
     17006     17004     17008     17010     17006     17004     17008     17011
     17007     17006     17004     17008     17008     17010     17027     17028
     17008     17010     17027     17031     17008     17010     17027     17032
     17008     17011     17001     17018     17008     17011     17013     17014
     17009     17008     17010     17027     17009     17008     17011     17012
     17009     17008     17011     17013     17010     17008     17011     17012
     17010     17008     17011     17013     17010     17027     17031     17029
     17010     17027     17032     17033     17010     17027     17032     17034
     17010     17027     17032     17036     17011     17001     17018     17019
     17011     17001     17018     17020     17011     17001     17018     17022
     17011     17008     17010     17027     17011     17013     17014     17015
     17011     17013     17014     17016     17011     17013     17014     17017
     17012     17011     17001     17018     17012     17011     17013     17014
     17013     17011     17001     17018     17018     17022     17025     17026
     17019     17018     17020     17021     17019     17018     17022     17023
     17019     17018     17022     17024     17019     17018     17022     17025
     17020     17018     17022     17023     17020     17018     17022     17024
     17020     17018     17022     17025     17021     17020     17018     17022
     17023     17022     17025     17026     17024     17022     17025     17026
     17027     17031     17029     17030     17027     17031     17029     17039
     17027     17031     17029     17046     17027     17032     17034     17035
     17027     17032     17036     17037     17027     17032     17036     17038
     17027     17032     17036     17039     17028     17027     17031     17029
     17028     17027     17032     17033     17028     17027     17032     17034
     17028     17027     17032     17036     17029     17031     17027     17032
     17029     17039     17036     17032     17029     17039     17036     17037
     17029     17039     17036     17038     17029     17039     17041     17042
     17029     17046     17048     17049     17029     17046     17050     17051
     17029     17046     17050     17052     17029     17046     17050     17053
     17030     17029     17039     17036     17030     17029     17039     17040
     17030     17029     17039     17041     17030     17029     17046     17047
     17030     17029     17046     17048     17030     17029     17046     17050
     17031     17027     17032     17033     17031     17027     17032     17034
     17031     17027     17032     17036     17031     17029     17039     17036
     17031     17029     17039     17040     17031     17029     17039     17041
     17031     17029     17046     17047     17031     17029     17046     17048
     17031     17029     17046     17050     17032     17036     17038     17080
     17032     17036     17039     17040     17032     17036     17039     17041
     17033     17032     17034     17035     17033     17032     17036     17037
     17033     17032     17036     17038     17033     17032     17036     17039
     17034     17032     17036     17037     17034     17032     17036     17038
     17034     17032     17036     17039     17035     17034     17032     17036
     17036     17038     17080     17081     17036     17038     17080     17084
     17036     17038     17080     17085     17036     17039     17029     17046
     17036     17039     17041     17042     17037     17036     17038     17080
     17037     17036     17039     17040     17037     17036     17039     17041
     17038     17036     17039     17040     17038     17036     17039     17041
     17038     17080     17084     17082     17038     17080     17085     17086
     17038     17080     17085     17087     17038     17080     17085     17089
     17039     17029     17046     17047     17039     17029     17046     17048
     17039     17029     17046     17050     17039     17036     17038     17080
     17039     17041     17042     17043     17039     17041     17042     17044
     17039     17041     17042     17045     17040     17039     17029     17046
     17040     17039     17041     17042     17041     17039     17029     17046
     17046     17050     17053     17054     17047     17046     17048     17049
     17047     17046     17050     17051     17047     17046     17050     17052
     17047     17046     17050     17053     17048     17046     17050     17051
     17048     17046     17050     17052     17048     17046     17050     17053
     17049     17048     17046     17050     17050     17053     17054     17055
     17050     17053     17054     17058     17050     17053     17054     17059
     17051     17050     17053     17054     17052     17050     17053     17054
     17053     17054     17058     17056     17053     17054     17059     17060
     17053     17054     17059     17061     17053     17054     17059     17063
     17054     17058     17056     17057     17054     17058     17056     17067
     17054     17058     17056     17071     17054     17059     17061     17062
     17054     17059     17063     17064     17054     17059     17063     17065
     17054     17059     17063     17067     17055     17054     17058     17056
     17055     17054     17059     17060     17055     17054     17059     17061
     17055     17054     17059     17063     17056     17058     17054     17059
     17056     17067     17063     17059     17056     17067     17063     17064
     17056     17067     17063     17065     17056     17067     17069     17070
     17056     17071     17073     17074     17056     17071     17075     17076
     17056     17071     17075     17077     17056     17071     17075     17078
     17057     17056     17067     17063     17057     17056     17067     17068
     17057     17056     17067     17069     17057     17056     17071     17072
     17057     17056     17071     17073     17057     17056     17071     17075
     17058     17054     17059     17060     17058     17054     17059     17061
     17058     17054     17059     17063     17058     17056     17067     17063
     17058     17056     17067     17068     17058     17056     17067     17069
     17058     17056     17071     17072     17058     17056     17071     17073
     17058     17056     17071     17075     17059     17063     17065     17066
     17059     17063     17067     17068     17059     17063     17067     17069
     17060     17059     17061     17062     17060     17059     17063     17064
     17060     17059     17063     17065     17060     17059     17063     17067
     17061     17059     17063     17064     17061     17059     17063     17065
     17061     17059     17063     17067     17062     17061     17059     17063
     17063     17067     17056     17071     17063     17067     17069     17070
     17064     17063     17065     17066     17064     17063     17067     17068
     17064     17063     17067     17069     17065     17063     17067     17068
     17065     17063     17067     17069     17066     17065     17063     17067
     17067     17056     17071     17072     17067     17056     17071     17073
     17067     17056     17071     17075     17068     17067     17056     17071
     17068     17067     17069     17070     17069     17067     17056     17071
     17071     17075     17078     17079     17072     17071     17073     17074
     17072     17071     17075     17076     17072     17071     17075     17077
     17072     17071     17075     17078     17073     17071     17075     17076
     17073     17071     17075     17077     17073     17071     17075     17078
     17074     17073     17071     17075     17076     17075     17078     17079
     17077     17075     17078     17079     17080     17084     17082     17083
     17080     17084     17082     17092     17080     17084     17082     17096
     17080     17085     17087     17088     17080     17085     17089     17090
     17080     17085     17089     17091     17080     17085     17089     17092
     17081     17080     17084     17082     17081     17080     17085     17086
     17081     17080     17085     17087     17081     17080     17085     17089
     17082     17084     17080     17085     17082     17092     17089     17085
     17082     17092     17089     17090     17082     17092     17089     17091
     17082     17092     17094     17095     17082     17096     17099     17100
     17083     17082     17092     17089     17083     17082     17092     17093
     17083     17082     17092     17094     17083     17082     17096     17097
     17083     17082     17096     17098     17083     17082     17096     17099
     17084     17080     17085     17086     17084     17080     17085     17087
     17084     17080     17085     17089     17084     17082     17092     17089
     17084     17082     17092     17093     17084     17082     17092     17094
     17084     17082     17096     17097     17084     17082     17096     17098
     17084     17082     17096     17099     17085     17089     17091     17101
     17085     17089     17092     17093     17085     17089     17092     17094
     17086     17085     17087     17088     17086     17085     17089     17090
     17086     17085     17089     17091     17086     17085     17089     17092
     17087     17085     17089     17090     17087     17085     17089     17091
     17087     17085     17089     17092     17088     17087     17085     17089
     17089     17091     17101     17102     17089     17091     17101     17105
     17089     17091     17101     17106     17089     17092     17082     17096
     17089     17092     17094     17095     17090     17089     17091     17101
     17090     17089     17092     17093     17090     17089     17092     17094
     17091     17089     17092     17093     17091     17089     17092     17094
     17091     17101     17105     17103     17091     17101     17106     17107
     17091     17101     17106     17108     17091     17101     17106     17109
     17092     17082     17096     17097     17092     17082     17096     17098
     17092     17082     17096     17099     17092     17089     17091     17101
     17093     17092     17082     17096     17093     17092     17094     17095
     17094     17092     17082     17096     17097     17096     17099     17100
     17098     17096     17099     17100     17101     17105     17103     17104
     17101     17105     17103     17112     17101     17105     17103     17116
     17101     17106     17108     17121     17101     17106     17109     17110
     17101     17106     17109     17111     17101     17106     17109     17112
     17102     17101     17105     17103     17102     17101     17106     17107
     17102     17101     17106     17108     17102     17101     17106     17109
     17103     17105     17101     17106     17103     17112     17109     17106
     17103     17112     17109     17110     17103     17112     17109     17111
     17103     17112     17114     17115     17103     17116     17119     17120
     17104     17103     17112     17109     17104     17103     17112     17113
     17104     17103     17112     17114     17104     17103     17116     17117
     17104     17103     17116     17118     17104     17103     17116     17119
     17105     17101     17106     17107     17105     17101     17106     17108
     17105     17101     17106     17109     17105     17103     17112     17109
     17105     17103     17112     17113     17105     17103     17112     17114
     17105     17103     17116     17117     17105     17103     17116     17118
     17105     17103     17116     17119     17106     17108     17121     17122
     17106     17108     17121     17125     17106     17108     17121     17126
     17106     17109     17111     17164     17106     17109     17112     17113
     17106     17109     17112     17114     17107     17106     17108     17121
     17107     17106     17109     17110     17107     17106     17109     17111
     17107     17106     17109     17112     17108     17106     17109     17110
     17108     17106     17109     17111     17108     17106     17109     17112
     17108     17121     17125     17123     17108     17121     17126     17127
     17108     17121     17126     17128     17108     17121     17126     17129
     17109     17106     17108     17121     17109     17111     17164     17165
     17109     17111     17164     17168     17109     17111     17164     17169
     17109     17112     17103     17116     17109     17112     17114     17115
     17110     17109     17111     17164     17110     17109     17112     17113
     17110     17109     17112     17114     17111     17109     17112     17113
     17111     17109     17112     17114     17111     17164     17168     17166
     17111     17164     17169     17170     17111     17164     17169     17171
     17111     17164     17169     17173     17112     17103     17116     17117
     17112     17103     17116     17118     17112     17103     17116     17119
     17112     17109     17111     17164     17113     17112     17103     17116
     17113     17112     17114     17115     17114     17112     17103     17116
     17117     17116     17119     17120     17118     17116     17119     17120
     17121     17125     17123     17124     17121     17125     17123     17133
     17121     17125     17123     17137     17121     17126     17128     17142
     17121     17126     17129     17130     17121     17126     17129     17131
     17121     17126     17129     17133     17122     17121     17125     17123
     17122     17121     17126     17127     17122     17121     17126     17128
     17122     17121     17126     17129     17123     17125     17121     17126
     17123     17133     17129     17126     17123     17133     17129     17130
     17123     17133     17129     17131     17123     17133     17135     17136
     17123     17137     17140     17141     17124     17123     17133     17129
     17124     17123     17133     17134     17124     17123     17133     17135
     17124     17123     17137     17138     17124     17123     17137     17139
     17124     17123     17137     17140     17125     17121     17126     17127
     17125     17121     17126     17128     17125     17121     17126     17129
     17125     17123     17133     17129     17125     17123     17133     17134
     17125     17123     17133     17135     17125     17123     17137     17138
     17125     17123     17137     17139     17125     17123     17137     17140
     17126     17128     17142     17143     17126     17128     17142     17146
     17126     17128     17142     17147     17126     17129     17131     17132
     17126     17129     17133     17134     17126     17129     17133     17135
     17127     17126     17128     17142     17127     17126     17129     17130
     17127     17126     17129     17131     17127     17126     17129     17133
     17128     17126     17129     17130     17128     17126     17129     17131
     17128     17126     17129     17133     17128     17142     17146     17144
     17128     17142     17147     17148     17128     17142     17147     17149
     17128     17142     17147     17151     17129     17126     17128     17142
     17129     17133     17123     17137     17129     17133     17135     17136
     17130     17129     17131     17132     17130     17129     17133     17134
     17130     17129     17133     17135     17131     17129     17133     17134
     17131     17129     17133     17135     17132     17131     17129     17133
     17133     17123     17137     17138     17133     17123     17137     17139
     17133     17123     17137     17140     17134     17133     17123     17137
     17134     17133     17135     17136     17135     17133     17123     17137
     17138     17137     17140     17141     17139     17137     17140     17141
     17142     17146     17144     17145     17142     17146     17144     17155
     17142     17146     17144     17159     17142     17147     17149     17150
     17142     17147     17151     17152     17142     17147     17151     17153
     17142     17147     17151     17155     17143     17142     17146     17144
     17143     17142     17147     17148     17143     17142     17147     17149
     17143     17142     17147     17151     17144     17146     17142     17147
     17144     17155     17151     17147     17144     17155     17151     17152
     17144     17155     17151     17153     17144     17155     17157     17158
     17144     17159     17162     17163     17145     17144     17155     17151
     17145     17144     17155     17156     17145     17144     17155     17157
     17145     17144     17159     17160     17145     17144     17159     17161
     17145     17144     17159     17162     17146     17142     17147     17148
     17146     17142     17147     17149     17146     17142     17147     17151
     17146     17144     17155     17151     17146     17144     17155     17156
     17146     17144     17155     17157     17146     17144     17159     17160
     17146     17144     17159     17161     17146     17144     17159     17162
     17147     17151     17153     17154     17147     17151     17155     17156
     17147     17151     17155     17157     17148     17147     17149     17150
     17148     17147     17151     17152     17148     17147     17151     17153
     17148     17147     17151     17155     17149     17147     17151     17152
     17149     17147     17151     17153     17149     17147     17151     17155
     17150     17149     17147     17151     17151     17155     17144     17159
     17151     17155     17157     17158     17152     17151     17153     17154
     17152     17151     17155     17156     17152     17151     17155     17157
     17153     17151     17155     17156     17153     17151     17155     17157
     17154     17153     17151     17155     17155     17144     17159     17160
     17155     17144     17159     17161     17155     17144     17159     17162
     17156     17155     17144     17159     17156     17155     17157     17158
     17157     17155     17144     17159     17160     17159     17162     17163
     17161     17159     17162     17163     17164     17168     17166     17167
     17164     17168     17166     17176     17164     17168     17166     17180
     17164     17169     17171     17172     17164     17169     17173     17174
     17164     17169     17173     17175     17164     17169     17173     17176
     17165     17164     17168     17166     17165     17164     17169     17170
     17165     17164     17169     17171     17165     17164     17169     17173
     17166     17168     17164     17169     17166     17176     17173     17169
     17166     17176     17173     17174     17166     17176     17173     17175
     17166     17176     17178     17179     17166     17180     17183     17184
     17167     17166     17176     17173     17167     17166     17176     17177
     17167     17166     17176     17178     17167     17166     17180     17181
     17167     17166     17180     17182     17167     17166     17180     17183
     17168     17164     17169     17170     17168     17164     17169     17171
     17168     17164     17169     17173     17168     17166     17176     17173
     17168     17166     17176     17177     17168     17166     17176     17178
     17168     17166     17180     17181     17168     17166     17180     17182
     17168     17166     17180     17183     17169     17173     17175     17185
     17169     17173     17176     17177     17169     17173     17176     17178
     17170     17169     17171     17172     17170     17169     17173     17174
     17170     17169     17173     17175     17170     17169     17173     17176
     17171     17169     17173     17174     17171     17169     17173     17175
     17171     17169     17173     17176     17172     17171     17169     17173
     17173     17175     17185     17186     17173     17175     17185     17189
     17173     17175     17185     17190     17173     17176     17166     17180
     17173     17176     17178     17179     17174     17173     17175     17185
     17174     17173     17176     17177     17174     17173     17176     17178
     17175     17173     17176     17177     17175     17173     17176     17178
     17175     17185     17189     17187     17175     17185     17190     17191
     17175     17185     17190     17192     17175     17185     17190     17200
     17176     17166     17180     17181     17176     17166     17180     17182
     17176     17166     17180     17183     17176     17173     17175     17185
     17177     17176     17166     17180     17177     17176     17178     17179
     17178     17176     17166     17180     17181     17180     17183     17184
     17182     17180     17183     17184     17185     17189     17187     17188
     17185     17189     17187     17203     17185     17189     17187     17207
     17185     17190     17192     17193     17185     17190     17192     17194
     17185     17190     17200     17201     17185     17190     17200     17202
     17185     17190     17200     17203     17186     17185     17189     17187
     17186     17185     17190     17191     17186     17185     17190     17192
     17186     17185     17190     17200     17187     17189     17185     17190
     17187     17203     17200     17190     17187     17203     17200     17201
     17187     17203     17200     17202     17187     17203     17205     17206
     17187     17207     17210     17211     17188     17187     17203     17200
     17188     17187     17203     17204     17188     17187     17203     17205
     17188     17187     17207     17208     17188     17187     17207     17209
     17188     17187     17207     17210     17189     17185     17190     17191
     17189     17185     17190     17192     17189     17185     17190     17200
     17189     17187     17203     17200     17189     17187     17203     17204
     17189     17187     17203     17205     17189     17187     17207     17208
     17189     17187     17207     17209     17189     17187     17207     17210
     17190     17192     17194     17195     17190     17192     17194     17196
     17190     17200     17202     17212     17190     17200     17203     17204
     17190     17200     17203     17205     17191     17190     17192     17193
     17191     17190     17192     17194     17191     17190     17200     17201
     17191     17190     17200     17202     17191     17190     17200     17203
     17192     17190     17200     17201     17192     17190     17200     17202
     17192     17190     17200     17203     17192     17194     17196     17197
     17192     17194     17196     17198     17192     17194     17196     17199
     17193     17192     17190     17200     17193     17192     17194     17195
     17193     17192     17194     17196     17194     17192     17190     17200
     17195     17194     17196     17197     17195     17194     17196     17198
     17195     17194     17196     17199     17200     17202     17212     17213
     17200     17202     17212     17216     17200     17202     17212     17217
     17200     17203     17187     17207     17200     17203     17205     17206
     17201     17200     17202     17212     17201     17200     17203     17204
     17201     17200     17203     17205     17202     17200     17203     17204
     17202     17200     17203     17205     17202     17212     17216     17214
     17202     17212     17217     17218     17202     17212     17217     17219
     17202     17212     17217     17220     17203     17187     17207     17208
     17203     17187     17207     17209     17203     17187     17207     17210
     17203     17200     17202     17212     17204     17203     17187     17207
     17204     17203     17205     17206     17205     17203     17187     17207
     17208     17207     17210     17211     17209     17207     17210     17211
     17212     17216     17214     17215     17212     17216     17214     17224
     17212     17216     17214     17228     17212     17217     17219     17233
     17212     17217     17220     17221     17212     17217     17220     17222
     17212     17217     17220     17224     17213     17212     17216     17214
     17213     17212     17217     17218     17213     17212     17217     17219
     17213     17212     17217     17220     17214     17216     17212     17217
     17214     17224     17220     17217     17214     17224     17220     17221
     17214     17224     17220     17222     17214     17224     17226     17227
     17214     17228     17231     17232     17215     17214     17224     17220
     17215     17214     17224     17225     17215     17214     17224     17226
     17215     17214     17228     17229     17215     17214     17228     17230
     17215     17214     17228     17231     17216     17212     17217     17218
     17216     17212     17217     17219     17216     17212     17217     17220
     17216     17214     17224     17220     17216     17214     17224     17225
     17216     17214     17224     17226     17216     17214     17228     17229
     17216     17214     17228     17230     17216     17214     17228     17231
     17217     17219     17233     17234     17217     17219     17233     17237
     17217     17219     17233     17238     17217     17220     17222     17223
     17217     17220     17224     17225     17217     17220     17224     17226
     17218     17217     17219     17233     17218     17217     17220     17221
     17218     17217     17220     17222     17218     17217     17220     17224
     17219     17217     17220     17221     17219     17217     17220     17222
     17219     17217     17220     17224     17219     17233     17237     17235
     17219     17233     17238     17239     17219     17233     17238     17240
     17219     17233     17238     17241     17220     17217     17219     17233
     17220     17224     17214     17228     17220     17224     17226     17227
     17221     17220     17222     17223     17221     17220     17224     17225
     17221     17220     17224     17226     17222     17220     17224     17225
     17222     17220     17224     17226     17223     17222     17220     17224
     17224     17214     17228     17229     17224     17214     17228     17230
     17224     17214     17228     17231     17225     17224     17214     17228
     17225     17224     17226     17227     17226     17224     17214     17228
     17229     17228     17231     17232     17230     17228     17231     17232
     17233     17237     17235     17236     17233     17237     17235     17245
     17233     17237     17235     17249     17233     17238     17240     17253
     17233     17238     17241     17242     17233     17238     17241     17243
     17233     17238     17241     17245     17234     17233     17237     17235
     17234     17233     17238     17239     17234     17233     17238     17240
     17234     17233     17238     17241     17235     17237     17233     17238
     17235     17245     17241     17238     17235     17245     17241     17242
     17235     17245     17241     17243     17235     17245     17247     17248
     17236     17235     17245     17241     17236     17235     17245     17246
     17236     17235     17245     17247     17236     17235     17249     17250
     17236     17235     17249     17251     17236     17235     17249     17252
     17237     17233     17238     17239     17237     17233     17238     17240
     17237     17233     17238     17241     17237     17235     17245     17241
     17237     17235     17245     17246     17237     17235     17245     17247
     17237     17235     17249     17250     17237     17235     17249     17251
     17237     17235     17249     17252     17238     17240     17253     17254
     17238     17240     17253     17257     17238     17240     17253     17258
     17238     17241     17243     17244     17238     17241     17245     17246
     17238     17241     17245     17247     17239     17238     17240     17253
     17239     17238     17241     17242     17239     17238     17241     17243
     17239     17238     17241     17245     17240     17238     17241     17242
     17240     17238     17241     17243     17240     17238     17241     17245
     17240     17253     17257     17255     17240     17253     17258     17259
     17240     17253     17258     17260     17240     17253     17258     17261
     17241     17238     17240     17253     17241     17245     17235     17249
     17241     17245     17247     17248     17242     17241     17243     17244
     17242     17241     17245     17246     17242     17241     17245     17247
     17243     17241     17245     17246     17243     17241     17245     17247
     17244     17243     17241     17245     17245     17235     17249     17250
     17245     17235     17249     17251     17245     17235     17249     17252
     17246     17245     17235     17249     17246     17245     17247     17248
     17247     17245     17235     17249     17253     17257     17255     17256
     17253     17257     17255     17264     17253     17257     17255     17268
     17253     17258     17260     17272     17253     17258     17261     17262
     17253     17258     17261     17263     17253     17258     17261     17264
     17254     17253     17257     17255     17254     17253     17258     17259
     17254     17253     17258     17260     17254     17253     17258     17261
     17255     17257     17253     17258     17255     17264     17261     17258
     17255     17264     17261     17262     17255     17264     17261     17263
     17255     17264     17266     17267     17256     17255     17264     17261
     17256     17255     17264     17265     17256     17255     17264     17266
     17256     17255     17268     17269     17256     17255     17268     17270
     17256     17255     17268     17271     17257     17253     17258     17259
     17257     17253     17258     17260     17257     17253     17258     17261
     17257     17255     17264     17261     17257     17255     17264     17265
     17257     17255     17264     17266     17257     17255     17268     17269
     17257     17255     17268     17270     17257     17255     17268     17271
     17258     17260     17272     17273     17258     17260     17272     17276
     17258     17260     17272     17277     17258     17261     17263     17300
     17258     17261     17264     17265     17258     17261     17264     17266
     17259     17258     17260     17272     17259     17258     17261     17262
     17259     17258     17261     17263     17259     17258     17261     17264
     17260     17258     17261     17262     17260     17258     17261     17263
     17260     17258     17261     17264     17260     17272     17276     17274
     17260     17272     17277     17278     17260     17272     17277     17279
     17260     17272     17277     17287     17261     17258     17260     17272
     17261     17263     17300     17301     17261     17263     17300     17304
     17261     17263     17300     17305     17261     17264     17255     17268
     17261     17264     17266     17267     17262     17261     17263     17300
     17262     17261     17264     17265     17262     17261     17264     17266
     17263     17261     17264     17265     17263     17261     17264     17266
     17263     17300     17304     17302     17263     17300     17305     17306
     17263     17300     17305     17307     17263     17300     17305     17315
     17264     17255     17268     17269     17264     17255     17268     17270
     17264     17255     17268     17271     17264     17261     17263     17300
     17265     17264     17255     17268     17265     17264     17266     17267
     17266     17264     17255     17268     17272     17276     17274     17275
     17272     17276     17274     17291     17272     17276     17274     17295
     17272     17277     17279     17280     17272     17277     17279     17281
     17272     17277     17287     17288     17272     17277     17287     17289
     17272     17277     17287     17291     17273     17272     17276     17274
     17273     17272     17277     17278     17273     17272     17277     17279
     17273     17272     17277     17287     17274     17276     17272     17277
     17274     17291     17287     17277     17274     17291     17287     17288
     17274     17291     17287     17289     17274     17291     17293     17294
     17274     17295     17298     17299     17275     17274     17291     17287
     17275     17274     17291     17292     17275     17274     17291     17293
     17275     17274     17295     17296     17275     17274     17295     17297
     17275     17274     17295     17298     17276     17272     17277     17278
     17276     17272     17277     17279     17276     17272     17277     17287
     17276     17274     17291     17287     17276     17274     17291     17292
     17276     17274     17291     17293     17276     17274     17295     17296
     17276     17274     17295     17297     17276     17274     17295     17298
     17277     17279     17281     17282     17277     17279     17281     17283
     17277     17287     17289     17290     17277     17287     17291     17292
     17277     17287     17291     17293     17278     17277     17279     17280
     17278     17277     17279     17281     17278     17277     17287     17288
     17278     17277     17287     17289     17278     17277     17287     17291
     17279     17277     17287     17288     17279     17277     17287     17289
     17279     17277     17287     17291     17279     17281     17283     17284
     17279     17281     17283     17285     17279     17281     17283     17286
     17280     17279     17277     17287     17280     17279     17281     17282
     17280     17279     17281     17283     17281     17279     17277     17287
     17282     17281     17283     17284     17282     17281     17283     17285
     17282     17281     17283     17286     17287     17291     17274     17295
     17287     17291     17293     17294     17288     17287     17289     17290
     17288     17287     17291     17292     17288     17287     17291     17293
     17289     17287     17291     17292     17289     17287     17291     17293
     17290     17289     17287     17291     17291     17274     17295     17296
     17291     17274     17295     17297     17291     17274     17295     17298
     17292     17291     17274     17295     17292     17291     17293     17294
     17293     17291     17274     17295     17296     17295     17298     17299
     17297     17295     17298     17299     17300     17304     17302     17303
     17300     17304     17302     17318     17300     17304     17302     17322
     17300     17305     17307     17308     17300     17305     17307     17309
     17300     17305     17315     17316     17300     17305     17315     17317
     17300     17305     17315     17318     17301     17300     17304     17302
     17301     17300     17305     17306     17301     17300     17305     17307
     17301     17300     17305     17315     17302     17304     17300     17305
     17302     17318     17315     17305     17302     17318     17315     17316
     17302     17318     17315     17317     17302     17318     17320     17321
     17302     17322     17325     17326     17303     17302     17318     17315
     17303     17302     17318     17319     17303     17302     17318     17320
     17303     17302     17322     17323     17303     17302     17322     17324
     17303     17302     17322     17325     17304     17300     17305     17306
     17304     17300     17305     17307     17304     17300     17305     17315
     17304     17302     17318     17315     17304     17302     17318     17319
     17304     17302     17318     17320     17304     17302     17322     17323
     17304     17302     17322     17324     17304     17302     17322     17325
     17305     17307     17309     17310     17305     17307     17309     17311
     17305     17315     17317     17327     17305     17315     17318     17319
     17305     17315     17318     17320     17306     17305     17307     17308
     17306     17305     17307     17309     17306     17305     17315     17316
     17306     17305     17315     17317     17306     17305     17315     17318
     17307     17305     17315     17316     17307     17305     17315     17317
     17307     17305     17315     17318     17307     17309     17311     17312
     17307     17309     17311     17313     17307     17309     17311     17314
     17308     17307     17305     17315     17308     17307     17309     17310
     17308     17307     17309     17311     17309     17307     17305     17315
     17310     17309     17311     17312     17310     17309     17311     17313
     17310     17309     17311     17314     17315     17317     17327     17328
     17315     17317     17327     17331     17315     17317     17327     17332
     17315     17318     17302     17322     17315     17318     17320     17321
     17316     17315     17317     17327     17316     17315     17318     17319
     17316     17315     17318     17320     17317     17315     17318     17319
     17317     17315     17318     17320     17317     17327     17331     17329
     17317     17327     17332     17333     17317     17327     17332     17334
     17317     17327     17332     17335     17318     17302     17322     17323
     17318     17302     17322     17324     17318     17302     17322     17325
     17318     17315     17317     17327     17319     17318     17302     17322
     17319     17318     17320     17321     17320     17318     17302     17322
     17323     17322     17325     17326     17324     17322     17325     17326
     17327     17331     17329     17330     17327     17331     17329     17339
     17327     17331     17329     17343     17327     17332     17334     17348
     17327     17332     17335     17336     17327     17332     17335     17337
     17327     17332     17335     17339     17328     17327     17331     17329
     17328     17327     17332     17333     17328     17327     17332     17334
     17328     17327     17332     17335     17329     17331     17327     17332
     17329     17339     17335     17332     17329     17339     17335     17336
     17329     17339     17335     17337     17329     17339     17341     17342
     17329     17343     17346     17347     17330     17329     17339     17335
     17330     17329     17339     17340     17330     17329     17339     17341
     17330     17329     17343     17344     17330     17329     17343     17345
     17330     17329     17343     17346     17331     17327     17332     17333
     17331     17327     17332     17334     17331     17327     17332     17335
     17331     17329     17339     17335     17331     17329     17339     17340
     17331     17329     17339     17341     17331     17329     17343     17344
     17331     17329     17343     17345     17331     17329     17343     17346
     17332     17334     17348     17349     17332     17334     17348     17352
     17332     17334     17348     17353     17332     17335     17337     17338
     17332     17335     17339     17340     17332     17335     17339     17341
     17333     17332     17334     17348     17333     17332     17335     17336
     17333     17332     17335     17337     17333     17332     17335     17339
     17334     17332     17335     17336     17334     17332     17335     17337
     17334     17332     17335     17339     17334     17348     17352     17350
     17334     17348     17353     17354     17334     17348     17353     17355
     17334     17348     17353     17356     17335     17332     17334     17348
     17335     17339     17329     17343     17335     17339     17341     17342
     17336     17335     17337     17338     17336     17335     17339     17340
     17336     17335     17339     17341     17337     17335     17339     17340
     17337     17335     17339     17341     17338     17337     17335     17339
     17339     17329     17343     17344     17339     17329     17343     17345
     17339     17329     17343     17346     17340     17339     17329     17343
     17340     17339     17341     17342     17341     17339     17329     17343
     17344     17343     17346     17347     17345     17343     17346     17347
     17348     17352     17350     17351     17348     17352     17350     17360
     17348     17352     17350     17364     17348     17353     17355     17368
     17348     17353     17356     17357     17348     17353     17356     17358
     17348     17353     17356     17360     17349     17348     17352     17350
     17349     17348     17353     17354     17349     17348     17353     17355
     17349     17348     17353     17356     17350     17352     17348     17353
     17350     17360     17356     17353     17350     17360     17356     17357
     17350     17360     17356     17358     17350     17360     17362     17363
     17351     17350     17360     17356     17351     17350     17360     17361
     17351     17350     17360     17362     17351     17350     17364     17365
     17351     17350     17364     17366     17351     17350     17364     17367
     17352     17348     17353     17354     17352     17348     17353     17355
     17352     17348     17353     17356     17352     17350     17360     17356
     17352     17350     17360     17361     17352     17350     17360     17362
     17352     17350     17364     17365     17352     17350     17364     17366
     17352     17350     17364     17367     17353     17355     17368     17369
     17353     17355     17368     17372     17353     17355     17368     17373
     17353     17356     17358     17359     17353     17356     17360     17361
     17353     17356     17360     17362     17354     17353     17355     17368
     17354     17353     17356     17357     17354     17353     17356     17358
     17354     17353     17356     17360     17355     17353     17356     17357
     17355     17353     17356     17358     17355     17353     17356     17360
     17355     17368     17372     17370     17355     17368     17373     17374
     17355     17368     17373     17375     17355     17368     17373     17376
     17356     17353     17355     17368     17356     17360     17350     17364
     17356     17360     17362     17363     17357     17356     17358     17359
     17357     17356     17360     17361     17357     17356     17360     17362
     17358     17356     17360     17361     17358     17356     17360     17362
     17359     17358     17356     17360     17360     17350     17364     17365
     17360     17350     17364     17366     17360     17350     17364     17367
     17361     17360     17350     17364     17361     17360     17362     17363
     17362     17360     17350     17364     17368     17372     17370     17371
     17368     17372     17370     17379     17368     17372     17370     17383
     17368     17373     17375     17387     17368     17373     17376     17377
     17368     17373     17376     17378     17368     17373     17376     17379
     17369     17368     17372     17370     17369     17368     17373     17374
     17369     17368     17373     17375     17369     17368     17373     17376
     17370     17372     17368     17373     17370     17379     17376     17373
     17370     17379     17376     17377     17370     17379     17376     17378
     17370     17379     17381     17382     17371     17370     17379     17376
     17371     17370     17379     17380     17371     17370     17379     17381
     17371     17370     17383     17384     17371     17370     17383     17385
     17371     17370     17383     17386     17372     17368     17373     17374
     17372     17368     17373     17375     17372     17368     17373     17376
     17372     17370     17379     17376     17372     17370     17379     17380
     17372     17370     17379     17381     17372     17370     17383     17384
     17372     17370     17383     17385     17372     17370     17383     17386
     17373     17375     17387     17388     17373     17375     17387     17391
     17373     17375     17387     17392     17373     17376     17378     17415
     17373     17376     17379     17380     17373     17376     17379     17381
     17374     17373     17375     17387     17374     17373     17376     17377
     17374     17373     17376     17378     17374     17373     17376     17379
     17375     17373     17376     17377     17375     17373     17376     17378
     17375     17373     17376     17379     17375     17387     17391     17389
     17375     17387     17392     17393     17375     17387     17392     17394
     17375     17387     17392     17402     17376     17373     17375     17387
     17376     17378     17415     17416     17376     17378     17415     17419
     17376     17378     17415     17420     17376     17379     17370     17383
     17376     17379     17381     17382     17377     17376     17378     17415
     17377     17376     17379     17380     17377     17376     17379     17381
     17378     17376     17379     17380     17378     17376     17379     17381
     17378     17415     17419     17417     17378     17415     17420     17421
     17378     17415     17420     17422     17378     17415     17420     17430
     17379     17370     17383     17384     17379     17370     17383     17385
     17379     17370     17383     17386     17379     17376     17378     17415
     17380     17379     17370     17383     17380     17379     17381     17382
     17381     17379     17370     17383     17387     17391     17389     17390
     17387     17391     17389     17406     17387     17391     17389     17410
     17387     17392     17394     17395     17387     17392     17394     17396
     17387     17392     17402     17403     17387     17392     17402     17404
     17387     17392     17402     17406     17388     17387     17391     17389
     17388     17387     17392     17393     17388     17387     17392     17394
     17388     17387     17392     17402     17389     17391     17387     17392
     17389     17406     17402     17392     17389     17406     17402     17403
     17389     17406     17402     17404     17389     17406     17408     17409
     17389     17410     17413     17414     17390     17389     17406     17402
     17390     17389     17406     17407     17390     17389     17406     17408
     17390     17389     17410     17411     17390     17389     17410     17412
     17390     17389     17410     17413     17391     17387     17392     17393
     17391     17387     17392     17394     17391     17387     17392     17402
     17391     17389     17406     17402     17391     17389     17406     17407
     17391     17389     17406     17408     17391     17389     17410     17411
     17391     17389     17410     17412     17391     17389     17410     17413
     17392     17394     17396     17397     17392     17394     17396     17398
     17392     17402     17404     17405     17392     17402     17406     17407
     17392     17402     17406     17408     17393     17392     17394     17395
     17393     17392     17394     17396     17393     17392     17402     17403
     17393     17392     17402     17404     17393     17392     17402     17406
     17394     17392     17402     17403     17394     17392     17402     17404
     17394     17392     17402     17406     17394     17396     17398     17399
     17394     17396     17398     17400     17394     17396     17398     17401
     17395     17394     17392     17402     17395     17394     17396     17397
     17395     17394     17396     17398     17396     17394     17392     17402
     17397     17396     17398     17399     17397     17396     17398     17400
     17397     17396     17398     17401     17402     17406     17389     17410
     17402     17406     17408     17409     17403     17402     17404     17405
     17403     17402     17406     17407     17403     17402     17406     17408
     17404     17402     17406     17407     17404     17402     17406     17408
     17405     17404     17402     17406     17406     17389     17410     17411
     17406     17389     17410     17412     17406     17389     17410     17413
     17407     17406     17389     17410     17407     17406     17408     17409
     17408     17406     17389     17410     17411     17410     17413     17414
     17412     17410     17413     17414     17415     17419     17417     17418
     17415     17419     17417     17433     17415     17419     17417     17437
     17415     17420     17422     17423     17415     17420     17422     17424
     17415     17420     17430     17431     17415     17420     17430     17432
     17415     17420     17430     17433     17416     17415     17419     17417
     17416     17415     17420     17421     17416     17415     17420     17422
     17416     17415     17420     17430     17417     17419     17415     17420
     17417     17433     17430     17420     17417     17433     17430     17431
     17417     17433     17430     17432     17417     17433     17435     17436
     17417     17437     17440     17441     17418     17417     17433     17430
     17418     17417     17433     17434     17418     17417     17433     17435
     17418     17417     17437     17438     17418     17417     17437     17439
     17418     17417     17437     17440     17419     17415     17420     17421
     17419     17415     17420     17422     17419     17415     17420     17430
     17419     17417     17433     17430     17419     17417     17433     17434
     17419     17417     17433     17435     17419     17417     17437     17438
     17419     17417     17437     17439     17419     17417     17437     17440
     17420     17422     17424     17425     17420     17422     17424     17426
     17420     17430     17432     17442     17420     17430     17433     17434
     17420     17430     17433     17435     17421     17420     17422     17423
     17421     17420     17422     17424     17421     17420     17430     17431
     17421     17420     17430     17432     17421     17420     17430     17433
     17422     17420     17430     17431     17422     17420     17430     17432
     17422     17420     17430     17433     17422     17424     17426     17427
     17422     17424     17426     17428     17422     17424     17426     17429
     17423     17422     17420     17430     17423     17422     17424     17425
     17423     17422     17424     17426     17424     17422     17420     17430
     17425     17424     17426     17427     17425     17424     17426     17428
     17425     17424     17426     17429     17430     17432     17442     17443
     17430     17432     17442     17446     17430     17432     17442     17447
     17430     17433     17417     17437     17430     17433     17435     17436
     17431     17430     17432     17442     17431     17430     17433     17434
     17431     17430     17433     17435     17432     17430     17433     17434
     17432     17430     17433     17435     17432     17442     17446     17444
     17432     17442     17447     17448     17432     17442     17447     17449
     17432     17442     17447     17450     17433     17417     17437     17438
     17433     17417     17437     17439     17433     17417     17437     17440
     17433     17430     17432     17442     17434     17433     17417     17437
     17434     17433     17435     17436     17435     17433     17417     17437
     17438     17437     17440     17441     17439     17437     17440     17441
     17442     17446     17444     17445     17442     17446     17444     17454
     17442     17446     17444     17458     17442     17447     17449     17463
     17442     17447     17450     17451     17442     17447     17450     17452
     17442     17447     17450     17454     17443     17442     17446     17444
     17443     17442     17447     17448     17443     17442     17447     17449
     17443     17442     17447     17450     17444     17446     17442     17447
     17444     17454     17450     17447     17444     17454     17450     17451
     17444     17454     17450     17452     17444     17454     17456     17457
     17444     17458     17461     17462     17445     17444     17454     17450
     17445     17444     17454     17455     17445     17444     17454     17456
     17445     17444     17458     17459     17445     17444     17458     17460
     17445     17444     17458     17461     17446     17442     17447     17448
     17446     17442     17447     17449     17446     17442     17447     17450
     17446     17444     17454     17450     17446     17444     17454     17455
     17446     17444     17454     17456     17446     17444     17458     17459
     17446     17444     17458     17460     17446     17444     17458     17461
     17447     17449     17463     17464     17447     17449     17463     17467
     17447     17449     17463     17468     17447     17450     17452     17453
     17447     17450     17454     17455     17447     17450     17454     17456
     17448     17447     17449     17463     17448     17447     17450     17451
     17448     17447     17450     17452     17448     17447     17450     17454
     17449     17447     17450     17451     17449     17447     17450     17452
     17449     17447     17450     17454     17449     17463     17467     17465
     17449     17463     17468     17469     17449     17463     17468     17470
     17449     17463     17468     17471     17450     17447     17449     17463
     17450     17454     17444     17458     17450     17454     17456     17457
     17451     17450     17452     17453     17451     17450     17454     17455
     17451     17450     17454     17456     17452     17450     17454     17455
     17452     17450     17454     17456     17453     17452     17450     17454
     17454     17444     17458     17459     17454     17444     17458     17460
     17454     17444     17458     17461     17455     17454     17444     17458
     17455     17454     17456     17457     17456     17454     17444     17458
     17459     17458     17461     17462     17460     17458     17461     17462
     17463     17467     17465     17466     17463     17467     17465     17475
     17463     17467     17465     17479     17463     17468     17470     17483
     17463     17468     17471     17472     17463     17468     17471     17473
     17463     17468     17471     17475     17464     17463     17467     17465
     17464     17463     17468     17469     17464     17463     17468     17470
     17464     17463     17468     17471     17465     17467     17463     17468
     17465     17475     17471     17468     17465     17475     17471     17472
     17465     17475     17471     17473     17465     17475     17477     17478
     17466     17465     17475     17471     17466     17465     17475     17476
     17466     17465     17475     17477     17466     17465     17479     17480
     17466     17465     17479     17481     17466     17465     17479     17482
     17467     17463     17468     17469     17467     17463     17468     17470
     17467     17463     17468     17471     17467     17465     17475     17471
     17467     17465     17475     17476     17467     17465     17475     17477
     17467     17465     17479     17480     17467     17465     17479     17481
     17467     17465     17479     17482     17468     17470     17483     17484
     17468     17470     17483     17487     17468     17470     17483     17488
     17468     17471     17473     17474     17468     17471     17475     17476
     17468     17471     17475     17477     17469     17468     17470     17483
     17469     17468     17471     17472     17469     17468     17471     17473
     17469     17468     17471     17475     17470     17468     17471     17472
     17470     17468     17471     17473     17470     17468     17471     17475
     17470     17483     17487     17485     17470     17483     17488     17489
     17470     17483     17488     17490     17470     17483     17488     17491
     17471     17468     17470     17483     17471     17475     17465     17479
     17471     17475     17477     17478     17472     17471     17473     17474
     17472     17471     17475     17476     17472     17471     17475     17477
     17473     17471     17475     17476     17473     17471     17475     17477
     17474     17473     17471     17475     17475     17465     17479     17480
     17475     17465     17479     17481     17475     17465     17479     17482
     17476     17475     17465     17479     17476     17475     17477     17478
     17477     17475     17465     17479     17483     17487     17485     17486
     17483     17487     17485     17494     17483     17487     17485     17498
     17483     17488     17490     17502     17483     17488     17491     17492
     17483     17488     17491     17493     17483     17488     17491     17494
     17484     17483     17487     17485     17484     17483     17488     17489
     17484     17483     17488     17490     17484     17483     17488     17491
     17485     17487     17483     17488     17485     17494     17491     17488
     17485     17494     17491     17492     17485     17494     17491     17493
     17485     17494     17496     17497     17486     17485     17494     17491
     17486     17485     17494     17495     17486     17485     17494     17496
     17486     17485     17498     17499     17486     17485     17498     17500
     17486     17485     17498     17501     17487     17483     17488     17489
     17487     17483     17488     17490     17487     17483     17488     17491
     17487     17485     17494     17491     17487     17485     17494     17495
     17487     17485     17494     17496     17487     17485     17498     17499
     17487     17485     17498     17500     17487     17485     17498     17501
     17488     17490     17502     17503     17488     17490     17502     17506
     17488     17490     17502     17507     17488     17491     17493     17530
     17488     17491     17494     17495     17488     17491     17494     17496
     17489     17488     17490     17502     17489     17488     17491     17492
     17489     17488     17491     17493     17489     17488     17491     17494
     17490     17488     17491     17492     17490     17488     17491     17493
     17490     17488     17491     17494     17490     17502     17506     17504
     17490     17502     17507     17508     17490     17502     17507     17509
     17490     17502     17507     17517     17491     17488     17490     17502
     17491     17493     17530     17531     17491     17493     17530     17534
     17491     17493     17530     17535     17491     17494     17485     17498
     17491     17494     17496     17497     17492     17491     17493     17530
     17492     17491     17494     17495     17492     17491     17494     17496
     17493     17491     17494     17495     17493     17491     17494     17496
     17493     17530     17534     17532     17493     17530     17535     17536
     17493     17530     17535     17537     17493     17530     17535     17545
     17494     17485     17498     17499     17494     17485     17498     17500
     17494     17485     17498     17501     17494     17491     17493     17530
     17495     17494     17485     17498     17495     17494     17496     17497
     17496     17494     17485     17498     17502     17506     17504     17505
     17502     17506     17504     17521     17502     17506     17504     17525
     17502     17507     17509     17510     17502     17507     17509     17511
     17502     17507     17517     17518     17502     17507     17517     17519
     17502     17507     17517     17521     17503     17502     17506     17504
     17503     17502     17507     17508     17503     17502     17507     17509
     17503     17502     17507     17517     17504     17506     17502     17507
     17504     17521     17517     17507     17504     17521     17517     17518
     17504     17521     17517     17519     17504     17521     17523     17524
     17504     17525     17528     17529     17505     17504     17521     17517
     17505     17504     17521     17522     17505     17504     17521     17523
     17505     17504     17525     17526     17505     17504     17525     17527
     17505     17504     17525     17528     17506     17502     17507     17508
     17506     17502     17507     17509     17506     17502     17507     17517
     17506     17504     17521     17517     17506     17504     17521     17522
     17506     17504     17521     17523     17506     17504     17525     17526
     17506     17504     17525     17527     17506     17504     17525     17528
     17507     17509     17511     17512     17507     17509     17511     17513
     17507     17517     17519     17520     17507     17517     17521     17522
     17507     17517     17521     17523     17508     17507     17509     17510
     17508     17507     17509     17511     17508     17507     17517     17518
     17508     17507     17517     17519     17508     17507     17517     17521
     17509     17507     17517     17518     17509     17507     17517     17519
     17509     17507     17517     17521     17509     17511     17513     17514
     17509     17511     17513     17515     17509     17511     17513     17516
     17510     17509     17507     17517     17510     17509     17511     17512
     17510     17509     17511     17513     17511     17509     17507     17517
     17512     17511     17513     17514     17512     17511     17513     17515
     17512     17511     17513     17516     17517     17521     17504     17525
     17517     17521     17523     17524     17518     17517     17519     17520
     17518     17517     17521     17522     17518     17517     17521     17523
     17519     17517     17521     17522     17519     17517     17521     17523
     17520     17519     17517     17521     17521     17504     17525     17526
     17521     17504     17525     17527     17521     17504     17525     17528
     17522     17521     17504     17525     17522     17521     17523     17524
     17523     17521     17504     17525     17526     17525     17528     17529
     17527     17525     17528     17529     17530     17534     17532     17533
     17530     17534     17532     17548     17530     17534     17532     17552
     17530     17535     17537     17538     17530     17535     17537     17539
     17530     17535     17545     17546     17530     17535     17545     17547
     17530     17535     17545     17548     17531     17530     17534     17532
     17531     17530     17535     17536     17531     17530     17535     17537
     17531     17530     17535     17545     17532     17534     17530     17535
     17532     17548     17545     17535     17532     17548     17545     17546
     17532     17548     17545     17547     17532     17548     17550     17551
     17532     17552     17555     17556     17533     17532     17548     17545
     17533     17532     17548     17549     17533     17532     17548     17550
     17533     17532     17552     17553     17533     17532     17552     17554
     17533     17532     17552     17555     17534     17530     17535     17536
     17534     17530     17535     17537     17534     17530     17535     17545
     17534     17532     17548     17545     17534     17532     17548     17549
     17534     17532     17548     17550     17534     17532     17552     17553
     17534     17532     17552     17554     17534     17532     17552     17555
     17535     17537     17539     17540     17535     17537     17539     17541
     17535     17545     17547     17557     17535     17545     17548     17549
     17535     17545     17548     17550     17536     17535     17537     17538
     17536     17535     17537     17539     17536     17535     17545     17546
     17536     17535     17545     17547     17536     17535     17545     17548
     17537     17535     17545     17546     17537     17535     17545     17547
     17537     17535     17545     17548     17537     17539     17541     17542
     17537     17539     17541     17543     17537     17539     17541     17544
     17538     17537     17535     17545     17538     17537     17539     17540
     17538     17537     17539     17541     17539     17537     17535     17545
     17540     17539     17541     17542     17540     17539     17541     17543
     17540     17539     17541     17544     17545     17547     17557     17558
     17545     17547     17557     17561     17545     17547     17557     17562
     17545     17548     17532     17552     17545     17548     17550     17551
     17546     17545     17547     17557     17546     17545     17548     17549
     17546     17545     17548     17550     17547     17545     17548     17549
     17547     17545     17548     17550     17547     17557     17561     17559
     17547     17557     17562     17563     17547     17557     17562     17564
     17547     17557     17562     17565     17548     17532     17552     17553
     17548     17532     17552     17554     17548     17532     17552     17555
     17548     17545     17547     17557     17549     17548     17532     17552
     17549     17548     17550     17551     17550     17548     17532     17552
     17553     17552     17555     17556     17554     17552     17555     17556
     17557     17561     17559     17560     17557     17561     17559     17569
     17557     17561     17559     17573     17557     17562     17564     17578
     17557     17562     17565     17566     17557     17562     17565     17567
     17557     17562     17565     17569     17558     17557     17561     17559
     17558     17557     17562     17563     17558     17557     17562     17564
     17558     17557     17562     17565     17559     17561     17557     17562
     17559     17569     17565     17562     17559     17569     17565     17566
     17559     17569     17565     17567     17559     17569     17571     17572
     17559     17573     17576     17577     17560     17559     17569     17565
     17560     17559     17569     17570     17560     17559     17569     17571
     17560     17559     17573     17574     17560     17559     17573     17575
     17560     17559     17573     17576     17561     17557     17562     17563
     17561     17557     17562     17564     17561     17557     17562     17565
     17561     17559     17569     17565     17561     17559     17569     17570
     17561     17559     17569     17571     17561     17559     17573     17574
     17561     17559     17573     17575     17561     17559     17573     17576
     17562     17564     17578     17579     17562     17564     17578     17582
     17562     17564     17578     17583     17562     17565     17567     17568
     17562     17565     17569     17570     17562     17565     17569     17571
     17563     17562     17564     17578     17563     17562     17565     17566
     17563     17562     17565     17567     17563     17562     17565     17569
     17564     17562     17565     17566     17564     17562     17565     17567
     17564     17562     17565     17569     17564     17578     17582     17580
     17564     17578     17583     17584     17564     17578     17583     17585
     17564     17578     17583     17586     17565     17562     17564     17578
     17565     17569     17559     17573     17565     17569     17571     17572
     17566     17565     17567     17568     17566     17565     17569     17570
     17566     17565     17569     17571     17567     17565     17569     17570
     17567     17565     17569     17571     17568     17567     17565     17569
     17569     17559     17573     17574     17569     17559     17573     17575
     17569     17559     17573     17576     17570     17569     17559     17573
     17570     17569     17571     17572     17571     17569     17559     17573
     17574     17573     17576     17577     17575     17573     17576     17577
     17578     17582     17580     17581     17578     17582     17580     17590
     17578     17582     17580     17594     17578     17583     17585     17598
     17578     17583     17586     17587     17578     17583     17586     17588
     17578     17583     17586     17590     17579     17578     17582     17580
     17579     17578     17583     17584     17579     17578     17583     17585
     17579     17578     17583     17586     17580     17582     17578     17583
     17580     17590     17586     17583     17580     17590     17586     17587
     17580     17590     17586     17588     17580     17590     17592     17593
     17581     17580     17590     17586     17581     17580     17590     17591
     17581     17580     17590     17592     17581     17580     17594     17595
     17581     17580     17594     17596     17581     17580     17594     17597
     17582     17578     17583     17584     17582     17578     17583     17585
     17582     17578     17583     17586     17582     17580     17590     17586
     17582     17580     17590     17591     17582     17580     17590     17592
     17582     17580     17594     17595     17582     17580     17594     17596
     17582     17580     17594     17597     17583     17585     17598     17599
     17583     17585     17598     17602     17583     17585     17598     17603
     17583     17586     17588     17589     17583     17586     17590     17591
     17583     17586     17590     17592     17584     17583     17585     17598
     17584     17583     17586     17587     17584     17583     17586     17588
     17584     17583     17586     17590     17585     17583     17586     17587
     17585     17583     17586     17588     17585     17583     17586     17590
     17585     17598     17602     17600     17585     17598     17603     17604
     17585     17598     17603     17605     17585     17598     17603     17606
     17586     17583     17585     17598     17586     17590     17580     17594
     17586     17590     17592     17593     17587     17586     17588     17589
     17587     17586     17590     17591     17587     17586     17590     17592
     17588     17586     17590     17591     17588     17586     17590     17592
     17589     17588     17586     17590     17590     17580     17594     17595
     17590     17580     17594     17596     17590     17580     17594     17597
     17591     17590     17580     17594     17591     17590     17592     17593
     17592     17590     17580     17594     17598     17602     17600     17601
     17598     17602     17600     17609     17598     17602     17600     17613
     17598     17603     17605     17617     17598     17603     17606     17607
     17598     17603     17606     17608     17598     17603     17606     17609
     17599     17598     17602     17600     17599     17598     17603     17604
     17599     17598     17603     17605     17599     17598     17603     17606
     17600     17602     17598     17603     17600     17609     17606     17603
     17600     17609     17606     17607     17600     17609     17606     17608
     17600     17609     17611     17612     17601     17600     17609     17606
     17601     17600     17609     17610     17601     17600     17609     17611
     17601     17600     17613     17614     17601     17600     17613     17615
     17601     17600     17613     17616     17602     17598     17603     17604
     17602     17598     17603     17605     17602     17598     17603     17606
     17602     17600     17609     17606     17602     17600     17609     17610
     17602     17600     17609     17611     17602     17600     17613     17614
     17602     17600     17613     17615     17602     17600     17613     17616
     17603     17605     17617     17618     17603     17605     17617     17621
     17603     17605     17617     17622     17603     17606     17608     17645
     17603     17606     17609     17610     17603     17606     17609     17611
     17604     17603     17605     17617     17604     17603     17606     17607
     17604     17603     17606     17608     17604     17603     17606     17609
     17605     17603     17606     17607     17605     17603     17606     17608
     17605     17603     17606     17609     17605     17617     17621     17619
     17605     17617     17622     17623     17605     17617     17622     17624
     17605     17617     17622     17632     17606     17603     17605     17617
     17606     17608     17645     17646     17606     17608     17645     17649
     17606     17608     17645     17650     17606     17609     17600     17613
     17606     17609     17611     17612     17607     17606     17608     17645
     17607     17606     17609     17610     17607     17606     17609     17611
     17608     17606     17609     17610     17608     17606     17609     17611
     17608     17645     17649     17647     17608     17645     17650     17651
     17608     17645     17650     17652     17608     17645     17650     17660
     17609     17600     17613     17614     17609     17600     17613     17615
     17609     17600     17613     17616     17609     17606     17608     17645
     17610     17609     17600     17613     17610     17609     17611     17612
     17611     17609     17600     17613     17617     17621     17619     17620
     17617     17621     17619     17636     17617     17621     17619     17640
     17617     17622     17624     17625     17617     17622     17624     17626
     17617     17622     17632     17633     17617     17622     17632     17634
     17617     17622     17632     17636     17618     17617     17621     17619
     17618     17617     17622     17623     17618     17617     17622     17624
     17618     17617     17622     17632     17619     17621     17617     17622
     17619     17636     17632     17622     17619     17636     17632     17633
     17619     17636     17632     17634     17619     17636     17638     17639
     17619     17640     17643     17644     17620     17619     17636     17632
     17620     17619     17636     17637     17620     17619     17636     17638
     17620     17619     17640     17641     17620     17619     17640     17642
     17620     17619     17640     17643     17621     17617     17622     17623
     17621     17617     17622     17624     17621     17617     17622     17632
     17621     17619     17636     17632     17621     17619     17636     17637
     17621     17619     17636     17638     17621     17619     17640     17641
     17621     17619     17640     17642     17621     17619     17640     17643
     17622     17624     17626     17627     17622     17624     17626     17628
     17622     17632     17634     17635     17622     17632     17636     17637
     17622     17632     17636     17638     17623     17622     17624     17625
     17623     17622     17624     17626     17623     17622     17632     17633
     17623     17622     17632     17634     17623     17622     17632     17636
     17624     17622     17632     17633     17624     17622     17632     17634
     17624     17622     17632     17636     17624     17626     17628     17629
     17624     17626     17628     17630     17624     17626     17628     17631
     17625     17624     17622     17632     17625     17624     17626     17627
     17625     17624     17626     17628     17626     17624     17622     17632
     17627     17626     17628     17629     17627     17626     17628     17630
     17627     17626     17628     17631     17632     17636     17619     17640
     17632     17636     17638     17639     17633     17632     17634     17635
     17633     17632     17636     17637     17633     17632     17636     17638
     17634     17632     17636     17637     17634     17632     17636     17638
     17635     17634     17632     17636     17636     17619     17640     17641
     17636     17619     17640     17642     17636     17619     17640     17643
     17637     17636     17619     17640     17637     17636     17638     17639
     17638     17636     17619     17640     17641     17640     17643     17644
     17642     17640     17643     17644     17645     17649     17647     17648
     17645     17649     17647     17663     17645     17649     17647     17667
     17645     17650     17652     17653     17645     17650     17652     17654
     17645     17650     17660     17661     17645     17650     17660     17662
     17645     17650     17660     17663     17646     17645     17649     17647
     17646     17645     17650     17651     17646     17645     17650     17652
     17646     17645     17650     17660     17647     17649     17645     17650
     17647     17663     17660     17650     17647     17663     17660     17661
     17647     17663     17660     17662     17647     17663     17665     17666
     17647     17667     17670     17671     17648     17647     17663     17660
     17648     17647     17663     17664     17648     17647     17663     17665
     17648     17647     17667     17668     17648     17647     17667     17669
     17648     17647     17667     17670     17649     17645     17650     17651
     17649     17645     17650     17652     17649     17645     17650     17660
     17649     17647     17663     17660     17649     17647     17663     17664
     17649     17647     17663     17665     17649     17647     17667     17668
     17649     17647     17667     17669     17649     17647     17667     17670
     17650     17652     17654     17655     17650     17652     17654     17656
     17650     17660     17662     17672     17650     17660     17663     17664
     17650     17660     17663     17665     17651     17650     17652     17653
     17651     17650     17652     17654     17651     17650     17660     17661
     17651     17650     17660     17662     17651     17650     17660     17663
     17652     17650     17660     17661     17652     17650     17660     17662
     17652     17650     17660     17663     17652     17654     17656     17657
     17652     17654     17656     17658     17652     17654     17656     17659
     17653     17652     17650     17660     17653     17652     17654     17655
     17653     17652     17654     17656     17654     17652     17650     17660
     17655     17654     17656     17657     17655     17654     17656     17658
     17655     17654     17656     17659     17660     17662     17672     17673
     17660     17662     17672     17676     17660     17662     17672     17677
     17660     17663     17647     17667     17660     17663     17665     17666
     17661     17660     17662     17672     17661     17660     17663     17664
     17661     17660     17663     17665     17662     17660     17663     17664
     17662     17660     17663     17665     17662     17672     17676     17674
     17662     17672     17677     17678     17662     17672     17677     17679
     17662     17672     17677     17680     17663     17647     17667     17668
     17663     17647     17667     17669     17663     17647     17667     17670
     17663     17660     17662     17672     17664     17663     17647     17667
     17664     17663     17665     17666     17665     17663     17647     17667
     17668     17667     17670     17671     17669     17667     17670     17671
     17672     17676     17674     17675     17672     17676     17674     17684
     17672     17676     17674     17688     17672     17677     17679     17693
     17672     17677     17680     17681     17672     17677     17680     17682
     17672     17677     17680     17684     17673     17672     17676     17674
     17673     17672     17677     17678     17673     17672     17677     17679
     17673     17672     17677     17680     17674     17676     17672     17677
     17674     17684     17680     17677     17674     17684     17680     17681
     17674     17684     17680     17682     17674     17684     17686     17687
     17674     17688     17691     17692     17675     17674     17684     17680
     17675     17674     17684     17685     17675     17674     17684     17686
     17675     17674     17688     17689     17675     17674     17688     17690
     17675     17674     17688     17691     17676     17672     17677     17678
     17676     17672     17677     17679     17676     17672     17677     17680
     17676     17674     17684     17680     17676     17674     17684     17685
     17676     17674     17684     17686     17676     17674     17688     17689
     17676     17674     17688     17690     17676     17674     17688     17691
     17677     17679     17693     17694     17677     17679     17693     17697
     17677     17679     17693     17698     17677     17680     17682     17683
     17677     17680     17684     17685     17677     17680     17684     17686
     17678     17677     17679     17693     17678     17677     17680     17681
     17678     17677     17680     17682     17678     17677     17680     17684
     17679     17677     17680     17681     17679     17677     17680     17682
     17679     17677     17680     17684     17679     17693     17697     17695
     17679     17693     17698     17699     17679     17693     17698     17700
     17679     17693     17698     17701     17680     17677     17679     17693
     17680     17684     17674     17688     17680     17684     17686     17687
     17681     17680     17682     17683     17681     17680     17684     17685
     17681     17680     17684     17686     17682     17680     17684     17685
     17682     17680     17684     17686     17683     17682     17680     17684
     17684     17674     17688     17689     17684     17674     17688     17690
     17684     17674     17688     17691     17685     17684     17674     17688
     17685     17684     17686     17687     17686     17684     17674     17688
     17689     17688     17691     17692     17690     17688     17691     17692
     17693     17697     17695     17696     17693     17697     17695     17705
     17693     17697     17695     17709     17693     17698     17700     17713
     17693     17698     17701     17702     17693     17698     17701     17703
     17693     17698     17701     17705     17694     17693     17697     17695
     17694     17693     17698     17699     17694     17693     17698     17700
     17694     17693     17698     17701     17695     17697     17693     17698
     17695     17705     17701     17698     17695     17705     17701     17702
     17695     17705     17701     17703     17695     17705     17707     17708
     17696     17695     17705     17701     17696     17695     17705     17706
     17696     17695     17705     17707     17696     17695     17709     17710
     17696     17695     17709     17711     17696     17695     17709     17712
     17697     17693     17698     17699     17697     17693     17698     17700
     17697     17693     17698     17701     17697     17695     17705     17701
     17697     17695     17705     17706     17697     17695     17705     17707
     17697     17695     17709     17710     17697     17695     17709     17711
     17697     17695     17709     17712     17698     17700     17713     17714
     17698     17700     17713     17717     17698     17700     17713     17718
     17698     17701     17703     17704     17698     17701     17705     17706
     17698     17701     17705     17707     17699     17698     17700     17713
     17699     17698     17701     17702     17699     17698     17701     17703
     17699     17698     17701     17705     17700     17698     17701     17702
     17700     17698     17701     17703     17700     17698     17701     17705
     17700     17713     17717     17715     17700     17713     17718     17719
     17700     17713     17718     17720     17700     17713     17718     17721
     17701     17698     17700     17713     17701     17705     17695     17709
     17701     17705     17707     17708     17702     17701     17703     17704
     17702     17701     17705     17706     17702     17701     17705     17707
     17703     17701     17705     17706     17703     17701     17705     17707
     17704     17703     17701     17705     17705     17695     17709     17710
     17705     17695     17709     17711     17705     17695     17709     17712
     17706     17705     17695     17709     17706     17705     17707     17708
     17707     17705     17695     17709     17713     17717     17715     17716
     17713     17717     17715     17725     17713     17717     17715     17729
     17713     17718     17720     17733     17713     17718     17721     17722
     17713     17718     17721     17723     17713     17718     17721     17725
     17714     17713     17717     17715     17714     17713     17718     17719
     17714     17713     17718     17720     17714     17713     17718     17721
     17715     17717     17713     17718     17715     17725     17721     17718
     17715     17725     17721     17722     17715     17725     17721     17723
     17715     17725     17727     17728     17716     17715     17725     17721
     17716     17715     17725     17726     17716     17715     17725     17727
     17716     17715     17729     17730     17716     17715     17729     17731
     17716     17715     17729     17732     17717     17713     17718     17719
     17717     17713     17718     17720     17717     17713     17718     17721
     17717     17715     17725     17721     17717     17715     17725     17726
     17717     17715     17725     17727     17717     17715     17729     17730
     17717     17715     17729     17731     17717     17715     17729     17732
     17718     17720     17733     17734     17718     17720     17733     17737
     17718     17720     17733     17738     17718     17721     17723     17724
     17718     17721     17725     17726     17718     17721     17725     17727
     17719     17718     17720     17733     17719     17718     17721     17722
     17719     17718     17721     17723     17719     17718     17721     17725
     17720     17718     17721     17722     17720     17718     17721     17723
     17720     17718     17721     17725     17720     17733     17737     17735
     17720     17733     17738     17739     17720     17733     17738     17740
     17720     17733     17738     17748     17721     17718     17720     17733
     17721     17725     17715     17729     17721     17725     17727     17728
     17722     17721     17723     17724     17722     17721     17725     17726
     17722     17721     17725     17727     17723     17721     17725     17726
     17723     17721     17725     17727     17724     17723     17721     17725
     17725     17715     17729     17730     17725     17715     17729     17731
     17725     17715     17729     17732     17726     17725     17715     17729
     17726     17725     17727     17728     17727     17725     17715     17729
     17733     17737     17735     17736     17733     17737     17735     17752
     17733     17737     17735     17756     17733     17738     17740     17741
     17733     17738     17740     17742     17733     17738     17748     17749
     17733     17738     17748     17750     17733     17738     17748     17752
     17734     17733     17737     17735     17734     17733     17738     17739
     17734     17733     17738     17740     17734     17733     17738     17748
     17735     17737     17733     17738     17735     17752     17748     17738
     17735     17752     17748     17749     17735     17752     17748     17750
     17735     17752     17754     17755     17735     17756     17759     17760
     17736     17735     17752     17748     17736     17735     17752     17753
     17736     17735     17752     17754     17736     17735     17756     17757
     17736     17735     17756     17758     17736     17735     17756     17759
     17737     17733     17738     17739     17737     17733     17738     17740
     17737     17733     17738     17748     17737     17735     17752     17748
     17737     17735     17752     17753     17737     17735     17752     17754
     17737     17735     17756     17757     17737     17735     17756     17758
     17737     17735     17756     17759     17738     17740     17742     17743
     17738     17740     17742     17744     17738     17748     17750     17751
     17738     17748     17752     17753     17738     17748     17752     17754
     17739     17738     17740     17741     17739     17738     17740     17742
     17739     17738     17748     17749     17739     17738     17748     17750
     17739     17738     17748     17752     17740     17738     17748     17749
     17740     17738     17748     17750     17740     17738     17748     17752
     17740     17742     17744     17745     17740     17742     17744     17746
     17740     17742     17744     17747     17741     17740     17738     17748
     17741     17740     17742     17743     17741     17740     17742     17744
     17742     17740     17738     17748     17743     17742     17744     17745
     17743     17742     17744     17746     17743     17742     17744     17747
     17748     17752     17735     17756     17748     17752     17754     17755
     17749     17748     17750     17751     17749     17748     17752     17753
     17749     17748     17752     17754     17750     17748     17752     17753
     17750     17748     17752     17754     17751     17750     17748     17752
     17752     17735     17756     17757     17752     17735     17756     17758
     17752     17735     17756     17759     17753     17752     17735     17756
     17753     17752     17754     17755     17754     17752     17735     17756
     17757     17756     17759     17760     17758     17756     17759     17760
     17761     17763     17762     18060     17761     17763     17765     17766
     17761     17763     17765     17767     17761     17763     17765     17774
     17762     17763     17765     17766     17762     17763     17765     17767
     17762     17763     17765     17774     17762     18060     18057     18058
     17762     18060     18057     18059     17762     18060     18063     18061
     17762     18060     18064     18065     17762     18060     18064     18066
     17762     18060     18064     18067     17763     17762     18060     18057
     17763     17762     18060     18063     17763     17762     18060     18064
     17763     17765     17766     17768     17763     17765     17774     17775
     17763     17765     17774     17776     17763     17765     17774     17781
     17764     17763     17762     18060     17764     17763     17765     17766
     17764     17763     17765     17767     17764     17763     17765     17774
     17765     17763     17762     18060     17765     17766     17768     17769
     17765     17766     17768     17770     17765     17766     17768     17789
     17765     17774     17776     17777     17765     17774     17781     17782
     17765     17774     17781     17783     17765     17774     17781     17789
     17766     17765     17774     17775     17766     17765     17774     17776
     17766     17765     17774     17781     17766     17768     17770     17771
     17766     17768     17789     17781     17766     17768     17789     17790
     17766     17768     17789     17791     17767     17765     17766     17768
     17767     17765     17774     17775     17767     17765     17774     17776
     17767     17765     17774     17781     17768     17766     17765     17774
     17768     17770     17771     17772     17768     17770     17771     17773
     17768     17770     17771     17797     17768     17789     17781     17774
     17768     17789     17781     17782     17768     17789     17781     17783
     17768     17789     17791     17792     17768     17789     17791     17898
     17769     17768     17770     17771     17769     17768     17789     17781
     17769     17768     17789     17790     17769     17768     17789     17791
     17770     17768     17789     17781     17770     17768     17789     17790
     17770     17768     17789     17791     17770     17771     17797     17793
     17770     17771     17797     17798     17770     17771     17797     17799
     17771     17770     17768     17789     17771     17797     17793     17794
     17771     17797     17793     17795     17771     17797     17793     17807
     17771     17797     17799     17800     17772     17771     17797     17793
     17772     17771     17797     17798     17772     17771     17797     17799
     17773     17771     17797     17793     17773     17771     17797     17798
     17773     17771     17797     17799     17774     17776     17777     17778
     17774     17776     17777     17779     17774     17776     17777     17780
     17774     17781     17782     17784     17774     17781     17789     17790
     17774     17781     17789     17791     17775     17774     17776     17777
     17775     17774     17781     17782     17775     17774     17781     17783
     17775     17774     17781     17789     17776     17774     17781     17782
     17776     17774     17781     17783     17776     17774     17781     17789
     17777     17776     17774     17781     17781     17782     17784     17785
     17781     17782     17784     17786     17781     17789     17791     17792
     17781     17789     17791     17898     17782     17781     17789     17790
     17782     17781     17789     17791     17782     17784     17786     17787
     17782     17784     17786     17788     17782     17784     17786     17819
     17783     17781     17782     17784     17783     17781     17789     17790
     17783     17781     17789     17791     17784     17782     17781     17789
     17784     17786     17819     17820     17784     17786     17819     17821
     17784     17786     17819     17864     17785     17784     17786     17787
     17785     17784     17786     17788     17785     17784     17786     17819
     17786     17819     17821     17822     17786     17819     17864     17865
     17786     17819     17864     17866     17786     17819     17864     17867
     17787     17786     17819     17820     17787     17786     17819     17821
     17787     17786     17819     17864     17788     17786     17819     17820
     17788     17786     17819     17821     17788     17786     17819     17864
     17789     17791     17898     17899     17789     17791     17898     17900
     17790     17789     17791     17792     17790     17789     17791     17898
     17791     17898     17900     17901     17791     17898     17900     17902
     17791     17898     17900     17903     17792     17791     17898     17899
     17792     17791     17898     17900     17793     17797     17799     17800
     17793     17807     17809     17810     17793     17807     17815     17800
     17793     17807     17815     17816     17793     17807     17815     17817
     17794     17793     17795     17796     17794     17793     17797     17798
     17794     17793     17797     17799     17794     17793     17807     17808
     17794     17793     17807     17809     17794     17793     17807     17815
     17795     17793     17797     17798     17795     17793     17797     17799
     17795     17793     17807     17808     17795     17793     17807     17809
     17795     17793     17807     17815     17796     17795     17793     17797
     17796     17795     17793     17807     17797     17793     17807     17808
     17797     17793     17807     17809     17797     17793     17807     17815
     17797     17799     17800     17801     17797     17799     17800     17802
     17797     17799     17800     17815     17798     17797     17793     17807
     17798     17797     17799     17800     17799     17797     17793     17807
     17799     17800     17802     17806     17799     17800     17815     17807
     17799     17800     17815     17816     17799     17800     17815     17817
     17800     17802     17806     17803     17800     17802     17806     17804
     17800     17802     17806     17805     17800     17815     17807     17808
     17800     17815     17807     17809     17800     17815     17817     17818
     17800     17815     17817     18014     17801     17800     17802     17806
     17801     17800     17815     17807     17801     17800     17815     17816
     17801     17800     17815     17817     17802     17800     17815     17807
     17802     17800     17815     17816     17802     17800     17815     17817
     17806     17802     17800     17815     17807     17809     17810     17811
     17807     17809     17810     17812     17807     17815     17817     17818
     17807     17815     17817     18014     17808     17807     17809     17810
     17808     17807     17815     17816     17808     17807     17815     17817
     17809     17807     17815     17816     17809     17807     17815     17817
     17809     17810     17812     17813     17809     17810     17812     17814
     17809     17810     17812     17976     17810     17809     17807     17815
     17810     17812     17976     17977     17810     17812     17976     17978
     17810     17812     17976     17980     17811     17810     17812     17813
     17811     17810     17812     17814     17811     17810     17812     17976
     17812     17976     17978     17979     17812     17976     17980     17981
     17812     17976     17980     17982     17812     17976     17980     17983
     17813     17812     17976     17977     17813     17812     17976     17978
     17813     17812     17976     17980     17814     17812     17976     17977
     17814     17812     17976     17978     17814     17812     17976     17980
     17815     17817     18014     18015     17815     17817     18014     18016
     17816     17815     17817     17818     17816     17815     17817     18014
     17817     18014     18016     18017     17817     18014     18016     18018
     17817     18014     18016     18019     17818     17817     18014     18015
     17818     17817     18014     18016     17819     17821     17822     17823
     17819     17821     17822     17824     17819     17864     17867     17868
     17819     17864     17867     17869     17819     17864     17867     17870
     17820     17819     17821     17822     17820     17819     17864     17865
     17820     17819     17864     17866     17820     17819     17864     17867
     17821     17819     17864     17865     17821     17819     17864     17866
     17821     17819     17864     17867     17821     17822     17824     17825
     17821     17822     17824     17826     17821     17822     17824     17827
     17822     17821     17819     17864     17822     17824     17827     17828
     17822     17824     17827     17829     17822     17824     17827     17830
     17823     17822     17824     17825     17823     17822     17824     17826
     17823     17822     17824     17827     17824     17827     17830     17831
     17824     17827     17830     17832     17824     17827     17830     17833
     17825     17824     17827     17828     17825     17824     17827     17829
     17825     17824     17827     17830     17826     17824     17827     17828
     17826     17824     17827     17829     17826     17824     17827     17830
     17827     17830     17833     17834     17827     17830     17833     17835
     17827     17830     17833     17836     17828     17827     17830     17831
     17828     17827     17830     17832     17828     17827     17830     17833
     17829     17827     17830     17831     17829     17827     17830     17832
     17829     17827     17830     17833     17830     17833     17836     17837
     17830     17833     17836     17838     17830     17833     17836     17839
     17831     17830     17833     17834     17831     17830     17833     17835
     17831     17830     17833     17836     17832     17830     17833     17834
     17832     17830     17833     17835     17832     17830     17833     17836
     17833     17836     17839     17840     17833     17836     17839     17841
     17833     17836     17839     17842     17834     17833     17836     17837
     17834     17833     17836     17838     17834     17833     17836     17839
     17835     17833     17836     17837     17835     17833     17836     17838
     17835     17833     17836     17839     17836     17839     17842     17843
     17836     17839     17842     17844     17836     17839     17842     17845
     17837     17836     17839     17840     17837     17836     17839     17841
     17837     17836     17839     17842     17838     17836     17839     17840
     17838     17836     17839     17841     17838     17836     17839     17842
     17839     17842     17845     17846     17839     17842     17845     17847
     17839     17842     17845     17848     17840     17839     17842     17843
     17840     17839     17842     17844     17840     17839     17842     17845
     17841     17839     17842     17843     17841     17839     17842     17844
     17841     17839     17842     17845     17842     17845     17848     17849
     17842     17845     17848     17850     17842     17845     17848     17851
     17843     17842     17845     17846     17843     17842     17845     17847
     17843     17842     17845     17848     17844     17842     17845     17846
     17844     17842     17845     17847     17844     17842     17845     17848
     17845     17848     17851     17852     17845     17848     17851     17853
     17845     17848     17851     17854     17846     17845     17848     17849
     17846     17845     17848     17850     17846     17845     17848     17851
     17847     17845     17848     17849     17847     17845     17848     17850
     17847     17845     17848     17851     17848     17851     17854     17855
     17848     17851     17854     17856     17848     17851     17854     17857
     17849     17848     17851     17852     17849     17848     17851     17853
     17849     17848     17851     17854     17850     17848     17851     17852
     17850     17848     17851     17853     17850     17848     17851     17854
     17851     17854     17857     17858     17851     17854     17857     17859
     17851     17854     17857     17860     17852     17851     17854     17855
     17852     17851     17854     17856     17852     17851     17854     17857
     17853     17851     17854     17855     17853     17851     17854     17856
     17853     17851     17854     17857     17854     17857     17860     17861
     17854     17857     17860     17862     17854     17857     17860     17863
     17855     17854     17857     17858     17855     17854     17857     17859
     17855     17854     17857     17860     17856     17854     17857     17858
     17856     17854     17857     17859     17856     17854     17857     17860
     17858     17857     17860     17861     17858     17857     17860     17862
     17858     17857     17860     17863     17859     17857     17860     17861
     17859     17857     17860     17862     17859     17857     17860     17863
     17864     17867     17870     17871     17864     17867     17870     17872
     17864     17867     17870     17873     17865     17864     17867     17868
     17865     17864     17867     17869     17865     17864     17867     17870
     17866     17864     17867     17868     17866     17864     17867     17869
     17866     17864     17867     17870     17867     17870     17873     17874
     17867     17870     17873     17875     17867     17870     17873     17876
     17868     17867     17870     17871     17868     17867     17870     17872
     17868     17867     17870     17873     17869     17867     17870     17871
     17869     17867     17870     17872     17869     17867     17870     17873
     17870     17873     17876     17877     17870     17873     17876     17878
     17870     17873     17876     17879     17871     17870     17873     17874
     17871     17870     17873     17875     17871     17870     17873     17876
     17872     17870     17873     17874     17872     17870     17873     17875
     17872     17870     17873     17876     17873     17876     17879     17880
     17873     17876     17879     17881     17873     17876     17879     17882
     17874     17873     17876     17877     17874     17873     17876     17878
     17874     17873     17876     17879     17875     17873     17876     17877
     17875     17873     17876     17878     17875     17873     17876     17879
     17876     17879     17882     17883     17876     17879     17882     17884
     17876     17879     17882     17885     17877     17876     17879     17880
     17877     17876     17879     17881     17877     17876     17879     17882
     17878     17876     17879     17880     17878     17876     17879     17881
     17878     17876     17879     17882     17879     17882     17885     17886
     17879     17882     17885     17887     17879     17882     17885     17888
     17880     17879     17882     17883     17880     17879     17882     17884
     17880     17879     17882     17885     17881     17879     17882     17883
     17881     17879     17882     17884     17881     17879     17882     17885
     17882     17885     17888     17889     17882     17885     17888     17890
     17882     17885     17888     17891     17883     17882     17885     17886
     17883     17882     17885     17887     17883     17882     17885     17888
     17884     17882     17885     17886     17884     17882     17885     17887
     17884     17882     17885     17888     17885     17888     17891     17892
     17885     17888     17891     17893     17885     17888     17891     17894
     17886     17885     17888     17889     17886     17885     17888     17890
     17886     17885     17888     17891     17887     17885     17888     17889
     17887     17885     17888     17890     17887     17885     17888     17891
     17888     17891     17894     17895     17888     17891     17894     17896
     17888     17891     17894     17897     17889     17888     17891     17892
     17889     17888     17891     17893     17889     17888     17891     17894
     17890     17888     17891     17892     17890     17888     17891     17893
     17890     17888     17891     17894     17892     17891     17894     17895
     17892     17891     17894     17896     17892     17891     17894     17897
     17893     17891     17894     17895     17893     17891     17894     17896
     17893     17891     17894     17897     17898     17900     17903     17904
     17898     17900     17903     17905     17898     17900     17903     17942
     17899     17898     17900     17901     17899     17898     17900     17902
     17899     17898     17900     17903     17900     17903     17905     17906
     17900     17903     17942     17943     17900     17903     17942     17944
     17900     17903     17942     17945     17901     17900     17903     17904
     17901     17900     17903     17905     17901     17900     17903     17942
     17902     17900     17903     17904     17902     17900     17903     17905
     17902     17900     17903     17942     17903     17905     17906     17907
     17903     17905     17906     17908     17903     17942     17945     17946
     17903     17942     17945     17947     17903     17942     17945     17948
     17904     17903     17905     17906     17904     17903     17942     17943
     17904     17903     17942     17944     17904     17903     17942     17945
     17905     17903     17942     17943     17905     17903     17942     17944
     17905     17903     17942     17945     17905     17906     17908     17909
     17905     17906     17908     17910     17905     17906     17908     17911
     17906     17905     17903     17942     17906     17908     17911     17912
     17906     17908     17911     17913     17906     17908     17911     17914
     17907     17906     17908     17909     17907     17906     17908     17910
     17907     17906     17908     17911     17908     17911     17914     17915
     17908     17911     17914     17916     17908     17911     17914     17917
     17909     17908     17911     17912     17909     17908     17911     17913
     17909     17908     17911     17914     17910     17908     17911     17912
     17910     17908     17911     17913     17910     17908     17911     17914
     17911     17914     17917     17918     17911     17914     17917     17919
     17911     17914     17917     17920     17912     17911     17914     17915
     17912     17911     17914     17916     17912     17911     17914     17917
     17913     17911     17914     17915     17913     17911     17914     17916
     17913     17911     17914     17917     17914     17917     17920     17921
     17914     17917     17920     17922     17914     17917     17920     17923
     17915     17914     17917     17918     17915     17914     17917     17919
     17915     17914     17917     17920     17916     17914     17917     17918
     17916     17914     17917     17919     17916     17914     17917     17920
     17917     17920     17923     17924     17917     17920     17923     17925
     17917     17920     17923     17926     17918     17917     17920     17921
     17918     17917     17920     17922     17918     17917     17920     17923
     17919     17917     17920     17921     17919     17917     17920     17922
     17919     17917     17920     17923     17920     17923     17926     17927
     17920     17923     17926     17928     17920     17923     17926     17929
     17921     17920     17923     17924     17921     17920     17923     17925
     17921     17920     17923     17926     17922     17920     17923     17924
     17922     17920     17923     17925     17922     17920     17923     17926
     17923     17926     17929     17930     17923     17926     17929     17931
     17923     17926     17929     17932     17924     17923     17926     17927
     17924     17923     17926     17928     17924     17923     17926     17929
     17925     17923     17926     17927     17925     17923     17926     17928
     17925     17923     17926     17929     17926     17929     17932     17933
     17926     17929     17932     17934     17926     17929     17932     17935
     17927     17926     17929     17930     17927     17926     17929     17931
     17927     17926     17929     17932     17928     17926     17929     17930
     17928     17926     17929     17931     17928     17926     17929     17932
     17929     17932     17935     17936     17929     17932     17935     17937
     17929     17932     17935     17938     17930     17929     17932     17933
     17930     17929     17932     17934     17930     17929     17932     17935
     17931     17929     17932     17933     17931     17929     17932     17934
     17931     17929     17932     17935     17932     17935     17938     17939
     17932     17935     17938     17940     17932     17935     17938     17941
     17933     17932     17935     17936     17933     17932     17935     17937
     17933     17932     17935     17938     17934     17932     17935     17936
     17934     17932     17935     17937     17934     17932     17935     17938
     17936     17935     17938     17939     17936     17935     17938     17940
     17936     17935     17938     17941     17937     17935     17938     17939
     17937     17935     17938     17940     17937     17935     17938     17941
     17942     17945     17948     17949     17942     17945     17948     17950
     17942     17945     17948     17951     17943     17942     17945     17946
     17943     17942     17945     17947     17943     17942     17945     17948
     17944     17942     17945     17946     17944     17942     17945     17947
     17944     17942     17945     17948     17945     17948     17951     17952
     17945     17948     17951     17953     17945     17948     17951     17954
     17946     17945     17948     17949     17946     17945     17948     17950
     17946     17945     17948     17951     17947     17945     17948     17949
     17947     17945     17948     17950     17947     17945     17948     17951
     17948     17951     17954     17955     17948     17951     17954     17956
     17948     17951     17954     17957     17949     17948     17951     17952
     17949     17948     17951     17953     17949     17948     17951     17954
     17950     17948     17951     17952     17950     17948     17951     17953
     17950     17948     17951     17954     17951     17954     17957     17958
     17951     17954     17957     17959     17951     17954     17957     17960
     17952     17951     17954     17955     17952     17951     17954     17956
     17952     17951     17954     17957     17953     17951     17954     17955
     17953     17951     17954     17956     17953     17951     17954     17957
     17954     17957     17960     17961     17954     17957     17960     17962
     17954     17957     17960     17963     17955     17954     17957     17958
     17955     17954     17957     17959     17955     17954     17957     17960
     17956     17954     17957     17958     17956     17954     17957     17959
     17956     17954     17957     17960     17957     17960     17963     17964
     17957     17960     17963     17965     17957     17960     17963     17966
     17958     17957     17960     17961     17958     17957     17960     17962
     17958     17957     17960     17963     17959     17957     17960     17961
     17959     17957     17960     17962     17959     17957     17960     17963
     17960     17963     17966     17967     17960     17963     17966     17968
     17960     17963     17966     17969     17961     17960     17963     17964
     17961     17960     17963     17965     17961     17960     17963     17966
     17962     17960     17963     17964     17962     17960     17963     17965
     17962     17960     17963     17966     17963     17966     17969     17970
     17963     17966     17969     17971     17963     17966     17969     17972
     17964     17963     17966     17967     17964     17963     17966     17968
     17964     17963     17966     17969     17965     17963     17966     17967
     17965     17963     17966     17968     17965     17963     17966     17969
     17966     17969     17972     17973     17966     17969     17972     17974
     17966     17969     17972     17975     17967     17966     17969     17970
     17967     17966     17969     17971     17967     17966     17969     17972
     17968     17966     17969     17970     17968     17966     17969     17971
     17968     17966     17969     17972     17970     17969     17972     17973
     17970     17969     17972     17974     17970     17969     17972     17975
     17971     17969     17972     17973     17971     17969     17972     17974
     17971     17969     17972     17975     17976     17980     17983     17984
     17976     17980     17983     17985     17976     17980     17983     17986
     17977     17976     17978     17979     17977     17976     17980     17981
     17977     17976     17980     17982     17977     17976     17980     17983
     17978     17976     17980     17981     17978     17976     17980     17982
     17978     17976     17980     17983     17979     17978     17976     17980
     17980     17983     17986     17987     17980     17983     17986     17988
     17980     17983     17986     17989     17981     17980     17983     17984
     17981     17980     17983     17985     17981     17980     17983     17986
     17982     17980     17983     17984     17982     17980     17983     17985
     17982     17980     17983     17986     17983     17986     17989     17990
     17983     17986     17989     17991     17983     17986     17989     17992
     17984     17983     17986     17987     17984     17983     17986     17988
     17984     17983     17986     17989     17985     17983     17986     17987
     17985     17983     17986     17988     17985     17983     17986     17989
     17986     17989     17992     17993     17986     17989     17992     17994
     17986     17989     17992     17995     17987     17986     17989     17990
     17987     17986     17989     17991     17987     17986     17989     17992
     17988     17986     17989     17990     17988     17986     17989     17991
     17988     17986     17989     17992     17989     17992     17995     17996
     17989     17992     17995     17997     17989     17992     17995     17998
     17990     17989     17992     17993     17990     17989     17992     17994
     17990     17989     17992     17995     17991     17989     17992     17993
     17991     17989     17992     17994     17991     17989     17992     17995
     17992     17995     17998     17999     17992     17995     17998     18000
     17992     17995     17998     18001     17993     17992     17995     17996
     17993     17992     17995     17997     17993     17992     17995     17998
     17994     17992     17995     17996     17994     17992     17995     17997
     17994     17992     17995     17998     17995     17998     18001     18002
     17995     17998     18001     18003     17995     17998     18001     18004
     17996     17995     17998     17999     17996     17995     17998     18000
     17996     17995     17998     18001     17997     17995     17998     17999
     17997     17995     17998     18000     17997     17995     17998     18001
     17998     18001     18004     18005     17998     18001     18004     18006
     17998     18001     18004     18007     17999     17998     18001     18002
     17999     17998     18001     18003     17999     17998     18001     18004
     18000     17998     18001     18002     18000     17998     18001     18003
     18000     17998     18001     18004     18001     18004     18007     18008
     18001     18004     18007     18009     18001     18004     18007     18010
     18002     18001     18004     18005     18002     18001     18004     18006
     18002     18001     18004     18007     18003     18001     18004     18005
     18003     18001     18004     18006     18003     18001     18004     18007
     18004     18007     18010     18011     18004     18007     18010     18012
     18004     18007     18010     18013     18005     18004     18007     18008
     18005     18004     18007     18009     18005     18004     18007     18010
     18006     18004     18007     18008     18006     18004     18007     18009
     18006     18004     18007     18010     18008     18007     18010     18011
     18008     18007     18010     18012     18008     18007     18010     18013
     18009     18007     18010     18011     18009     18007     18010     18012
     18009     18007     18010     18013     18014     18016     18019     18020
     18014     18016     18019     18021     18014     18016     18019     18023
     18015     18014     18016     18017     18015     18014     18016     18018
     18015     18014     18016     18019     18016     18019     18021     18022
     18016     18019     18023     18024     18016     18019     18023     18025
     18016     18019     18023     18026     18017     18016     18019     18020
     18017     18016     18019     18021     18017     18016     18019     18023
     18018     18016     18019     18020     18018     18016     18019     18021
     18018     18016     18019     18023     18019     18023     18026     18027
     18019     18023     18026     18028     18019     18023     18026     18029
     18020     18019     18021     18022     18020     18019     18023     18024
     18020     18019     18023     18025     18020     18019     18023     18026
     18021     18019     18023     18024     18021     18019     18023     18025
     18021     18019     18023     18026     18022     18021     18019     18023
     18023     18026     18029     18030     18023     18026     18029     18031
     18023     18026     18029     18032     18024     18023     18026     18027
     18024     18023     18026     18028     18024     18023     18026     18029
     18025     18023     18026     18027     18025     18023     18026     18028
     18025     18023     18026     18029     18026     18029     18032     18033
     18026     18029     18032     18034     18026     18029     18032     18035
     18027     18026     18029     18030     18027     18026     18029     18031
     18027     18026     18029     18032     18028     18026     18029     18030
     18028     18026     18029     18031     18028     18026     18029     18032
     18029     18032     18035     18036     18029     18032     18035     18037
     18029     18032     18035     18038     18030     18029     18032     18033
     18030     18029     18032     18034     18030     18029     18032     18035
     18031     18029     18032     18033     18031     18029     18032     18034
     18031     18029     18032     18035     18032     18035     18038     18039
     18032     18035     18038     18040     18032     18035     18038     18041
     18033     18032     18035     18036     18033     18032     18035     18037
     18033     18032     18035     18038     18034     18032     18035     18036
     18034     18032     18035     18037     18034     18032     18035     18038
     18035     18038     18041     18042     18035     18038     18041     18043
     18035     18038     18041     18044     18036     18035     18038     18039
     18036     18035     18038     18040     18036     18035     18038     18041
     18037     18035     18038     18039     18037     18035     18038     18040
     18037     18035     18038     18041     18038     18041     18044     18045
     18038     18041     18044     18046     18038     18041     18044     18047
     18039     18038     18041     18042     18039     18038     18041     18043
     18039     18038     18041     18044     18040     18038     18041     18042
     18040     18038     18041     18043     18040     18038     18041     18044
     18041     18044     18047     18048     18041     18044     18047     18049
     18041     18044     18047     18050     18042     18041     18044     18045
     18042     18041     18044     18046     18042     18041     18044     18047
     18043     18041     18044     18045     18043     18041     18044     18046
     18043     18041     18044     18047     18044     18047     18050     18051
     18044     18047     18050     18052     18044     18047     18050     18053
     18045     18044     18047     18048     18045     18044     18047     18049
     18045     18044     18047     18050     18046     18044     18047     18048
     18046     18044     18047     18049     18046     18044     18047     18050
     18047     18050     18053     18054     18047     18050     18053     18055
     18047     18050     18053     18056     18048     18047     18050     18051
     18048     18047     18050     18052     18048     18047     18050     18053
     18049     18047     18050     18051     18049     18047     18050     18052
     18049     18047     18050     18053     18051     18050     18053     18054
     18051     18050     18053     18055     18051     18050     18053     18056
     18052     18050     18053     18054     18052     18050     18053     18055
     18052     18050     18053     18056     18057     18060     18063     18061
     18057     18060     18064     18065     18057     18060     18064     18066
     18057     18060     18064     18067     18058     18057     18060     18063
     18058     18057     18060     18064     18059     18057     18060     18063
     18059     18057     18060     18064     18060     18063     18061     18062
     18060     18063     18061     18070     18060     18063     18061     18073
     18060     18064     18067     18068     18060     18064     18067     18069
     18060     18064     18067     18070     18061     18063     18060     18064
     18061     18070     18067     18064     18061     18070     18067     18068
     18061     18070     18067     18069     18061     18070     18072     18109
     18061     18073     18075     18076     18061     18073     18077     18078
     18061     18073     18077     18079     18061     18073     18077     18080
     18062     18061     18070     18067     18062     18061     18070     18071
     18062     18061     18070     18072     18062     18061     18073     18074
     18062     18061     18073     18075     18062     18061     18073     18077
     18063     18060     18064     18065     18063     18060     18064     18066
     18063     18060     18064     18067     18063     18061     18070     18067
     18063     18061     18070     18071     18063     18061     18070     18072
     18063     18061     18073     18074     18063     18061     18073     18075
     18063     18061     18073     18077     18064     18067     18069     18085
     18064     18067     18070     18071     18064     18067     18070     18072
     18065     18064     18067     18068     18065     18064     18067     18069
     18065     18064     18067     18070     18066     18064     18067     18068
     18066     18064     18067     18069     18066     18064     18067     18070
     18067     18069     18085     18082     18067     18069     18085     18088
     18067     18069     18085     18089     18067     18070     18061     18073
     18067     18070     18072     18109     18068     18067     18069     18085
     18068     18067     18070     18071     18068     18067     18070     18072
     18069     18067     18070     18071     18069     18067     18070     18072
     18069     18085     18082     18083     18069     18085     18082     18084
     18069     18085     18088     18086     18069     18085     18089     18090
     18069     18085     18089     18091     18069     18085     18089     18092
     18070     18061     18073     18074     18070     18061     18073     18075
     18070     18061     18073     18077     18070     18067     18069     18085
     18070     18072     18109     18110     18070     18072     18109     18113
     18070     18072     18109     18114     18071     18070     18061     18073
     18071     18070     18072     18109     18072     18070     18061     18073
     18072     18109     18113     18111     18072     18109     18114     18115
     18072     18109     18114     18116     18072     18109     18114     18118
     18073     18077     18080     18081     18074     18073     18075     18076
     18074     18073     18077     18078     18074     18073     18077     18079
     18074     18073     18077     18080     18075     18073     18077     18078
     18075     18073     18077     18079     18075     18073     18077     18080
     18076     18075     18073     18077     18078     18077     18080     18081
     18079     18077     18080     18081     18082     18085     18088     18086
     18082     18085     18089     18090     18082     18085     18089     18091
     18082     18085     18089     18092     18083     18082     18085     18088
     18083     18082     18085     18089     18084     18082     18085     18088
     18084     18082     18085     18089     18085     18088     18086     18087
     18085     18088     18086     18096     18085     18088     18086     18100
     18085     18089     18092     18093     18085     18089     18092     18094
     18085     18089     18092     18096     18086     18088     18085     18089
     18086     18096     18092     18089     18086     18096     18092     18093
     18086     18096     18092     18094     18086     18096     18098     18099
     18086     18100     18102     18103     18086     18100     18104     18105
     18086     18100     18104     18106     18086     18100     18104     18107
     18087     18086     18096     18092     18087     18086     18096     18097
     18087     18086     18096     18098     18087     18086     18100     18101
     18087     18086     18100     18102     18087     18086     18100     18104
     18088     18085     18089     18090     18088     18085     18089     18091
     18088     18085     18089     18092     18088     18086     18096     18092
     18088     18086     18096     18097     18088     18086     18096     18098
     18088     18086     18100     18101     18088     18086     18100     18102
     18088     18086     18100     18104     18089     18092     18094     18095
     18089     18092     18096     18097     18089     18092     18096     18098
     18090     18089     18092     18093     18090     18089     18092     18094
     18090     18089     18092     18096     18091     18089     18092     18093
     18091     18089     18092     18094     18091     18089     18092     18096
     18092     18096     18086     18100     18092     18096     18098     18099
     18093     18092     18094     18095     18093     18092     18096     18097
     18093     18092     18096     18098     18094     18092     18096     18097
     18094     18092     18096     18098     18095     18094     18092     18096
     18096     18086     18100     18101     18096     18086     18100     18102
     18096     18086     18100     18104     18097     18096     18086     18100
     18097     18096     18098     18099     18098     18096     18086     18100
     18100     18104     18107     18108     18101     18100     18102     18103
     18101     18100     18104     18105     18101     18100     18104     18106
     18101     18100     18104     18107     18102     18100     18104     18105
     18102     18100     18104     18106     18102     18100     18104     18107
     18103     18102     18100     18104     18105     18104     18107     18108
     18106     18104     18107     18108     18109     18113     18111     18112
     18109     18113     18111     18121     18109     18113     18111     18128
     18109     18114     18116     18117     18109     18114     18118     18119
     18109     18114     18118     18120     18109     18114     18118     18121
     18110     18109     18113     18111     18110     18109     18114     18115
     18110     18109     18114     18116     18110     18109     18114     18118
     18111     18113     18109     18114     18111     18121     18118     18114
     18111     18121     18118     18119     18111     18121     18118     18120
     18111     18121     18123     18124     18111     18128     18130     18131
     18111     18128     18132     18133     18111     18128     18132     18134
     18111     18128     18132     18135     18112     18111     18121     18118
     18112     18111     18121     18122     18112     18111     18121     18123
     18112     18111     18128     18129     18112     18111     18128     18130
     18112     18111     18128     18132     18113     18109     18114     18115
     18113     18109     18114     18116     18113     18109     18114     18118
     18113     18111     18121     18118     18113     18111     18121     18122
     18113     18111     18121     18123     18113     18111     18128     18129
     18113     18111     18128     18130     18113     18111     18128     18132
     18114     18118     18120     18137     18114     18118     18121     18122
     18114     18118     18121     18123     18115     18114     18116     18117
     18115     18114     18118     18119     18115     18114     18118     18120
     18115     18114     18118     18121     18116     18114     18118     18119
     18116     18114     18118     18120     18116     18114     18118     18121
     18117     18116     18114     18118     18118     18120     18137     18138
     18118     18120     18137     18141     18118     18120     18137     18142
     18118     18121     18111     18128     18118     18121     18123     18124
     18119     18118     18120     18137     18119     18118     18121     18122
     18119     18118     18121     18123     18120     18118     18121     18122
     18120     18118     18121     18123     18120     18137     18141     18139
     18120     18137     18142     18143     18120     18137     18142     18144
     18120     18137     18142     18146     18121     18111     18128     18129
     18121     18111     18128     18130     18121     18111     18128     18132
     18121     18118     18120     18137     18121     18123     18124     18125
     18121     18123     18124     18126     18121     18123     18124     18127
     18122     18121     18111     18128     18122     18121     18123     18124
     18123     18121     18111     18128     18128     18132     18135     18136
     18129     18128     18130     18131     18129     18128     18132     18133
     18129     18128     18132     18134     18129     18128     18132     18135
     18130     18128     18132     18133     18130     18128     18132     18134
     18130     18128     18132     18135     18131     18130     18128     18132
     18133     18132     18135     18136     18134     18132     18135     18136
     18137     18141     18139     18140     18137     18141     18139     18149
     18137     18141     18139     18156     18137     18142     18144     18145
     18137     18142     18146     18147     18137     18142     18146     18148
     18137     18142     18146     18149     18138     18137     18141     18139
     18138     18137     18142     18143     18138     18137     18142     18144
     18138     18137     18142     18146     18139     18141     18137     18142
     18139     18149     18146     18142     18139     18149     18146     18147
     18139     18149     18146     18148     18139     18149     18151     18152
     18139     18156     18158     18159     18139     18156     18160     18161
     18139     18156     18160     18162     18139     18156     18160     18163
     18140     18139     18149     18146     18140     18139     18149     18150
     18140     18139     18149     18151     18140     18139     18156     18157
     18140     18139     18156     18158     18140     18139     18156     18160
     18141     18137     18142     18143     18141     18137     18142     18144
     18141     18137     18142     18146     18141     18139     18149     18146
     18141     18139     18149     18150     18141     18139     18149     18151
     18141     18139     18156     18157     18141     18139     18156     18158
     18141     18139     18156     18160     18142     18146     18148     18190
     18142     18146     18149     18150     18142     18146     18149     18151
     18143     18142     18144     18145     18143     18142     18146     18147
     18143     18142     18146     18148     18143     18142     18146     18149
     18144     18142     18146     18147     18144     18142     18146     18148
     18144     18142     18146     18149     18145     18144     18142     18146
     18146     18148     18190     18191     18146     18148     18190     18194
     18146     18148     18190     18195     18146     18149     18139     18156
     18146     18149     18151     18152     18147     18146     18148     18190
     18147     18146     18149     18150     18147     18146     18149     18151
     18148     18146     18149     18150     18148     18146     18149     18151
     18148     18190     18194     18192     18148     18190     18195     18196
     18148     18190     18195     18197     18148     18190     18195     18199
     18149     18139     18156     18157     18149     18139     18156     18158
     18149     18139     18156     18160     18149     18146     18148     18190
     18149     18151     18152     18153     18149     18151     18152     18154
     18149     18151     18152     18155     18150     18149     18139     18156
     18150     18149     18151     18152     18151     18149     18139     18156
     18156     18160     18163     18164     18157     18156     18158     18159
     18157     18156     18160     18161     18157     18156     18160     18162
     18157     18156     18160     18163     18158     18156     18160     18161
     18158     18156     18160     18162     18158     18156     18160     18163
     18159     18158     18156     18160     18160     18163     18164     18165
     18160     18163     18164     18168     18160     18163     18164     18169
     18161     18160     18163     18164     18162     18160     18163     18164
     18163     18164     18168     18166     18163     18164     18169     18170
     18163     18164     18169     18171     18163     18164     18169     18173
     18164     18168     18166     18167     18164     18168     18166     18177
     18164     18168     18166     18181     18164     18169     18171     18172
     18164     18169     18173     18174     18164     18169     18173     18175
     18164     18169     18173     18177     18165     18164     18168     18166
     18165     18164     18169     18170     18165     18164     18169     18171
     18165     18164     18169     18173     18166     18168     18164     18169
     18166     18177     18173     18169     18166     18177     18173     18174
     18166     18177     18173     18175     18166     18177     18179     18180
     18166     18181     18183     18184     18166     18181     18185     18186
     18166     18181     18185     18187     18166     18181     18185     18188
     18167     18166     18177     18173     18167     18166     18177     18178
     18167     18166     18177     18179     18167     18166     18181     18182
     18167     18166     18181     18183     18167     18166     18181     18185
     18168     18164     18169     18170     18168     18164     18169     18171
     18168     18164     18169     18173     18168     18166     18177     18173
     18168     18166     18177     18178     18168     18166     18177     18179
     18168     18166     18181     18182     18168     18166     18181     18183
     18168     18166     18181     18185     18169     18173     18175     18176
     18169     18173     18177     18178     18169     18173     18177     18179
     18170     18169     18171     18172     18170     18169     18173     18174
     18170     18169     18173     18175     18170     18169     18173     18177
     18171     18169     18173     18174     18171     18169     18173     18175
     18171     18169     18173     18177     18172     18171     18169     18173
     18173     18177     18166     18181     18173     18177     18179     18180
     18174     18173     18175     18176     18174     18173     18177     18178
     18174     18173     18177     18179     18175     18173     18177     18178
     18175     18173     18177     18179     18176     18175     18173     18177
     18177     18166     18181     18182     18177     18166     18181     18183
     18177     18166     18181     18185     18178     18177     18166     18181
     18178     18177     18179     18180     18179     18177     18166     18181
     18181     18185     18188     18189     18182     18181     18183     18184
     18182     18181     18185     18186     18182     18181     18185     18187
     18182     18181     18185     18188     18183     18181     18185     18186
     18183     18181     18185     18187     18183     18181     18185     18188
     18184     18183     18181     18185     18186     18185     18188     18189
     18187     18185     18188     18189     18190     18194     18192     18193
     18190     18194     18192     18202     18190     18194     18192     18206
     18190     18195     18197     18198     18190     18195     18199     18200
     18190     18195     18199     18201     18190     18195     18199     18202
     18191     18190     18194     18192     18191     18190     18195     18196
     18191     18190     18195     18197     18191     18190     18195     18199
     18192     18194     18190     18195     18192     18202     18199     18195
     18192     18202     18199     18200     18192     18202     18199     18201
     18192     18202     18204     18205     18192     18206     18209     18210
     18193     18192     18202     18199     18193     18192     18202     18203
     18193     18192     18202     18204     18193     18192     18206     18207
     18193     18192     18206     18208     18193     18192     18206     18209
     18194     18190     18195     18196     18194     18190     18195     18197
     18194     18190     18195     18199     18194     18192     18202     18199
     18194     18192     18202     18203     18194     18192     18202     18204
     18194     18192     18206     18207     18194     18192     18206     18208
     18194     18192     18206     18209     18195     18199     18201     18211
     18195     18199     18202     18203     18195     18199     18202     18204
     18196     18195     18197     18198     18196     18195     18199     18200
     18196     18195     18199     18201     18196     18195     18199     18202
     18197     18195     18199     18200     18197     18195     18199     18201
     18197     18195     18199     18202     18198     18197     18195     18199
     18199     18201     18211     18212     18199     18201     18211     18215
     18199     18201     18211     18216     18199     18202     18192     18206
     18199     18202     18204     18205     18200     18199     18201     18211
     18200     18199     18202     18203     18200     18199     18202     18204
     18201     18199     18202     18203     18201     18199     18202     18204
     18201     18211     18215     18213     18201     18211     18216     18217
     18201     18211     18216     18218     18201     18211     18216     18219
     18202     18192     18206     18207     18202     18192     18206     18208
     18202     18192     18206     18209     18202     18199     18201     18211
     18203     18202     18192     18206     18203     18202     18204     18205
     18204     18202     18192     18206     18207     18206     18209     18210
     18208     18206     18209     18210     18211     18215     18213     18214
     18211     18215     18213     18222     18211     18215     18213     18226
     18211     18216     18218     18231     18211     18216     18219     18220
     18211     18216     18219     18221     18211     18216     18219     18222
     18212     18211     18215     18213     18212     18211     18216     18217
     18212     18211     18216     18218     18212     18211     18216     18219
     18213     18215     18211     18216     18213     18222     18219     18216
     18213     18222     18219     18220     18213     18222     18219     18221
     18213     18222     18224     18225     18213     18226     18229     18230
     18214     18213     18222     18219     18214     18213     18222     18223
     18214     18213     18222     18224     18214     18213     18226     18227
     18214     18213     18226     18228     18214     18213     18226     18229
     18215     18211     18216     18217     18215     18211     18216     18218
     18215     18211     18216     18219     18215     18213     18222     18219
     18215     18213     18222     18223     18215     18213     18222     18224
     18215     18213     18226     18227     18215     18213     18226     18228
     18215     18213     18226     18229     18216     18218     18231     18232
     18216     18218     18231     18235     18216     18218     18231     18236
     18216     18219     18221     18274     18216     18219     18222     18223
     18216     18219     18222     18224     18217     18216     18218     18231
     18217     18216     18219     18220     18217     18216     18219     18221
     18217     18216     18219     18222     18218     18216     18219     18220
     18218     18216     18219     18221     18218     18216     18219     18222
     18218     18231     18235     18233     18218     18231     18236     18237
     18218     18231     18236     18238     18218     18231     18236     18239
     18219     18216     18218     18231     18219     18221     18274     18275
     18219     18221     18274     18278     18219     18221     18274     18279
     18219     18222     18213     18226     18219     18222     18224     18225
     18220     18219     18221     18274     18220     18219     18222     18223
     18220     18219     18222     18224     18221     18219     18222     18223
     18221     18219     18222     18224     18221     18274     18278     18276
     18221     18274     18279     18280     18221     18274     18279     18281
     18221     18274     18279     18283     18222     18213     18226     18227
     18222     18213     18226     18228     18222     18213     18226     18229
     18222     18219     18221     18274     18223     18222     18213     18226
     18223     18222     18224     18225     18224     18222     18213     18226
     18227     18226     18229     18230     18228     18226     18229     18230
     18231     18235     18233     18234     18231     18235     18233     18243
     18231     18235     18233     18247     18231     18236     18238     18252
     18231     18236     18239     18240     18231     18236     18239     18241
     18231     18236     18239     18243     18232     18231     18235     18233
     18232     18231     18236     18237     18232     18231     18236     18238
     18232     18231     18236     18239     18233     18235     18231     18236
     18233     18243     18239     18236     18233     18243     18239     18240
     18233     18243     18239     18241     18233     18243     18245     18246
     18233     18247     18250     18251     18234     18233     18243     18239
     18234     18233     18243     18244     18234     18233     18243     18245
     18234     18233     18247     18248     18234     18233     18247     18249
     18234     18233     18247     18250     18235     18231     18236     18237
     18235     18231     18236     18238     18235     18231     18236     18239
     18235     18233     18243     18239     18235     18233     18243     18244
     18235     18233     18243     18245     18235     18233     18247     18248
     18235     18233     18247     18249     18235     18233     18247     18250
     18236     18238     18252     18253     18236     18238     18252     18256
     18236     18238     18252     18257     18236     18239     18241     18242
     18236     18239     18243     18244     18236     18239     18243     18245
     18237     18236     18238     18252     18237     18236     18239     18240
     18237     18236     18239     18241     18237     18236     18239     18243
     18238     18236     18239     18240     18238     18236     18239     18241
     18238     18236     18239     18243     18238     18252     18256     18254
     18238     18252     18257     18258     18238     18252     18257     18259
     18238     18252     18257     18261     18239     18236     18238     18252
     18239     18243     18233     18247     18239     18243     18245     18246
     18240     18239     18241     18242     18240     18239     18243     18244
     18240     18239     18243     18245     18241     18239     18243     18244
     18241     18239     18243     18245     18242     18241     18239     18243
     18243     18233     18247     18248     18243     18233     18247     18249
     18243     18233     18247     18250     18244     18243     18233     18247
     18244     18243     18245     18246     18245     18243     18233     18247
     18248     18247     18250     18251     18249     18247     18250     18251
     18252     18256     18254     18255     18252     18256     18254     18265
     18252     18256     18254     18269     18252     18257     18259     18260
     18252     18257     18261     18262     18252     18257     18261     18263
     18252     18257     18261     18265     18253     18252     18256     18254
     18253     18252     18257     18258     18253     18252     18257     18259
     18253     18252     18257     18261     18254     18256     18252     18257
     18254     18265     18261     18257     18254     18265     18261     18262
     18254     18265     18261     18263     18254     18265     18267     18268
     18254     18269     18272     18273     18255     18254     18265     18261
     18255     18254     18265     18266     18255     18254     18265     18267
     18255     18254     18269     18270     18255     18254     18269     18271
     18255     18254     18269     18272     18256     18252     18257     18258
     18256     18252     18257     18259     18256     18252     18257     18261
     18256     18254     18265     18261     18256     18254     18265     18266
     18256     18254     18265     18267     18256     18254     18269     18270
     18256     18254     18269     18271     18256     18254     18269     18272
     18257     18261     18263     18264     18257     18261     18265     18266
     18257     18261     18265     18267     18258     18257     18259     18260
     18258     18257     18261     18262     18258     18257     18261     18263
     18258     18257     18261     18265     18259     18257     18261     18262
     18259     18257     18261     18263     18259     18257     18261     18265
     18260     18259     18257     18261     18261     18265     18254     18269
     18261     18265     18267     18268     18262     18261     18263     18264
     18262     18261     18265     18266     18262     18261     18265     18267
     18263     18261     18265     18266     18263     18261     18265     18267
     18264     18263     18261     18265     18265     18254     18269     18270
     18265     18254     18269     18271     18265     18254     18269     18272
     18266     18265     18254     18269     18266     18265     18267     18268
     18267     18265     18254     18269     18270     18269     18272     18273
     18271     18269     18272     18273     18274     18278     18276     18277
     18274     18278     18276     18286     18274     18278     18276     18290
     18274     18279     18281     18282     18274     18279     18283     18284
     18274     18279     18283     18285     18274     18279     18283     18286
     18275     18274     18278     18276     18275     18274     18279     18280
     18275     18274     18279     18281     18275     18274     18279     18283
     18276     18278     18274     18279     18276     18286     18283     18279
     18276     18286     18283     18284     18276     18286     18283     18285
     18276     18286     18288     18289     18276     18290     18293     18294
     18277     18276     18286     18283     18277     18276     18286     18287
     18277     18276     18286     18288     18277     18276     18290     18291
     18277     18276     18290     18292     18277     18276     18290     18293
     18278     18274     18279     18280     18278     18274     18279     18281
     18278     18274     18279     18283     18278     18276     18286     18283
     18278     18276     18286     18287     18278     18276     18286     18288
     18278     18276     18290     18291     18278     18276     18290     18292
     18278     18276     18290     18293     18279     18283     18285     18295
     18279     18283     18286     18287     18279     18283     18286     18288
     18280     18279     18281     18282     18280     18279     18283     18284
     18280     18279     18283     18285     18280     18279     18283     18286
     18281     18279     18283     18284     18281     18279     18283     18285
     18281     18279     18283     18286     18282     18281     18279     18283
     18283     18285     18295     18296     18283     18285     18295     18299
     18283     18285     18295     18300     18283     18286     18276     18290
     18283     18286     18288     18289     18284     18283     18285     18295
     18284     18283     18286     18287     18284     18283     18286     18288
     18285     18283     18286     18287     18285     18283     18286     18288
     18285     18295     18299     18297     18285     18295     18300     18301
     18285     18295     18300     18302     18285     18295     18300     18310
     18286     18276     18290     18291     18286     18276     18290     18292
     18286     18276     18290     18293     18286     18283     18285     18295
     18287     18286     18276     18290     18287     18286     18288     18289
     18288     18286     18276     18290     18291     18290     18293     18294
     18292     18290     18293     18294     18295     18299     18297     18298
     18295     18299     18297     18313     18295     18299     18297     18317
     18295     18300     18302     18303     18295     18300     18302     18304
     18295     18300     18310     18311     18295     18300     18310     18312
     18295     18300     18310     18313     18296     18295     18299     18297
     18296     18295     18300     18301     18296     18295     18300     18302
     18296     18295     18300     18310     18297     18299     18295     18300
     18297     18313     18310     18300     18297     18313     18310     18311
     18297     18313     18310     18312     18297     18313     18315     18316
     18297     18317     18320     18321     18298     18297     18313     18310
     18298     18297     18313     18314     18298     18297     18313     18315
     18298     18297     18317     18318     18298     18297     18317     18319
     18298     18297     18317     18320     18299     18295     18300     18301
     18299     18295     18300     18302     18299     18295     18300     18310
     18299     18297     18313     18310     18299     18297     18313     18314
     18299     18297     18313     18315     18299     18297     18317     18318
     18299     18297     18317     18319     18299     18297     18317     18320
     18300     18302     18304     18305     18300     18302     18304     18306
     18300     18310     18312     18322     18300     18310     18313     18314
     18300     18310     18313     18315     18301     18300     18302     18303
     18301     18300     18302     18304     18301     18300     18310     18311
     18301     18300     18310     18312     18301     18300     18310     18313
     18302     18300     18310     18311     18302     18300     18310     18312
     18302     18300     18310     18313     18302     18304     18306     18307
     18302     18304     18306     18308     18302     18304     18306     18309
     18303     18302     18300     18310     18303     18302     18304     18305
     18303     18302     18304     18306     18304     18302     18300     18310
     18305     18304     18306     18307     18305     18304     18306     18308
     18305     18304     18306     18309     18310     18312     18322     18323
     18310     18312     18322     18326     18310     18312     18322     18327
     18310     18313     18297     18317     18310     18313     18315     18316
     18311     18310     18312     18322     18311     18310     18313     18314
     18311     18310     18313     18315     18312     18310     18313     18314
     18312     18310     18313     18315     18312     18322     18326     18324
     18312     18322     18327     18328     18312     18322     18327     18329
     18312     18322     18327     18330     18313     18297     18317     18318
     18313     18297     18317     18319     18313     18297     18317     18320
     18313     18310     18312     18322     18314     18313     18297     18317
     18314     18313     18315     18316     18315     18313     18297     18317
     18318     18317     18320     18321     18319     18317     18320     18321
     18322     18326     18324     18325     18322     18326     18324     18334
     18322     18326     18324     18338     18322     18327     18329     18343
     18322     18327     18330     18331     18322     18327     18330     18332
     18322     18327     18330     18334     18323     18322     18326     18324
     18323     18322     18327     18328     18323     18322     18327     18329
     18323     18322     18327     18330     18324     18326     18322     18327
     18324     18334     18330     18327     18324     18334     18330     18331
     18324     18334     18330     18332     18324     18334     18336     18337
     18324     18338     18341     18342     18325     18324     18334     18330
     18325     18324     18334     18335     18325     18324     18334     18336
     18325     18324     18338     18339     18325     18324     18338     18340
     18325     18324     18338     18341     18326     18322     18327     18328
     18326     18322     18327     18329     18326     18322     18327     18330
     18326     18324     18334     18330     18326     18324     18334     18335
     18326     18324     18334     18336     18326     18324     18338     18339
     18326     18324     18338     18340     18326     18324     18338     18341
     18327     18329     18343     18344     18327     18329     18343     18347
     18327     18329     18343     18348     18327     18330     18332     18333
     18327     18330     18334     18335     18327     18330     18334     18336
     18328     18327     18329     18343     18328     18327     18330     18331
     18328     18327     18330     18332     18328     18327     18330     18334
     18329     18327     18330     18331     18329     18327     18330     18332
     18329     18327     18330     18334     18329     18343     18347     18345
     18329     18343     18348     18349     18329     18343     18348     18350
     18329     18343     18348     18351     18330     18327     18329     18343
     18330     18334     18324     18338     18330     18334     18336     18337
     18331     18330     18332     18333     18331     18330     18334     18335
     18331     18330     18334     18336     18332     18330     18334     18335
     18332     18330     18334     18336     18333     18332     18330     18334
     18334     18324     18338     18339     18334     18324     18338     18340
     18334     18324     18338     18341     18335     18334     18324     18338
     18335     18334     18336     18337     18336     18334     18324     18338
     18339     18338     18341     18342     18340     18338     18341     18342
     18343     18347     18345     18346     18343     18347     18345     18355
     18343     18347     18345     18359     18343     18348     18350     18363
     18343     18348     18351     18352     18343     18348     18351     18353
     18343     18348     18351     18355     18344     18343     18347     18345
     18344     18343     18348     18349     18344     18343     18348     18350
     18344     18343     18348     18351     18345     18347     18343     18348
     18345     18355     18351     18348     18345     18355     18351     18352
     18345     18355     18351     18353     18345     18355     18357     18358
     18346     18345     18355     18351     18346     18345     18355     18356
     18346     18345     18355     18357     18346     18345     18359     18360
     18346     18345     18359     18361     18346     18345     18359     18362
     18347     18343     18348     18349     18347     18343     18348     18350
     18347     18343     18348     18351     18347     18345     18355     18351
     18347     18345     18355     18356     18347     18345     18355     18357
     18347     18345     18359     18360     18347     18345     18359     18361
     18347     18345     18359     18362     18348     18350     18363     18364
     18348     18350     18363     18367     18348     18350     18363     18368
     18348     18351     18353     18354     18348     18351     18355     18356
     18348     18351     18355     18357     18349     18348     18350     18363
     18349     18348     18351     18352     18349     18348     18351     18353
     18349     18348     18351     18355     18350     18348     18351     18352
     18350     18348     18351     18353     18350     18348     18351     18355
     18350     18363     18367     18365     18350     18363     18368     18369
     18350     18363     18368     18370     18350     18363     18368     18371
     18351     18348     18350     18363     18351     18355     18345     18359
     18351     18355     18357     18358     18352     18351     18353     18354
     18352     18351     18355     18356     18352     18351     18355     18357
     18353     18351     18355     18356     18353     18351     18355     18357
     18354     18353     18351     18355     18355     18345     18359     18360
     18355     18345     18359     18361     18355     18345     18359     18362
     18356     18355     18345     18359     18356     18355     18357     18358
     18357     18355     18345     18359     18363     18367     18365     18366
     18363     18367     18365     18374     18363     18367     18365     18378
     18363     18368     18370     18382     18363     18368     18371     18372
     18363     18368     18371     18373     18363     18368     18371     18374
     18364     18363     18367     18365     18364     18363     18368     18369
     18364     18363     18368     18370     18364     18363     18368     18371
     18365     18367     18363     18368     18365     18374     18371     18368
     18365     18374     18371     18372     18365     18374     18371     18373
     18365     18374     18376     18377     18366     18365     18374     18371
     18366     18365     18374     18375     18366     18365     18374     18376
     18366     18365     18378     18379     18366     18365     18378     18380
     18366     18365     18378     18381     18367     18363     18368     18369
     18367     18363     18368     18370     18367     18363     18368     18371
     18367     18365     18374     18371     18367     18365     18374     18375
     18367     18365     18374     18376     18367     18365     18378     18379
     18367     18365     18378     18380     18367     18365     18378     18381
     18368     18370     18382     18383     18368     18370     18382     18386
     18368     18370     18382     18387     18368     18371     18373     18410
     18368     18371     18374     18375     18368     18371     18374     18376
     18369     18368     18370     18382     18369     18368     18371     18372
     18369     18368     18371     18373     18369     18368     18371     18374
     18370     18368     18371     18372     18370     18368     18371     18373
     18370     18368     18371     18374     18370     18382     18386     18384
     18370     18382     18387     18388     18370     18382     18387     18389
     18370     18382     18387     18397     18371     18368     18370     18382
     18371     18373     18410     18411     18371     18373     18410     18414
     18371     18373     18410     18415     18371     18374     18365     18378
     18371     18374     18376     18377     18372     18371     18373     18410
     18372     18371     18374     18375     18372     18371     18374     18376
     18373     18371     18374     18375     18373     18371     18374     18376
     18373     18410     18414     18412     18373     18410     18415     18416
     18373     18410     18415     18417     18373     18410     18415     18425
     18374     18365     18378     18379     18374     18365     18378     18380
     18374     18365     18378     18381     18374     18371     18373     18410
     18375     18374     18365     18378     18375     18374     18376     18377
     18376     18374     18365     18378     18382     18386     18384     18385
     18382     18386     18384     18401     18382     18386     18384     18405
     18382     18387     18389     18390     18382     18387     18389     18391
     18382     18387     18397     18398     18382     18387     18397     18399
     18382     18387     18397     18401     18383     18382     18386     18384
     18383     18382     18387     18388     18383     18382     18387     18389
     18383     18382     18387     18397     18384     18386     18382     18387
     18384     18401     18397     18387     18384     18401     18397     18398
     18384     18401     18397     18399     18384     18401     18403     18404
     18384     18405     18408     18409     18385     18384     18401     18397
     18385     18384     18401     18402     18385     18384     18401     18403
     18385     18384     18405     18406     18385     18384     18405     18407
     18385     18384     18405     18408     18386     18382     18387     18388
     18386     18382     18387     18389     18386     18382     18387     18397
     18386     18384     18401     18397     18386     18384     18401     18402
     18386     18384     18401     18403     18386     18384     18405     18406
     18386     18384     18405     18407     18386     18384     18405     18408
     18387     18389     18391     18392     18387     18389     18391     18393
     18387     18397     18399     18400     18387     18397     18401     18402
     18387     18397     18401     18403     18388     18387     18389     18390
     18388     18387     18389     18391     18388     18387     18397     18398
     18388     18387     18397     18399     18388     18387     18397     18401
     18389     18387     18397     18398     18389     18387     18397     18399
     18389     18387     18397     18401     18389     18391     18393     18394
     18389     18391     18393     18395     18389     18391     18393     18396
     18390     18389     18387     18397     18390     18389     18391     18392
     18390     18389     18391     18393     18391     18389     18387     18397
     18392     18391     18393     18394     18392     18391     18393     18395
     18392     18391     18393     18396     18397     18401     18384     18405
     18397     18401     18403     18404     18398     18397     18399     18400
     18398     18397     18401     18402     18398     18397     18401     18403
     18399     18397     18401     18402     18399     18397     18401     18403
     18400     18399     18397     18401     18401     18384     18405     18406
     18401     18384     18405     18407     18401     18384     18405     18408
     18402     18401     18384     18405     18402     18401     18403     18404
     18403     18401     18384     18405     18406     18405     18408     18409
     18407     18405     18408     18409     18410     18414     18412     18413
     18410     18414     18412     18428     18410     18414     18412     18432
     18410     18415     18417     18418     18410     18415     18417     18419
     18410     18415     18425     18426     18410     18415     18425     18427
     18410     18415     18425     18428     18411     18410     18414     18412
     18411     18410     18415     18416     18411     18410     18415     18417
     18411     18410     18415     18425     18412     18414     18410     18415
     18412     18428     18425     18415     18412     18428     18425     18426
     18412     18428     18425     18427     18412     18428     18430     18431
     18412     18432     18435     18436     18413     18412     18428     18425
     18413     18412     18428     18429     18413     18412     18428     18430
     18413     18412     18432     18433     18413     18412     18432     18434
     18413     18412     18432     18435     18414     18410     18415     18416
     18414     18410     18415     18417     18414     18410     18415     18425
     18414     18412     18428     18425     18414     18412     18428     18429
     18414     18412     18428     18430     18414     18412     18432     18433
     18414     18412     18432     18434     18414     18412     18432     18435
     18415     18417     18419     18420     18415     18417     18419     18421
     18415     18425     18427     18437     18415     18425     18428     18429
     18415     18425     18428     18430     18416     18415     18417     18418
     18416     18415     18417     18419     18416     18415     18425     18426
     18416     18415     18425     18427     18416     18415     18425     18428
     18417     18415     18425     18426     18417     18415     18425     18427
     18417     18415     18425     18428     18417     18419     18421     18422
     18417     18419     18421     18423     18417     18419     18421     18424
     18418     18417     18415     18425     18418     18417     18419     18420
     18418     18417     18419     18421     18419     18417     18415     18425
     18420     18419     18421     18422     18420     18419     18421     18423
     18420     18419     18421     18424     18425     18427     18437     18438
     18425     18427     18437     18441     18425     18427     18437     18442
     18425     18428     18412     18432     18425     18428     18430     18431
     18426     18425     18427     18437     18426     18425     18428     18429
     18426     18425     18428     18430     18427     18425     18428     18429
     18427     18425     18428     18430     18427     18437     18441     18439
     18427     18437     18442     18443     18427     18437     18442     18444
     18427     18437     18442     18445     18428     18412     18432     18433
     18428     18412     18432     18434     18428     18412     18432     18435
     18428     18425     18427     18437     18429     18428     18412     18432
     18429     18428     18430     18431     18430     18428     18412     18432
     18433     18432     18435     18436     18434     18432     18435     18436
     18437     18441     18439     18440     18437     18441     18439     18449
     18437     18441     18439     18453     18437     18442     18444     18458
     18437     18442     18445     18446     18437     18442     18445     18447
     18437     18442     18445     18449     18438     18437     18441     18439
     18438     18437     18442     18443     18438     18437     18442     18444
     18438     18437     18442     18445     18439     18441     18437     18442
     18439     18449     18445     18442     18439     18449     18445     18446
     18439     18449     18445     18447     18439     18449     18451     18452
     18439     18453     18456     18457     18440     18439     18449     18445
     18440     18439     18449     18450     18440     18439     18449     18451
     18440     18439     18453     18454     18440     18439     18453     18455
     18440     18439     18453     18456     18441     18437     18442     18443
     18441     18437     18442     18444     18441     18437     18442     18445
     18441     18439     18449     18445     18441     18439     18449     18450
     18441     18439     18449     18451     18441     18439     18453     18454
     18441     18439     18453     18455     18441     18439     18453     18456
     18442     18444     18458     18459     18442     18444     18458     18462
     18442     18444     18458     18463     18442     18445     18447     18448
     18442     18445     18449     18450     18442     18445     18449     18451
     18443     18442     18444     18458     18443     18442     18445     18446
     18443     18442     18445     18447     18443     18442     18445     18449
     18444     18442     18445     18446     18444     18442     18445     18447
     18444     18442     18445     18449     18444     18458     18462     18460
     18444     18458     18463     18464     18444     18458     18463     18465
     18444     18458     18463     18466     18445     18442     18444     18458
     18445     18449     18439     18453     18445     18449     18451     18452
     18446     18445     18447     18448     18446     18445     18449     18450
     18446     18445     18449     18451     18447     18445     18449     18450
     18447     18445     18449     18451     18448     18447     18445     18449
     18449     18439     18453     18454     18449     18439     18453     18455
     18449     18439     18453     18456     18450     18449     18439     18453
     18450     18449     18451     18452     18451     18449     18439     18453
     18454     18453     18456     18457     18455     18453     18456     18457
     18458     18462     18460     18461     18458     18462     18460     18470
     18458     18462     18460     18474     18458     18463     18465     18478
     18458     18463     18466     18467     18458     18463     18466     18468
     18458     18463     18466     18470     18459     18458     18462     18460
     18459     18458     18463     18464     18459     18458     18463     18465
     18459     18458     18463     18466     18460     18462     18458     18463
     18460     18470     18466     18463     18460     18470     18466     18467
     18460     18470     18466     18468     18460     18470     18472     18473
     18461     18460     18470     18466     18461     18460     18470     18471
     18461     18460     18470     18472     18461     18460     18474     18475
     18461     18460     18474     18476     18461     18460     18474     18477
     18462     18458     18463     18464     18462     18458     18463     18465
     18462     18458     18463     18466     18462     18460     18470     18466
     18462     18460     18470     18471     18462     18460     18470     18472
     18462     18460     18474     18475     18462     18460     18474     18476
     18462     18460     18474     18477     18463     18465     18478     18479
     18463     18465     18478     18482     18463     18465     18478     18483
     18463     18466     18468     18469     18463     18466     18470     18471
     18463     18466     18470     18472     18464     18463     18465     18478
     18464     18463     18466     18467     18464     18463     18466     18468
     18464     18463     18466     18470     18465     18463     18466     18467
     18465     18463     18466     18468     18465     18463     18466     18470
     18465     18478     18482     18480     18465     18478     18483     18484
     18465     18478     18483     18485     18465     18478     18483     18486
     18466     18463     18465     18478     18466     18470     18460     18474
     18466     18470     18472     18473     18467     18466     18468     18469
     18467     18466     18470     18471     18467     18466     18470     18472
     18468     18466     18470     18471     18468     18466     18470     18472
     18469     18468     18466     18470     18470     18460     18474     18475
     18470     18460     18474     18476     18470     18460     18474     18477
     18471     18470     18460     18474     18471     18470     18472     18473
     18472     18470     18460     18474     18478     18482     18480     18481
     18478     18482     18480     18489     18478     18482     18480     18493
     18478     18483     18485     18497     18478     18483     18486     18487
     18478     18483     18486     18488     18478     18483     18486     18489
     18479     18478     18482     18480     18479     18478     18483     18484
     18479     18478     18483     18485     18479     18478     18483     18486
     18480     18482     18478     18483     18480     18489     18486     18483
     18480     18489     18486     18487     18480     18489     18486     18488
     18480     18489     18491     18492     18481     18480     18489     18486
     18481     18480     18489     18490     18481     18480     18489     18491
     18481     18480     18493     18494     18481     18480     18493     18495
     18481     18480     18493     18496     18482     18478     18483     18484
     18482     18478     18483     18485     18482     18478     18483     18486
     18482     18480     18489     18486     18482     18480     18489     18490
     18482     18480     18489     18491     18482     18480     18493     18494
     18482     18480     18493     18495     18482     18480     18493     18496
     18483     18485     18497     18498     18483     18485     18497     18501
     18483     18485     18497     18502     18483     18486     18488     18525
     18483     18486     18489     18490     18483     18486     18489     18491
     18484     18483     18485     18497     18484     18483     18486     18487
     18484     18483     18486     18488     18484     18483     18486     18489
     18485     18483     18486     18487     18485     18483     18486     18488
     18485     18483     18486     18489     18485     18497     18501     18499
     18485     18497     18502     18503     18485     18497     18502     18504
     18485     18497     18502     18512     18486     18483     18485     18497
     18486     18488     18525     18526     18486     18488     18525     18529
     18486     18488     18525     18530     18486     18489     18480     18493
     18486     18489     18491     18492     18487     18486     18488     18525
     18487     18486     18489     18490     18487     18486     18489     18491
     18488     18486     18489     18490     18488     18486     18489     18491
     18488     18525     18529     18527     18488     18525     18530     18531
     18488     18525     18530     18532     18488     18525     18530     18540
     18489     18480     18493     18494     18489     18480     18493     18495
     18489     18480     18493     18496     18489     18486     18488     18525
     18490     18489     18480     18493     18490     18489     18491     18492
     18491     18489     18480     18493     18497     18501     18499     18500
     18497     18501     18499     18516     18497     18501     18499     18520
     18497     18502     18504     18505     18497     18502     18504     18506
     18497     18502     18512     18513     18497     18502     18512     18514
     18497     18502     18512     18516     18498     18497     18501     18499
     18498     18497     18502     18503     18498     18497     18502     18504
     18498     18497     18502     18512     18499     18501     18497     18502
     18499     18516     18512     18502     18499     18516     18512     18513
     18499     18516     18512     18514     18499     18516     18518     18519
     18499     18520     18523     18524     18500     18499     18516     18512
     18500     18499     18516     18517     18500     18499     18516     18518
     18500     18499     18520     18521     18500     18499     18520     18522
     18500     18499     18520     18523     18501     18497     18502     18503
     18501     18497     18502     18504     18501     18497     18502     18512
     18501     18499     18516     18512     18501     18499     18516     18517
     18501     18499     18516     18518     18501     18499     18520     18521
     18501     18499     18520     18522     18501     18499     18520     18523
     18502     18504     18506     18507     18502     18504     18506     18508
     18502     18512     18514     18515     18502     18512     18516     18517
     18502     18512     18516     18518     18503     18502     18504     18505
     18503     18502     18504     18506     18503     18502     18512     18513
     18503     18502     18512     18514     18503     18502     18512     18516
     18504     18502     18512     18513     18504     18502     18512     18514
     18504     18502     18512     18516     18504     18506     18508     18509
     18504     18506     18508     18510     18504     18506     18508     18511
     18505     18504     18502     18512     18505     18504     18506     18507
     18505     18504     18506     18508     18506     18504     18502     18512
     18507     18506     18508     18509     18507     18506     18508     18510
     18507     18506     18508     18511     18512     18516     18499     18520
     18512     18516     18518     18519     18513     18512     18514     18515
     18513     18512     18516     18517     18513     18512     18516     18518
     18514     18512     18516     18517     18514     18512     18516     18518
     18515     18514     18512     18516     18516     18499     18520     18521
     18516     18499     18520     18522     18516     18499     18520     18523
     18517     18516     18499     18520     18517     18516     18518     18519
     18518     18516     18499     18520     18521     18520     18523     18524
     18522     18520     18523     18524     18525     18529     18527     18528
     18525     18529     18527     18543     18525     18529     18527     18547
     18525     18530     18532     18533     18525     18530     18532     18534
     18525     18530     18540     18541     18525     18530     18540     18542
     18525     18530     18540     18543     18526     18525     18529     18527
     18526     18525     18530     18531     18526     18525     18530     18532
     18526     18525     18530     18540     18527     18529     18525     18530
     18527     18543     18540     18530     18527     18543     18540     18541
     18527     18543     18540     18542     18527     18543     18545     18546
     18527     18547     18550     18551     18528     18527     18543     18540
     18528     18527     18543     18544     18528     18527     18543     18545
     18528     18527     18547     18548     18528     18527     18547     18549
     18528     18527     18547     18550     18529     18525     18530     18531
     18529     18525     18530     18532     18529     18525     18530     18540
     18529     18527     18543     18540     18529     18527     18543     18544
     18529     18527     18543     18545     18529     18527     18547     18548
     18529     18527     18547     18549     18529     18527     18547     18550
     18530     18532     18534     18535     18530     18532     18534     18536
     18530     18540     18542     18552     18530     18540     18543     18544
     18530     18540     18543     18545     18531     18530     18532     18533
     18531     18530     18532     18534     18531     18530     18540     18541
     18531     18530     18540     18542     18531     18530     18540     18543
     18532     18530     18540     18541     18532     18530     18540     18542
     18532     18530     18540     18543     18532     18534     18536     18537
     18532     18534     18536     18538     18532     18534     18536     18539
     18533     18532     18530     18540     18533     18532     18534     18535
     18533     18532     18534     18536     18534     18532     18530     18540
     18535     18534     18536     18537     18535     18534     18536     18538
     18535     18534     18536     18539     18540     18542     18552     18553
     18540     18542     18552     18556     18540     18542     18552     18557
     18540     18543     18527     18547     18540     18543     18545     18546
     18541     18540     18542     18552     18541     18540     18543     18544
     18541     18540     18543     18545     18542     18540     18543     18544
     18542     18540     18543     18545     18542     18552     18556     18554
     18542     18552     18557     18558     18542     18552     18557     18559
     18542     18552     18557     18560     18543     18527     18547     18548
     18543     18527     18547     18549     18543     18527     18547     18550
     18543     18540     18542     18552     18544     18543     18527     18547
     18544     18543     18545     18546     18545     18543     18527     18547
     18548     18547     18550     18551     18549     18547     18550     18551
     18552     18556     18554     18555     18552     18556     18554     18564
     18552     18556     18554     18568     18552     18557     18559     18573
     18552     18557     18560     18561     18552     18557     18560     18562
     18552     18557     18560     18564     18553     18552     18556     18554
     18553     18552     18557     18558     18553     18552     18557     18559
     18553     18552     18557     18560     18554     18556     18552     18557
     18554     18564     18560     18557     18554     18564     18560     18561
     18554     18564     18560     18562     18554     18564     18566     18567
     18554     18568     18571     18572     18555     18554     18564     18560
     18555     18554     18564     18565     18555     18554     18564     18566
     18555     18554     18568     18569     18555     18554     18568     18570
     18555     18554     18568     18571     18556     18552     18557     18558
     18556     18552     18557     18559     18556     18552     18557     18560
     18556     18554     18564     18560     18556     18554     18564     18565
     18556     18554     18564     18566     18556     18554     18568     18569
     18556     18554     18568     18570     18556     18554     18568     18571
     18557     18559     18573     18574     18557     18559     18573     18577
     18557     18559     18573     18578     18557     18560     18562     18563
     18557     18560     18564     18565     18557     18560     18564     18566
     18558     18557     18559     18573     18558     18557     18560     18561
     18558     18557     18560     18562     18558     18557     18560     18564
     18559     18557     18560     18561     18559     18557     18560     18562
     18559     18557     18560     18564     18559     18573     18577     18575
     18559     18573     18578     18579     18559     18573     18578     18580
     18559     18573     18578     18581     18560     18557     18559     18573
     18560     18564     18554     18568     18560     18564     18566     18567
     18561     18560     18562     18563     18561     18560     18564     18565
     18561     18560     18564     18566     18562     18560     18564     18565
     18562     18560     18564     18566     18563     18562     18560     18564
     18564     18554     18568     18569     18564     18554     18568     18570
     18564     18554     18568     18571     18565     18564     18554     18568
     18565     18564     18566     18567     18566     18564     18554     18568
     18569     18568     18571     18572     18570     18568     18571     18572
     18573     18577     18575     18576     18573     18577     18575     18585
     18573     18577     18575     18589     18573     18578     18580     18593
     18573     18578     18581     18582     18573     18578     18581     18583
     18573     18578     18581     18585     18574     18573     18577     18575
     18574     18573     18578     18579     18574     18573     18578     18580
     18574     18573     18578     18581     18575     18577     18573     18578
     18575     18585     18581     18578     18575     18585     18581     18582
     18575     18585     18581     18583     18575     18585     18587     18588
     18576     18575     18585     18581     18576     18575     18585     18586
     18576     18575     18585     18587     18576     18575     18589     18590
     18576     18575     18589     18591     18576     18575     18589     18592
     18577     18573     18578     18579     18577     18573     18578     18580
     18577     18573     18578     18581     18577     18575     18585     18581
     18577     18575     18585     18586     18577     18575     18585     18587
     18577     18575     18589     18590     18577     18575     18589     18591
     18577     18575     18589     18592     18578     18580     18593     18594
     18578     18580     18593     18597     18578     18580     18593     18598
     18578     18581     18583     18584     18578     18581     18585     18586
     18578     18581     18585     18587     18579     18578     18580     18593
     18579     18578     18581     18582     18579     18578     18581     18583
     18579     18578     18581     18585     18580     18578     18581     18582
     18580     18578     18581     18583     18580     18578     18581     18585
     18580     18593     18597     18595     18580     18593     18598     18599
     18580     18593     18598     18600     18580     18593     18598     18601
     18581     18578     18580     18593     18581     18585     18575     18589
     18581     18585     18587     18588     18582     18581     18583     18584
     18582     18581     18585     18586     18582     18581     18585     18587
     18583     18581     18585     18586     18583     18581     18585     18587
     18584     18583     18581     18585     18585     18575     18589     18590
     18585     18575     18589     18591     18585     18575     18589     18592
     18586     18585     18575     18589     18586     18585     18587     18588
     18587     18585     18575     18589     18593     18597     18595     18596
     18593     18597     18595     18604     18593     18597     18595     18608
     18593     18598     18600     18612     18593     18598     18601     18602
     18593     18598     18601     18603     18593     18598     18601     18604
     18594     18593     18597     18595     18594     18593     18598     18599
     18594     18593     18598     18600     18594     18593     18598     18601
     18595     18597     18593     18598     18595     18604     18601     18598
     18595     18604     18601     18602     18595     18604     18601     18603
     18595     18604     18606     18607     18596     18595     18604     18601
     18596     18595     18604     18605     18596     18595     18604     18606
     18596     18595     18608     18609     18596     18595     18608     18610
     18596     18595     18608     18611     18597     18593     18598     18599
     18597     18593     18598     18600     18597     18593     18598     18601
     18597     18595     18604     18601     18597     18595     18604     18605
     18597     18595     18604     18606     18597     18595     18608     18609
     18597     18595     18608     18610     18597     18595     18608     18611
     18598     18600     18612     18613     18598     18600     18612     18616
     18598     18600     18612     18617     18598     18601     18603     18640
     18598     18601     18604     18605     18598     18601     18604     18606
     18599     18598     18600     18612     18599     18598     18601     18602
     18599     18598     18601     18603     18599     18598     18601     18604
     18600     18598     18601     18602     18600     18598     18601     18603
     18600     18598     18601     18604     18600     18612     18616     18614
     18600     18612     18617     18618     18600     18612     18617     18619
     18600     18612     18617     18627     18601     18598     18600     18612
     18601     18603     18640     18641     18601     18603     18640     18644
     18601     18603     18640     18645     18601     18604     18595     18608
     18601     18604     18606     18607     18602     18601     18603     18640
     18602     18601     18604     18605     18602     18601     18604     18606
     18603     18601     18604     18605     18603     18601     18604     18606
     18603     18640     18644     18642     18603     18640     18645     18646
     18603     18640     18645     18647     18603     18640     18645     18655
     18604     18595     18608     18609     18604     18595     18608     18610
     18604     18595     18608     18611     18604     18601     18603     18640
     18605     18604     18595     18608     18605     18604     18606     18607
     18606     18604     18595     18608     18612     18616     18614     18615
     18612     18616     18614     18631     18612     18616     18614     18635
     18612     18617     18619     18620     18612     18617     18619     18621
     18612     18617     18627     18628     18612     18617     18627     18629
     18612     18617     18627     18631     18613     18612     18616     18614
     18613     18612     18617     18618     18613     18612     18617     18619
     18613     18612     18617     18627     18614     18616     18612     18617
     18614     18631     18627     18617     18614     18631     18627     18628
     18614     18631     18627     18629     18614     18631     18633     18634
     18614     18635     18638     18639     18615     18614     18631     18627
     18615     18614     18631     18632     18615     18614     18631     18633
     18615     18614     18635     18636     18615     18614     18635     18637
     18615     18614     18635     18638     18616     18612     18617     18618
     18616     18612     18617     18619     18616     18612     18617     18627
     18616     18614     18631     18627     18616     18614     18631     18632
     18616     18614     18631     18633     18616     18614     18635     18636
     18616     18614     18635     18637     18616     18614     18635     18638
     18617     18619     18621     18622     18617     18619     18621     18623
     18617     18627     18629     18630     18617     18627     18631     18632
     18617     18627     18631     18633     18618     18617     18619     18620
     18618     18617     18619     18621     18618     18617     18627     18628
     18618     18617     18627     18629     18618     18617     18627     18631
     18619     18617     18627     18628     18619     18617     18627     18629
     18619     18617     18627     18631     18619     18621     18623     18624
     18619     18621     18623     18625     18619     18621     18623     18626
     18620     18619     18617     18627     18620     18619     18621     18622
     18620     18619     18621     18623     18621     18619     18617     18627
     18622     18621     18623     18624     18622     18621     18623     18625
     18622     18621     18623     18626     18627     18631     18614     18635
     18627     18631     18633     18634     18628     18627     18629     18630
     18628     18627     18631     18632     18628     18627     18631     18633
     18629     18627     18631     18632     18629     18627     18631     18633
     18630     18629     18627     18631     18631     18614     18635     18636
     18631     18614     18635     18637     18631     18614     18635     18638
     18632     18631     18614     18635     18632     18631     18633     18634
     18633     18631     18614     18635     18636     18635     18638     18639
     18637     18635     18638     18639     18640     18644     18642     18643
     18640     18644     18642     18658     18640     18644     18642     18662
     18640     18645     18647     18648     18640     18645     18647     18649
     18640     18645     18655     18656     18640     18645     18655     18657
     18640     18645     18655     18658     18641     18640     18644     18642
     18641     18640     18645     18646     18641     18640     18645     18647
     18641     18640     18645     18655     18642     18644     18640     18645
     18642     18658     18655     18645     18642     18658     18655     18656
     18642     18658     18655     18657     18642     18658     18660     18661
     18642     18662     18665     18666     18643     18642     18658     18655
     18643     18642     18658     18659     18643     18642     18658     18660
     18643     18642     18662     18663     18643     18642     18662     18664
     18643     18642     18662     18665     18644     18640     18645     18646
     18644     18640     18645     18647     18644     18640     18645     18655
     18644     18642     18658     18655     18644     18642     18658     18659
     18644     18642     18658     18660     18644     18642     18662     18663
     18644     18642     18662     18664     18644     18642     18662     18665
     18645     18647     18649     18650     18645     18647     18649     18651
     18645     18655     18657     18667     18645     18655     18658     18659
     18645     18655     18658     18660     18646     18645     18647     18648
     18646     18645     18647     18649     18646     18645     18655     18656
     18646     18645     18655     18657     18646     18645     18655     18658
     18647     18645     18655     18656     18647     18645     18655     18657
     18647     18645     18655     18658     18647     18649     18651     18652
     18647     18649     18651     18653     18647     18649     18651     18654
     18648     18647     18645     18655     18648     18647     18649     18650
     18648     18647     18649     18651     18649     18647     18645     18655
     18650     18649     18651     18652     18650     18649     18651     18653
     18650     18649     18651     18654     18655     18657     18667     18668
     18655     18657     18667     18671     18655     18657     18667     18672
     18655     18658     18642     18662     18655     18658     18660     18661
     18656     18655     18657     18667     18656     18655     18658     18659
     18656     18655     18658     18660     18657     18655     18658     18659
     18657     18655     18658     18660     18657     18667     18671     18669
     18657     18667     18672     18673     18657     18667     18672     18674
     18657     18667     18672     18675     18658     18642     18662     18663
     18658     18642     18662     18664     18658     18642     18662     18665
     18658     18655     18657     18667     18659     18658     18642     18662
     18659     18658     18660     18661     18660     18658     18642     18662
     18663     18662     18665     18666     18664     18662     18665     18666
     18667     18671     18669     18670     18667     18671     18669     18679
     18667     18671     18669     18683     18667     18672     18674     18688
     18667     18672     18675     18676     18667     18672     18675     18677
     18667     18672     18675     18679     18668     18667     18671     18669
     18668     18667     18672     18673     18668     18667     18672     18674
     18668     18667     18672     18675     18669     18671     18667     18672
     18669     18679     18675     18672     18669     18679     18675     18676
     18669     18679     18675     18677     18669     18679     18681     18682
     18669     18683     18686     18687     18670     18669     18679     18675
     18670     18669     18679     18680     18670     18669     18679     18681
     18670     18669     18683     18684     18670     18669     18683     18685
     18670     18669     18683     18686     18671     18667     18672     18673
     18671     18667     18672     18674     18671     18667     18672     18675
     18671     18669     18679     18675     18671     18669     18679     18680
     18671     18669     18679     18681     18671     18669     18683     18684
     18671     18669     18683     18685     18671     18669     18683     18686
     18672     18674     18688     18689     18672     18674     18688     18692
     18672     18674     18688     18693     18672     18675     18677     18678
     18672     18675     18679     18680     18672     18675     18679     18681
     18673     18672     18674     18688     18673     18672     18675     18676
     18673     18672     18675     18677     18673     18672     18675     18679
     18674     18672     18675     18676     18674     18672     18675     18677
     18674     18672     18675     18679     18674     18688     18692     18690
     18674     18688     18693     18694     18674     18688     18693     18695
     18674     18688     18693     18696     18675     18672     18674     18688
     18675     18679     18669     18683     18675     18679     18681     18682
     18676     18675     18677     18678     18676     18675     18679     18680
     18676     18675     18679     18681     18677     18675     18679     18680
     18677     18675     18679     18681     18678     18677     18675     18679
     18679     18669     18683     18684     18679     18669     18683     18685
     18679     18669     18683     18686     18680     18679     18669     18683
     18680     18679     18681     18682     18681     18679     18669     18683
     18684     18683     18686     18687     18685     18683     18686     18687
     18688     18692     18690     18691     18688     18692     18690     18700
     18688     18692     18690     18704     18688     18693     18695     18708
     18688     18693     18696     18697     18688     18693     18696     18698
     18688     18693     18696     18700     18689     18688     18692     18690
     18689     18688     18693     18694     18689     18688     18693     18695
     18689     18688     18693     18696     18690     18692     18688     18693
     18690     18700     18696     18693     18690     18700     18696     18697
     18690     18700     18696     18698     18690     18700     18702     18703
     18691     18690     18700     18696     18691     18690     18700     18701
     18691     18690     18700     18702     18691     18690     18704     18705
     18691     18690     18704     18706     18691     18690     18704     18707
     18692     18688     18693     18694     18692     18688     18693     18695
     18692     18688     18693     18696     18692     18690     18700     18696
     18692     18690     18700     18701     18692     18690     18700     18702
     18692     18690     18704     18705     18692     18690     18704     18706
     18692     18690     18704     18707     18693     18695     18708     18709
     18693     18695     18708     18712     18693     18695     18708     18713
     18693     18696     18698     18699     18693     18696     18700     18701
     18693     18696     18700     18702     18694     18693     18695     18708
     18694     18693     18696     18697     18694     18693     18696     18698
     18694     18693     18696     18700     18695     18693     18696     18697
     18695     18693     18696     18698     18695     18693     18696     18700
     18695     18708     18712     18710     18695     18708     18713     18714
     18695     18708     18713     18715     18695     18708     18713     18716
     18696     18693     18695     18708     18696     18700     18690     18704
     18696     18700     18702     18703     18697     18696     18698     18699
     18697     18696     18700     18701     18697     18696     18700     18702
     18698     18696     18700     18701     18698     18696     18700     18702
     18699     18698     18696     18700     18700     18690     18704     18705
     18700     18690     18704     18706     18700     18690     18704     18707
     18701     18700     18690     18704     18701     18700     18702     18703
     18702     18700     18690     18704     18708     18712     18710     18711
     18708     18712     18710     18719     18708     18712     18710     18723
     18708     18713     18715     18727     18708     18713     18716     18717
     18708     18713     18716     18718     18708     18713     18716     18719
     18709     18708     18712     18710     18709     18708     18713     18714
     18709     18708     18713     18715     18709     18708     18713     18716
     18710     18712     18708     18713     18710     18719     18716     18713
     18710     18719     18716     18717     18710     18719     18716     18718
     18710     18719     18721     18722     18711     18710     18719     18716
     18711     18710     18719     18720     18711     18710     18719     18721
     18711     18710     18723     18724     18711     18710     18723     18725
     18711     18710     18723     18726     18712     18708     18713     18714
     18712     18708     18713     18715     18712     18708     18713     18716
     18712     18710     18719     18716     18712     18710     18719     18720
     18712     18710     18719     18721     18712     18710     18723     18724
     18712     18710     18723     18725     18712     18710     18723     18726
     18713     18715     18727     18728     18713     18715     18727     18731
     18713     18715     18727     18732     18713     18716     18718     18755
     18713     18716     18719     18720     18713     18716     18719     18721
     18714     18713     18715     18727     18714     18713     18716     18717
     18714     18713     18716     18718     18714     18713     18716     18719
     18715     18713     18716     18717     18715     18713     18716     18718
     18715     18713     18716     18719     18715     18727     18731     18729
     18715     18727     18732     18733     18715     18727     18732     18734
     18715     18727     18732     18742     18716     18713     18715     18727
     18716     18718     18755     18756     18716     18718     18755     18759
     18716     18718     18755     18760     18716     18719     18710     18723
     18716     18719     18721     18722     18717     18716     18718     18755
     18717     18716     18719     18720     18717     18716     18719     18721
     18718     18716     18719     18720     18718     18716     18719     18721
     18718     18755     18759     18757     18718     18755     18760     18761
     18718     18755     18760     18762     18718     18755     18760     18770
     18719     18710     18723     18724     18719     18710     18723     18725
     18719     18710     18723     18726     18719     18716     18718     18755
     18720     18719     18710     18723     18720     18719     18721     18722
     18721     18719     18710     18723     18727     18731     18729     18730
     18727     18731     18729     18746     18727     18731     18729     18750
     18727     18732     18734     18735     18727     18732     18734     18736
     18727     18732     18742     18743     18727     18732     18742     18744
     18727     18732     18742     18746     18728     18727     18731     18729
     18728     18727     18732     18733     18728     18727     18732     18734
     18728     18727     18732     18742     18729     18731     18727     18732
     18729     18746     18742     18732     18729     18746     18742     18743
     18729     18746     18742     18744     18729     18746     18748     18749
     18729     18750     18753     18754     18730     18729     18746     18742
     18730     18729     18746     18747     18730     18729     18746     18748
     18730     18729     18750     18751     18730     18729     18750     18752
     18730     18729     18750     18753     18731     18727     18732     18733
     18731     18727     18732     18734     18731     18727     18732     18742
     18731     18729     18746     18742     18731     18729     18746     18747
     18731     18729     18746     18748     18731     18729     18750     18751
     18731     18729     18750     18752     18731     18729     18750     18753
     18732     18734     18736     18737     18732     18734     18736     18738
     18732     18742     18744     18745     18732     18742     18746     18747
     18732     18742     18746     18748     18733     18732     18734     18735
     18733     18732     18734     18736     18733     18732     18742     18743
     18733     18732     18742     18744     18733     18732     18742     18746
     18734     18732     18742     18743     18734     18732     18742     18744
     18734     18732     18742     18746     18734     18736     18738     18739
     18734     18736     18738     18740     18734     18736     18738     18741
     18735     18734     18732     18742     18735     18734     18736     18737
     18735     18734     18736     18738     18736     18734     18732     18742
     18737     18736     18738     18739     18737     18736     18738     18740
     18737     18736     18738     18741     18742     18746     18729     18750
     18742     18746     18748     18749     18743     18742     18744     18745
     18743     18742     18746     18747     18743     18742     18746     18748
     18744     18742     18746     18747     18744     18742     18746     18748
     18745     18744     18742     18746     18746     18729     18750     18751
     18746     18729     18750     18752     18746     18729     18750     18753
     18747     18746     18729     18750     18747     18746     18748     18749
     18748     18746     18729     18750     18751     18750     18753     18754
     18752     18750     18753     18754     18755     18759     18757     18758
     18755     18759     18757     18773     18755     18759     18757     18777
     18755     18760     18762     18763     18755     18760     18762     18764
     18755     18760     18770     18771     18755     18760     18770     18772
     18755     18760     18770     18773     18756     18755     18759     18757
     18756     18755     18760     18761     18756     18755     18760     18762
     18756     18755     18760     18770     18757     18759     18755     18760
     18757     18773     18770     18760     18757     18773     18770     18771
     18757     18773     18770     18772     18757     18773     18775     18776
     18757     18777     18780     18781     18758     18757     18773     18770
     18758     18757     18773     18774     18758     18757     18773     18775
     18758     18757     18777     18778     18758     18757     18777     18779
     18758     18757     18777     18780     18759     18755     18760     18761
     18759     18755     18760     18762     18759     18755     18760     18770
     18759     18757     18773     18770     18759     18757     18773     18774
     18759     18757     18773     18775     18759     18757     18777     18778
     18759     18757     18777     18779     18759     18757     18777     18780
     18760     18762     18764     18765     18760     18762     18764     18766
     18760     18770     18772     18782     18760     18770     18773     18774
     18760     18770     18773     18775     18761     18760     18762     18763
     18761     18760     18762     18764     18761     18760     18770     18771
     18761     18760     18770     18772     18761     18760     18770     18773
     18762     18760     18770     18771     18762     18760     18770     18772
     18762     18760     18770     18773     18762     18764     18766     18767
     18762     18764     18766     18768     18762     18764     18766     18769
     18763     18762     18760     18770     18763     18762     18764     18765
     18763     18762     18764     18766     18764     18762     18760     18770
     18765     18764     18766     18767     18765     18764     18766     18768
     18765     18764     18766     18769     18770     18772     18782     18783
     18770     18772     18782     18786     18770     18772     18782     18787
     18770     18773     18757     18777     18770     18773     18775     18776
     18771     18770     18772     18782     18771     18770     18773     18774
     18771     18770     18773     18775     18772     18770     18773     18774
     18772     18770     18773     18775     18772     18782     18786     18784
     18772     18782     18787     18788     18772     18782     18787     18789
     18772     18782     18787     18790     18773     18757     18777     18778
     18773     18757     18777     18779     18773     18757     18777     18780
     18773     18770     18772     18782     18774     18773     18757     18777
     18774     18773     18775     18776     18775     18773     18757     18777
     18778     18777     18780     18781     18779     18777     18780     18781
     18782     18786     18784     18785     18782     18786     18784     18794
     18782     18786     18784     18798     18782     18787     18789     18803
     18782     18787     18790     18791     18782     18787     18790     18792
     18782     18787     18790     18794     18783     18782     18786     18784
     18783     18782     18787     18788     18783     18782     18787     18789
     18783     18782     18787     18790     18784     18786     18782     18787
     18784     18794     18790     18787     18784     18794     18790     18791
     18784     18794     18790     18792     18784     18794     18796     18797
     18784     18798     18801     18802     18785     18784     18794     18790
     18785     18784     18794     18795     18785     18784     18794     18796
     18785     18784     18798     18799     18785     18784     18798     18800
     18785     18784     18798     18801     18786     18782     18787     18788
     18786     18782     18787     18789     18786     18782     18787     18790
     18786     18784     18794     18790     18786     18784     18794     18795
     18786     18784     18794     18796     18786     18784     18798     18799
     18786     18784     18798     18800     18786     18784     18798     18801
     18787     18789     18803     18804     18787     18789     18803     18807
     18787     18789     18803     18808     18787     18790     18792     18793
     18787     18790     18794     18795     18787     18790     18794     18796
     18788     18787     18789     18803     18788     18787     18790     18791
     18788     18787     18790     18792     18788     18787     18790     18794
     18789     18787     18790     18791     18789     18787     18790     18792
     18789     18787     18790     18794     18789     18803     18807     18805
     18789     18803     18808     18809     18789     18803     18808     18810
     18789     18803     18808     18811     18790     18787     18789     18803
     18790     18794     18784     18798     18790     18794     18796     18797
     18791     18790     18792     18793     18791     18790     18794     18795
     18791     18790     18794     18796     18792     18790     18794     18795
     18792     18790     18794     18796     18793     18792     18790     18794
     18794     18784     18798     18799     18794     18784     18798     18800
     18794     18784     18798     18801     18795     18794     18784     18798
     18795     18794     18796     18797     18796     18794     18784     18798
     18799     18798     18801     18802     18800     18798     18801     18802
     18803     18807     18805     18806     18803     18807     18805     18815
     18803     18807     18805     18819     18803     18808     18810     18823
     18803     18808     18811     18812     18803     18808     18811     18813
     18803     18808     18811     18815     18804     18803     18807     18805
     18804     18803     18808     18809     18804     18803     18808     18810
     18804     18803     18808     18811     18805     18807     18803     18808
     18805     18815     18811     18808     18805     18815     18811     18812
     18805     18815     18811     18813     18805     18815     18817     18818
     18806     18805     18815     18811     18806     18805     18815     18816
     18806     18805     18815     18817     18806     18805     18819     18820
     18806     18805     18819     18821     18806     18805     18819     18822
     18807     18803     18808     18809     18807     18803     18808     18810
     18807     18803     18808     18811     18807     18805     18815     18811
     18807     18805     18815     18816     18807     18805     18815     18817
     18807     18805     18819     18820     18807     18805     18819     18821
     18807     18805     18819     18822     18808     18810     18823     18824
     18808     18810     18823     18827     18808     18810     18823     18828
     18808     18811     18813     18814     18808     18811     18815     18816
     18808     18811     18815     18817     18809     18808     18810     18823
     18809     18808     18811     18812     18809     18808     18811     18813
     18809     18808     18811     18815     18810     18808     18811     18812
     18810     18808     18811     18813     18810     18808     18811     18815
     18810     18823     18827     18825     18810     18823     18828     18829
     18810     18823     18828     18830     18810     18823     18828     18831
     18811     18808     18810     18823     18811     18815     18805     18819
     18811     18815     18817     18818     18812     18811     18813     18814
     18812     18811     18815     18816     18812     18811     18815     18817
     18813     18811     18815     18816     18813     18811     18815     18817
     18814     18813     18811     18815     18815     18805     18819     18820
     18815     18805     18819     18821     18815     18805     18819     18822
     18816     18815     18805     18819     18816     18815     18817     18818
     18817     18815     18805     18819     18823     18827     18825     18826
     18823     18827     18825     18835     18823     18827     18825     18839
     18823     18828     18830     18843     18823     18828     18831     18832
     18823     18828     18831     18833     18823     18828     18831     18835
     18824     18823     18827     18825     18824     18823     18828     18829
     18824     18823     18828     18830     18824     18823     18828     18831
     18825     18827     18823     18828     18825     18835     18831     18828
     18825     18835     18831     18832     18825     18835     18831     18833
     18825     18835     18837     18838     18826     18825     18835     18831
     18826     18825     18835     18836     18826     18825     18835     18837
     18826     18825     18839     18840     18826     18825     18839     18841
     18826     18825     18839     18842     18827     18823     18828     18829
     18827     18823     18828     18830     18827     18823     18828     18831
     18827     18825     18835     18831     18827     18825     18835     18836
     18827     18825     18835     18837     18827     18825     18839     18840
     18827     18825     18839     18841     18827     18825     18839     18842
     18828     18830     18843     18844     18828     18830     18843     18847
     18828     18830     18843     18848     18828     18831     18833     18834
     18828     18831     18835     18836     18828     18831     18835     18837
     18829     18828     18830     18843     18829     18828     18831     18832
     18829     18828     18831     18833     18829     18828     18831     18835
     18830     18828     18831     18832     18830     18828     18831     18833
     18830     18828     18831     18835     18830     18843     18847     18845
     18830     18843     18848     18849     18830     18843     18848     18850
     18830     18843     18848     18858     18831     18828     18830     18843
     18831     18835     18825     18839     18831     18835     18837     18838
     18832     18831     18833     18834     18832     18831     18835     18836
     18832     18831     18835     18837     18833     18831     18835     18836
     18833     18831     18835     18837     18834     18833     18831     18835
     18835     18825     18839     18840     18835     18825     18839     18841
     18835     18825     18839     18842     18836     18835     18825     18839
     18836     18835     18837     18838     18837     18835     18825     18839
     18843     18847     18845     18846     18843     18847     18845     18862
     18843     18847     18845     18866     18843     18848     18850     18851
     18843     18848     18850     18852     18843     18848     18858     18859
     18843     18848     18858     18860     18843     18848     18858     18862
     18844     18843     18847     18845     18844     18843     18848     18849
     18844     18843     18848     18850     18844     18843     18848     18858
     18845     18847     18843     18848     18845     18862     18858     18848
     18845     18862     18858     18859     18845     18862     18858     18860
     18845     18862     18864     18865     18845     18866     18869     18870
     18846     18845     18862     18858     18846     18845     18862     18863
     18846     18845     18862     18864     18846     18845     18866     18867
     18846     18845     18866     18868     18846     18845     18866     18869
     18847     18843     18848     18849     18847     18843     18848     18850
     18847     18843     18848     18858     18847     18845     18862     18858
     18847     18845     18862     18863     18847     18845     18862     18864
     18847     18845     18866     18867     18847     18845     18866     18868
     18847     18845     18866     18869     18848     18850     18852     18853
     18848     18850     18852     18854     18848     18858     18860     18861
     18848     18858     18862     18863     18848     18858     18862     18864
     18849     18848     18850     18851     18849     18848     18850     18852
     18849     18848     18858     18859     18849     18848     18858     18860
     18849     18848     18858     18862     18850     18848     18858     18859
     18850     18848     18858     18860     18850     18848     18858     18862
     18850     18852     18854     18855     18850     18852     18854     18856
     18850     18852     18854     18857     18851     18850     18848     18858
     18851     18850     18852     18853     18851     18850     18852     18854
     18852     18850     18848     18858     18853     18852     18854     18855
     18853     18852     18854     18856     18853     18852     18854     18857
     18858     18862     18845     18866     18858     18862     18864     18865
     18859     18858     18860     18861     18859     18858     18862     18863
     18859     18858     18862     18864     18860     18858     18862     18863
     18860     18858     18862     18864     18861     18860     18858     18862
     18862     18845     18866     18867     18862     18845     18866     18868
     18862     18845     18866     18869     18863     18862     18845     18866
     18863     18862     18864     18865     18864     18862     18845     18866
     18867     18866     18869     18870     18868     18866     18869     18870
     18871     18873     18872     19170     18871     18873     18875     18876
     18871     18873     18875     18877     18871     18873     18875     18884
     18872     18873     18875     18876     18872     18873     18875     18877
     18872     18873     18875     18884     18872     19170     19167     19168
     18872     19170     19167     19169     18872     19170     19173     19171
     18872     19170     19174     19175     18872     19170     19174     19176
     18872     19170     19174     19177     18873     18872     19170     19167
     18873     18872     19170     19173     18873     18872     19170     19174
     18873     18875     18876     18878     18873     18875     18884     18885
     18873     18875     18884     18886     18873     18875     18884     18891
     18874     18873     18872     19170     18874     18873     18875     18876
     18874     18873     18875     18877     18874     18873     18875     18884
     18875     18873     18872     19170     18875     18876     18878     18879
     18875     18876     18878     18880     18875     18876     18878     18899
     18875     18884     18886     18887     18875     18884     18891     18892
     18875     18884     18891     18893     18875     18884     18891     18899
     18876     18875     18884     18885     18876     18875     18884     18886
     18876     18875     18884     18891     18876     18878     18880     18881
     18876     18878     18899     18891     18876     18878     18899     18900
     18876     18878     18899     18901     18877     18875     18876     18878
     18877     18875     18884     18885     18877     18875     18884     18886
     18877     18875     18884     18891     18878     18876     18875     18884
     18878     18880     18881     18882     18878     18880     18881     18883
     18878     18880     18881     18907     18878     18899     18891     18884
     18878     18899     18891     18892     18878     18899     18891     18893
     18878     18899     18901     18902     18878     18899     18901     19008
     18879     18878     18880     18881     18879     18878     18899     18891
     18879     18878     18899     18900     18879     18878     18899     18901
     18880     18878     18899     18891     18880     18878     18899     18900
     18880     18878     18899     18901     18880     18881     18907     18903
     18880     18881     18907     18908     18880     18881     18907     18909
     18881     18880     18878     18899     18881     18907     18903     18904
     18881     18907     18903     18905     18881     18907     18903     18917
     18881     18907     18909     18910     18882     18881     18907     18903
     18882     18881     18907     18908     18882     18881     18907     18909
     18883     18881     18907     18903     18883     18881     18907     18908
     18883     18881     18907     18909     18884     18886     18887     18888
     18884     18886     18887     18889     18884     18886     18887     18890
     18884     18891     18892     18894     18884     18891     18899     18900
     18884     18891     18899     18901     18885     18884     18886     18887
     18885     18884     18891     18892     18885     18884     18891     18893
     18885     18884     18891     18899     18886     18884     18891     18892
     18886     18884     18891     18893     18886     18884     18891     18899
     18887     18886     18884     18891     18891     18892     18894     18895
     18891     18892     18894     18896     18891     18899     18901     18902
     18891     18899     18901     19008     18892     18891     18899     18900
     18892     18891     18899     18901     18892     18894     18896     18897
     18892     18894     18896     18898     18892     18894     18896     18929
     18893     18891     18892     18894     18893     18891     18899     18900
     18893     18891     18899     18901     18894     18892     18891     18899
     18894     18896     18929     18930     18894     18896     18929     18931
     18894     18896     18929     18974     18895     18894     18896     18897
     18895     18894     18896     18898     18895     18894     18896     18929
     18896     18929     18931     18932     18896     18929     18974     18975
     18896     18929     18974     18976     18896     18929     18974     18977
     18897     18896     18929     18930     18897     18896     18929     18931
     18897     18896     18929     18974     18898     18896     18929     18930
     18898     18896     18929     18931     18898     18896     18929     18974
     18899     18901     19008     19009     18899     18901     19008     19010
     18900     18899     18901     18902     18900     18899     18901     19008
     18901     19008     19010     19011     18901     19008     19010     19012
     18901     19008     19010     19013     18902     18901     19008     19009
     18902     18901     19008     19010     18903     18907     18909     18910
     18903     18917     18919     18920     18903     18917     18925     18910
     18903     18917     18925     18926     18903     18917     18925     18927
     18904     18903     18905     18906     18904     18903     18907     18908
     18904     18903     18907     18909     18904     18903     18917     18918
     18904     18903     18917     18919     18904     18903     18917     18925
     18905     18903     18907     18908     18905     18903     18907     18909
     18905     18903     18917     18918     18905     18903     18917     18919
     18905     18903     18917     18925     18906     18905     18903     18907
     18906     18905     18903     18917     18907     18903     18917     18918
     18907     18903     18917     18919     18907     18903     18917     18925
     18907     18909     18910     18911     18907     18909     18910     18912
     18907     18909     18910     18925     18908     18907     18903     18917
     18908     18907     18909     18910     18909     18907     18903     18917
     18909     18910     18912     18916     18909     18910     18925     18917
     18909     18910     18925     18926     18909     18910     18925     18927
     18910     18912     18916     18913     18910     18912     18916     18914
     18910     18912     18916     18915     18910     18925     18917     18918
     18910     18925     18917     18919     18910     18925     18927     18928
     18910     18925     18927     19124     18911     18910     18912     18916
     18911     18910     18925     18917     18911     18910     18925     18926
     18911     18910     18925     18927     18912     18910     18925     18917
     18912     18910     18925     18926     18912     18910     18925     18927
     18916     18912     18910     18925     18917     18919     18920     18921
     18917     18919     18920     18922     18917     18925     18927     18928
     18917     18925     18927     19124     18918     18917     18919     18920
     18918     18917     18925     18926     18918     18917     18925     18927
     18919     18917     18925     18926     18919     18917     18925     18927
     18919     18920     18922     18923     18919     18920     18922     18924
     18919     18920     18922     19086     18920     18919     18917     18925
     18920     18922     19086     19087     18920     18922     19086     19088
     18920     18922     19086     19090     18921     18920     18922     18923
     18921     18920     18922     18924     18921     18920     18922     19086
     18922     19086     19088     19089     18922     19086     19090     19091
     18922     19086     19090     19092     18922     19086     19090     19093
     18923     18922     19086     19087     18923     18922     19086     19088
     18923     18922     19086     19090     18924     18922     19086     19087
     18924     18922     19086     19088     18924     18922     19086     19090
     18925     18927     19124     19125     18925     18927     19124     19126
     18926     18925     18927     18928     18926     18925     18927     19124
     18927     19124     19126     19127     18927     19124     19126     19128
     18927     19124     19126     19129     18928     18927     19124     19125
     18928     18927     19124     19126     18929     18931     18932     18933
     18929     18931     18932     18934     18929     18974     18977     18978
     18929     18974     18977     18979     18929     18974     18977     18980
     18930     18929     18931     18932     18930     18929     18974     18975
     18930     18929     18974     18976     18930     18929     18974     18977
     18931     18929     18974     18975     18931     18929     18974     18976
     18931     18929     18974     18977     18931     18932     18934     18935
     18931     18932     18934     18936     18931     18932     18934     18937
     18932     18931     18929     18974     18932     18934     18937     18938
     18932     18934     18937     18939     18932     18934     18937     18940
     18933     18932     18934     18935     18933     18932     18934     18936
     18933     18932     18934     18937     18934     18937     18940     18941
     18934     18937     18940     18942     18934     18937     18940     18943
     18935     18934     18937     18938     18935     18934     18937     18939
     18935     18934     18937     18940     18936     18934     18937     18938
     18936     18934     18937     18939     18936     18934     18937     18940
     18937     18940     18943     18944     18937     18940     18943     18945
     18937     18940     18943     18946     18938     18937     18940     18941
     18938     18937     18940     18942     18938     18937     18940     18943
     18939     18937     18940     18941     18939     18937     18940     18942
     18939     18937     18940     18943     18940     18943     18946     18947
     18940     18943     18946     18948     18940     18943     18946     18949
     18941     18940     18943     18944     18941     18940     18943     18945
     18941     18940     18943     18946     18942     18940     18943     18944
     18942     18940     18943     18945     18942     18940     18943     18946
     18943     18946     18949     18950     18943     18946     18949     18951
     18943     18946     18949     18952     18944     18943     18946     18947
     18944     18943     18946     18948     18944     18943     18946     18949
     18945     18943     18946     18947     18945     18943     18946     18948
     18945     18943     18946     18949     18946     18949     18952     18953
     18946     18949     18952     18954     18946     18949     18952     18955
     18947     18946     18949     18950     18947     18946     18949     18951
     18947     18946     18949     18952     18948     18946     18949     18950
     18948     18946     18949     18951     18948     18946     18949     18952
     18949     18952     18955     18956     18949     18952     18955     18957
     18949     18952     18955     18958     18950     18949     18952     18953
     18950     18949     18952     18954     18950     18949     18952     18955
     18951     18949     18952     18953     18951     18949     18952     18954
     18951     18949     18952     18955     18952     18955     18958     18959
     18952     18955     18958     18960     18952     18955     18958     18961
     18953     18952     18955     18956     18953     18952     18955     18957
     18953     18952     18955     18958     18954     18952     18955     18956
     18954     18952     18955     18957     18954     18952     18955     18958
     18955     18958     18961     18962     18955     18958     18961     18963
     18955     18958     18961     18964     18956     18955     18958     18959
     18956     18955     18958     18960     18956     18955     18958     18961
     18957     18955     18958     18959     18957     18955     18958     18960
     18957     18955     18958     18961     18958     18961     18964     18965
     18958     18961     18964     18966     18958     18961     18964     18967
     18959     18958     18961     18962     18959     18958     18961     18963
     18959     18958     18961     18964     18960     18958     18961     18962
     18960     18958     18961     18963     18960     18958     18961     18964
     18961     18964     18967     18968     18961     18964     18967     18969
     18961     18964     18967     18970     18962     18961     18964     18965
     18962     18961     18964     18966     18962     18961     18964     18967
     18963     18961     18964     18965     18963     18961     18964     18966
     18963     18961     18964     18967     18964     18967     18970     18971
     18964     18967     18970     18972     18964     18967     18970     18973
     18965     18964     18967     18968     18965     18964     18967     18969
     18965     18964     18967     18970     18966     18964     18967     18968
     18966     18964     18967     18969     18966     18964     18967     18970
     18968     18967     18970     18971     18968     18967     18970     18972
     18968     18967     18970     18973     18969     18967     18970     18971
     18969     18967     18970     18972     18969     18967     18970     18973
     18974     18977     18980     18981     18974     18977     18980     18982
     18974     18977     18980     18983     18975     18974     18977     18978
     18975     18974     18977     18979     18975     18974     18977     18980
     18976     18974     18977     18978     18976     18974     18977     18979
     18976     18974     18977     18980     18977     18980     18983     18984
     18977     18980     18983     18985     18977     18980     18983     18986
     18978     18977     18980     18981     18978     18977     18980     18982
     18978     18977     18980     18983     18979     18977     18980     18981
     18979     18977     18980     18982     18979     18977     18980     18983
     18980     18983     18986     18987     18980     18983     18986     18988
     18980     18983     18986     18989     18981     18980     18983     18984
     18981     18980     18983     18985     18981     18980     18983     18986
     18982     18980     18983     18984     18982     18980     18983     18985
     18982     18980     18983     18986     18983     18986     18989     18990
     18983     18986     18989     18991     18983     18986     18989     18992
     18984     18983     18986     18987     18984     18983     18986     18988
     18984     18983     18986     18989     18985     18983     18986     18987
     18985     18983     18986     18988     18985     18983     18986     18989
     18986     18989     18992     18993     18986     18989     18992     18994
     18986     18989     18992     18995     18987     18986     18989     18990
     18987     18986     18989     18991     18987     18986     18989     18992
     18988     18986     18989     18990     18988     18986     18989     18991
     18988     18986     18989     18992     18989     18992     18995     18996
     18989     18992     18995     18997     18989     18992     18995     18998
     18990     18989     18992     18993     18990     18989     18992     18994
     18990     18989     18992     18995     18991     18989     18992     18993
     18991     18989     18992     18994     18991     18989     18992     18995
     18992     18995     18998     18999     18992     18995     18998     19000
     18992     18995     18998     19001     18993     18992     18995     18996
     18993     18992     18995     18997     18993     18992     18995     18998
     18994     18992     18995     18996     18994     18992     18995     18997
     18994     18992     18995     18998     18995     18998     19001     19002
     18995     18998     19001     19003     18995     18998     19001     19004
     18996     18995     18998     18999     18996     18995     18998     19000
     18996     18995     18998     19001     18997     18995     18998     18999
     18997     18995     18998     19000     18997     18995     18998     19001
     18998     19001     19004     19005     18998     19001     19004     19006
     18998     19001     19004     19007     18999     18998     19001     19002
     18999     18998     19001     19003     18999     18998     19001     19004
     19000     18998     19001     19002     19000     18998     19001     19003
     19000     18998     19001     19004     19002     19001     19004     19005
     19002     19001     19004     19006     19002     19001     19004     19007
     19003     19001     19004     19005     19003     19001     19004     19006
     19003     19001     19004     19007     19008     19010     19013     19014
     19008     19010     19013     19015     19008     19010     19013     19052
     19009     19008     19010     19011     19009     19008     19010     19012
     19009     19008     19010     19013     19010     19013     19015     19016
     19010     19013     19052     19053     19010     19013     19052     19054
     19010     19013     19052     19055     19011     19010     19013     19014
     19011     19010     19013     19015     19011     19010     19013     19052
     19012     19010     19013     19014     19012     19010     19013     19015
     19012     19010     19013     19052     19013     19015     19016     19017
     19013     19015     19016     19018     19013     19052     19055     19056
     19013     19052     19055     19057     19013     19052     19055     19058
     19014     19013     19015     19016     19014     19013     19052     19053
     19014     19013     19052     19054     19014     19013     19052     19055
     19015     19013     19052     19053     19015     19013     19052     19054
     19015     19013     19052     19055     19015     19016     19018     19019
     19015     19016     19018     19020     19015     19016     19018     19021
     19016     19015     19013     19052     19016     19018     19021     19022
     19016     19018     19021     19023     19016     19018     19021     19024
     19017     19016     19018     19019     19017     19016     19018     19020
     19017     19016     19018     19021     19018     19021     19024     19025
     19018     19021     19024     19026     19018     19021     19024     19027
     19019     19018     19021     19022     19019     19018     19021     19023
     19019     19018     19021     19024     19020     19018     19021     19022
     19020     19018     19021     19023     19020     19018     19021     19024
     19021     19024     19027     19028     19021     19024     19027     19029
     19021     19024     19027     19030     19022     19021     19024     19025
     19022     19021     19024     19026     19022     19021     19024     19027
     19023     19021     19024     19025     19023     19021     19024     19026
     19023     19021     19024     19027     19024     19027     19030     19031
     19024     19027     19030     19032     19024     19027     19030     19033
     19025     19024     19027     19028     19025     19024     19027     19029
     19025     19024     19027     19030     19026     19024     19027     19028
     19026     19024     19027     19029     19026     19024     19027     19030
     19027     19030     19033     19034     19027     19030     19033     19035
     19027     19030     19033     19036     19028     19027     19030     19031
     19028     19027     19030     19032     19028     19027     19030     19033
     19029     19027     19030     19031     19029     19027     19030     19032
     19029     19027     19030     19033     19030     19033     19036     19037
     19030     19033     19036     19038     19030     19033     19036     19039
     19031     19030     19033     19034     19031     19030     19033     19035
     19031     19030     19033     19036     19032     19030     19033     19034
     19032     19030     19033     19035     19032     19030     19033     19036
     19033     19036     19039     19040     19033     19036     19039     19041
     19033     19036     19039     19042     19034     19033     19036     19037
     19034     19033     19036     19038     19034     19033     19036     19039
     19035     19033     19036     19037     19035     19033     19036     19038
     19035     19033     19036     19039     19036     19039     19042     19043
     19036     19039     19042     19044     19036     19039     19042     19045
     19037     19036     19039     19040     19037     19036     19039     19041
     19037     19036     19039     19042     19038     19036     19039     19040
     19038     19036     19039     19041     19038     19036     19039     19042
     19039     19042     19045     19046     19039     19042     19045     19047
     19039     19042     19045     19048     19040     19039     19042     19043
     19040     19039     19042     19044     19040     19039     19042     19045
     19041     19039     19042     19043     19041     19039     19042     19044
     19041     19039     19042     19045     19042     19045     19048     19049
     19042     19045     19048     19050     19042     19045     19048     19051
     19043     19042     19045     19046     19043     19042     19045     19047
     19043     19042     19045     19048     19044     19042     19045     19046
     19044     19042     19045     19047     19044     19042     19045     19048
     19046     19045     19048     19049     19046     19045     19048     19050
     19046     19045     19048     19051     19047     19045     19048     19049
     19047     19045     19048     19050     19047     19045     19048     19051
     19052     19055     19058     19059     19052     19055     19058     19060
     19052     19055     19058     19061     19053     19052     19055     19056
     19053     19052     19055     19057     19053     19052     19055     19058
     19054     19052     19055     19056     19054     19052     19055     19057
     19054     19052     19055     19058     19055     19058     19061     19062
     19055     19058     19061     19063     19055     19058     19061     19064
     19056     19055     19058     19059     19056     19055     19058     19060
     19056     19055     19058     19061     19057     19055     19058     19059
     19057     19055     19058     19060     19057     19055     19058     19061
     19058     19061     19064     19065     19058     19061     19064     19066
     19058     19061     19064     19067     19059     19058     19061     19062
     19059     19058     19061     19063     19059     19058     19061     19064
     19060     19058     19061     19062     19060     19058     19061     19063
     19060     19058     19061     19064     19061     19064     19067     19068
     19061     19064     19067     19069     19061     19064     19067     19070
     19062     19061     19064     19065     19062     19061     19064     19066
     19062     19061     19064     19067     19063     19061     19064     19065
     19063     19061     19064     19066     19063     19061     19064     19067
     19064     19067     19070     19071     19064     19067     19070     19072
     19064     19067     19070     19073     19065     19064     19067     19068
     19065     19064     19067     19069     19065     19064     19067     19070
     19066     19064     19067     19068     19066     19064     19067     19069
     19066     19064     19067     19070     19067     19070     19073     19074
     19067     19070     19073     19075     19067     19070     19073     19076
     19068     19067     19070     19071     19068     19067     19070     19072
     19068     19067     19070     19073     19069     19067     19070     19071
     19069     19067     19070     19072     19069     19067     19070     19073
     19070     19073     19076     19077     19070     19073     19076     19078
     19070     19073     19076     19079     19071     19070     19073     19074
     19071     19070     19073     19075     19071     19070     19073     19076
     19072     19070     19073     19074     19072     19070     19073     19075
     19072     19070     19073     19076     19073     19076     19079     19080
     19073     19076     19079     19081     19073     19076     19079     19082
     19074     19073     19076     19077     19074     19073     19076     19078
     19074     19073     19076     19079     19075     19073     19076     19077
     19075     19073     19076     19078     19075     19073     19076     19079
     19076     19079     19082     19083     19076     19079     19082     19084
     19076     19079     19082     19085     19077     19076     19079     19080
     19077     19076     19079     19081     19077     19076     19079     19082
     19078     19076     19079     19080     19078     19076     19079     19081
     19078     19076     19079     19082     19080     19079     19082     19083
     19080     19079     19082     19084     19080     19079     19082     19085
     19081     19079     19082     19083     19081     19079     19082     19084
     19081     19079     19082     19085     19086     19090     19093     19094
     19086     19090     19093     19095     19086     19090     19093     19096
     19087     19086     19088     19089     19087     19086     19090     19091
     19087     19086     19090     19092     19087     19086     19090     19093
     19088     19086     19090     19091     19088     19086     19090     19092
     19088     19086     19090     19093     19089     19088     19086     19090
     19090     19093     19096     19097     19090     19093     19096     19098
     19090     19093     19096     19099     19091     19090     19093     19094
     19091     19090     19093     19095     19091     19090     19093     19096
     19092     19090     19093     19094     19092     19090     19093     19095
     19092     19090     19093     19096     19093     19096     19099     19100
     19093     19096     19099     19101     19093     19096     19099     19102
     19094     19093     19096     19097     19094     19093     19096     19098
     19094     19093     19096     19099     19095     19093     19096     19097
     19095     19093     19096     19098     19095     19093     19096     19099
     19096     19099     19102     19103     19096     19099     19102     19104
     19096     19099     19102     19105     19097     19096     19099     19100
     19097     19096     19099     19101     19097     19096     19099     19102
     19098     19096     19099     19100     19098     19096     19099     19101
     19098     19096     19099     19102     19099     19102     19105     19106
     19099     19102     19105     19107     19099     19102     19105     19108
     19100     19099     19102     19103     19100     19099     19102     19104
     19100     19099     19102     19105     19101     19099     19102     19103
     19101     19099     19102     19104     19101     19099     19102     19105
     19102     19105     19108     19109     19102     19105     19108     19110
     19102     19105     19108     19111     19103     19102     19105     19106
     19103     19102     19105     19107     19103     19102     19105     19108
     19104     19102     19105     19106     19104     19102     19105     19107
     19104     19102     19105     19108     19105     19108     19111     19112
     19105     19108     19111     19113     19105     19108     19111     19114
     19106     19105     19108     19109     19106     19105     19108     19110
     19106     19105     19108     19111     19107     19105     19108     19109
     19107     19105     19108     19110     19107     19105     19108     19111
     19108     19111     19114     19115     19108     19111     19114     19116
     19108     19111     19114     19117     19109     19108     19111     19112
     19109     19108     19111     19113     19109     19108     19111     19114
     19110     19108     19111     19112     19110     19108     19111     19113
     19110     19108     19111     19114     19111     19114     19117     19118
     19111     19114     19117     19119     19111     19114     19117     19120
     19112     19111     19114     19115     19112     19111     19114     19116
     19112     19111     19114     19117     19113     19111     19114     19115
     19113     19111     19114     19116     19113     19111     19114     19117
     19114     19117     19120     19121     19114     19117     19120     19122
     19114     19117     19120     19123     19115     19114     19117     19118
     19115     19114     19117     19119     19115     19114     19117     19120
     19116     19114     19117     19118     19116     19114     19117     19119
     19116     19114     19117     19120     19118     19117     19120     19121
     19118     19117     19120     19122     19118     19117     19120     19123
     19119     19117     19120     19121     19119     19117     19120     19122
     19119     19117     19120     19123     19124     19126     19129     19130
     19124     19126     19129     19131     19124     19126     19129     19133
     19125     19124     19126     19127     19125     19124     19126     19128
     19125     19124     19126     19129     19126     19129     19131     19132
     19126     19129     19133     19134     19126     19129     19133     19135
     19126     19129     19133     19136     19127     19126     19129     19130
     19127     19126     19129     19131     19127     19126     19129     19133
     19128     19126     19129     19130     19128     19126     19129     19131
     19128     19126     19129     19133     19129     19133     19136     19137
     19129     19133     19136     19138     19129     19133     19136     19139
     19130     19129     19131     19132     19130     19129     19133     19134
     19130     19129     19133     19135     19130     19129     19133     19136
     19131     19129     19133     19134     19131     19129     19133     19135
     19131     19129     19133     19136     19132     19131     19129     19133
     19133     19136     19139     19140     19133     19136     19139     19141
     19133     19136     19139     19142     19134     19133     19136     19137
     19134     19133     19136     19138     19134     19133     19136     19139
     19135     19133     19136     19137     19135     19133     19136     19138
     19135     19133     19136     19139     19136     19139     19142     19143
     19136     19139     19142     19144     19136     19139     19142     19145
     19137     19136     19139     19140     19137     19136     19139     19141
     19137     19136     19139     19142     19138     19136     19139     19140
     19138     19136     19139     19141     19138     19136     19139     19142
     19139     19142     19145     19146     19139     19142     19145     19147
     19139     19142     19145     19148     19140     19139     19142     19143
     19140     19139     19142     19144     19140     19139     19142     19145
     19141     19139     19142     19143     19141     19139     19142     19144
     19141     19139     19142     19145     19142     19145     19148     19149
     19142     19145     19148     19150     19142     19145     19148     19151
     19143     19142     19145     19146     19143     19142     19145     19147
     19143     19142     19145     19148     19144     19142     19145     19146
     19144     19142     19145     19147     19144     19142     19145     19148
     19145     19148     19151     19152     19145     19148     19151     19153
     19145     19148     19151     19154     19146     19145     19148     19149
     19146     19145     19148     19150     19146     19145     19148     19151
     19147     19145     19148     19149     19147     19145     19148     19150
     19147     19145     19148     19151     19148     19151     19154     19155
     19148     19151     19154     19156     19148     19151     19154     19157
     19149     19148     19151     19152     19149     19148     19151     19153
     19149     19148     19151     19154     19150     19148     19151     19152
     19150     19148     19151     19153     19150     19148     19151     19154
     19151     19154     19157     19158     19151     19154     19157     19159
     19151     19154     19157     19160     19152     19151     19154     19155
     19152     19151     19154     19156     19152     19151     19154     19157
     19153     19151     19154     19155     19153     19151     19154     19156
     19153     19151     19154     19157     19154     19157     19160     19161
     19154     19157     19160     19162     19154     19157     19160     19163
     19155     19154     19157     19158     19155     19154     19157     19159
     19155     19154     19157     19160     19156     19154     19157     19158
     19156     19154     19157     19159     19156     19154     19157     19160
     19157     19160     19163     19164     19157     19160     19163     19165
     19157     19160     19163     19166     19158     19157     19160     19161
     19158     19157     19160     19162     19158     19157     19160     19163
     19159     19157     19160     19161     19159     19157     19160     19162
     19159     19157     19160     19163     19161     19160     19163     19164
     19161     19160     19163     19165     19161     19160     19163     19166
     19162     19160     19163     19164     19162     19160     19163     19165
     19162     19160     19163     19166     19167     19170     19173     19171
     19167     19170     19174     19175     19167     19170     19174     19176
     19167     19170     19174     19177     19168     19167     19170     19173
     19168     19167     19170     19174     19169     19167     19170     19173
     19169     19167     19170     19174     19170     19173     19171     19172
     19170     19173     19171     19180     19170     19173     19171     19183
     19170     19174     19177     19178     19170     19174     19177     19179
     19170     19174     19177     19180     19171     19173     19170     19174
     19171     19180     19177     19174     19171     19180     19177     19178
     19171     19180     19177     19179     19171     19180     19182     19219
     19171     19183     19185     19186     19171     19183     19187     19188
     19171     19183     19187     19189     19171     19183     19187     19190
     19172     19171     19180     19177     19172     19171     19180     19181
     19172     19171     19180     19182     19172     19171     19183     19184
     19172     19171     19183     19185     19172     19171     19183     19187
     19173     19170     19174     19175     19173     19170     19174     19176
     19173     19170     19174     19177     19173     19171     19180     19177
     19173     19171     19180     19181     19173     19171     19180     19182
     19173     19171     19183     19184     19173     19171     19183     19185
     19173     19171     19183     19187     19174     19177     19179     19195
     19174     19177     19180     19181     19174     19177     19180     19182
     19175     19174     19177     19178     19175     19174     19177     19179
     19175     19174     19177     19180     19176     19174     19177     19178
     19176     19174     19177     19179     19176     19174     19177     19180
     19177     19179     19195     19192     19177     19179     19195     19198
     19177     19179     19195     19199     19177     19180     19171     19183
     19177     19180     19182     19219     19178     19177     19179     19195
     19178     19177     19180     19181     19178     19177     19180     19182
     19179     19177     19180     19181     19179     19177     19180     19182
     19179     19195     19192     19193     19179     19195     19192     19194
     19179     19195     19198     19196     19179     19195     19199     19200
     19179     19195     19199     19201     19179     19195     19199     19202
     19180     19171     19183     19184     19180     19171     19183     19185
     19180     19171     19183     19187     19180     19177     19179     19195
     19180     19182     19219     19220     19180     19182     19219     19223
     19180     19182     19219     19224     19181     19180     19171     19183
     19181     19180     19182     19219     19182     19180     19171     19183
     19182     19219     19223     19221     19182     19219     19224     19225
     19182     19219     19224     19226     19182     19219     19224     19228
     19183     19187     19190     19191     19184     19183     19185     19186
     19184     19183     19187     19188     19184     19183     19187     19189
     19184     19183     19187     19190     19185     19183     19187     19188
     19185     19183     19187     19189     19185     19183     19187     19190
     19186     19185     19183     19187     19188     19187     19190     19191
     19189     19187     19190     19191     19192     19195     19198     19196
     19192     19195     19199     19200     19192     19195     19199     19201
     19192     19195     19199     19202     19193     19192     19195     19198
     19193     19192     19195     19199     19194     19192     19195     19198
     19194     19192     19195     19199     19195     19198     19196     19197
     19195     19198     19196     19206     19195     19198     19196     19210
     19195     19199     19202     19203     19195     19199     19202     19204
     19195     19199     19202     19206     19196     19198     19195     19199
     19196     19206     19202     19199     19196     19206     19202     19203
     19196     19206     19202     19204     19196     19206     19208     19209
     19196     19210     19212     19213     19196     19210     19214     19215
     19196     19210     19214     19216     19196     19210     19214     19217
     19197     19196     19206     19202     19197     19196     19206     19207
     19197     19196     19206     19208     19197     19196     19210     19211
     19197     19196     19210     19212     19197     19196     19210     19214
     19198     19195     19199     19200     19198     19195     19199     19201
     19198     19195     19199     19202     19198     19196     19206     19202
     19198     19196     19206     19207     19198     19196     19206     19208
     19198     19196     19210     19211     19198     19196     19210     19212
     19198     19196     19210     19214     19199     19202     19204     19205
     19199     19202     19206     19207     19199     19202     19206     19208
     19200     19199     19202     19203     19200     19199     19202     19204
     19200     19199     19202     19206     19201     19199     19202     19203
     19201     19199     19202     19204     19201     19199     19202     19206
     19202     19206     19196     19210     19202     19206     19208     19209
     19203     19202     19204     19205     19203     19202     19206     19207
     19203     19202     19206     19208     19204     19202     19206     19207
     19204     19202     19206     19208     19205     19204     19202     19206
     19206     19196     19210     19211     19206     19196     19210     19212
     19206     19196     19210     19214     19207     19206     19196     19210
     19207     19206     19208     19209     19208     19206     19196     19210
     19210     19214     19217     19218     19211     19210     19212     19213
     19211     19210     19214     19215     19211     19210     19214     19216
     19211     19210     19214     19217     19212     19210     19214     19215
     19212     19210     19214     19216     19212     19210     19214     19217
     19213     19212     19210     19214     19215     19214     19217     19218
     19216     19214     19217     19218     19219     19223     19221     19222
     19219     19223     19221     19231     19219     19223     19221     19238
     19219     19224     19226     19227     19219     19224     19228     19229
     19219     19224     19228     19230     19219     19224     19228     19231
     19220     19219     19223     19221     19220     19219     19224     19225
     19220     19219     19224     19226     19220     19219     19224     19228
     19221     19223     19219     19224     19221     19231     19228     19224
     19221     19231     19228     19229     19221     19231     19228     19230
     19221     19231     19233     19234     19221     19238     19240     19241
     19221     19238     19242     19243     19221     19238     19242     19244
     19221     19238     19242     19245     19222     19221     19231     19228
     19222     19221     19231     19232     19222     19221     19231     19233
     19222     19221     19238     19239     19222     19221     19238     19240
     19222     19221     19238     19242     19223     19219     19224     19225
     19223     19219     19224     19226     19223     19219     19224     19228
     19223     19221     19231     19228     19223     19221     19231     19232
     19223     19221     19231     19233     19223     19221     19238     19239
     19223     19221     19238     19240     19223     19221     19238     19242
     19224     19228     19230     19247     19224     19228     19231     19232
     19224     19228     19231     19233     19225     19224     19226     19227
     19225     19224     19228     19229     19225     19224     19228     19230
     19225     19224     19228     19231     19226     19224     19228     19229
     19226     19224     19228     19230     19226     19224     19228     19231
     19227     19226     19224     19228     19228     19230     19247     19248
     19228     19230     19247     19251     19228     19230     19247     19252
     19228     19231     19221     19238     19228     19231     19233     19234
     19229     19228     19230     19247     19229     19228     19231     19232
     19229     19228     19231     19233     19230     19228     19231     19232
     19230     19228     19231     19233     19230     19247     19251     19249
     19230     19247     19252     19253     19230     19247     19252     19254
     19230     19247     19252     19256     19231     19221     19238     19239
     19231     19221     19238     19240     19231     19221     19238     19242
     19231     19228     19230     19247     19231     19233     19234     19235
     19231     19233     19234     19236     19231     19233     19234     19237
     19232     19231     19221     19238     19232     19231     19233     19234
     19233     19231     19221     19238     19238     19242     19245     19246
     19239     19238     19240     19241     19239     19238     19242     19243
     19239     19238     19242     19244     19239     19238     19242     19245
     19240     19238     19242     19243     19240     19238     19242     19244
     19240     19238     19242     19245     19241     19240     19238     19242
     19243     19242     19245     19246     19244     19242     19245     19246
     19247     19251     19249     19250     19247     19251     19249     19259
     19247     19251     19249     19266     19247     19252     19254     19255
     19247     19252     19256     19257     19247     19252     19256     19258
     19247     19252     19256     19259     19248     19247     19251     19249
     19248     19247     19252     19253     19248     19247     19252     19254
     19248     19247     19252     19256     19249     19251     19247     19252
     19249     19259     19256     19252     19249     19259     19256     19257
     19249     19259     19256     19258     19249     19259     19261     19262
     19249     19266     19268     19269     19249     19266     19270     19271
     19249     19266     19270     19272     19249     19266     19270     19273
     19250     19249     19259     19256     19250     19249     19259     19260
     19250     19249     19259     19261     19250     19249     19266     19267
     19250     19249     19266     19268     19250     19249     19266     19270
     19251     19247     19252     19253     19251     19247     19252     19254
     19251     19247     19252     19256     19251     19249     19259     19256
     19251     19249     19259     19260     19251     19249     19259     19261
     19251     19249     19266     19267     19251     19249     19266     19268
     19251     19249     19266     19270     19252     19256     19258     19300
     19252     19256     19259     19260     19252     19256     19259     19261
     19253     19252     19254     19255     19253     19252     19256     19257
     19253     19252     19256     19258     19253     19252     19256     19259
     19254     19252     19256     19257     19254     19252     19256     19258
     19254     19252     19256     19259     19255     19254     19252     19256
     19256     19258     19300     19301     19256     19258     19300     19304
     19256     19258     19300     19305     19256     19259     19249     19266
     19256     19259     19261     19262     19257     19256     19258     19300
     19257     19256     19259     19260     19257     19256     19259     19261
     19258     19256     19259     19260     19258     19256     19259     19261
     19258     19300     19304     19302     19258     19300     19305     19306
     19258     19300     19305     19307     19258     19300     19305     19309
     19259     19249     19266     19267     19259     19249     19266     19268
     19259     19249     19266     19270     19259     19256     19258     19300
     19259     19261     19262     19263     19259     19261     19262     19264
     19259     19261     19262     19265     19260     19259     19249     19266
     19260     19259     19261     19262     19261     19259     19249     19266
     19266     19270     19273     19274     19267     19266     19268     19269
     19267     19266     19270     19271     19267     19266     19270     19272
     19267     19266     19270     19273     19268     19266     19270     19271
     19268     19266     19270     19272     19268     19266     19270     19273
     19269     19268     19266     19270     19270     19273     19274     19275
     19270     19273     19274     19278     19270     19273     19274     19279
     19271     19270     19273     19274     19272     19270     19273     19274
     19273     19274     19278     19276     19273     19274     19279     19280
     19273     19274     19279     19281     19273     19274     19279     19283
     19274     19278     19276     19277     19274     19278     19276     19287
     19274     19278     19276     19291     19274     19279     19281     19282
     19274     19279     19283     19284     19274     19279     19283     19285
     19274     19279     19283     19287     19275     19274     19278     19276
     19275     19274     19279     19280     19275     19274     19279     19281
     19275     19274     19279     19283     19276     19278     19274     19279
     19276     19287     19283     19279     19276     19287     19283     19284
     19276     19287     19283     19285     19276     19287     19289     19290
     19276     19291     19293     19294     19276     19291     19295     19296
     19276     19291     19295     19297     19276     19291     19295     19298
     19277     19276     19287     19283     19277     19276     19287     19288
     19277     19276     19287     19289     19277     19276     19291     19292
     19277     19276     19291     19293     19277     19276     19291     19295
     19278     19274     19279     19280     19278     19274     19279     19281
     19278     19274     19279     19283     19278     19276     19287     19283
     19278     19276     19287     19288     19278     19276     19287     19289
     19278     19276     19291     19292     19278     19276     19291     19293
     19278     19276     19291     19295     19279     19283     19285     19286
     19279     19283     19287     19288     19279     19283     19287     19289
     19280     19279     19281     19282     19280     19279     19283     19284
     19280     19279     19283     19285     19280     19279     19283     19287
     19281     19279     19283     19284     19281     19279     19283     19285
     19281     19279     19283     19287     19282     19281     19279     19283
     19283     19287     19276     19291     19283     19287     19289     19290
     19284     19283     19285     19286     19284     19283     19287     19288
     19284     19283     19287     19289     19285     19283     19287     19288
     19285     19283     19287     19289     19286     19285     19283     19287
     19287     19276     19291     19292     19287     19276     19291     19293
     19287     19276     19291     19295     19288     19287     19276     19291
     19288     19287     19289     19290     19289     19287     19276     19291
     19291     19295     19298     19299     19292     19291     19293     19294
     19292     19291     19295     19296     19292     19291     19295     19297
     19292     19291     19295     19298     19293     19291     19295     19296
     19293     19291     19295     19297     19293     19291     19295     19298
     19294     19293     19291     19295     19296     19295     19298     19299
     19297     19295     19298     19299     19300     19304     19302     19303
     19300     19304     19302     19312     19300     19304     19302     19316
     19300     19305     19307     19308     19300     19305     19309     19310
     19300     19305     19309     19311     19300     19305     19309     19312
     19301     19300     19304     19302     19301     19300     19305     19306
     19301     19300     19305     19307     19301     19300     19305     19309
     19302     19304     19300     19305     19302     19312     19309     19305
     19302     19312     19309     19310     19302     19312     19309     19311
     19302     19312     19314     19315     19302     19316     19319     19320
     19303     19302     19312     19309     19303     19302     19312     19313
     19303     19302     19312     19314     19303     19302     19316     19317
     19303     19302     19316     19318     19303     19302     19316     19319
     19304     19300     19305     19306     19304     19300     19305     19307
     19304     19300     19305     19309     19304     19302     19312     19309
     19304     19302     19312     19313     19304     19302     19312     19314
     19304     19302     19316     19317     19304     19302     19316     19318
     19304     19302     19316     19319     19305     19309     19311     19321
     19305     19309     19312     19313     19305     19309     19312     19314
     19306     19305     19307     19308     19306     19305     19309     19310
     19306     19305     19309     19311     19306     19305     19309     19312
     19307     19305     19309     19310     19307     19305     19309     19311
     19307     19305     19309     19312     19308     19307     19305     19309
     19309     19311     19321     19322     19309     19311     19321     19325
     19309     19311     19321     19326     19309     19312     19302     19316
     19309     19312     19314     19315     19310     19309     19311     19321
     19310     19309     19312     19313     19310     19309     19312     19314
     19311     19309     19312     19313     19311     19309     19312     19314
     19311     19321     19325     19323     19311     19321     19326     19327
     19311     19321     19326     19328     19311     19321     19326     19329
     19312     19302     19316     19317     19312     19302     19316     19318
     19312     19302     19316     19319     19312     19309     19311     19321
     19313     19312     19302     19316     19313     19312     19314     19315
     19314     19312     19302     19316     19317     19316     19319     19320
     19318     19316     19319     19320     19321     19325     19323     19324
     19321     19325     19323     19332     19321     19325     19323     19336
     19321     19326     19328     19341     19321     19326     19329     19330
     19321     19326     19329     19331     19321     19326     19329     19332
     19322     19321     19325     19323     19322     19321     19326     19327
     19322     19321     19326     19328     19322     19321     19326     19329
     19323     19325     19321     19326     19323     19332     19329     19326
     19323     19332     19329     19330     19323     19332     19329     19331
     19323     19332     19334     19335     19323     19336     19339     19340
     19324     19323     19332     19329     19324     19323     19332     19333
     19324     19323     19332     19334     19324     19323     19336     19337
     19324     19323     19336     19338     19324     19323     19336     19339
     19325     19321     19326     19327     19325     19321     19326     19328
     19325     19321     19326     19329     19325     19323     19332     19329
     19325     19323     19332     19333     19325     19323     19332     19334
     19325     19323     19336     19337     19325     19323     19336     19338
     19325     19323     19336     19339     19326     19328     19341     19342
     19326     19328     19341     19345     19326     19328     19341     19346
     19326     19329     19331     19384     19326     19329     19332     19333
     19326     19329     19332     19334     19327     19326     19328     19341
     19327     19326     19329     19330     19327     19326     19329     19331
     19327     19326     19329     19332     19328     19326     19329     19330
     19328     19326     19329     19331     19328     19326     19329     19332
     19328     19341     19345     19343     19328     19341     19346     19347
     19328     19341     19346     19348     19328     19341     19346     19349
     19329     19326     19328     19341     19329     19331     19384     19385
     19329     19331     19384     19388     19329     19331     19384     19389
     19329     19332     19323     19336     19329     19332     19334     19335
     19330     19329     19331     19384     19330     19329     19332     19333
     19330     19329     19332     19334     19331     19329     19332     19333
     19331     19329     19332     19334     19331     19384     19388     19386
     19331     19384     19389     19390     19331     19384     19389     19391
     19331     19384     19389     19393     19332     19323     19336     19337
     19332     19323     19336     19338     19332     19323     19336     19339
     19332     19329     19331     19384     19333     19332     19323     19336
     19333     19332     19334     19335     19334     19332     19323     19336
     19337     19336     19339     19340     19338     19336     19339     19340
     19341     19345     19343     19344     19341     19345     19343     19353
     19341     19345     19343     19357     19341     19346     19348     19362
     19341     19346     19349     19350     19341     19346     19349     19351
     19341     19346     19349     19353     19342     19341     19345     19343
     19342     19341     19346     19347     19342     19341     19346     19348
     19342     19341     19346     19349     19343     19345     19341     19346
     19343     19353     19349     19346     19343     19353     19349     19350
     19343     19353     19349     19351     19343     19353     19355     19356
     19343     19357     19360     19361     19344     19343     19353     19349
     19344     19343     19353     19354     19344     19343     19353     19355
     19344     19343     19357     19358     19344     19343     19357     19359
     19344     19343     19357     19360     19345     19341     19346     19347
     19345     19341     19346     19348     19345     19341     19346     19349
     19345     19343     19353     19349     19345     19343     19353     19354
     19345     19343     19353     19355     19345     19343     19357     19358
     19345     19343     19357     19359     19345     19343     19357     19360
     19346     19348     19362     19363     19346     19348     19362     19366
     19346     19348     19362     19367     19346     19349     19351     19352
     19346     19349     19353     19354     19346     19349     19353     19355
     19347     19346     19348     19362     19347     19346     19349     19350
     19347     19346     19349     19351     19347     19346     19349     19353
     19348     19346     19349     19350     19348     19346     19349     19351
     19348     19346     19349     19353     19348     19362     19366     19364
     19348     19362     19367     19368     19348     19362     19367     19369
     19348     19362     19367     19371     19349     19346     19348     19362
     19349     19353     19343     19357     19349     19353     19355     19356
     19350     19349     19351     19352     19350     19349     19353     19354
     19350     19349     19353     19355     19351     19349     19353     19354
     19351     19349     19353     19355     19352     19351     19349     19353
     19353     19343     19357     19358     19353     19343     19357     19359
     19353     19343     19357     19360     19354     19353     19343     19357
     19354     19353     19355     19356     19355     19353     19343     19357
     19358     19357     19360     19361     19359     19357     19360     19361
     19362     19366     19364     19365     19362     19366     19364     19375
     19362     19366     19364     19379     19362     19367     19369     19370
     19362     19367     19371     19372     19362     19367     19371     19373
     19362     19367     19371     19375     19363     19362     19366     19364
     19363     19362     19367     19368     19363     19362     19367     19369
     19363     19362     19367     19371     19364     19366     19362     19367
     19364     19375     19371     19367     19364     19375     19371     19372
     19364     19375     19371     19373     19364     19375     19377     19378
     19364     19379     19382     19383     19365     19364     19375     19371
     19365     19364     19375     19376     19365     19364     19375     19377
     19365     19364     19379     19380     19365     19364     19379     19381
     19365     19364     19379     19382     19366     19362     19367     19368
     19366     19362     19367     19369     19366     19362     19367     19371
     19366     19364     19375     19371     19366     19364     19375     19376
     19366     19364     19375     19377     19366     19364     19379     19380
     19366     19364     19379     19381     19366     19364     19379     19382
     19367     19371     19373     19374     19367     19371     19375     19376
     19367     19371     19375     19377     19368     19367     19369     19370
     19368     19367     19371     19372     19368     19367     19371     19373
     19368     19367     19371     19375     19369     19367     19371     19372
     19369     19367     19371     19373     19369     19367     19371     19375
     19370     19369     19367     19371     19371     19375     19364     19379
     19371     19375     19377     19378     19372     19371     19373     19374
     19372     19371     19375     19376     19372     19371     19375     19377
     19373     19371     19375     19376     19373     19371     19375     19377
     19374     19373     19371     19375     19375     19364     19379     19380
     19375     19364     19379     19381     19375     19364     19379     19382
     19376     19375     19364     19379     19376     19375     19377     19378
     19377     19375     19364     19379     19380     19379     19382     19383
     19381     19379     19382     19383     19384     19388     19386     19387
     19384     19388     19386     19396     19384     19388     19386     19400
     19384     19389     19391     19392     19384     19389     19393     19394
     19384     19389     19393     19395     19384     19389     19393     19396
     19385     19384     19388     19386     19385     19384     19389     19390
     19385     19384     19389     19391     19385     19384     19389     19393
     19386     19388     19384     19389     19386     19396     19393     19389
     19386     19396     19393     19394     19386     19396     19393     19395
     19386     19396     19398     19399     19386     19400     19403     19404
     19387     19386     19396     19393     19387     19386     19396     19397
     19387     19386     19396     19398     19387     19386     19400     19401
     19387     19386     19400     19402     19387     19386     19400     19403
     19388     19384     19389     19390     19388     19384     19389     19391
     19388     19384     19389     19393     19388     19386     19396     19393
     19388     19386     19396     19397     19388     19386     19396     19398
     19388     19386     19400     19401     19388     19386     19400     19402
     19388     19386     19400     19403     19389     19393     19395     19405
     19389     19393     19396     19397     19389     19393     19396     19398
     19390     19389     19391     19392     19390     19389     19393     19394
     19390     19389     19393     19395     19390     19389     19393     19396
     19391     19389     19393     19394     19391     19389     19393     19395
     19391     19389     19393     19396     19392     19391     19389     19393
     19393     19395     19405     19406     19393     19395     19405     19409
     19393     19395     19405     19410     19393     19396     19386     19400
     19393     19396     19398     19399     19394     19393     19395     19405
     19394     19393     19396     19397     19394     19393     19396     19398
     19395     19393     19396     19397     19395     19393     19396     19398
     19395     19405     19409     19407     19395     19405     19410     19411
     19395     19405     19410     19412     19395     19405     19410     19420
     19396     19386     19400     19401     19396     19386     19400     19402
     19396     19386     19400     19403     19396     19393     19395     19405
     19397     19396     19386     19400     19397     19396     19398     19399
     19398     19396     19386     19400     19401     19400     19403     19404
     19402     19400     19403     19404     19405     19409     19407     19408
     19405     19409     19407     19423     19405     19409     19407     19427
     19405     19410     19412     19413     19405     19410     19412     19414
     19405     19410     19420     19421     19405     19410     19420     19422
     19405     19410     19420     19423     19406     19405     19409     19407
     19406     19405     19410     19411     19406     19405     19410     19412
     19406     19405     19410     19420     19407     19409     19405     19410
     19407     19423     19420     19410     19407     19423     19420     19421
     19407     19423     19420     19422     19407     19423     19425     19426
     19407     19427     19430     19431     19408     19407     19423     19420
     19408     19407     19423     19424     19408     19407     19423     19425
     19408     19407     19427     19428     19408     19407     19427     19429
     19408     19407     19427     19430     19409     19405     19410     19411
     19409     19405     19410     19412     19409     19405     19410     19420
     19409     19407     19423     19420     19409     19407     19423     19424
     19409     19407     19423     19425     19409     19407     19427     19428
     19409     19407     19427     19429     19409     19407     19427     19430
     19410     19412     19414     19415     19410     19412     19414     19416
     19410     19420     19422     19432     19410     19420     19423     19424
     19410     19420     19423     19425     19411     19410     19412     19413
     19411     19410     19412     19414     19411     19410     19420     19421
     19411     19410     19420     19422     19411     19410     19420     19423
     19412     19410     19420     19421     19412     19410     19420     19422
     19412     19410     19420     19423     19412     19414     19416     19417
     19412     19414     19416     19418     19412     19414     19416     19419
     19413     19412     19410     19420     19413     19412     19414     19415
     19413     19412     19414     19416     19414     19412     19410     19420
     19415     19414     19416     19417     19415     19414     19416     19418
     19415     19414     19416     19419     19420     19422     19432     19433
     19420     19422     19432     19436     19420     19422     19432     19437
     19420     19423     19407     19427     19420     19423     19425     19426
     19421     19420     19422     19432     19421     19420     19423     19424
     19421     19420     19423     19425     19422     19420     19423     19424
     19422     19420     19423     19425     19422     19432     19436     19434
     19422     19432     19437     19438     19422     19432     19437     19439
     19422     19432     19437     19440     19423     19407     19427     19428
     19423     19407     19427     19429     19423     19407     19427     19430
     19423     19420     19422     19432     19424     19423     19407     19427
     19424     19423     19425     19426     19425     19423     19407     19427
     19428     19427     19430     19431     19429     19427     19430     19431
     19432     19436     19434     19435     19432     19436     19434     19444
     19432     19436     19434     19448     19432     19437     19439     19453
     19432     19437     19440     19441     19432     19437     19440     19442
     19432     19437     19440     19444     19433     19432     19436     19434
     19433     19432     19437     19438     19433     19432     19437     19439
     19433     19432     19437     19440     19434     19436     19432     19437
     19434     19444     19440     19437     19434     19444     19440     19441
     19434     19444     19440     19442     19434     19444     19446     19447
     19434     19448     19451     19452     19435     19434     19444     19440
     19435     19434     19444     19445     19435     19434     19444     19446
     19435     19434     19448     19449     19435     19434     19448     19450
     19435     19434     19448     19451     19436     19432     19437     19438
     19436     19432     19437     19439     19436     19432     19437     19440
     19436     19434     19444     19440     19436     19434     19444     19445
     19436     19434     19444     19446     19436     19434     19448     19449
     19436     19434     19448     19450     19436     19434     19448     19451
     19437     19439     19453     19454     19437     19439     19453     19457
     19437     19439     19453     19458     19437     19440     19442     19443
     19437     19440     19444     19445     19437     19440     19444     19446
     19438     19437     19439     19453     19438     19437     19440     19441
     19438     19437     19440     19442     19438     19437     19440     19444
     19439     19437     19440     19441     19439     19437     19440     19442
     19439     19437     19440     19444     19439     19453     19457     19455
     19439     19453     19458     19459     19439     19453     19458     19460
     19439     19453     19458     19461     19440     19437     19439     19453
     19440     19444     19434     19448     19440     19444     19446     19447
     19441     19440     19442     19443     19441     19440     19444     19445
     19441     19440     19444     19446     19442     19440     19444     19445
     19442     19440     19444     19446     19443     19442     19440     19444
     19444     19434     19448     19449     19444     19434     19448     19450
     19444     19434     19448     19451     19445     19444     19434     19448
     19445     19444     19446     19447     19446     19444     19434     19448
     19449     19448     19451     19452     19450     19448     19451     19452
     19453     19457     19455     19456     19453     19457     19455     19465
     19453     19457     19455     19469     19453     19458     19460     19473
     19453     19458     19461     19462     19453     19458     19461     19463
     19453     19458     19461     19465     19454     19453     19457     19455
     19454     19453     19458     19459     19454     19453     19458     19460
     19454     19453     19458     19461     19455     19457     19453     19458
     19455     19465     19461     19458     19455     19465     19461     19462
     19455     19465     19461     19463     19455     19465     19467     19468
     19456     19455     19465     19461     19456     19455     19465     19466
     19456     19455     19465     19467     19456     19455     19469     19470
     19456     19455     19469     19471     19456     19455     19469     19472
     19457     19453     19458     19459     19457     19453     19458     19460
     19457     19453     19458     19461     19457     19455     19465     19461
     19457     19455     19465     19466     19457     19455     19465     19467
     19457     19455     19469     19470     19457     19455     19469     19471
     19457     19455     19469     19472     19458     19460     19473     19474
     19458     19460     19473     19477     19458     19460     19473     19478
     19458     19461     19463     19464     19458     19461     19465     19466
     19458     19461     19465     19467     19459     19458     19460     19473
     19459     19458     19461     19462     19459     19458     19461     19463
     19459     19458     19461     19465     19460     19458     19461     19462
     19460     19458     19461     19463     19460     19458     19461     19465
     19460     19473     19477     19475     19460     19473     19478     19479
     19460     19473     19478     19480     19460     19473     19478     19481
     19461     19458     19460     19473     19461     19465     19455     19469
     19461     19465     19467     19468     19462     19461     19463     19464
     19462     19461     19465     19466     19462     19461     19465     19467
     19463     19461     19465     19466     19463     19461     19465     19467
     19464     19463     19461     19465     19465     19455     19469     19470
     19465     19455     19469     19471     19465     19455     19469     19472
     19466     19465     19455     19469     19466     19465     19467     19468
     19467     19465     19455     19469     19473     19477     19475     19476
     19473     19477     19475     19484     19473     19477     19475     19488
     19473     19478     19480     19492     19473     19478     19481     19482
     19473     19478     19481     19483     19473     19478     19481     19484
     19474     19473     19477     19475     19474     19473     19478     19479
     19474     19473     19478     19480     19474     19473     19478     19481
     19475     19477     19473     19478     19475     19484     19481     19478
     19475     19484     19481     19482     19475     19484     19481     19483
     19475     19484     19486     19487     19476     19475     19484     19481
     19476     19475     19484     19485     19476     19475     19484     19486
     19476     19475     19488     19489     19476     19475     19488     19490
     19476     19475     19488     19491     19477     19473     19478     19479
     19477     19473     19478     19480     19477     19473     19478     19481
     19477     19475     19484     19481     19477     19475     19484     19485
     19477     19475     19484     19486     19477     19475     19488     19489
     19477     19475     19488     19490     19477     19475     19488     19491
     19478     19480     19492     19493     19478     19480     19492     19496
     19478     19480     19492     19497     19478     19481     19483     19520
     19478     19481     19484     19485     19478     19481     19484     19486
     19479     19478     19480     19492     19479     19478     19481     19482
     19479     19478     19481     19483     19479     19478     19481     19484
     19480     19478     19481     19482     19480     19478     19481     19483
     19480     19478     19481     19484     19480     19492     19496     19494
     19480     19492     19497     19498     19480     19492     19497     19499
     19480     19492     19497     19507     19481     19478     19480     19492
     19481     19483     19520     19521     19481     19483     19520     19524
     19481     19483     19520     19525     19481     19484     19475     19488
     19481     19484     19486     19487     19482     19481     19483     19520
     19482     19481     19484     19485     19482     19481     19484     19486
     19483     19481     19484     19485     19483     19481     19484     19486
     19483     19520     19524     19522     19483     19520     19525     19526
     19483     19520     19525     19527     19483     19520     19525     19535
     19484     19475     19488     19489     19484     19475     19488     19490
     19484     19475     19488     19491     19484     19481     19483     19520
     19485     19484     19475     19488     19485     19484     19486     19487
     19486     19484     19475     19488     19492     19496     19494     19495
     19492     19496     19494     19511     19492     19496     19494     19515
     19492     19497     19499     19500     19492     19497     19499     19501
     19492     19497     19507     19508     19492     19497     19507     19509
     19492     19497     19507     19511     19493     19492     19496     19494
     19493     19492     19497     19498     19493     19492     19497     19499
     19493     19492     19497     19507     19494     19496     19492     19497
     19494     19511     19507     19497     19494     19511     19507     19508
     19494     19511     19507     19509     19494     19511     19513     19514
     19494     19515     19518     19519     19495     19494     19511     19507
     19495     19494     19511     19512     19495     19494     19511     19513
     19495     19494     19515     19516     19495     19494     19515     19517
     19495     19494     19515     19518     19496     19492     19497     19498
     19496     19492     19497     19499     19496     19492     19497     19507
     19496     19494     19511     19507     19496     19494     19511     19512
     19496     19494     19511     19513     19496     19494     19515     19516
     19496     19494     19515     19517     19496     19494     19515     19518
     19497     19499     19501     19502     19497     19499     19501     19503
     19497     19507     19509     19510     19497     19507     19511     19512
     19497     19507     19511     19513     19498     19497     19499     19500
     19498     19497     19499     19501     19498     19497     19507     19508
     19498     19497     19507     19509     19498     19497     19507     19511
     19499     19497     19507     19508     19499     19497     19507     19509
     19499     19497     19507     19511     19499     19501     19503     19504
     19499     19501     19503     19505     19499     19501     19503     19506
     19500     19499     19497     19507     19500     19499     19501     19502
     19500     19499     19501     19503     19501     19499     19497     19507
     19502     19501     19503     19504     19502     19501     19503     19505
     19502     19501     19503     19506     19507     19511     19494     19515
     19507     19511     19513     19514     19508     19507     19509     19510
     19508     19507     19511     19512     19508     19507     19511     19513
     19509     19507     19511     19512     19509     19507     19511     19513
     19510     19509     19507     19511     19511     19494     19515     19516
     19511     19494     19515     19517     19511     19494     19515     19518
     19512     19511     19494     19515     19512     19511     19513     19514
     19513     19511     19494     19515     19516     19515     19518     19519
     19517     19515     19518     19519     19520     19524     19522     19523
     19520     19524     19522     19538     19520     19524     19522     19542
     19520     19525     19527     19528     19520     19525     19527     19529
     19520     19525     19535     19536     19520     19525     19535     19537
     19520     19525     19535     19538     19521     19520     19524     19522
     19521     19520     19525     19526     19521     19520     19525     19527
     19521     19520     19525     19535     19522     19524     19520     19525
     19522     19538     19535     19525     19522     19538     19535     19536
     19522     19538     19535     19537     19522     19538     19540     19541
     19522     19542     19545     19546     19523     19522     19538     19535
     19523     19522     19538     19539     19523     19522     19538     19540
     19523     19522     19542     19543     19523     19522     19542     19544
     19523     19522     19542     19545     19524     19520     19525     19526
     19524     19520     19525     19527     19524     19520     19525     19535
     19524     19522     19538     19535     19524     19522     19538     19539
     19524     19522     19538     19540     19524     19522     19542     19543
     19524     19522     19542     19544     19524     19522     19542     19545
     19525     19527     19529     19530     19525     19527     19529     19531
     19525     19535     19537     19547     19525     19535     19538     19539
     19525     19535     19538     19540     19526     19525     19527     19528
     19526     19525     19527     19529     19526     19525     19535     19536
     19526     19525     19535     19537     19526     19525     19535     19538
     19527     19525     19535     19536     19527     19525     19535     19537
     19527     19525     19535     19538     19527     19529     19531     19532
     19527     19529     19531     19533     19527     19529     19531     19534
     19528     19527     19525     19535     19528     19527     19529     19530
     19528     19527     19529     19531     19529     19527     19525     19535
     19530     19529     19531     19532     19530     19529     19531     19533
     19530     19529     19531     19534     19535     19537     19547     19548
     19535     19537     19547     19551     19535     19537     19547     19552
     19535     19538     19522     19542     19535     19538     19540     19541
     19536     19535     19537     19547     19536     19535     19538     19539
     19536     19535     19538     19540     19537     19535     19538     19539
     19537     19535     19538     19540     19537     19547     19551     19549
     19537     19547     19552     19553     19537     19547     19552     19554
     19537     19547     19552     19555     19538     19522     19542     19543
     19538     19522     19542     19544     19538     19522     19542     19545
     19538     19535     19537     19547     19539     19538     19522     19542
     19539     19538     19540     19541     19540     19538     19522     19542
     19543     19542     19545     19546     19544     19542     19545     19546
     19547     19551     19549     19550     19547     19551     19549     19559
     19547     19551     19549     19563     19547     19552     19554     19568
     19547     19552     19555     19556     19547     19552     19555     19557
     19547     19552     19555     19559     19548     19547     19551     19549
     19548     19547     19552     19553     19548     19547     19552     19554
     19548     19547     19552     19555     19549     19551     19547     19552
     19549     19559     19555     19552     19549     19559     19555     19556
     19549     19559     19555     19557     19549     19559     19561     19562
     19549     19563     19566     19567     19550     19549     19559     19555
     19550     19549     19559     19560     19550     19549     19559     19561
     19550     19549     19563     19564     19550     19549     19563     19565
     19550     19549     19563     19566     19551     19547     19552     19553
     19551     19547     19552     19554     19551     19547     19552     19555
     19551     19549     19559     19555     19551     19549     19559     19560
     19551     19549     19559     19561     19551     19549     19563     19564
     19551     19549     19563     19565     19551     19549     19563     19566
     19552     19554     19568     19569     19552     19554     19568     19572
     19552     19554     19568     19573     19552     19555     19557     19558
     19552     19555     19559     19560     19552     19555     19559     19561
     19553     19552     19554     19568     19553     19552     19555     19556
     19553     19552     19555     19557     19553     19552     19555     19559
     19554     19552     19555     19556     19554     19552     19555     19557
     19554     19552     19555     19559     19554     19568     19572     19570
     19554     19568     19573     19574     19554     19568     19573     19575
     19554     19568     19573     19576     19555     19552     19554     19568
     19555     19559     19549     19563     19555     19559     19561     19562
     19556     19555     19557     19558     19556     19555     19559     19560
     19556     19555     19559     19561     19557     19555     19559     19560
     19557     19555     19559     19561     19558     19557     19555     19559
     19559     19549     19563     19564     19559     19549     19563     19565
     19559     19549     19563     19566     19560     19559     19549     19563
     19560     19559     19561     19562     19561     19559     19549     19563
     19564     19563     19566     19567     19565     19563     19566     19567
     19568     19572     19570     19571     19568     19572     19570     19580
     19568     19572     19570     19584     19568     19573     19575     19588
     19568     19573     19576     19577     19568     19573     19576     19578
     19568     19573     19576     19580     19569     19568     19572     19570
     19569     19568     19573     19574     19569     19568     19573     19575
     19569     19568     19573     19576     19570     19572     19568     19573
     19570     19580     19576     19573     19570     19580     19576     19577
     19570     19580     19576     19578     19570     19580     19582     19583
     19571     19570     19580     19576     19571     19570     19580     19581
     19571     19570     19580     19582     19571     19570     19584     19585
     19571     19570     19584     19586     19571     19570     19584     19587
     19572     19568     19573     19574     19572     19568     19573     19575
     19572     19568     19573     19576     19572     19570     19580     19576
     19572     19570     19580     19581     19572     19570     19580     19582
     19572     19570     19584     19585     19572     19570     19584     19586
     19572     19570     19584     19587     19573     19575     19588     19589
     19573     19575     19588     19592     19573     19575     19588     19593
     19573     19576     19578     19579     19573     19576     19580     19581
     19573     19576     19580     19582     19574     19573     19575     19588
     19574     19573     19576     19577     19574     19573     19576     19578
     19574     19573     19576     19580     19575     19573     19576     19577
     19575     19573     19576     19578     19575     19573     19576     19580
     19575     19588     19592     19590     19575     19588     19593     19594
     19575     19588     19593     19595     19575     19588     19593     19596
     19576     19573     19575     19588     19576     19580     19570     19584
     19576     19580     19582     19583     19577     19576     19578     19579
     19577     19576     19580     19581     19577     19576     19580     19582
     19578     19576     19580     19581     19578     19576     19580     19582
     19579     19578     19576     19580     19580     19570     19584     19585
     19580     19570     19584     19586     19580     19570     19584     19587
     19581     19580     19570     19584     19581     19580     19582     19583
     19582     19580     19570     19584     19588     19592     19590     19591
     19588     19592     19590     19599     19588     19592     19590     19603
     19588     19593     19595     19607     19588     19593     19596     19597
     19588     19593     19596     19598     19588     19593     19596     19599
     19589     19588     19592     19590     19589     19588     19593     19594
     19589     19588     19593     19595     19589     19588     19593     19596
     19590     19592     19588     19593     19590     19599     19596     19593
     19590     19599     19596     19597     19590     19599     19596     19598
     19590     19599     19601     19602     19591     19590     19599     19596
     19591     19590     19599     19600     19591     19590     19599     19601
     19591     19590     19603     19604     19591     19590     19603     19605
     19591     19590     19603     19606     19592     19588     19593     19594
     19592     19588     19593     19595     19592     19588     19593     19596
     19592     19590     19599     19596     19592     19590     19599     19600
     19592     19590     19599     19601     19592     19590     19603     19604
     19592     19590     19603     19605     19592     19590     19603     19606
     19593     19595     19607     19608     19593     19595     19607     19611
     19593     19595     19607     19612     19593     19596     19598     19635
     19593     19596     19599     19600     19593     19596     19599     19601
     19594     19593     19595     19607     19594     19593     19596     19597
     19594     19593     19596     19598     19594     19593     19596     19599
     19595     19593     19596     19597     19595     19593     19596     19598
     19595     19593     19596     19599     19595     19607     19611     19609
     19595     19607     19612     19613     19595     19607     19612     19614
     19595     19607     19612     19622     19596     19593     19595     19607
     19596     19598     19635     19636     19596     19598     19635     19639
     19596     19598     19635     19640     19596     19599     19590     19603
     19596     19599     19601     19602     19597     19596     19598     19635
     19597     19596     19599     19600     19597     19596     19599     19601
     19598     19596     19599     19600     19598     19596     19599     19601
     19598     19635     19639     19637     19598     19635     19640     19641
     19598     19635     19640     19642     19598     19635     19640     19650
     19599     19590     19603     19604     19599     19590     19603     19605
     19599     19590     19603     19606     19599     19596     19598     19635
     19600     19599     19590     19603     19600     19599     19601     19602
     19601     19599     19590     19603     19607     19611     19609     19610
     19607     19611     19609     19626     19607     19611     19609     19630
     19607     19612     19614     19615     19607     19612     19614     19616
     19607     19612     19622     19623     19607     19612     19622     19624
     19607     19612     19622     19626     19608     19607     19611     19609
     19608     19607     19612     19613     19608     19607     19612     19614
     19608     19607     19612     19622     19609     19611     19607     19612
     19609     19626     19622     19612     19609     19626     19622     19623
     19609     19626     19622     19624     19609     19626     19628     19629
     19609     19630     19633     19634     19610     19609     19626     19622
     19610     19609     19626     19627     19610     19609     19626     19628
     19610     19609     19630     19631     19610     19609     19630     19632
     19610     19609     19630     19633     19611     19607     19612     19613
     19611     19607     19612     19614     19611     19607     19612     19622
     19611     19609     19626     19622     19611     19609     19626     19627
     19611     19609     19626     19628     19611     19609     19630     19631
     19611     19609     19630     19632     19611     19609     19630     19633
     19612     19614     19616     19617     19612     19614     19616     19618
     19612     19622     19624     19625     19612     19622     19626     19627
     19612     19622     19626     19628     19613     19612     19614     19615
     19613     19612     19614     19616     19613     19612     19622     19623
     19613     19612     19622     19624     19613     19612     19622     19626
     19614     19612     19622     19623     19614     19612     19622     19624
     19614     19612     19622     19626     19614     19616     19618     19619
     19614     19616     19618     19620     19614     19616     19618     19621
     19615     19614     19612     19622     19615     19614     19616     19617
     19615     19614     19616     19618     19616     19614     19612     19622
     19617     19616     19618     19619     19617     19616     19618     19620
     19617     19616     19618     19621     19622     19626     19609     19630
     19622     19626     19628     19629     19623     19622     19624     19625
     19623     19622     19626     19627     19623     19622     19626     19628
     19624     19622     19626     19627     19624     19622     19626     19628
     19625     19624     19622     19626     19626     19609     19630     19631
     19626     19609     19630     19632     19626     19609     19630     19633
     19627     19626     19609     19630     19627     19626     19628     19629
     19628     19626     19609     19630     19631     19630     19633     19634
     19632     19630     19633     19634     19635     19639     19637     19638
     19635     19639     19637     19653     19635     19639     19637     19657
     19635     19640     19642     19643     19635     19640     19642     19644
     19635     19640     19650     19651     19635     19640     19650     19652
     19635     19640     19650     19653     19636     19635     19639     19637
     19636     19635     19640     19641     19636     19635     19640     19642
     19636     19635     19640     19650     19637     19639     19635     19640
     19637     19653     19650     19640     19637     19653     19650     19651
     19637     19653     19650     19652     19637     19653     19655     19656
     19637     19657     19660     19661     19638     19637     19653     19650
     19638     19637     19653     19654     19638     19637     19653     19655
     19638     19637     19657     19658     19638     19637     19657     19659
     19638     19637     19657     19660     19639     19635     19640     19641
     19639     19635     19640     19642     19639     19635     19640     19650
     19639     19637     19653     19650     19639     19637     19653     19654
     19639     19637     19653     19655     19639     19637     19657     19658
     19639     19637     19657     19659     19639     19637     19657     19660
     19640     19642     19644     19645     19640     19642     19644     19646
     19640     19650     19652     19662     19640     19650     19653     19654
     19640     19650     19653     19655     19641     19640     19642     19643
     19641     19640     19642     19644     19641     19640     19650     19651
     19641     19640     19650     19652     19641     19640     19650     19653
     19642     19640     19650     19651     19642     19640     19650     19652
     19642     19640     19650     19653     19642     19644     19646     19647
     19642     19644     19646     19648     19642     19644     19646     19649
     19643     19642     19640     19650     19643     19642     19644     19645
     19643     19642     19644     19646     19644     19642     19640     19650
     19645     19644     19646     19647     19645     19644     19646     19648
     19645     19644     19646     19649     19650     19652     19662     19663
     19650     19652     19662     19666     19650     19652     19662     19667
     19650     19653     19637     19657     19650     19653     19655     19656
     19651     19650     19652     19662     19651     19650     19653     19654
     19651     19650     19653     19655     19652     19650     19653     19654
     19652     19650     19653     19655     19652     19662     19666     19664
     19652     19662     19667     19668     19652     19662     19667     19669
     19652     19662     19667     19670     19653     19637     19657     19658
     19653     19637     19657     19659     19653     19637     19657     19660
     19653     19650     19652     19662     19654     19653     19637     19657
     19654     19653     19655     19656     19655     19653     19637     19657
     19658     19657     19660     19661     19659     19657     19660     19661
     19662     19666     19664     19665     19662     19666     19664     19674
     19662     19666     19664     19678     19662     19667     19669     19683
     19662     19667     19670     19671     19662     19667     19670     19672
     19662     19667     19670     19674     19663     19662     19666     19664
     19663     19662     19667     19668     19663     19662     19667     19669
     19663     19662     19667     19670     19664     19666     19662     19667
     19664     19674     19670     19667     19664     19674     19670     19671
     19664     19674     19670     19672     19664     19674     19676     19677
     19664     19678     19681     19682     19665     19664     19674     19670
     19665     19664     19674     19675     19665     19664     19674     19676
     19665     19664     19678     19679     19665     19664     19678     19680
     19665     19664     19678     19681     19666     19662     19667     19668
     19666     19662     19667     19669     19666     19662     19667     19670
     19666     19664     19674     19670     19666     19664     19674     19675
     19666     19664     19674     19676     19666     19664     19678     19679
     19666     19664     19678     19680     19666     19664     19678     19681
     19667     19669     19683     19684     19667     19669     19683     19687
     19667     19669     19683     19688     19667     19670     19672     19673
     19667     19670     19674     19675     19667     19670     19674     19676
     19668     19667     19669     19683     19668     19667     19670     19671
     19668     19667     19670     19672     19668     19667     19670     19674
     19669     19667     19670     19671     19669     19667     19670     19672
     19669     19667     19670     19674     19669     19683     19687     19685
     19669     19683     19688     19689     19669     19683     19688     19690
     19669     19683     19688     19691     19670     19667     19669     19683
     19670     19674     19664     19678     19670     19674     19676     19677
     19671     19670     19672     19673     19671     19670     19674     19675
     19671     19670     19674     19676     19672     19670     19674     19675
     19672     19670     19674     19676     19673     19672     19670     19674
     19674     19664     19678     19679     19674     19664     19678     19680
     19674     19664     19678     19681     19675     19674     19664     19678
     19675     19674     19676     19677     19676     19674     19664     19678
     19679     19678     19681     19682     19680     19678     19681     19682
     19683     19687     19685     19686     19683     19687     19685     19695
     19683     19687     19685     19699     19683     19688     19690     19703
     19683     19688     19691     19692     19683     19688     19691     19693
     19683     19688     19691     19695     19684     19683     19687     19685
     19684     19683     19688     19689     19684     19683     19688     19690
     19684     19683     19688     19691     19685     19687     19683     19688
     19685     19695     19691     19688     19685     19695     19691     19692
     19685     19695     19691     19693     19685     19695     19697     19698
     19686     19685     19695     19691     19686     19685     19695     19696
     19686     19685     19695     19697     19686     19685     19699     19700
     19686     19685     19699     19701     19686     19685     19699     19702
     19687     19683     19688     19689     19687     19683     19688     19690
     19687     19683     19688     19691     19687     19685     19695     19691
     19687     19685     19695     19696     19687     19685     19695     19697
     19687     19685     19699     19700     19687     19685     19699     19701
     19687     19685     19699     19702     19688     19690     19703     19704
     19688     19690     19703     19707     19688     19690     19703     19708
     19688     19691     19693     19694     19688     19691     19695     19696
     19688     19691     19695     19697     19689     19688     19690     19703
     19689     19688     19691     19692     19689     19688     19691     19693
     19689     19688     19691     19695     19690     19688     19691     19692
     19690     19688     19691     19693     19690     19688     19691     19695
     19690     19703     19707     19705     19690     19703     19708     19709
     19690     19703     19708     19710     19690     19703     19708     19711
     19691     19688     19690     19703     19691     19695     19685     19699
     19691     19695     19697     19698     19692     19691     19693     19694
     19692     19691     19695     19696     19692     19691     19695     19697
     19693     19691     19695     19696     19693     19691     19695     19697
     19694     19693     19691     19695     19695     19685     19699     19700
     19695     19685     19699     19701     19695     19685     19699     19702
     19696     19695     19685     19699     19696     19695     19697     19698
     19697     19695     19685     19699     19703     19707     19705     19706
     19703     19707     19705     19714     19703     19707     19705     19718
     19703     19708     19710     19722     19703     19708     19711     19712
     19703     19708     19711     19713     19703     19708     19711     19714
     19704     19703     19707     19705     19704     19703     19708     19709
     19704     19703     19708     19710     19704     19703     19708     19711
     19705     19707     19703     19708     19705     19714     19711     19708
     19705     19714     19711     19712     19705     19714     19711     19713
     19705     19714     19716     19717     19706     19705     19714     19711
     19706     19705     19714     19715     19706     19705     19714     19716
     19706     19705     19718     19719     19706     19705     19718     19720
     19706     19705     19718     19721     19707     19703     19708     19709
     19707     19703     19708     19710     19707     19703     19708     19711
     19707     19705     19714     19711     19707     19705     19714     19715
     19707     19705     19714     19716     19707     19705     19718     19719
     19707     19705     19718     19720     19707     19705     19718     19721
     19708     19710     19722     19723     19708     19710     19722     19726
     19708     19710     19722     19727     19708     19711     19713     19750
     19708     19711     19714     19715     19708     19711     19714     19716
     19709     19708     19710     19722     19709     19708     19711     19712
     19709     19708     19711     19713     19709     19708     19711     19714
     19710     19708     19711     19712     19710     19708     19711     19713
     19710     19708     19711     19714     19710     19722     19726     19724
     19710     19722     19727     19728     19710     19722     19727     19729
     19710     19722     19727     19737     19711     19708     19710     19722
     19711     19713     19750     19751     19711     19713     19750     19754
     19711     19713     19750     19755     19711     19714     19705     19718
     19711     19714     19716     19717     19712     19711     19713     19750
     19712     19711     19714     19715     19712     19711     19714     19716
     19713     19711     19714     19715     19713     19711     19714     19716
     19713     19750     19754     19752     19713     19750     19755     19756
     19713     19750     19755     19757     19713     19750     19755     19765
     19714     19705     19718     19719     19714     19705     19718     19720
     19714     19705     19718     19721     19714     19711     19713     19750
     19715     19714     19705     19718     19715     19714     19716     19717
     19716     19714     19705     19718     19722     19726     19724     19725
     19722     19726     19724     19741     19722     19726     19724     19745
     19722     19727     19729     19730     19722     19727     19729     19731
     19722     19727     19737     19738     19722     19727     19737     19739
     19722     19727     19737     19741     19723     19722     19726     19724
     19723     19722     19727     19728     19723     19722     19727     19729
     19723     19722     19727     19737     19724     19726     19722     19727
     19724     19741     19737     19727     19724     19741     19737     19738
     19724     19741     19737     19739     19724     19741     19743     19744
     19724     19745     19748     19749     19725     19724     19741     19737
     19725     19724     19741     19742     19725     19724     19741     19743
     19725     19724     19745     19746     19725     19724     19745     19747
     19725     19724     19745     19748     19726     19722     19727     19728
     19726     19722     19727     19729     19726     19722     19727     19737
     19726     19724     19741     19737     19726     19724     19741     19742
     19726     19724     19741     19743     19726     19724     19745     19746
     19726     19724     19745     19747     19726     19724     19745     19748
     19727     19729     19731     19732     19727     19729     19731     19733
     19727     19737     19739     19740     19727     19737     19741     19742
     19727     19737     19741     19743     19728     19727     19729     19730
     19728     19727     19729     19731     19728     19727     19737     19738
     19728     19727     19737     19739     19728     19727     19737     19741
     19729     19727     19737     19738     19729     19727     19737     19739
     19729     19727     19737     19741     19729     19731     19733     19734
     19729     19731     19733     19735     19729     19731     19733     19736
     19730     19729     19727     19737     19730     19729     19731     19732
     19730     19729     19731     19733     19731     19729     19727     19737
     19732     19731     19733     19734     19732     19731     19733     19735
     19732     19731     19733     19736     19737     19741     19724     19745
     19737     19741     19743     19744     19738     19737     19739     19740
     19738     19737     19741     19742     19738     19737     19741     19743
     19739     19737     19741     19742     19739     19737     19741     19743
     19740     19739     19737     19741     19741     19724     19745     19746
     19741     19724     19745     19747     19741     19724     19745     19748
     19742     19741     19724     19745     19742     19741     19743     19744
     19743     19741     19724     19745     19746     19745     19748     19749
     19747     19745     19748     19749     19750     19754     19752     19753
     19750     19754     19752     19768     19750     19754     19752     19772
     19750     19755     19757     19758     19750     19755     19757     19759
     19750     19755     19765     19766     19750     19755     19765     19767
     19750     19755     19765     19768     19751     19750     19754     19752
     19751     19750     19755     19756     19751     19750     19755     19757
     19751     19750     19755     19765     19752     19754     19750     19755
     19752     19768     19765     19755     19752     19768     19765     19766
     19752     19768     19765     19767     19752     19768     19770     19771
     19752     19772     19775     19776     19753     19752     19768     19765
     19753     19752     19768     19769     19753     19752     19768     19770
     19753     19752     19772     19773     19753     19752     19772     19774
     19753     19752     19772     19775     19754     19750     19755     19756
     19754     19750     19755     19757     19754     19750     19755     19765
     19754     19752     19768     19765     19754     19752     19768     19769
     19754     19752     19768     19770     19754     19752     19772     19773
     19754     19752     19772     19774     19754     19752     19772     19775
     19755     19757     19759     19760     19755     19757     19759     19761
     19755     19765     19767     19777     19755     19765     19768     19769
     19755     19765     19768     19770     19756     19755     19757     19758
     19756     19755     19757     19759     19756     19755     19765     19766
     19756     19755     19765     19767     19756     19755     19765     19768
     19757     19755     19765     19766     19757     19755     19765     19767
     19757     19755     19765     19768     19757     19759     19761     19762
     19757     19759     19761     19763     19757     19759     19761     19764
     19758     19757     19755     19765     19758     19757     19759     19760
     19758     19757     19759     19761     19759     19757     19755     19765
     19760     19759     19761     19762     19760     19759     19761     19763
     19760     19759     19761     19764     19765     19767     19777     19778
     19765     19767     19777     19781     19765     19767     19777     19782
     19765     19768     19752     19772     19765     19768     19770     19771
     19766     19765     19767     19777     19766     19765     19768     19769
     19766     19765     19768     19770     19767     19765     19768     19769
     19767     19765     19768     19770     19767     19777     19781     19779
     19767     19777     19782     19783     19767     19777     19782     19784
     19767     19777     19782     19785     19768     19752     19772     19773
     19768     19752     19772     19774     19768     19752     19772     19775
     19768     19765     19767     19777     19769     19768     19752     19772
     19769     19768     19770     19771     19770     19768     19752     19772
     19773     19772     19775     19776     19774     19772     19775     19776
     19777     19781     19779     19780     19777     19781     19779     19789
     19777     19781     19779     19793     19777     19782     19784     19798
     19777     19782     19785     19786     19777     19782     19785     19787
     19777     19782     19785     19789     19778     19777     19781     19779
     19778     19777     19782     19783     19778     19777     19782     19784
     19778     19777     19782     19785     19779     19781     19777     19782
     19779     19789     19785     19782     19779     19789     19785     19786
     19779     19789     19785     19787     19779     19789     19791     19792
     19779     19793     19796     19797     19780     19779     19789     19785
     19780     19779     19789     19790     19780     19779     19789     19791
     19780     19779     19793     19794     19780     19779     19793     19795
     19780     19779     19793     19796     19781     19777     19782     19783
     19781     19777     19782     19784     19781     19777     19782     19785
     19781     19779     19789     19785     19781     19779     19789     19790
     19781     19779     19789     19791     19781     19779     19793     19794
     19781     19779     19793     19795     19781     19779     19793     19796
     19782     19784     19798     19799     19782     19784     19798     19802
     19782     19784     19798     19803     19782     19785     19787     19788
     19782     19785     19789     19790     19782     19785     19789     19791
     19783     19782     19784     19798     19783     19782     19785     19786
     19783     19782     19785     19787     19783     19782     19785     19789
     19784     19782     19785     19786     19784     19782     19785     19787
     19784     19782     19785     19789     19784     19798     19802     19800
     19784     19798     19803     19804     19784     19798     19803     19805
     19784     19798     19803     19806     19785     19782     19784     19798
     19785     19789     19779     19793     19785     19789     19791     19792
     19786     19785     19787     19788     19786     19785     19789     19790
     19786     19785     19789     19791     19787     19785     19789     19790
     19787     19785     19789     19791     19788     19787     19785     19789
     19789     19779     19793     19794     19789     19779     19793     19795
     19789     19779     19793     19796     19790     19789     19779     19793
     19790     19789     19791     19792     19791     19789     19779     19793
     19794     19793     19796     19797     19795     19793     19796     19797
     19798     19802     19800     19801     19798     19802     19800     19810
     19798     19802     19800     19814     19798     19803     19805     19818
     19798     19803     19806     19807     19798     19803     19806     19808
     19798     19803     19806     19810     19799     19798     19802     19800
     19799     19798     19803     19804     19799     19798     19803     19805
     19799     19798     19803     19806     19800     19802     19798     19803
     19800     19810     19806     19803     19800     19810     19806     19807
     19800     19810     19806     19808     19800     19810     19812     19813
     19801     19800     19810     19806     19801     19800     19810     19811
     19801     19800     19810     19812     19801     19800     19814     19815
     19801     19800     19814     19816     19801     19800     19814     19817
     19802     19798     19803     19804     19802     19798     19803     19805
     19802     19798     19803     19806     19802     19800     19810     19806
     19802     19800     19810     19811     19802     19800     19810     19812
     19802     19800     19814     19815     19802     19800     19814     19816
     19802     19800     19814     19817     19803     19805     19818     19819
     19803     19805     19818     19822     19803     19805     19818     19823
     19803     19806     19808     19809     19803     19806     19810     19811
     19803     19806     19810     19812     19804     19803     19805     19818
     19804     19803     19806     19807     19804     19803     19806     19808
     19804     19803     19806     19810     19805     19803     19806     19807
     19805     19803     19806     19808     19805     19803     19806     19810
     19805     19818     19822     19820     19805     19818     19823     19824
     19805     19818     19823     19825     19805     19818     19823     19826
     19806     19803     19805     19818     19806     19810     19800     19814
     19806     19810     19812     19813     19807     19806     19808     19809
     19807     19806     19810     19811     19807     19806     19810     19812
     19808     19806     19810     19811     19808     19806     19810     19812
     19809     19808     19806     19810     19810     19800     19814     19815
     19810     19800     19814     19816     19810     19800     19814     19817
     19811     19810     19800     19814     19811     19810     19812     19813
     19812     19810     19800     19814     19818     19822     19820     19821
     19818     19822     19820     19829     19818     19822     19820     19833
     19818     19823     19825     19837     19818     19823     19826     19827
     19818     19823     19826     19828     19818     19823     19826     19829
     19819     19818     19822     19820     19819     19818     19823     19824
     19819     19818     19823     19825     19819     19818     19823     19826
     19820     19822     19818     19823     19820     19829     19826     19823
     19820     19829     19826     19827     19820     19829     19826     19828
     19820     19829     19831     19832     19821     19820     19829     19826
     19821     19820     19829     19830     19821     19820     19829     19831
     19821     19820     19833     19834     19821     19820     19833     19835
     19821     19820     19833     19836     19822     19818     19823     19824
     19822     19818     19823     19825     19822     19818     19823     19826
     19822     19820     19829     19826     19822     19820     19829     19830
     19822     19820     19829     19831     19822     19820     19833     19834
     19822     19820     19833     19835     19822     19820     19833     19836
     19823     19825     19837     19838     19823     19825     19837     19841
     19823     19825     19837     19842     19823     19826     19828     19865
     19823     19826     19829     19830     19823     19826     19829     19831
     19824     19823     19825     19837     19824     19823     19826     19827
     19824     19823     19826     19828     19824     19823     19826     19829
     19825     19823     19826     19827     19825     19823     19826     19828
     19825     19823     19826     19829     19825     19837     19841     19839
     19825     19837     19842     19843     19825     19837     19842     19844
     19825     19837     19842     19852     19826     19823     19825     19837
     19826     19828     19865     19866     19826     19828     19865     19869
     19826     19828     19865     19870     19826     19829     19820     19833
     19826     19829     19831     19832     19827     19826     19828     19865
     19827     19826     19829     19830     19827     19826     19829     19831
     19828     19826     19829     19830     19828     19826     19829     19831
     19828     19865     19869     19867     19828     19865     19870     19871
     19828     19865     19870     19872     19828     19865     19870     19880
     19829     19820     19833     19834     19829     19820     19833     19835
     19829     19820     19833     19836     19829     19826     19828     19865
     19830     19829     19820     19833     19830     19829     19831     19832
     19831     19829     19820     19833     19837     19841     19839     19840
     19837     19841     19839     19856     19837     19841     19839     19860
     19837     19842     19844     19845     19837     19842     19844     19846
     19837     19842     19852     19853     19837     19842     19852     19854
     19837     19842     19852     19856     19838     19837     19841     19839
     19838     19837     19842     19843     19838     19837     19842     19844
     19838     19837     19842     19852     19839     19841     19837     19842
     19839     19856     19852     19842     19839     19856     19852     19853
     19839     19856     19852     19854     19839     19856     19858     19859
     19839     19860     19863     19864     19840     19839     19856     19852
     19840     19839     19856     19857     19840     19839     19856     19858
     19840     19839     19860     19861     19840     19839     19860     19862
     19840     19839     19860     19863     19841     19837     19842     19843
     19841     19837     19842     19844     19841     19837     19842     19852
     19841     19839     19856     19852     19841     19839     19856     19857
     19841     19839     19856     19858     19841     19839     19860     19861
     19841     19839     19860     19862     19841     19839     19860     19863
     19842     19844     19846     19847     19842     19844     19846     19848
     19842     19852     19854     19855     19842     19852     19856     19857
     19842     19852     19856     19858     19843     19842     19844     19845
     19843     19842     19844     19846     19843     19842     19852     19853
     19843     19842     19852     19854     19843     19842     19852     19856
     19844     19842     19852     19853     19844     19842     19852     19854
     19844     19842     19852     19856     19844     19846     19848     19849
     19844     19846     19848     19850     19844     19846     19848     19851
     19845     19844     19842     19852     19845     19844     19846     19847
     19845     19844     19846     19848     19846     19844     19842     19852
     19847     19846     19848     19849     19847     19846     19848     19850
     19847     19846     19848     19851     19852     19856     19839     19860
     19852     19856     19858     19859     19853     19852     19854     19855
     19853     19852     19856     19857     19853     19852     19856     19858
     19854     19852     19856     19857     19854     19852     19856     19858
     19855     19854     19852     19856     19856     19839     19860     19861
     19856     19839     19860     19862     19856     19839     19860     19863
     19857     19856     19839     19860     19857     19856     19858     19859
     19858     19856     19839     19860     19861     19860     19863     19864
     19862     19860     19863     19864     19865     19869     19867     19868
     19865     19869     19867     19883     19865     19869     19867     19887
     19865     19870     19872     19873     19865     19870     19872     19874
     19865     19870     19880     19881     19865     19870     19880     19882
     19865     19870     19880     19883     19866     19865     19869     19867
     19866     19865     19870     19871     19866     19865     19870     19872
     19866     19865     19870     19880     19867     19869     19865     19870
     19867     19883     19880     19870     19867     19883     19880     19881
     19867     19883     19880     19882     19867     19883     19885     19886
     19867     19887     19890     19891     19868     19867     19883     19880
     19868     19867     19883     19884     19868     19867     19883     19885
     19868     19867     19887     19888     19868     19867     19887     19889
     19868     19867     19887     19890     19869     19865     19870     19871
     19869     19865     19870     19872     19869     19865     19870     19880
     19869     19867     19883     19880     19869     19867     19883     19884
     19869     19867     19883     19885     19869     19867     19887     19888
     19869     19867     19887     19889     19869     19867     19887     19890
     19870     19872     19874     19875     19870     19872     19874     19876
     19870     19880     19882     19892     19870     19880     19883     19884
     19870     19880     19883     19885     19871     19870     19872     19873
     19871     19870     19872     19874     19871     19870     19880     19881
     19871     19870     19880     19882     19871     19870     19880     19883
     19872     19870     19880     19881     19872     19870     19880     19882
     19872     19870     19880     19883     19872     19874     19876     19877
     19872     19874     19876     19878     19872     19874     19876     19879
     19873     19872     19870     19880     19873     19872     19874     19875
     19873     19872     19874     19876     19874     19872     19870     19880
     19875     19874     19876     19877     19875     19874     19876     19878
     19875     19874     19876     19879     19880     19882     19892     19893
     19880     19882     19892     19896     19880     19882     19892     19897
     19880     19883     19867     19887     19880     19883     19885     19886
     19881     19880     19882     19892     19881     19880     19883     19884
     19881     19880     19883     19885     19882     19880     19883     19884
     19882     19880     19883     19885     19882     19892     19896     19894
     19882     19892     19897     19898     19882     19892     19897     19899
     19882     19892     19897     19900     19883     19867     19887     19888
     19883     19867     19887     19889     19883     19867     19887     19890
     19883     19880     19882     19892     19884     19883     19867     19887
     19884     19883     19885     19886     19885     19883     19867     19887
     19888     19887     19890     19891     19889     19887     19890     19891
     19892     19896     19894     19895     19892     19896     19894     19904
     19892     19896     19894     19908     19892     19897     19899     19913
     19892     19897     19900     19901     19892     19897     19900     19902
     19892     19897     19900     19904     19893     19892     19896     19894
     19893     19892     19897     19898     19893     19892     19897     19899
     19893     19892     19897     19900     19894     19896     19892     19897
     19894     19904     19900     19897     19894     19904     19900     19901
     19894     19904     19900     19902     19894     19904     19906     19907
     19894     19908     19911     19912     19895     19894     19904     19900
     19895     19894     19904     19905     19895     19894     19904     19906
     19895     19894     19908     19909     19895     19894     19908     19910
     19895     19894     19908     19911     19896     19892     19897     19898
     19896     19892     19897     19899     19896     19892     19897     19900
     19896     19894     19904     19900     19896     19894     19904     19905
     19896     19894     19904     19906     19896     19894     19908     19909
     19896     19894     19908     19910     19896     19894     19908     19911
     19897     19899     19913     19914     19897     19899     19913     19917
     19897     19899     19913     19918     19897     19900     19902     19903
     19897     19900     19904     19905     19897     19900     19904     19906
     19898     19897     19899     19913     19898     19897     19900     19901
     19898     19897     19900     19902     19898     19897     19900     19904
     19899     19897     19900     19901     19899     19897     19900     19902
     19899     19897     19900     19904     19899     19913     19917     19915
     19899     19913     19918     19919     19899     19913     19918     19920
     19899     19913     19918     19921     19900     19897     19899     19913
     19900     19904     19894     19908     19900     19904     19906     19907
     19901     19900     19902     19903     19901     19900     19904     19905
     19901     19900     19904     19906     19902     19900     19904     19905
     19902     19900     19904     19906     19903     19902     19900     19904
     19904     19894     19908     19909     19904     19894     19908     19910
     19904     19894     19908     19911     19905     19904     19894     19908
     19905     19904     19906     19907     19906     19904     19894     19908
     19909     19908     19911     19912     19910     19908     19911     19912
     19913     19917     19915     19916     19913     19917     19915     19925
     19913     19917     19915     19929     19913     19918     19920     19933
     19913     19918     19921     19922     19913     19918     19921     19923
     19913     19918     19921     19925     19914     19913     19917     19915
     19914     19913     19918     19919     19914     19913     19918     19920
     19914     19913     19918     19921     19915     19917     19913     19918
     19915     19925     19921     19918     19915     19925     19921     19922
     19915     19925     19921     19923     19915     19925     19927     19928
     19916     19915     19925     19921     19916     19915     19925     19926
     19916     19915     19925     19927     19916     19915     19929     19930
     19916     19915     19929     19931     19916     19915     19929     19932
     19917     19913     19918     19919     19917     19913     19918     19920
     19917     19913     19918     19921     19917     19915     19925     19921
     19917     19915     19925     19926     19917     19915     19925     19927
     19917     19915     19929     19930     19917     19915     19929     19931
     19917     19915     19929     19932     19918     19920     19933     19934
     19918     19920     19933     19937     19918     19920     19933     19938
     19918     19921     19923     19924     19918     19921     19925     19926
     19918     19921     19925     19927     19919     19918     19920     19933
     19919     19918     19921     19922     19919     19918     19921     19923
     19919     19918     19921     19925     19920     19918     19921     19922
     19920     19918     19921     19923     19920     19918     19921     19925
     19920     19933     19937     19935     19920     19933     19938     19939
     19920     19933     19938     19940     19920     19933     19938     19941
     19921     19918     19920     19933     19921     19925     19915     19929
     19921     19925     19927     19928     19922     19921     19923     19924
     19922     19921     19925     19926     19922     19921     19925     19927
     19923     19921     19925     19926     19923     19921     19925     19927
     19924     19923     19921     19925     19925     19915     19929     19930
     19925     19915     19929     19931     19925     19915     19929     19932
     19926     19925     19915     19929     19926     19925     19927     19928
     19927     19925     19915     19929     19933     19937     19935     19936
     19933     19937     19935     19945     19933     19937     19935     19949
     19933     19938     19940     19953     19933     19938     19941     19942
     19933     19938     19941     19943     19933     19938     19941     19945
     19934     19933     19937     19935     19934     19933     19938     19939
     19934     19933     19938     19940     19934     19933     19938     19941
     19935     19937     19933     19938     19935     19945     19941     19938
     19935     19945     19941     19942     19935     19945     19941     19943
     19935     19945     19947     19948     19936     19935     19945     19941
     19936     19935     19945     19946     19936     19935     19945     19947
     19936     19935     19949     19950     19936     19935     19949     19951
     19936     19935     19949     19952     19937     19933     19938     19939
     19937     19933     19938     19940     19937     19933     19938     19941
     19937     19935     19945     19941     19937     19935     19945     19946
     19937     19935     19945     19947     19937     19935     19949     19950
     19937     19935     19949     19951     19937     19935     19949     19952
     19938     19940     19953     19954     19938     19940     19953     19957
     19938     19940     19953     19958     19938     19941     19943     19944
     19938     19941     19945     19946     19938     19941     19945     19947
     19939     19938     19940     19953     19939     19938     19941     19942
     19939     19938     19941     19943     19939     19938     19941     19945
     19940     19938     19941     19942     19940     19938     19941     19943
     19940     19938     19941     19945     19940     19953     19957     19955
     19940     19953     19958     19959     19940     19953     19958     19960
     19940     19953     19958     19968     19941     19938     19940     19953
     19941     19945     19935     19949     19941     19945     19947     19948
     19942     19941     19943     19944     19942     19941     19945     19946
     19942     19941     19945     19947     19943     19941     19945     19946
     19943     19941     19945     19947     19944     19943     19941     19945
     19945     19935     19949     19950     19945     19935     19949     19951
     19945     19935     19949     19952     19946     19945     19935     19949
     19946     19945     19947     19948     19947     19945     19935     19949
     19953     19957     19955     19956     19953     19957     19955     19972
     19953     19957     19955     19976     19953     19958     19960     19961
     19953     19958     19960     19962     19953     19958     19968     19969
     19953     19958     19968     19970     19953     19958     19968     19972
     19954     19953     19957     19955     19954     19953     19958     19959
     19954     19953     19958     19960     19954     19953     19958     19968
     19955     19957     19953     19958     19955     19972     19968     19958
     19955     19972     19968     19969     19955     19972     19968     19970
     19955     19972     19974     19975     19955     19976     19979     19980
     19956     19955     19972     19968     19956     19955     19972     19973
     19956     19955     19972     19974     19956     19955     19976     19977
     19956     19955     19976     19978     19956     19955     19976     19979
     19957     19953     19958     19959     19957     19953     19958     19960
     19957     19953     19958     19968     19957     19955     19972     19968
     19957     19955     19972     19973     19957     19955     19972     19974
     19957     19955     19976     19977     19957     19955     19976     19978
     19957     19955     19976     19979     19958     19960     19962     19963
     19958     19960     19962     19964     19958     19968     19970     19971
     19958     19968     19972     19973     19958     19968     19972     19974
     19959     19958     19960     19961     19959     19958     19960     19962
     19959     19958     19968     19969     19959     19958     19968     19970
     19959     19958     19968     19972     19960     19958     19968     19969
     19960     19958     19968     19970     19960     19958     19968     19972
     19960     19962     19964     19965     19960     19962     19964     19966
     19960     19962     19964     19967     19961     19960     19958     19968
     19961     19960     19962     19963     19961     19960     19962     19964
     19962     19960     19958     19968     19963     19962     19964     19965
     19963     19962     19964     19966     19963     19962     19964     19967
     19968     19972     19955     19976     19968     19972     19974     19975
     19969     19968     19970     19971     19969     19968     19972     19973
     19969     19968     19972     19974     19970     19968     19972     19973
     19970     19968     19972     19974     19971     19970     19968     19972
     19972     19955     19976     19977     19972     19955     19976     19978
     19972     19955     19976     19979     19973     19972     19955     19976
     19973     19972     19974     19975     19974     19972     19955     19976
     19977     19976     19979     19980     19978     19976     19979     19980
     19981     19983     19982     20280     19981     19983     19985     19986
     19981     19983     19985     19987     19981     19983     19985     19994
     19982     19983     19985     19986     19982     19983     19985     19987
     19982     19983     19985     19994     19982     20280     20277     20278
     19982     20280     20277     20279     19982     20280     20283     20281
     19982     20280     20284     20285     19982     20280     20284     20286
     19982     20280     20284     20287     19983     19982     20280     20277
     19983     19982     20280     20283     19983     19982     20280     20284
     19983     19985     19986     19988     19983     19985     19994     19995
     19983     19985     19994     19996     19983     19985     19994     20001
     19984     19983     19982     20280     19984     19983     19985     19986
     19984     19983     19985     19987     19984     19983     19985     19994
     19985     19983     19982     20280     19985     19986     19988     19989
     19985     19986     19988     19990     19985     19986     19988     20009
     19985     19994     19996     19997     19985     19994     20001     20002
     19985     19994     20001     20003     19985     19994     20001     20009
     19986     19985     19994     19995     19986     19985     19994     19996
     19986     19985     19994     20001     19986     19988     19990     19991
     19986     19988     20009     20001     19986     19988     20009     20010
     19986     19988     20009     20011     19987     19985     19986     19988
     19987     19985     19994     19995     19987     19985     19994     19996
     19987     19985     19994     20001     19988     19986     19985     19994
     19988     19990     19991     19992     19988     19990     19991     19993
     19988     19990     19991     20017     19988     20009     20001     19994
     19988     20009     20001     20002     19988     20009     20001     20003
     19988     20009     20011     20012     19988     20009     20011     20118
     19989     19988     19990     19991     19989     19988     20009     20001
     19989     19988     20009     20010     19989     19988     20009     20011
     19990     19988     20009     20001     19990     19988     20009     20010
     19990     19988     20009     20011     19990     19991     20017     20013
     19990     19991     20017     20018     19990     19991     20017     20019
     19991     19990     19988     20009     19991     20017     20013     20014
     19991     20017     20013     20015     19991     20017     20013     20027
     19991     20017     20019     20020     19992     19991     20017     20013
     19992     19991     20017     20018     19992     19991     20017     20019
     19993     19991     20017     20013     19993     19991     20017     20018
     19993     19991     20017     20019     19994     19996     19997     19998
     19994     19996     19997     19999     19994     19996     19997     20000
     19994     20001     20002     20004     19994     20001     20009     20010
     19994     20001     20009     20011     19995     19994     19996     19997
     19995     19994     20001     20002     19995     19994     20001     20003
     19995     19994     20001     20009     19996     19994     20001     20002
     19996     19994     20001     20003     19996     19994     20001     20009
     19997     19996     19994     20001     20001     20002     20004     20005
     20001     20002     20004     20006     20001     20009     20011     20012
     20001     20009     20011     20118     20002     20001     20009     20010
     20002     20001     20009     20011     20002     20004     20006     20007
     20002     20004     20006     20008     20002     20004     20006     20039
     20003     20001     20002     20004     20003     20001     20009     20010
     20003     20001     20009     20011     20004     20002     20001     20009
     20004     20006     20039     20040     20004     20006     20039     20041
     20004     20006     20039     20084     20005     20004     20006     20007
     20005     20004     20006     20008     20005     20004     20006     20039
     20006     20039     20041     20042     20006     20039     20084     20085
     20006     20039     20084     20086     20006     20039     20084     20087
     20007     20006     20039     20040     20007     20006     20039     20041
     20007     20006     20039     20084     20008     20006     20039     20040
     20008     20006     20039     20041     20008     20006     20039     20084
     20009     20011     20118     20119     20009     20011     20118     20120
     20010     20009     20011     20012     20010     20009     20011     20118
     20011     20118     20120     20121     20011     20118     20120     20122
     20011     20118     20120     20123     20012     20011     20118     20119
     20012     20011     20118     20120     20013     20017     20019     20020
     20013     20027     20029     20030     20013     20027     20035     20020
     20013     20027     20035     20036     20013     20027     20035     20037
     20014     20013     20015     20016     20014     20013     20017     20018
     20014     20013     20017     20019     20014     20013     20027     20028
     20014     20013     20027     20029     20014     20013     20027     20035
     20015     20013     20017     20018     20015     20013     20017     20019
     20015     20013     20027     20028     20015     20013     20027     20029
     20015     20013     20027     20035     20016     20015     20013     20017
     20016     20015     20013     20027     20017     20013     20027     20028
     20017     20013     20027     20029     20017     20013     20027     20035
     20017     20019     20020     20021     20017     20019     20020     20022
     20017     20019     20020     20035     20018     20017     20013     20027
     20018     20017     20019     20020     20019     20017     20013     20027
     20019     20020     20022     20026     20019     20020     20035     20027
     20019     20020     20035     20036     20019     20020     20035     20037
     20020     20022     20026     20023     20020     20022     20026     20024
     20020     20022     20026     20025     20020     20035     20027     20028
     20020     20035     20027     20029     20020     20035     20037     20038
     20020     20035     20037     20234     20021     20020     20022     20026
     20021     20020     20035     20027     20021     20020     20035     20036
     20021     20020     20035     20037     20022     20020     20035     20027
     20022     20020     20035     20036     20022     20020     20035     20037
     20026     20022     20020     20035     20027     20029     20030     20031
     20027     20029     20030     20032     20027     20035     20037     20038
     20027     20035     20037     20234     20028     20027     20029     20030
     20028     20027     20035     20036     20028     20027     20035     20037
     20029     20027     20035     20036     20029     20027     20035     20037
     20029     20030     20032     20033     20029     20030     20032     20034
     20029     20030     20032     20196     20030     20029     20027     20035
     20030     20032     20196     20197     20030     20032     20196     20198
     20030     20032     20196     20200     20031     20030     20032     20033
     20031     20030     20032     20034     20031     20030     20032     20196
     20032     20196     20198     20199     20032     20196     20200     20201
     20032     20196     20200     20202     20032     20196     20200     20203
     20033     20032     20196     20197     20033     20032     20196     20198
     20033     20032     20196     20200     20034     20032     20196     20197
     20034     20032     20196     20198     20034     20032     20196     20200
     20035     20037     20234     20235     20035     20037     20234     20236
     20036     20035     20037     20038     20036     20035     20037     20234
     20037     20234     20236     20237     20037     20234     20236     20238
     20037     20234     20236     20239     20038     20037     20234     20235
     20038     20037     20234     20236     20039     20041     20042     20043
     20039     20041     20042     20044     20039     20084     20087     20088
     20039     20084     20087     20089     20039     20084     20087     20090
     20040     20039     20041     20042     20040     20039     20084     20085
     20040     20039     20084     20086     20040     20039     20084     20087
     20041     20039     20084     20085     20041     20039     20084     20086
     20041     20039     20084     20087     20041     20042     20044     20045
     20041     20042     20044     20046     20041     20042     20044     20047
     20042     20041     20039     20084     20042     20044     20047     20048
     20042     20044     20047     20049     20042     20044     20047     20050
     20043     20042     20044     20045     20043     20042     20044     20046
     20043     20042     20044     20047     20044     20047     20050     20051
     20044     20047     20050     20052     20044     20047     20050     20053
     20045     20044     20047     20048     20045     20044     20047     20049
     20045     20044     20047     20050     20046     20044     20047     20048
     20046     20044     20047     20049     20046     20044     20047     20050
     20047     20050     20053     20054     20047     20050     20053     20055
     20047     20050     20053     20056     20048     20047     20050     20051
     20048     20047     20050     20052     20048     20047     20050     20053
     20049     20047     20050     20051     20049     20047     20050     20052
     20049     20047     20050     20053     20050     20053     20056     20057
     20050     20053     20056     20058     20050     20053     20056     20059
     20051     20050     20053     20054     20051     20050     20053     20055
     20051     20050     20053     20056     20052     20050     20053     20054
     20052     20050     20053     20055     20052     20050     20053     20056
     20053     20056     20059     20060     20053     20056     20059     20061
     20053     20056     20059     20062     20054     20053     20056     20057
     20054     20053     20056     20058     20054     20053     20056     20059
     20055     20053     20056     20057     20055     20053     20056     20058
     20055     20053     20056     20059     20056     20059     20062     20063
     20056     20059     20062     20064     20056     20059     20062     20065
     20057     20056     20059     20060     20057     20056     20059     20061
     20057     20056     20059     20062     20058     20056     20059     20060
     20058     20056     20059     20061     20058     20056     20059     20062
     20059     20062     20065     20066     20059     20062     20065     20067
     20059     20062     20065     20068     20060     20059     20062     20063
     20060     20059     20062     20064     20060     20059     20062     20065
     20061     20059     20062     20063     20061     20059     20062     20064
     20061     20059     20062     20065     20062     20065     20068     20069
     20062     20065     20068     20070     20062     20065     20068     20071
     20063     20062     20065     20066     20063     20062     20065     20067
     20063     20062     20065     20068     20064     20062     20065     20066
     20064     20062     20065     20067     20064     20062     20065     20068
     20065     20068     20071     20072     20065     20068     20071     20073
     20065     20068     20071     20074     20066     20065     20068     20069
     20066     20065     20068     20070     20066     20065     20068     20071
     20067     20065     20068     20069     20067     20065     20068     20070
     20067     20065     20068     20071     20068     20071     20074     20075
     20068     20071     20074     20076     20068     20071     20074     20077
     20069     20068     20071     20072     20069     20068     20071     20073
     20069     20068     20071     20074     20070     20068     20071     20072
     20070     20068     20071     20073     20070     20068     20071     20074
     20071     20074     20077     20078     20071     20074     20077     20079
     20071     20074     20077     20080     20072     20071     20074     20075
     20072     20071     20074     20076     20072     20071     20074     20077
     20073     20071     20074     20075     20073     20071     20074     20076
     20073     20071     20074     20077     20074     20077     20080     20081
     20074     20077     20080     20082     20074     20077     20080     20083
     20075     20074     20077     20078     20075     20074     20077     20079
     20075     20074     20077     20080     20076     20074     20077     20078
     20076     20074     20077     20079     20076     20074     20077     20080
     20078     20077     20080     20081     20078     20077     20080     20082
     20078     20077     20080     20083     20079     20077     20080     20081
     20079     20077     20080     20082     20079     20077     20080     20083
     20084     20087     20090     20091     20084     20087     20090     20092
     20084     20087     20090     20093     20085     20084     20087     20088
     20085     20084     20087     20089     20085     20084     20087     20090
     20086     20084     20087     20088     20086     20084     20087     20089
     20086     20084     20087     20090     20087     20090     20093     20094
     20087     20090     20093     20095     20087     20090     20093     20096
     20088     20087     20090     20091     20088     20087     20090     20092
     20088     20087     20090     20093     20089     20087     20090     20091
     20089     20087     20090     20092     20089     20087     20090     20093
     20090     20093     20096     20097     20090     20093     20096     20098
     20090     20093     20096     20099     20091     20090     20093     20094
     20091     20090     20093     20095     20091     20090     20093     20096
     20092     20090     20093     20094     20092     20090     20093     20095
     20092     20090     20093     20096     20093     20096     20099     20100
     20093     20096     20099     20101     20093     20096     20099     20102
     20094     20093     20096     20097     20094     20093     20096     20098
     20094     20093     20096     20099     20095     20093     20096     20097
     20095     20093     20096     20098     20095     20093     20096     20099
     20096     20099     20102     20103     20096     20099     20102     20104
     20096     20099     20102     20105     20097     20096     20099     20100
     20097     20096     20099     20101     20097     20096     20099     20102
     20098     20096     20099     20100     20098     20096     20099     20101
     20098     20096     20099     20102     20099     20102     20105     20106
     20099     20102     20105     20107     20099     20102     20105     20108
     20100     20099     20102     20103     20100     20099     20102     20104
     20100     20099     20102     20105     20101     20099     20102     20103
     20101     20099     20102     20104     20101     20099     20102     20105
     20102     20105     20108     20109     20102     20105     20108     20110
     20102     20105     20108     20111     20103     20102     20105     20106
     20103     20102     20105     20107     20103     20102     20105     20108
     20104     20102     20105     20106     20104     20102     20105     20107
     20104     20102     20105     20108     20105     20108     20111     20112
     20105     20108     20111     20113     20105     20108     20111     20114
     20106     20105     20108     20109     20106     20105     20108     20110
     20106     20105     20108     20111     20107     20105     20108     20109
     20107     20105     20108     20110     20107     20105     20108     20111
     20108     20111     20114     20115     20108     20111     20114     20116
     20108     20111     20114     20117     20109     20108     20111     20112
     20109     20108     20111     20113     20109     20108     20111     20114
     20110     20108     20111     20112     20110     20108     20111     20113
     20110     20108     20111     20114     20112     20111     20114     20115
     20112     20111     20114     20116     20112     20111     20114     20117
     20113     20111     20114     20115     20113     20111     20114     20116
     20113     20111     20114     20117     20118     20120     20123     20124
     20118     20120     20123     20125     20118     20120     20123     20162
     20119     20118     20120     20121     20119     20118     20120     20122
     20119     20118     20120     20123     20120     20123     20125     20126
     20120     20123     20162     20163     20120     20123     20162     20164
     20120     20123     20162     20165     20121     20120     20123     20124
     20121     20120     20123     20125     20121     20120     20123     20162
     20122     20120     20123     20124     20122     20120     20123     20125
     20122     20120     20123     20162     20123     20125     20126     20127
     20123     20125     20126     20128     20123     20162     20165     20166
     20123     20162     20165     20167     20123     20162     20165     20168
     20124     20123     20125     20126     20124     20123     20162     20163
     20124     20123     20162     20164     20124     20123     20162     20165
     20125     20123     20162     20163     20125     20123     20162     20164
     20125     20123     20162     20165     20125     20126     20128     20129
     20125     20126     20128     20130     20125     20126     20128     20131
     20126     20125     20123     20162     20126     20128     20131     20132
     20126     20128     20131     20133     20126     20128     20131     20134
     20127     20126     20128     20129     20127     20126     20128     20130
     20127     20126     20128     20131     20128     20131     20134     20135
     20128     20131     20134     20136     20128     20131     20134     20137
     20129     20128     20131     20132     20129     20128     20131     20133
     20129     20128     20131     20134     20130     20128     20131     20132
     20130     20128     20131     20133     20130     20128     20131     20134
     20131     20134     20137     20138     20131     20134     20137     20139
     20131     20134     20137     20140     20132     20131     20134     20135
     20132     20131     20134     20136     20132     20131     20134     20137
     20133     20131     20134     20135     20133     20131     20134     20136
     20133     20131     20134     20137     20134     20137     20140     20141
     20134     20137     20140     20142     20134     20137     20140     20143
     20135     20134     20137     20138     20135     20134     20137     20139
     20135     20134     20137     20140     20136     20134     20137     20138
     20136     20134     20137     20139     20136     20134     20137     20140
     20137     20140     20143     20144     20137     20140     20143     20145
     20137     20140     20143     20146     20138     20137     20140     20141
     20138     20137     20140     20142     20138     20137     20140     20143
     20139     20137     20140     20141     20139     20137     20140     20142
     20139     20137     20140     20143     20140     20143     20146     20147
     20140     20143     20146     20148     20140     20143     20146     20149
     20141     20140     20143     20144     20141     20140     20143     20145
     20141     20140     20143     20146     20142     20140     20143     20144
     20142     20140     20143     20145     20142     20140     20143     20146
     20143     20146     20149     20150     20143     20146     20149     20151
     20143     20146     20149     20152     20144     20143     20146     20147
     20144     20143     20146     20148     20144     20143     20146     20149
     20145     20143     20146     20147     20145     20143     20146     20148
     20145     20143     20146     20149     20146     20149     20152     20153
     20146     20149     20152     20154     20146     20149     20152     20155
     20147     20146     20149     20150     20147     20146     20149     20151
     20147     20146     20149     20152     20148     20146     20149     20150
     20148     20146     20149     20151     20148     20146     20149     20152
     20149     20152     20155     20156     20149     20152     20155     20157
     20149     20152     20155     20158     20150     20149     20152     20153
     20150     20149     20152     20154     20150     20149     20152     20155
     20151     20149     20152     20153     20151     20149     20152     20154
     20151     20149     20152     20155     20152     20155     20158     20159
     20152     20155     20158     20160     20152     20155     20158     20161
     20153     20152     20155     20156     20153     20152     20155     20157
     20153     20152     20155     20158     20154     20152     20155     20156
     20154     20152     20155     20157     20154     20152     20155     20158
     20156     20155     20158     20159     20156     20155     20158     20160
     20156     20155     20158     20161     20157     20155     20158     20159
     20157     20155     20158     20160     20157     20155     20158     20161
     20162     20165     20168     20169     20162     20165     20168     20170
     20162     20165     20168     20171     20163     20162     20165     20166
     20163     20162     20165     20167     20163     20162     20165     20168
     20164     20162     20165     20166     20164     20162     20165     20167
     20164     20162     20165     20168     20165     20168     20171     20172
     20165     20168     20171     20173     20165     20168     20171     20174
     20166     20165     20168     20169     20166     20165     20168     20170
     20166     20165     20168     20171     20167     20165     20168     20169
     20167     20165     20168     20170     20167     20165     20168     20171
     20168     20171     20174     20175     20168     20171     20174     20176
     20168     20171     20174     20177     20169     20168     20171     20172
     20169     20168     20171     20173     20169     20168     20171     20174
     20170     20168     20171     20172     20170     20168     20171     20173
     20170     20168     20171     20174     20171     20174     20177     20178
     20171     20174     20177     20179     20171     20174     20177     20180
     20172     20171     20174     20175     20172     20171     20174     20176
     20172     20171     20174     20177     20173     20171     20174     20175
     20173     20171     20174     20176     20173     20171     20174     20177
     20174     20177     20180     20181     20174     20177     20180     20182
     20174     20177     20180     20183     20175     20174     20177     20178
     20175     20174     20177     20179     20175     20174     20177     20180
     20176     20174     20177     20178     20176     20174     20177     20179
     20176     20174     20177     20180     20177     20180     20183     20184
     20177     20180     20183     20185     20177     20180     20183     20186
     20178     20177     20180     20181     20178     20177     20180     20182
     20178     20177     20180     20183     20179     20177     20180     20181
     20179     20177     20180     20182     20179     20177     20180     20183
     20180     20183     20186     20187     20180     20183     20186     20188
     20180     20183     20186     20189     20181     20180     20183     20184
     20181     20180     20183     20185     20181     20180     20183     20186
     20182     20180     20183     20184     20182     20180     20183     20185
     20182     20180     20183     20186     20183     20186     20189     20190
     20183     20186     20189     20191     20183     20186     20189     20192
     20184     20183     20186     20187     20184     20183     20186     20188
     20184     20183     20186     20189     20185     20183     20186     20187
     20185     20183     20186     20188     20185     20183     20186     20189
     20186     20189     20192     20193     20186     20189     20192     20194
     20186     20189     20192     20195     20187     20186     20189     20190
     20187     20186     20189     20191     20187     20186     20189     20192
     20188     20186     20189     20190     20188     20186     20189     20191
     20188     20186     20189     20192     20190     20189     20192     20193
     20190     20189     20192     20194     20190     20189     20192     20195
     20191     20189     20192     20193     20191     20189     20192     20194
     20191     20189     20192     20195     20196     20200     20203     20204
     20196     20200     20203     20205     20196     20200     20203     20206
     20197     20196     20198     20199     20197     20196     20200     20201
     20197     20196     20200     20202     20197     20196     20200     20203
     20198     20196     20200     20201     20198     20196     20200     20202
     20198     20196     20200     20203     20199     20198     20196     20200
     20200     20203     20206     20207     20200     20203     20206     20208
     20200     20203     20206     20209     20201     20200     20203     20204
     20201     20200     20203     20205     20201     20200     20203     20206
     20202     20200     20203     20204     20202     20200     20203     20205
     20202     20200     20203     20206     20203     20206     20209     20210
     20203     20206     20209     20211     20203     20206     20209     20212
     20204     20203     20206     20207     20204     20203     20206     20208
     20204     20203     20206     20209     20205     20203     20206     20207
     20205     20203     20206     20208     20205     20203     20206     20209
     20206     20209     20212     20213     20206     20209     20212     20214
     20206     20209     20212     20215     20207     20206     20209     20210
     20207     20206     20209     20211     20207     20206     20209     20212
     20208     20206     20209     20210     20208     20206     20209     20211
     20208     20206     20209     20212     20209     20212     20215     20216
     20209     20212     20215     20217     20209     20212     20215     20218
     20210     20209     20212     20213     20210     20209     20212     20214
     20210     20209     20212     20215     20211     20209     20212     20213
     20211     20209     20212     20214     20211     20209     20212     20215
     20212     20215     20218     20219     20212     20215     20218     20220
     20212     20215     20218     20221     20213     20212     20215     20216
     20213     20212     20215     20217     20213     20212     20215     20218
     20214     20212     20215     20216     20214     20212     20215     20217
     20214     20212     20215     20218     20215     20218     20221     20222
     20215     20218     20221     20223     20215     20218     20221     20224
     20216     20215     20218     20219     20216     20215     20218     20220
     20216     20215     20218     20221     20217     20215     20218     20219
     20217     20215     20218     20220     20217     20215     20218     20221
     20218     20221     20224     20225     20218     20221     20224     20226
     20218     20221     20224     20227     20219     20218     20221     20222
     20219     20218     20221     20223     20219     20218     20221     20224
     20220     20218     20221     20222     20220     20218     20221     20223
     20220     20218     20221     20224     20221     20224     20227     20228
     20221     20224     20227     20229     20221     20224     20227     20230
     20222     20221     20224     20225     20222     20221     20224     20226
     20222     20221     20224     20227     20223     20221     20224     20225
     20223     20221     20224     20226     20223     20221     20224     20227
     20224     20227     20230     20231     20224     20227     20230     20232
     20224     20227     20230     20233     20225     20224     20227     20228
     20225     20224     20227     20229     20225     20224     20227     20230
     20226     20224     20227     20228     20226     20224     20227     20229
     20226     20224     20227     20230     20228     20227     20230     20231
     20228     20227     20230     20232     20228     20227     20230     20233
     20229     20227     20230     20231     20229     20227     20230     20232
     20229     20227     20230     20233     20234     20236     20239     20240
     20234     20236     20239     20241     20234     20236     20239     20243
     20235     20234     20236     20237     20235     20234     20236     20238
     20235     20234     20236     20239     20236     20239     20241     20242
     20236     20239     20243     20244     20236     20239     20243     20245
     20236     20239     20243     20246     20237     20236     20239     20240
     20237     20236     20239     20241     20237     20236     20239     20243
     20238     20236     20239     20240     20238     20236     20239     20241
     20238     20236     20239     20243     20239     20243     20246     20247
     20239     20243     20246     20248     20239     20243     20246     20249
     20240     20239     20241     20242     20240     20239     20243     20244
     20240     20239     20243     20245     20240     20239     20243     20246
     20241     20239     20243     20244     20241     20239     20243     20245
     20241     20239     20243     20246     20242     20241     20239     20243
     20243     20246     20249     20250     20243     20246     20249     20251
     20243     20246     20249     20252     20244     20243     20246     20247
     20244     20243     20246     20248     20244     20243     20246     20249
     20245     20243     20246     20247     20245     20243     20246     20248
     20245     20243     20246     20249     20246     20249     20252     20253
     20246     20249     20252     20254     20246     20249     20252     20255
     20247     20246     20249     20250     20247     20246     20249     20251
     20247     20246     20249     20252     20248     20246     20249     20250
     20248     20246     20249     20251     20248     20246     20249     20252
     20249     20252     20255     20256     20249     20252     20255     20257
     20249     20252     20255     20258     20250     20249     20252     20253
     20250     20249     20252     20254     20250     20249     20252     20255
     20251     20249     20252     20253     20251     20249     20252     20254
     20251     20249     20252     20255     20252     20255     20258     20259
     20252     20255     20258     20260     20252     20255     20258     20261
     20253     20252     20255     20256     20253     20252     20255     20257
     20253     20252     20255     20258     20254     20252     20255     20256
     20254     20252     20255     20257     20254     20252     20255     20258
     20255     20258     20261     20262     20255     20258     20261     20263
     20255     20258     20261     20264     20256     20255     20258     20259
     20256     20255     20258     20260     20256     20255     20258     20261
     20257     20255     20258     20259     20257     20255     20258     20260
     20257     20255     20258     20261     20258     20261     20264     20265
     20258     20261     20264     20266     20258     20261     20264     20267
     20259     20258     20261     20262     20259     20258     20261     20263
     20259     20258     20261     20264     20260     20258     20261     20262
     20260     20258     20261     20263     20260     20258     20261     20264
     20261     20264     20267     20268     20261     20264     20267     20269
     20261     20264     20267     20270     20262     20261     20264     20265
     20262     20261     20264     20266     20262     20261     20264     20267
     20263     20261     20264     20265     20263     20261     20264     20266
     20263     20261     20264     20267     20264     20267     20270     20271
     20264     20267     20270     20272     20264     20267     20270     20273
     20265     20264     20267     20268     20265     20264     20267     20269
     20265     20264     20267     20270     20266     20264     20267     20268
     20266     20264     20267     20269     20266     20264     20267     20270
     20267     20270     20273     20274     20267     20270     20273     20275
     20267     20270     20273     20276     20268     20267     20270     20271
     20268     20267     20270     20272     20268     20267     20270     20273
     20269     20267     20270     20271     20269     20267     20270     20272
     20269     20267     20270     20273     20271     20270     20273     20274
     20271     20270     20273     20275     20271     20270     20273     20276
     20272     20270     20273     20274     20272     20270     20273     20275
     20272     20270     20273     20276     20277     20280     20283     20281
     20277     20280     20284     20285     20277     20280     20284     20286
     20277     20280     20284     20287     20278     20277     20280     20283
     20278     20277     20280     20284     20279     20277     20280     20283
     20279     20277     20280     20284     20280     20283     20281     20282
     20280     20283     20281     20290     20280     20283     20281     20293
     20280     20284     20287     20288     20280     20284     20287     20289
     20280     20284     20287     20290     20281     20283     20280     20284
     20281     20290     20287     20284     20281     20290     20287     20288
     20281     20290     20287     20289     20281     20290     20292     20329
     20281     20293     20295     20296     20281     20293     20297     20298
     20281     20293     20297     20299     20281     20293     20297     20300
     20282     20281     20290     20287     20282     20281     20290     20291
     20282     20281     20290     20292     20282     20281     20293     20294
     20282     20281     20293     20295     20282     20281     20293     20297
     20283     20280     20284     20285     20283     20280     20284     20286
     20283     20280     20284     20287     20283     20281     20290     20287
     20283     20281     20290     20291     20283     20281     20290     20292
     20283     20281     20293     20294     20283     20281     20293     20295
     20283     20281     20293     20297     20284     20287     20289     20305
     20284     20287     20290     20291     20284     20287     20290     20292
     20285     20284     20287     20288     20285     20284     20287     20289
     20285     20284     20287     20290     20286     20284     20287     20288
     20286     20284     20287     20289     20286     20284     20287     20290
     20287     20289     20305     20302     20287     20289     20305     20308
     20287     20289     20305     20309     20287     20290     20281     20293
     20287     20290     20292     20329     20288     20287     20289     20305
     20288     20287     20290     20291     20288     20287     20290     20292
     20289     20287     20290     20291     20289     20287     20290     20292
     20289     20305     20302     20303     20289     20305     20302     20304
     20289     20305     20308     20306     20289     20305     20309     20310
     20289     20305     20309     20311     20289     20305     20309     20312
     20290     20281     20293     20294     20290     20281     20293     20295
     20290     20281     20293     20297     20290     20287     20289     20305
     20290     20292     20329     20330     20290     20292     20329     20333
     20290     20292     20329     20334     20291     20290     20281     20293
     20291     20290     20292     20329     20292     20290     20281     20293
     20292     20329     20333     20331     20292     20329     20334     20335
     20292     20329     20334     20336     20292     20329     20334     20338
     20293     20297     20300     20301     20294     20293     20295     20296
     20294     20293     20297     20298     20294     20293     20297     20299
     20294     20293     20297     20300     20295     20293     20297     20298
     20295     20293     20297     20299     20295     20293     20297     20300
     20296     20295     20293     20297     20298     20297     20300     20301
     20299     20297     20300     20301     20302     20305     20308     20306
     20302     20305     20309     20310     20302     20305     20309     20311
     20302     20305     20309     20312     20303     20302     20305     20308
     20303     20302     20305     20309     20304     20302     20305     20308
     20304     20302     20305     20309     20305     20308     20306     20307
     20305     20308     20306     20316     20305     20308     20306     20320
     20305     20309     20312     20313     20305     20309     20312     20314
     20305     20309     20312     20316     20306     20308     20305     20309
     20306     20316     20312     20309     20306     20316     20312     20313
     20306     20316     20312     20314     20306     20316     20318     20319
     20306     20320     20322     20323     20306     20320     20324     20325
     20306     20320     20324     20326     20306     20320     20324     20327
     20307     20306     20316     20312     20307     20306     20316     20317
     20307     20306     20316     20318     20307     20306     20320     20321
     20307     20306     20320     20322     20307     20306     20320     20324
     20308     20305     20309     20310     20308     20305     20309     20311
     20308     20305     20309     20312     20308     20306     20316     20312
     20308     20306     20316     20317     20308     20306     20316     20318
     20308     20306     20320     20321     20308     20306     20320     20322
     20308     20306     20320     20324     20309     20312     20314     20315
     20309     20312     20316     20317     20309     20312     20316     20318
     20310     20309     20312     20313     20310     20309     20312     20314
     20310     20309     20312     20316     20311     20309     20312     20313
     20311     20309     20312     20314     20311     20309     20312     20316
     20312     20316     20306     20320     20312     20316     20318     20319
     20313     20312     20314     20315     20313     20312     20316     20317
     20313     20312     20316     20318     20314     20312     20316     20317
     20314     20312     20316     20318     20315     20314     20312     20316
     20316     20306     20320     20321     20316     20306     20320     20322
     20316     20306     20320     20324     20317     20316     20306     20320
     20317     20316     20318     20319     20318     20316     20306     20320
     20320     20324     20327     20328     20321     20320     20322     20323
     20321     20320     20324     20325     20321     20320     20324     20326
     20321     20320     20324     20327     20322     20320     20324     20325
     20322     20320     20324     20326     20322     20320     20324     20327
     20323     20322     20320     20324     20325     20324     20327     20328
     20326     20324     20327     20328     20329     20333     20331     20332
     20329     20333     20331     20341     20329     20333     20331     20348
     20329     20334     20336     20337     20329     20334     20338     20339
     20329     20334     20338     20340     20329     20334     20338     20341
     20330     20329     20333     20331     20330     20329     20334     20335
     20330     20329     20334     20336     20330     20329     20334     20338
     20331     20333     20329     20334     20331     20341     20338     20334
     20331     20341     20338     20339     20331     20341     20338     20340
     20331     20341     20343     20344     20331     20348     20350     20351
     20331     20348     20352     20353     20331     20348     20352     20354
     20331     20348     20352     20355     20332     20331     20341     20338
     20332     20331     20341     20342     20332     20331     20341     20343
     20332     20331     20348     20349     20332     20331     20348     20350
     20332     20331     20348     20352     20333     20329     20334     20335
     20333     20329     20334     20336     20333     20329     20334     20338
     20333     20331     20341     20338     20333     20331     20341     20342
     20333     20331     20341     20343     20333     20331     20348     20349
     20333     20331     20348     20350     20333     20331     20348     20352
     20334     20338     20340     20357     20334     20338     20341     20342
     20334     20338     20341     20343     20335     20334     20336     20337
     20335     20334     20338     20339     20335     20334     20338     20340
     20335     20334     20338     20341     20336     20334     20338     20339
     20336     20334     20338     20340     20336     20334     20338     20341
     20337     20336     20334     20338     20338     20340     20357     20358
     20338     20340     20357     20361     20338     20340     20357     20362
     20338     20341     20331     20348     20338     20341     20343     20344
     20339     20338     20340     20357     20339     20338     20341     20342
     20339     20338     20341     20343     20340     20338     20341     20342
     20340     20338     20341     20343     20340     20357     20361     20359
     20340     20357     20362     20363     20340     20357     20362     20364
     20340     20357     20362     20366     20341     20331     20348     20349
     20341     20331     20348     20350     20341     20331     20348     20352
     20341     20338     20340     20357     20341     20343     20344     20345
     20341     20343     20344     20346     20341     20343     20344     20347
     20342     20341     20331     20348     20342     20341     20343     20344
     20343     20341     20331     20348     20348     20352     20355     20356
     20349     20348     20350     20351     20349     20348     20352     20353
     20349     20348     20352     20354     20349     20348     20352     20355
     20350     20348     20352     20353     20350     20348     20352     20354
     20350     20348     20352     20355     20351     20350     20348     20352
     20353     20352     20355     20356     20354     20352     20355     20356
     20357     20361     20359     20360     20357     20361     20359     20369
     20357     20361     20359     20376     20357     20362     20364     20365
     20357     20362     20366     20367     20357     20362     20366     20368
     20357     20362     20366     20369     20358     20357     20361     20359
     20358     20357     20362     20363     20358     20357     20362     20364
     20358     20357     20362     20366     20359     20361     20357     20362
     20359     20369     20366     20362     20359     20369     20366     20367
     20359     20369     20366     20368     20359     20369     20371     20372
     20359     20376     20378     20379     20359     20376     20380     20381
     20359     20376     20380     20382     20359     20376     20380     20383
     20360     20359     20369     20366     20360     20359     20369     20370
     20360     20359     20369     20371     20360     20359     20376     20377
     20360     20359     20376     20378     20360     20359     20376     20380
     20361     20357     20362     20363     20361     20357     20362     20364
     20361     20357     20362     20366     20361     20359     20369     20366
     20361     20359     20369     20370     20361     20359     20369     20371
     20361     20359     20376     20377     20361     20359     20376     20378
     20361     20359     20376     20380     20362     20366     20368     20410
     20362     20366     20369     20370     20362     20366     20369     20371
     20363     20362     20364     20365     20363     20362     20366     20367
     20363     20362     20366     20368     20363     20362     20366     20369
     20364     20362     20366     20367     20364     20362     20366     20368
     20364     20362     20366     20369     20365     20364     20362     20366
     20366     20368     20410     20411     20366     20368     20410     20414
     20366     20368     20410     20415     20366     20369     20359     20376
     20366     20369     20371     20372     20367     20366     20368     20410
     20367     20366     20369     20370     20367     20366     20369     20371
     20368     20366     20369     20370     20368     20366     20369     20371
     20368     20410     20414     20412     20368     20410     20415     20416
     20368     20410     20415     20417     20368     20410     20415     20419
     20369     20359     20376     20377     20369     20359     20376     20378
     20369     20359     20376     20380     20369     20366     20368     20410
     20369     20371     20372     20373     20369     20371     20372     20374
     20369     20371     20372     20375     20370     20369     20359     20376
     20370     20369     20371     20372     20371     20369     20359     20376
     20376     20380     20383     20384     20377     20376     20378     20379
     20377     20376     20380     20381     20377     20376     20380     20382
     20377     20376     20380     20383     20378     20376     20380     20381
     20378     20376     20380     20382     20378     20376     20380     20383
     20379     20378     20376     20380     20380     20383     20384     20385
     20380     20383     20384     20388     20380     20383     20384     20389
     20381     20380     20383     20384     20382     20380     20383     20384
     20383     20384     20388     20386     20383     20384     20389     20390
     20383     20384     20389     20391     20383     20384     20389     20393
     20384     20388     20386     20387     20384     20388     20386     20397
     20384     20388     20386     20401     20384     20389     20391     20392
     20384     20389     20393     20394     20384     20389     20393     20395
     20384     20389     20393     20397     20385     20384     20388     20386
     20385     20384     20389     20390     20385     20384     20389     20391
     20385     20384     20389     20393     20386     20388     20384     20389
     20386     20397     20393     20389     20386     20397     20393     20394
     20386     20397     20393     20395     20386     20397     20399     20400
     20386     20401     20403     20404     20386     20401     20405     20406
     20386     20401     20405     20407     20386     20401     20405     20408
     20387     20386     20397     20393     20387     20386     20397     20398
     20387     20386     20397     20399     20387     20386     20401     20402
     20387     20386     20401     20403     20387     20386     20401     20405
     20388     20384     20389     20390     20388     20384     20389     20391
     20388     20384     20389     20393     20388     20386     20397     20393
     20388     20386     20397     20398     20388     20386     20397     20399
     20388     20386     20401     20402     20388     20386     20401     20403
     20388     20386     20401     20405     20389     20393     20395     20396
     20389     20393     20397     20398     20389     20393     20397     20399
     20390     20389     20391     20392     20390     20389     20393     20394
     20390     20389     20393     20395     20390     20389     20393     20397
     20391     20389     20393     20394     20391     20389     20393     20395
     20391     20389     20393     20397     20392     20391     20389     20393
     20393     20397     20386     20401     20393     20397     20399     20400
     20394     20393     20395     20396     20394     20393     20397     20398
     20394     20393     20397     20399     20395     20393     20397     20398
     20395     20393     20397     20399     20396     20395     20393     20397
     20397     20386     20401     20402     20397     20386     20401     20403
     20397     20386     20401     20405     20398     20397     20386     20401
     20398     20397     20399     20400     20399     20397     20386     20401
     20401     20405     20408     20409     20402     20401     20403     20404
     20402     20401     20405     20406     20402     20401     20405     20407
     20402     20401     20405     20408     20403     20401     20405     20406
     20403     20401     20405     20407     20403     20401     20405     20408
     20404     20403     20401     20405     20406     20405     20408     20409
     20407     20405     20408     20409     20410     20414     20412     20413
     20410     20414     20412     20422     20410     20414     20412     20426
     20410     20415     20417     20418     20410     20415     20419     20420
     20410     20415     20419     20421     20410     20415     20419     20422
     20411     20410     20414     20412     20411     20410     20415     20416
     20411     20410     20415     20417     20411     20410     20415     20419
     20412     20414     20410     20415     20412     20422     20419     20415
     20412     20422     20419     20420     20412     20422     20419     20421
     20412     20422     20424     20425     20412     20426     20429     20430
     20413     20412     20422     20419     20413     20412     20422     20423
     20413     20412     20422     20424     20413     20412     20426     20427
     20413     20412     20426     20428     20413     20412     20426     20429
     20414     20410     20415     20416     20414     20410     20415     20417
     20414     20410     20415     20419     20414     20412     20422     20419
     20414     20412     20422     20423     20414     20412     20422     20424
     20414     20412     20426     20427     20414     20412     20426     20428
     20414     20412     20426     20429     20415     20419     20421     20431
     20415     20419     20422     20423     20415     20419     20422     20424
     20416     20415     20417     20418     20416     20415     20419     20420
     20416     20415     20419     20421     20416     20415     20419     20422
     20417     20415     20419     20420     20417     20415     20419     20421
     20417     20415     20419     20422     20418     20417     20415     20419
     20419     20421     20431     20432     20419     20421     20431     20435
     20419     20421     20431     20436     20419     20422     20412     20426
     20419     20422     20424     20425     20420     20419     20421     20431
     20420     20419     20422     20423     20420     20419     20422     20424
     20421     20419     20422     20423     20421     20419     20422     20424
     20421     20431     20435     20433     20421     20431     20436     20437
     20421     20431     20436     20438     20421     20431     20436     20439
     20422     20412     20426     20427     20422     20412     20426     20428
     20422     20412     20426     20429     20422     20419     20421     20431
     20423     20422     20412     20426     20423     20422     20424     20425
     20424     20422     20412     20426     20427     20426     20429     20430
     20428     20426     20429     20430     20431     20435     20433     20434
     20431     20435     20433     20442     20431     20435     20433     20446
     20431     20436     20438     20451     20431     20436     20439     20440
     20431     20436     20439     20441     20431     20436     20439     20442
     20432     20431     20435     20433     20432     20431     20436     20437
     20432     20431     20436     20438     20432     20431     20436     20439
     20433     20435     20431     20436     20433     20442     20439     20436
     20433     20442     20439     20440     20433     20442     20439     20441
     20433     20442     20444     20445     20433     20446     20449     20450
     20434     20433     20442     20439     20434     20433     20442     20443
     20434     20433     20442     20444     20434     20433     20446     20447
     20434     20433     20446     20448     20434     20433     20446     20449
     20435     20431     20436     20437     20435     20431     20436     20438
     20435     20431     20436     20439     20435     20433     20442     20439
     20435     20433     20442     20443     20435     20433     20442     20444
     20435     20433     20446     20447     20435     20433     20446     20448
     20435     20433     20446     20449     20436     20438     20451     20452
     20436     20438     20451     20455     20436     20438     20451     20456
     20436     20439     20441     20494     20436     20439     20442     20443
     20436     20439     20442     20444     20437     20436     20438     20451
     20437     20436     20439     20440     20437     20436     20439     20441
     20437     20436     20439     20442     20438     20436     20439     20440
     20438     20436     20439     20441     20438     20436     20439     20442
     20438     20451     20455     20453     20438     20451     20456     20457
     20438     20451     20456     20458     20438     20451     20456     20459
     20439     20436     20438     20451     20439     20441     20494     20495
     20439     20441     20494     20498     20439     20441     20494     20499
     20439     20442     20433     20446     20439     20442     20444     20445
     20440     20439     20441     20494     20440     20439     20442     20443
     20440     20439     20442     20444     20441     20439     20442     20443
     20441     20439     20442     20444     20441     20494     20498     20496
     20441     20494     20499     20500     20441     20494     20499     20501
     20441     20494     20499     20503     20442     20433     20446     20447
     20442     20433     20446     20448     20442     20433     20446     20449
     20442     20439     20441     20494     20443     20442     20433     20446
     20443     20442     20444     20445     20444     20442     20433     20446
     20447     20446     20449     20450     20448     20446     20449     20450
     20451     20455     20453     20454     20451     20455     20453     20463
     20451     20455     20453     20467     20451     20456     20458     20472
     20451     20456     20459     20460     20451     20456     20459     20461
     20451     20456     20459     20463     20452     20451     20455     20453
     20452     20451     20456     20457     20452     20451     20456     20458
     20452     20451     20456     20459     20453     20455     20451     20456
     20453     20463     20459     20456     20453     20463     20459     20460
     20453     20463     20459     20461     20453     20463     20465     20466
     20453     20467     20470     20471     20454     20453     20463     20459
     20454     20453     20463     20464     20454     20453     20463     20465
     20454     20453     20467     20468     20454     20453     20467     20469
     20454     20453     20467     20470     20455     20451     20456     20457
     20455     20451     20456     20458     20455     20451     20456     20459
     20455     20453     20463     20459     20455     20453     20463     20464
     20455     20453     20463     20465     20455     20453     20467     20468
     20455     20453     20467     20469     20455     20453     20467     20470
     20456     20458     20472     20473     20456     20458     20472     20476
     20456     20458     20472     20477     20456     20459     20461     20462
     20456     20459     20463     20464     20456     20459     20463     20465
     20457     20456     20458     20472     20457     20456     20459     20460
     20457     20456     20459     20461     20457     20456     20459     20463
     20458     20456     20459     20460     20458     20456     20459     20461
     20458     20456     20459     20463     20458     20472     20476     20474
     20458     20472     20477     20478     20458     20472     20477     20479
     20458     20472     20477     20481     20459     20456     20458     20472
     20459     20463     20453     20467     20459     20463     20465     20466
     20460     20459     20461     20462     20460     20459     20463     20464
     20460     20459     20463     20465     20461     20459     20463     20464
     20461     20459     20463     20465     20462     20461     20459     20463
     20463     20453     20467     20468     20463     20453     20467     20469
     20463     20453     20467     20470     20464     20463     20453     20467
     20464     20463     20465     20466     20465     20463     20453     20467
     20468     20467     20470     20471     20469     20467     20470     20471
     20472     20476     20474     20475     20472     20476     20474     20485
     20472     20476     20474     20489     20472     20477     20479     20480
     20472     20477     20481     20482     20472     20477     20481     20483
     20472     20477     20481     20485     20473     20472     20476     20474
     20473     20472     20477     20478     20473     20472     20477     20479
     20473     20472     20477     20481     20474     20476     20472     20477
     20474     20485     20481     20477     20474     20485     20481     20482
     20474     20485     20481     20483     20474     20485     20487     20488
     20474     20489     20492     20493     20475     20474     20485     20481
     20475     20474     20485     20486     20475     20474     20485     20487
     20475     20474     20489     20490     20475     20474     20489     20491
     20475     20474     20489     20492     20476     20472     20477     20478
     20476     20472     20477     20479     20476     20472     20477     20481
     20476     20474     20485     20481     20476     20474     20485     20486
     20476     20474     20485     20487     20476     20474     20489     20490
     20476     20474     20489     20491     20476     20474     20489     20492
     20477     20481     20483     20484     20477     20481     20485     20486
     20477     20481     20485     20487     20478     20477     20479     20480
     20478     20477     20481     20482     20478     20477     20481     20483
     20478     20477     20481     20485     20479     20477     20481     20482
     20479     20477     20481     20483     20479     20477     20481     20485
     20480     20479     20477     20481     20481     20485     20474     20489
     20481     20485     20487     20488     20482     20481     20483     20484
     20482     20481     20485     20486     20482     20481     20485     20487
     20483     20481     20485     20486     20483     20481     20485     20487
     20484     20483     20481     20485     20485     20474     20489     20490
     20485     20474     20489     20491     20485     20474     20489     20492
     20486     20485     20474     20489     20486     20485     20487     20488
     20487     20485     20474     20489     20490     20489     20492     20493
     20491     20489     20492     20493     20494     20498     20496     20497
     20494     20498     20496     20506     20494     20498     20496     20510
     20494     20499     20501     20502     20494     20499     20503     20504
     20494     20499     20503     20505     20494     20499     20503     20506
     20495     20494     20498     20496     20495     20494     20499     20500
     20495     20494     20499     20501     20495     20494     20499     20503
     20496     20498     20494     20499     20496     20506     20503     20499
     20496     20506     20503     20504     20496     20506     20503     20505
     20496     20506     20508     20509     20496     20510     20513     20514
     20497     20496     20506     20503     20497     20496     20506     20507
     20497     20496     20506     20508     20497     20496     20510     20511
     20497     20496     20510     20512     20497     20496     20510     20513
     20498     20494     20499     20500     20498     20494     20499     20501
     20498     20494     20499     20503     20498     20496     20506     20503
     20498     20496     20506     20507     20498     20496     20506     20508
     20498     20496     20510     20511     20498     20496     20510     20512
     20498     20496     20510     20513     20499     20503     20505     20515
     20499     20503     20506     20507     20499     20503     20506     20508
     20500     20499     20501     20502     20500     20499     20503     20504
     20500     20499     20503     20505     20500     20499     20503     20506
     20501     20499     20503     20504     20501     20499     20503     20505
     20501     20499     20503     20506     20502     20501     20499     20503
     20503     20505     20515     20516     20503     20505     20515     20519
     20503     20505     20515     20520     20503     20506     20496     20510
     20503     20506     20508     20509     20504     20503     20505     20515
     20504     20503     20506     20507     20504     20503     20506     20508
     20505     20503     20506     20507     20505     20503     20506     20508
     20505     20515     20519     20517     20505     20515     20520     20521
     20505     20515     20520     20522     20505     20515     20520     20530
     20506     20496     20510     20511     20506     20496     20510     20512
     20506     20496     20510     20513     20506     20503     20505     20515
     20507     20506     20496     20510     20507     20506     20508     20509
     20508     20506     20496     20510     20511     20510     20513     20514
     20512     20510     20513     20514     20515     20519     20517     20518
     20515     20519     20517     20533     20515     20519     20517     20537
     20515     20520     20522     20523     20515     20520     20522     20524
     20515     20520     20530     20531     20515     20520     20530     20532
     20515     20520     20530     20533     20516     20515     20519     20517
     20516     20515     20520     20521     20516     20515     20520     20522
     20516     20515     20520     20530     20517     20519     20515     20520
     20517     20533     20530     20520     20517     20533     20530     20531
     20517     20533     20530     20532     20517     20533     20535     20536
     20517     20537     20540     20541     20518     20517     20533     20530
     20518     20517     20533     20534     20518     20517     20533     20535
     20518     20517     20537     20538     20518     20517     20537     20539
     20518     20517     20537     20540     20519     20515     20520     20521
     20519     20515     20520     20522     20519     20515     20520     20530
     20519     20517     20533     20530     20519     20517     20533     20534
     20519     20517     20533     20535     20519     20517     20537     20538
     20519     20517     20537     20539     20519     20517     20537     20540
     20520     20522     20524     20525     20520     20522     20524     20526
     20520     20530     20532     20542     20520     20530     20533     20534
     20520     20530     20533     20535     20521     20520     20522     20523
     20521     20520     20522     20524     20521     20520     20530     20531
     20521     20520     20530     20532     20521     20520     20530     20533
     20522     20520     20530     20531     20522     20520     20530     20532
     20522     20520     20530     20533     20522     20524     20526     20527
     20522     20524     20526     20528     20522     20524     20526     20529
     20523     20522     20520     20530     20523     20522     20524     20525
     20523     20522     20524     20526     20524     20522     20520     20530
     20525     20524     20526     20527     20525     20524     20526     20528
     20525     20524     20526     20529     20530     20532     20542     20543
     20530     20532     20542     20546     20530     20532     20542     20547
     20530     20533     20517     20537     20530     20533     20535     20536
     20531     20530     20532     20542     20531     20530     20533     20534
     20531     20530     20533     20535     20532     20530     20533     20534
     20532     20530     20533     20535     20532     20542     20546     20544
     20532     20542     20547     20548     20532     20542     20547     20549
     20532     20542     20547     20550     20533     20517     20537     20538
     20533     20517     20537     20539     20533     20517     20537     20540
     20533     20530     20532     20542     20534     20533     20517     20537
     20534     20533     20535     20536     20535     20533     20517     20537
     20538     20537     20540     20541     20539     20537     20540     20541
     20542     20546     20544     20545     20542     20546     20544     20554
     20542     20546     20544     20558     20542     20547     20549     20563
     20542     20547     20550     20551     20542     20547     20550     20552
     20542     20547     20550     20554     20543     20542     20546     20544
     20543     20542     20547     20548     20543     20542     20547     20549
     20543     20542     20547     20550     20544     20546     20542     20547
     20544     20554     20550     20547     20544     20554     20550     20551
     20544     20554     20550     20552     20544     20554     20556     20557
     20544     20558     20561     20562     20545     20544     20554     20550
     20545     20544     20554     20555     20545     20544     20554     20556
     20545     20544     20558     20559     20545     20544     20558     20560
     20545     20544     20558     20561     20546     20542     20547     20548
     20546     20542     20547     20549     20546     20542     20547     20550
     20546     20544     20554     20550     20546     20544     20554     20555
     20546     20544     20554     20556     20546     20544     20558     20559
     20546     20544     20558     20560     20546     20544     20558     20561
     20547     20549     20563     20564     20547     20549     20563     20567
     20547     20549     20563     20568     20547     20550     20552     20553
     20547     20550     20554     20555     20547     20550     20554     20556
     20548     20547     20549     20563     20548     20547     20550     20551
     20548     20547     20550     20552     20548     20547     20550     20554
     20549     20547     20550     20551     20549     20547     20550     20552
     20549     20547     20550     20554     20549     20563     20567     20565
     20549     20563     20568     20569     20549     20563     20568     20570
     20549     20563     20568     20571     20550     20547     20549     20563
     20550     20554     20544     20558     20550     20554     20556     20557
     20551     20550     20552     20553     20551     20550     20554     20555
     20551     20550     20554     20556     20552     20550     20554     20555
     20552     20550     20554     20556     20553     20552     20550     20554
     20554     20544     20558     20559     20554     20544     20558     20560
     20554     20544     20558     20561     20555     20554     20544     20558
     20555     20554     20556     20557     20556     20554     20544     20558
     20559     20558     20561     20562     20560     20558     20561     20562
     20563     20567     20565     20566     20563     20567     20565     20575
     20563     20567     20565     20579     20563     20568     20570     20583
     20563     20568     20571     20572     20563     20568     20571     20573
     20563     20568     20571     20575     20564     20563     20567     20565
     20564     20563     20568     20569     20564     20563     20568     20570
     20564     20563     20568     20571     20565     20567     20563     20568
     20565     20575     20571     20568     20565     20575     20571     20572
     20565     20575     20571     20573     20565     20575     20577     20578
     20566     20565     20575     20571     20566     20565     20575     20576
     20566     20565     20575     20577     20566     20565     20579     20580
     20566     20565     20579     20581     20566     20565     20579     20582
     20567     20563     20568     20569     20567     20563     20568     20570
     20567     20563     20568     20571     20567     20565     20575     20571
     20567     20565     20575     20576     20567     20565     20575     20577
     20567     20565     20579     20580     20567     20565     20579     20581
     20567     20565     20579     20582     20568     20570     20583     20584
     20568     20570     20583     20587     20568     20570     20583     20588
     20568     20571     20573     20574     20568     20571     20575     20576
     20568     20571     20575     20577     20569     20568     20570     20583
     20569     20568     20571     20572     20569     20568     20571     20573
     20569     20568     20571     20575     20570     20568     20571     20572
     20570     20568     20571     20573     20570     20568     20571     20575
     20570     20583     20587     20585     20570     20583     20588     20589
     20570     20583     20588     20590     20570     20583     20588     20591
     20571     20568     20570     20583     20571     20575     20565     20579
     20571     20575     20577     20578     20572     20571     20573     20574
     20572     20571     20575     20576     20572     20571     20575     20577
     20573     20571     20575     20576     20573     20571     20575     20577
     20574     20573     20571     20575     20575     20565     20579     20580
     20575     20565     20579     20581     20575     20565     20579     20582
     20576     20575     20565     20579     20576     20575     20577     20578
     20577     20575     20565     20579     20583     20587     20585     20586
     20583     20587     20585     20594     20583     20587     20585     20598
     20583     20588     20590     20602     20583     20588     20591     20592
     20583     20588     20591     20593     20583     20588     20591     20594
     20584     20583     20587     20585     20584     20583     20588     20589
     20584     20583     20588     20590     20584     20583     20588     20591
     20585     20587     20583     20588     20585     20594     20591     20588
     20585     20594     20591     20592     20585     20594     20591     20593
     20585     20594     20596     20597     20586     20585     20594     20591
     20586     20585     20594     20595     20586     20585     20594     20596
     20586     20585     20598     20599     20586     20585     20598     20600
     20586     20585     20598     20601     20587     20583     20588     20589
     20587     20583     20588     20590     20587     20583     20588     20591
     20587     20585     20594     20591     20587     20585     20594     20595
     20587     20585     20594     20596     20587     20585     20598     20599
     20587     20585     20598     20600     20587     20585     20598     20601
     20588     20590     20602     20603     20588     20590     20602     20606
     20588     20590     20602     20607     20588     20591     20593     20630
     20588     20591     20594     20595     20588     20591     20594     20596
     20589     20588     20590     20602     20589     20588     20591     20592
     20589     20588     20591     20593     20589     20588     20591     20594
     20590     20588     20591     20592     20590     20588     20591     20593
     20590     20588     20591     20594     20590     20602     20606     20604
     20590     20602     20607     20608     20590     20602     20607     20609
     20590     20602     20607     20617     20591     20588     20590     20602
     20591     20593     20630     20631     20591     20593     20630     20634
     20591     20593     20630     20635     20591     20594     20585     20598
     20591     20594     20596     20597     20592     20591     20593     20630
     20592     20591     20594     20595     20592     20591     20594     20596
     20593     20591     20594     20595     20593     20591     20594     20596
     20593     20630     20634     20632     20593     20630     20635     20636
     20593     20630     20635     20637     20593     20630     20635     20645
     20594     20585     20598     20599     20594     20585     20598     20600
     20594     20585     20598     20601     20594     20591     20593     20630
     20595     20594     20585     20598     20595     20594     20596     20597
     20596     20594     20585     20598     20602     20606     20604     20605
     20602     20606     20604     20621     20602     20606     20604     20625
     20602     20607     20609     20610     20602     20607     20609     20611
     20602     20607     20617     20618     20602     20607     20617     20619
     20602     20607     20617     20621     20603     20602     20606     20604
     20603     20602     20607     20608     20603     20602     20607     20609
     20603     20602     20607     20617     20604     20606     20602     20607
     20604     20621     20617     20607     20604     20621     20617     20618
     20604     20621     20617     20619     20604     20621     20623     20624
     20604     20625     20628     20629     20605     20604     20621     20617
     20605     20604     20621     20622     20605     20604     20621     20623
     20605     20604     20625     20626     20605     20604     20625     20627
     20605     20604     20625     20628     20606     20602     20607     20608
     20606     20602     20607     20609     20606     20602     20607     20617
     20606     20604     20621     20617     20606     20604     20621     20622
     20606     20604     20621     20623     20606     20604     20625     20626
     20606     20604     20625     20627     20606     20604     20625     20628
     20607     20609     20611     20612     20607     20609     20611     20613
     20607     20617     20619     20620     20607     20617     20621     20622
     20607     20617     20621     20623     20608     20607     20609     20610
     20608     20607     20609     20611     20608     20607     20617     20618
     20608     20607     20617     20619     20608     20607     20617     20621
     20609     20607     20617     20618     20609     20607     20617     20619
     20609     20607     20617     20621     20609     20611     20613     20614
     20609     20611     20613     20615     20609     20611     20613     20616
     20610     20609     20607     20617     20610     20609     20611     20612
     20610     20609     20611     20613     20611     20609     20607     20617
     20612     20611     20613     20614     20612     20611     20613     20615
     20612     20611     20613     20616     20617     20621     20604     20625
     20617     20621     20623     20624     20618     20617     20619     20620
     20618     20617     20621     20622     20618     20617     20621     20623
     20619     20617     20621     20622     20619     20617     20621     20623
     20620     20619     20617     20621     20621     20604     20625     20626
     20621     20604     20625     20627     20621     20604     20625     20628
     20622     20621     20604     20625     20622     20621     20623     20624
     20623     20621     20604     20625     20626     20625     20628     20629
     20627     20625     20628     20629     20630     20634     20632     20633
     20630     20634     20632     20648     20630     20634     20632     20652
     20630     20635     20637     20638     20630     20635     20637     20639
     20630     20635     20645     20646     20630     20635     20645     20647
     20630     20635     20645     20648     20631     20630     20634     20632
     20631     20630     20635     20636     20631     20630     20635     20637
     20631     20630     20635     20645     20632     20634     20630     20635
     20632     20648     20645     20635     20632     20648     20645     20646
     20632     20648     20645     20647     20632     20648     20650     20651
     20632     20652     20655     20656     20633     20632     20648     20645
     20633     20632     20648     20649     20633     20632     20648     20650
     20633     20632     20652     20653     20633     20632     20652     20654
     20633     20632     20652     20655     20634     20630     20635     20636
     20634     20630     20635     20637     20634     20630     20635     20645
     20634     20632     20648     20645     20634     20632     20648     20649
     20634     20632     20648     20650     20634     20632     20652     20653
     20634     20632     20652     20654     20634     20632     20652     20655
     20635     20637     20639     20640     20635     20637     20639     20641
     20635     20645     20647     20657     20635     20645     20648     20649
     20635     20645     20648     20650     20636     20635     20637     20638
     20636     20635     20637     20639     20636     20635     20645     20646
     20636     20635     20645     20647     20636     20635     20645     20648
     20637     20635     20645     20646     20637     20635     20645     20647
     20637     20635     20645     20648     20637     20639     20641     20642
     20637     20639     20641     20643     20637     20639     20641     20644
     20638     20637     20635     20645     20638     20637     20639     20640
     20638     20637     20639     20641     20639     20637     20635     20645
     20640     20639     20641     20642     20640     20639     20641     20643
     20640     20639     20641     20644     20645     20647     20657     20658
     20645     20647     20657     20661     20645     20647     20657     20662
     20645     20648     20632     20652     20645     20648     20650     20651
     20646     20645     20647     20657     20646     20645     20648     20649
     20646     20645     20648     20650     20647     20645     20648     20649
     20647     20645     20648     20650     20647     20657     20661     20659
     20647     20657     20662     20663     20647     20657     20662     20664
     20647     20657     20662     20665     20648     20632     20652     20653
     20648     20632     20652     20654     20648     20632     20652     20655
     20648     20645     20647     20657     20649     20648     20632     20652
     20649     20648     20650     20651     20650     20648     20632     20652
     20653     20652     20655     20656     20654     20652     20655     20656
     20657     20661     20659     20660     20657     20661     20659     20669
     20657     20661     20659     20673     20657     20662     20664     20678
     20657     20662     20665     20666     20657     20662     20665     20667
     20657     20662     20665     20669     20658     20657     20661     20659
     20658     20657     20662     20663     20658     20657     20662     20664
     20658     20657     20662     20665     20659     20661     20657     20662
     20659     20669     20665     20662     20659     20669     20665     20666
     20659     20669     20665     20667     20659     20669     20671     20672
     20659     20673     20676     20677     20660     20659     20669     20665
     20660     20659     20669     20670     20660     20659     20669     20671
     20660     20659     20673     20674     20660     20659     20673     20675
     20660     20659     20673     20676     20661     20657     20662     20663
     20661     20657     20662     20664     20661     20657     20662     20665
     20661     20659     20669     20665     20661     20659     20669     20670
     20661     20659     20669     20671     20661     20659     20673     20674
     20661     20659     20673     20675     20661     20659     20673     20676
     20662     20664     20678     20679     20662     20664     20678     20682
     20662     20664     20678     20683     20662     20665     20667     20668
     20662     20665     20669     20670     20662     20665     20669     20671
     20663     20662     20664     20678     20663     20662     20665     20666
     20663     20662     20665     20667     20663     20662     20665     20669
     20664     20662     20665     20666     20664     20662     20665     20667
     20664     20662     20665     20669     20664     20678     20682     20680
     20664     20678     20683     20684     20664     20678     20683     20685
     20664     20678     20683     20686     20665     20662     20664     20678
     20665     20669     20659     20673     20665     20669     20671     20672
     20666     20665     20667     20668     20666     20665     20669     20670
     20666     20665     20669     20671     20667     20665     20669     20670
     20667     20665     20669     20671     20668     20667     20665     20669
     20669     20659     20673     20674     20669     20659     20673     20675
     20669     20659     20673     20676     20670     20669     20659     20673
     20670     20669     20671     20672     20671     20669     20659     20673
     20674     20673     20676     20677     20675     20673     20676     20677
     20678     20682     20680     20681     20678     20682     20680     20690
     20678     20682     20680     20694     20678     20683     20685     20698
     20678     20683     20686     20687     20678     20683     20686     20688
     20678     20683     20686     20690     20679     20678     20682     20680
     20679     20678     20683     20684     20679     20678     20683     20685
     20679     20678     20683     20686     20680     20682     20678     20683
     20680     20690     20686     20683     20680     20690     20686     20687
     20680     20690     20686     20688     20680     20690     20692     20693
     20681     20680     20690     20686     20681     20680     20690     20691
     20681     20680     20690     20692     20681     20680     20694     20695
     20681     20680     20694     20696     20681     20680     20694     20697
     20682     20678     20683     20684     20682     20678     20683     20685
     20682     20678     20683     20686     20682     20680     20690     20686
     20682     20680     20690     20691     20682     20680     20690     20692
     20682     20680     20694     20695     20682     20680     20694     20696
     20682     20680     20694     20697     20683     20685     20698     20699
     20683     20685     20698     20702     20683     20685     20698     20703
     20683     20686     20688     20689     20683     20686     20690     20691
     20683     20686     20690     20692     20684     20683     20685     20698
     20684     20683     20686     20687     20684     20683     20686     20688
     20684     20683     20686     20690     20685     20683     20686     20687
     20685     20683     20686     20688     20685     20683     20686     20690
     20685     20698     20702     20700     20685     20698     20703     20704
     20685     20698     20703     20705     20685     20698     20703     20706
     20686     20683     20685     20698     20686     20690     20680     20694
     20686     20690     20692     20693     20687     20686     20688     20689
     20687     20686     20690     20691     20687     20686     20690     20692
     20688     20686     20690     20691     20688     20686     20690     20692
     20689     20688     20686     20690     20690     20680     20694     20695
     20690     20680     20694     20696     20690     20680     20694     20697
     20691     20690     20680     20694     20691     20690     20692     20693
     20692     20690     20680     20694     20698     20702     20700     20701
     20698     20702     20700     20709     20698     20702     20700     20713
     20698     20703     20705     20717     20698     20703     20706     20707
     20698     20703     20706     20708     20698     20703     20706     20709
     20699     20698     20702     20700     20699     20698     20703     20704
     20699     20698     20703     20705     20699     20698     20703     20706
     20700     20702     20698     20703     20700     20709     20706     20703
     20700     20709     20706     20707     20700     20709     20706     20708
     20700     20709     20711     20712     20701     20700     20709     20706
     20701     20700     20709     20710     20701     20700     20709     20711
     20701     20700     20713     20714     20701     20700     20713     20715
     20701     20700     20713     20716     20702     20698     20703     20704
     20702     20698     20703     20705     20702     20698     20703     20706
     20702     20700     20709     20706     20702     20700     20709     20710
     20702     20700     20709     20711     20702     20700     20713     20714
     20702     20700     20713     20715     20702     20700     20713     20716
     20703     20705     20717     20718     20703     20705     20717     20721
     20703     20705     20717     20722     20703     20706     20708     20745
     20703     20706     20709     20710     20703     20706     20709     20711
     20704     20703     20705     20717     20704     20703     20706     20707
     20704     20703     20706     20708     20704     20703     20706     20709
     20705     20703     20706     20707     20705     20703     20706     20708
     20705     20703     20706     20709     20705     20717     20721     20719
     20705     20717     20722     20723     20705     20717     20722     20724
     20705     20717     20722     20732     20706     20703     20705     20717
     20706     20708     20745     20746     20706     20708     20745     20749
     20706     20708     20745     20750     20706     20709     20700     20713
     20706     20709     20711     20712     20707     20706     20708     20745
     20707     20706     20709     20710     20707     20706     20709     20711
     20708     20706     20709     20710     20708     20706     20709     20711
     20708     20745     20749     20747     20708     20745     20750     20751
     20708     20745     20750     20752     20708     20745     20750     20760
     20709     20700     20713     20714     20709     20700     20713     20715
     20709     20700     20713     20716     20709     20706     20708     20745
     20710     20709     20700     20713     20710     20709     20711     20712
     20711     20709     20700     20713     20717     20721     20719     20720
     20717     20721     20719     20736     20717     20721     20719     20740
     20717     20722     20724     20725     20717     20722     20724     20726
     20717     20722     20732     20733     20717     20722     20732     20734
     20717     20722     20732     20736     20718     20717     20721     20719
     20718     20717     20722     20723     20718     20717     20722     20724
     20718     20717     20722     20732     20719     20721     20717     20722
     20719     20736     20732     20722     20719     20736     20732     20733
     20719     20736     20732     20734     20719     20736     20738     20739
     20719     20740     20743     20744     20720     20719     20736     20732
     20720     20719     20736     20737     20720     20719     20736     20738
     20720     20719     20740     20741     20720     20719     20740     20742
     20720     20719     20740     20743     20721     20717     20722     20723
     20721     20717     20722     20724     20721     20717     20722     20732
     20721     20719     20736     20732     20721     20719     20736     20737
     20721     20719     20736     20738     20721     20719     20740     20741
     20721     20719     20740     20742     20721     20719     20740     20743
     20722     20724     20726     20727     20722     20724     20726     20728
     20722     20732     20734     20735     20722     20732     20736     20737
     20722     20732     20736     20738     20723     20722     20724     20725
     20723     20722     20724     20726     20723     20722     20732     20733
     20723     20722     20732     20734     20723     20722     20732     20736
     20724     20722     20732     20733     20724     20722     20732     20734
     20724     20722     20732     20736     20724     20726     20728     20729
     20724     20726     20728     20730     20724     20726     20728     20731
     20725     20724     20722     20732     20725     20724     20726     20727
     20725     20724     20726     20728     20726     20724     20722     20732
     20727     20726     20728     20729     20727     20726     20728     20730
     20727     20726     20728     20731     20732     20736     20719     20740
     20732     20736     20738     20739     20733     20732     20734     20735
     20733     20732     20736     20737     20733     20732     20736     20738
     20734     20732     20736     20737     20734     20732     20736     20738
     20735     20734     20732     20736     20736     20719     20740     20741
     20736     20719     20740     20742     20736     20719     20740     20743
     20737     20736     20719     20740     20737     20736     20738     20739
     20738     20736     20719     20740     20741     20740     20743     20744
     20742     20740     20743     20744     20745     20749     20747     20748
     20745     20749     20747     20763     20745     20749     20747     20767
     20745     20750     20752     20753     20745     20750     20752     20754
     20745     20750     20760     20761     20745     20750     20760     20762
     20745     20750     20760     20763     20746     20745     20749     20747
     20746     20745     20750     20751     20746     20745     20750     20752
     20746     20745     20750     20760     20747     20749     20745     20750
     20747     20763     20760     20750     20747     20763     20760     20761
     20747     20763     20760     20762     20747     20763     20765     20766
     20747     20767     20770     20771     20748     20747     20763     20760
     20748     20747     20763     20764     20748     20747     20763     20765
     20748     20747     20767     20768     20748     20747     20767     20769
     20748     20747     20767     20770     20749     20745     20750     20751
     20749     20745     20750     20752     20749     20745     20750     20760
     20749     20747     20763     20760     20749     20747     20763     20764
     20749     20747     20763     20765     20749     20747     20767     20768
     20749     20747     20767     20769     20749     20747     20767     20770
     20750     20752     20754     20755     20750     20752     20754     20756
     20750     20760     20762     20772     20750     20760     20763     20764
     20750     20760     20763     20765     20751     20750     20752     20753
     20751     20750     20752     20754     20751     20750     20760     20761
     20751     20750     20760     20762     20751     20750     20760     20763
     20752     20750     20760     20761     20752     20750     20760     20762
     20752     20750     20760     20763     20752     20754     20756     20757
     20752     20754     20756     20758     20752     20754     20756     20759
     20753     20752     20750     20760     20753     20752     20754     20755
     20753     20752     20754     20756     20754     20752     20750     20760
     20755     20754     20756     20757     20755     20754     20756     20758
     20755     20754     20756     20759     20760     20762     20772     20773
     20760     20762     20772     20776     20760     20762     20772     20777
     20760     20763     20747     20767     20760     20763     20765     20766
     20761     20760     20762     20772     20761     20760     20763     20764
     20761     20760     20763     20765     20762     20760     20763     20764
     20762     20760     20763     20765     20762     20772     20776     20774
     20762     20772     20777     20778     20762     20772     20777     20779
     20762     20772     20777     20780     20763     20747     20767     20768
     20763     20747     20767     20769     20763     20747     20767     20770
     20763     20760     20762     20772     20764     20763     20747     20767
     20764     20763     20765     20766     20765     20763     20747     20767
     20768     20767     20770     20771     20769     20767     20770     20771
     20772     20776     20774     20775     20772     20776     20774     20784
     20772     20776     20774     20788     20772     20777     20779     20793
     20772     20777     20780     20781     20772     20777     20780     20782
     20772     20777     20780     20784     20773     20772     20776     20774
     20773     20772     20777     20778     20773     20772     20777     20779
     20773     20772     20777     20780     20774     20776     20772     20777
     20774     20784     20780     20777     20774     20784     20780     20781
     20774     20784     20780     20782     20774     20784     20786     20787
     20774     20788     20791     20792     20775     20774     20784     20780
     20775     20774     20784     20785     20775     20774     20784     20786
     20775     20774     20788     20789     20775     20774     20788     20790
     20775     20774     20788     20791     20776     20772     20777     20778
     20776     20772     20777     20779     20776     20772     20777     20780
     20776     20774     20784     20780     20776     20774     20784     20785
     20776     20774     20784     20786     20776     20774     20788     20789
     20776     20774     20788     20790     20776     20774     20788     20791
     20777     20779     20793     20794     20777     20779     20793     20797
     20777     20779     20793     20798     20777     20780     20782     20783
     20777     20780     20784     20785     20777     20780     20784     20786
     20778     20777     20779     20793     20778     20777     20780     20781
     20778     20777     20780     20782     20778     20777     20780     20784
     20779     20777     20780     20781     20779     20777     20780     20782
     20779     20777     20780     20784     20779     20793     20797     20795
     20779     20793     20798     20799     20779     20793     20798     20800
     20779     20793     20798     20801     20780     20777     20779     20793
     20780     20784     20774     20788     20780     20784     20786     20787
     20781     20780     20782     20783     20781     20780     20784     20785
     20781     20780     20784     20786     20782     20780     20784     20785
     20782     20780     20784     20786     20783     20782     20780     20784
     20784     20774     20788     20789     20784     20774     20788     20790
     20784     20774     20788     20791     20785     20784     20774     20788
     20785     20784     20786     20787     20786     20784     20774     20788
     20789     20788     20791     20792     20790     20788     20791     20792
     20793     20797     20795     20796     20793     20797     20795     20805
     20793     20797     20795     20809     20793     20798     20800     20813
     20793     20798     20801     20802     20793     20798     20801     20803
     20793     20798     20801     20805     20794     20793     20797     20795
     20794     20793     20798     20799     20794     20793     20798     20800
     20794     20793     20798     20801     20795     20797     20793     20798
     20795     20805     20801     20798     20795     20805     20801     20802
     20795     20805     20801     20803     20795     20805     20807     20808
     20796     20795     20805     20801     20796     20795     20805     20806
     20796     20795     20805     20807     20796     20795     20809     20810
     20796     20795     20809     20811     20796     20795     20809     20812
     20797     20793     20798     20799     20797     20793     20798     20800
     20797     20793     20798     20801     20797     20795     20805     20801
     20797     20795     20805     20806     20797     20795     20805     20807
     20797     20795     20809     20810     20797     20795     20809     20811
     20797     20795     20809     20812     20798     20800     20813     20814
     20798     20800     20813     20817     20798     20800     20813     20818
     20798     20801     20803     20804     20798     20801     20805     20806
     20798     20801     20805     20807     20799     20798     20800     20813
     20799     20798     20801     20802     20799     20798     20801     20803
     20799     20798     20801     20805     20800     20798     20801     20802
     20800     20798     20801     20803     20800     20798     20801     20805
     20800     20813     20817     20815     20800     20813     20818     20819
     20800     20813     20818     20820     20800     20813     20818     20821
     20801     20798     20800     20813     20801     20805     20795     20809
     20801     20805     20807     20808     20802     20801     20803     20804
     20802     20801     20805     20806     20802     20801     20805     20807
     20803     20801     20805     20806     20803     20801     20805     20807
     20804     20803     20801     20805     20805     20795     20809     20810
     20805     20795     20809     20811     20805     20795     20809     20812
     20806     20805     20795     20809     20806     20805     20807     20808
     20807     20805     20795     20809     20813     20817     20815     20816
     20813     20817     20815     20824     20813     20817     20815     20828
     20813     20818     20820     20832     20813     20818     20821     20822
     20813     20818     20821     20823     20813     20818     20821     20824
     20814     20813     20817     20815     20814     20813     20818     20819
     20814     20813     20818     20820     20814     20813     20818     20821
     20815     20817     20813     20818     20815     20824     20821     20818
     20815     20824     20821     20822     20815     20824     20821     20823
     20815     20824     20826     20827     20816     20815     20824     20821
     20816     20815     20824     20825     20816     20815     20824     20826
     20816     20815     20828     20829     20816     20815     20828     20830
     20816     20815     20828     20831     20817     20813     20818     20819
     20817     20813     20818     20820     20817     20813     20818     20821
     20817     20815     20824     20821     20817     20815     20824     20825
     20817     20815     20824     20826     20817     20815     20828     20829
     20817     20815     20828     20830     20817     20815     20828     20831
     20818     20820     20832     20833     20818     20820     20832     20836
     20818     20820     20832     20837     20818     20821     20823     20860
     20818     20821     20824     20825     20818     20821     20824     20826
     20819     20818     20820     20832     20819     20818     20821     20822
     20819     20818     20821     20823     20819     20818     20821     20824
     20820     20818     20821     20822     20820     20818     20821     20823
     20820     20818     20821     20824     20820     20832     20836     20834
     20820     20832     20837     20838     20820     20832     20837     20839
     20820     20832     20837     20847     20821     20818     20820     20832
     20821     20823     20860     20861     20821     20823     20860     20864
     20821     20823     20860     20865     20821     20824     20815     20828
     20821     20824     20826     20827     20822     20821     20823     20860
     20822     20821     20824     20825     20822     20821     20824     20826
     20823     20821     20824     20825     20823     20821     20824     20826
     20823     20860     20864     20862     20823     20860     20865     20866
     20823     20860     20865     20867     20823     20860     20865     20875
     20824     20815     20828     20829     20824     20815     20828     20830
     20824     20815     20828     20831     20824     20821     20823     20860
     20825     20824     20815     20828     20825     20824     20826     20827
     20826     20824     20815     20828     20832     20836     20834     20835
     20832     20836     20834     20851     20832     20836     20834     20855
     20832     20837     20839     20840     20832     20837     20839     20841
     20832     20837     20847     20848     20832     20837     20847     20849
     20832     20837     20847     20851     20833     20832     20836     20834
     20833     20832     20837     20838     20833     20832     20837     20839
     20833     20832     20837     20847     20834     20836     20832     20837
     20834     20851     20847     20837     20834     20851     20847     20848
     20834     20851     20847     20849     20834     20851     20853     20854
     20834     20855     20858     20859     20835     20834     20851     20847
     20835     20834     20851     20852     20835     20834     20851     20853
     20835     20834     20855     20856     20835     20834     20855     20857
     20835     20834     20855     20858     20836     20832     20837     20838
     20836     20832     20837     20839     20836     20832     20837     20847
     20836     20834     20851     20847     20836     20834     20851     20852
     20836     20834     20851     20853     20836     20834     20855     20856
     20836     20834     20855     20857     20836     20834     20855     20858
     20837     20839     20841     20842     20837     20839     20841     20843
     20837     20847     20849     20850     20837     20847     20851     20852
     20837     20847     20851     20853     20838     20837     20839     20840
     20838     20837     20839     20841     20838     20837     20847     20848
     20838     20837     20847     20849     20838     20837     20847     20851
     20839     20837     20847     20848     20839     20837     20847     20849
     20839     20837     20847     20851     20839     20841     20843     20844
     20839     20841     20843     20845     20839     20841     20843     20846
     20840     20839     20837     20847     20840     20839     20841     20842
     20840     20839     20841     20843     20841     20839     20837     20847
     20842     20841     20843     20844     20842     20841     20843     20845
     20842     20841     20843     20846     20847     20851     20834     20855
     20847     20851     20853     20854     20848     20847     20849     20850
     20848     20847     20851     20852     20848     20847     20851     20853
     20849     20847     20851     20852     20849     20847     20851     20853
     20850     20849     20847     20851     20851     20834     20855     20856
     20851     20834     20855     20857     20851     20834     20855     20858
     20852     20851     20834     20855     20852     20851     20853     20854
     20853     20851     20834     20855     20856     20855     20858     20859
     20857     20855     20858     20859     20860     20864     20862     20863
     20860     20864     20862     20878     20860     20864     20862     20882
     20860     20865     20867     20868     20860     20865     20867     20869
     20860     20865     20875     20876     20860     20865     20875     20877
     20860     20865     20875     20878     20861     20860     20864     20862
     20861     20860     20865     20866     20861     20860     20865     20867
     20861     20860     20865     20875     20862     20864     20860     20865
     20862     20878     20875     20865     20862     20878     20875     20876
     20862     20878     20875     20877     20862     20878     20880     20881
     20862     20882     20885     20886     20863     20862     20878     20875
     20863     20862     20878     20879     20863     20862     20878     20880
     20863     20862     20882     20883     20863     20862     20882     20884
     20863     20862     20882     20885     20864     20860     20865     20866
     20864     20860     20865     20867     20864     20860     20865     20875
     20864     20862     20878     20875     20864     20862     20878     20879
     20864     20862     20878     20880     20864     20862     20882     20883
     20864     20862     20882     20884     20864     20862     20882     20885
     20865     20867     20869     20870     20865     20867     20869     20871
     20865     20875     20877     20887     20865     20875     20878     20879
     20865     20875     20878     20880     20866     20865     20867     20868
     20866     20865     20867     20869     20866     20865     20875     20876
     20866     20865     20875     20877     20866     20865     20875     20878
     20867     20865     20875     20876     20867     20865     20875     20877
     20867     20865     20875     20878     20867     20869     20871     20872
     20867     20869     20871     20873     20867     20869     20871     20874
     20868     20867     20865     20875     20868     20867     20869     20870
     20868     20867     20869     20871     20869     20867     20865     20875
     20870     20869     20871     20872     20870     20869     20871     20873
     20870     20869     20871     20874     20875     20877     20887     20888
     20875     20877     20887     20891     20875     20877     20887     20892
     20875     20878     20862     20882     20875     20878     20880     20881
     20876     20875     20877     20887     20876     20875     20878     20879
     20876     20875     20878     20880     20877     20875     20878     20879
     20877     20875     20878     20880     20877     20887     20891     20889
     20877     20887     20892     20893     20877     20887     20892     20894
     20877     20887     20892     20895     20878     20862     20882     20883
     20878     20862     20882     20884     20878     20862     20882     20885
     20878     20875     20877     20887     20879     20878     20862     20882
     20879     20878     20880     20881     20880     20878     20862     20882
     20883     20882     20885     20886     20884     20882     20885     20886
     20887     20891     20889     20890     20887     20891     20889     20899
     20887     20891     20889     20903     20887     20892     20894     20908
     20887     20892     20895     20896     20887     20892     20895     20897
     20887     20892     20895     20899     20888     20887     20891     20889
     20888     20887     20892     20893     20888     20887     20892     20894
     20888     20887     20892     20895     20889     20891     20887     20892
     20889     20899     20895     20892     20889     20899     20895     20896
     20889     20899     20895     20897     20889     20899     20901     20902
     20889     20903     20906     20907     20890     20889     20899     20895
     20890     20889     20899     20900     20890     20889     20899     20901
     20890     20889     20903     20904     20890     20889     20903     20905
     20890     20889     20903     20906     20891     20887     20892     20893
     20891     20887     20892     20894     20891     20887     20892     20895
     20891     20889     20899     20895     20891     20889     20899     20900
     20891     20889     20899     20901     20891     20889     20903     20904
     20891     20889     20903     20905     20891     20889     20903     20906
     20892     20894     20908     20909     20892     20894     20908     20912
     20892     20894     20908     20913     20892     20895     20897     20898
     20892     20895     20899     20900     20892     20895     20899     20901
     20893     20892     20894     20908     20893     20892     20895     20896
     20893     20892     20895     20897     20893     20892     20895     20899
     20894     20892     20895     20896     20894     20892     20895     20897
     20894     20892     20895     20899     20894     20908     20912     20910
     20894     20908     20913     20914     20894     20908     20913     20915
     20894     20908     20913     20916     20895     20892     20894     20908
     20895     20899     20889     20903     20895     20899     20901     20902
     20896     20895     20897     20898     20896     20895     20899     20900
     20896     20895     20899     20901     20897     20895     20899     20900
     20897     20895     20899     20901     20898     20897     20895     20899
     20899     20889     20903     20904     20899     20889     20903     20905
     20899     20889     20903     20906     20900     20899     20889     20903
     20900     20899     20901     20902     20901     20899     20889     20903
     20904     20903     20906     20907     20905     20903     20906     20907
     20908     20912     20910     20911     20908     20912     20910     20920
     20908     20912     20910     20924     20908     20913     20915     20928
     20908     20913     20916     20917     20908     20913     20916     20918
     20908     20913     20916     20920     20909     20908     20912     20910
     20909     20908     20913     20914     20909     20908     20913     20915
     20909     20908     20913     20916     20910     20912     20908     20913
     20910     20920     20916     20913     20910     20920     20916     20917
     20910     20920     20916     20918     20910     20920     20922     20923
     20911     20910     20920     20916     20911     20910     20920     20921
     20911     20910     20920     20922     20911     20910     20924     20925
     20911     20910     20924     20926     20911     20910     20924     20927
     20912     20908     20913     20914     20912     20908     20913     20915
     20912     20908     20913     20916     20912     20910     20920     20916
     20912     20910     20920     20921     20912     20910     20920     20922
     20912     20910     20924     20925     20912     20910     20924     20926
     20912     20910     20924     20927     20913     20915     20928     20929
     20913     20915     20928     20932     20913     20915     20928     20933
     20913     20916     20918     20919     20913     20916     20920     20921
     20913     20916     20920     20922     20914     20913     20915     20928
     20914     20913     20916     20917     20914     20913     20916     20918
     20914     20913     20916     20920     20915     20913     20916     20917
     20915     20913     20916     20918     20915     20913     20916     20920
     20915     20928     20932     20930     20915     20928     20933     20934
     20915     20928     20933     20935     20915     20928     20933     20936
     20916     20913     20915     20928     20916     20920     20910     20924
     20916     20920     20922     20923     20917     20916     20918     20919
     20917     20916     20920     20921     20917     20916     20920     20922
     20918     20916     20920     20921     20918     20916     20920     20922
     20919     20918     20916     20920     20920     20910     20924     20925
     20920     20910     20924     20926     20920     20910     20924     20927
     20921     20920     20910     20924     20921     20920     20922     20923
     20922     20920     20910     20924     20928     20932     20930     20931
     20928     20932     20930     20939     20928     20932     20930     20943
     20928     20933     20935     20947     20928     20933     20936     20937
     20928     20933     20936     20938     20928     20933     20936     20939
     20929     20928     20932     20930     20929     20928     20933     20934
     20929     20928     20933     20935     20929     20928     20933     20936
     20930     20932     20928     20933     20930     20939     20936     20933
     20930     20939     20936     20937     20930     20939     20936     20938
     20930     20939     20941     20942     20931     20930     20939     20936
     20931     20930     20939     20940     20931     20930     20939     20941
     20931     20930     20943     20944     20931     20930     20943     20945
     20931     20930     20943     20946     20932     20928     20933     20934
     20932     20928     20933     20935     20932     20928     20933     20936
     20932     20930     20939     20936     20932     20930     20939     20940
     20932     20930     20939     20941     20932     20930     20943     20944
     20932     20930     20943     20945     20932     20930     20943     20946
     20933     20935     20947     20948     20933     20935     20947     20951
     20933     20935     20947     20952     20933     20936     20938     20975
     20933     20936     20939     20940     20933     20936     20939     20941
     20934     20933     20935     20947     20934     20933     20936     20937
     20934     20933     20936     20938     20934     20933     20936     20939
     20935     20933     20936     20937     20935     20933     20936     20938
     20935     20933     20936     20939     20935     20947     20951     20949
     20935     20947     20952     20953     20935     20947     20952     20954
     20935     20947     20952     20962     20936     20933     20935     20947
     20936     20938     20975     20976     20936     20938     20975     20979
     20936     20938     20975     20980     20936     20939     20930     20943
     20936     20939     20941     20942     20937     20936     20938     20975
     20937     20936     20939     20940     20937     20936     20939     20941
     20938     20936     20939     20940     20938     20936     20939     20941
     20938     20975     20979     20977     20938     20975     20980     20981
     20938     20975     20980     20982     20938     20975     20980     20990
     20939     20930     20943     20944     20939     20930     20943     20945
     20939     20930     20943     20946     20939     20936     20938     20975
     20940     20939     20930     20943     20940     20939     20941     20942
     20941     20939     20930     20943     20947     20951     20949     20950
     20947     20951     20949     20966     20947     20951     20949     20970
     20947     20952     20954     20955     20947     20952     20954     20956
     20947     20952     20962     20963     20947     20952     20962     20964
     20947     20952     20962     20966     20948     20947     20951     20949
     20948     20947     20952     20953     20948     20947     20952     20954
     20948     20947     20952     20962     20949     20951     20947     20952
     20949     20966     20962     20952     20949     20966     20962     20963
     20949     20966     20962     20964     20949     20966     20968     20969
     20949     20970     20973     20974     20950     20949     20966     20962
     20950     20949     20966     20967     20950     20949     20966     20968
     20950     20949     20970     20971     20950     20949     20970     20972
     20950     20949     20970     20973     20951     20947     20952     20953
     20951     20947     20952     20954     20951     20947     20952     20962
     20951     20949     20966     20962     20951     20949     20966     20967
     20951     20949     20966     20968     20951     20949     20970     20971
     20951     20949     20970     20972     20951     20949     20970     20973
     20952     20954     20956     20957     20952     20954     20956     20958
     20952     20962     20964     20965     20952     20962     20966     20967
     20952     20962     20966     20968     20953     20952     20954     20955
     20953     20952     20954     20956     20953     20952     20962     20963
     20953     20952     20962     20964     20953     20952     20962     20966
     20954     20952     20962     20963     20954     20952     20962     20964
     20954     20952     20962     20966     20954     20956     20958     20959
     20954     20956     20958     20960     20954     20956     20958     20961
     20955     20954     20952     20962     20955     20954     20956     20957
     20955     20954     20956     20958     20956     20954     20952     20962
     20957     20956     20958     20959     20957     20956     20958     20960
     20957     20956     20958     20961     20962     20966     20949     20970
     20962     20966     20968     20969     20963     20962     20964     20965
     20963     20962     20966     20967     20963     20962     20966     20968
     20964     20962     20966     20967     20964     20962     20966     20968
     20965     20964     20962     20966     20966     20949     20970     20971
     20966     20949     20970     20972     20966     20949     20970     20973
     20967     20966     20949     20970     20967     20966     20968     20969
     20968     20966     20949     20970     20971     20970     20973     20974
     20972     20970     20973     20974     20975     20979     20977     20978
     20975     20979     20977     20993     20975     20979     20977     20997
     20975     20980     20982     20983     20975     20980     20982     20984
     20975     20980     20990     20991     20975     20980     20990     20992
     20975     20980     20990     20993     20976     20975     20979     20977
     20976     20975     20980     20981     20976     20975     20980     20982
     20976     20975     20980     20990     20977     20979     20975     20980
     20977     20993     20990     20980     20977     20993     20990     20991
     20977     20993     20990     20992     20977     20993     20995     20996
     20977     20997     21000     21001     20978     20977     20993     20990
     20978     20977     20993     20994     20978     20977     20993     20995
     20978     20977     20997     20998     20978     20977     20997     20999
     20978     20977     20997     21000     20979     20975     20980     20981
     20979     20975     20980     20982     20979     20975     20980     20990
     20979     20977     20993     20990     20979     20977     20993     20994
     20979     20977     20993     20995     20979     20977     20997     20998
     20979     20977     20997     20999     20979     20977     20997     21000
     20980     20982     20984     20985     20980     20982     20984     20986
     20980     20990     20992     21002     20980     20990     20993     20994
     20980     20990     20993     20995     20981     20980     20982     20983
     20981     20980     20982     20984     20981     20980     20990     20991
     20981     20980     20990     20992     20981     20980     20990     20993
     20982     20980     20990     20991     20982     20980     20990     20992
     20982     20980     20990     20993     20982     20984     20986     20987
     20982     20984     20986     20988     20982     20984     20986     20989
     20983     20982     20980     20990     20983     20982     20984     20985
     20983     20982     20984     20986     20984     20982     20980     20990
     20985     20984     20986     20987     20985     20984     20986     20988
     20985     20984     20986     20989     20990     20992     21002     21003
     20990     20992     21002     21006     20990     20992     21002     21007
     20990     20993     20977     20997     20990     20993     20995     20996
     20991     20990     20992     21002     20991     20990     20993     20994
     20991     20990     20993     20995     20992     20990     20993     20994
     20992     20990     20993     20995     20992     21002     21006     21004
     20992     21002     21007     21008     20992     21002     21007     21009
     20992     21002     21007     21010     20993     20977     20997     20998
     20993     20977     20997     20999     20993     20977     20997     21000
     20993     20990     20992     21002     20994     20993     20977     20997
     20994     20993     20995     20996     20995     20993     20977     20997
     20998     20997     21000     21001     20999     20997     21000     21001
     21002     21006     21004     21005     21002     21006     21004     21014
     21002     21006     21004     21018     21002     21007     21009     21023
     21002     21007     21010     21011     21002     21007     21010     21012
     21002     21007     21010     21014     21003     21002     21006     21004
     21003     21002     21007     21008     21003     21002     21007     21009
     21003     21002     21007     21010     21004     21006     21002     21007
     21004     21014     21010     21007     21004     21014     21010     21011
     21004     21014     21010     21012     21004     21014     21016     21017
     21004     21018     21021     21022     21005     21004     21014     21010
     21005     21004     21014     21015     21005     21004     21014     21016
     21005     21004     21018     21019     21005     21004     21018     21020
     21005     21004     21018     21021     21006     21002     21007     21008
     21006     21002     21007     21009     21006     21002     21007     21010
     21006     21004     21014     21010     21006     21004     21014     21015
     21006     21004     21014     21016     21006     21004     21018     21019
     21006     21004     21018     21020     21006     21004     21018     21021
     21007     21009     21023     21024     21007     21009     21023     21027
     21007     21009     21023     21028     21007     21010     21012     21013
     21007     21010     21014     21015     21007     21010     21014     21016
     21008     21007     21009     21023     21008     21007     21010     21011
     21008     21007     21010     21012     21008     21007     21010     21014
     21009     21007     21010     21011     21009     21007     21010     21012
     21009     21007     21010     21014     21009     21023     21027     21025
     21009     21023     21028     21029     21009     21023     21028     21030
     21009     21023     21028     21031     21010     21007     21009     21023
     21010     21014     21004     21018     21010     21014     21016     21017
     21011     21010     21012     21013     21011     21010     21014     21015
     21011     21010     21014     21016     21012     21010     21014     21015
     21012     21010     21014     21016     21013     21012     21010     21014
     21014     21004     21018     21019     21014     21004     21018     21020
     21014     21004     21018     21021     21015     21014     21004     21018
     21015     21014     21016     21017     21016     21014     21004     21018
     21019     21018     21021     21022     21020     21018     21021     21022
     21023     21027     21025     21026     21023     21027     21025     21035
     21023     21027     21025     21039     21023     21028     21030     21043
     21023     21028     21031     21032     21023     21028     21031     21033
     21023     21028     21031     21035     21024     21023     21027     21025
     21024     21023     21028     21029     21024     21023     21028     21030
     21024     21023     21028     21031     21025     21027     21023     21028
     21025     21035     21031     21028     21025     21035     21031     21032
     21025     21035     21031     21033     21025     21035     21037     21038
     21026     21025     21035     21031     21026     21025     21035     21036
     21026     21025     21035     21037     21026     21025     21039     21040
     21026     21025     21039     21041     21026     21025     21039     21042
     21027     21023     21028     21029     21027     21023     21028     21030
     21027     21023     21028     21031     21027     21025     21035     21031
     21027     21025     21035     21036     21027     21025     21035     21037
     21027     21025     21039     21040     21027     21025     21039     21041
     21027     21025     21039     21042     21028     21030     21043     21044
     21028     21030     21043     21047     21028     21030     21043     21048
     21028     21031     21033     21034     21028     21031     21035     21036
     21028     21031     21035     21037     21029     21028     21030     21043
     21029     21028     21031     21032     21029     21028     21031     21033
     21029     21028     21031     21035     21030     21028     21031     21032
     21030     21028     21031     21033     21030     21028     21031     21035
     21030     21043     21047     21045     21030     21043     21048     21049
     21030     21043     21048     21050     21030     21043     21048     21051
     21031     21028     21030     21043     21031     21035     21025     21039
     21031     21035     21037     21038     21032     21031     21033     21034
     21032     21031     21035     21036     21032     21031     21035     21037
     21033     21031     21035     21036     21033     21031     21035     21037
     21034     21033     21031     21035     21035     21025     21039     21040
     21035     21025     21039     21041     21035     21025     21039     21042
     21036     21035     21025     21039     21036     21035     21037     21038
     21037     21035     21025     21039     21043     21047     21045     21046
     21043     21047     21045     21055     21043     21047     21045     21059
     21043     21048     21050     21063     21043     21048     21051     21052
     21043     21048     21051     21053     21043     21048     21051     21055
     21044     21043     21047     21045     21044     21043     21048     21049
     21044     21043     21048     21050     21044     21043     21048     21051
     21045     21047     21043     21048     21045     21055     21051     21048
     21045     21055     21051     21052     21045     21055     21051     21053
     21045     21055     21057     21058     21046     21045     21055     21051
     21046     21045     21055     21056     21046     21045     21055     21057
     21046     21045     21059     21060     21046     21045     21059     21061
     21046     21045     21059     21062     21047     21043     21048     21049
     21047     21043     21048     21050     21047     21043     21048     21051
     21047     21045     21055     21051     21047     21045     21055     21056
     21047     21045     21055     21057     21047     21045     21059     21060
     21047     21045     21059     21061     21047     21045     21059     21062
     21048     21050     21063     21064     21048     21050     21063     21067
     21048     21050     21063     21068     21048     21051     21053     21054
     21048     21051     21055     21056     21048     21051     21055     21057
     21049     21048     21050     21063     21049     21048     21051     21052
     21049     21048     21051     21053     21049     21048     21051     21055
     21050     21048     21051     21052     21050     21048     21051     21053
     21050     21048     21051     21055     21050     21063     21067     21065
     21050     21063     21068     21069     21050     21063     21068     21070
     21050     21063     21068     21078     21051     21048     21050     21063
     21051     21055     21045     21059     21051     21055     21057     21058
     21052     21051     21053     21054     21052     21051     21055     21056
     21052     21051     21055     21057     21053     21051     21055     21056
     21053     21051     21055     21057     21054     21053     21051     21055
     21055     21045     21059     21060     21055     21045     21059     21061
     21055     21045     21059     21062     21056     21055     21045     21059
     21056     21055     21057     21058     21057     21055     21045     21059
     21063     21067     21065     21066     21063     21067     21065     21082
     21063     21067     21065     21086     21063     21068     21070     21071
     21063     21068     21070     21072     21063     21068     21078     21079
     21063     21068     21078     21080     21063     21068     21078     21082
     21064     21063     21067     21065     21064     21063     21068     21069
     21064     21063     21068     21070     21064     21063     21068     21078
     21065     21067     21063     21068     21065     21082     21078     21068
     21065     21082     21078     21079     21065     21082     21078     21080
     21065     21082     21084     21085     21065     21086     21089     21090
     21066     21065     21082     21078     21066     21065     21082     21083
     21066     21065     21082     21084     21066     21065     21086     21087
     21066     21065     21086     21088     21066     21065     21086     21089
     21067     21063     21068     21069     21067     21063     21068     21070
     21067     21063     21068     21078     21067     21065     21082     21078
     21067     21065     21082     21083     21067     21065     21082     21084
     21067     21065     21086     21087     21067     21065     21086     21088
     21067     21065     21086     21089     21068     21070     21072     21073
     21068     21070     21072     21074     21068     21078     21080     21081
     21068     21078     21082     21083     21068     21078     21082     21084
     21069     21068     21070     21071     21069     21068     21070     21072
     21069     21068     21078     21079     21069     21068     21078     21080
     21069     21068     21078     21082     21070     21068     21078     21079
     21070     21068     21078     21080     21070     21068     21078     21082
     21070     21072     21074     21075     21070     21072     21074     21076
     21070     21072     21074     21077     21071     21070     21068     21078
     21071     21070     21072     21073     21071     21070     21072     21074
     21072     21070     21068     21078     21073     21072     21074     21075
     21073     21072     21074     21076     21073     21072     21074     21077
     21078     21082     21065     21086     21078     21082     21084     21085
     21079     21078     21080     21081     21079     21078     21082     21083
     21079     21078     21082     21084     21080     21078     21082     21083
     21080     21078     21082     21084     21081     21080     21078     21082
     21082     21065     21086     21087     21082     21065     21086     21088
     21082     21065     21086     21089     21083     21082     21065     21086
     21083     21082     21084     21085     21084     21082     21065     21086
     21087     21086     21089     21090     21088     21086     21089     21090
     21091     21093     21092     21390     21091     21093     21095     21096
     21091     21093     21095     21097     21091     21093     21095     21104
     21092     21093     21095     21096     21092     21093     21095     21097
     21092     21093     21095     21104     21092     21390     21387     21388
     21092     21390     21387     21389     21092     21390     21393     21391
     21092     21390     21394     21395     21092     21390     21394     21396
     21092     21390     21394     21397     21093     21092     21390     21387
     21093     21092     21390     21393     21093     21092     21390     21394
     21093     21095     21096     21098     21093     21095     21104     21105
     21093     21095     21104     21106     21093     21095     21104     21111
     21094     21093     21092     21390     21094     21093     21095     21096
     21094     21093     21095     21097     21094     21093     21095     21104
     21095     21093     21092     21390     21095     21096     21098     21099
     21095     21096     21098     21100     21095     21096     21098     21119
     21095     21104     21106     21107     21095     21104     21111     21112
     21095     21104     21111     21113     21095     21104     21111     21119
     21096     21095     21104     21105     21096     21095     21104     21106
     21096     21095     21104     21111     21096     21098     21100     21101
     21096     21098     21119     21111     21096     21098     21119     21120
     21096     21098     21119     21121     21097     21095     21096     21098
     21097     21095     21104     21105     21097     21095     21104     21106
     21097     21095     21104     21111     21098     21096     21095     21104
     21098     21100     21101     21102     21098     21100     21101     21103
     21098     21100     21101     21127     21098     21119     21111     21104
     21098     21119     21111     21112     21098     21119     21111     21113
     21098     21119     21121     21122     21098     21119     21121     21228
     21099     21098     21100     21101     21099     21098     21119     21111
     21099     21098     21119     21120     21099     21098     21119     21121
     21100     21098     21119     21111     21100     21098     21119     21120
     21100     21098     21119     21121     21100     21101     21127     21123
     21100     21101     21127     21128     21100     21101     21127     21129
     21101     21100     21098     21119     21101     21127     21123     21124
     21101     21127     21123     21125     21101     21127     21123     21137
     21101     21127     21129     21130     21102     21101     21127     21123
     21102     21101     21127     21128     21102     21101     21127     21129
     21103     21101     21127     21123     21103     21101     21127     21128
     21103     21101     21127     21129     21104     21106     21107     21108
     21104     21106     21107     21109     21104     21106     21107     21110
     21104     21111     21112     21114     21104     21111     21119     21120
     21104     21111     21119     21121     21105     21104     21106     21107
     21105     21104     21111     21112     21105     21104     21111     21113
     21105     21104     21111     21119     21106     21104     21111     21112
     21106     21104     21111     21113     21106     21104     21111     21119
     21107     21106     21104     21111     21111     21112     21114     21115
     21111     21112     21114     21116     21111     21119     21121     21122
     21111     21119     21121     21228     21112     21111     21119     21120
     21112     21111     21119     21121     21112     21114     21116     21117
     21112     21114     21116     21118     21112     21114     21116     21149
     21113     21111     21112     21114     21113     21111     21119     21120
     21113     21111     21119     21121     21114     21112     21111     21119
     21114     21116     21149     21150     21114     21116     21149     21151
     21114     21116     21149     21194     21115     21114     21116     21117
     21115     21114     21116     21118     21115     21114     21116     21149
     21116     21149     21151     21152     21116     21149     21194     21195
     21116     21149     21194     21196     21116     21149     21194     21197
     21117     21116     21149     21150     21117     21116     21149     21151
     21117     21116     21149     21194     21118     21116     21149     21150
     21118     21116     21149     21151     21118     21116     21149     21194
     21119     21121     21228     21229     21119     21121     21228     21230
     21120     21119     21121     21122     21120     21119     21121     21228
     21121     21228     21230     21231     21121     21228     21230     21232
     21121     21228     21230     21233     21122     21121     21228     21229
     21122     21121     21228     21230     21123     21127     21129     21130
     21123     21137     21139     21140     21123     21137     21145     21130
     21123     21137     21145     21146     21123     21137     21145     21147
     21124     21123     21125     21126     21124     21123     21127     21128
     21124     21123     21127     21129     21124     21123     21137     21138
     21124     21123     21137     21139     21124     21123     21137     21145
     21125     21123     21127     21128     21125     21123     21127     21129
     21125     21123     21137     21138     21125     21123     21137     21139
     21125     21123     21137     21145     21126     21125     21123     21127
     21126     21125     21123     21137     21127     21123     21137     21138
     21127     21123     21137     21139     21127     21123     21137     21145
     21127     21129     21130     21131     21127     21129     21130     21132
     21127     21129     21130     21145     21128     21127     21123     21137
     21128     21127     21129     21130     21129     21127     21123     21137
     21129     21130     21132     21136     21129     21130     21145     21137
     21129     21130     21145     21146     21129     21130     21145     21147
     21130     21132     21136     21133     21130     21132     21136     21134
     21130     21132     21136     21135     21130     21145     21137     21138
     21130     21145     21137     21139     21130     21145     21147     21148
     21130     21145     21147     21344     21131     21130     21132     21136
     21131     21130     21145     21137     21131     21130     21145     21146
     21131     21130     21145     21147     21132     21130     21145     21137
     21132     21130     21145     21146     21132     21130     21145     21147
     21136     21132     21130     21145     21137     21139     21140     21141
     21137     21139     21140     21142     21137     21145     21147     21148
     21137     21145     21147     21344     21138     21137     21139     21140
     21138     21137     21145     21146     21138     21137     21145     21147
     21139     21137     21145     21146     21139     21137     21145     21147
     21139     21140     21142     21143     21139     21140     21142     21144
     21139     21140     21142     21306     21140     21139     21137     21145
     21140     21142     21306     21307     21140     21142     21306     21308
     21140     21142     21306     21310     21141     21140     21142     21143
     21141     21140     21142     21144     21141     21140     21142     21306
     21142     21306     21308     21309     21142     21306     21310     21311
     21142     21306     21310     21312     21142     21306     21310     21313
     21143     21142     21306     21307     21143     21142     21306     21308
     21143     21142     21306     21310     21144     21142     21306     21307
     21144     21142     21306     21308     21144     21142     21306     21310
     21145     21147     21344     21345     21145     21147     21344     21346
     21146     21145     21147     21148     21146     21145     21147     21344
     21147     21344     21346     21347     21147     21344     21346     21348
     21147     21344     21346     21349     21148     21147     21344     21345
     21148     21147     21344     21346     21149     21151     21152     21153
     21149     21151     21152     21154     21149     21194     21197     21198
     21149     21194     21197     21199     21149     21194     21197     21200
     21150     21149     21151     21152     21150     21149     21194     21195
     21150     21149     21194     21196     21150     21149     21194     21197
     21151     21149     21194     21195     21151     21149     21194     21196
     21151     21149     21194     21197     21151     21152     21154     21155
     21151     21152     21154     21156     21151     21152     21154     21157
     21152     21151     21149     21194     21152     21154     21157     21158
     21152     21154     21157     21159     21152     21154     21157     21160
     21153     21152     21154     21155     21153     21152     21154     21156
     21153     21152     21154     21157     21154     21157     21160     21161
     21154     21157     21160     21162     21154     21157     21160     21163
     21155     21154     21157     21158     21155     21154     21157     21159
     21155     21154     21157     21160     21156     21154     21157     21158
     21156     21154     21157     21159     21156     21154     21157     21160
     21157     21160     21163     21164     21157     21160     21163     21165
     21157     21160     21163     21166     21158     21157     21160     21161
     21158     21157     21160     21162     21158     21157     21160     21163
     21159     21157     21160     21161     21159     21157     21160     21162
     21159     21157     21160     21163     21160     21163     21166     21167
     21160     21163     21166     21168     21160     21163     21166     21169
     21161     21160     21163     21164     21161     21160     21163     21165
     21161     21160     21163     21166     21162     21160     21163     21164
     21162     21160     21163     21165     21162     21160     21163     21166
     21163     21166     21169     21170     21163     21166     21169     21171
     21163     21166     21169     21172     21164     21163     21166     21167
     21164     21163     21166     21168     21164     21163     21166     21169
     21165     21163     21166     21167     21165     21163     21166     21168
     21165     21163     21166     21169     21166     21169     21172     21173
     21166     21169     21172     21174     21166     21169     21172     21175
     21167     21166     21169     21170     21167     21166     21169     21171
     21167     21166     21169     21172     21168     21166     21169     21170
     21168     21166     21169     21171     21168     21166     21169     21172
     21169     21172     21175     21176     21169     21172     21175     21177
     21169     21172     21175     21178     21170     21169     21172     21173
     21170     21169     21172     21174     21170     21169     21172     21175
     21171     21169     21172     21173     21171     21169     21172     21174
     21171     21169     21172     21175     21172     21175     21178     21179
     21172     21175     21178     21180     21172     21175     21178     21181
     21173     21172     21175     21176     21173     21172     21175     21177
     21173     21172     21175     21178     21174     21172     21175     21176
     21174     21172     21175     21177     21174     21172     21175     21178
     21175     21178     21181     21182     21175     21178     21181     21183
     21175     21178     21181     21184     21176     21175     21178     21179
     21176     21175     21178     21180     21176     21175     21178     21181
     21177     21175     21178     21179     21177     21175     21178     21180
     21177     21175     21178     21181     21178     21181     21184     21185
     21178     21181     21184     21186     21178     21181     21184     21187
     21179     21178     21181     21182     21179     21178     21181     21183
     21179     21178     21181     21184     21180     21178     21181     21182
     21180     21178     21181     21183     21180     21178     21181     21184
     21181     21184     21187     21188     21181     21184     21187     21189
     21181     21184     21187     21190     21182     21181     21184     21185
     21182     21181     21184     21186     21182     21181     21184     21187
     21183     21181     21184     21185     21183     21181     21184     21186
     21183     21181     21184     21187     21184     21187     21190     21191
     21184     21187     21190     21192     21184     21187     21190     21193
     21185     21184     21187     21188     21185     21184     21187     21189
     21185     21184     21187     21190     21186     21184     21187     21188
     21186     21184     21187     21189     21186     21184     21187     21190
     21188     21187     21190     21191     21188     21187     21190     21192
     21188     21187     21190     21193     21189     21187     21190     21191
     21189     21187     21190     21192     21189     21187     21190     21193
     21194     21197     21200     21201     21194     21197     21200     21202
     21194     21197     21200     21203     21195     21194     21197     21198
     21195     21194     21197     21199     21195     21194     21197     21200
     21196     21194     21197     21198     21196     21194     21197     21199
     21196     21194     21197     21200     21197     21200     21203     21204
     21197     21200     21203     21205     21197     21200     21203     21206
     21198     21197     21200     21201     21198     21197     21200     21202
     21198     21197     21200     21203     21199     21197     21200     21201
     21199     21197     21200     21202     21199     21197     21200     21203
     21200     21203     21206     21207     21200     21203     21206     21208
     21200     21203     21206     21209     21201     21200     21203     21204
     21201     21200     21203     21205     21201     21200     21203     21206
     21202     21200     21203     21204     21202     21200     21203     21205
     21202     21200     21203     21206     21203     21206     21209     21210
     21203     21206     21209     21211     21203     21206     21209     21212
     21204     21203     21206     21207     21204     21203     21206     21208
     21204     21203     21206     21209     21205     21203     21206     21207
     21205     21203     21206     21208     21205     21203     21206     21209
     21206     21209     21212     21213     21206     21209     21212     21214
     21206     21209     21212     21215     21207     21206     21209     21210
     21207     21206     21209     21211     21207     21206     21209     21212
     21208     21206     21209     21210     21208     21206     21209     21211
     21208     21206     21209     21212     21209     21212     21215     21216
     21209     21212     21215     21217     21209     21212     21215     21218
     21210     21209     21212     21213     21210     21209     21212     21214
     21210     21209     21212     21215     21211     21209     21212     21213
     21211     21209     21212     21214     21211     21209     21212     21215
     21212     21215     21218     21219     21212     21215     21218     21220
     21212     21215     21218     21221     21213     21212     21215     21216
     21213     21212     21215     21217     21213     21212     21215     21218
     21214     21212     21215     21216     21214     21212     21215     21217
     21214     21212     21215     21218     21215     21218     21221     21222
     21215     21218     21221     21223     21215     21218     21221     21224
     21216     21215     21218     21219     21216     21215     21218     21220
     21216     21215     21218     21221     21217     21215     21218     21219
     21217     21215     21218     21220     21217     21215     21218     21221
     21218     21221     21224     21225     21218     21221     21224     21226
     21218     21221     21224     21227     21219     21218     21221     21222
     21219     21218     21221     21223     21219     21218     21221     21224
     21220     21218     21221     21222     21220     21218     21221     21223
     21220     21218     21221     21224     21222     21221     21224     21225
     21222     21221     21224     21226     21222     21221     21224     21227
     21223     21221     21224     21225     21223     21221     21224     21226
     21223     21221     21224     21227     21228     21230     21233     21234
     21228     21230     21233     21235     21228     21230     21233     21272
     21229     21228     21230     21231     21229     21228     21230     21232
     21229     21228     21230     21233     21230     21233     21235     21236
     21230     21233     21272     21273     21230     21233     21272     21274
     21230     21233     21272     21275     21231     21230     21233     21234
     21231     21230     21233     21235     21231     21230     21233     21272
     21232     21230     21233     21234     21232     21230     21233     21235
     21232     21230     21233     21272     21233     21235     21236     21237
     21233     21235     21236     21238     21233     21272     21275     21276
     21233     21272     21275     21277     21233     21272     21275     21278
     21234     21233     21235     21236     21234     21233     21272     21273
     21234     21233     21272     21274     21234     21233     21272     21275
     21235     21233     21272     21273     21235     21233     21272     21274
     21235     21233     21272     21275     21235     21236     21238     21239
     21235     21236     21238     21240     21235     21236     21238     21241
     21236     21235     21233     21272     21236     21238     21241     21242
     21236     21238     21241     21243     21236     21238     21241     21244
     21237     21236     21238     21239     21237     21236     21238     21240
     21237     21236     21238     21241     21238     21241     21244     21245
     21238     21241     21244     21246     21238     21241     21244     21247
     21239     21238     21241     21242     21239     21238     21241     21243
     21239     21238     21241     21244     21240     21238     21241     21242
     21240     21238     21241     21243     21240     21238     21241     21244
     21241     21244     21247     21248     21241     21244     21247     21249
     21241     21244     21247     21250     21242     21241     21244     21245
     21242     21241     21244     21246     21242     21241     21244     21247
     21243     21241     21244     21245     21243     21241     21244     21246
     21243     21241     21244     21247     21244     21247     21250     21251
     21244     21247     21250     21252     21244     21247     21250     21253
     21245     21244     21247     21248     21245     21244     21247     21249
     21245     21244     21247     21250     21246     21244     21247     21248
     21246     21244     21247     21249     21246     21244     21247     21250
     21247     21250     21253     21254     21247     21250     21253     21255
     21247     21250     21253     21256     21248     21247     21250     21251
     21248     21247     21250     21252     21248     21247     21250     21253
     21249     21247     21250     21251     21249     21247     21250     21252
     21249     21247     21250     21253     21250     21253     21256     21257
     21250     21253     21256     21258     21250     21253     21256     21259
     21251     21250     21253     21254     21251     21250     21253     21255
     21251     21250     21253     21256     21252     21250     21253     21254
     21252     21250     21253     21255     21252     21250     21253     21256
     21253     21256     21259     21260     21253     21256     21259     21261
     21253     21256     21259     21262     21254     21253     21256     21257
     21254     21253     21256     21258     21254     21253     21256     21259
     21255     21253     21256     21257     21255     21253     21256     21258
     21255     21253     21256     21259     21256     21259     21262     21263
     21256     21259     21262     21264     21256     21259     21262     21265
     21257     21256     21259     21260     21257     21256     21259     21261
     21257     21256     21259     21262     21258     21256     21259     21260
     21258     21256     21259     21261     21258     21256     21259     21262
     21259     21262     21265     21266     21259     21262     21265     21267
     21259     21262     21265     21268     21260     21259     21262     21263
     21260     21259     21262     21264     21260     21259     21262     21265
     21261     21259     21262     21263     21261     21259     21262     21264
     21261     21259     21262     21265     21262     21265     21268     21269
     21262     21265     21268     21270     21262     21265     21268     21271
     21263     21262     21265     21266     21263     21262     21265     21267
     21263     21262     21265     21268     21264     21262     21265     21266
     21264     21262     21265     21267     21264     21262     21265     21268
     21266     21265     21268     21269     21266     21265     21268     21270
     21266     21265     21268     21271     21267     21265     21268     21269
     21267     21265     21268     21270     21267     21265     21268     21271
     21272     21275     21278     21279     21272     21275     21278     21280
     21272     21275     21278     21281     21273     21272     21275     21276
     21273     21272     21275     21277     21273     21272     21275     21278
     21274     21272     21275     21276     21274     21272     21275     21277
     21274     21272     21275     21278     21275     21278     21281     21282
     21275     21278     21281     21283     21275     21278     21281     21284
     21276     21275     21278     21279     21276     21275     21278     21280
     21276     21275     21278     21281     21277     21275     21278     21279
     21277     21275     21278     21280     21277     21275     21278     21281
     21278     21281     21284     21285     21278     21281     21284     21286
     21278     21281     21284     21287     21279     21278     21281     21282
     21279     21278     21281     21283     21279     21278     21281     21284
     21280     21278     21281     21282     21280     21278     21281     21283
     21280     21278     21281     21284     21281     21284     21287     21288
     21281     21284     21287     21289     21281     21284     21287     21290
     21282     21281     21284     21285     21282     21281     21284     21286
     21282     21281     21284     21287     21283     21281     21284     21285
     21283     21281     21284     21286     21283     21281     21284     21287
     21284     21287     21290     21291     21284     21287     21290     21292
     21284     21287     21290     21293     21285     21284     21287     21288
     21285     21284     21287     21289     21285     21284     21287     21290
     21286     21284     21287     21288     21286     21284     21287     21289
     21286     21284     21287     21290     21287     21290     21293     21294
     21287     21290     21293     21295     21287     21290     21293     21296
     21288     21287     21290     21291     21288     21287     21290     21292
     21288     21287     21290     21293     21289     21287     21290     21291
     21289     21287     21290     21292     21289     21287     21290     21293
     21290     21293     21296     21297     21290     21293     21296     21298
     21290     21293     21296     21299     21291     21290     21293     21294
     21291     21290     21293     21295     21291     21290     21293     21296
     21292     21290     21293     21294     21292     21290     21293     21295
     21292     21290     21293     21296     21293     21296     21299     21300
     21293     21296     21299     21301     21293     21296     21299     21302
     21294     21293     21296     21297     21294     21293     21296     21298
     21294     21293     21296     21299     21295     21293     21296     21297
     21295     21293     21296     21298     21295     21293     21296     21299
     21296     21299     21302     21303     21296     21299     21302     21304
     21296     21299     21302     21305     21297     21296     21299     21300
     21297     21296     21299     21301     21297     21296     21299     21302
     21298     21296     21299     21300     21298     21296     21299     21301
     21298     21296     21299     21302     21300     21299     21302     21303
     21300     21299     21302     21304     21300     21299     21302     21305
     21301     21299     21302     21303     21301     21299     21302     21304
     21301     21299     21302     21305     21306     21310     21313     21314
     21306     21310     21313     21315     21306     21310     21313     21316
     21307     21306     21308     21309     21307     21306     21310     21311
     21307     21306     21310     21312     21307     21306     21310     21313
     21308     21306     21310     21311     21308     21306     21310     21312
     21308     21306     21310     21313     21309     21308     21306     21310
     21310     21313     21316     21317     21310     21313     21316     21318
     21310     21313     21316     21319     21311     21310     21313     21314
     21311     21310     21313     21315     21311     21310     21313     21316
     21312     21310     21313     21314     21312     21310     21313     21315
     21312     21310     21313     21316     21313     21316     21319     21320
     21313     21316     21319     21321     21313     21316     21319     21322
     21314     21313     21316     21317     21314     21313     21316     21318
     21314     21313     21316     21319     21315     21313     21316     21317
     21315     21313     21316     21318     21315     21313     21316     21319
     21316     21319     21322     21323     21316     21319     21322     21324
     21316     21319     21322     21325     21317     21316     21319     21320
     21317     21316     21319     21321     21317     21316     21319     21322
     21318     21316     21319     21320     21318     21316     21319     21321
     21318     21316     21319     21322     21319     21322     21325     21326
     21319     21322     21325     21327     21319     21322     21325     21328
     21320     21319     21322     21323     21320     21319     21322     21324
     21320     21319     21322     21325     21321     21319     21322     21323
     21321     21319     21322     21324     21321     21319     21322     21325
     21322     21325     21328     21329     21322     21325     21328     21330
     21322     21325     21328     21331     21323     21322     21325     21326
     21323     21322     21325     21327     21323     21322     21325     21328
     21324     21322     21325     21326     21324     21322     21325     21327
     21324     21322     21325     21328     21325     21328     21331     21332
     21325     21328     21331     21333     21325     21328     21331     21334
     21326     21325     21328     21329     21326     21325     21328     21330
     21326     21325     21328     21331     21327     21325     21328     21329
     21327     21325     21328     21330     21327     21325     21328     21331
     21328     21331     21334     21335     21328     21331     21334     21336
     21328     21331     21334     21337     21329     21328     21331     21332
     21329     21328     21331     21333     21329     21328     21331     21334
     21330     21328     21331     21332     21330     21328     21331     21333
     21330     21328     21331     21334     21331     21334     21337     21338
     21331     21334     21337     21339     21331     21334     21337     21340
     21332     21331     21334     21335     21332     21331     21334     21336
     21332     21331     21334     21337     21333     21331     21334     21335
     21333     21331     21334     21336     21333     21331     21334     21337
     21334     21337     21340     21341     21334     21337     21340     21342
     21334     21337     21340     21343     21335     21334     21337     21338
     21335     21334     21337     21339     21335     21334     21337     21340
     21336     21334     21337     21338     21336     21334     21337     21339
     21336     21334     21337     21340     21338     21337     21340     21341
     21338     21337     21340     21342     21338     21337     21340     21343
     21339     21337     21340     21341     21339     21337     21340     21342
     21339     21337     21340     21343     21344     21346     21349     21350
     21344     21346     21349     21351     21344     21346     21349     21353
     21345     21344     21346     21347     21345     21344     21346     21348
     21345     21344     21346     21349     21346     21349     21351     21352
     21346     21349     21353     21354     21346     21349     21353     21355
     21346     21349     21353     21356     21347     21346     21349     21350
     21347     21346     21349     21351     21347     21346     21349     21353
     21348     21346     21349     21350     21348     21346     21349     21351
     21348     21346     21349     21353     21349     21353     21356     21357
     21349     21353     21356     21358     21349     21353     21356     21359
     21350     21349     21351     21352     21350     21349     21353     21354
     21350     21349     21353     21355     21350     21349     21353     21356
     21351     21349     21353     21354     21351     21349     21353     21355
     21351     21349     21353     21356     21352     21351     21349     21353
     21353     21356     21359     21360     21353     21356     21359     21361
     21353     21356     21359     21362     21354     21353     21356     21357
     21354     21353     21356     21358     21354     21353     21356     21359
     21355     21353     21356     21357     21355     21353     21356     21358
     21355     21353     21356     21359     21356     21359     21362     21363
     21356     21359     21362     21364     21356     21359     21362     21365
     21357     21356     21359     21360     21357     21356     21359     21361
     21357     21356     21359     21362     21358     21356     21359     21360
     21358     21356     21359     21361     21358     21356     21359     21362
     21359     21362     21365     21366     21359     21362     21365     21367
     21359     21362     21365     21368     21360     21359     21362     21363
     21360     21359     21362     21364     21360     21359     21362     21365
     21361     21359     21362     21363     21361     21359     21362     21364
     21361     21359     21362     21365     21362     21365     21368     21369
     21362     21365     21368     21370     21362     21365     21368     21371
     21363     21362     21365     21366     21363     21362     21365     21367
     21363     21362     21365     21368     21364     21362     21365     21366
     21364     21362     21365     21367     21364     21362     21365     21368
     21365     21368     21371     21372     21365     21368     21371     21373
     21365     21368     21371     21374     21366     21365     21368     21369
     21366     21365     21368     21370     21366     21365     21368     21371
     21367     21365     21368     21369     21367     21365     21368     21370
     21367     21365     21368     21371     21368     21371     21374     21375
     21368     21371     21374     21376     21368     21371     21374     21377
     21369     21368     21371     21372     21369     21368     21371     21373
     21369     21368     21371     21374     21370     21368     21371     21372
     21370     21368     21371     21373     21370     21368     21371     21374
     21371     21374     21377     21378     21371     21374     21377     21379
     21371     21374     21377     21380     21372     21371     21374     21375
     21372     21371     21374     21376     21372     21371     21374     21377
     21373     21371     21374     21375     21373     21371     21374     21376
     21373     21371     21374     21377     21374     21377     21380     21381
     21374     21377     21380     21382     21374     21377     21380     21383
     21375     21374     21377     21378     21375     21374     21377     21379
     21375     21374     21377     21380     21376     21374     21377     21378
     21376     21374     21377     21379     21376     21374     21377     21380
     21377     21380     21383     21384     21377     21380     21383     21385
     21377     21380     21383     21386     21378     21377     21380     21381
     21378     21377     21380     21382     21378     21377     21380     21383
     21379     21377     21380     21381     21379     21377     21380     21382
     21379     21377     21380     21383     21381     21380     21383     21384
     21381     21380     21383     21385     21381     21380     21383     21386
     21382     21380     21383     21384     21382     21380     21383     21385
     21382     21380     21383     21386     21387     21390     21393     21391
     21387     21390     21394     21395     21387     21390     21394     21396
     21387     21390     21394     21397     21388     21387     21390     21393
     21388     21387     21390     21394     21389     21387     21390     21393
     21389     21387     21390     21394     21390     21393     21391     21392
     21390     21393     21391     21400     21390     21393     21391     21403
     21390     21394     21397     21398     21390     21394     21397     21399
     21390     21394     21397     21400     21391     21393     21390     21394
     21391     21400     21397     21394     21391     21400     21397     21398
     21391     21400     21397     21399     21391     21400     21402     21439
     21391     21403     21405     21406     21391     21403     21407     21408
     21391     21403     21407     21409     21391     21403     21407     21410
     21392     21391     21400     21397     21392     21391     21400     21401
     21392     21391     21400     21402     21392     21391     21403     21404
     21392     21391     21403     21405     21392     21391     21403     21407
     21393     21390     21394     21395     21393     21390     21394     21396
     21393     21390     21394     21397     21393     21391     21400     21397
     21393     21391     21400     21401     21393     21391     21400     21402
     21393     21391     21403     21404     21393     21391     21403     21405
     21393     21391     21403     21407     21394     21397     21399     21415
     21394     21397     21400     21401     21394     21397     21400     21402
     21395     21394     21397     21398     21395     21394     21397     21399
     21395     21394     21397     21400     21396     21394     21397     21398
     21396     21394     21397     21399     21396     21394     21397     21400
     21397     21399     21415     21412     21397     21399     21415     21418
     21397     21399     21415     21419     21397     21400     21391     21403
     21397     21400     21402     21439     21398     21397     21399     21415
     21398     21397     21400     21401     21398     21397     21400     21402
     21399     21397     21400     21401     21399     21397     21400     21402
     21399     21415     21412     21413     21399     21415     21412     21414
     21399     21415     21418     21416     21399     21415     21419     21420
     21399     21415     21419     21421     21399     21415     21419     21422
     21400     21391     21403     21404     21400     21391     21403     21405
     21400     21391     21403     21407     21400     21397     21399     21415
     21400     21402     21439     21440     21400     21402     21439     21443
     21400     21402     21439     21444     21401     21400     21391     21403
     21401     21400     21402     21439     21402     21400     21391     21403
     21402     21439     21443     21441     21402     21439     21444     21445
     21402     21439     21444     21446     21402     21439     21444     21448
     21403     21407     21410     21411     21404     21403     21405     21406
     21404     21403     21407     21408     21404     21403     21407     21409
     21404     21403     21407     21410     21405     21403     21407     21408
     21405     21403     21407     21409     21405     21403     21407     21410
     21406     21405     21403     21407     21408     21407     21410     21411
     21409     21407     21410     21411     21412     21415     21418     21416
     21412     21415     21419     21420     21412     21415     21419     21421
     21412     21415     21419     21422     21413     21412     21415     21418
     21413     21412     21415     21419     21414     21412     21415     21418
     21414     21412     21415     21419     21415     21418     21416     21417
     21415     21418     21416     21426     21415     21418     21416     21430
     21415     21419     21422     21423     21415     21419     21422     21424
     21415     21419     21422     21426     21416     21418     21415     21419
     21416     21426     21422     21419     21416     21426     21422     21423
     21416     21426     21422     21424     21416     21426     21428     21429
     21416     21430     21432     21433     21416     21430     21434     21435
     21416     21430     21434     21436     21416     21430     21434     21437
     21417     21416     21426     21422     21417     21416     21426     21427
     21417     21416     21426     21428     21417     21416     21430     21431
     21417     21416     21430     21432     21417     21416     21430     21434
     21418     21415     21419     21420     21418     21415     21419     21421
     21418     21415     21419     21422     21418     21416     21426     21422
     21418     21416     21426     21427     21418     21416     21426     21428
     21418     21416     21430     21431     21418     21416     21430     21432
     21418     21416     21430     21434     21419     21422     21424     21425
     21419     21422     21426     21427     21419     21422     21426     21428
     21420     21419     21422     21423     21420     21419     21422     21424
     21420     21419     21422     21426     21421     21419     21422     21423
     21421     21419     21422     21424     21421     21419     21422     21426
     21422     21426     21416     21430     21422     21426     21428     21429
     21423     21422     21424     21425     21423     21422     21426     21427
     21423     21422     21426     21428     21424     21422     21426     21427
     21424     21422     21426     21428     21425     21424     21422     21426
     21426     21416     21430     21431     21426     21416     21430     21432
     21426     21416     21430     21434     21427     21426     21416     21430
     21427     21426     21428     21429     21428     21426     21416     21430
     21430     21434     21437     21438     21431     21430     21432     21433
     21431     21430     21434     21435     21431     21430     21434     21436
     21431     21430     21434     21437     21432     21430     21434     21435
     21432     21430     21434     21436     21432     21430     21434     21437
     21433     21432     21430     21434     21435     21434     21437     21438
     21436     21434     21437     21438     21439     21443     21441     21442
     21439     21443     21441     21451     21439     21443     21441     21458
     21439     21444     21446     21447     21439     21444     21448     21449
     21439     21444     21448     21450     21439     21444     21448     21451
     21440     21439     21443     21441     21440     21439     21444     21445
     21440     21439     21444     21446     21440     21439     21444     21448
     21441     21443     21439     21444     21441     21451     21448     21444
     21441     21451     21448     21449     21441     21451     21448     21450
     21441     21451     21453     21454     21441     21458     21460     21461
     21441     21458     21462     21463     21441     21458     21462     21464
     21441     21458     21462     21465     21442     21441     21451     21448
     21442     21441     21451     21452     21442     21441     21451     21453
     21442     21441     21458     21459     21442     21441     21458     21460
     21442     21441     21458     21462     21443     21439     21444     21445
     21443     21439     21444     21446     21443     21439     21444     21448
     21443     21441     21451     21448     21443     21441     21451     21452
     21443     21441     21451     21453     21443     21441     21458     21459
     21443     21441     21458     21460     21443     21441     21458     21462
     21444     21448     21450     21467     21444     21448     21451     21452
     21444     21448     21451     21453     21445     21444     21446     21447
     21445     21444     21448     21449     21445     21444     21448     21450
     21445     21444     21448     21451     21446     21444     21448     21449
     21446     21444     21448     21450     21446     21444     21448     21451
     21447     21446     21444     21448     21448     21450     21467     21468
     21448     21450     21467     21471     21448     21450     21467     21472
     21448     21451     21441     21458     21448     21451     21453     21454
     21449     21448     21450     21467     21449     21448     21451     21452
     21449     21448     21451     21453     21450     21448     21451     21452
     21450     21448     21451     21453     21450     21467     21471     21469
     21450     21467     21472     21473     21450     21467     21472     21474
     21450     21467     21472     21476     21451     21441     21458     21459
     21451     21441     21458     21460     21451     21441     21458     21462
     21451     21448     21450     21467     21451     21453     21454     21455
     21451     21453     21454     21456     21451     21453     21454     21457
     21452     21451     21441     21458     21452     21451     21453     21454
     21453     21451     21441     21458     21458     21462     21465     21466
     21459     21458     21460     21461     21459     21458     21462     21463
     21459     21458     21462     21464     21459     21458     21462     21465
     21460     21458     21462     21463     21460     21458     21462     21464
     21460     21458     21462     21465     21461     21460     21458     21462
     21463     21462     21465     21466     21464     21462     21465     21466
     21467     21471     21469     21470     21467     21471     21469     21479
     21467     21471     21469     21486     21467     21472     21474     21475
     21467     21472     21476     21477     21467     21472     21476     21478
     21467     21472     21476     21479     21468     21467     21471     21469
     21468     21467     21472     21473     21468     21467     21472     21474
     21468     21467     21472     21476     21469     21471     21467     21472
     21469     21479     21476     21472     21469     21479     21476     21477
     21469     21479     21476     21478     21469     21479     21481     21482
     21469     21486     21488     21489     21469     21486     21490     21491
     21469     21486     21490     21492     21469     21486     21490     21493
     21470     21469     21479     21476     21470     21469     21479     21480
     21470     21469     21479     21481     21470     21469     21486     21487
     21470     21469     21486     21488     21470     21469     21486     21490
     21471     21467     21472     21473     21471     21467     21472     21474
     21471     21467     21472     21476     21471     21469     21479     21476
     21471     21469     21479     21480     21471     21469     21479     21481
     21471     21469     21486     21487     21471     21469     21486     21488
     21471     21469     21486     21490     21472     21476     21478     21520
     21472     21476     21479     21480     21472     21476     21479     21481
     21473     21472     21474     21475     21473     21472     21476     21477
     21473     21472     21476     21478     21473     21472     21476     21479
     21474     21472     21476     21477     21474     21472     21476     21478
     21474     21472     21476     21479     21475     21474     21472     21476
     21476     21478     21520     21521     21476     21478     21520     21524
     21476     21478     21520     21525     21476     21479     21469     21486
     21476     21479     21481     21482     21477     21476     21478     21520
     21477     21476     21479     21480     21477     21476     21479     21481
     21478     21476     21479     21480     21478     21476     21479     21481
     21478     21520     21524     21522     21478     21520     21525     21526
     21478     21520     21525     21527     21478     21520     21525     21529
     21479     21469     21486     21487     21479     21469     21486     21488
     21479     21469     21486     21490     21479     21476     21478     21520
     21479     21481     21482     21483     21479     21481     21482     21484
     21479     21481     21482     21485     21480     21479     21469     21486
     21480     21479     21481     21482     21481     21479     21469     21486
     21486     21490     21493     21494     21487     21486     21488     21489
     21487     21486     21490     21491     21487     21486     21490     21492
     21487     21486     21490     21493     21488     21486     21490     21491
     21488     21486     21490     21492     21488     21486     21490     21493
     21489     21488     21486     21490     21490     21493     21494     21495
     21490     21493     21494     21498     21490     21493     21494     21499
     21491     21490     21493     21494     21492     21490     21493     21494
     21493     21494     21498     21496     21493     21494     21499     21500
     21493     21494     21499     21501     21493     21494     21499     21503
     21494     21498     21496     21497     21494     21498     21496     21507
     21494     21498     21496     21511     21494     21499     21501     21502
     21494     21499     21503     21504     21494     21499     21503     21505
     21494     21499     21503     21507     21495     21494     21498     21496
     21495     21494     21499     21500     21495     21494     21499     21501
     21495     21494     21499     21503     21496     21498     21494     21499
     21496     21507     21503     21499     21496     21507     21503     21504
     21496     21507     21503     21505     21496     21507     21509     21510
     21496     21511     21513     21514     21496     21511     21515     21516
     21496     21511     21515     21517     21496     21511     21515     21518
     21497     21496     21507     21503     21497     21496     21507     21508
     21497     21496     21507     21509     21497     21496     21511     21512
     21497     21496     21511     21513     21497     21496     21511     21515
     21498     21494     21499     21500     21498     21494     21499     21501
     21498     21494     21499     21503     21498     21496     21507     21503
     21498     21496     21507     21508     21498     21496     21507     21509
     21498     21496     21511     21512     21498     21496     21511     21513
     21498     21496     21511     21515     21499     21503     21505     21506
     21499     21503     21507     21508     21499     21503     21507     21509
     21500     21499     21501     21502     21500     21499     21503     21504
     21500     21499     21503     21505     21500     21499     21503     21507
     21501     21499     21503     21504     21501     21499     21503     21505
     21501     21499     21503     21507     21502     21501     21499     21503
     21503     21507     21496     21511     21503     21507     21509     21510
     21504     21503     21505     21506     21504     21503     21507     21508
     21504     21503     21507     21509     21505     21503     21507     21508
     21505     21503     21507     21509     21506     21505     21503     21507
     21507     21496     21511     21512     21507     21496     21511     21513
     21507     21496     21511     21515     21508     21507     21496     21511
     21508     21507     21509     21510     21509     21507     21496     21511
     21511     21515     21518     21519     21512     21511     21513     21514
     21512     21511     21515     21516     21512     21511     21515     21517
     21512     21511     21515     21518     21513     21511     21515     21516
     21513     21511     21515     21517     21513     21511     21515     21518
     21514     21513     21511     21515     21516     21515     21518     21519
     21517     21515     21518     21519     21520     21524     21522     21523
     21520     21524     21522     21532     21520     21524     21522     21536
     21520     21525     21527     21528     21520     21525     21529     21530
     21520     21525     21529     21531     21520     21525     21529     21532
     21521     21520     21524     21522     21521     21520     21525     21526
     21521     21520     21525     21527     21521     21520     21525     21529
     21522     21524     21520     21525     21522     21532     21529     21525
     21522     21532     21529     21530     21522     21532     21529     21531
     21522     21532     21534     21535     21522     21536     21539     21540
     21523     21522     21532     21529     21523     21522     21532     21533
     21523     21522     21532     21534     21523     21522     21536     21537
     21523     21522     21536     21538     21523     21522     21536     21539
     21524     21520     21525     21526     21524     21520     21525     21527
     21524     21520     21525     21529     21524     21522     21532     21529
     21524     21522     21532     21533     21524     21522     21532     21534
     21524     21522     21536     21537     21524     21522     21536     21538
     21524     21522     21536     21539     21525     21529     21531     21541
     21525     21529     21532     21533     21525     21529     21532     21534
     21526     21525     21527     21528     21526     21525     21529     21530
     21526     21525     21529     21531     21526     21525     21529     21532
     21527     21525     21529     21530     21527     21525     21529     21531
     21527     21525     21529     21532     21528     21527     21525     21529
     21529     21531     21541     21542     21529     21531     21541     21545
     21529     21531     21541     21546     21529     21532     21522     21536
     21529     21532     21534     21535     21530     21529     21531     21541
     21530     21529     21532     21533     21530     21529     21532     21534
     21531     21529     21532     21533     21531     21529     21532     21534
     21531     21541     21545     21543     21531     21541     21546     21547
     21531     21541     21546     21548     21531     21541     21546     21549
     21532     21522     21536     21537     21532     21522     21536     21538
     21532     21522     21536     21539     21532     21529     21531     21541
     21533     21532     21522     21536     21533     21532     21534     21535
     21534     21532     21522     21536     21537     21536     21539     21540
     21538     21536     21539     21540     21541     21545     21543     21544
     21541     21545     21543     21552     21541     21545     21543     21556
     21541     21546     21548     21561     21541     21546     21549     21550
     21541     21546     21549     21551     21541     21546     21549     21552
     21542     21541     21545     21543     21542     21541     21546     21547
     21542     21541     21546     21548     21542     21541     21546     21549
     21543     21545     21541     21546     21543     21552     21549     21546
     21543     21552     21549     21550     21543     21552     21549     21551
     21543     21552     21554     21555     21543     21556     21559     21560
     21544     21543     21552     21549     21544     21543     21552     21553
     21544     21543     21552     21554     21544     21543     21556     21557
     21544     21543     21556     21558     21544     21543     21556     21559
     21545     21541     21546     21547     21545     21541     21546     21548
     21545     21541     21546     21549     21545     21543     21552     21549
     21545     21543     21552     21553     21545     21543     21552     21554
     21545     21543     21556     21557     21545     21543     21556     21558
     21545     21543     21556     21559     21546     21548     21561     21562
     21546     21548     21561     21565     21546     21548     21561     21566
     21546     21549     21551     21604     21546     21549     21552     21553
     21546     21549     21552     21554     21547     21546     21548     21561
     21547     21546     21549     21550     21547     21546     21549     21551
     21547     21546     21549     21552     21548     21546     21549     21550
     21548     21546     21549     21551     21548     21546     21549     21552
     21548     21561     21565     21563     21548     21561     21566     21567
     21548     21561     21566     21568     21548     21561     21566     21569
     21549     21546     21548     21561     21549     21551     21604     21605
     21549     21551     21604     21608     21549     21551     21604     21609
     21549     21552     21543     21556     21549     21552     21554     21555
     21550     21549     21551     21604     21550     21549     21552     21553
     21550     21549     21552     21554     21551     21549     21552     21553
     21551     21549     21552     21554     21551     21604     21608     21606
     21551     21604     21609     21610     21551     21604     21609     21611
     21551     21604     21609     21613     21552     21543     21556     21557
     21552     21543     21556     21558     21552     21543     21556     21559
     21552     21549     21551     21604     21553     21552     21543     21556
     21553     21552     21554     21555     21554     21552     21543     21556
     21557     21556     21559     21560     21558     21556     21559     21560
     21561     21565     21563     21564     21561     21565     21563     21573
     21561     21565     21563     21577     21561     21566     21568     21582
     21561     21566     21569     21570     21561     21566     21569     21571
     21561     21566     21569     21573     21562     21561     21565     21563
     21562     21561     21566     21567     21562     21561     21566     21568
     21562     21561     21566     21569     21563     21565     21561     21566
     21563     21573     21569     21566     21563     21573     21569     21570
     21563     21573     21569     21571     21563     21573     21575     21576
     21563     21577     21580     21581     21564     21563     21573     21569
     21564     21563     21573     21574     21564     21563     21573     21575
     21564     21563     21577     21578     21564     21563     21577     21579
     21564     21563     21577     21580     21565     21561     21566     21567
     21565     21561     21566     21568     21565     21561     21566     21569
     21565     21563     21573     21569     21565     21563     21573     21574
     21565     21563     21573     21575     21565     21563     21577     21578
     21565     21563     21577     21579     21565     21563     21577     21580
     21566     21568     21582     21583     21566     21568     21582     21586
     21566     21568     21582     21587     21566     21569     21571     21572
     21566     21569     21573     21574     21566     21569     21573     21575
     21567     21566     21568     21582     21567     21566     21569     21570
     21567     21566     21569     21571     21567     21566     21569     21573
     21568     21566     21569     21570     21568     21566     21569     21571
     21568     21566     21569     21573     21568     21582     21586     21584
     21568     21582     21587     21588     21568     21582     21587     21589
     21568     21582     21587     21591     21569     21566     21568     21582
     21569     21573     21563     21577     21569     21573     21575     21576
     21570     21569     21571     21572     21570     21569     21573     21574
     21570     21569     21573     21575     21571     21569     21573     21574
     21571     21569     21573     21575     21572     21571     21569     21573
     21573     21563     21577     21578     21573     21563     21577     21579
     21573     21563     21577     21580     21574     21573     21563     21577
     21574     21573     21575     21576     21575     21573     21563     21577
     21578     21577     21580     21581     21579     21577     21580     21581
     21582     21586     21584     21585     21582     21586     21584     21595
     21582     21586     21584     21599     21582     21587     21589     21590
     21582     21587     21591     21592     21582     21587     21591     21593
     21582     21587     21591     21595     21583     21582     21586     21584
     21583     21582     21587     21588     21583     21582     21587     21589
     21583     21582     21587     21591     21584     21586     21582     21587
     21584     21595     21591     21587     21584     21595     21591     21592
     21584     21595     21591     21593     21584     21595     21597     21598
     21584     21599     21602     21603     21585     21584     21595     21591
     21585     21584     21595     21596     21585     21584     21595     21597
     21585     21584     21599     21600     21585     21584     21599     21601
     21585     21584     21599     21602     21586     21582     21587     21588
     21586     21582     21587     21589     21586     21582     21587     21591
     21586     21584     21595     21591     21586     21584     21595     21596
     21586     21584     21595     21597     21586     21584     21599     21600
     21586     21584     21599     21601     21586     21584     21599     21602
     21587     21591     21593     21594     21587     21591     21595     21596
     21587     21591     21595     21597     21588     21587     21589     21590
     21588     21587     21591     21592     21588     21587     21591     21593
     21588     21587     21591     21595     21589     21587     21591     21592
     21589     21587     21591     21593     21589     21587     21591     21595
     21590     21589     21587     21591     21591     21595     21584     21599
     21591     21595     21597     21598     21592     21591     21593     21594
     21592     21591     21595     21596     21592     21591     21595     21597
     21593     21591     21595     21596     21593     21591     21595     21597
     21594     21593     21591     21595     21595     21584     21599     21600
     21595     21584     21599     21601     21595     21584     21599     21602
     21596     21595     21584     21599     21596     21595     21597     21598
     21597     21595     21584     21599     21600     21599     21602     21603
     21601     21599     21602     21603     21604     21608     21606     21607
     21604     21608     21606     21616     21604     21608     21606     21620
     21604     21609     21611     21612     21604     21609     21613     21614
     21604     21609     21613     21615     21604     21609     21613     21616
     21605     21604     21608     21606     21605     21604     21609     21610
     21605     21604     21609     21611     21605     21604     21609     21613
     21606     21608     21604     21609     21606     21616     21613     21609
     21606     21616     21613     21614     21606     21616     21613     21615
     21606     21616     21618     21619     21606     21620     21623     21624
     21607     21606     21616     21613     21607     21606     21616     21617
     21607     21606     21616     21618     21607     21606     21620     21621
     21607     21606     21620     21622     21607     21606     21620     21623
     21608     21604     21609     21610     21608     21604     21609     21611
     21608     21604     21609     21613     21608     21606     21616     21613
     21608     21606     21616     21617     21608     21606     21616     21618
     21608     21606     21620     21621     21608     21606     21620     21622
     21608     21606     21620     21623     21609     21613     21615     21625
     21609     21613     21616     21617     21609     21613     21616     21618
     21610     21609     21611     21612     21610     21609     21613     21614
     21610     21609     21613     21615     21610     21609     21613     21616
     21611     21609     21613     21614     21611     21609     21613     21615
     21611     21609     21613     21616     21612     21611     21609     21613
     21613     21615     21625     21626     21613     21615     21625     21629
     21613     21615     21625     21630     21613     21616     21606     21620
     21613     21616     21618     21619     21614     21613     21615     21625
     21614     21613     21616     21617     21614     21613     21616     21618
     21615     21613     21616     21617     21615     21613     21616     21618
     21615     21625     21629     21627     21615     21625     21630     21631
     21615     21625     21630     21632     21615     21625     21630     21640
     21616     21606     21620     21621     21616     21606     21620     21622
     21616     21606     21620     21623     21616     21613     21615     21625
     21617     21616     21606     21620     21617     21616     21618     21619
     21618     21616     21606     21620     21621     21620     21623     21624
     21622     21620     21623     21624     21625     21629     21627     21628
     21625     21629     21627     21643     21625     21629     21627     21647
     21625     21630     21632     21633     21625     21630     21632     21634
     21625     21630     21640     21641     21625     21630     21640     21642
     21625     21630     21640     21643     21626     21625     21629     21627
     21626     21625     21630     21631     21626     21625     21630     21632
     21626     21625     21630     21640     21627     21629     21625     21630
     21627     21643     21640     21630     21627     21643     21640     21641
     21627     21643     21640     21642     21627     21643     21645     21646
     21627     21647     21650     21651     21628     21627     21643     21640
     21628     21627     21643     21644     21628     21627     21643     21645
     21628     21627     21647     21648     21628     21627     21647     21649
     21628     21627     21647     21650     21629     21625     21630     21631
     21629     21625     21630     21632     21629     21625     21630     21640
     21629     21627     21643     21640     21629     21627     21643     21644
     21629     21627     21643     21645     21629     21627     21647     21648
     21629     21627     21647     21649     21629     21627     21647     21650
     21630     21632     21634     21635     21630     21632     21634     21636
     21630     21640     21642     21652     21630     21640     21643     21644
     21630     21640     21643     21645     21631     21630     21632     21633
     21631     21630     21632     21634     21631     21630     21640     21641
     21631     21630     21640     21642     21631     21630     21640     21643
     21632     21630     21640     21641     21632     21630     21640     21642
     21632     21630     21640     21643     21632     21634     21636     21637
     21632     21634     21636     21638     21632     21634     21636     21639
     21633     21632     21630     21640     21633     21632     21634     21635
     21633     21632     21634     21636     21634     21632     21630     21640
     21635     21634     21636     21637     21635     21634     21636     21638
     21635     21634     21636     21639     21640     21642     21652     21653
     21640     21642     21652     21656     21640     21642     21652     21657
     21640     21643     21627     21647     21640     21643     21645     21646
     21641     21640     21642     21652     21641     21640     21643     21644
     21641     21640     21643     21645     21642     21640     21643     21644
     21642     21640     21643     21645     21642     21652     21656     21654
     21642     21652     21657     21658     21642     21652     21657     21659
     21642     21652     21657     21660     21643     21627     21647     21648
     21643     21627     21647     21649     21643     21627     21647     21650
     21643     21640     21642     21652     21644     21643     21627     21647
     21644     21643     21645     21646     21645     21643     21627     21647
     21648     21647     21650     21651     21649     21647     21650     21651
     21652     21656     21654     21655     21652     21656     21654     21664
     21652     21656     21654     21668     21652     21657     21659     21673
     21652     21657     21660     21661     21652     21657     21660     21662
     21652     21657     21660     21664     21653     21652     21656     21654
     21653     21652     21657     21658     21653     21652     21657     21659
     21653     21652     21657     21660     21654     21656     21652     21657
     21654     21664     21660     21657     21654     21664     21660     21661
     21654     21664     21660     21662     21654     21664     21666     21667
     21654     21668     21671     21672     21655     21654     21664     21660
     21655     21654     21664     21665     21655     21654     21664     21666
     21655     21654     21668     21669     21655     21654     21668     21670
     21655     21654     21668     21671     21656     21652     21657     21658
     21656     21652     21657     21659     21656     21652     21657     21660
     21656     21654     21664     21660     21656     21654     21664     21665
     21656     21654     21664     21666     21656     21654     21668     21669
     21656     21654     21668     21670     21656     21654     21668     21671
     21657     21659     21673     21674     21657     21659     21673     21677
     21657     21659     21673     21678     21657     21660     21662     21663
     21657     21660     21664     21665     21657     21660     21664     21666
     21658     21657     21659     21673     21658     21657     21660     21661
     21658     21657     21660     21662     21658     21657     21660     21664
     21659     21657     21660     21661     21659     21657     21660     21662
     21659     21657     21660     21664     21659     21673     21677     21675
     21659     21673     21678     21679     21659     21673     21678     21680
     21659     21673     21678     21681     21660     21657     21659     21673
     21660     21664     21654     21668     21660     21664     21666     21667
     21661     21660     21662     21663     21661     21660     21664     21665
     21661     21660     21664     21666     21662     21660     21664     21665
     21662     21660     21664     21666     21663     21662     21660     21664
     21664     21654     21668     21669     21664     21654     21668     21670
     21664     21654     21668     21671     21665     21664     21654     21668
     21665     21664     21666     21667     21666     21664     21654     21668
     21669     21668     21671     21672     21670     21668     21671     21672
     21673     21677     21675     21676     21673     21677     21675     21685
     21673     21677     21675     21689     21673     21678     21680     21693
     21673     21678     21681     21682     21673     21678     21681     21683
     21673     21678     21681     21685     21674     21673     21677     21675
     21674     21673     21678     21679     21674     21673     21678     21680
     21674     21673     21678     21681     21675     21677     21673     21678
     21675     21685     21681     21678     21675     21685     21681     21682
     21675     21685     21681     21683     21675     21685     21687     21688
     21676     21675     21685     21681     21676     21675     21685     21686
     21676     21675     21685     21687     21676     21675     21689     21690
     21676     21675     21689     21691     21676     21675     21689     21692
     21677     21673     21678     21679     21677     21673     21678     21680
     21677     21673     21678     21681     21677     21675     21685     21681
     21677     21675     21685     21686     21677     21675     21685     21687
     21677     21675     21689     21690     21677     21675     21689     21691
     21677     21675     21689     21692     21678     21680     21693     21694
     21678     21680     21693     21697     21678     21680     21693     21698
     21678     21681     21683     21684     21678     21681     21685     21686
     21678     21681     21685     21687     21679     21678     21680     21693
     21679     21678     21681     21682     21679     21678     21681     21683
     21679     21678     21681     21685     21680     21678     21681     21682
     21680     21678     21681     21683     21680     21678     21681     21685
     21680     21693     21697     21695     21680     21693     21698     21699
     21680     21693     21698     21700     21680     21693     21698     21701
     21681     21678     21680     21693     21681     21685     21675     21689
     21681     21685     21687     21688     21682     21681     21683     21684
     21682     21681     21685     21686     21682     21681     21685     21687
     21683     21681     21685     21686     21683     21681     21685     21687
     21684     21683     21681     21685     21685     21675     21689     21690
     21685     21675     21689     21691     21685     21675     21689     21692
     21686     21685     21675     21689     21686     21685     21687     21688
     21687     21685     21675     21689     21693     21697     21695     21696
     21693     21697     21695     21704     21693     21697     21695     21708
     21693     21698     21700     21712     21693     21698     21701     21702
     21693     21698     21701     21703     21693     21698     21701     21704
     21694     21693     21697     21695     21694     21693     21698     21699
     21694     21693     21698     21700     21694     21693     21698     21701
     21695     21697     21693     21698     21695     21704     21701     21698
     21695     21704     21701     21702     21695     21704     21701     21703
     21695     21704     21706     21707     21696     21695     21704     21701
     21696     21695     21704     21705     21696     21695     21704     21706
     21696     21695     21708     21709     21696     21695     21708     21710
     21696     21695     21708     21711     21697     21693     21698     21699
     21697     21693     21698     21700     21697     21693     21698     21701
     21697     21695     21704     21701     21697     21695     21704     21705
     21697     21695     21704     21706     21697     21695     21708     21709
     21697     21695     21708     21710     21697     21695     21708     21711
     21698     21700     21712     21713     21698     21700     21712     21716
     21698     21700     21712     21717     21698     21701     21703     21740
     21698     21701     21704     21705     21698     21701     21704     21706
     21699     21698     21700     21712     21699     21698     21701     21702
     21699     21698     21701     21703     21699     21698     21701     21704
     21700     21698     21701     21702     21700     21698     21701     21703
     21700     21698     21701     21704     21700     21712     21716     21714
     21700     21712     21717     21718     21700     21712     21717     21719
     21700     21712     21717     21727     21701     21698     21700     21712
     21701     21703     21740     21741     21701     21703     21740     21744
     21701     21703     21740     21745     21701     21704     21695     21708
     21701     21704     21706     21707     21702     21701     21703     21740
     21702     21701     21704     21705     21702     21701     21704     21706
     21703     21701     21704     21705     21703     21701     21704     21706
     21703     21740     21744     21742     21703     21740     21745     21746
     21703     21740     21745     21747     21703     21740     21745     21755
     21704     21695     21708     21709     21704     21695     21708     21710
     21704     21695     21708     21711     21704     21701     21703     21740
     21705     21704     21695     21708     21705     21704     21706     21707
     21706     21704     21695     21708     21712     21716     21714     21715
     21712     21716     21714     21731     21712     21716     21714     21735
     21712     21717     21719     21720     21712     21717     21719     21721
     21712     21717     21727     21728     21712     21717     21727     21729
     21712     21717     21727     21731     21713     21712     21716     21714
     21713     21712     21717     21718     21713     21712     21717     21719
     21713     21712     21717     21727     21714     21716     21712     21717
     21714     21731     21727     21717     21714     21731     21727     21728
     21714     21731     21727     21729     21714     21731     21733     21734
     21714     21735     21738     21739     21715     21714     21731     21727
     21715     21714     21731     21732     21715     21714     21731     21733
     21715     21714     21735     21736     21715     21714     21735     21737
     21715     21714     21735     21738     21716     21712     21717     21718
     21716     21712     21717     21719     21716     21712     21717     21727
     21716     21714     21731     21727     21716     21714     21731     21732
     21716     21714     21731     21733     21716     21714     21735     21736
     21716     21714     21735     21737     21716     21714     21735     21738
     21717     21719     21721     21722     21717     21719     21721     21723
     21717     21727     21729     21730     21717     21727     21731     21732
     21717     21727     21731     21733     21718     21717     21719     21720
     21718     21717     21719     21721     21718     21717     21727     21728
     21718     21717     21727     21729     21718     21717     21727     21731
     21719     21717     21727     21728     21719     21717     21727     21729
     21719     21717     21727     21731     21719     21721     21723     21724
     21719     21721     21723     21725     21719     21721     21723     21726
     21720     21719     21717     21727     21720     21719     21721     21722
     21720     21719     21721     21723     21721     21719     21717     21727
     21722     21721     21723     21724     21722     21721     21723     21725
     21722     21721     21723     21726     21727     21731     21714     21735
     21727     21731     21733     21734     21728     21727     21729     21730
     21728     21727     21731     21732     21728     21727     21731     21733
     21729     21727     21731     21732     21729     21727     21731     21733
     21730     21729     21727     21731     21731     21714     21735     21736
     21731     21714     21735     21737     21731     21714     21735     21738
     21732     21731     21714     21735     21732     21731     21733     21734
     21733     21731     21714     21735     21736     21735     21738     21739
     21737     21735     21738     21739     21740     21744     21742     21743
     21740     21744     21742     21758     21740     21744     21742     21762
     21740     21745     21747     21748     21740     21745     21747     21749
     21740     21745     21755     21756     21740     21745     21755     21757
     21740     21745     21755     21758     21741     21740     21744     21742
     21741     21740     21745     21746     21741     21740     21745     21747
     21741     21740     21745     21755     21742     21744     21740     21745
     21742     21758     21755     21745     21742     21758     21755     21756
     21742     21758     21755     21757     21742     21758     21760     21761
     21742     21762     21765     21766     21743     21742     21758     21755
     21743     21742     21758     21759     21743     21742     21758     21760
     21743     21742     21762     21763     21743     21742     21762     21764
     21743     21742     21762     21765     21744     21740     21745     21746
     21744     21740     21745     21747     21744     21740     21745     21755
     21744     21742     21758     21755     21744     21742     21758     21759
     21744     21742     21758     21760     21744     21742     21762     21763
     21744     21742     21762     21764     21744     21742     21762     21765
     21745     21747     21749     21750     21745     21747     21749     21751
     21745     21755     21757     21767     21745     21755     21758     21759
     21745     21755     21758     21760     21746     21745     21747     21748
     21746     21745     21747     21749     21746     21745     21755     21756
     21746     21745     21755     21757     21746     21745     21755     21758
     21747     21745     21755     21756     21747     21745     21755     21757
     21747     21745     21755     21758     21747     21749     21751     21752
     21747     21749     21751     21753     21747     21749     21751     21754
     21748     21747     21745     21755     21748     21747     21749     21750
     21748     21747     21749     21751     21749     21747     21745     21755
     21750     21749     21751     21752     21750     21749     21751     21753
     21750     21749     21751     21754     21755     21757     21767     21768
     21755     21757     21767     21771     21755     21757     21767     21772
     21755     21758     21742     21762     21755     21758     21760     21761
     21756     21755     21757     21767     21756     21755     21758     21759
     21756     21755     21758     21760     21757     21755     21758     21759
     21757     21755     21758     21760     21757     21767     21771     21769
     21757     21767     21772     21773     21757     21767     21772     21774
     21757     21767     21772     21775     21758     21742     21762     21763
     21758     21742     21762     21764     21758     21742     21762     21765
     21758     21755     21757     21767     21759     21758     21742     21762
     21759     21758     21760     21761     21760     21758     21742     21762
     21763     21762     21765     21766     21764     21762     21765     21766
     21767     21771     21769     21770     21767     21771     21769     21779
     21767     21771     21769     21783     21767     21772     21774     21788
     21767     21772     21775     21776     21767     21772     21775     21777
     21767     21772     21775     21779     21768     21767     21771     21769
     21768     21767     21772     21773     21768     21767     21772     21774
     21768     21767     21772     21775     21769     21771     21767     21772
     21769     21779     21775     21772     21769     21779     21775     21776
     21769     21779     21775     21777     21769     21779     21781     21782
     21769     21783     21786     21787     21770     21769     21779     21775
     21770     21769     21779     21780     21770     21769     21779     21781
     21770     21769     21783     21784     21770     21769     21783     21785
     21770     21769     21783     21786     21771     21767     21772     21773
     21771     21767     21772     21774     21771     21767     21772     21775
     21771     21769     21779     21775     21771     21769     21779     21780
     21771     21769     21779     21781     21771     21769     21783     21784
     21771     21769     21783     21785     21771     21769     21783     21786
     21772     21774     21788     21789     21772     21774     21788     21792
     21772     21774     21788     21793     21772     21775     21777     21778
     21772     21775     21779     21780     21772     21775     21779     21781
     21773     21772     21774     21788     21773     21772     21775     21776
     21773     21772     21775     21777     21773     21772     21775     21779
     21774     21772     21775     21776     21774     21772     21775     21777
     21774     21772     21775     21779     21774     21788     21792     21790
     21774     21788     21793     21794     21774     21788     21793     21795
     21774     21788     21793     21796     21775     21772     21774     21788
     21775     21779     21769     21783     21775     21779     21781     21782
     21776     21775     21777     21778     21776     21775     21779     21780
     21776     21775     21779     21781     21777     21775     21779     21780
     21777     21775     21779     21781     21778     21777     21775     21779
     21779     21769     21783     21784     21779     21769     21783     21785
     21779     21769     21783     21786     21780     21779     21769     21783
     21780     21779     21781     21782     21781     21779     21769     21783
     21784     21783     21786     21787     21785     21783     21786     21787
     21788     21792     21790     21791     21788     21792     21790     21800
     21788     21792     21790     21804     21788     21793     21795     21808
     21788     21793     21796     21797     21788     21793     21796     21798
     21788     21793     21796     21800     21789     21788     21792     21790
     21789     21788     21793     21794     21789     21788     21793     21795
     21789     21788     21793     21796     21790     21792     21788     21793
     21790     21800     21796     21793     21790     21800     21796     21797
     21790     21800     21796     21798     21790     21800     21802     21803
     21791     21790     21800     21796     21791     21790     21800     21801
     21791     21790     21800     21802     21791     21790     21804     21805
     21791     21790     21804     21806     21791     21790     21804     21807
     21792     21788     21793     21794     21792     21788     21793     21795
     21792     21788     21793     21796     21792     21790     21800     21796
     21792     21790     21800     21801     21792     21790     21800     21802
     21792     21790     21804     21805     21792     21790     21804     21806
     21792     21790     21804     21807     21793     21795     21808     21809
     21793     21795     21808     21812     21793     21795     21808     21813
     21793     21796     21798     21799     21793     21796     21800     21801
     21793     21796     21800     21802     21794     21793     21795     21808
     21794     21793     21796     21797     21794     21793     21796     21798
     21794     21793     21796     21800     21795     21793     21796     21797
     21795     21793     21796     21798     21795     21793     21796     21800
     21795     21808     21812     21810     21795     21808     21813     21814
     21795     21808     21813     21815     21795     21808     21813     21816
     21796     21793     21795     21808     21796     21800     21790     21804
     21796     21800     21802     21803     21797     21796     21798     21799
     21797     21796     21800     21801     21797     21796     21800     21802
     21798     21796     21800     21801     21798     21796     21800     21802
     21799     21798     21796     21800     21800     21790     21804     21805
     21800     21790     21804     21806     21800     21790     21804     21807
     21801     21800     21790     21804     21801     21800     21802     21803
     21802     21800     21790     21804     21808     21812     21810     21811
     21808     21812     21810     21819     21808     21812     21810     21823
     21808     21813     21815     21827     21808     21813     21816     21817
     21808     21813     21816     21818     21808     21813     21816     21819
     21809     21808     21812     21810     21809     21808     21813     21814
     21809     21808     21813     21815     21809     21808     21813     21816
     21810     21812     21808     21813     21810     21819     21816     21813
     21810     21819     21816     21817     21810     21819     21816     21818
     21810     21819     21821     21822     21811     21810     21819     21816
     21811     21810     21819     21820     21811     21810     21819     21821
     21811     21810     21823     21824     21811     21810     21823     21825
     21811     21810     21823     21826     21812     21808     21813     21814
     21812     21808     21813     21815     21812     21808     21813     21816
     21812     21810     21819     21816     21812     21810     21819     21820
     21812     21810     21819     21821     21812     21810     21823     21824
     21812     21810     21823     21825     21812     21810     21823     21826
     21813     21815     21827     21828     21813     21815     21827     21831
     21813     21815     21827     21832     21813     21816     21818     21855
     21813     21816     21819     21820     21813     21816     21819     21821
     21814     21813     21815     21827     21814     21813     21816     21817
     21814     21813     21816     21818     21814     21813     21816     21819
     21815     21813     21816     21817     21815     21813     21816     21818
     21815     21813     21816     21819     21815     21827     21831     21829
     21815     21827     21832     21833     21815     21827     21832     21834
     21815     21827     21832     21842     21816     21813     21815     21827
     21816     21818     21855     21856     21816     21818     21855     21859
     21816     21818     21855     21860     21816     21819     21810     21823
     21816     21819     21821     21822     21817     21816     21818     21855
     21817     21816     21819     21820     21817     21816     21819     21821
     21818     21816     21819     21820     21818     21816     21819     21821
     21818     21855     21859     21857     21818     21855     21860     21861
     21818     21855     21860     21862     21818     21855     21860     21870
     21819     21810     21823     21824     21819     21810     21823     21825
     21819     21810     21823     21826     21819     21816     21818     21855
     21820     21819     21810     21823     21820     21819     21821     21822
     21821     21819     21810     21823     21827     21831     21829     21830
     21827     21831     21829     21846     21827     21831     21829     21850
     21827     21832     21834     21835     21827     21832     21834     21836
     21827     21832     21842     21843     21827     21832     21842     21844
     21827     21832     21842     21846     21828     21827     21831     21829
     21828     21827     21832     21833     21828     21827     21832     21834
     21828     21827     21832     21842     21829     21831     21827     21832
     21829     21846     21842     21832     21829     21846     21842     21843
     21829     21846     21842     21844     21829     21846     21848     21849
     21829     21850     21853     21854     21830     21829     21846     21842
     21830     21829     21846     21847     21830     21829     21846     21848
     21830     21829     21850     21851     21830     21829     21850     21852
     21830     21829     21850     21853     21831     21827     21832     21833
     21831     21827     21832     21834     21831     21827     21832     21842
     21831     21829     21846     21842     21831     21829     21846     21847
     21831     21829     21846     21848     21831     21829     21850     21851
     21831     21829     21850     21852     21831     21829     21850     21853
     21832     21834     21836     21837     21832     21834     21836     21838
     21832     21842     21844     21845     21832     21842     21846     21847
     21832     21842     21846     21848     21833     21832     21834     21835
     21833     21832     21834     21836     21833     21832     21842     21843
     21833     21832     21842     21844     21833     21832     21842     21846
     21834     21832     21842     21843     21834     21832     21842     21844
     21834     21832     21842     21846     21834     21836     21838     21839
     21834     21836     21838     21840     21834     21836     21838     21841
     21835     21834     21832     21842     21835     21834     21836     21837
     21835     21834     21836     21838     21836     21834     21832     21842
     21837     21836     21838     21839     21837     21836     21838     21840
     21837     21836     21838     21841     21842     21846     21829     21850
     21842     21846     21848     21849     21843     21842     21844     21845
     21843     21842     21846     21847     21843     21842     21846     21848
     21844     21842     21846     21847     21844     21842     21846     21848
     21845     21844     21842     21846     21846     21829     21850     21851
     21846     21829     21850     21852     21846     21829     21850     21853
     21847     21846     21829     21850     21847     21846     21848     21849
     21848     21846     21829     21850     21851     21850     21853     21854
     21852     21850     21853     21854     21855     21859     21857     21858
     21855     21859     21857     21873     21855     21859     21857     21877
     21855     21860     21862     21863     21855     21860     21862     21864
     21855     21860     21870     21871     21855     21860     21870     21872
     21855     21860     21870     21873     21856     21855     21859     21857
     21856     21855     21860     21861     21856     21855     21860     21862
     21856     21855     21860     21870     21857     21859     21855     21860
     21857     21873     21870     21860     21857     21873     21870     21871
     21857     21873     21870     21872     21857     21873     21875     21876
     21857     21877     21880     21881     21858     21857     21873     21870
     21858     21857     21873     21874     21858     21857     21873     21875
     21858     21857     21877     21878     21858     21857     21877     21879
     21858     21857     21877     21880     21859     21855     21860     21861
     21859     21855     21860     21862     21859     21855     21860     21870
     21859     21857     21873     21870     21859     21857     21873     21874
     21859     21857     21873     21875     21859     21857     21877     21878
     21859     21857     21877     21879     21859     21857     21877     21880
     21860     21862     21864     21865     21860     21862     21864     21866
     21860     21870     21872     21882     21860     21870     21873     21874
     21860     21870     21873     21875     21861     21860     21862     21863
     21861     21860     21862     21864     21861     21860     21870     21871
     21861     21860     21870     21872     21861     21860     21870     21873
     21862     21860     21870     21871     21862     21860     21870     21872
     21862     21860     21870     21873     21862     21864     21866     21867
     21862     21864     21866     21868     21862     21864     21866     21869
     21863     21862     21860     21870     21863     21862     21864     21865
     21863     21862     21864     21866     21864     21862     21860     21870
     21865     21864     21866     21867     21865     21864     21866     21868
     21865     21864     21866     21869     21870     21872     21882     21883
     21870     21872     21882     21886     21870     21872     21882     21887
     21870     21873     21857     21877     21870     21873     21875     21876
     21871     21870     21872     21882     21871     21870     21873     21874
     21871     21870     21873     21875     21872     21870     21873     21874
     21872     21870     21873     21875     21872     21882     21886     21884
     21872     21882     21887     21888     21872     21882     21887     21889
     21872     21882     21887     21890     21873     21857     21877     21878
     21873     21857     21877     21879     21873     21857     21877     21880
     21873     21870     21872     21882     21874     21873     21857     21877
     21874     21873     21875     21876     21875     21873     21857     21877
     21878     21877     21880     21881     21879     21877     21880     21881
     21882     21886     21884     21885     21882     21886     21884     21894
     21882     21886     21884     21898     21882     21887     21889     21903
     21882     21887     21890     21891     21882     21887     21890     21892
     21882     21887     21890     21894     21883     21882     21886     21884
     21883     21882     21887     21888     21883     21882     21887     21889
     21883     21882     21887     21890     21884     21886     21882     21887
     21884     21894     21890     21887     21884     21894     21890     21891
     21884     21894     21890     21892     21884     21894     21896     21897
     21884     21898     21901     21902     21885     21884     21894     21890
     21885     21884     21894     21895     21885     21884     21894     21896
     21885     21884     21898     21899     21885     21884     21898     21900
     21885     21884     21898     21901     21886     21882     21887     21888
     21886     21882     21887     21889     21886     21882     21887     21890
     21886     21884     21894     21890     21886     21884     21894     21895
     21886     21884     21894     21896     21886     21884     21898     21899
     21886     21884     21898     21900     21886     21884     21898     21901
     21887     21889     21903     21904     21887     21889     21903     21907
     21887     21889     21903     21908     21887     21890     21892     21893
     21887     21890     21894     21895     21887     21890     21894     21896
     21888     21887     21889     21903     21888     21887     21890     21891
     21888     21887     21890     21892     21888     21887     21890     21894
     21889     21887     21890     21891     21889     21887     21890     21892
     21889     21887     21890     21894     21889     21903     21907     21905
     21889     21903     21908     21909     21889     21903     21908     21910
     21889     21903     21908     21911     21890     21887     21889     21903
     21890     21894     21884     21898     21890     21894     21896     21897
     21891     21890     21892     21893     21891     21890     21894     21895
     21891     21890     21894     21896     21892     21890     21894     21895
     21892     21890     21894     21896     21893     21892     21890     21894
     21894     21884     21898     21899     21894     21884     21898     21900
     21894     21884     21898     21901     21895     21894     21884     21898
     21895     21894     21896     21897     21896     21894     21884     21898
     21899     21898     21901     21902     21900     21898     21901     21902
     21903     21907     21905     21906     21903     21907     21905     21915
     21903     21907     21905     21919     21903     21908     21910     21923
     21903     21908     21911     21912     21903     21908     21911     21913
     21903     21908     21911     21915     21904     21903     21907     21905
     21904     21903     21908     21909     21904     21903     21908     21910
     21904     21903     21908     21911     21905     21907     21903     21908
     21905     21915     21911     21908     21905     21915     21911     21912
     21905     21915     21911     21913     21905     21915     21917     21918
     21906     21905     21915     21911     21906     21905     21915     21916
     21906     21905     21915     21917     21906     21905     21919     21920
     21906     21905     21919     21921     21906     21905     21919     21922
     21907     21903     21908     21909     21907     21903     21908     21910
     21907     21903     21908     21911     21907     21905     21915     21911
     21907     21905     21915     21916     21907     21905     21915     21917
     21907     21905     21919     21920     21907     21905     21919     21921
     21907     21905     21919     21922     21908     21910     21923     21924
     21908     21910     21923     21927     21908     21910     21923     21928
     21908     21911     21913     21914     21908     21911     21915     21916
     21908     21911     21915     21917     21909     21908     21910     21923
     21909     21908     21911     21912     21909     21908     21911     21913
     21909     21908     21911     21915     21910     21908     21911     21912
     21910     21908     21911     21913     21910     21908     21911     21915
     21910     21923     21927     21925     21910     21923     21928     21929
     21910     21923     21928     21930     21910     21923     21928     21931
     21911     21908     21910     21923     21911     21915     21905     21919
     21911     21915     21917     21918     21912     21911     21913     21914
     21912     21911     21915     21916     21912     21911     21915     21917
     21913     21911     21915     21916     21913     21911     21915     21917
     21914     21913     21911     21915     21915     21905     21919     21920
     21915     21905     21919     21921     21915     21905     21919     21922
     21916     21915     21905     21919     21916     21915     21917     21918
     21917     21915     21905     21919     21923     21927     21925     21926
     21923     21927     21925     21934     21923     21927     21925     21938
     21923     21928     21930     21942     21923     21928     21931     21932
     21923     21928     21931     21933     21923     21928     21931     21934
     21924     21923     21927     21925     21924     21923     21928     21929
     21924     21923     21928     21930     21924     21923     21928     21931
     21925     21927     21923     21928     21925     21934     21931     21928
     21925     21934     21931     21932     21925     21934     21931     21933
     21925     21934     21936     21937     21926     21925     21934     21931
     21926     21925     21934     21935     21926     21925     21934     21936
     21926     21925     21938     21939     21926     21925     21938     21940
     21926     21925     21938     21941     21927     21923     21928     21929
     21927     21923     21928     21930     21927     21923     21928     21931
     21927     21925     21934     21931     21927     21925     21934     21935
     21927     21925     21934     21936     21927     21925     21938     21939
     21927     21925     21938     21940     21927     21925     21938     21941
     21928     21930     21942     21943     21928     21930     21942     21946
     21928     21930     21942     21947     21928     21931     21933     21970
     21928     21931     21934     21935     21928     21931     21934     21936
     21929     21928     21930     21942     21929     21928     21931     21932
     21929     21928     21931     21933     21929     21928     21931     21934
     21930     21928     21931     21932     21930     21928     21931     21933
     21930     21928     21931     21934     21930     21942     21946     21944
     21930     21942     21947     21948     21930     21942     21947     21949
     21930     21942     21947     21957     21931     21928     21930     21942
     21931     21933     21970     21971     21931     21933     21970     21974
     21931     21933     21970     21975     21931     21934     21925     21938
     21931     21934     21936     21937     21932     21931     21933     21970
     21932     21931     21934     21935     21932     21931     21934     21936
     21933     21931     21934     21935     21933     21931     21934     21936
     21933     21970     21974     21972     21933     21970     21975     21976
     21933     21970     21975     21977     21933     21970     21975     21985
     21934     21925     21938     21939     21934     21925     21938     21940
     21934     21925     21938     21941     21934     21931     21933     21970
     21935     21934     21925     21938     21935     21934     21936     21937
     21936     21934     21925     21938     21942     21946     21944     21945
     21942     21946     21944     21961     21942     21946     21944     21965
     21942     21947     21949     21950     21942     21947     21949     21951
     21942     21947     21957     21958     21942     21947     21957     21959
     21942     21947     21957     21961     21943     21942     21946     21944
     21943     21942     21947     21948     21943     21942     21947     21949
     21943     21942     21947     21957     21944     21946     21942     21947
     21944     21961     21957     21947     21944     21961     21957     21958
     21944     21961     21957     21959     21944     21961     21963     21964
     21944     21965     21968     21969     21945     21944     21961     21957
     21945     21944     21961     21962     21945     21944     21961     21963
     21945     21944     21965     21966     21945     21944     21965     21967
     21945     21944     21965     21968     21946     21942     21947     21948
     21946     21942     21947     21949     21946     21942     21947     21957
     21946     21944     21961     21957     21946     21944     21961     21962
     21946     21944     21961     21963     21946     21944     21965     21966
     21946     21944     21965     21967     21946     21944     21965     21968
     21947     21949     21951     21952     21947     21949     21951     21953
     21947     21957     21959     21960     21947     21957     21961     21962
     21947     21957     21961     21963     21948     21947     21949     21950
     21948     21947     21949     21951     21948     21947     21957     21958
     21948     21947     21957     21959     21948     21947     21957     21961
     21949     21947     21957     21958     21949     21947     21957     21959
     21949     21947     21957     21961     21949     21951     21953     21954
     21949     21951     21953     21955     21949     21951     21953     21956
     21950     21949     21947     21957     21950     21949     21951     21952
     21950     21949     21951     21953     21951     21949     21947     21957
     21952     21951     21953     21954     21952     21951     21953     21955
     21952     21951     21953     21956     21957     21961     21944     21965
     21957     21961     21963     21964     21958     21957     21959     21960
     21958     21957     21961     21962     21958     21957     21961     21963
     21959     21957     21961     21962     21959     21957     21961     21963
     21960     21959     21957     21961     21961     21944     21965     21966
     21961     21944     21965     21967     21961     21944     21965     21968
     21962     21961     21944     21965     21962     21961     21963     21964
     21963     21961     21944     21965     21966     21965     21968     21969
     21967     21965     21968     21969     21970     21974     21972     21973
     21970     21974     21972     21988     21970     21974     21972     21992
     21970     21975     21977     21978     21970     21975     21977     21979
     21970     21975     21985     21986     21970     21975     21985     21987
     21970     21975     21985     21988     21971     21970     21974     21972
     21971     21970     21975     21976     21971     21970     21975     21977
     21971     21970     21975     21985     21972     21974     21970     21975
     21972     21988     21985     21975     21972     21988     21985     21986
     21972     21988     21985     21987     21972     21988     21990     21991
     21972     21992     21995     21996     21973     21972     21988     21985
     21973     21972     21988     21989     21973     21972     21988     21990
     21973     21972     21992     21993     21973     21972     21992     21994
     21973     21972     21992     21995     21974     21970     21975     21976
     21974     21970     21975     21977     21974     21970     21975     21985
     21974     21972     21988     21985     21974     21972     21988     21989
     21974     21972     21988     21990     21974     21972     21992     21993
     21974     21972     21992     21994     21974     21972     21992     21995
     21975     21977     21979     21980     21975     21977     21979     21981
     21975     21985     21987     21997     21975     21985     21988     21989
     21975     21985     21988     21990     21976     21975     21977     21978
     21976     21975     21977     21979     21976     21975     21985     21986
     21976     21975     21985     21987     21976     21975     21985     21988
     21977     21975     21985     21986     21977     21975     21985     21987
     21977     21975     21985     21988     21977     21979     21981     21982
     21977     21979     21981     21983     21977     21979     21981     21984
     21978     21977     21975     21985     21978     21977     21979     21980
     21978     21977     21979     21981     21979     21977     21975     21985
     21980     21979     21981     21982     21980     21979     21981     21983
     21980     21979     21981     21984     21985     21987     21997     21998
     21985     21987     21997     22001     21985     21987     21997     22002
     21985     21988     21972     21992     21985     21988     21990     21991
     21986     21985     21987     21997     21986     21985     21988     21989
     21986     21985     21988     21990     21987     21985     21988     21989
     21987     21985     21988     21990     21987     21997     22001     21999
     21987     21997     22002     22003     21987     21997     22002     22004
     21987     21997     22002     22005     21988     21972     21992     21993
     21988     21972     21992     21994     21988     21972     21992     21995
     21988     21985     21987     21997     21989     21988     21972     21992
     21989     21988     21990     21991     21990     21988     21972     21992
     21993     21992     21995     21996     21994     21992     21995     21996
     21997     22001     21999     22000     21997     22001     21999     22009
     21997     22001     21999     22013     21997     22002     22004     22018
     21997     22002     22005     22006     21997     22002     22005     22007
     21997     22002     22005     22009     21998     21997     22001     21999
     21998     21997     22002     22003     21998     21997     22002     22004
     21998     21997     22002     22005     21999     22001     21997     22002
     21999     22009     22005     22002     21999     22009     22005     22006
     21999     22009     22005     22007     21999     22009     22011     22012
     21999     22013     22016     22017     22000     21999     22009     22005
     22000     21999     22009     22010     22000     21999     22009     22011
     22000     21999     22013     22014     22000     21999     22013     22015
     22000     21999     22013     22016     22001     21997     22002     22003
     22001     21997     22002     22004     22001     21997     22002     22005
     22001     21999     22009     22005     22001     21999     22009     22010
     22001     21999     22009     22011     22001     21999     22013     22014
     22001     21999     22013     22015     22001     21999     22013     22016
     22002     22004     22018     22019     22002     22004     22018     22022
     22002     22004     22018     22023     22002     22005     22007     22008
     22002     22005     22009     22010     22002     22005     22009     22011
     22003     22002     22004     22018     22003     22002     22005     22006
     22003     22002     22005     22007     22003     22002     22005     22009
     22004     22002     22005     22006     22004     22002     22005     22007
     22004     22002     22005     22009     22004     22018     22022     22020
     22004     22018     22023     22024     22004     22018     22023     22025
     22004     22018     22023     22026     22005     22002     22004     22018
     22005     22009     21999     22013     22005     22009     22011     22012
     22006     22005     22007     22008     22006     22005     22009     22010
     22006     22005     22009     22011     22007     22005     22009     22010
     22007     22005     22009     22011     22008     22007     22005     22009
     22009     21999     22013     22014     22009     21999     22013     22015
     22009     21999     22013     22016     22010     22009     21999     22013
     22010     22009     22011     22012     22011     22009     21999     22013
     22014     22013     22016     22017     22015     22013     22016     22017
     22018     22022     22020     22021     22018     22022     22020     22030
     22018     22022     22020     22034     22018     22023     22025     22038
     22018     22023     22026     22027     22018     22023     22026     22028
     22018     22023     22026     22030     22019     22018     22022     22020
     22019     22018     22023     22024     22019     22018     22023     22025
     22019     22018     22023     22026     22020     22022     22018     22023
     22020     22030     22026     22023     22020     22030     22026     22027
     22020     22030     22026     22028     22020     22030     22032     22033
     22021     22020     22030     22026     22021     22020     22030     22031
     22021     22020     22030     22032     22021     22020     22034     22035
     22021     22020     22034     22036     22021     22020     22034     22037
     22022     22018     22023     22024     22022     22018     22023     22025
     22022     22018     22023     22026     22022     22020     22030     22026
     22022     22020     22030     22031     22022     22020     22030     22032
     22022     22020     22034     22035     22022     22020     22034     22036
     22022     22020     22034     22037     22023     22025     22038     22039
     22023     22025     22038     22042     22023     22025     22038     22043
     22023     22026     22028     22029     22023     22026     22030     22031
     22023     22026     22030     22032     22024     22023     22025     22038
     22024     22023     22026     22027     22024     22023     22026     22028
     22024     22023     22026     22030     22025     22023     22026     22027
     22025     22023     22026     22028     22025     22023     22026     22030
     22025     22038     22042     22040     22025     22038     22043     22044
     22025     22038     22043     22045     22025     22038     22043     22046
     22026     22023     22025     22038     22026     22030     22020     22034
     22026     22030     22032     22033     22027     22026     22028     22029
     22027     22026     22030     22031     22027     22026     22030     22032
     22028     22026     22030     22031     22028     22026     22030     22032
     22029     22028     22026     22030     22030     22020     22034     22035
     22030     22020     22034     22036     22030     22020     22034     22037
     22031     22030     22020     22034     22031     22030     22032     22033
     22032     22030     22020     22034     22038     22042     22040     22041
     22038     22042     22040     22049     22038     22042     22040     22053
     22038     22043     22045     22057     22038     22043     22046     22047
     22038     22043     22046     22048     22038     22043     22046     22049
     22039     22038     22042     22040     22039     22038     22043     22044
     22039     22038     22043     22045     22039     22038     22043     22046
     22040     22042     22038     22043     22040     22049     22046     22043
     22040     22049     22046     22047     22040     22049     22046     22048
     22040     22049     22051     22052     22041     22040     22049     22046
     22041     22040     22049     22050     22041     22040     22049     22051
     22041     22040     22053     22054     22041     22040     22053     22055
     22041     22040     22053     22056     22042     22038     22043     22044
     22042     22038     22043     22045     22042     22038     22043     22046
     22042     22040     22049     22046     22042     22040     22049     22050
     22042     22040     22049     22051     22042     22040     22053     22054
     22042     22040     22053     22055     22042     22040     22053     22056
     22043     22045     22057     22058     22043     22045     22057     22061
     22043     22045     22057     22062     22043     22046     22048     22085
     22043     22046     22049     22050     22043     22046     22049     22051
     22044     22043     22045     22057     22044     22043     22046     22047
     22044     22043     22046     22048     22044     22043     22046     22049
     22045     22043     22046     22047     22045     22043     22046     22048
     22045     22043     22046     22049     22045     22057     22061     22059
     22045     22057     22062     22063     22045     22057     22062     22064
     22045     22057     22062     22072     22046     22043     22045     22057
     22046     22048     22085     22086     22046     22048     22085     22089
     22046     22048     22085     22090     22046     22049     22040     22053
     22046     22049     22051     22052     22047     22046     22048     22085
     22047     22046     22049     22050     22047     22046     22049     22051
     22048     22046     22049     22050     22048     22046     22049     22051
     22048     22085     22089     22087     22048     22085     22090     22091
     22048     22085     22090     22092     22048     22085     22090     22100
     22049     22040     22053     22054     22049     22040     22053     22055
     22049     22040     22053     22056     22049     22046     22048     22085
     22050     22049     22040     22053     22050     22049     22051     22052
     22051     22049     22040     22053     22057     22061     22059     22060
     22057     22061     22059     22076     22057     22061     22059     22080
     22057     22062     22064     22065     22057     22062     22064     22066
     22057     22062     22072     22073     22057     22062     22072     22074
     22057     22062     22072     22076     22058     22057     22061     22059
     22058     22057     22062     22063     22058     22057     22062     22064
     22058     22057     22062     22072     22059     22061     22057     22062
     22059     22076     22072     22062     22059     22076     22072     22073
     22059     22076     22072     22074     22059     22076     22078     22079
     22059     22080     22083     22084     22060     22059     22076     22072
     22060     22059     22076     22077     22060     22059     22076     22078
     22060     22059     22080     22081     22060     22059     22080     22082
     22060     22059     22080     22083     22061     22057     22062     22063
     22061     22057     22062     22064     22061     22057     22062     22072
     22061     22059     22076     22072     22061     22059     22076     22077
     22061     22059     22076     22078     22061     22059     22080     22081
     22061     22059     22080     22082     22061     22059     22080     22083
     22062     22064     22066     22067     22062     22064     22066     22068
     22062     22072     22074     22075     22062     22072     22076     22077
     22062     22072     22076     22078     22063     22062     22064     22065
     22063     22062     22064     22066     22063     22062     22072     22073
     22063     22062     22072     22074     22063     22062     22072     22076
     22064     22062     22072     22073     22064     22062     22072     22074
     22064     22062     22072     22076     22064     22066     22068     22069
     22064     22066     22068     22070     22064     22066     22068     22071
     22065     22064     22062     22072     22065     22064     22066     22067
     22065     22064     22066     22068     22066     22064     22062     22072
     22067     22066     22068     22069     22067     22066     22068     22070
     22067     22066     22068     22071     22072     22076     22059     22080
     22072     22076     22078     22079     22073     22072     22074     22075
     22073     22072     22076     22077     22073     22072     22076     22078
     22074     22072     22076     22077     22074     22072     22076     22078
     22075     22074     22072     22076     22076     22059     22080     22081
     22076     22059     22080     22082     22076     22059     22080     22083
     22077     22076     22059     22080     22077     22076     22078     22079
     22078     22076     22059     22080     22081     22080     22083     22084
     22082     22080     22083     22084     22085     22089     22087     22088
     22085     22089     22087     22103     22085     22089     22087     22107
     22085     22090     22092     22093     22085     22090     22092     22094
     22085     22090     22100     22101     22085     22090     22100     22102
     22085     22090     22100     22103     22086     22085     22089     22087
     22086     22085     22090     22091     22086     22085     22090     22092
     22086     22085     22090     22100     22087     22089     22085     22090
     22087     22103     22100     22090     22087     22103     22100     22101
     22087     22103     22100     22102     22087     22103     22105     22106
     22087     22107     22110     22111     22088     22087     22103     22100
     22088     22087     22103     22104     22088     22087     22103     22105
     22088     22087     22107     22108     22088     22087     22107     22109
     22088     22087     22107     22110     22089     22085     22090     22091
     22089     22085     22090     22092     22089     22085     22090     22100
     22089     22087     22103     22100     22089     22087     22103     22104
     22089     22087     22103     22105     22089     22087     22107     22108
     22089     22087     22107     22109     22089     22087     22107     22110
     22090     22092     22094     22095     22090     22092     22094     22096
     22090     22100     22102     22112     22090     22100     22103     22104
     22090     22100     22103     22105     22091     22090     22092     22093
     22091     22090     22092     22094     22091     22090     22100     22101
     22091     22090     22100     22102     22091     22090     22100     22103
     22092     22090     22100     22101     22092     22090     22100     22102
     22092     22090     22100     22103     22092     22094     22096     22097
     22092     22094     22096     22098     22092     22094     22096     22099
     22093     22092     22090     22100     22093     22092     22094     22095
     22093     22092     22094     22096     22094     22092     22090     22100
     22095     22094     22096     22097     22095     22094     22096     22098
     22095     22094     22096     22099     22100     22102     22112     22113
     22100     22102     22112     22116     22100     22102     22112     22117
     22100     22103     22087     22107     22100     22103     22105     22106
     22101     22100     22102     22112     22101     22100     22103     22104
     22101     22100     22103     22105     22102     22100     22103     22104
     22102     22100     22103     22105     22102     22112     22116     22114
     22102     22112     22117     22118     22102     22112     22117     22119
     22102     22112     22117     22120     22103     22087     22107     22108
     22103     22087     22107     22109     22103     22087     22107     22110
     22103     22100     22102     22112     22104     22103     22087     22107
     22104     22103     22105     22106     22105     22103     22087     22107
     22108     22107     22110     22111     22109     22107     22110     22111
     22112     22116     22114     22115     22112     22116     22114     22124
     22112     22116     22114     22128     22112     22117     22119     22133
     22112     22117     22120     22121     22112     22117     22120     22122
     22112     22117     22120     22124     22113     22112     22116     22114
     22113     22112     22117     22118     22113     22112     22117     22119
     22113     22112     22117     22120     22114     22116     22112     22117
     22114     22124     22120     22117     22114     22124     22120     22121
     22114     22124     22120     22122     22114     22124     22126     22127
     22114     22128     22131     22132     22115     22114     22124     22120
     22115     22114     22124     22125     22115     22114     22124     22126
     22115     22114     22128     22129     22115     22114     22128     22130
     22115     22114     22128     22131     22116     22112     22117     22118
     22116     22112     22117     22119     22116     22112     22117     22120
     22116     22114     22124     22120     22116     22114     22124     22125
     22116     22114     22124     22126     22116     22114     22128     22129
     22116     22114     22128     22130     22116     22114     22128     22131
     22117     22119     22133     22134     22117     22119     22133     22137
     22117     22119     22133     22138     22117     22120     22122     22123
     22117     22120     22124     22125     22117     22120     22124     22126
     22118     22117     22119     22133     22118     22117     22120     22121
     22118     22117     22120     22122     22118     22117     22120     22124
     22119     22117     22120     22121     22119     22117     22120     22122
     22119     22117     22120     22124     22119     22133     22137     22135
     22119     22133     22138     22139     22119     22133     22138     22140
     22119     22133     22138     22141     22120     22117     22119     22133
     22120     22124     22114     22128     22120     22124     22126     22127
     22121     22120     22122     22123     22121     22120     22124     22125
     22121     22120     22124     22126     22122     22120     22124     22125
     22122     22120     22124     22126     22123     22122     22120     22124
     22124     22114     22128     22129     22124     22114     22128     22130
     22124     22114     22128     22131     22125     22124     22114     22128
     22125     22124     22126     22127     22126     22124     22114     22128
     22129     22128     22131     22132     22130     22128     22131     22132
     22133     22137     22135     22136     22133     22137     22135     22145
     22133     22137     22135     22149     22133     22138     22140     22153
     22133     22138     22141     22142     22133     22138     22141     22143
     22133     22138     22141     22145     22134     22133     22137     22135
     22134     22133     22138     22139     22134     22133     22138     22140
     22134     22133     22138     22141     22135     22137     22133     22138
     22135     22145     22141     22138     22135     22145     22141     22142
     22135     22145     22141     22143     22135     22145     22147     22148
     22136     22135     22145     22141     22136     22135     22145     22146
     22136     22135     22145     22147     22136     22135     22149     22150
     22136     22135     22149     22151     22136     22135     22149     22152
     22137     22133     22138     22139     22137     22133     22138     22140
     22137     22133     22138     22141     22137     22135     22145     22141
     22137     22135     22145     22146     22137     22135     22145     22147
     22137     22135     22149     22150     22137     22135     22149     22151
     22137     22135     22149     22152     22138     22140     22153     22154
     22138     22140     22153     22157     22138     22140     22153     22158
     22138     22141     22143     22144     22138     22141     22145     22146
     22138     22141     22145     22147     22139     22138     22140     22153
     22139     22138     22141     22142     22139     22138     22141     22143
     22139     22138     22141     22145     22140     22138     22141     22142
     22140     22138     22141     22143     22140     22138     22141     22145
     22140     22153     22157     22155     22140     22153     22158     22159
     22140     22153     22158     22160     22140     22153     22158     22161
     22141     22138     22140     22153     22141     22145     22135     22149
     22141     22145     22147     22148     22142     22141     22143     22144
     22142     22141     22145     22146     22142     22141     22145     22147
     22143     22141     22145     22146     22143     22141     22145     22147
     22144     22143     22141     22145     22145     22135     22149     22150
     22145     22135     22149     22151     22145     22135     22149     22152
     22146     22145     22135     22149     22146     22145     22147     22148
     22147     22145     22135     22149     22153     22157     22155     22156
     22153     22157     22155     22165     22153     22157     22155     22169
     22153     22158     22160     22173     22153     22158     22161     22162
     22153     22158     22161     22163     22153     22158     22161     22165
     22154     22153     22157     22155     22154     22153     22158     22159
     22154     22153     22158     22160     22154     22153     22158     22161
     22155     22157     22153     22158     22155     22165     22161     22158
     22155     22165     22161     22162     22155     22165     22161     22163
     22155     22165     22167     22168     22156     22155     22165     22161
     22156     22155     22165     22166     22156     22155     22165     22167
     22156     22155     22169     22170     22156     22155     22169     22171
     22156     22155     22169     22172     22157     22153     22158     22159
     22157     22153     22158     22160     22157     22153     22158     22161
     22157     22155     22165     22161     22157     22155     22165     22166
     22157     22155     22165     22167     22157     22155     22169     22170
     22157     22155     22169     22171     22157     22155     22169     22172
     22158     22160     22173     22174     22158     22160     22173     22177
     22158     22160     22173     22178     22158     22161     22163     22164
     22158     22161     22165     22166     22158     22161     22165     22167
     22159     22158     22160     22173     22159     22158     22161     22162
     22159     22158     22161     22163     22159     22158     22161     22165
     22160     22158     22161     22162     22160     22158     22161     22163
     22160     22158     22161     22165     22160     22173     22177     22175
     22160     22173     22178     22179     22160     22173     22178     22180
     22160     22173     22178     22188     22161     22158     22160     22173
     22161     22165     22155     22169     22161     22165     22167     22168
     22162     22161     22163     22164     22162     22161     22165     22166
     22162     22161     22165     22167     22163     22161     22165     22166
     22163     22161     22165     22167     22164     22163     22161     22165
     22165     22155     22169     22170     22165     22155     22169     22171
     22165     22155     22169     22172     22166     22165     22155     22169
     22166     22165     22167     22168     22167     22165     22155     22169
     22173     22177     22175     22176     22173     22177     22175     22192
     22173     22177     22175     22196     22173     22178     22180     22181
     22173     22178     22180     22182     22173     22178     22188     22189
     22173     22178     22188     22190     22173     22178     22188     22192
     22174     22173     22177     22175     22174     22173     22178     22179
     22174     22173     22178     22180     22174     22173     22178     22188
     22175     22177     22173     22178     22175     22192     22188     22178
     22175     22192     22188     22189     22175     22192     22188     22190
     22175     22192     22194     22195     22175     22196     22199     22200
     22176     22175     22192     22188     22176     22175     22192     22193
     22176     22175     22192     22194     22176     22175     22196     22197
     22176     22175     22196     22198     22176     22175     22196     22199
     22177     22173     22178     22179     22177     22173     22178     22180
     22177     22173     22178     22188     22177     22175     22192     22188
     22177     22175     22192     22193     22177     22175     22192     22194
     22177     22175     22196     22197     22177     22175     22196     22198
     22177     22175     22196     22199     22178     22180     22182     22183
     22178     22180     22182     22184     22178     22188     22190     22191
     22178     22188     22192     22193     22178     22188     22192     22194
     22179     22178     22180     22181     22179     22178     22180     22182
     22179     22178     22188     22189     22179     22178     22188     22190
     22179     22178     22188     22192     22180     22178     22188     22189
     22180     22178     22188     22190     22180     22178     22188     22192
     22180     22182     22184     22185     22180     22182     22184     22186
     22180     22182     22184     22187     22181     22180     22178     22188
     22181     22180     22182     22183     22181     22180     22182     22184
     22182     22180     22178     22188     22183     22182     22184     22185
     22183     22182     22184     22186     22183     22182     22184     22187
     22188     22192     22175     22196     22188     22192     22194     22195
     22189     22188     22190     22191     22189     22188     22192     22193
     22189     22188     22192     22194     22190     22188     22192     22193
     22190     22188     22192     22194     22191     22190     22188     22192
     22192     22175     22196     22197     22192     22175     22196     22198
     22192     22175     22196     22199     22193     22192     22175     22196
     22193     22192     22194     22195     22194     22192     22175     22196
     22197     22196     22199     22200     22198     22196     22199     22200
     22201     22203     22202     22500     22201     22203     22205     22206
     22201     22203     22205     22207     22201     22203     22205     22214
     22202     22203     22205     22206     22202     22203     22205     22207
     22202     22203     22205     22214     22202     22500     22497     22498
     22202     22500     22497     22499     22202     22500     22503     22501
     22202     22500     22504     22505     22202     22500     22504     22506
     22202     22500     22504     22507     22203     22202     22500     22497
     22203     22202     22500     22503     22203     22202     22500     22504
     22203     22205     22206     22208     22203     22205     22214     22215
     22203     22205     22214     22216     22203     22205     22214     22221
     22204     22203     22202     22500     22204     22203     22205     22206
     22204     22203     22205     22207     22204     22203     22205     22214
     22205     22203     22202     22500     22205     22206     22208     22209
     22205     22206     22208     22210     22205     22206     22208     22229
     22205     22214     22216     22217     22205     22214     22221     22222
     22205     22214     22221     22223     22205     22214     22221     22229
     22206     22205     22214     22215     22206     22205     22214     22216
     22206     22205     22214     22221     22206     22208     22210     22211
     22206     22208     22229     22221     22206     22208     22229     22230
     22206     22208     22229     22231     22207     22205     22206     22208
     22207     22205     22214     22215     22207     22205     22214     22216
     22207     22205     22214     22221     22208     22206     22205     22214
     22208     22210     22211     22212     22208     22210     22211     22213
     22208     22210     22211     22237     22208     22229     22221     22214
     22208     22229     22221     22222     22208     22229     22221     22223
     22208     22229     22231     22232     22208     22229     22231     22338
     22209     22208     22210     22211     22209     22208     22229     22221
     22209     22208     22229     22230     22209     22208     22229     22231
     22210     22208     22229     22221     22210     22208     22229     22230
     22210     22208     22229     22231     22210     22211     22237     22233
     22210     22211     22237     22238     22210     22211     22237     22239
     22211     22210     22208     22229     22211     22237     22233     22234
     22211     22237     22233     22235     22211     22237     22233     22247
     22211     22237     22239     22240     22212     22211     22237     22233
     22212     22211     22237     22238     22212     22211     22237     22239
     22213     22211     22237     22233     22213     22211     22237     22238
     22213     22211     22237     22239     22214     22216     22217     22218
     22214     22216     22217     22219     22214     22216     22217     22220
     22214     22221     22222     22224     22214     22221     22229     22230
     22214     22221     22229     22231     22215     22214     22216     22217
     22215     22214     22221     22222     22215     22214     22221     22223
     22215     22214     22221     22229     22216     22214     22221     22222
     22216     22214     22221     22223     22216     22214     22221     22229
     22217     22216     22214     22221     22221     22222     22224     22225
     22221     22222     22224     22226     22221     22229     22231     22232
     22221     22229     22231     22338     22222     22221     22229     22230
     22222     22221     22229     22231     22222     22224     22226     22227
     22222     22224     22226     22228     22222     22224     22226     22259
     22223     22221     22222     22224     22223     22221     22229     22230
     22223     22221     22229     22231     22224     22222     22221     22229
     22224     22226     22259     22260     22224     22226     22259     22261
     22224     22226     22259     22304     22225     22224     22226     22227
     22225     22224     22226     22228     22225     22224     22226     22259
     22226     22259     22261     22262     22226     22259     22304     22305
     22226     22259     22304     22306     22226     22259     22304     22307
     22227     22226     22259     22260     22227     22226     22259     22261
     22227     22226     22259     22304     22228     22226     22259     22260
     22228     22226     22259     22261     22228     22226     22259     22304
     22229     22231     22338     22339     22229     22231     22338     22340
     22230     22229     22231     22232     22230     22229     22231     22338
     22231     22338     22340     22341     22231     22338     22340     22342
     22231     22338     22340     22343     22232     22231     22338     22339
     22232     22231     22338     22340     22233     22237     22239     22240
     22233     22247     22249     22250     22233     22247     22255     22240
     22233     22247     22255     22256     22233     22247     22255     22257
     22234     22233     22235     22236     22234     22233     22237     22238
     22234     22233     22237     22239     22234     22233     22247     22248
     22234     22233     22247     22249     22234     22233     22247     22255
     22235     22233     22237     22238     22235     22233     22237     22239
     22235     22233     22247     22248     22235     22233     22247     22249
     22235     22233     22247     22255     22236     22235     22233     22237
     22236     22235     22233     22247     22237     22233     22247     22248
     22237     22233     22247     22249     22237     22233     22247     22255
     22237     22239     22240     22241     22237     22239     22240     22242
     22237     22239     22240     22255     22238     22237     22233     22247
     22238     22237     22239     22240     22239     22237     22233     22247
     22239     22240     22242     22246     22239     22240     22255     22247
     22239     22240     22255     22256     22239     22240     22255     22257
     22240     22242     22246     22243     22240     22242     22246     22244
     22240     22242     22246     22245     22240     22255     22247     22248
     22240     22255     22247     22249     22240     22255     22257     22258
     22240     22255     22257     22454     22241     22240     22242     22246
     22241     22240     22255     22247     22241     22240     22255     22256
     22241     22240     22255     22257     22242     22240     22255     22247
     22242     22240     22255     22256     22242     22240     22255     22257
     22246     22242     22240     22255     22247     22249     22250     22251
     22247     22249     22250     22252     22247     22255     22257     22258
     22247     22255     22257     22454     22248     22247     22249     22250
     22248     22247     22255     22256     22248     22247     22255     22257
     22249     22247     22255     22256     22249     22247     22255     22257
     22249     22250     22252     22253     22249     22250     22252     22254
     22249     22250     22252     22416     22250     22249     22247     22255
     22250     22252     22416     22417     22250     22252     22416     22418
     22250     22252     22416     22420     22251     22250     22252     22253
     22251     22250     22252     22254     22251     22250     22252     22416
     22252     22416     22418     22419     22252     22416     22420     22421
     22252     22416     22420     22422     22252     22416     22420     22423
     22253     22252     22416     22417     22253     22252     22416     22418
     22253     22252     22416     22420     22254     22252     22416     22417
     22254     22252     22416     22418     22254     22252     22416     22420
     22255     22257     22454     22455     22255     22257     22454     22456
     22256     22255     22257     22258     22256     22255     22257     22454
     22257     22454     22456     22457     22257     22454     22456     22458
     22257     22454     22456     22459     22258     22257     22454     22455
     22258     22257     22454     22456     22259     22261     22262     22263
     22259     22261     22262     22264     22259     22304     22307     22308
     22259     22304     22307     22309     22259     22304     22307     22310
     22260     22259     22261     22262     22260     22259     22304     22305
     22260     22259     22304     22306     22260     22259     22304     22307
     22261     22259     22304     22305     22261     22259     22304     22306
     22261     22259     22304     22307     22261     22262     22264     22265
     22261     22262     22264     22266     22261     22262     22264     22267
     22262     22261     22259     22304     22262     22264     22267     22268
     22262     22264     22267     22269     22262     22264     22267     22270
     22263     22262     22264     22265     22263     22262     22264     22266
     22263     22262     22264     22267     22264     22267     22270     22271
     22264     22267     22270     22272     22264     22267     22270     22273
     22265     22264     22267     22268     22265     22264     22267     22269
     22265     22264     22267     22270     22266     22264     22267     22268
     22266     22264     22267     22269     22266     22264     22267     22270
     22267     22270     22273     22274     22267     22270     22273     22275
     22267     22270     22273     22276     22268     22267     22270     22271
     22268     22267     22270     22272     22268     22267     22270     22273
     22269     22267     22270     22271     22269     22267     22270     22272
     22269     22267     22270     22273     22270     22273     22276     22277
     22270     22273     22276     22278     22270     22273     22276     22279
     22271     22270     22273     22274     22271     22270     22273     22275
     22271     22270     22273     22276     22272     22270     22273     22274
     22272     22270     22273     22275     22272     22270     22273     22276
     22273     22276     22279     22280     22273     22276     22279     22281
     22273     22276     22279     22282     22274     22273     22276     22277
     22274     22273     22276     22278     22274     22273     22276     22279
     22275     22273     22276     22277     22275     22273     22276     22278
     22275     22273     22276     22279     22276     22279     22282     22283
     22276     22279     22282     22284     22276     22279     22282     22285
     22277     22276     22279     22280     22277     22276     22279     22281
     22277     22276     22279     22282     22278     22276     22279     22280
     22278     22276     22279     22281     22278     22276     22279     22282
     22279     22282     22285     22286     22279     22282     22285     22287
     22279     22282     22285     22288     22280     22279     22282     22283
     22280     22279     22282     22284     22280     22279     22282     22285
     22281     22279     22282     22283     22281     22279     22282     22284
     22281     22279     22282     22285     22282     22285     22288     22289
     22282     22285     22288     22290     22282     22285     22288     22291
     22283     22282     22285     22286     22283     22282     22285     22287
     22283     22282     22285     22288     22284     22282     22285     22286
     22284     22282     22285     22287     22284     22282     22285     22288
     22285     22288     22291     22292     22285     22288     22291     22293
     22285     22288     22291     22294     22286     22285     22288     22289
     22286     22285     22288     22290     22286     22285     22288     22291
     22287     22285     22288     22289     22287     22285     22288     22290
     22287     22285     22288     22291     22288     22291     22294     22295
     22288     22291     22294     22296     22288     22291     22294     22297
     22289     22288     22291     22292     22289     22288     22291     22293
     22289     22288     22291     22294     22290     22288     22291     22292
     22290     22288     22291     22293     22290     22288     22291     22294
     22291     22294     22297     22298     22291     22294     22297     22299
     22291     22294     22297     22300     22292     22291     22294     22295
     22292     22291     22294     22296     22292     22291     22294     22297
     22293     22291     22294     22295     22293     22291     22294     22296
     22293     22291     22294     22297     22294     22297     22300     22301
     22294     22297     22300     22302     22294     22297     22300     22303
     22295     22294     22297     22298     22295     22294     22297     22299
     22295     22294     22297     22300     22296     22294     22297     22298
     22296     22294     22297     22299     22296     22294     22297     22300
     22298     22297     22300     22301     22298     22297     22300     22302
     22298     22297     22300     22303     22299     22297     22300     22301
     22299     22297     22300     22302     22299     22297     22300     22303
     22304     22307     22310     22311     22304     22307     22310     22312
     22304     22307     22310     22313     22305     22304     22307     22308
     22305     22304     22307     22309     22305     22304     22307     22310
     22306     22304     22307     22308     22306     22304     22307     22309
     22306     22304     22307     22310     22307     22310     22313     22314
     22307     22310     22313     22315     22307     22310     22313     22316
     22308     22307     22310     22311     22308     22307     22310     22312
     22308     22307     22310     22313     22309     22307     22310     22311
     22309     22307     22310     22312     22309     22307     22310     22313
     22310     22313     22316     22317     22310     22313     22316     22318
     22310     22313     22316     22319     22311     22310     22313     22314
     22311     22310     22313     22315     22311     22310     22313     22316
     22312     22310     22313     22314     22312     22310     22313     22315
     22312     22310     22313     22316     22313     22316     22319     22320
     22313     22316     22319     22321     22313     22316     22319     22322
     22314     22313     22316     22317     22314     22313     22316     22318
     22314     22313     22316     22319     22315     22313     22316     22317
     22315     22313     22316     22318     22315     22313     22316     22319
     22316     22319     22322     22323     22316     22319     22322     22324
     22316     22319     22322     22325     22317     22316     22319     22320
     22317     22316     22319     22321     22317     22316     22319     22322
     22318     22316     22319     22320     22318     22316     22319     22321
     22318     22316     22319     22322     22319     22322     22325     22326
     22319     22322     22325     22327     22319     22322     22325     22328
     22320     22319     22322     22323     22320     22319     22322     22324
     22320     22319     22322     22325     22321     22319     22322     22323
     22321     22319     22322     22324     22321     22319     22322     22325
     22322     22325     22328     22329     22322     22325     22328     22330
     22322     22325     22328     22331     22323     22322     22325     22326
     22323     22322     22325     22327     22323     22322     22325     22328
     22324     22322     22325     22326     22324     22322     22325     22327
     22324     22322     22325     22328     22325     22328     22331     22332
     22325     22328     22331     22333     22325     22328     22331     22334
     22326     22325     22328     22329     22326     22325     22328     22330
     22326     22325     22328     22331     22327     22325     22328     22329
     22327     22325     22328     22330     22327     22325     22328     22331
     22328     22331     22334     22335     22328     22331     22334     22336
     22328     22331     22334     22337     22329     22328     22331     22332
     22329     22328     22331     22333     22329     22328     22331     22334
     22330     22328     22331     22332     22330     22328     22331     22333
     22330     22328     22331     22334     22332     22331     22334     22335
     22332     22331     22334     22336     22332     22331     22334     22337
     22333     22331     22334     22335     22333     22331     22334     22336
     22333     22331     22334     22337     22338     22340     22343     22344
     22338     22340     22343     22345     22338     22340     22343     22382
     22339     22338     22340     22341     22339     22338     22340     22342
     22339     22338     22340     22343     22340     22343     22345     22346
     22340     22343     22382     22383     22340     22343     22382     22384
     22340     22343     22382     22385     22341     22340     22343     22344
     22341     22340     22343     22345     22341     22340     22343     22382
     22342     22340     22343     22344     22342     22340     22343     22345
     22342     22340     22343     22382     22343     22345     22346     22347
     22343     22345     22346     22348     22343     22382     22385     22386
     22343     22382     22385     22387     22343     22382     22385     22388
     22344     22343     22345     22346     22344     22343     22382     22383
     22344     22343     22382     22384     22344     22343     22382     22385
     22345     22343     22382     22383     22345     22343     22382     22384
     22345     22343     22382     22385     22345     22346     22348     22349
     22345     22346     22348     22350     22345     22346     22348     22351
     22346     22345     22343     22382     22346     22348     22351     22352
     22346     22348     22351     22353     22346     22348     22351     22354
     22347     22346     22348     22349     22347     22346     22348     22350
     22347     22346     22348     22351     22348     22351     22354     22355
     22348     22351     22354     22356     22348     22351     22354     22357
     22349     22348     22351     22352     22349     22348     22351     22353
     22349     22348     22351     22354     22350     22348     22351     22352
     22350     22348     22351     22353     22350     22348     22351     22354
     22351     22354     22357     22358     22351     22354     22357     22359
     22351     22354     22357     22360     22352     22351     22354     22355
     22352     22351     22354     22356     22352     22351     22354     22357
     22353     22351     22354     22355     22353     22351     22354     22356
     22353     22351     22354     22357     22354     22357     22360     22361
     22354     22357     22360     22362     22354     22357     22360     22363
     22355     22354     22357     22358     22355     22354     22357     22359
     22355     22354     22357     22360     22356     22354     22357     22358
     22356     22354     22357     22359     22356     22354     22357     22360
     22357     22360     22363     22364     22357     22360     22363     22365
     22357     22360     22363     22366     22358     22357     22360     22361
     22358     22357     22360     22362     22358     22357     22360     22363
     22359     22357     22360     22361     22359     22357     22360     22362
     22359     22357     22360     22363     22360     22363     22366     22367
     22360     22363     22366     22368     22360     22363     22366     22369
     22361     22360     22363     22364     22361     22360     22363     22365
     22361     22360     22363     22366     22362     22360     22363     22364
     22362     22360     22363     22365     22362     22360     22363     22366
     22363     22366     22369     22370     22363     22366     22369     22371
     22363     22366     22369     22372     22364     22363     22366     22367
     22364     22363     22366     22368     22364     22363     22366     22369
     22365     22363     22366     22367     22365     22363     22366     22368
     22365     22363     22366     22369     22366     22369     22372     22373
     22366     22369     22372     22374     22366     22369     22372     22375
     22367     22366     22369     22370     22367     22366     22369     22371
     22367     22366     22369     22372     22368     22366     22369     22370
     22368     22366     22369     22371     22368     22366     22369     22372
     22369     22372     22375     22376     22369     22372     22375     22377
     22369     22372     22375     22378     22370     22369     22372     22373
     22370     22369     22372     22374     22370     22369     22372     22375
     22371     22369     22372     22373     22371     22369     22372     22374
     22371     22369     22372     22375     22372     22375     22378     22379
     22372     22375     22378     22380     22372     22375     22378     22381
     22373     22372     22375     22376     22373     22372     22375     22377
     22373     22372     22375     22378     22374     22372     22375     22376
     22374     22372     22375     22377     22374     22372     22375     22378
     22376     22375     22378     22379     22376     22375     22378     22380
     22376     22375     22378     22381     22377     22375     22378     22379
     22377     22375     22378     22380     22377     22375     22378     22381
     22382     22385     22388     22389     22382     22385     22388     22390
     22382     22385     22388     22391     22383     22382     22385     22386
     22383     22382     22385     22387     22383     22382     22385     22388
     22384     22382     22385     22386     22384     22382     22385     22387
     22384     22382     22385     22388     22385     22388     22391     22392
     22385     22388     22391     22393     22385     22388     22391     22394
     22386     22385     22388     22389     22386     22385     22388     22390
     22386     22385     22388     22391     22387     22385     22388     22389
     22387     22385     22388     22390     22387     22385     22388     22391
     22388     22391     22394     22395     22388     22391     22394     22396
     22388     22391     22394     22397     22389     22388     22391     22392
     22389     22388     22391     22393     22389     22388     22391     22394
     22390     22388     22391     22392     22390     22388     22391     22393
     22390     22388     22391     22394     22391     22394     22397     22398
     22391     22394     22397     22399     22391     22394     22397     22400
     22392     22391     22394     22395     22392     22391     22394     22396
     22392     22391     22394     22397     22393     22391     22394     22395
     22393     22391     22394     22396     22393     22391     22394     22397
     22394     22397     22400     22401     22394     22397     22400     22402
     22394     22397     22400     22403     22395     22394     22397     22398
     22395     22394     22397     22399     22395     22394     22397     22400
     22396     22394     22397     22398     22396     22394     22397     22399
     22396     22394     22397     22400     22397     22400     22403     22404
     22397     22400     22403     22405     22397     22400     22403     22406
     22398     22397     22400     22401     22398     22397     22400     22402
     22398     22397     22400     22403     22399     22397     22400     22401
     22399     22397     22400     22402     22399     22397     22400     22403
     22400     22403     22406     22407     22400     22403     22406     22408
     22400     22403     22406     22409     22401     22400     22403     22404
     22401     22400     22403     22405     22401     22400     22403     22406
     22402     22400     22403     22404     22402     22400     22403     22405
     22402     22400     22403     22406     22403     22406     22409     22410
     22403     22406     22409     22411     22403     22406     22409     22412
     22404     22403     22406     22407     22404     22403     22406     22408
     22404     22403     22406     22409     22405     22403     22406     22407
     22405     22403     22406     22408     22405     22403     22406     22409
     22406     22409     22412     22413     22406     22409     22412     22414
     22406     22409     22412     22415     22407     22406     22409     22410
     22407     22406     22409     22411     22407     22406     22409     22412
     22408     22406     22409     22410     22408     22406     22409     22411
     22408     22406     22409     22412     22410     22409     22412     22413
     22410     22409     22412     22414     22410     22409     22412     22415
     22411     22409     22412     22413     22411     22409     22412     22414
     22411     22409     22412     22415     22416     22420     22423     22424
     22416     22420     22423     22425     22416     22420     22423     22426
     22417     22416     22418     22419     22417     22416     22420     22421
     22417     22416     22420     22422     22417     22416     22420     22423
     22418     22416     22420     22421     22418     22416     22420     22422
     22418     22416     22420     22423     22419     22418     22416     22420
     22420     22423     22426     22427     22420     22423     22426     22428
     22420     22423     22426     22429     22421     22420     22423     22424
     22421     22420     22423     22425     22421     22420     22423     22426
     22422     22420     22423     22424     22422     22420     22423     22425
     22422     22420     22423     22426     22423     22426     22429     22430
     22423     22426     22429     22431     22423     22426     22429     22432
     22424     22423     22426     22427     22424     22423     22426     22428
     22424     22423     22426     22429     22425     22423     22426     22427
     22425     22423     22426     22428     22425     22423     22426     22429
     22426     22429     22432     22433     22426     22429     22432     22434
     22426     22429     22432     22435     22427     22426     22429     22430
     22427     22426     22429     22431     22427     22426     22429     22432
     22428     22426     22429     22430     22428     22426     22429     22431
     22428     22426     22429     22432     22429     22432     22435     22436
     22429     22432     22435     22437     22429     22432     22435     22438
     22430     22429     22432     22433     22430     22429     22432     22434
     22430     22429     22432     22435     22431     22429     22432     22433
     22431     22429     22432     22434     22431     22429     22432     22435
     22432     22435     22438     22439     22432     22435     22438     22440
     22432     22435     22438     22441     22433     22432     22435     22436
     22433     22432     22435     22437     22433     22432     22435     22438
     22434     22432     22435     22436     22434     22432     22435     22437
     22434     22432     22435     22438     22435     22438     22441     22442
     22435     22438     22441     22443     22435     22438     22441     22444
     22436     22435     22438     22439     22436     22435     22438     22440
     22436     22435     22438     22441     22437     22435     22438     22439
     22437     22435     22438     22440     22437     22435     22438     22441
     22438     22441     22444     22445     22438     22441     22444     22446
     22438     22441     22444     22447     22439     22438     22441     22442
     22439     22438     22441     22443     22439     22438     22441     22444
     22440     22438     22441     22442     22440     22438     22441     22443
     22440     22438     22441     22444     22441     22444     22447     22448
     22441     22444     22447     22449     22441     22444     22447     22450
     22442     22441     22444     22445     22442     22441     22444     22446
     22442     22441     22444     22447     22443     22441     22444     22445
     22443     22441     22444     22446     22443     22441     22444     22447
     22444     22447     22450     22451     22444     22447     22450     22452
     22444     22447     22450     22453     22445     22444     22447     22448
     22445     22444     22447     22449     22445     22444     22447     22450
     22446     22444     22447     22448     22446     22444     22447     22449
     22446     22444     22447     22450     22448     22447     22450     22451
     22448     22447     22450     22452     22448     22447     22450     22453
     22449     22447     22450     22451     22449     22447     22450     22452
     22449     22447     22450     22453     22454     22456     22459     22460
     22454     22456     22459     22461     22454     22456     22459     22463
     22455     22454     22456     22457     22455     22454     22456     22458
     22455     22454     22456     22459     22456     22459     22461     22462
     22456     22459     22463     22464     22456     22459     22463     22465
     22456     22459     22463     22466     22457     22456     22459     22460
     22457     22456     22459     22461     22457     22456     22459     22463
     22458     22456     22459     22460     22458     22456     22459     22461
     22458     22456     22459     22463     22459     22463     22466     22467
     22459     22463     22466     22468     22459     22463     22466     22469
     22460     22459     22461     22462     22460     22459     22463     22464
     22460     22459     22463     22465     22460     22459     22463     22466
     22461     22459     22463     22464     22461     22459     22463     22465
     22461     22459     22463     22466     22462     22461     22459     22463
     22463     22466     22469     22470     22463     22466     22469     22471
     22463     22466     22469     22472     22464     22463     22466     22467
     22464     22463     22466     22468     22464     22463     22466     22469
     22465     22463     22466     22467     22465     22463     22466     22468
     22465     22463     22466     22469     22466     22469     22472     22473
     22466     22469     22472     22474     22466     22469     22472     22475
     22467     22466     22469     22470     22467     22466     22469     22471
     22467     22466     22469     22472     22468     22466     22469     22470
     22468     22466     22469     22471     22468     22466     22469     22472
     22469     22472     22475     22476     22469     22472     22475     22477
     22469     22472     22475     22478     22470     22469     22472     22473
     22470     22469     22472     22474     22470     22469     22472     22475
     22471     22469     22472     22473     22471     22469     22472     22474
     22471     22469     22472     22475     22472     22475     22478     22479
     22472     22475     22478     22480     22472     22475     22478     22481
     22473     22472     22475     22476     22473     22472     22475     22477
     22473     22472     22475     22478     22474     22472     22475     22476
     22474     22472     22475     22477     22474     22472     22475     22478
     22475     22478     22481     22482     22475     22478     22481     22483
     22475     22478     22481     22484     22476     22475     22478     22479
     22476     22475     22478     22480     22476     22475     22478     22481
     22477     22475     22478     22479     22477     22475     22478     22480
     22477     22475     22478     22481     22478     22481     22484     22485
     22478     22481     22484     22486     22478     22481     22484     22487
     22479     22478     22481     22482     22479     22478     22481     22483
     22479     22478     22481     22484     22480     22478     22481     22482
     22480     22478     22481     22483     22480     22478     22481     22484
     22481     22484     22487     22488     22481     22484     22487     22489
     22481     22484     22487     22490     22482     22481     22484     22485
     22482     22481     22484     22486     22482     22481     22484     22487
     22483     22481     22484     22485     22483     22481     22484     22486
     22483     22481     22484     22487     22484     22487     22490     22491
     22484     22487     22490     22492     22484     22487     22490     22493
     22485     22484     22487     22488     22485     22484     22487     22489
     22485     22484     22487     22490     22486     22484     22487     22488
     22486     22484     22487     22489     22486     22484     22487     22490
     22487     22490     22493     22494     22487     22490     22493     22495
     22487     22490     22493     22496     22488     22487     22490     22491
     22488     22487     22490     22492     22488     22487     22490     22493
     22489     22487     22490     22491     22489     22487     22490     22492
     22489     22487     22490     22493     22491     22490     22493     22494
     22491     22490     22493     22495     22491     22490     22493     22496
     22492     22490     22493     22494     22492     22490     22493     22495
     22492     22490     22493     22496     22497     22500     22503     22501
     22497     22500     22504     22505     22497     22500     22504     22506
     22497     22500     22504     22507     22498     22497     22500     22503
     22498     22497     22500     22504     22499     22497     22500     22503
     22499     22497     22500     22504     22500     22503     22501     22502
     22500     22503     22501     22510     22500     22503     22501     22513
     22500     22504     22507     22508     22500     22504     22507     22509
     22500     22504     22507     22510     22501     22503     22500     22504
     22501     22510     22507     22504     22501     22510     22507     22508
     22501     22510     22507     22509     22501     22510     22512     22549
     22501     22513     22515     22516     22501     22513     22517     22518
     22501     22513     22517     22519     22501     22513     22517     22520
     22502     22501     22510     22507     22502     22501     22510     22511
     22502     22501     22510     22512     22502     22501     22513     22514
     22502     22501     22513     22515     22502     22501     22513     22517
     22503     22500     22504     22505     22503     22500     22504     22506
     22503     22500     22504     22507     22503     22501     22510     22507
     22503     22501     22510     22511     22503     22501     22510     22512
     22503     22501     22513     22514     22503     22501     22513     22515
     22503     22501     22513     22517     22504     22507     22509     22525
     22504     22507     22510     22511     22504     22507     22510     22512
     22505     22504     22507     22508     22505     22504     22507     22509
     22505     22504     22507     22510     22506     22504     22507     22508
     22506     22504     22507     22509     22506     22504     22507     22510
     22507     22509     22525     22522     22507     22509     22525     22528
     22507     22509     22525     22529     22507     22510     22501     22513
     22507     22510     22512     22549     22508     22507     22509     22525
     22508     22507     22510     22511     22508     22507     22510     22512
     22509     22507     22510     22511     22509     22507     22510     22512
     22509     22525     22522     22523     22509     22525     22522     22524
     22509     22525     22528     22526     22509     22525     22529     22530
     22509     22525     22529     22531     22509     22525     22529     22532
     22510     22501     22513     22514     22510     22501     22513     22515
     22510     22501     22513     22517     22510     22507     22509     22525
     22510     22512     22549     22550     22510     22512     22549     22553
     22510     22512     22549     22554     22511     22510     22501     22513
     22511     22510     22512     22549     22512     22510     22501     22513
     22512     22549     22553     22551     22512     22549     22554     22555
     22512     22549     22554     22556     22512     22549     22554     22558
     22513     22517     22520     22521     22514     22513     22515     22516
     22514     22513     22517     22518     22514     22513     22517     22519
     22514     22513     22517     22520     22515     22513     22517     22518
     22515     22513     22517     22519     22515     22513     22517     22520
     22516     22515     22513     22517     22518     22517     22520     22521
     22519     22517     22520     22521     22522     22525     22528     22526
     22522     22525     22529     22530     22522     22525     22529     22531
     22522     22525     22529     22532     22523     22522     22525     22528
     22523     22522     22525     22529     22524     22522     22525     22528
     22524     22522     22525     22529     22525     22528     22526     22527
     22525     22528     22526     22536     22525     22528     22526     22540
     22525     22529     22532     22533     22525     22529     22532     22534
     22525     22529     22532     22536     22526     22528     22525     22529
     22526     22536     22532     22529     22526     22536     22532     22533
     22526     22536     22532     22534     22526     22536     22538     22539
     22526     22540     22542     22543     22526     22540     22544     22545
     22526     22540     22544     22546     22526     22540     22544     22547
     22527     22526     22536     22532     22527     22526     22536     22537
     22527     22526     22536     22538     22527     22526     22540     22541
     22527     22526     22540     22542     22527     22526     22540     22544
     22528     22525     22529     22530     22528     22525     22529     22531
     22528     22525     22529     22532     22528     22526     22536     22532
     22528     22526     22536     22537     22528     22526     22536     22538
     22528     22526     22540     22541     22528     22526     22540     22542
     22528     22526     22540     22544     22529     22532     22534     22535
     22529     22532     22536     22537     22529     22532     22536     22538
     22530     22529     22532     22533     22530     22529     22532     22534
     22530     22529     22532     22536     22531     22529     22532     22533
     22531     22529     22532     22534     22531     22529     22532     22536
     22532     22536     22526     22540     22532     22536     22538     22539
     22533     22532     22534     22535     22533     22532     22536     22537
     22533     22532     22536     22538     22534     22532     22536     22537
     22534     22532     22536     22538     22535     22534     22532     22536
     22536     22526     22540     22541     22536     22526     22540     22542
     22536     22526     22540     22544     22537     22536     22526     22540
     22537     22536     22538     22539     22538     22536     22526     22540
     22540     22544     22547     22548     22541     22540     22542     22543
     22541     22540     22544     22545     22541     22540     22544     22546
     22541     22540     22544     22547     22542     22540     22544     22545
     22542     22540     22544     22546     22542     22540     22544     22547
     22543     22542     22540     22544     22545     22544     22547     22548
     22546     22544     22547     22548     22549     22553     22551     22552
     22549     22553     22551     22561     22549     22553     22551     22568
     22549     22554     22556     22557     22549     22554     22558     22559
     22549     22554     22558     22560     22549     22554     22558     22561
     22550     22549     22553     22551     22550     22549     22554     22555
     22550     22549     22554     22556     22550     22549     22554     22558
     22551     22553     22549     22554     22551     22561     22558     22554
     22551     22561     22558     22559     22551     22561     22558     22560
     22551     22561     22563     22564     22551     22568     22570     22571
     22551     22568     22572     22573     22551     22568     22572     22574
     22551     22568     22572     22575     22552     22551     22561     22558
     22552     22551     22561     22562     22552     22551     22561     22563
     22552     22551     22568     22569     22552     22551     22568     22570
     22552     22551     22568     22572     22553     22549     22554     22555
     22553     22549     22554     22556     22553     22549     22554     22558
     22553     22551     22561     22558     22553     22551     22561     22562
     22553     22551     22561     22563     22553     22551     22568     22569
     22553     22551     22568     22570     22553     22551     22568     22572
     22554     22558     22560     22577     22554     22558     22561     22562
     22554     22558     22561     22563     22555     22554     22556     22557
     22555     22554     22558     22559     22555     22554     22558     22560
     22555     22554     22558     22561     22556     22554     22558     22559
     22556     22554     22558     22560     22556     22554     22558     22561
     22557     22556     22554     22558     22558     22560     22577     22578
     22558     22560     22577     22581     22558     22560     22577     22582
     22558     22561     22551     22568     22558     22561     22563     22564
     22559     22558     22560     22577     22559     22558     22561     22562
     22559     22558     22561     22563     22560     22558     22561     22562
     22560     22558     22561     22563     22560     22577     22581     22579
     22560     22577     22582     22583     22560     22577     22582     22584
     22560     22577     22582     22586     22561     22551     22568     22569
     22561     22551     22568     22570     22561     22551     22568     22572
     22561     22558     22560     22577     22561     22563     22564     22565
     22561     22563     22564     22566     22561     22563     22564     22567
     22562     22561     22551     22568     22562     22561     22563     22564
     22563     22561     22551     22568     22568     22572     22575     22576
     22569     22568     22570     22571     22569     22568     22572     22573
     22569     22568     22572     22574     22569     22568     22572     22575
     22570     22568     22572     22573     22570     22568     22572     22574
     22570     22568     22572     22575     22571     22570     22568     22572
     22573     22572     22575     22576     22574     22572     22575     22576
     22577     22581     22579     22580     22577     22581     22579     22589
     22577     22581     22579     22596     22577     22582     22584     22585
     22577     22582     22586     22587     22577     22582     22586     22588
     22577     22582     22586     22589     22578     22577     22581     22579
     22578     22577     22582     22583     22578     22577     22582     22584
     22578     22577     22582     22586     22579     22581     22577     22582
     22579     22589     22586     22582     22579     22589     22586     22587
     22579     22589     22586     22588     22579     22589     22591     22592
     22579     22596     22598     22599     22579     22596     22600     22601
     22579     22596     22600     22602     22579     22596     22600     22603
     22580     22579     22589     22586     22580     22579     22589     22590
     22580     22579     22589     22591     22580     22579     22596     22597
     22580     22579     22596     22598     22580     22579     22596     22600
     22581     22577     22582     22583     22581     22577     22582     22584
     22581     22577     22582     22586     22581     22579     22589     22586
     22581     22579     22589     22590     22581     22579     22589     22591
     22581     22579     22596     22597     22581     22579     22596     22598
     22581     22579     22596     22600     22582     22586     22588     22630
     22582     22586     22589     22590     22582     22586     22589     22591
     22583     22582     22584     22585     22583     22582     22586     22587
     22583     22582     22586     22588     22583     22582     22586     22589
     22584     22582     22586     22587     22584     22582     22586     22588
     22584     22582     22586     22589     22585     22584     22582     22586
     22586     22588     22630     22631     22586     22588     22630     22634
     22586     22588     22630     22635     22586     22589     22579     22596
     22586     22589     22591     22592     22587     22586     22588     22630
     22587     22586     22589     22590     22587     22586     22589     22591
     22588     22586     22589     22590     22588     22586     22589     22591
     22588     22630     22634     22632     22588     22630     22635     22636
     22588     22630     22635     22637     22588     22630     22635     22639
     22589     22579     22596     22597     22589     22579     22596     22598
     22589     22579     22596     22600     22589     22586     22588     22630
     22589     22591     22592     22593     22589     22591     22592     22594
     22589     22591     22592     22595     22590     22589     22579     22596
     22590     22589     22591     22592     22591     22589     22579     22596
     22596     22600     22603     22604     22597     22596     22598     22599
     22597     22596     22600     22601     22597     22596     22600     22602
     22597     22596     22600     22603     22598     22596     22600     22601
     22598     22596     22600     22602     22598     22596     22600     22603
     22599     22598     22596     22600     22600     22603     22604     22605
     22600     22603     22604     22608     22600     22603     22604     22609
     22601     22600     22603     22604     22602     22600     22603     22604
     22603     22604     22608     22606     22603     22604     22609     22610
     22603     22604     22609     22611     22603     22604     22609     22613
     22604     22608     22606     22607     22604     22608     22606     22617
     22604     22608     22606     22621     22604     22609     22611     22612
     22604     22609     22613     22614     22604     22609     22613     22615
     22604     22609     22613     22617     22605     22604     22608     22606
     22605     22604     22609     22610     22605     22604     22609     22611
     22605     22604     22609     22613     22606     22608     22604     22609
     22606     22617     22613     22609     22606     22617     22613     22614
     22606     22617     22613     22615     22606     22617     22619     22620
     22606     22621     22623     22624     22606     22621     22625     22626
     22606     22621     22625     22627     22606     22621     22625     22628
     22607     22606     22617     22613     22607     22606     22617     22618
     22607     22606     22617     22619     22607     22606     22621     22622
     22607     22606     22621     22623     22607     22606     22621     22625
     22608     22604     22609     22610     22608     22604     22609     22611
     22608     22604     22609     22613     22608     22606     22617     22613
     22608     22606     22617     22618     22608     22606     22617     22619
     22608     22606     22621     22622     22608     22606     22621     22623
     22608     22606     22621     22625     22609     22613     22615     22616
     22609     22613     22617     22618     22609     22613     22617     22619
     22610     22609     22611     22612     22610     22609     22613     22614
     22610     22609     22613     22615     22610     22609     22613     22617
     22611     22609     22613     22614     22611     22609     22613     22615
     22611     22609     22613     22617     22612     22611     22609     22613
     22613     22617     22606     22621     22613     22617     22619     22620
     22614     22613     22615     22616     22614     22613     22617     22618
     22614     22613     22617     22619     22615     22613     22617     22618
     22615     22613     22617     22619     22616     22615     22613     22617
     22617     22606     22621     22622     22617     22606     22621     22623
     22617     22606     22621     22625     22618     22617     22606     22621
     22618     22617     22619     22620     22619     22617     22606     22621
     22621     22625     22628     22629     22622     22621     22623     22624
     22622     22621     22625     22626     22622     22621     22625     22627
     22622     22621     22625     22628     22623     22621     22625     22626
     22623     22621     22625     22627     22623     22621     22625     22628
     22624     22623     22621     22625     22626     22625     22628     22629
     22627     22625     22628     22629     22630     22634     22632     22633
     22630     22634     22632     22642     22630     22634     22632     22646
     22630     22635     22637     22638     22630     22635     22639     22640
     22630     22635     22639     22641     22630     22635     22639     22642
     22631     22630     22634     22632     22631     22630     22635     22636
     22631     22630     22635     22637     22631     22630     22635     22639
     22632     22634     22630     22635     22632     22642     22639     22635
     22632     22642     22639     22640     22632     22642     22639     22641
     22632     22642     22644     22645     22632     22646     22649     22650
     22633     22632     22642     22639     22633     22632     22642     22643
     22633     22632     22642     22644     22633     22632     22646     22647
     22633     22632     22646     22648     22633     22632     22646     22649
     22634     22630     22635     22636     22634     22630     22635     22637
     22634     22630     22635     22639     22634     22632     22642     22639
     22634     22632     22642     22643     22634     22632     22642     22644
     22634     22632     22646     22647     22634     22632     22646     22648
     22634     22632     22646     22649     22635     22639     22641     22651
     22635     22639     22642     22643     22635     22639     22642     22644
     22636     22635     22637     22638     22636     22635     22639     22640
     22636     22635     22639     22641     22636     22635     22639     22642
     22637     22635     22639     22640     22637     22635     22639     22641
     22637     22635     22639     22642     22638     22637     22635     22639
     22639     22641     22651     22652     22639     22641     22651     22655
     22639     22641     22651     22656     22639     22642     22632     22646
     22639     22642     22644     22645     22640     22639     22641     22651
     22640     22639     22642     22643     22640     22639     22642     22644
     22641     22639     22642     22643     22641     22639     22642     22644
     22641     22651     22655     22653     22641     22651     22656     22657
     22641     22651     22656     22658     22641     22651     22656     22659
     22642     22632     22646     22647     22642     22632     22646     22648
     22642     22632     22646     22649     22642     22639     22641     22651
     22643     22642     22632     22646     22643     22642     22644     22645
     22644     22642     22632     22646     22647     22646     22649     22650
     22648     22646     22649     22650     22651     22655     22653     22654
     22651     22655     22653     22662     22651     22655     22653     22666
     22651     22656     22658     22671     22651     22656     22659     22660
     22651     22656     22659     22661     22651     22656     22659     22662
     22652     22651     22655     22653     22652     22651     22656     22657
     22652     22651     22656     22658     22652     22651     22656     22659
     22653     22655     22651     22656     22653     22662     22659     22656
     22653     22662     22659     22660     22653     22662     22659     22661
     22653     22662     22664     22665     22653     22666     22669     22670
     22654     22653     22662     22659     22654     22653     22662     22663
     22654     22653     22662     22664     22654     22653     22666     22667
     22654     22653     22666     22668     22654     22653     22666     22669
     22655     22651     22656     22657     22655     22651     22656     22658
     22655     22651     22656     22659     22655     22653     22662     22659
     22655     22653     22662     22663     22655     22653     22662     22664
     22655     22653     22666     22667     22655     22653     22666     22668
     22655     22653     22666     22669     22656     22658     22671     22672
     22656     22658     22671     22675     22656     22658     22671     22676
     22656     22659     22661     22714     22656     22659     22662     22663
     22656     22659     22662     22664     22657     22656     22658     22671
     22657     22656     22659     22660     22657     22656     22659     22661
     22657     22656     22659     22662     22658     22656     22659     22660
     22658     22656     22659     22661     22658     22656     22659     22662
     22658     22671     22675     22673     22658     22671     22676     22677
     22658     22671     22676     22678     22658     22671     22676     22679
     22659     22656     22658     22671     22659     22661     22714     22715
     22659     22661     22714     22718     22659     22661     22714     22719
     22659     22662     22653     22666     22659     22662     22664     22665
     22660     22659     22661     22714     22660     22659     22662     22663
     22660     22659     22662     22664     22661     22659     22662     22663
     22661     22659     22662     22664     22661     22714     22718     22716
     22661     22714     22719     22720     22661     22714     22719     22721
     22661     22714     22719     22723     22662     22653     22666     22667
     22662     22653     22666     22668     22662     22653     22666     22669
     22662     22659     22661     22714     22663     22662     22653     22666
     22663     22662     22664     22665     22664     22662     22653     22666
     22667     22666     22669     22670     22668     22666     22669     22670
     22671     22675     22673     22674     22671     22675     22673     22683
     22671     22675     22673     22687     22671     22676     22678     22692
     22671     22676     22679     22680     22671     22676     22679     22681
     22671     22676     22679     22683     22672     22671     22675     22673
     22672     22671     22676     22677     22672     22671     22676     22678
     22672     22671     22676     22679     22673     22675     22671     22676
     22673     22683     22679     22676     22673     22683     22679     22680
     22673     22683     22679     22681     22673     22683     22685     22686
     22673     22687     22690     22691     22674     22673     22683     22679
     22674     22673     22683     22684     22674     22673     22683     22685
     22674     22673     22687     22688     22674     22673     22687     22689
     22674     22673     22687     22690     22675     22671     22676     22677
     22675     22671     22676     22678     22675     22671     22676     22679
     22675     22673     22683     22679     22675     22673     22683     22684
     22675     22673     22683     22685     22675     22673     22687     22688
     22675     22673     22687     22689     22675     22673     22687     22690
     22676     22678     22692     22693     22676     22678     22692     22696
     22676     22678     22692     22697     22676     22679     22681     22682
     22676     22679     22683     22684     22676     22679     22683     22685
     22677     22676     22678     22692     22677     22676     22679     22680
     22677     22676     22679     22681     22677     22676     22679     22683
     22678     22676     22679     22680     22678     22676     22679     22681
     22678     22676     22679     22683     22678     22692     22696     22694
     22678     22692     22697     22698     22678     22692     22697     22699
     22678     22692     22697     22701     22679     22676     22678     22692
     22679     22683     22673     22687     22679     22683     22685     22686
     22680     22679     22681     22682     22680     22679     22683     22684
     22680     22679     22683     22685     22681     22679     22683     22684
     22681     22679     22683     22685     22682     22681     22679     22683
     22683     22673     22687     22688     22683     22673     22687     22689
     22683     22673     22687     22690     22684     22683     22673     22687
     22684     22683     22685     22686     22685     22683     22673     22687
     22688     22687     22690     22691     22689     22687     22690     22691
     22692     22696     22694     22695     22692     22696     22694     22705
     22692     22696     22694     22709     22692     22697     22699     22700
     22692     22697     22701     22702     22692     22697     22701     22703
     22692     22697     22701     22705     22693     22692     22696     22694
     22693     22692     22697     22698     22693     22692     22697     22699
     22693     22692     22697     22701     22694     22696     22692     22697
     22694     22705     22701     22697     22694     22705     22701     22702
     22694     22705     22701     22703     22694     22705     22707     22708
     22694     22709     22712     22713     22695     22694     22705     22701
     22695     22694     22705     22706     22695     22694     22705     22707
     22695     22694     22709     22710     22695     22694     22709     22711
     22695     22694     22709     22712     22696     22692     22697     22698
     22696     22692     22697     22699     22696     22692     22697     22701
     22696     22694     22705     22701     22696     22694     22705     22706
     22696     22694     22705     22707     22696     22694     22709     22710
     22696     22694     22709     22711     22696     22694     22709     22712
     22697     22701     22703     22704     22697     22701     22705     22706
     22697     22701     22705     22707     22698     22697     22699     22700
     22698     22697     22701     22702     22698     22697     22701     22703
     22698     22697     22701     22705     22699     22697     22701     22702
     22699     22697     22701     22703     22699     22697     22701     22705
     22700     22699     22697     22701     22701     22705     22694     22709
     22701     22705     22707     22708     22702     22701     22703     22704
     22702     22701     22705     22706     22702     22701     22705     22707
     22703     22701     22705     22706     22703     22701     22705     22707
     22704     22703     22701     22705     22705     22694     22709     22710
     22705     22694     22709     22711     22705     22694     22709     22712
     22706     22705     22694     22709     22706     22705     22707     22708
     22707     22705     22694     22709     22710     22709     22712     22713
     22711     22709     22712     22713     22714     22718     22716     22717
     22714     22718     22716     22726     22714     22718     22716     22730
     22714     22719     22721     22722     22714     22719     22723     22724
     22714     22719     22723     22725     22714     22719     22723     22726
     22715     22714     22718     22716     22715     22714     22719     22720
     22715     22714     22719     22721     22715     22714     22719     22723
     22716     22718     22714     22719     22716     22726     22723     22719
     22716     22726     22723     22724     22716     22726     22723     22725
     22716     22726     22728     22729     22716     22730     22733     22734
     22717     22716     22726     22723     22717     22716     22726     22727
     22717     22716     22726     22728     22717     22716     22730     22731
     22717     22716     22730     22732     22717     22716     22730     22733
     22718     22714     22719     22720     22718     22714     22719     22721
     22718     22714     22719     22723     22718     22716     22726     22723
     22718     22716     22726     22727     22718     22716     22726     22728
     22718     22716     22730     22731     22718     22716     22730     22732
     22718     22716     22730     22733     22719     22723     22725     22735
     22719     22723     22726     22727     22719     22723     22726     22728
     22720     22719     22721     22722     22720     22719     22723     22724
     22720     22719     22723     22725     22720     22719     22723     22726
     22721     22719     22723     22724     22721     22719     22723     22725
     22721     22719     22723     22726     22722     22721     22719     22723
     22723     22725     22735     22736     22723     22725     22735     22739
     22723     22725     22735     22740     22723     22726     22716     22730
     22723     22726     22728     22729     22724     22723     22725     22735
     22724     22723     22726     22727     22724     22723     22726     22728
     22725     22723     22726     22727     22725     22723     22726     22728
     22725     22735     22739     22737     22725     22735     22740     22741
     22725     22735     22740     22742     22725     22735     22740     22750
     22726     22716     22730     22731     22726     22716     22730     22732
     22726     22716     22730     22733     22726     22723     22725     22735
     22727     22726     22716     22730     22727     22726     22728     22729
     22728     22726     22716     22730     22731     22730     22733     22734
     22732     22730     22733     22734     22735     22739     22737     22738
     22735     22739     22737     22753     22735     22739     22737     22757
     22735     22740     22742     22743     22735     22740     22742     22744
     22735     22740     22750     22751     22735     22740     22750     22752
     22735     22740     22750     22753     22736     22735     22739     22737
     22736     22735     22740     22741     22736     22735     22740     22742
     22736     22735     22740     22750     22737     22739     22735     22740
     22737     22753     22750     22740     22737     22753     22750     22751
     22737     22753     22750     22752     22737     22753     22755     22756
     22737     22757     22760     22761     22738     22737     22753     22750
     22738     22737     22753     22754     22738     22737     22753     22755
     22738     22737     22757     22758     22738     22737     22757     22759
     22738     22737     22757     22760     22739     22735     22740     22741
     22739     22735     22740     22742     22739     22735     22740     22750
     22739     22737     22753     22750     22739     22737     22753     22754
     22739     22737     22753     22755     22739     22737     22757     22758
     22739     22737     22757     22759     22739     22737     22757     22760
     22740     22742     22744     22745     22740     22742     22744     22746
     22740     22750     22752     22762     22740     22750     22753     22754
     22740     22750     22753     22755     22741     22740     22742     22743
     22741     22740     22742     22744     22741     22740     22750     22751
     22741     22740     22750     22752     22741     22740     22750     22753
     22742     22740     22750     22751     22742     22740     22750     22752
     22742     22740     22750     22753     22742     22744     22746     22747
     22742     22744     22746     22748     22742     22744     22746     22749
     22743     22742     22740     22750     22743     22742     22744     22745
     22743     22742     22744     22746     22744     22742     22740     22750
     22745     22744     22746     22747     22745     22744     22746     22748
     22745     22744     22746     22749     22750     22752     22762     22763
     22750     22752     22762     22766     22750     22752     22762     22767
     22750     22753     22737     22757     22750     22753     22755     22756
     22751     22750     22752     22762     22751     22750     22753     22754
     22751     22750     22753     22755     22752     22750     22753     22754
     22752     22750     22753     22755     22752     22762     22766     22764
     22752     22762     22767     22768     22752     22762     22767     22769
     22752     22762     22767     22770     22753     22737     22757     22758
     22753     22737     22757     22759     22753     22737     22757     22760
     22753     22750     22752     22762     22754     22753     22737     22757
     22754     22753     22755     22756     22755     22753     22737     22757
     22758     22757     22760     22761     22759     22757     22760     22761
     22762     22766     22764     22765     22762     22766     22764     22774
     22762     22766     22764     22778     22762     22767     22769     22783
     22762     22767     22770     22771     22762     22767     22770     22772
     22762     22767     22770     22774     22763     22762     22766     22764
     22763     22762     22767     22768     22763     22762     22767     22769
     22763     22762     22767     22770     22764     22766     22762     22767
     22764     22774     22770     22767     22764     22774     22770     22771
     22764     22774     22770     22772     22764     22774     22776     22777
     22764     22778     22781     22782     22765     22764     22774     22770
     22765     22764     22774     22775     22765     22764     22774     22776
     22765     22764     22778     22779     22765     22764     22778     22780
     22765     22764     22778     22781     22766     22762     22767     22768
     22766     22762     22767     22769     22766     22762     22767     22770
     22766     22764     22774     22770     22766     22764     22774     22775
     22766     22764     22774     22776     22766     22764     22778     22779
     22766     22764     22778     22780     22766     22764     22778     22781
     22767     22769     22783     22784     22767     22769     22783     22787
     22767     22769     22783     22788     22767     22770     22772     22773
     22767     22770     22774     22775     22767     22770     22774     22776
     22768     22767     22769     22783     22768     22767     22770     22771
     22768     22767     22770     22772     22768     22767     22770     22774
     22769     22767     22770     22771     22769     22767     22770     22772
     22769     22767     22770     22774     22769     22783     22787     22785
     22769     22783     22788     22789     22769     22783     22788     22790
     22769     22783     22788     22791     22770     22767     22769     22783
     22770     22774     22764     22778     22770     22774     22776     22777
     22771     22770     22772     22773     22771     22770     22774     22775
     22771     22770     22774     22776     22772     22770     22774     22775
     22772     22770     22774     22776     22773     22772     22770     22774
     22774     22764     22778     22779     22774     22764     22778     22780
     22774     22764     22778     22781     22775     22774     22764     22778
     22775     22774     22776     22777     22776     22774     22764     22778
     22779     22778     22781     22782     22780     22778     22781     22782
     22783     22787     22785     22786     22783     22787     22785     22795
     22783     22787     22785     22799     22783     22788     22790     22803
     22783     22788     22791     22792     22783     22788     22791     22793
     22783     22788     22791     22795     22784     22783     22787     22785
     22784     22783     22788     22789     22784     22783     22788     22790
     22784     22783     22788     22791     22785     22787     22783     22788
     22785     22795     22791     22788     22785     22795     22791     22792
     22785     22795     22791     22793     22785     22795     22797     22798
     22786     22785     22795     22791     22786     22785     22795     22796
     22786     22785     22795     22797     22786     22785     22799     22800
     22786     22785     22799     22801     22786     22785     22799     22802
     22787     22783     22788     22789     22787     22783     22788     22790
     22787     22783     22788     22791     22787     22785     22795     22791
     22787     22785     22795     22796     22787     22785     22795     22797
     22787     22785     22799     22800     22787     22785     22799     22801
     22787     22785     22799     22802     22788     22790     22803     22804
     22788     22790     22803     22807     22788     22790     22803     22808
     22788     22791     22793     22794     22788     22791     22795     22796
     22788     22791     22795     22797     22789     22788     22790     22803
     22789     22788     22791     22792     22789     22788     22791     22793
     22789     22788     22791     22795     22790     22788     22791     22792
     22790     22788     22791     22793     22790     22788     22791     22795
     22790     22803     22807     22805     22790     22803     22808     22809
     22790     22803     22808     22810     22790     22803     22808     22811
     22791     22788     22790     22803     22791     22795     22785     22799
     22791     22795     22797     22798     22792     22791     22793     22794
     22792     22791     22795     22796     22792     22791     22795     22797
     22793     22791     22795     22796     22793     22791     22795     22797
     22794     22793     22791     22795     22795     22785     22799     22800
     22795     22785     22799     22801     22795     22785     22799     22802
     22796     22795     22785     22799     22796     22795     22797     22798
     22797     22795     22785     22799     22803     22807     22805     22806
     22803     22807     22805     22814     22803     22807     22805     22818
     22803     22808     22810     22822     22803     22808     22811     22812
     22803     22808     22811     22813     22803     22808     22811     22814
     22804     22803     22807     22805     22804     22803     22808     22809
     22804     22803     22808     22810     22804     22803     22808     22811
     22805     22807     22803     22808     22805     22814     22811     22808
     22805     22814     22811     22812     22805     22814     22811     22813
     22805     22814     22816     22817     22806     22805     22814     22811
     22806     22805     22814     22815     22806     22805     22814     22816
     22806     22805     22818     22819     22806     22805     22818     22820
     22806     22805     22818     22821     22807     22803     22808     22809
     22807     22803     22808     22810     22807     22803     22808     22811
     22807     22805     22814     22811     22807     22805     22814     22815
     22807     22805     22814     22816     22807     22805     22818     22819
     22807     22805     22818     22820     22807     22805     22818     22821
     22808     22810     22822     22823     22808     22810     22822     22826
     22808     22810     22822     22827     22808     22811     22813     22850
     22808     22811     22814     22815     22808     22811     22814     22816
     22809     22808     22810     22822     22809     22808     22811     22812
     22809     22808     22811     22813     22809     22808     22811     22814
     22810     22808     22811     22812     22810     22808     22811     22813
     22810     22808     22811     22814     22810     22822     22826     22824
     22810     22822     22827     22828     22810     22822     22827     22829
     22810     22822     22827     22837     22811     22808     22810     22822
     22811     22813     22850     22851     22811     22813     22850     22854
     22811     22813     22850     22855     22811     22814     22805     22818
     22811     22814     22816     22817     22812     22811     22813     22850
     22812     22811     22814     22815     22812     22811     22814     22816
     22813     22811     22814     22815     22813     22811     22814     22816
     22813     22850     22854     22852     22813     22850     22855     22856
     22813     22850     22855     22857     22813     22850     22855     22865
     22814     22805     22818     22819     22814     22805     22818     22820
     22814     22805     22818     22821     22814     22811     22813     22850
     22815     22814     22805     22818     22815     22814     22816     22817
     22816     22814     22805     22818     22822     22826     22824     22825
     22822     22826     22824     22841     22822     22826     22824     22845
     22822     22827     22829     22830     22822     22827     22829     22831
     22822     22827     22837     22838     22822     22827     22837     22839
     22822     22827     22837     22841     22823     22822     22826     22824
     22823     22822     22827     22828     22823     22822     22827     22829
     22823     22822     22827     22837     22824     22826     22822     22827
     22824     22841     22837     22827     22824     22841     22837     22838
     22824     22841     22837     22839     22824     22841     22843     22844
     22824     22845     22848     22849     22825     22824     22841     22837
     22825     22824     22841     22842     22825     22824     22841     22843
     22825     22824     22845     22846     22825     22824     22845     22847
     22825     22824     22845     22848     22826     22822     22827     22828
     22826     22822     22827     22829     22826     22822     22827     22837
     22826     22824     22841     22837     22826     22824     22841     22842
     22826     22824     22841     22843     22826     22824     22845     22846
     22826     22824     22845     22847     22826     22824     22845     22848
     22827     22829     22831     22832     22827     22829     22831     22833
     22827     22837     22839     22840     22827     22837     22841     22842
     22827     22837     22841     22843     22828     22827     22829     22830
     22828     22827     22829     22831     22828     22827     22837     22838
     22828     22827     22837     22839     22828     22827     22837     22841
     22829     22827     22837     22838     22829     22827     22837     22839
     22829     22827     22837     22841     22829     22831     22833     22834
     22829     22831     22833     22835     22829     22831     22833     22836
     22830     22829     22827     22837     22830     22829     22831     22832
     22830     22829     22831     22833     22831     22829     22827     22837
     22832     22831     22833     22834     22832     22831     22833     22835
     22832     22831     22833     22836     22837     22841     22824     22845
     22837     22841     22843     22844     22838     22837     22839     22840
     22838     22837     22841     22842     22838     22837     22841     22843
     22839     22837     22841     22842     22839     22837     22841     22843
     22840     22839     22837     22841     22841     22824     22845     22846
     22841     22824     22845     22847     22841     22824     22845     22848
     22842     22841     22824     22845     22842     22841     22843     22844
     22843     22841     22824     22845     22846     22845     22848     22849
     22847     22845     22848     22849     22850     22854     22852     22853
     22850     22854     22852     22868     22850     22854     22852     22872
     22850     22855     22857     22858     22850     22855     22857     22859
     22850     22855     22865     22866     22850     22855     22865     22867
     22850     22855     22865     22868     22851     22850     22854     22852
     22851     22850     22855     22856     22851     22850     22855     22857
     22851     22850     22855     22865     22852     22854     22850     22855
     22852     22868     22865     22855     22852     22868     22865     22866
     22852     22868     22865     22867     22852     22868     22870     22871
     22852     22872     22875     22876     22853     22852     22868     22865
     22853     22852     22868     22869     22853     22852     22868     22870
     22853     22852     22872     22873     22853     22852     22872     22874
     22853     22852     22872     22875     22854     22850     22855     22856
     22854     22850     22855     22857     22854     22850     22855     22865
     22854     22852     22868     22865     22854     22852     22868     22869
     22854     22852     22868     22870     22854     22852     22872     22873
     22854     22852     22872     22874     22854     22852     22872     22875
     22855     22857     22859     22860     22855     22857     22859     22861
     22855     22865     22867     22877     22855     22865     22868     22869
     22855     22865     22868     22870     22856     22855     22857     22858
     22856     22855     22857     22859     22856     22855     22865     22866
     22856     22855     22865     22867     22856     22855     22865     22868
     22857     22855     22865     22866     22857     22855     22865     22867
     22857     22855     22865     22868     22857     22859     22861     22862
     22857     22859     22861     22863     22857     22859     22861     22864
     22858     22857     22855     22865     22858     22857     22859     22860
     22858     22857     22859     22861     22859     22857     22855     22865
     22860     22859     22861     22862     22860     22859     22861     22863
     22860     22859     22861     22864     22865     22867     22877     22878
     22865     22867     22877     22881     22865     22867     22877     22882
     22865     22868     22852     22872     22865     22868     22870     22871
     22866     22865     22867     22877     22866     22865     22868     22869
     22866     22865     22868     22870     22867     22865     22868     22869
     22867     22865     22868     22870     22867     22877     22881     22879
     22867     22877     22882     22883     22867     22877     22882     22884
     22867     22877     22882     22885     22868     22852     22872     22873
     22868     22852     22872     22874     22868     22852     22872     22875
     22868     22865     22867     22877     22869     22868     22852     22872
     22869     22868     22870     22871     22870     22868     22852     22872
     22873     22872     22875     22876     22874     22872     22875     22876
     22877     22881     22879     22880     22877     22881     22879     22889
     22877     22881     22879     22893     22877     22882     22884     22898
     22877     22882     22885     22886     22877     22882     22885     22887
     22877     22882     22885     22889     22878     22877     22881     22879
     22878     22877     22882     22883     22878     22877     22882     22884
     22878     22877     22882     22885     22879     22881     22877     22882
     22879     22889     22885     22882     22879     22889     22885     22886
     22879     22889     22885     22887     22879     22889     22891     22892
     22879     22893     22896     22897     22880     22879     22889     22885
     22880     22879     22889     22890     22880     22879     22889     22891
     22880     22879     22893     22894     22880     22879     22893     22895
     22880     22879     22893     22896     22881     22877     22882     22883
     22881     22877     22882     22884     22881     22877     22882     22885
     22881     22879     22889     22885     22881     22879     22889     22890
     22881     22879     22889     22891     22881     22879     22893     22894
     22881     22879     22893     22895     22881     22879     22893     22896
     22882     22884     22898     22899     22882     22884     22898     22902
     22882     22884     22898     22903     22882     22885     22887     22888
     22882     22885     22889     22890     22882     22885     22889     22891
     22883     22882     22884     22898     22883     22882     22885     22886
     22883     22882     22885     22887     22883     22882     22885     22889
     22884     22882     22885     22886     22884     22882     22885     22887
     22884     22882     22885     22889     22884     22898     22902     22900
     22884     22898     22903     22904     22884     22898     22903     22905
     22884     22898     22903     22906     22885     22882     22884     22898
     22885     22889     22879     22893     22885     22889     22891     22892
     22886     22885     22887     22888     22886     22885     22889     22890
     22886     22885     22889     22891     22887     22885     22889     22890
     22887     22885     22889     22891     22888     22887     22885     22889
     22889     22879     22893     22894     22889     22879     22893     22895
     22889     22879     22893     22896     22890     22889     22879     22893
     22890     22889     22891     22892     22891     22889     22879     22893
     22894     22893     22896     22897     22895     22893     22896     22897
     22898     22902     22900     22901     22898     22902     22900     22910
     22898     22902     22900     22914     22898     22903     22905     22918
     22898     22903     22906     22907     22898     22903     22906     22908
     22898     22903     22906     22910     22899     22898     22902     22900
     22899     22898     22903     22904     22899     22898     22903     22905
     22899     22898     22903     22906     22900     22902     22898     22903
     22900     22910     22906     22903     22900     22910     22906     22907
     22900     22910     22906     22908     22900     22910     22912     22913
     22901     22900     22910     22906     22901     22900     22910     22911
     22901     22900     22910     22912     22901     22900     22914     22915
     22901     22900     22914     22916     22901     22900     22914     22917
     22902     22898     22903     22904     22902     22898     22903     22905
     22902     22898     22903     22906     22902     22900     22910     22906
     22902     22900     22910     22911     22902     22900     22910     22912
     22902     22900     22914     22915     22902     22900     22914     22916
     22902     22900     22914     22917     22903     22905     22918     22919
     22903     22905     22918     22922     22903     22905     22918     22923
     22903     22906     22908     22909     22903     22906     22910     22911
     22903     22906     22910     22912     22904     22903     22905     22918
     22904     22903     22906     22907     22904     22903     22906     22908
     22904     22903     22906     22910     22905     22903     22906     22907
     22905     22903     22906     22908     22905     22903     22906     22910
     22905     22918     22922     22920     22905     22918     22923     22924
     22905     22918     22923     22925     22905     22918     22923     22926
     22906     22903     22905     22918     22906     22910     22900     22914
     22906     22910     22912     22913     22907     22906     22908     22909
     22907     22906     22910     22911     22907     22906     22910     22912
     22908     22906     22910     22911     22908     22906     22910     22912
     22909     22908     22906     22910     22910     22900     22914     22915
     22910     22900     22914     22916     22910     22900     22914     22917
     22911     22910     22900     22914     22911     22910     22912     22913
     22912     22910     22900     22914     22918     22922     22920     22921
     22918     22922     22920     22929     22918     22922     22920     22933
     22918     22923     22925     22937     22918     22923     22926     22927
     22918     22923     22926     22928     22918     22923     22926     22929
     22919     22918     22922     22920     22919     22918     22923     22924
     22919     22918     22923     22925     22919     22918     22923     22926
     22920     22922     22918     22923     22920     22929     22926     22923
     22920     22929     22926     22927     22920     22929     22926     22928
     22920     22929     22931     22932     22921     22920     22929     22926
     22921     22920     22929     22930     22921     22920     22929     22931
     22921     22920     22933     22934     22921     22920     22933     22935
     22921     22920     22933     22936     22922     22918     22923     22924
     22922     22918     22923     22925     22922     22918     22923     22926
     22922     22920     22929     22926     22922     22920     22929     22930
     22922     22920     22929     22931     22922     22920     22933     22934
     22922     22920     22933     22935     22922     22920     22933     22936
     22923     22925     22937     22938     22923     22925     22937     22941
     22923     22925     22937     22942     22923     22926     22928     22965
     22923     22926     22929     22930     22923     22926     22929     22931
     22924     22923     22925     22937     22924     22923     22926     22927
     22924     22923     22926     22928     22924     22923     22926     22929
     22925     22923     22926     22927     22925     22923     22926     22928
     22925     22923     22926     22929     22925     22937     22941     22939
     22925     22937     22942     22943     22925     22937     22942     22944
     22925     22937     22942     22952     22926     22923     22925     22937
     22926     22928     22965     22966     22926     22928     22965     22969
     22926     22928     22965     22970     22926     22929     22920     22933
     22926     22929     22931     22932     22927     22926     22928     22965
     22927     22926     22929     22930     22927     22926     22929     22931
     22928     22926     22929     22930     22928     22926     22929     22931
     22928     22965     22969     22967     22928     22965     22970     22971
     22928     22965     22970     22972     22928     22965     22970     22980
     22929     22920     22933     22934     22929     22920     22933     22935
     22929     22920     22933     22936     22929     22926     22928     22965
     22930     22929     22920     22933     22930     22929     22931     22932
     22931     22929     22920     22933     22937     22941     22939     22940
     22937     22941     22939     22956     22937     22941     22939     22960
     22937     22942     22944     22945     22937     22942     22944     22946
     22937     22942     22952     22953     22937     22942     22952     22954
     22937     22942     22952     22956     22938     22937     22941     22939
     22938     22937     22942     22943     22938     22937     22942     22944
     22938     22937     22942     22952     22939     22941     22937     22942
     22939     22956     22952     22942     22939     22956     22952     22953
     22939     22956     22952     22954     22939     22956     22958     22959
     22939     22960     22963     22964     22940     22939     22956     22952
     22940     22939     22956     22957     22940     22939     22956     22958
     22940     22939     22960     22961     22940     22939     22960     22962
     22940     22939     22960     22963     22941     22937     22942     22943
     22941     22937     22942     22944     22941     22937     22942     22952
     22941     22939     22956     22952     22941     22939     22956     22957
     22941     22939     22956     22958     22941     22939     22960     22961
     22941     22939     22960     22962     22941     22939     22960     22963
     22942     22944     22946     22947     22942     22944     22946     22948
     22942     22952     22954     22955     22942     22952     22956     22957
     22942     22952     22956     22958     22943     22942     22944     22945
     22943     22942     22944     22946     22943     22942     22952     22953
     22943     22942     22952     22954     22943     22942     22952     22956
     22944     22942     22952     22953     22944     22942     22952     22954
     22944     22942     22952     22956     22944     22946     22948     22949
     22944     22946     22948     22950     22944     22946     22948     22951
     22945     22944     22942     22952     22945     22944     22946     22947
     22945     22944     22946     22948     22946     22944     22942     22952
     22947     22946     22948     22949     22947     22946     22948     22950
     22947     22946     22948     22951     22952     22956     22939     22960
     22952     22956     22958     22959     22953     22952     22954     22955
     22953     22952     22956     22957     22953     22952     22956     22958
     22954     22952     22956     22957     22954     22952     22956     22958
     22955     22954     22952     22956     22956     22939     22960     22961
     22956     22939     22960     22962     22956     22939     22960     22963
     22957     22956     22939     22960     22957     22956     22958     22959
     22958     22956     22939     22960     22961     22960     22963     22964
     22962     22960     22963     22964     22965     22969     22967     22968
     22965     22969     22967     22983     22965     22969     22967     22987
     22965     22970     22972     22973     22965     22970     22972     22974
     22965     22970     22980     22981     22965     22970     22980     22982
     22965     22970     22980     22983     22966     22965     22969     22967
     22966     22965     22970     22971     22966     22965     22970     22972
     22966     22965     22970     22980     22967     22969     22965     22970
     22967     22983     22980     22970     22967     22983     22980     22981
     22967     22983     22980     22982     22967     22983     22985     22986
     22967     22987     22990     22991     22968     22967     22983     22980
     22968     22967     22983     22984     22968     22967     22983     22985
     22968     22967     22987     22988     22968     22967     22987     22989
     22968     22967     22987     22990     22969     22965     22970     22971
     22969     22965     22970     22972     22969     22965     22970     22980
     22969     22967     22983     22980     22969     22967     22983     22984
     22969     22967     22983     22985     22969     22967     22987     22988
     22969     22967     22987     22989     22969     22967     22987     22990
     22970     22972     22974     22975     22970     22972     22974     22976
     22970     22980     22982     22992     22970     22980     22983     22984
     22970     22980     22983     22985     22971     22970     22972     22973
     22971     22970     22972     22974     22971     22970     22980     22981
     22971     22970     22980     22982     22971     22970     22980     22983
     22972     22970     22980     22981     22972     22970     22980     22982
     22972     22970     22980     22983     22972     22974     22976     22977
     22972     22974     22976     22978     22972     22974     22976     22979
     22973     22972     22970     22980     22973     22972     22974     22975
     22973     22972     22974     22976     22974     22972     22970     22980
     22975     22974     22976     22977     22975     22974     22976     22978
     22975     22974     22976     22979     22980     22982     22992     22993
     22980     22982     22992     22996     22980     22982     22992     22997
     22980     22983     22967     22987     22980     22983     22985     22986
     22981     22980     22982     22992     22981     22980     22983     22984
     22981     22980     22983     22985     22982     22980     22983     22984
     22982     22980     22983     22985     22982     22992     22996     22994
     22982     22992     22997     22998     22982     22992     22997     22999
     22982     22992     22997     23000     22983     22967     22987     22988
     22983     22967     22987     22989     22983     22967     22987     22990
     22983     22980     22982     22992     22984     22983     22967     22987
     22984     22983     22985     22986     22985     22983     22967     22987
     22988     22987     22990     22991     22989     22987     22990     22991
     22992     22996     22994     22995     22992     22996     22994     23004
     22992     22996     22994     23008     22992     22997     22999     23013
     22992     22997     23000     23001     22992     22997     23000     23002
     22992     22997     23000     23004     22993     22992     22996     22994
     22993     22992     22997     22998     22993     22992     22997     22999
     22993     22992     22997     23000     22994     22996     22992     22997
     22994     23004     23000     22997     22994     23004     23000     23001
     22994     23004     23000     23002     22994     23004     23006     23007
     22994     23008     23011     23012     22995     22994     23004     23000
     22995     22994     23004     23005     22995     22994     23004     23006
     22995     22994     23008     23009     22995     22994     23008     23010
     22995     22994     23008     23011     22996     22992     22997     22998
     22996     22992     22997     22999     22996     22992     22997     23000
     22996     22994     23004     23000     22996     22994     23004     23005
     22996     22994     23004     23006     22996     22994     23008     23009
     22996     22994     23008     23010     22996     22994     23008     23011
     22997     22999     23013     23014     22997     22999     23013     23017
     22997     22999     23013     23018     22997     23000     23002     23003
     22997     23000     23004     23005     22997     23000     23004     23006
     22998     22997     22999     23013     22998     22997     23000     23001
     22998     22997     23000     23002     22998     22997     23000     23004
     22999     22997     23000     23001     22999     22997     23000     23002
     22999     22997     23000     23004     22999     23013     23017     23015
     22999     23013     23018     23019     22999     23013     23018     23020
     22999     23013     23018     23021     23000     22997     22999     23013
     23000     23004     22994     23008     23000     23004     23006     23007
     23001     23000     23002     23003     23001     23000     23004     23005
     23001     23000     23004     23006     23002     23000     23004     23005
     23002     23000     23004     23006     23003     23002     23000     23004
     23004     22994     23008     23009     23004     22994     23008     23010
     23004     22994     23008     23011     23005     23004     22994     23008
     23005     23004     23006     23007     23006     23004     22994     23008
     23009     23008     23011     23012     23010     23008     23011     23012
     23013     23017     23015     23016     23013     23017     23015     23025
     23013     23017     23015     23029     23013     23018     23020     23033
     23013     23018     23021     23022     23013     23018     23021     23023
     23013     23018     23021     23025     23014     23013     23017     23015
     23014     23013     23018     23019     23014     23013     23018     23020
     23014     23013     23018     23021     23015     23017     23013     23018
     23015     23025     23021     23018     23015     23025     23021     23022
     23015     23025     23021     23023     23015     23025     23027     23028
     23016     23015     23025     23021     23016     23015     23025     23026
     23016     23015     23025     23027     23016     23015     23029     23030
     23016     23015     23029     23031     23016     23015     23029     23032
     23017     23013     23018     23019     23017     23013     23018     23020
     23017     23013     23018     23021     23017     23015     23025     23021
     23017     23015     23025     23026     23017     23015     23025     23027
     23017     23015     23029     23030     23017     23015     23029     23031
     23017     23015     23029     23032     23018     23020     23033     23034
     23018     23020     23033     23037     23018     23020     23033     23038
     23018     23021     23023     23024     23018     23021     23025     23026
     23018     23021     23025     23027     23019     23018     23020     23033
     23019     23018     23021     23022     23019     23018     23021     23023
     23019     23018     23021     23025     23020     23018     23021     23022
     23020     23018     23021     23023     23020     23018     23021     23025
     23020     23033     23037     23035     23020     23033     23038     23039
     23020     23033     23038     23040     23020     23033     23038     23041
     23021     23018     23020     23033     23021     23025     23015     23029
     23021     23025     23027     23028     23022     23021     23023     23024
     23022     23021     23025     23026     23022     23021     23025     23027
     23023     23021     23025     23026     23023     23021     23025     23027
     23024     23023     23021     23025     23025     23015     23029     23030
     23025     23015     23029     23031     23025     23015     23029     23032
     23026     23025     23015     23029     23026     23025     23027     23028
     23027     23025     23015     23029     23033     23037     23035     23036
     23033     23037     23035     23044     23033     23037     23035     23048
     23033     23038     23040     23052     23033     23038     23041     23042
     23033     23038     23041     23043     23033     23038     23041     23044
     23034     23033     23037     23035     23034     23033     23038     23039
     23034     23033     23038     23040     23034     23033     23038     23041
     23035     23037     23033     23038     23035     23044     23041     23038
     23035     23044     23041     23042     23035     23044     23041     23043
     23035     23044     23046     23047     23036     23035     23044     23041
     23036     23035     23044     23045     23036     23035     23044     23046
     23036     23035     23048     23049     23036     23035     23048     23050
     23036     23035     23048     23051     23037     23033     23038     23039
     23037     23033     23038     23040     23037     23033     23038     23041
     23037     23035     23044     23041     23037     23035     23044     23045
     23037     23035     23044     23046     23037     23035     23048     23049
     23037     23035     23048     23050     23037     23035     23048     23051
     23038     23040     23052     23053     23038     23040     23052     23056
     23038     23040     23052     23057     23038     23041     23043     23080
     23038     23041     23044     23045     23038     23041     23044     23046
     23039     23038     23040     23052     23039     23038     23041     23042
     23039     23038     23041     23043     23039     23038     23041     23044
     23040     23038     23041     23042     23040     23038     23041     23043
     23040     23038     23041     23044     23040     23052     23056     23054
     23040     23052     23057     23058     23040     23052     23057     23059
     23040     23052     23057     23067     23041     23038     23040     23052
     23041     23043     23080     23081     23041     23043     23080     23084
     23041     23043     23080     23085     23041     23044     23035     23048
     23041     23044     23046     23047     23042     23041     23043     23080
     23042     23041     23044     23045     23042     23041     23044     23046
     23043     23041     23044     23045     23043     23041     23044     23046
     23043     23080     23084     23082     23043     23080     23085     23086
     23043     23080     23085     23087     23043     23080     23085     23095
     23044     23035     23048     23049     23044     23035     23048     23050
     23044     23035     23048     23051     23044     23041     23043     23080
     23045     23044     23035     23048     23045     23044     23046     23047
     23046     23044     23035     23048     23052     23056     23054     23055
     23052     23056     23054     23071     23052     23056     23054     23075
     23052     23057     23059     23060     23052     23057     23059     23061
     23052     23057     23067     23068     23052     23057     23067     23069
     23052     23057     23067     23071     23053     23052     23056     23054
     23053     23052     23057     23058     23053     23052     23057     23059
     23053     23052     23057     23067     23054     23056     23052     23057
     23054     23071     23067     23057     23054     23071     23067     23068
     23054     23071     23067     23069     23054     23071     23073     23074
     23054     23075     23078     23079     23055     23054     23071     23067
     23055     23054     23071     23072     23055     23054     23071     23073
     23055     23054     23075     23076     23055     23054     23075     23077
     23055     23054     23075     23078     23056     23052     23057     23058
     23056     23052     23057     23059     23056     23052     23057     23067
     23056     23054     23071     23067     23056     23054     23071     23072
     23056     23054     23071     23073     23056     23054     23075     23076
     23056     23054     23075     23077     23056     23054     23075     23078
     23057     23059     23061     23062     23057     23059     23061     23063
     23057     23067     23069     23070     23057     23067     23071     23072
     23057     23067     23071     23073     23058     23057     23059     23060
     23058     23057     23059     23061     23058     23057     23067     23068
     23058     23057     23067     23069     23058     23057     23067     23071
     23059     23057     23067     23068     23059     23057     23067     23069
     23059     23057     23067     23071     23059     23061     23063     23064
     23059     23061     23063     23065     23059     23061     23063     23066
     23060     23059     23057     23067     23060     23059     23061     23062
     23060     23059     23061     23063     23061     23059     23057     23067
     23062     23061     23063     23064     23062     23061     23063     23065
     23062     23061     23063     23066     23067     23071     23054     23075
     23067     23071     23073     23074     23068     23067     23069     23070
     23068     23067     23071     23072     23068     23067     23071     23073
     23069     23067     23071     23072     23069     23067     23071     23073
     23070     23069     23067     23071     23071     23054     23075     23076
     23071     23054     23075     23077     23071     23054     23075     23078
     23072     23071     23054     23075     23072     23071     23073     23074
     23073     23071     23054     23075     23076     23075     23078     23079
     23077     23075     23078     23079     23080     23084     23082     23083
     23080     23084     23082     23098     23080     23084     23082     23102
     23080     23085     23087     23088     23080     23085     23087     23089
     23080     23085     23095     23096     23080     23085     23095     23097
     23080     23085     23095     23098     23081     23080     23084     23082
     23081     23080     23085     23086     23081     23080     23085     23087
     23081     23080     23085     23095     23082     23084     23080     23085
     23082     23098     23095     23085     23082     23098     23095     23096
     23082     23098     23095     23097     23082     23098     23100     23101
     23082     23102     23105     23106     23083     23082     23098     23095
     23083     23082     23098     23099     23083     23082     23098     23100
     23083     23082     23102     23103     23083     23082     23102     23104
     23083     23082     23102     23105     23084     23080     23085     23086
     23084     23080     23085     23087     23084     23080     23085     23095
     23084     23082     23098     23095     23084     23082     23098     23099
     23084     23082     23098     23100     23084     23082     23102     23103
     23084     23082     23102     23104     23084     23082     23102     23105
     23085     23087     23089     23090     23085     23087     23089     23091
     23085     23095     23097     23107     23085     23095     23098     23099
     23085     23095     23098     23100     23086     23085     23087     23088
     23086     23085     23087     23089     23086     23085     23095     23096
     23086     23085     23095     23097     23086     23085     23095     23098
     23087     23085     23095     23096     23087     23085     23095     23097
     23087     23085     23095     23098     23087     23089     23091     23092
     23087     23089     23091     23093     23087     23089     23091     23094
     23088     23087     23085     23095     23088     23087     23089     23090
     23088     23087     23089     23091     23089     23087     23085     23095
     23090     23089     23091     23092     23090     23089     23091     23093
     23090     23089     23091     23094     23095     23097     23107     23108
     23095     23097     23107     23111     23095     23097     23107     23112
     23095     23098     23082     23102     23095     23098     23100     23101
     23096     23095     23097     23107     23096     23095     23098     23099
     23096     23095     23098     23100     23097     23095     23098     23099
     23097     23095     23098     23100     23097     23107     23111     23109
     23097     23107     23112     23113     23097     23107     23112     23114
     23097     23107     23112     23115     23098     23082     23102     23103
     23098     23082     23102     23104     23098     23082     23102     23105
     23098     23095     23097     23107     23099     23098     23082     23102
     23099     23098     23100     23101     23100     23098     23082     23102
     23103     23102     23105     23106     23104     23102     23105     23106
     23107     23111     23109     23110     23107     23111     23109     23119
     23107     23111     23109     23123     23107     23112     23114     23128
     23107     23112     23115     23116     23107     23112     23115     23117
     23107     23112     23115     23119     23108     23107     23111     23109
     23108     23107     23112     23113     23108     23107     23112     23114
     23108     23107     23112     23115     23109     23111     23107     23112
     23109     23119     23115     23112     23109     23119     23115     23116
     23109     23119     23115     23117     23109     23119     23121     23122
     23109     23123     23126     23127     23110     23109     23119     23115
     23110     23109     23119     23120     23110     23109     23119     23121
     23110     23109     23123     23124     23110     23109     23123     23125
     23110     23109     23123     23126     23111     23107     23112     23113
     23111     23107     23112     23114     23111     23107     23112     23115
     23111     23109     23119     23115     23111     23109     23119     23120
     23111     23109     23119     23121     23111     23109     23123     23124
     23111     23109     23123     23125     23111     23109     23123     23126
     23112     23114     23128     23129     23112     23114     23128     23132
     23112     23114     23128     23133     23112     23115     23117     23118
     23112     23115     23119     23120     23112     23115     23119     23121
     23113     23112     23114     23128     23113     23112     23115     23116
     23113     23112     23115     23117     23113     23112     23115     23119
     23114     23112     23115     23116     23114     23112     23115     23117
     23114     23112     23115     23119     23114     23128     23132     23130
     23114     23128     23133     23134     23114     23128     23133     23135
     23114     23128     23133     23136     23115     23112     23114     23128
     23115     23119     23109     23123     23115     23119     23121     23122
     23116     23115     23117     23118     23116     23115     23119     23120
     23116     23115     23119     23121     23117     23115     23119     23120
     23117     23115     23119     23121     23118     23117     23115     23119
     23119     23109     23123     23124     23119     23109     23123     23125
     23119     23109     23123     23126     23120     23119     23109     23123
     23120     23119     23121     23122     23121     23119     23109     23123
     23124     23123     23126     23127     23125     23123     23126     23127
     23128     23132     23130     23131     23128     23132     23130     23140
     23128     23132     23130     23144     23128     23133     23135     23148
     23128     23133     23136     23137     23128     23133     23136     23138
     23128     23133     23136     23140     23129     23128     23132     23130
     23129     23128     23133     23134     23129     23128     23133     23135
     23129     23128     23133     23136     23130     23132     23128     23133
     23130     23140     23136     23133     23130     23140     23136     23137
     23130     23140     23136     23138     23130     23140     23142     23143
     23131     23130     23140     23136     23131     23130     23140     23141
     23131     23130     23140     23142     23131     23130     23144     23145
     23131     23130     23144     23146     23131     23130     23144     23147
     23132     23128     23133     23134     23132     23128     23133     23135
     23132     23128     23133     23136     23132     23130     23140     23136
     23132     23130     23140     23141     23132     23130     23140     23142
     23132     23130     23144     23145     23132     23130     23144     23146
     23132     23130     23144     23147     23133     23135     23148     23149
     23133     23135     23148     23152     23133     23135     23148     23153
     23133     23136     23138     23139     23133     23136     23140     23141
     23133     23136     23140     23142     23134     23133     23135     23148
     23134     23133     23136     23137     23134     23133     23136     23138
     23134     23133     23136     23140     23135     23133     23136     23137
     23135     23133     23136     23138     23135     23133     23136     23140
     23135     23148     23152     23150     23135     23148     23153     23154
     23135     23148     23153     23155     23135     23148     23153     23156
     23136     23133     23135     23148     23136     23140     23130     23144
     23136     23140     23142     23143     23137     23136     23138     23139
     23137     23136     23140     23141     23137     23136     23140     23142
     23138     23136     23140     23141     23138     23136     23140     23142
     23139     23138     23136     23140     23140     23130     23144     23145
     23140     23130     23144     23146     23140     23130     23144     23147
     23141     23140     23130     23144     23141     23140     23142     23143
     23142     23140     23130     23144     23148     23152     23150     23151
     23148     23152     23150     23159     23148     23152     23150     23163
     23148     23153     23155     23167     23148     23153     23156     23157
     23148     23153     23156     23158     23148     23153     23156     23159
     23149     23148     23152     23150     23149     23148     23153     23154
     23149     23148     23153     23155     23149     23148     23153     23156
     23150     23152     23148     23153     23150     23159     23156     23153
     23150     23159     23156     23157     23150     23159     23156     23158
     23150     23159     23161     23162     23151     23150     23159     23156
     23151     23150     23159     23160     23151     23150     23159     23161
     23151     23150     23163     23164     23151     23150     23163     23165
     23151     23150     23163     23166     23152     23148     23153     23154
     23152     23148     23153     23155     23152     23148     23153     23156
     23152     23150     23159     23156     23152     23150     23159     23160
     23152     23150     23159     23161     23152     23150     23163     23164
     23152     23150     23163     23165     23152     23150     23163     23166
     23153     23155     23167     23168     23153     23155     23167     23171
     23153     23155     23167     23172     23153     23156     23158     23195
     23153     23156     23159     23160     23153     23156     23159     23161
     23154     23153     23155     23167     23154     23153     23156     23157
     23154     23153     23156     23158     23154     23153     23156     23159
     23155     23153     23156     23157     23155     23153     23156     23158
     23155     23153     23156     23159     23155     23167     23171     23169
     23155     23167     23172     23173     23155     23167     23172     23174
     23155     23167     23172     23182     23156     23153     23155     23167
     23156     23158     23195     23196     23156     23158     23195     23199
     23156     23158     23195     23200     23156     23159     23150     23163
     23156     23159     23161     23162     23157     23156     23158     23195
     23157     23156     23159     23160     23157     23156     23159     23161
     23158     23156     23159     23160     23158     23156     23159     23161
     23158     23195     23199     23197     23158     23195     23200     23201
     23158     23195     23200     23202     23158     23195     23200     23210
     23159     23150     23163     23164     23159     23150     23163     23165
     23159     23150     23163     23166     23159     23156     23158     23195
     23160     23159     23150     23163     23160     23159     23161     23162
     23161     23159     23150     23163     23167     23171     23169     23170
     23167     23171     23169     23186     23167     23171     23169     23190
     23167     23172     23174     23175     23167     23172     23174     23176
     23167     23172     23182     23183     23167     23172     23182     23184
     23167     23172     23182     23186     23168     23167     23171     23169
     23168     23167     23172     23173     23168     23167     23172     23174
     23168     23167     23172     23182     23169     23171     23167     23172
     23169     23186     23182     23172     23169     23186     23182     23183
     23169     23186     23182     23184     23169     23186     23188     23189
     23169     23190     23193     23194     23170     23169     23186     23182
     23170     23169     23186     23187     23170     23169     23186     23188
     23170     23169     23190     23191     23170     23169     23190     23192
     23170     23169     23190     23193     23171     23167     23172     23173
     23171     23167     23172     23174     23171     23167     23172     23182
     23171     23169     23186     23182     23171     23169     23186     23187
     23171     23169     23186     23188     23171     23169     23190     23191
     23171     23169     23190     23192     23171     23169     23190     23193
     23172     23174     23176     23177     23172     23174     23176     23178
     23172     23182     23184     23185     23172     23182     23186     23187
     23172     23182     23186     23188     23173     23172     23174     23175
     23173     23172     23174     23176     23173     23172     23182     23183
     23173     23172     23182     23184     23173     23172     23182     23186
     23174     23172     23182     23183     23174     23172     23182     23184
     23174     23172     23182     23186     23174     23176     23178     23179
     23174     23176     23178     23180     23174     23176     23178     23181
     23175     23174     23172     23182     23175     23174     23176     23177
     23175     23174     23176     23178     23176     23174     23172     23182
     23177     23176     23178     23179     23177     23176     23178     23180
     23177     23176     23178     23181     23182     23186     23169     23190
     23182     23186     23188     23189     23183     23182     23184     23185
     23183     23182     23186     23187     23183     23182     23186     23188
     23184     23182     23186     23187     23184     23182     23186     23188
     23185     23184     23182     23186     23186     23169     23190     23191
     23186     23169     23190     23192     23186     23169     23190     23193
     23187     23186     23169     23190     23187     23186     23188     23189
     23188     23186     23169     23190     23191     23190     23193     23194
     23192     23190     23193     23194     23195     23199     23197     23198
     23195     23199     23197     23213     23195     23199     23197     23217
     23195     23200     23202     23203     23195     23200     23202     23204
     23195     23200     23210     23211     23195     23200     23210     23212
     23195     23200     23210     23213     23196     23195     23199     23197
     23196     23195     23200     23201     23196     23195     23200     23202
     23196     23195     23200     23210     23197     23199     23195     23200
     23197     23213     23210     23200     23197     23213     23210     23211
     23197     23213     23210     23212     23197     23213     23215     23216
     23197     23217     23220     23221     23198     23197     23213     23210
     23198     23197     23213     23214     23198     23197     23213     23215
     23198     23197     23217     23218     23198     23197     23217     23219
     23198     23197     23217     23220     23199     23195     23200     23201
     23199     23195     23200     23202     23199     23195     23200     23210
     23199     23197     23213     23210     23199     23197     23213     23214
     23199     23197     23213     23215     23199     23197     23217     23218
     23199     23197     23217     23219     23199     23197     23217     23220
     23200     23202     23204     23205     23200     23202     23204     23206
     23200     23210     23212     23222     23200     23210     23213     23214
     23200     23210     23213     23215     23201     23200     23202     23203
     23201     23200     23202     23204     23201     23200     23210     23211
     23201     23200     23210     23212     23201     23200     23210     23213
     23202     23200     23210     23211     23202     23200     23210     23212
     23202     23200     23210     23213     23202     23204     23206     23207
     23202     23204     23206     23208     23202     23204     23206     23209
     23203     23202     23200     23210     23203     23202     23204     23205
     23203     23202     23204     23206     23204     23202     23200     23210
     23205     23204     23206     23207     23205     23204     23206     23208
     23205     23204     23206     23209     23210     23212     23222     23223
     23210     23212     23222     23226     23210     23212     23222     23227
     23210     23213     23197     23217     23210     23213     23215     23216
     23211     23210     23212     23222     23211     23210     23213     23214
     23211     23210     23213     23215     23212     23210     23213     23214
     23212     23210     23213     23215     23212     23222     23226     23224
     23212     23222     23227     23228     23212     23222     23227     23229
     23212     23222     23227     23230     23213     23197     23217     23218
     23213     23197     23217     23219     23213     23197     23217     23220
     23213     23210     23212     23222     23214     23213     23197     23217
     23214     23213     23215     23216     23215     23213     23197     23217
     23218     23217     23220     23221     23219     23217     23220     23221
     23222     23226     23224     23225     23222     23226     23224     23234
     23222     23226     23224     23238     23222     23227     23229     23243
     23222     23227     23230     23231     23222     23227     23230     23232
     23222     23227     23230     23234     23223     23222     23226     23224
     23223     23222     23227     23228     23223     23222     23227     23229
     23223     23222     23227     23230     23224     23226     23222     23227
     23224     23234     23230     23227     23224     23234     23230     23231
     23224     23234     23230     23232     23224     23234     23236     23237
     23224     23238     23241     23242     23225     23224     23234     23230
     23225     23224     23234     23235     23225     23224     23234     23236
     23225     23224     23238     23239     23225     23224     23238     23240
     23225     23224     23238     23241     23226     23222     23227     23228
     23226     23222     23227     23229     23226     23222     23227     23230
     23226     23224     23234     23230     23226     23224     23234     23235
     23226     23224     23234     23236     23226     23224     23238     23239
     23226     23224     23238     23240     23226     23224     23238     23241
     23227     23229     23243     23244     23227     23229     23243     23247
     23227     23229     23243     23248     23227     23230     23232     23233
     23227     23230     23234     23235     23227     23230     23234     23236
     23228     23227     23229     23243     23228     23227     23230     23231
     23228     23227     23230     23232     23228     23227     23230     23234
     23229     23227     23230     23231     23229     23227     23230     23232
     23229     23227     23230     23234     23229     23243     23247     23245
     23229     23243     23248     23249     23229     23243     23248     23250
     23229     23243     23248     23251     23230     23227     23229     23243
     23230     23234     23224     23238     23230     23234     23236     23237
     23231     23230     23232     23233     23231     23230     23234     23235
     23231     23230     23234     23236     23232     23230     23234     23235
     23232     23230     23234     23236     23233     23232     23230     23234
     23234     23224     23238     23239     23234     23224     23238     23240
     23234     23224     23238     23241     23235     23234     23224     23238
     23235     23234     23236     23237     23236     23234     23224     23238
     23239     23238     23241     23242     23240     23238     23241     23242
     23243     23247     23245     23246     23243     23247     23245     23255
     23243     23247     23245     23259     23243     23248     23250     23263
     23243     23248     23251     23252     23243     23248     23251     23253
     23243     23248     23251     23255     23244     23243     23247     23245
     23244     23243     23248     23249     23244     23243     23248     23250
     23244     23243     23248     23251     23245     23247     23243     23248
     23245     23255     23251     23248     23245     23255     23251     23252
     23245     23255     23251     23253     23245     23255     23257     23258
     23246     23245     23255     23251     23246     23245     23255     23256
     23246     23245     23255     23257     23246     23245     23259     23260
     23246     23245     23259     23261     23246     23245     23259     23262
     23247     23243     23248     23249     23247     23243     23248     23250
     23247     23243     23248     23251     23247     23245     23255     23251
     23247     23245     23255     23256     23247     23245     23255     23257
     23247     23245     23259     23260     23247     23245     23259     23261
     23247     23245     23259     23262     23248     23250     23263     23264
     23248     23250     23263     23267     23248     23250     23263     23268
     23248     23251     23253     23254     23248     23251     23255     23256
     23248     23251     23255     23257     23249     23248     23250     23263
     23249     23248     23251     23252     23249     23248     23251     23253
     23249     23248     23251     23255     23250     23248     23251     23252
     23250     23248     23251     23253     23250     23248     23251     23255
     23250     23263     23267     23265     23250     23263     23268     23269
     23250     23263     23268     23270     23250     23263     23268     23271
     23251     23248     23250     23263     23251     23255     23245     23259
     23251     23255     23257     23258     23252     23251     23253     23254
     23252     23251     23255     23256     23252     23251     23255     23257
     23253     23251     23255     23256     23253     23251     23255     23257
     23254     23253     23251     23255     23255     23245     23259     23260
     23255     23245     23259     23261     23255     23245     23259     23262
     23256     23255     23245     23259     23256     23255     23257     23258
     23257     23255     23245     23259     23263     23267     23265     23266
     23263     23267     23265     23275     23263     23267     23265     23279
     23263     23268     23270     23283     23263     23268     23271     23272
     23263     23268     23271     23273     23263     23268     23271     23275
     23264     23263     23267     23265     23264     23263     23268     23269
     23264     23263     23268     23270     23264     23263     23268     23271
     23265     23267     23263     23268     23265     23275     23271     23268
     23265     23275     23271     23272     23265     23275     23271     23273
     23265     23275     23277     23278     23266     23265     23275     23271
     23266     23265     23275     23276     23266     23265     23275     23277
     23266     23265     23279     23280     23266     23265     23279     23281
     23266     23265     23279     23282     23267     23263     23268     23269
     23267     23263     23268     23270     23267     23263     23268     23271
     23267     23265     23275     23271     23267     23265     23275     23276
     23267     23265     23275     23277     23267     23265     23279     23280
     23267     23265     23279     23281     23267     23265     23279     23282
     23268     23270     23283     23284     23268     23270     23283     23287
     23268     23270     23283     23288     23268     23271     23273     23274
     23268     23271     23275     23276     23268     23271     23275     23277
     23269     23268     23270     23283     23269     23268     23271     23272
     23269     23268     23271     23273     23269     23268     23271     23275
     23270     23268     23271     23272     23270     23268     23271     23273
     23270     23268     23271     23275     23270     23283     23287     23285
     23270     23283     23288     23289     23270     23283     23288     23290
     23270     23283     23288     23298     23271     23268     23270     23283
     23271     23275     23265     23279     23271     23275     23277     23278
     23272     23271     23273     23274     23272     23271     23275     23276
     23272     23271     23275     23277     23273     23271     23275     23276
     23273     23271     23275     23277     23274     23273     23271     23275
     23275     23265     23279     23280     23275     23265     23279     23281
     23275     23265     23279     23282     23276     23275     23265     23279
     23276     23275     23277     23278     23277     23275     23265     23279
     23283     23287     23285     23286     23283     23287     23285     23302
     23283     23287     23285     23306     23283     23288     23290     23291
     23283     23288     23290     23292     23283     23288     23298     23299
     23283     23288     23298     23300     23283     23288     23298     23302
     23284     23283     23287     23285     23284     23283     23288     23289
     23284     23283     23288     23290     23284     23283     23288     23298
     23285     23287     23283     23288     23285     23302     23298     23288
     23285     23302     23298     23299     23285     23302     23298     23300
     23285     23302     23304     23305     23285     23306     23309     23310
     23286     23285     23302     23298     23286     23285     23302     23303
     23286     23285     23302     23304     23286     23285     23306     23307
     23286     23285     23306     23308     23286     23285     23306     23309
     23287     23283     23288     23289     23287     23283     23288     23290
     23287     23283     23288     23298     23287     23285     23302     23298
     23287     23285     23302     23303     23287     23285     23302     23304
     23287     23285     23306     23307     23287     23285     23306     23308
     23287     23285     23306     23309     23288     23290     23292     23293
     23288     23290     23292     23294     23288     23298     23300     23301
     23288     23298     23302     23303     23288     23298     23302     23304
     23289     23288     23290     23291     23289     23288     23290     23292
     23289     23288     23298     23299     23289     23288     23298     23300
     23289     23288     23298     23302     23290     23288     23298     23299
     23290     23288     23298     23300     23290     23288     23298     23302
     23290     23292     23294     23295     23290     23292     23294     23296
     23290     23292     23294     23297     23291     23290     23288     23298
     23291     23290     23292     23293     23291     23290     23292     23294
     23292     23290     23288     23298     23293     23292     23294     23295
     23293     23292     23294     23296     23293     23292     23294     23297
     23298     23302     23285     23306     23298     23302     23304     23305
     23299     23298     23300     23301     23299     23298     23302     23303
     23299     23298     23302     23304     23300     23298     23302     23303
     23300     23298     23302     23304     23301     23300     23298     23302
     23302     23285     23306     23307     23302     23285     23306     23308
     23302     23285     23306     23309     23303     23302     23285     23306
     23303     23302     23304     23305     23304     23302     23285     23306
     23307     23306     23309     23310     23308     23306     23309     23310
     23311     23313     23312     23610     23311     23313     23315     23316
     23311     23313     23315     23317     23311     23313     23315     23324
     23312     23313     23315     23316     23312     23313     23315     23317
     23312     23313     23315     23324     23312     23610     23607     23608
     23312     23610     23607     23609     23312     23610     23613     23611
     23312     23610     23614     23615     23312     23610     23614     23616
     23312     23610     23614     23617     23313     23312     23610     23607
     23313     23312     23610     23613     23313     23312     23610     23614
     23313     23315     23316     23318     23313     23315     23324     23325
     23313     23315     23324     23326     23313     23315     23324     23331
     23314     23313     23312     23610     23314     23313     23315     23316
     23314     23313     23315     23317     23314     23313     23315     23324
     23315     23313     23312     23610     23315     23316     23318     23319
     23315     23316     23318     23320     23315     23316     23318     23339
     23315     23324     23326     23327     23315     23324     23331     23332
     23315     23324     23331     23333     23315     23324     23331     23339
     23316     23315     23324     23325     23316     23315     23324     23326
     23316     23315     23324     23331     23316     23318     23320     23321
     23316     23318     23339     23331     23316     23318     23339     23340
     23316     23318     23339     23341     23317     23315     23316     23318
     23317     23315     23324     23325     23317     23315     23324     23326
     23317     23315     23324     23331     23318     23316     23315     23324
     23318     23320     23321     23322     23318     23320     23321     23323
     23318     23320     23321     23347     23318     23339     23331     23324
     23318     23339     23331     23332     23318     23339     23331     23333
     23318     23339     23341     23342     23318     23339     23341     23448
     23319     23318     23320     23321     23319     23318     23339     23331
     23319     23318     23339     23340     23319     23318     23339     23341
     23320     23318     23339     23331     23320     23318     23339     23340
     23320     23318     23339     23341     23320     23321     23347     23343
     23320     23321     23347     23348     23320     23321     23347     23349
     23321     23320     23318     23339     23321     23347     23343     23344
     23321     23347     23343     23345     23321     23347     23343     23357
     23321     23347     23349     23350     23322     23321     23347     23343
     23322     23321     23347     23348     23322     23321     23347     23349
     23323     23321     23347     23343     23323     23321     23347     23348
     23323     23321     23347     23349     23324     23326     23327     23328
     23324     23326     23327     23329     23324     23326     23327     23330
     23324     23331     23332     23334     23324     23331     23339     23340
     23324     23331     23339     23341     23325     23324     23326     23327
     23325     23324     23331     23332     23325     23324     23331     23333
     23325     23324     23331     23339     23326     23324     23331     23332
     23326     23324     23331     23333     23326     23324     23331     23339
     23327     23326     23324     23331     23331     23332     23334     23335
     23331     23332     23334     23336     23331     23339     23341     23342
     23331     23339     23341     23448     23332     23331     23339     23340
     23332     23331     23339     23341     23332     23334     23336     23337
     23332     23334     23336     23338     23332     23334     23336     23369
     23333     23331     23332     23334     23333     23331     23339     23340
     23333     23331     23339     23341     23334     23332     23331     23339
     23334     23336     23369     23370     23334     23336     23369     23371
     23334     23336     23369     23414     23335     23334     23336     23337
     23335     23334     23336     23338     23335     23334     23336     23369
     23336     23369     23371     23372     23336     23369     23414     23415
     23336     23369     23414     23416     23336     23369     23414     23417
     23337     23336     23369     23370     23337     23336     23369     23371
     23337     23336     23369     23414     23338     23336     23369     23370
     23338     23336     23369     23371     23338     23336     23369     23414
     23339     23341     23448     23449     23339     23341     23448     23450
     23340     23339     23341     23342     23340     23339     23341     23448
     23341     23448     23450     23451     23341     23448     23450     23452
     23341     23448     23450     23453     23342     23341     23448     23449
     23342     23341     23448     23450     23343     23347     23349     23350
     23343     23357     23359     23360     23343     23357     23365     23350
     23343     23357     23365     23366     23343     23357     23365     23367
     23344     23343     23345     23346     23344     23343     23347     23348
     23344     23343     23347     23349     23344     23343     23357     23358
     23344     23343     23357     23359     23344     23343     23357     23365
     23345     23343     23347     23348     23345     23343     23347     23349
     23345     23343     23357     23358     23345     23343     23357     23359
     23345     23343     23357     23365     23346     23345     23343     23347
     23346     23345     23343     23357     23347     23343     23357     23358
     23347     23343     23357     23359     23347     23343     23357     23365
     23347     23349     23350     23351     23347     23349     23350     23352
     23347     23349     23350     23365     23348     23347     23343     23357
     23348     23347     23349     23350     23349     23347     23343     23357
     23349     23350     23352     23356     23349     23350     23365     23357
     23349     23350     23365     23366     23349     23350     23365     23367
     23350     23352     23356     23353     23350     23352     23356     23354
     23350     23352     23356     23355     23350     23365     23357     23358
     23350     23365     23357     23359     23350     23365     23367     23368
     23350     23365     23367     23564     23351     23350     23352     23356
     23351     23350     23365     23357     23351     23350     23365     23366
     23351     23350     23365     23367     23352     23350     23365     23357
     23352     23350     23365     23366     23352     23350     23365     23367
     23356     23352     23350     23365     23357     23359     23360     23361
     23357     23359     23360     23362     23357     23365     23367     23368
     23357     23365     23367     23564     23358     23357     23359     23360
     23358     23357     23365     23366     23358     23357     23365     23367
     23359     23357     23365     23366     23359     23357     23365     23367
     23359     23360     23362     23363     23359     23360     23362     23364
     23359     23360     23362     23526     23360     23359     23357     23365
     23360     23362     23526     23527     23360     23362     23526     23528
     23360     23362     23526     23530     23361     23360     23362     23363
     23361     23360     23362     23364     23361     23360     23362     23526
     23362     23526     23528     23529     23362     23526     23530     23531
     23362     23526     23530     23532     23362     23526     23530     23533
     23363     23362     23526     23527     23363     23362     23526     23528
     23363     23362     23526     23530     23364     23362     23526     23527
     23364     23362     23526     23528     23364     23362     23526     23530
     23365     23367     23564     23565     23365     23367     23564     23566
     23366     23365     23367     23368     23366     23365     23367     23564
     23367     23564     23566     23567     23367     23564     23566     23568
     23367     23564     23566     23569     23368     23367     23564     23565
     23368     23367     23564     23566     23369     23371     23372     23373
     23369     23371     23372     23374     23369     23414     23417     23418
     23369     23414     23417     23419     23369     23414     23417     23420
     23370     23369     23371     23372     23370     23369     23414     23415
     23370     23369     23414     23416     23370     23369     23414     23417
     23371     23369     23414     23415     23371     23369     23414     23416
     23371     23369     23414     23417     23371     23372     23374     23375
     23371     23372     23374     23376     23371     23372     23374     23377
     23372     23371     23369     23414     23372     23374     23377     23378
     23372     23374     23377     23379     23372     23374     23377     23380
     23373     23372     23374     23375     23373     23372     23374     23376
     23373     23372     23374     23377     23374     23377     23380     23381
     23374     23377     23380     23382     23374     23377     23380     23383
     23375     23374     23377     23378     23375     23374     23377     23379
     23375     23374     23377     23380     23376     23374     23377     23378
     23376     23374     23377     23379     23376     23374     23377     23380
     23377     23380     23383     23384     23377     23380     23383     23385
     23377     23380     23383     23386     23378     23377     23380     23381
     23378     23377     23380     23382     23378     23377     23380     23383
     23379     23377     23380     23381     23379     23377     23380     23382
     23379     23377     23380     23383     23380     23383     23386     23387
     23380     23383     23386     23388     23380     23383     23386     23389
     23381     23380     23383     23384     23381     23380     23383     23385
     23381     23380     23383     23386     23382     23380     23383     23384
     23382     23380     23383     23385     23382     23380     23383     23386
     23383     23386     23389     23390     23383     23386     23389     23391
     23383     23386     23389     23392     23384     23383     23386     23387
     23384     23383     23386     23388     23384     23383     23386     23389
     23385     23383     23386     23387     23385     23383     23386     23388
     23385     23383     23386     23389     23386     23389     23392     23393
     23386     23389     23392     23394     23386     23389     23392     23395
     23387     23386     23389     23390     23387     23386     23389     23391
     23387     23386     23389     23392     23388     23386     23389     23390
     23388     23386     23389     23391     23388     23386     23389     23392
     23389     23392     23395     23396     23389     23392     23395     23397
     23389     23392     23395     23398     23390     23389     23392     23393
     23390     23389     23392     23394     23390     23389     23392     23395
     23391     23389     23392     23393     23391     23389     23392     23394
     23391     23389     23392     23395     23392     23395     23398     23399
     23392     23395     23398     23400     23392     23395     23398     23401
     23393     23392     23395     23396     23393     23392     23395     23397
     23393     23392     23395     23398     23394     23392     23395     23396
     23394     23392     23395     23397     23394     23392     23395     23398
     23395     23398     23401     23402     23395     23398     23401     23403
     23395     23398     23401     23404     23396     23395     23398     23399
     23396     23395     23398     23400     23396     23395     23398     23401
     23397     23395     23398     23399     23397     23395     23398     23400
     23397     23395     23398     23401     23398     23401     23404     23405
     23398     23401     23404     23406     23398     23401     23404     23407
     23399     23398     23401     23402     23399     23398     23401     23403
     23399     23398     23401     23404     23400     23398     23401     23402
     23400     23398     23401     23403     23400     23398     23401     23404
     23401     23404     23407     23408     23401     23404     23407     23409
     23401     23404     23407     23410     23402     23401     23404     23405
     23402     23401     23404     23406     23402     23401     23404     23407
     23403     23401     23404     23405     23403     23401     23404     23406
     23403     23401     23404     23407     23404     23407     23410     23411
     23404     23407     23410     23412     23404     23407     23410     23413
     23405     23404     23407     23408     23405     23404     23407     23409
     23405     23404     23407     23410     23406     23404     23407     23408
     23406     23404     23407     23409     23406     23404     23407     23410
     23408     23407     23410     23411     23408     23407     23410     23412
     23408     23407     23410     23413     23409     23407     23410     23411
     23409     23407     23410     23412     23409     23407     23410     23413
     23414     23417     23420     23421     23414     23417     23420     23422
     23414     23417     23420     23423     23415     23414     23417     23418
     23415     23414     23417     23419     23415     23414     23417     23420
     23416     23414     23417     23418     23416     23414     23417     23419
     23416     23414     23417     23420     23417     23420     23423     23424
     23417     23420     23423     23425     23417     23420     23423     23426
     23418     23417     23420     23421     23418     23417     23420     23422
     23418     23417     23420     23423     23419     23417     23420     23421
     23419     23417     23420     23422     23419     23417     23420     23423
     23420     23423     23426     23427     23420     23423     23426     23428
     23420     23423     23426     23429     23421     23420     23423     23424
     23421     23420     23423     23425     23421     23420     23423     23426
     23422     23420     23423     23424     23422     23420     23423     23425
     23422     23420     23423     23426     23423     23426     23429     23430
     23423     23426     23429     23431     23423     23426     23429     23432
     23424     23423     23426     23427     23424     23423     23426     23428
     23424     23423     23426     23429     23425     23423     23426     23427
     23425     23423     23426     23428     23425     23423     23426     23429
     23426     23429     23432     23433     23426     23429     23432     23434
     23426     23429     23432     23435     23427     23426     23429     23430
     23427     23426     23429     23431     23427     23426     23429     23432
     23428     23426     23429     23430     23428     23426     23429     23431
     23428     23426     23429     23432     23429     23432     23435     23436
     23429     23432     23435     23437     23429     23432     23435     23438
     23430     23429     23432     23433     23430     23429     23432     23434
     23430     23429     23432     23435     23431     23429     23432     23433
     23431     23429     23432     23434     23431     23429     23432     23435
     23432     23435     23438     23439     23432     23435     23438     23440
     23432     23435     23438     23441     23433     23432     23435     23436
     23433     23432     23435     23437     23433     23432     23435     23438
     23434     23432     23435     23436     23434     23432     23435     23437
     23434     23432     23435     23438     23435     23438     23441     23442
     23435     23438     23441     23443     23435     23438     23441     23444
     23436     23435     23438     23439     23436     23435     23438     23440
     23436     23435     23438     23441     23437     23435     23438     23439
     23437     23435     23438     23440     23437     23435     23438     23441
     23438     23441     23444     23445     23438     23441     23444     23446
     23438     23441     23444     23447     23439     23438     23441     23442
     23439     23438     23441     23443     23439     23438     23441     23444
     23440     23438     23441     23442     23440     23438     23441     23443
     23440     23438     23441     23444     23442     23441     23444     23445
     23442     23441     23444     23446     23442     23441     23444     23447
     23443     23441     23444     23445     23443     23441     23444     23446
     23443     23441     23444     23447     23448     23450     23453     23454
     23448     23450     23453     23455     23448     23450     23453     23492
     23449     23448     23450     23451     23449     23448     23450     23452
     23449     23448     23450     23453     23450     23453     23455     23456
     23450     23453     23492     23493     23450     23453     23492     23494
     23450     23453     23492     23495     23451     23450     23453     23454
     23451     23450     23453     23455     23451     23450     23453     23492
     23452     23450     23453     23454     23452     23450     23453     23455
     23452     23450     23453     23492     23453     23455     23456     23457
     23453     23455     23456     23458     23453     23492     23495     23496
     23453     23492     23495     23497     23453     23492     23495     23498
     23454     23453     23455     23456     23454     23453     23492     23493
     23454     23453     23492     23494     23454     23453     23492     23495
     23455     23453     23492     23493     23455     23453     23492     23494
     23455     23453     23492     23495     23455     23456     23458     23459
     23455     23456     23458     23460     23455     23456     23458     23461
     23456     23455     23453     23492     23456     23458     23461     23462
     23456     23458     23461     23463     23456     23458     23461     23464
     23457     23456     23458     23459     23457     23456     23458     23460
     23457     23456     23458     23461     23458     23461     23464     23465
     23458     23461     23464     23466     23458     23461     23464     23467
     23459     23458     23461     23462     23459     23458     23461     23463
     23459     23458     23461     23464     23460     23458     23461     23462
     23460     23458     23461     23463     23460     23458     23461     23464
     23461     23464     23467     23468     23461     23464     23467     23469
     23461     23464     23467     23470     23462     23461     23464     23465
     23462     23461     23464     23466     23462     23461     23464     23467
     23463     23461     23464     23465     23463     23461     23464     23466
     23463     23461     23464     23467     23464     23467     23470     23471
     23464     23467     23470     23472     23464     23467     23470     23473
     23465     23464     23467     23468     23465     23464     23467     23469
     23465     23464     23467     23470     23466     23464     23467     23468
     23466     23464     23467     23469     23466     23464     23467     23470
     23467     23470     23473     23474     23467     23470     23473     23475
     23467     23470     23473     23476     23468     23467     23470     23471
     23468     23467     23470     23472     23468     23467     23470     23473
     23469     23467     23470     23471     23469     23467     23470     23472
     23469     23467     23470     23473     23470     23473     23476     23477
     23470     23473     23476     23478     23470     23473     23476     23479
     23471     23470     23473     23474     23471     23470     23473     23475
     23471     23470     23473     23476     23472     23470     23473     23474
     23472     23470     23473     23475     23472     23470     23473     23476
     23473     23476     23479     23480     23473     23476     23479     23481
     23473     23476     23479     23482     23474     23473     23476     23477
     23474     23473     23476     23478     23474     23473     23476     23479
     23475     23473     23476     23477     23475     23473     23476     23478
     23475     23473     23476     23479     23476     23479     23482     23483
     23476     23479     23482     23484     23476     23479     23482     23485
     23477     23476     23479     23480     23477     23476     23479     23481
     23477     23476     23479     23482     23478     23476     23479     23480
     23478     23476     23479     23481     23478     23476     23479     23482
     23479     23482     23485     23486     23479     23482     23485     23487
     23479     23482     23485     23488     23480     23479     23482     23483
     23480     23479     23482     23484     23480     23479     23482     23485
     23481     23479     23482     23483     23481     23479     23482     23484
     23481     23479     23482     23485     23482     23485     23488     23489
     23482     23485     23488     23490     23482     23485     23488     23491
     23483     23482     23485     23486     23483     23482     23485     23487
     23483     23482     23485     23488     23484     23482     23485     23486
     23484     23482     23485     23487     23484     23482     23485     23488
     23486     23485     23488     23489     23486     23485     23488     23490
     23486     23485     23488     23491     23487     23485     23488     23489
     23487     23485     23488     23490     23487     23485     23488     23491
     23492     23495     23498     23499     23492     23495     23498     23500
     23492     23495     23498     23501     23493     23492     23495     23496
     23493     23492     23495     23497     23493     23492     23495     23498
     23494     23492     23495     23496     23494     23492     23495     23497
     23494     23492     23495     23498     23495     23498     23501     23502
     23495     23498     23501     23503     23495     23498     23501     23504
     23496     23495     23498     23499     23496     23495     23498     23500
     23496     23495     23498     23501     23497     23495     23498     23499
     23497     23495     23498     23500     23497     23495     23498     23501
     23498     23501     23504     23505     23498     23501     23504     23506
     23498     23501     23504     23507     23499     23498     23501     23502
     23499     23498     23501     23503     23499     23498     23501     23504
     23500     23498     23501     23502     23500     23498     23501     23503
     23500     23498     23501     23504     23501     23504     23507     23508
     23501     23504     23507     23509     23501     23504     23507     23510
     23502     23501     23504     23505     23502     23501     23504     23506
     23502     23501     23504     23507     23503     23501     23504     23505
     23503     23501     23504     23506     23503     23501     23504     23507
     23504     23507     23510     23511     23504     23507     23510     23512
     23504     23507     23510     23513     23505     23504     23507     23508
     23505     23504     23507     23509     23505     23504     23507     23510
     23506     23504     23507     23508     23506     23504     23507     23509
     23506     23504     23507     23510     23507     23510     23513     23514
     23507     23510     23513     23515     23507     23510     23513     23516
     23508     23507     23510     23511     23508     23507     23510     23512
     23508     23507     23510     23513     23509     23507     23510     23511
     23509     23507     23510     23512     23509     23507     23510     23513
     23510     23513     23516     23517     23510     23513     23516     23518
     23510     23513     23516     23519     23511     23510     23513     23514
     23511     23510     23513     23515     23511     23510     23513     23516
     23512     23510     23513     23514     23512     23510     23513     23515
     23512     23510     23513     23516     23513     23516     23519     23520
     23513     23516     23519     23521     23513     23516     23519     23522
     23514     23513     23516     23517     23514     23513     23516     23518
     23514     23513     23516     23519     23515     23513     23516     23517
     23515     23513     23516     23518     23515     23513     23516     23519
     23516     23519     23522     23523     23516     23519     23522     23524
     23516     23519     23522     23525     23517     23516     23519     23520
     23517     23516     23519     23521     23517     23516     23519     23522
     23518     23516     23519     23520     23518     23516     23519     23521
     23518     23516     23519     23522     23520     23519     23522     23523
     23520     23519     23522     23524     23520     23519     23522     23525
     23521     23519     23522     23523     23521     23519     23522     23524
     23521     23519     23522     23525     23526     23530     23533     23534
     23526     23530     23533     23535     23526     23530     23533     23536
     23527     23526     23528     23529     23527     23526     23530     23531
     23527     23526     23530     23532     23527     23526     23530     23533
     23528     23526     23530     23531     23528     23526     23530     23532
     23528     23526     23530     23533     23529     23528     23526     23530
     23530     23533     23536     23537     23530     23533     23536     23538
     23530     23533     23536     23539     23531     23530     23533     23534
     23531     23530     23533     23535     23531     23530     23533     23536
     23532     23530     23533     23534     23532     23530     23533     23535
     23532     23530     23533     23536     23533     23536     23539     23540
     23533     23536     23539     23541     23533     23536     23539     23542
     23534     23533     23536     23537     23534     23533     23536     23538
     23534     23533     23536     23539     23535     23533     23536     23537
     23535     23533     23536     23538     23535     23533     23536     23539
     23536     23539     23542     23543     23536     23539     23542     23544
     23536     23539     23542     23545     23537     23536     23539     23540
     23537     23536     23539     23541     23537     23536     23539     23542
     23538     23536     23539     23540     23538     23536     23539     23541
     23538     23536     23539     23542     23539     23542     23545     23546
     23539     23542     23545     23547     23539     23542     23545     23548
     23540     23539     23542     23543     23540     23539     23542     23544
     23540     23539     23542     23545     23541     23539     23542     23543
     23541     23539     23542     23544     23541     23539     23542     23545
     23542     23545     23548     23549     23542     23545     23548     23550
     23542     23545     23548     23551     23543     23542     23545     23546
     23543     23542     23545     23547     23543     23542     23545     23548
     23544     23542     23545     23546     23544     23542     23545     23547
     23544     23542     23545     23548     23545     23548     23551     23552
     23545     23548     23551     23553     23545     23548     23551     23554
     23546     23545     23548     23549     23546     23545     23548     23550
     23546     23545     23548     23551     23547     23545     23548     23549
     23547     23545     23548     23550     23547     23545     23548     23551
     23548     23551     23554     23555     23548     23551     23554     23556
     23548     23551     23554     23557     23549     23548     23551     23552
     23549     23548     23551     23553     23549     23548     23551     23554
     23550     23548     23551     23552     23550     23548     23551     23553
     23550     23548     23551     23554     23551     23554     23557     23558
     23551     23554     23557     23559     23551     23554     23557     23560
     23552     23551     23554     23555     23552     23551     23554     23556
     23552     23551     23554     23557     23553     23551     23554     23555
     23553     23551     23554     23556     23553     23551     23554     23557
     23554     23557     23560     23561     23554     23557     23560     23562
     23554     23557     23560     23563     23555     23554     23557     23558
     23555     23554     23557     23559     23555     23554     23557     23560
     23556     23554     23557     23558     23556     23554     23557     23559
     23556     23554     23557     23560     23558     23557     23560     23561
     23558     23557     23560     23562     23558     23557     23560     23563
     23559     23557     23560     23561     23559     23557     23560     23562
     23559     23557     23560     23563     23564     23566     23569     23570
     23564     23566     23569     23571     23564     23566     23569     23573
     23565     23564     23566     23567     23565     23564     23566     23568
     23565     23564     23566     23569     23566     23569     23571     23572
     23566     23569     23573     23574     23566     23569     23573     23575
     23566     23569     23573     23576     23567     23566     23569     23570
     23567     23566     23569     23571     23567     23566     23569     23573
     23568     23566     23569     23570     23568     23566     23569     23571
     23568     23566     23569     23573     23569     23573     23576     23577
     23569     23573     23576     23578     23569     23573     23576     23579
     23570     23569     23571     23572     23570     23569     23573     23574
     23570     23569     23573     23575     23570     23569     23573     23576
     23571     23569     23573     23574     23571     23569     23573     23575
     23571     23569     23573     23576     23572     23571     23569     23573
     23573     23576     23579     23580     23573     23576     23579     23581
     23573     23576     23579     23582     23574     23573     23576     23577
     23574     23573     23576     23578     23574     23573     23576     23579
     23575     23573     23576     23577     23575     23573     23576     23578
     23575     23573     23576     23579     23576     23579     23582     23583
     23576     23579     23582     23584     23576     23579     23582     23585
     23577     23576     23579     23580     23577     23576     23579     23581
     23577     23576     23579     23582     23578     23576     23579     23580
     23578     23576     23579     23581     23578     23576     23579     23582
     23579     23582     23585     23586     23579     23582     23585     23587
     23579     23582     23585     23588     23580     23579     23582     23583
     23580     23579     23582     23584     23580     23579     23582     23585
     23581     23579     23582     23583     23581     23579     23582     23584
     23581     23579     23582     23585     23582     23585     23588     23589
     23582     23585     23588     23590     23582     23585     23588     23591
     23583     23582     23585     23586     23583     23582     23585     23587
     23583     23582     23585     23588     23584     23582     23585     23586
     23584     23582     23585     23587     23584     23582     23585     23588
     23585     23588     23591     23592     23585     23588     23591     23593
     23585     23588     23591     23594     23586     23585     23588     23589
     23586     23585     23588     23590     23586     23585     23588     23591
     23587     23585     23588     23589     23587     23585     23588     23590
     23587     23585     23588     23591     23588     23591     23594     23595
     23588     23591     23594     23596     23588     23591     23594     23597
     23589     23588     23591     23592     23589     23588     23591     23593
     23589     23588     23591     23594     23590     23588     23591     23592
     23590     23588     23591     23593     23590     23588     23591     23594
     23591     23594     23597     23598     23591     23594     23597     23599
     23591     23594     23597     23600     23592     23591     23594     23595
     23592     23591     23594     23596     23592     23591     23594     23597
     23593     23591     23594     23595     23593     23591     23594     23596
     23593     23591     23594     23597     23594     23597     23600     23601
     23594     23597     23600     23602     23594     23597     23600     23603
     23595     23594     23597     23598     23595     23594     23597     23599
     23595     23594     23597     23600     23596     23594     23597     23598
     23596     23594     23597     23599     23596     23594     23597     23600
     23597     23600     23603     23604     23597     23600     23603     23605
     23597     23600     23603     23606     23598     23597     23600     23601
     23598     23597     23600     23602     23598     23597     23600     23603
     23599     23597     23600     23601     23599     23597     23600     23602
     23599     23597     23600     23603     23601     23600     23603     23604
     23601     23600     23603     23605     23601     23600     23603     23606
     23602     23600     23603     23604     23602     23600     23603     23605
     23602     23600     23603     23606     23607     23610     23613     23611
     23607     23610     23614     23615     23607     23610     23614     23616
     23607     23610     23614     23617     23608     23607     23610     23613
     23608     23607     23610     23614     23609     23607     23610     23613
     23609     23607     23610     23614     23610     23613     23611     23612
     23610     23613     23611     23620     23610     23613     23611     23623
     23610     23614     23617     23618     23610     23614     23617     23619
     23610     23614     23617     23620     23611     23613     23610     23614
     23611     23620     23617     23614     23611     23620     23617     23618
     23611     23620     23617     23619     23611     23620     23622     23659
     23611     23623     23625     23626     23611     23623     23627     23628
     23611     23623     23627     23629     23611     23623     23627     23630
     23612     23611     23620     23617     23612     23611     23620     23621
     23612     23611     23620     23622     23612     23611     23623     23624
     23612     23611     23623     23625     23612     23611     23623     23627
     23613     23610     23614     23615     23613     23610     23614     23616
     23613     23610     23614     23617     23613     23611     23620     23617
     23613     23611     23620     23621     23613     23611     23620     23622
     23613     23611     23623     23624     23613     23611     23623     23625
     23613     23611     23623     23627     23614     23617     23619     23635
     23614     23617     23620     23621     23614     23617     23620     23622
     23615     23614     23617     23618     23615     23614     23617     23619
     23615     23614     23617     23620     23616     23614     23617     23618
     23616     23614     23617     23619     23616     23614     23617     23620
     23617     23619     23635     23632     23617     23619     23635     23638
     23617     23619     23635     23639     23617     23620     23611     23623
     23617     23620     23622     23659     23618     23617     23619     23635
     23618     23617     23620     23621     23618     23617     23620     23622
     23619     23617     23620     23621     23619     23617     23620     23622
     23619     23635     23632     23633     23619     23635     23632     23634
     23619     23635     23638     23636     23619     23635     23639     23640
     23619     23635     23639     23641     23619     23635     23639     23642
     23620     23611     23623     23624     23620     23611     23623     23625
     23620     23611     23623     23627     23620     23617     23619     23635
     23620     23622     23659     23660     23620     23622     23659     23663
     23620     23622     23659     23664     23621     23620     23611     23623
     23621     23620     23622     23659     23622     23620     23611     23623
     23622     23659     23663     23661     23622     23659     23664     23665
     23622     23659     23664     23666     23622     23659     23664     23668
     23623     23627     23630     23631     23624     23623     23625     23626
     23624     23623     23627     23628     23624     23623     23627     23629
     23624     23623     23627     23630     23625     23623     23627     23628
     23625     23623     23627     23629     23625     23623     23627     23630
     23626     23625     23623     23627     23628     23627     23630     23631
     23629     23627     23630     23631     23632     23635     23638     23636
     23632     23635     23639     23640     23632     23635     23639     23641
     23632     23635     23639     23642     23633     23632     23635     23638
     23633     23632     23635     23639     23634     23632     23635     23638
     23634     23632     23635     23639     23635     23638     23636     23637
     23635     23638     23636     23646     23635     23638     23636     23650
     23635     23639     23642     23643     23635     23639     23642     23644
     23635     23639     23642     23646     23636     23638     23635     23639
     23636     23646     23642     23639     23636     23646     23642     23643
     23636     23646     23642     23644     23636     23646     23648     23649
     23636     23650     23652     23653     23636     23650     23654     23655
     23636     23650     23654     23656     23636     23650     23654     23657
     23637     23636     23646     23642     23637     23636     23646     23647
     23637     23636     23646     23648     23637     23636     23650     23651
     23637     23636     23650     23652     23637     23636     23650     23654
     23638     23635     23639     23640     23638     23635     23639     23641
     23638     23635     23639     23642     23638     23636     23646     23642
     23638     23636     23646     23647     23638     23636     23646     23648
     23638     23636     23650     23651     23638     23636     23650     23652
     23638     23636     23650     23654     23639     23642     23644     23645
     23639     23642     23646     23647     23639     23642     23646     23648
     23640     23639     23642     23643     23640     23639     23642     23644
     23640     23639     23642     23646     23641     23639     23642     23643
     23641     23639     23642     23644     23641     23639     23642     23646
     23642     23646     23636     23650     23642     23646     23648     23649
     23643     23642     23644     23645     23643     23642     23646     23647
     23643     23642     23646     23648     23644     23642     23646     23647
     23644     23642     23646     23648     23645     23644     23642     23646
     23646     23636     23650     23651     23646     23636     23650     23652
     23646     23636     23650     23654     23647     23646     23636     23650
     23647     23646     23648     23649     23648     23646     23636     23650
     23650     23654     23657     23658     23651     23650     23652     23653
     23651     23650     23654     23655     23651     23650     23654     23656
     23651     23650     23654     23657     23652     23650     23654     23655
     23652     23650     23654     23656     23652     23650     23654     23657
     23653     23652     23650     23654     23655     23654     23657     23658
     23656     23654     23657     23658     23659     23663     23661     23662
     23659     23663     23661     23671     23659     23663     23661     23678
     23659     23664     23666     23667     23659     23664     23668     23669
     23659     23664     23668     23670     23659     23664     23668     23671
     23660     23659     23663     23661     23660     23659     23664     23665
     23660     23659     23664     23666     23660     23659     23664     23668
     23661     23663     23659     23664     23661     23671     23668     23664
     23661     23671     23668     23669     23661     23671     23668     23670
     23661     23671     23673     23674     23661     23678     23680     23681
     23661     23678     23682     23683     23661     23678     23682     23684
     23661     23678     23682     23685     23662     23661     23671     23668
     23662     23661     23671     23672     23662     23661     23671     23673
     23662     23661     23678     23679     23662     23661     23678     23680
     23662     23661     23678     23682     23663     23659     23664     23665
     23663     23659     23664     23666     23663     23659     23664     23668
     23663     23661     23671     23668     23663     23661     23671     23672
     23663     23661     23671     23673     23663     23661     23678     23679
     23663     23661     23678     23680     23663     23661     23678     23682
     23664     23668     23670     23687     23664     23668     23671     23672
     23664     23668     23671     23673     23665     23664     23666     23667
     23665     23664     23668     23669     23665     23664     23668     23670
     23665     23664     23668     23671     23666     23664     23668     23669
     23666     23664     23668     23670     23666     23664     23668     23671
     23667     23666     23664     23668     23668     23670     23687     23688
     23668     23670     23687     23691     23668     23670     23687     23692
     23668     23671     23661     23678     23668     23671     23673     23674
     23669     23668     23670     23687     23669     23668     23671     23672
     23669     23668     23671     23673     23670     23668     23671     23672
     23670     23668     23671     23673     23670     23687     23691     23689
     23670     23687     23692     23693     23670     23687     23692     23694
     23670     23687     23692     23696     23671     23661     23678     23679
     23671     23661     23678     23680     23671     23661     23678     23682
     23671     23668     23670     23687     23671     23673     23674     23675
     23671     23673     23674     23676     23671     23673     23674     23677
     23672     23671     23661     23678     23672     23671     23673     23674
     23673     23671     23661     23678     23678     23682     23685     23686
     23679     23678     23680     23681     23679     23678     23682     23683
     23679     23678     23682     23684     23679     23678     23682     23685
     23680     23678     23682     23683     23680     23678     23682     23684
     23680     23678     23682     23685     23681     23680     23678     23682
     23683     23682     23685     23686     23684     23682     23685     23686
     23687     23691     23689     23690     23687     23691     23689     23699
     23687     23691     23689     23706     23687     23692     23694     23695
     23687     23692     23696     23697     23687     23692     23696     23698
     23687     23692     23696     23699     23688     23687     23691     23689
     23688     23687     23692     23693     23688     23687     23692     23694
     23688     23687     23692     23696     23689     23691     23687     23692
     23689     23699     23696     23692     23689     23699     23696     23697
     23689     23699     23696     23698     23689     23699     23701     23702
     23689     23706     23708     23709     23689     23706     23710     23711
     23689     23706     23710     23712     23689     23706     23710     23713
     23690     23689     23699     23696     23690     23689     23699     23700
     23690     23689     23699     23701     23690     23689     23706     23707
     23690     23689     23706     23708     23690     23689     23706     23710
     23691     23687     23692     23693     23691     23687     23692     23694
     23691     23687     23692     23696     23691     23689     23699     23696
     23691     23689     23699     23700     23691     23689     23699     23701
     23691     23689     23706     23707     23691     23689     23706     23708
     23691     23689     23706     23710     23692     23696     23698     23740
     23692     23696     23699     23700     23692     23696     23699     23701
     23693     23692     23694     23695     23693     23692     23696     23697
     23693     23692     23696     23698     23693     23692     23696     23699
     23694     23692     23696     23697     23694     23692     23696     23698
     23694     23692     23696     23699     23695     23694     23692     23696
     23696     23698     23740     23741     23696     23698     23740     23744
     23696     23698     23740     23745     23696     23699     23689     23706
     23696     23699     23701     23702     23697     23696     23698     23740
     23697     23696     23699     23700     23697     23696     23699     23701
     23698     23696     23699     23700     23698     23696     23699     23701
     23698     23740     23744     23742     23698     23740     23745     23746
     23698     23740     23745     23747     23698     23740     23745     23749
     23699     23689     23706     23707     23699     23689     23706     23708
     23699     23689     23706     23710     23699     23696     23698     23740
     23699     23701     23702     23703     23699     23701     23702     23704
     23699     23701     23702     23705     23700     23699     23689     23706
     23700     23699     23701     23702     23701     23699     23689     23706
     23706     23710     23713     23714     23707     23706     23708     23709
     23707     23706     23710     23711     23707     23706     23710     23712
     23707     23706     23710     23713     23708     23706     23710     23711
     23708     23706     23710     23712     23708     23706     23710     23713
     23709     23708     23706     23710     23710     23713     23714     23715
     23710     23713     23714     23718     23710     23713     23714     23719
     23711     23710     23713     23714     23712     23710     23713     23714
     23713     23714     23718     23716     23713     23714     23719     23720
     23713     23714     23719     23721     23713     23714     23719     23723
     23714     23718     23716     23717     23714     23718     23716     23727
     23714     23718     23716     23731     23714     23719     23721     23722
     23714     23719     23723     23724     23714     23719     23723     23725
     23714     23719     23723     23727     23715     23714     23718     23716
     23715     23714     23719     23720     23715     23714     23719     23721
     23715     23714     23719     23723     23716     23718     23714     23719
     23716     23727     23723     23719     23716     23727     23723     23724
     23716     23727     23723     23725     23716     23727     23729     23730
     23716     23731     23733     23734     23716     23731     23735     23736
     23716     23731     23735     23737     23716     23731     23735     23738
     23717     23716     23727     23723     23717     23716     23727     23728
     23717     23716     23727     23729     23717     23716     23731     23732
     23717     23716     23731     23733     23717     23716     23731     23735
     23718     23714     23719     23720     23718     23714     23719     23721
     23718     23714     23719     23723     23718     23716     23727     23723
     23718     23716     23727     23728     23718     23716     23727     23729
     23718     23716     23731     23732     23718     23716     23731     23733
     23718     23716     23731     23735     23719     23723     23725     23726
     23719     23723     23727     23728     23719     23723     23727     23729
     23720     23719     23721     23722     23720     23719     23723     23724
     23720     23719     23723     23725     23720     23719     23723     23727
     23721     23719     23723     23724     23721     23719     23723     23725
     23721     23719     23723     23727     23722     23721     23719     23723
     23723     23727     23716     23731     23723     23727     23729     23730
     23724     23723     23725     23726     23724     23723     23727     23728
     23724     23723     23727     23729     23725     23723     23727     23728
     23725     23723     23727     23729     23726     23725     23723     23727
     23727     23716     23731     23732     23727     23716     23731     23733
     23727     23716     23731     23735     23728     23727     23716     23731
     23728     23727     23729     23730     23729     23727     23716     23731
     23731     23735     23738     23739     23732     23731     23733     23734
     23732     23731     23735     23736     23732     23731     23735     23737
     23732     23731     23735     23738     23733     23731     23735     23736
     23733     23731     23735     23737     23733     23731     23735     23738
     23734     23733     23731     23735     23736     23735     23738     23739
     23737     23735     23738     23739     23740     23744     23742     23743
     23740     23744     23742     23752     23740     23744     23742     23756
     23740     23745     23747     23748     23740     23745     23749     23750
     23740     23745     23749     23751     23740     23745     23749     23752
     23741     23740     23744     23742     23741     23740     23745     23746
     23741     23740     23745     23747     23741     23740     23745     23749
     23742     23744     23740     23745     23742     23752     23749     23745
     23742     23752     23749     23750     23742     23752     23749     23751
     23742     23752     23754     23755     23742     23756     23759     23760
     23743     23742     23752     23749     23743     23742     23752     23753
     23743     23742     23752     23754     23743     23742     23756     23757
     23743     23742     23756     23758     23743     23742     23756     23759
     23744     23740     23745     23746     23744     23740     23745     23747
     23744     23740     23745     23749     23744     23742     23752     23749
     23744     23742     23752     23753     23744     23742     23752     23754
     23744     23742     23756     23757     23744     23742     23756     23758
     23744     23742     23756     23759     23745     23749     23751     23761
     23745     23749     23752     23753     23745     23749     23752     23754
     23746     23745     23747     23748     23746     23745     23749     23750
     23746     23745     23749     23751     23746     23745     23749     23752
     23747     23745     23749     23750     23747     23745     23749     23751
     23747     23745     23749     23752     23748     23747     23745     23749
     23749     23751     23761     23762     23749     23751     23761     23765
     23749     23751     23761     23766     23749     23752     23742     23756
     23749     23752     23754     23755     23750     23749     23751     23761
     23750     23749     23752     23753     23750     23749     23752     23754
     23751     23749     23752     23753     23751     23749     23752     23754
     23751     23761     23765     23763     23751     23761     23766     23767
     23751     23761     23766     23768     23751     23761     23766     23769
     23752     23742     23756     23757     23752     23742     23756     23758
     23752     23742     23756     23759     23752     23749     23751     23761
     23753     23752     23742     23756     23753     23752     23754     23755
     23754     23752     23742     23756     23757     23756     23759     23760
     23758     23756     23759     23760     23761     23765     23763     23764
     23761     23765     23763     23772     23761     23765     23763     23776
     23761     23766     23768     23781     23761     23766     23769     23770
     23761     23766     23769     23771     23761     23766     23769     23772
     23762     23761     23765     23763     23762     23761     23766     23767
     23762     23761     23766     23768     23762     23761     23766     23769
     23763     23765     23761     23766     23763     23772     23769     23766
     23763     23772     23769     23770     23763     23772     23769     23771
     23763     23772     23774     23775     23763     23776     23779     23780
     23764     23763     23772     23769     23764     23763     23772     23773
     23764     23763     23772     23774     23764     23763     23776     23777
     23764     23763     23776     23778     23764     23763     23776     23779
     23765     23761     23766     23767     23765     23761     23766     23768
     23765     23761     23766     23769     23765     23763     23772     23769
     23765     23763     23772     23773     23765     23763     23772     23774
     23765     23763     23776     23777     23765     23763     23776     23778
     23765     23763     23776     23779     23766     23768     23781     23782
     23766     23768     23781     23785     23766     23768     23781     23786
     23766     23769     23771     23824     23766     23769     23772     23773
     23766     23769     23772     23774     23767     23766     23768     23781
     23767     23766     23769     23770     23767     23766     23769     23771
     23767     23766     23769     23772     23768     23766     23769     23770
     23768     23766     23769     23771     23768     23766     23769     23772
     23768     23781     23785     23783     23768     23781     23786     23787
     23768     23781     23786     23788     23768     23781     23786     23789
     23769     23766     23768     23781     23769     23771     23824     23825
     23769     23771     23824     23828     23769     23771     23824     23829
     23769     23772     23763     23776     23769     23772     23774     23775
     23770     23769     23771     23824     23770     23769     23772     23773
     23770     23769     23772     23774     23771     23769     23772     23773
     23771     23769     23772     23774     23771     23824     23828     23826
     23771     23824     23829     23830     23771     23824     23829     23831
     23771     23824     23829     23833     23772     23763     23776     23777
     23772     23763     23776     23778     23772     23763     23776     23779
     23772     23769     23771     23824     23773     23772     23763     23776
     23773     23772     23774     23775     23774     23772     23763     23776
     23777     23776     23779     23780     23778     23776     23779     23780
     23781     23785     23783     23784     23781     23785     23783     23793
     23781     23785     23783     23797     23781     23786     23788     23802
     23781     23786     23789     23790     23781     23786     23789     23791
     23781     23786     23789     23793     23782     23781     23785     23783
     23782     23781     23786     23787     23782     23781     23786     23788
     23782     23781     23786     23789     23783     23785     23781     23786
     23783     23793     23789     23786     23783     23793     23789     23790
     23783     23793     23789     23791     23783     23793     23795     23796
     23783     23797     23800     23801     23784     23783     23793     23789
     23784     23783     23793     23794     23784     23783     23793     23795
     23784     23783     23797     23798     23784     23783     23797     23799
     23784     23783     23797     23800     23785     23781     23786     23787
     23785     23781     23786     23788     23785     23781     23786     23789
     23785     23783     23793     23789     23785     23783     23793     23794
     23785     23783     23793     23795     23785     23783     23797     23798
     23785     23783     23797     23799     23785     23783     23797     23800
     23786     23788     23802     23803     23786     23788     23802     23806
     23786     23788     23802     23807     23786     23789     23791     23792
     23786     23789     23793     23794     23786     23789     23793     23795
     23787     23786     23788     23802     23787     23786     23789     23790
     23787     23786     23789     23791     23787     23786     23789     23793
     23788     23786     23789     23790     23788     23786     23789     23791
     23788     23786     23789     23793     23788     23802     23806     23804
     23788     23802     23807     23808     23788     23802     23807     23809
     23788     23802     23807     23811     23789     23786     23788     23802
     23789     23793     23783     23797     23789     23793     23795     23796
     23790     23789     23791     23792     23790     23789     23793     23794
     23790     23789     23793     23795     23791     23789     23793     23794
     23791     23789     23793     23795     23792     23791     23789     23793
     23793     23783     23797     23798     23793     23783     23797     23799
     23793     23783     23797     23800     23794     23793     23783     23797
     23794     23793     23795     23796     23795     23793     23783     23797
     23798     23797     23800     23801     23799     23797     23800     23801
     23802     23806     23804     23805     23802     23806     23804     23815
     23802     23806     23804     23819     23802     23807     23809     23810
     23802     23807     23811     23812     23802     23807     23811     23813
     23802     23807     23811     23815     23803     23802     23806     23804
     23803     23802     23807     23808     23803     23802     23807     23809
     23803     23802     23807     23811     23804     23806     23802     23807
     23804     23815     23811     23807     23804     23815     23811     23812
     23804     23815     23811     23813     23804     23815     23817     23818
     23804     23819     23822     23823     23805     23804     23815     23811
     23805     23804     23815     23816     23805     23804     23815     23817
     23805     23804     23819     23820     23805     23804     23819     23821
     23805     23804     23819     23822     23806     23802     23807     23808
     23806     23802     23807     23809     23806     23802     23807     23811
     23806     23804     23815     23811     23806     23804     23815     23816
     23806     23804     23815     23817     23806     23804     23819     23820
     23806     23804     23819     23821     23806     23804     23819     23822
     23807     23811     23813     23814     23807     23811     23815     23816
     23807     23811     23815     23817     23808     23807     23809     23810
     23808     23807     23811     23812     23808     23807     23811     23813
     23808     23807     23811     23815     23809     23807     23811     23812
     23809     23807     23811     23813     23809     23807     23811     23815
     23810     23809     23807     23811     23811     23815     23804     23819
     23811     23815     23817     23818     23812     23811     23813     23814
     23812     23811     23815     23816     23812     23811     23815     23817
     23813     23811     23815     23816     23813     23811     23815     23817
     23814     23813     23811     23815     23815     23804     23819     23820
     23815     23804     23819     23821     23815     23804     23819     23822
     23816     23815     23804     23819     23816     23815     23817     23818
     23817     23815     23804     23819     23820     23819     23822     23823
     23821     23819     23822     23823     23824     23828     23826     23827
     23824     23828     23826     23836     23824     23828     23826     23840
     23824     23829     23831     23832     23824     23829     23833     23834
     23824     23829     23833     23835     23824     23829     23833     23836
     23825     23824     23828     23826     23825     23824     23829     23830
     23825     23824     23829     23831     23825     23824     23829     23833
     23826     23828     23824     23829     23826     23836     23833     23829
     23826     23836     23833     23834     23826     23836     23833     23835
     23826     23836     23838     23839     23826     23840     23843     23844
     23827     23826     23836     23833     23827     23826     23836     23837
     23827     23826     23836     23838     23827     23826     23840     23841
     23827     23826     23840     23842     23827     23826     23840     23843
     23828     23824     23829     23830     23828     23824     23829     23831
     23828     23824     23829     23833     23828     23826     23836     23833
     23828     23826     23836     23837     23828     23826     23836     23838
     23828     23826     23840     23841     23828     23826     23840     23842
     23828     23826     23840     23843     23829     23833     23835     23845
     23829     23833     23836     23837     23829     23833     23836     23838
     23830     23829     23831     23832     23830     23829     23833     23834
     23830     23829     23833     23835     23830     23829     23833     23836
     23831     23829     23833     23834     23831     23829     23833     23835
     23831     23829     23833     23836     23832     23831     23829     23833
     23833     23835     23845     23846     23833     23835     23845     23849
     23833     23835     23845     23850     23833     23836     23826     23840
     23833     23836     23838     23839     23834     23833     23835     23845
     23834     23833     23836     23837     23834     23833     23836     23838
     23835     23833     23836     23837     23835     23833     23836     23838
     23835     23845     23849     23847     23835     23845     23850     23851
     23835     23845     23850     23852     23835     23845     23850     23860
     23836     23826     23840     23841     23836     23826     23840     23842
     23836     23826     23840     23843     23836     23833     23835     23845
     23837     23836     23826     23840     23837     23836     23838     23839
     23838     23836     23826     23840     23841     23840     23843     23844
     23842     23840     23843     23844     23845     23849     23847     23848
     23845     23849     23847     23863     23845     23849     23847     23867
     23845     23850     23852     23853     23845     23850     23852     23854
     23845     23850     23860     23861     23845     23850     23860     23862
     23845     23850     23860     23863     23846     23845     23849     23847
     23846     23845     23850     23851     23846     23845     23850     23852
     23846     23845     23850     23860     23847     23849     23845     23850
     23847     23863     23860     23850     23847     23863     23860     23861
     23847     23863     23860     23862     23847     23863     23865     23866
     23847     23867     23870     23871     23848     23847     23863     23860
     23848     23847     23863     23864     23848     23847     23863     23865
     23848     23847     23867     23868     23848     23847     23867     23869
     23848     23847     23867     23870     23849     23845     23850     23851
     23849     23845     23850     23852     23849     23845     23850     23860
     23849     23847     23863     23860     23849     23847     23863     23864
     23849     23847     23863     23865     23849     23847     23867     23868
     23849     23847     23867     23869     23849     23847     23867     23870
     23850     23852     23854     23855     23850     23852     23854     23856
     23850     23860     23862     23872     23850     23860     23863     23864
     23850     23860     23863     23865     23851     23850     23852     23853
     23851     23850     23852     23854     23851     23850     23860     23861
     23851     23850     23860     23862     23851     23850     23860     23863
     23852     23850     23860     23861     23852     23850     23860     23862
     23852     23850     23860     23863     23852     23854     23856     23857
     23852     23854     23856     23858     23852     23854     23856     23859
     23853     23852     23850     23860     23853     23852     23854     23855
     23853     23852     23854     23856     23854     23852     23850     23860
     23855     23854     23856     23857     23855     23854     23856     23858
     23855     23854     23856     23859     23860     23862     23872     23873
     23860     23862     23872     23876     23860     23862     23872     23877
     23860     23863     23847     23867     23860     23863     23865     23866
     23861     23860     23862     23872     23861     23860     23863     23864
     23861     23860     23863     23865     23862     23860     23863     23864
     23862     23860     23863     23865     23862     23872     23876     23874
     23862     23872     23877     23878     23862     23872     23877     23879
     23862     23872     23877     23880     23863     23847     23867     23868
     23863     23847     23867     23869     23863     23847     23867     23870
     23863     23860     23862     23872     23864     23863     23847     23867
     23864     23863     23865     23866     23865     23863     23847     23867
     23868     23867     23870     23871     23869     23867     23870     23871
     23872     23876     23874     23875     23872     23876     23874     23884
     23872     23876     23874     23888     23872     23877     23879     23893
     23872     23877     23880     23881     23872     23877     23880     23882
     23872     23877     23880     23884     23873     23872     23876     23874
     23873     23872     23877     23878     23873     23872     23877     23879
     23873     23872     23877     23880     23874     23876     23872     23877
     23874     23884     23880     23877     23874     23884     23880     23881
     23874     23884     23880     23882     23874     23884     23886     23887
     23874     23888     23891     23892     23875     23874     23884     23880
     23875     23874     23884     23885     23875     23874     23884     23886
     23875     23874     23888     23889     23875     23874     23888     23890
     23875     23874     23888     23891     23876     23872     23877     23878
     23876     23872     23877     23879     23876     23872     23877     23880
     23876     23874     23884     23880     23876     23874     23884     23885
     23876     23874     23884     23886     23876     23874     23888     23889
     23876     23874     23888     23890     23876     23874     23888     23891
     23877     23879     23893     23894     23877     23879     23893     23897
     23877     23879     23893     23898     23877     23880     23882     23883
     23877     23880     23884     23885     23877     23880     23884     23886
     23878     23877     23879     23893     23878     23877     23880     23881
     23878     23877     23880     23882     23878     23877     23880     23884
     23879     23877     23880     23881     23879     23877     23880     23882
     23879     23877     23880     23884     23879     23893     23897     23895
     23879     23893     23898     23899     23879     23893     23898     23900
     23879     23893     23898     23901     23880     23877     23879     23893
     23880     23884     23874     23888     23880     23884     23886     23887
     23881     23880     23882     23883     23881     23880     23884     23885
     23881     23880     23884     23886     23882     23880     23884     23885
     23882     23880     23884     23886     23883     23882     23880     23884
     23884     23874     23888     23889     23884     23874     23888     23890
     23884     23874     23888     23891     23885     23884     23874     23888
     23885     23884     23886     23887     23886     23884     23874     23888
     23889     23888     23891     23892     23890     23888     23891     23892
     23893     23897     23895     23896     23893     23897     23895     23905
     23893     23897     23895     23909     23893     23898     23900     23913
     23893     23898     23901     23902     23893     23898     23901     23903
     23893     23898     23901     23905     23894     23893     23897     23895
     23894     23893     23898     23899     23894     23893     23898     23900
     23894     23893     23898     23901     23895     23897     23893     23898
     23895     23905     23901     23898     23895     23905     23901     23902
     23895     23905     23901     23903     23895     23905     23907     23908
     23896     23895     23905     23901     23896     23895     23905     23906
     23896     23895     23905     23907     23896     23895     23909     23910
     23896     23895     23909     23911     23896     23895     23909     23912
     23897     23893     23898     23899     23897     23893     23898     23900
     23897     23893     23898     23901     23897     23895     23905     23901
     23897     23895     23905     23906     23897     23895     23905     23907
     23897     23895     23909     23910     23897     23895     23909     23911
     23897     23895     23909     23912     23898     23900     23913     23914
     23898     23900     23913     23917     23898     23900     23913     23918
     23898     23901     23903     23904     23898     23901     23905     23906
     23898     23901     23905     23907     23899     23898     23900     23913
     23899     23898     23901     23902     23899     23898     23901     23903
     23899     23898     23901     23905     23900     23898     23901     23902
     23900     23898     23901     23903     23900     23898     23901     23905
     23900     23913     23917     23915     23900     23913     23918     23919
     23900     23913     23918     23920     23900     23913     23918     23921
     23901     23898     23900     23913     23901     23905     23895     23909
     23901     23905     23907     23908     23902     23901     23903     23904
     23902     23901     23905     23906     23902     23901     23905     23907
     23903     23901     23905     23906     23903     23901     23905     23907
     23904     23903     23901     23905     23905     23895     23909     23910
     23905     23895     23909     23911     23905     23895     23909     23912
     23906     23905     23895     23909     23906     23905     23907     23908
     23907     23905     23895     23909     23913     23917     23915     23916
     23913     23917     23915     23924     23913     23917     23915     23928
     23913     23918     23920     23932     23913     23918     23921     23922
     23913     23918     23921     23923     23913     23918     23921     23924
     23914     23913     23917     23915     23914     23913     23918     23919
     23914     23913     23918     23920     23914     23913     23918     23921
     23915     23917     23913     23918     23915     23924     23921     23918
     23915     23924     23921     23922     23915     23924     23921     23923
     23915     23924     23926     23927     23916     23915     23924     23921
     23916     23915     23924     23925     23916     23915     23924     23926
     23916     23915     23928     23929     23916     23915     23928     23930
     23916     23915     23928     23931     23917     23913     23918     23919
     23917     23913     23918     23920     23917     23913     23918     23921
     23917     23915     23924     23921     23917     23915     23924     23925
     23917     23915     23924     23926     23917     23915     23928     23929
     23917     23915     23928     23930     23917     23915     23928     23931
     23918     23920     23932     23933     23918     23920     23932     23936
     23918     23920     23932     23937     23918     23921     23923     23960
     23918     23921     23924     23925     23918     23921     23924     23926
     23919     23918     23920     23932     23919     23918     23921     23922
     23919     23918     23921     23923     23919     23918     23921     23924
     23920     23918     23921     23922     23920     23918     23921     23923
     23920     23918     23921     23924     23920     23932     23936     23934
     23920     23932     23937     23938     23920     23932     23937     23939
     23920     23932     23937     23947     23921     23918     23920     23932
     23921     23923     23960     23961     23921     23923     23960     23964
     23921     23923     23960     23965     23921     23924     23915     23928
     23921     23924     23926     23927     23922     23921     23923     23960
     23922     23921     23924     23925     23922     23921     23924     23926
     23923     23921     23924     23925     23923     23921     23924     23926
     23923     23960     23964     23962     23923     23960     23965     23966
     23923     23960     23965     23967     23923     23960     23965     23975
     23924     23915     23928     23929     23924     23915     23928     23930
     23924     23915     23928     23931     23924     23921     23923     23960
     23925     23924     23915     23928     23925     23924     23926     23927
     23926     23924     23915     23928     23932     23936     23934     23935
     23932     23936     23934     23951     23932     23936     23934     23955
     23932     23937     23939     23940     23932     23937     23939     23941
     23932     23937     23947     23948     23932     23937     23947     23949
     23932     23937     23947     23951     23933     23932     23936     23934
     23933     23932     23937     23938     23933     23932     23937     23939
     23933     23932     23937     23947     23934     23936     23932     23937
     23934     23951     23947     23937     23934     23951     23947     23948
     23934     23951     23947     23949     23934     23951     23953     23954
     23934     23955     23958     23959     23935     23934     23951     23947
     23935     23934     23951     23952     23935     23934     23951     23953
     23935     23934     23955     23956     23935     23934     23955     23957
     23935     23934     23955     23958     23936     23932     23937     23938
     23936     23932     23937     23939     23936     23932     23937     23947
     23936     23934     23951     23947     23936     23934     23951     23952
     23936     23934     23951     23953     23936     23934     23955     23956
     23936     23934     23955     23957     23936     23934     23955     23958
     23937     23939     23941     23942     23937     23939     23941     23943
     23937     23947     23949     23950     23937     23947     23951     23952
     23937     23947     23951     23953     23938     23937     23939     23940
     23938     23937     23939     23941     23938     23937     23947     23948
     23938     23937     23947     23949     23938     23937     23947     23951
     23939     23937     23947     23948     23939     23937     23947     23949
     23939     23937     23947     23951     23939     23941     23943     23944
     23939     23941     23943     23945     23939     23941     23943     23946
     23940     23939     23937     23947     23940     23939     23941     23942
     23940     23939     23941     23943     23941     23939     23937     23947
     23942     23941     23943     23944     23942     23941     23943     23945
     23942     23941     23943     23946     23947     23951     23934     23955
     23947     23951     23953     23954     23948     23947     23949     23950
     23948     23947     23951     23952     23948     23947     23951     23953
     23949     23947     23951     23952     23949     23947     23951     23953
     23950     23949     23947     23951     23951     23934     23955     23956
     23951     23934     23955     23957     23951     23934     23955     23958
     23952     23951     23934     23955     23952     23951     23953     23954
     23953     23951     23934     23955     23956     23955     23958     23959
     23957     23955     23958     23959     23960     23964     23962     23963
     23960     23964     23962     23978     23960     23964     23962     23982
     23960     23965     23967     23968     23960     23965     23967     23969
     23960     23965     23975     23976     23960     23965     23975     23977
     23960     23965     23975     23978     23961     23960     23964     23962
     23961     23960     23965     23966     23961     23960     23965     23967
     23961     23960     23965     23975     23962     23964     23960     23965
     23962     23978     23975     23965     23962     23978     23975     23976
     23962     23978     23975     23977     23962     23978     23980     23981
     23962     23982     23985     23986     23963     23962     23978     23975
     23963     23962     23978     23979     23963     23962     23978     23980
     23963     23962     23982     23983     23963     23962     23982     23984
     23963     23962     23982     23985     23964     23960     23965     23966
     23964     23960     23965     23967     23964     23960     23965     23975
     23964     23962     23978     23975     23964     23962     23978     23979
     23964     23962     23978     23980     23964     23962     23982     23983
     23964     23962     23982     23984     23964     23962     23982     23985
     23965     23967     23969     23970     23965     23967     23969     23971
     23965     23975     23977     23987     23965     23975     23978     23979
     23965     23975     23978     23980     23966     23965     23967     23968
     23966     23965     23967     23969     23966     23965     23975     23976
     23966     23965     23975     23977     23966     23965     23975     23978
     23967     23965     23975     23976     23967     23965     23975     23977
     23967     23965     23975     23978     23967     23969     23971     23972
     23967     23969     23971     23973     23967     23969     23971     23974
     23968     23967     23965     23975     23968     23967     23969     23970
     23968     23967     23969     23971     23969     23967     23965     23975
     23970     23969     23971     23972     23970     23969     23971     23973
     23970     23969     23971     23974     23975     23977     23987     23988
     23975     23977     23987     23991     23975     23977     23987     23992
     23975     23978     23962     23982     23975     23978     23980     23981
     23976     23975     23977     23987     23976     23975     23978     23979
     23976     23975     23978     23980     23977     23975     23978     23979
     23977     23975     23978     23980     23977     23987     23991     23989
     23977     23987     23992     23993     23977     23987     23992     23994
     23977     23987     23992     23995     23978     23962     23982     23983
     23978     23962     23982     23984     23978     23962     23982     23985
     23978     23975     23977     23987     23979     23978     23962     23982
     23979     23978     23980     23981     23980     23978     23962     23982
     23983     23982     23985     23986     23984     23982     23985     23986
     23987     23991     23989     23990     23987     23991     23989     23999
     23987     23991     23989     24003     23987     23992     23994     24008
     23987     23992     23995     23996     23987     23992     23995     23997
     23987     23992     23995     23999     23988     23987     23991     23989
     23988     23987     23992     23993     23988     23987     23992     23994
     23988     23987     23992     23995     23989     23991     23987     23992
     23989     23999     23995     23992     23989     23999     23995     23996
     23989     23999     23995     23997     23989     23999     24001     24002
     23989     24003     24006     24007     23990     23989     23999     23995
     23990     23989     23999     24000     23990     23989     23999     24001
     23990     23989     24003     24004     23990     23989     24003     24005
     23990     23989     24003     24006     23991     23987     23992     23993
     23991     23987     23992     23994     23991     23987     23992     23995
     23991     23989     23999     23995     23991     23989     23999     24000
     23991     23989     23999     24001     23991     23989     24003     24004
     23991     23989     24003     24005     23991     23989     24003     24006
     23992     23994     24008     24009     23992     23994     24008     24012
     23992     23994     24008     24013     23992     23995     23997     23998
     23992     23995     23999     24000     23992     23995     23999     24001
     23993     23992     23994     24008     23993     23992     23995     23996
     23993     23992     23995     23997     23993     23992     23995     23999
     23994     23992     23995     23996     23994     23992     23995     23997
     23994     23992     23995     23999     23994     24008     24012     24010
     23994     24008     24013     24014     23994     24008     24013     24015
     23994     24008     24013     24016     23995     23992     23994     24008
     23995     23999     23989     24003     23995     23999     24001     24002
     23996     23995     23997     23998     23996     23995     23999     24000
     23996     23995     23999     24001     23997     23995     23999     24000
     23997     23995     23999     24001     23998     23997     23995     23999
     23999     23989     24003     24004     23999     23989     24003     24005
     23999     23989     24003     24006     24000     23999     23989     24003
     24000     23999     24001     24002     24001     23999     23989     24003
     24004     24003     24006     24007     24005     24003     24006     24007
     24008     24012     24010     24011     24008     24012     24010     24020
     24008     24012     24010     24024     24008     24013     24015     24028
     24008     24013     24016     24017     24008     24013     24016     24018
     24008     24013     24016     24020     24009     24008     24012     24010
     24009     24008     24013     24014     24009     24008     24013     24015
     24009     24008     24013     24016     24010     24012     24008     24013
     24010     24020     24016     24013     24010     24020     24016     24017
     24010     24020     24016     24018     24010     24020     24022     24023
     24011     24010     24020     24016     24011     24010     24020     24021
     24011     24010     24020     24022     24011     24010     24024     24025
     24011     24010     24024     24026     24011     24010     24024     24027
     24012     24008     24013     24014     24012     24008     24013     24015
     24012     24008     24013     24016     24012     24010     24020     24016
     24012     24010     24020     24021     24012     24010     24020     24022
     24012     24010     24024     24025     24012     24010     24024     24026
     24012     24010     24024     24027     24013     24015     24028     24029
     24013     24015     24028     24032     24013     24015     24028     24033
     24013     24016     24018     24019     24013     24016     24020     24021
     24013     24016     24020     24022     24014     24013     24015     24028
     24014     24013     24016     24017     24014     24013     24016     24018
     24014     24013     24016     24020     24015     24013     24016     24017
     24015     24013     24016     24018     24015     24013     24016     24020
     24015     24028     24032     24030     24015     24028     24033     24034
     24015     24028     24033     24035     24015     24028     24033     24036
     24016     24013     24015     24028     24016     24020     24010     24024
     24016     24020     24022     24023     24017     24016     24018     24019
     24017     24016     24020     24021     24017     24016     24020     24022
     24018     24016     24020     24021     24018     24016     24020     24022
     24019     24018     24016     24020     24020     24010     24024     24025
     24020     24010     24024     24026     24020     24010     24024     24027
     24021     24020     24010     24024     24021     24020     24022     24023
     24022     24020     24010     24024     24028     24032     24030     24031
     24028     24032     24030     24039     24028     24032     24030     24043
     24028     24033     24035     24047     24028     24033     24036     24037
     24028     24033     24036     24038     24028     24033     24036     24039
     24029     24028     24032     24030     24029     24028     24033     24034
     24029     24028     24033     24035     24029     24028     24033     24036
     24030     24032     24028     24033     24030     24039     24036     24033
     24030     24039     24036     24037     24030     24039     24036     24038
     24030     24039     24041     24042     24031     24030     24039     24036
     24031     24030     24039     24040     24031     24030     24039     24041
     24031     24030     24043     24044     24031     24030     24043     24045
     24031     24030     24043     24046     24032     24028     24033     24034
     24032     24028     24033     24035     24032     24028     24033     24036
     24032     24030     24039     24036     24032     24030     24039     24040
     24032     24030     24039     24041     24032     24030     24043     24044
     24032     24030     24043     24045     24032     24030     24043     24046
     24033     24035     24047     24048     24033     24035     24047     24051
     24033     24035     24047     24052     24033     24036     24038     24075
     24033     24036     24039     24040     24033     24036     24039     24041
     24034     24033     24035     24047     24034     24033     24036     24037
     24034     24033     24036     24038     24034     24033     24036     24039
     24035     24033     24036     24037     24035     24033     24036     24038
     24035     24033     24036     24039     24035     24047     24051     24049
     24035     24047     24052     24053     24035     24047     24052     24054
     24035     24047     24052     24062     24036     24033     24035     24047
     24036     24038     24075     24076     24036     24038     24075     24079
     24036     24038     24075     24080     24036     24039     24030     24043
     24036     24039     24041     24042     24037     24036     24038     24075
     24037     24036     24039     24040     24037     24036     24039     24041
     24038     24036     24039     24040     24038     24036     24039     24041
     24038     24075     24079     24077     24038     24075     24080     24081
     24038     24075     24080     24082     24038     24075     24080     24090
     24039     24030     24043     24044     24039     24030     24043     24045
     24039     24030     24043     24046     24039     24036     24038     24075
     24040     24039     24030     24043     24040     24039     24041     24042
     24041     24039     24030     24043     24047     24051     24049     24050
     24047     24051     24049     24066     24047     24051     24049     24070
     24047     24052     24054     24055     24047     24052     24054     24056
     24047     24052     24062     24063     24047     24052     24062     24064
     24047     24052     24062     24066     24048     24047     24051     24049
     24048     24047     24052     24053     24048     24047     24052     24054
     24048     24047     24052     24062     24049     24051     24047     24052
     24049     24066     24062     24052     24049     24066     24062     24063
     24049     24066     24062     24064     24049     24066     24068     24069
     24049     24070     24073     24074     24050     24049     24066     24062
     24050     24049     24066     24067     24050     24049     24066     24068
     24050     24049     24070     24071     24050     24049     24070     24072
     24050     24049     24070     24073     24051     24047     24052     24053
     24051     24047     24052     24054     24051     24047     24052     24062
     24051     24049     24066     24062     24051     24049     24066     24067
     24051     24049     24066     24068     24051     24049     24070     24071
     24051     24049     24070     24072     24051     24049     24070     24073
     24052     24054     24056     24057     24052     24054     24056     24058
     24052     24062     24064     24065     24052     24062     24066     24067
     24052     24062     24066     24068     24053     24052     24054     24055
     24053     24052     24054     24056     24053     24052     24062     24063
     24053     24052     24062     24064     24053     24052     24062     24066
     24054     24052     24062     24063     24054     24052     24062     24064
     24054     24052     24062     24066     24054     24056     24058     24059
     24054     24056     24058     24060     24054     24056     24058     24061
     24055     24054     24052     24062     24055     24054     24056     24057
     24055     24054     24056     24058     24056     24054     24052     24062
     24057     24056     24058     24059     24057     24056     24058     24060
     24057     24056     24058     24061     24062     24066     24049     24070
     24062     24066     24068     24069     24063     24062     24064     24065
     24063     24062     24066     24067     24063     24062     24066     24068
     24064     24062     24066     24067     24064     24062     24066     24068
     24065     24064     24062     24066     24066     24049     24070     24071
     24066     24049     24070     24072     24066     24049     24070     24073
     24067     24066     24049     24070     24067     24066     24068     24069
     24068     24066     24049     24070     24071     24070     24073     24074
     24072     24070     24073     24074     24075     24079     24077     24078
     24075     24079     24077     24093     24075     24079     24077     24097
     24075     24080     24082     24083     24075     24080     24082     24084
     24075     24080     24090     24091     24075     24080     24090     24092
     24075     24080     24090     24093     24076     24075     24079     24077
     24076     24075     24080     24081     24076     24075     24080     24082
     24076     24075     24080     24090     24077     24079     24075     24080
     24077     24093     24090     24080     24077     24093     24090     24091
     24077     24093     24090     24092     24077     24093     24095     24096
     24077     24097     24100     24101     24078     24077     24093     24090
     24078     24077     24093     24094     24078     24077     24093     24095
     24078     24077     24097     24098     24078     24077     24097     24099
     24078     24077     24097     24100     24079     24075     24080     24081
     24079     24075     24080     24082     24079     24075     24080     24090
     24079     24077     24093     24090     24079     24077     24093     24094
     24079     24077     24093     24095     24079     24077     24097     24098
     24079     24077     24097     24099     24079     24077     24097     24100
     24080     24082     24084     24085     24080     24082     24084     24086
     24080     24090     24092     24102     24080     24090     24093     24094
     24080     24090     24093     24095     24081     24080     24082     24083
     24081     24080     24082     24084     24081     24080     24090     24091
     24081     24080     24090     24092     24081     24080     24090     24093
     24082     24080     24090     24091     24082     24080     24090     24092
     24082     24080     24090     24093     24082     24084     24086     24087
     24082     24084     24086     24088     24082     24084     24086     24089
     24083     24082     24080     24090     24083     24082     24084     24085
     24083     24082     24084     24086     24084     24082     24080     24090
     24085     24084     24086     24087     24085     24084     24086     24088
     24085     24084     24086     24089     24090     24092     24102     24103
     24090     24092     24102     24106     24090     24092     24102     24107
     24090     24093     24077     24097     24090     24093     24095     24096
     24091     24090     24092     24102     24091     24090     24093     24094
     24091     24090     24093     24095     24092     24090     24093     24094
     24092     24090     24093     24095     24092     24102     24106     24104
     24092     24102     24107     24108     24092     24102     24107     24109
     24092     24102     24107     24110     24093     24077     24097     24098
     24093     24077     24097     24099     24093     24077     24097     24100
     24093     24090     24092     24102     24094     24093     24077     24097
     24094     24093     24095     24096     24095     24093     24077     24097
     24098     24097     24100     24101     24099     24097     24100     24101
     24102     24106     24104     24105     24102     24106     24104     24114
     24102     24106     24104     24118     24102     24107     24109     24123
     24102     24107     24110     24111     24102     24107     24110     24112
     24102     24107     24110     24114     24103     24102     24106     24104
     24103     24102     24107     24108     24103     24102     24107     24109
     24103     24102     24107     24110     24104     24106     24102     24107
     24104     24114     24110     24107     24104     24114     24110     24111
     24104     24114     24110     24112     24104     24114     24116     24117
     24104     24118     24121     24122     24105     24104     24114     24110
     24105     24104     24114     24115     24105     24104     24114     24116
     24105     24104     24118     24119     24105     24104     24118     24120
     24105     24104     24118     24121     24106     24102     24107     24108
     24106     24102     24107     24109     24106     24102     24107     24110
     24106     24104     24114     24110     24106     24104     24114     24115
     24106     24104     24114     24116     24106     24104     24118     24119
     24106     24104     24118     24120     24106     24104     24118     24121
     24107     24109     24123     24124     24107     24109     24123     24127
     24107     24109     24123     24128     24107     24110     24112     24113
     24107     24110     24114     24115     24107     24110     24114     24116
     24108     24107     24109     24123     24108     24107     24110     24111
     24108     24107     24110     24112     24108     24107     24110     24114
     24109     24107     24110     24111     24109     24107     24110     24112
     24109     24107     24110     24114     24109     24123     24127     24125
     24109     24123     24128     24129     24109     24123     24128     24130
     24109     24123     24128     24131     24110     24107     24109     24123
     24110     24114     24104     24118     24110     24114     24116     24117
     24111     24110     24112     24113     24111     24110     24114     24115
     24111     24110     24114     24116     24112     24110     24114     24115
     24112     24110     24114     24116     24113     24112     24110     24114
     24114     24104     24118     24119     24114     24104     24118     24120
     24114     24104     24118     24121     24115     24114     24104     24118
     24115     24114     24116     24117     24116     24114     24104     24118
     24119     24118     24121     24122     24120     24118     24121     24122
     24123     24127     24125     24126     24123     24127     24125     24135
     24123     24127     24125     24139     24123     24128     24130     24143
     24123     24128     24131     24132     24123     24128     24131     24133
     24123     24128     24131     24135     24124     24123     24127     24125
     24124     24123     24128     24129     24124     24123     24128     24130
     24124     24123     24128     24131     24125     24127     24123     24128
     24125     24135     24131     24128     24125     24135     24131     24132
     24125     24135     24131     24133     24125     24135     24137     24138
     24126     24125     24135     24131     24126     24125     24135     24136
     24126     24125     24135     24137     24126     24125     24139     24140
     24126     24125     24139     24141     24126     24125     24139     24142
     24127     24123     24128     24129     24127     24123     24128     24130
     24127     24123     24128     24131     24127     24125     24135     24131
     24127     24125     24135     24136     24127     24125     24135     24137
     24127     24125     24139     24140     24127     24125     24139     24141
     24127     24125     24139     24142     24128     24130     24143     24144
     24128     24130     24143     24147     24128     24130     24143     24148
     24128     24131     24133     24134     24128     24131     24135     24136
     24128     24131     24135     24137     24129     24128     24130     24143
     24129     24128     24131     24132     24129     24128     24131     24133
     24129     24128     24131     24135     24130     24128     24131     24132
     24130     24128     24131     24133     24130     24128     24131     24135
     24130     24143     24147     24145     24130     24143     24148     24149
     24130     24143     24148     24150     24130     24143     24148     24151
     24131     24128     24130     24143     24131     24135     24125     24139
     24131     24135     24137     24138     24132     24131     24133     24134
     24132     24131     24135     24136     24132     24131     24135     24137
     24133     24131     24135     24136     24133     24131     24135     24137
     24134     24133     24131     24135     24135     24125     24139     24140
     24135     24125     24139     24141     24135     24125     24139     24142
     24136     24135     24125     24139     24136     24135     24137     24138
     24137     24135     24125     24139     24143     24147     24145     24146
     24143     24147     24145     24154     24143     24147     24145     24158
     24143     24148     24150     24162     24143     24148     24151     24152
     24143     24148     24151     24153     24143     24148     24151     24154
     24144     24143     24147     24145     24144     24143     24148     24149
     24144     24143     24148     24150     24144     24143     24148     24151
     24145     24147     24143     24148     24145     24154     24151     24148
     24145     24154     24151     24152     24145     24154     24151     24153
     24145     24154     24156     24157     24146     24145     24154     24151
     24146     24145     24154     24155     24146     24145     24154     24156
     24146     24145     24158     24159     24146     24145     24158     24160
     24146     24145     24158     24161     24147     24143     24148     24149
     24147     24143     24148     24150     24147     24143     24148     24151
     24147     24145     24154     24151     24147     24145     24154     24155
     24147     24145     24154     24156     24147     24145     24158     24159
     24147     24145     24158     24160     24147     24145     24158     24161
     24148     24150     24162     24163     24148     24150     24162     24166
     24148     24150     24162     24167     24148     24151     24153     24190
     24148     24151     24154     24155     24148     24151     24154     24156
     24149     24148     24150     24162     24149     24148     24151     24152
     24149     24148     24151     24153     24149     24148     24151     24154
     24150     24148     24151     24152     24150     24148     24151     24153
     24150     24148     24151     24154     24150     24162     24166     24164
     24150     24162     24167     24168     24150     24162     24167     24169
     24150     24162     24167     24177     24151     24148     24150     24162
     24151     24153     24190     24191     24151     24153     24190     24194
     24151     24153     24190     24195     24151     24154     24145     24158
     24151     24154     24156     24157     24152     24151     24153     24190
     24152     24151     24154     24155     24152     24151     24154     24156
     24153     24151     24154     24155     24153     24151     24154     24156
     24153     24190     24194     24192     24153     24190     24195     24196
     24153     24190     24195     24197     24153     24190     24195     24205
     24154     24145     24158     24159     24154     24145     24158     24160
     24154     24145     24158     24161     24154     24151     24153     24190
     24155     24154     24145     24158     24155     24154     24156     24157
     24156     24154     24145     24158     24162     24166     24164     24165
     24162     24166     24164     24181     24162     24166     24164     24185
     24162     24167     24169     24170     24162     24167     24169     24171
     24162     24167     24177     24178     24162     24167     24177     24179
     24162     24167     24177     24181     24163     24162     24166     24164
     24163     24162     24167     24168     24163     24162     24167     24169
     24163     24162     24167     24177     24164     24166     24162     24167
     24164     24181     24177     24167     24164     24181     24177     24178
     24164     24181     24177     24179     24164     24181     24183     24184
     24164     24185     24188     24189     24165     24164     24181     24177
     24165     24164     24181     24182     24165     24164     24181     24183
     24165     24164     24185     24186     24165     24164     24185     24187
     24165     24164     24185     24188     24166     24162     24167     24168
     24166     24162     24167     24169     24166     24162     24167     24177
     24166     24164     24181     24177     24166     24164     24181     24182
     24166     24164     24181     24183     24166     24164     24185     24186
     24166     24164     24185     24187     24166     24164     24185     24188
     24167     24169     24171     24172     24167     24169     24171     24173
     24167     24177     24179     24180     24167     24177     24181     24182
     24167     24177     24181     24183     24168     24167     24169     24170
     24168     24167     24169     24171     24168     24167     24177     24178
     24168     24167     24177     24179     24168     24167     24177     24181
     24169     24167     24177     24178     24169     24167     24177     24179
     24169     24167     24177     24181     24169     24171     24173     24174
     24169     24171     24173     24175     24169     24171     24173     24176
     24170     24169     24167     24177     24170     24169     24171     24172
     24170     24169     24171     24173     24171     24169     24167     24177
     24172     24171     24173     24174     24172     24171     24173     24175
     24172     24171     24173     24176     24177     24181     24164     24185
     24177     24181     24183     24184     24178     24177     24179     24180
     24178     24177     24181     24182     24178     24177     24181     24183
     24179     24177     24181     24182     24179     24177     24181     24183
     24180     24179     24177     24181     24181     24164     24185     24186
     24181     24164     24185     24187     24181     24164     24185     24188
     24182     24181     24164     24185     24182     24181     24183     24184
     24183     24181     24164     24185     24186     24185     24188     24189
     24187     24185     24188     24189     24190     24194     24192     24193
     24190     24194     24192     24208     24190     24194     24192     24212
     24190     24195     24197     24198     24190     24195     24197     24199
     24190     24195     24205     24206     24190     24195     24205     24207
     24190     24195     24205     24208     24191     24190     24194     24192
     24191     24190     24195     24196     24191     24190     24195     24197
     24191     24190     24195     24205     24192     24194     24190     24195
     24192     24208     24205     24195     24192     24208     24205     24206
     24192     24208     24205     24207     24192     24208     24210     24211
     24192     24212     24215     24216     24193     24192     24208     24205
     24193     24192     24208     24209     24193     24192     24208     24210
     24193     24192     24212     24213     24193     24192     24212     24214
     24193     24192     24212     24215     24194     24190     24195     24196
     24194     24190     24195     24197     24194     24190     24195     24205
     24194     24192     24208     24205     24194     24192     24208     24209
     24194     24192     24208     24210     24194     24192     24212     24213
     24194     24192     24212     24214     24194     24192     24212     24215
     24195     24197     24199     24200     24195     24197     24199     24201
     24195     24205     24207     24217     24195     24205     24208     24209
     24195     24205     24208     24210     24196     24195     24197     24198
     24196     24195     24197     24199     24196     24195     24205     24206
     24196     24195     24205     24207     24196     24195     24205     24208
     24197     24195     24205     24206     24197     24195     24205     24207
     24197     24195     24205     24208     24197     24199     24201     24202
     24197     24199     24201     24203     24197     24199     24201     24204
     24198     24197     24195     24205     24198     24197     24199     24200
     24198     24197     24199     24201     24199     24197     24195     24205
     24200     24199     24201     24202     24200     24199     24201     24203
     24200     24199     24201     24204     24205     24207     24217     24218
     24205     24207     24217     24221     24205     24207     24217     24222
     24205     24208     24192     24212     24205     24208     24210     24211
     24206     24205     24207     24217     24206     24205     24208     24209
     24206     24205     24208     24210     24207     24205     24208     24209
     24207     24205     24208     24210     24207     24217     24221     24219
     24207     24217     24222     24223     24207     24217     24222     24224
     24207     24217     24222     24225     24208     24192     24212     24213
     24208     24192     24212     24214     24208     24192     24212     24215
     24208     24205     24207     24217     24209     24208     24192     24212
     24209     24208     24210     24211     24210     24208     24192     24212
     24213     24212     24215     24216     24214     24212     24215     24216
     24217     24221     24219     24220     24217     24221     24219     24229
     24217     24221     24219     24233     24217     24222     24224     24238
     24217     24222     24225     24226     24217     24222     24225     24227
     24217     24222     24225     24229     24218     24217     24221     24219
     24218     24217     24222     24223     24218     24217     24222     24224
     24218     24217     24222     24225     24219     24221     24217     24222
     24219     24229     24225     24222     24219     24229     24225     24226
     24219     24229     24225     24227     24219     24229     24231     24232
     24219     24233     24236     24237     24220     24219     24229     24225
     24220     24219     24229     24230     24220     24219     24229     24231
     24220     24219     24233     24234     24220     24219     24233     24235
     24220     24219     24233     24236     24221     24217     24222     24223
     24221     24217     24222     24224     24221     24217     24222     24225
     24221     24219     24229     24225     24221     24219     24229     24230
     24221     24219     24229     24231     24221     24219     24233     24234
     24221     24219     24233     24235     24221     24219     24233     24236
     24222     24224     24238     24239     24222     24224     24238     24242
     24222     24224     24238     24243     24222     24225     24227     24228
     24222     24225     24229     24230     24222     24225     24229     24231
     24223     24222     24224     24238     24223     24222     24225     24226
     24223     24222     24225     24227     24223     24222     24225     24229
     24224     24222     24225     24226     24224     24222     24225     24227
     24224     24222     24225     24229     24224     24238     24242     24240
     24224     24238     24243     24244     24224     24238     24243     24245
     24224     24238     24243     24246     24225     24222     24224     24238
     24225     24229     24219     24233     24225     24229     24231     24232
     24226     24225     24227     24228     24226     24225     24229     24230
     24226     24225     24229     24231     24227     24225     24229     24230
     24227     24225     24229     24231     24228     24227     24225     24229
     24229     24219     24233     24234     24229     24219     24233     24235
     24229     24219     24233     24236     24230     24229     24219     24233
     24230     24229     24231     24232     24231     24229     24219     24233
     24234     24233     24236     24237     24235     24233     24236     24237
     24238     24242     24240     24241     24238     24242     24240     24250
     24238     24242     24240     24254     24238     24243     24245     24258
     24238     24243     24246     24247     24238     24243     24246     24248
     24238     24243     24246     24250     24239     24238     24242     24240
     24239     24238     24243     24244     24239     24238     24243     24245
     24239     24238     24243     24246     24240     24242     24238     24243
     24240     24250     24246     24243     24240     24250     24246     24247
     24240     24250     24246     24248     24240     24250     24252     24253
     24241     24240     24250     24246     24241     24240     24250     24251
     24241     24240     24250     24252     24241     24240     24254     24255
     24241     24240     24254     24256     24241     24240     24254     24257
     24242     24238     24243     24244     24242     24238     24243     24245
     24242     24238     24243     24246     24242     24240     24250     24246
     24242     24240     24250     24251     24242     24240     24250     24252
     24242     24240     24254     24255     24242     24240     24254     24256
     24242     24240     24254     24257     24243     24245     24258     24259
     24243     24245     24258     24262     24243     24245     24258     24263
     24243     24246     24248     24249     24243     24246     24250     24251
     24243     24246     24250     24252     24244     24243     24245     24258
     24244     24243     24246     24247     24244     24243     24246     24248
     24244     24243     24246     24250     24245     24243     24246     24247
     24245     24243     24246     24248     24245     24243     24246     24250
     24245     24258     24262     24260     24245     24258     24263     24264
     24245     24258     24263     24265     24245     24258     24263     24266
     24246     24243     24245     24258     24246     24250     24240     24254
     24246     24250     24252     24253     24247     24246     24248     24249
     24247     24246     24250     24251     24247     24246     24250     24252
     24248     24246     24250     24251     24248     24246     24250     24252
     24249     24248     24246     24250     24250     24240     24254     24255
     24250     24240     24254     24256     24250     24240     24254     24257
     24251     24250     24240     24254     24251     24250     24252     24253
     24252     24250     24240     24254     24258     24262     24260     24261
     24258     24262     24260     24269     24258     24262     24260     24273
     24258     24263     24265     24277     24258     24263     24266     24267
     24258     24263     24266     24268     24258     24263     24266     24269
     24259     24258     24262     24260     24259     24258     24263     24264
     24259     24258     24263     24265     24259     24258     24263     24266
     24260     24262     24258     24263     24260     24269     24266     24263
     24260     24269     24266     24267     24260     24269     24266     24268
     24260     24269     24271     24272     24261     24260     24269     24266
     24261     24260     24269     24270     24261     24260     24269     24271
     24261     24260     24273     24274     24261     24260     24273     24275
     24261     24260     24273     24276     24262     24258     24263     24264
     24262     24258     24263     24265     24262     24258     24263     24266
     24262     24260     24269     24266     24262     24260     24269     24270
     24262     24260     24269     24271     24262     24260     24273     24274
     24262     24260     24273     24275     24262     24260     24273     24276
     24263     24265     24277     24278     24263     24265     24277     24281
     24263     24265     24277     24282     24263     24266     24268     24305
     24263     24266     24269     24270     24263     24266     24269     24271
     24264     24263     24265     24277     24264     24263     24266     24267
     24264     24263     24266     24268     24264     24263     24266     24269
     24265     24263     24266     24267     24265     24263     24266     24268
     24265     24263     24266     24269     24265     24277     24281     24279
     24265     24277     24282     24283     24265     24277     24282     24284
     24265     24277     24282     24292     24266     24263     24265     24277
     24266     24268     24305     24306     24266     24268     24305     24309
     24266     24268     24305     24310     24266     24269     24260     24273
     24266     24269     24271     24272     24267     24266     24268     24305
     24267     24266     24269     24270     24267     24266     24269     24271
     24268     24266     24269     24270     24268     24266     24269     24271
     24268     24305     24309     24307     24268     24305     24310     24311
     24268     24305     24310     24312     24268     24305     24310     24320
     24269     24260     24273     24274     24269     24260     24273     24275
     24269     24260     24273     24276     24269     24266     24268     24305
     24270     24269     24260     24273     24270     24269     24271     24272
     24271     24269     24260     24273     24277     24281     24279     24280
     24277     24281     24279     24296     24277     24281     24279     24300
     24277     24282     24284     24285     24277     24282     24284     24286
     24277     24282     24292     24293     24277     24282     24292     24294
     24277     24282     24292     24296     24278     24277     24281     24279
     24278     24277     24282     24283     24278     24277     24282     24284
     24278     24277     24282     24292     24279     24281     24277     24282
     24279     24296     24292     24282     24279     24296     24292     24293
     24279     24296     24292     24294     24279     24296     24298     24299
     24279     24300     24303     24304     24280     24279     24296     24292
     24280     24279     24296     24297     24280     24279     24296     24298
     24280     24279     24300     24301     24280     24279     24300     24302
     24280     24279     24300     24303     24281     24277     24282     24283
     24281     24277     24282     24284     24281     24277     24282     24292
     24281     24279     24296     24292     24281     24279     24296     24297
     24281     24279     24296     24298     24281     24279     24300     24301
     24281     24279     24300     24302     24281     24279     24300     24303
     24282     24284     24286     24287     24282     24284     24286     24288
     24282     24292     24294     24295     24282     24292     24296     24297
     24282     24292     24296     24298     24283     24282     24284     24285
     24283     24282     24284     24286     24283     24282     24292     24293
     24283     24282     24292     24294     24283     24282     24292     24296
     24284     24282     24292     24293     24284     24282     24292     24294
     24284     24282     24292     24296     24284     24286     24288     24289
     24284     24286     24288     24290     24284     24286     24288     24291
     24285     24284     24282     24292     24285     24284     24286     24287
     24285     24284     24286     24288     24286     24284     24282     24292
     24287     24286     24288     24289     24287     24286     24288     24290
     24287     24286     24288     24291     24292     24296     24279     24300
     24292     24296     24298     24299     24293     24292     24294     24295
     24293     24292     24296     24297     24293     24292     24296     24298
     24294     24292     24296     24297     24294     24292     24296     24298
     24295     24294     24292     24296     24296     24279     24300     24301
     24296     24279     24300     24302     24296     24279     24300     24303
     24297     24296     24279     24300     24297     24296     24298     24299
     24298     24296     24279     24300     24301     24300     24303     24304
     24302     24300     24303     24304     24305     24309     24307     24308
     24305     24309     24307     24323     24305     24309     24307     24327
     24305     24310     24312     24313     24305     24310     24312     24314
     24305     24310     24320     24321     24305     24310     24320     24322
     24305     24310     24320     24323     24306     24305     24309     24307
     24306     24305     24310     24311     24306     24305     24310     24312
     24306     24305     24310     24320     24307     24309     24305     24310
     24307     24323     24320     24310     24307     24323     24320     24321
     24307     24323     24320     24322     24307     24323     24325     24326
     24307     24327     24330     24331     24308     24307     24323     24320
     24308     24307     24323     24324     24308     24307     24323     24325
     24308     24307     24327     24328     24308     24307     24327     24329
     24308     24307     24327     24330     24309     24305     24310     24311
     24309     24305     24310     24312     24309     24305     24310     24320
     24309     24307     24323     24320     24309     24307     24323     24324
     24309     24307     24323     24325     24309     24307     24327     24328
     24309     24307     24327     24329     24309     24307     24327     24330
     24310     24312     24314     24315     24310     24312     24314     24316
     24310     24320     24322     24332     24310     24320     24323     24324
     24310     24320     24323     24325     24311     24310     24312     24313
     24311     24310     24312     24314     24311     24310     24320     24321
     24311     24310     24320     24322     24311     24310     24320     24323
     24312     24310     24320     24321     24312     24310     24320     24322
     24312     24310     24320     24323     24312     24314     24316     24317
     24312     24314     24316     24318     24312     24314     24316     24319
     24313     24312     24310     24320     24313     24312     24314     24315
     24313     24312     24314     24316     24314     24312     24310     24320
     24315     24314     24316     24317     24315     24314     24316     24318
     24315     24314     24316     24319     24320     24322     24332     24333
     24320     24322     24332     24336     24320     24322     24332     24337
     24320     24323     24307     24327     24320     24323     24325     24326
     24321     24320     24322     24332     24321     24320     24323     24324
     24321     24320     24323     24325     24322     24320     24323     24324
     24322     24320     24323     24325     24322     24332     24336     24334
     24322     24332     24337     24338     24322     24332     24337     24339
     24322     24332     24337     24340     24323     24307     24327     24328
     24323     24307     24327     24329     24323     24307     24327     24330
     24323     24320     24322     24332     24324     24323     24307     24327
     24324     24323     24325     24326     24325     24323     24307     24327
     24328     24327     24330     24331     24329     24327     24330     24331
     24332     24336     24334     24335     24332     24336     24334     24344
     24332     24336     24334     24348     24332     24337     24339     24353
     24332     24337     24340     24341     24332     24337     24340     24342
     24332     24337     24340     24344     24333     24332     24336     24334
     24333     24332     24337     24338     24333     24332     24337     24339
     24333     24332     24337     24340     24334     24336     24332     24337
     24334     24344     24340     24337     24334     24344     24340     24341
     24334     24344     24340     24342     24334     24344     24346     24347
     24334     24348     24351     24352     24335     24334     24344     24340
     24335     24334     24344     24345     24335     24334     24344     24346
     24335     24334     24348     24349     24335     24334     24348     24350
     24335     24334     24348     24351     24336     24332     24337     24338
     24336     24332     24337     24339     24336     24332     24337     24340
     24336     24334     24344     24340     24336     24334     24344     24345
     24336     24334     24344     24346     24336     24334     24348     24349
     24336     24334     24348     24350     24336     24334     24348     24351
     24337     24339     24353     24354     24337     24339     24353     24357
     24337     24339     24353     24358     24337     24340     24342     24343
     24337     24340     24344     24345     24337     24340     24344     24346
     24338     24337     24339     24353     24338     24337     24340     24341
     24338     24337     24340     24342     24338     24337     24340     24344
     24339     24337     24340     24341     24339     24337     24340     24342
     24339     24337     24340     24344     24339     24353     24357     24355
     24339     24353     24358     24359     24339     24353     24358     24360
     24339     24353     24358     24361     24340     24337     24339     24353
     24340     24344     24334     24348     24340     24344     24346     24347
     24341     24340     24342     24343     24341     24340     24344     24345
     24341     24340     24344     24346     24342     24340     24344     24345
     24342     24340     24344     24346     24343     24342     24340     24344
     24344     24334     24348     24349     24344     24334     24348     24350
     24344     24334     24348     24351     24345     24344     24334     24348
     24345     24344     24346     24347     24346     24344     24334     24348
     24349     24348     24351     24352     24350     24348     24351     24352
     24353     24357     24355     24356     24353     24357     24355     24365
     24353     24357     24355     24369     24353     24358     24360     24373
     24353     24358     24361     24362     24353     24358     24361     24363
     24353     24358     24361     24365     24354     24353     24357     24355
     24354     24353     24358     24359     24354     24353     24358     24360
     24354     24353     24358     24361     24355     24357     24353     24358
     24355     24365     24361     24358     24355     24365     24361     24362
     24355     24365     24361     24363     24355     24365     24367     24368
     24356     24355     24365     24361     24356     24355     24365     24366
     24356     24355     24365     24367     24356     24355     24369     24370
     24356     24355     24369     24371     24356     24355     24369     24372
     24357     24353     24358     24359     24357     24353     24358     24360
     24357     24353     24358     24361     24357     24355     24365     24361
     24357     24355     24365     24366     24357     24355     24365     24367
     24357     24355     24369     24370     24357     24355     24369     24371
     24357     24355     24369     24372     24358     24360     24373     24374
     24358     24360     24373     24377     24358     24360     24373     24378
     24358     24361     24363     24364     24358     24361     24365     24366
     24358     24361     24365     24367     24359     24358     24360     24373
     24359     24358     24361     24362     24359     24358     24361     24363
     24359     24358     24361     24365     24360     24358     24361     24362
     24360     24358     24361     24363     24360     24358     24361     24365
     24360     24373     24377     24375     24360     24373     24378     24379
     24360     24373     24378     24380     24360     24373     24378     24381
     24361     24358     24360     24373     24361     24365     24355     24369
     24361     24365     24367     24368     24362     24361     24363     24364
     24362     24361     24365     24366     24362     24361     24365     24367
     24363     24361     24365     24366     24363     24361     24365     24367
     24364     24363     24361     24365     24365     24355     24369     24370
     24365     24355     24369     24371     24365     24355     24369     24372
     24366     24365     24355     24369     24366     24365     24367     24368
     24367     24365     24355     24369     24373     24377     24375     24376
     24373     24377     24375     24385     24373     24377     24375     24389
     24373     24378     24380     24393     24373     24378     24381     24382
     24373     24378     24381     24383     24373     24378     24381     24385
     24374     24373     24377     24375     24374     24373     24378     24379
     24374     24373     24378     24380     24374     24373     24378     24381
     24375     24377     24373     24378     24375     24385     24381     24378
     24375     24385     24381     24382     24375     24385     24381     24383
     24375     24385     24387     24388     24376     24375     24385     24381
     24376     24375     24385     24386     24376     24375     24385     24387
     24376     24375     24389     24390     24376     24375     24389     24391
     24376     24375     24389     24392     24377     24373     24378     24379
     24377     24373     24378     24380     24377     24373     24378     24381
     24377     24375     24385     24381     24377     24375     24385     24386
     24377     24375     24385     24387     24377     24375     24389     24390
     24377     24375     24389     24391     24377     24375     24389     24392
     24378     24380     24393     24394     24378     24380     24393     24397
     24378     24380     24393     24398     24378     24381     24383     24384
     24378     24381     24385     24386     24378     24381     24385     24387
     24379     24378     24380     24393     24379     24378     24381     24382
     24379     24378     24381     24383     24379     24378     24381     24385
     24380     24378     24381     24382     24380     24378     24381     24383
     24380     24378     24381     24385     24380     24393     24397     24395
     24380     24393     24398     24399     24380     24393     24398     24400
     24380     24393     24398     24408     24381     24378     24380     24393
     24381     24385     24375     24389     24381     24385     24387     24388
     24382     24381     24383     24384     24382     24381     24385     24386
     24382     24381     24385     24387     24383     24381     24385     24386
     24383     24381     24385     24387     24384     24383     24381     24385
     24385     24375     24389     24390     24385     24375     24389     24391
     24385     24375     24389     24392     24386     24385     24375     24389
     24386     24385     24387     24388     24387     24385     24375     24389
     24393     24397     24395     24396     24393     24397     24395     24412
     24393     24397     24395     24416     24393     24398     24400     24401
     24393     24398     24400     24402     24393     24398     24408     24409
     24393     24398     24408     24410     24393     24398     24408     24412
     24394     24393     24397     24395     24394     24393     24398     24399
     24394     24393     24398     24400     24394     24393     24398     24408
     24395     24397     24393     24398     24395     24412     24408     24398
     24395     24412     24408     24409     24395     24412     24408     24410
     24395     24412     24414     24415     24395     24416     24419     24420
     24396     24395     24412     24408     24396     24395     24412     24413
     24396     24395     24412     24414     24396     24395     24416     24417
     24396     24395     24416     24418     24396     24395     24416     24419
     24397     24393     24398     24399     24397     24393     24398     24400
     24397     24393     24398     24408     24397     24395     24412     24408
     24397     24395     24412     24413     24397     24395     24412     24414
     24397     24395     24416     24417     24397     24395     24416     24418
     24397     24395     24416     24419     24398     24400     24402     24403
     24398     24400     24402     24404     24398     24408     24410     24411
     24398     24408     24412     24413     24398     24408     24412     24414
     24399     24398     24400     24401     24399     24398     24400     24402
     24399     24398     24408     24409     24399     24398     24408     24410
     24399     24398     24408     24412     24400     24398     24408     24409
     24400     24398     24408     24410     24400     24398     24408     24412
     24400     24402     24404     24405     24400     24402     24404     24406
     24400     24402     24404     24407     24401     24400     24398     24408
     24401     24400     24402     24403     24401     24400     24402     24404
     24402     24400     24398     24408     24403     24402     24404     24405
     24403     24402     24404     24406     24403     24402     24404     24407
     24408     24412     24395     24416     24408     24412     24414     24415
     24409     24408     24410     24411     24409     24408     24412     24413
     24409     24408     24412     24414     24410     24408     24412     24413
     24410     24408     24412     24414     24411     24410     24408     24412
     24412     24395     24416     24417     24412     24395     24416     24418
     24412     24395     24416     24419     24413     24412     24395     24416
     24413     24412     24414     24415     24414     24412     24395     24416
     24417     24416     24419     24420     24418     24416     24419     24420
     24421     24423     24422     24720     24421     24423     24425     24426
     24421     24423     24425     24427     24421     24423     24425     24434
     24422     24423     24425     24426     24422     24423     24425     24427
     24422     24423     24425     24434     24422     24720     24717     24718
     24422     24720     24717     24719     24422     24720     24723     24721
     24422     24720     24724     24725     24422     24720     24724     24726
     24422     24720     24724     24727     24423     24422     24720     24717
     24423     24422     24720     24723     24423     24422     24720     24724
     24423     24425     24426     24428     24423     24425     24434     24435
     24423     24425     24434     24436     24423     24425     24434     24441
     24424     24423     24422     24720     24424     24423     24425     24426
     24424     24423     24425     24427     24424     24423     24425     24434
     24425     24423     24422     24720     24425     24426     24428     24429
     24425     24426     24428     24430     24425     24426     24428     24449
     24425     24434     24436     24437     24425     24434     24441     24442
     24425     24434     24441     24443     24425     24434     24441     24449
     24426     24425     24434     24435     24426     24425     24434     24436
     24426     24425     24434     24441     24426     24428     24430     24431
     24426     24428     24449     24441     24426     24428     24449     24450
     24426     24428     24449     24451     24427     24425     24426     24428
     24427     24425     24434     24435     24427     24425     24434     24436
     24427     24425     24434     24441     24428     24426     24425     24434
     24428     24430     24431     24432     24428     24430     24431     24433
     24428     24430     24431     24457     24428     24449     24441     24434
     24428     24449     24441     24442     24428     24449     24441     24443
     24428     24449     24451     24452     24428     24449     24451     24558
     24429     24428     24430     24431     24429     24428     24449     24441
     24429     24428     24449     24450     24429     24428     24449     24451
     24430     24428     24449     24441     24430     24428     24449     24450
     24430     24428     24449     24451     24430     24431     24457     24453
     24430     24431     24457     24458     24430     24431     24457     24459
     24431     24430     24428     24449     24431     24457     24453     24454
     24431     24457     24453     24455     24431     24457     24453     24467
     24431     24457     24459     24460     24432     24431     24457     24453
     24432     24431     24457     24458     24432     24431     24457     24459
     24433     24431     24457     24453     24433     24431     24457     24458
     24433     24431     24457     24459     24434     24436     24437     24438
     24434     24436     24437     24439     24434     24436     24437     24440
     24434     24441     24442     24444     24434     24441     24449     24450
     24434     24441     24449     24451     24435     24434     24436     24437
     24435     24434     24441     24442     24435     24434     24441     24443
     24435     24434     24441     24449     24436     24434     24441     24442
     24436     24434     24441     24443     24436     24434     24441     24449
     24437     24436     24434     24441     24441     24442     24444     24445
     24441     24442     24444     24446     24441     24449     24451     24452
     24441     24449     24451     24558     24442     24441     24449     24450
     24442     24441     24449     24451     24442     24444     24446     24447
     24442     24444     24446     24448     24442     24444     24446     24479
     24443     24441     24442     24444     24443     24441     24449     24450
     24443     24441     24449     24451     24444     24442     24441     24449
     24444     24446     24479     24480     24444     24446     24479     24481
     24444     24446     24479     24524     24445     24444     24446     24447
     24445     24444     24446     24448     24445     24444     24446     24479
     24446     24479     24481     24482     24446     24479     24524     24525
     24446     24479     24524     24526     24446     24479     24524     24527
     24447     24446     24479     24480     24447     24446     24479     24481
     24447     24446     24479     24524     24448     24446     24479     24480
     24448     24446     24479     24481     24448     24446     24479     24524
     24449     24451     24558     24559     24449     24451     24558     24560
     24450     24449     24451     24452     24450     24449     24451     24558
     24451     24558     24560     24561     24451     24558     24560     24562
     24451     24558     24560     24563     24452     24451     24558     24559
     24452     24451     24558     24560     24453     24457     24459     24460
     24453     24467     24469     24470     24453     24467     24475     24460
     24453     24467     24475     24476     24453     24467     24475     24477
     24454     24453     24455     24456     24454     24453     24457     24458
     24454     24453     24457     24459     24454     24453     24467     24468
     24454     24453     24467     24469     24454     24453     24467     24475
     24455     24453     24457     24458     24455     24453     24457     24459
     24455     24453     24467     24468     24455     24453     24467     24469
     24455     24453     24467     24475     24456     24455     24453     24457
     24456     24455     24453     24467     24457     24453     24467     24468
     24457     24453     24467     24469     24457     24453     24467     24475
     24457     24459     24460     24461     24457     24459     24460     24462
     24457     24459     24460     24475     24458     24457     24453     24467
     24458     24457     24459     24460     24459     24457     24453     24467
     24459     24460     24462     24466     24459     24460     24475     24467
     24459     24460     24475     24476     24459     24460     24475     24477
     24460     24462     24466     24463     24460     24462     24466     24464
     24460     24462     24466     24465     24460     24475     24467     24468
     24460     24475     24467     24469     24460     24475     24477     24478
     24460     24475     24477     24674     24461     24460     24462     24466
     24461     24460     24475     24467     24461     24460     24475     24476
     24461     24460     24475     24477     24462     24460     24475     24467
     24462     24460     24475     24476     24462     24460     24475     24477
     24466     24462     24460     24475     24467     24469     24470     24471
     24467     24469     24470     24472     24467     24475     24477     24478
     24467     24475     24477     24674     24468     24467     24469     24470
     24468     24467     24475     24476     24468     24467     24475     24477
     24469     24467     24475     24476     24469     24467     24475     24477
     24469     24470     24472     24473     24469     24470     24472     24474
     24469     24470     24472     24636     24470     24469     24467     24475
     24470     24472     24636     24637     24470     24472     24636     24638
     24470     24472     24636     24640     24471     24470     24472     24473
     24471     24470     24472     24474     24471     24470     24472     24636
     24472     24636     24638     24639     24472     24636     24640     24641
     24472     24636     24640     24642     24472     24636     24640     24643
     24473     24472     24636     24637     24473     24472     24636     24638
     24473     24472     24636     24640     24474     24472     24636     24637
     24474     24472     24636     24638     24474     24472     24636     24640
     24475     24477     24674     24675     24475     24477     24674     24676
     24476     24475     24477     24478     24476     24475     24477     24674
     24477     24674     24676     24677     24477     24674     24676     24678
     24477     24674     24676     24679     24478     24477     24674     24675
     24478     24477     24674     24676     24479     24481     24482     24483
     24479     24481     24482     24484     24479     24524     24527     24528
     24479     24524     24527     24529     24479     24524     24527     24530
     24480     24479     24481     24482     24480     24479     24524     24525
     24480     24479     24524     24526     24480     24479     24524     24527
     24481     24479     24524     24525     24481     24479     24524     24526
     24481     24479     24524     24527     24481     24482     24484     24485
     24481     24482     24484     24486     24481     24482     24484     24487
     24482     24481     24479     24524     24482     24484     24487     24488
     24482     24484     24487     24489     24482     24484     24487     24490
     24483     24482     24484     24485     24483     24482     24484     24486
     24483     24482     24484     24487     24484     24487     24490     24491
     24484     24487     24490     24492     24484     24487     24490     24493
     24485     24484     24487     24488     24485     24484     24487     24489
     24485     24484     24487     24490     24486     24484     24487     24488
     24486     24484     24487     24489     24486     24484     24487     24490
     24487     24490     24493     24494     24487     24490     24493     24495
     24487     24490     24493     24496     24488     24487     24490     24491
     24488     24487     24490     24492     24488     24487     24490     24493
     24489     24487     24490     24491     24489     24487     24490     24492
     24489     24487     24490     24493     24490     24493     24496     24497
     24490     24493     24496     24498     24490     24493     24496     24499
     24491     24490     24493     24494     24491     24490     24493     24495
     24491     24490     24493     24496     24492     24490     24493     24494
     24492     24490     24493     24495     24492     24490     24493     24496
     24493     24496     24499     24500     24493     24496     24499     24501
     24493     24496     24499     24502     24494     24493     24496     24497
     24494     24493     24496     24498     24494     24493     24496     24499
     24495     24493     24496     24497     24495     24493     24496     24498
     24495     24493     24496     24499     24496     24499     24502     24503
     24496     24499     24502     24504     24496     24499     24502     24505
     24497     24496     24499     24500     24497     24496     24499     24501
     24497     24496     24499     24502     24498     24496     24499     24500
     24498     24496     24499     24501     24498     24496     24499     24502
     24499     24502     24505     24506     24499     24502     24505     24507
     24499     24502     24505     24508     24500     24499     24502     24503
     24500     24499     24502     24504     24500     24499     24502     24505
     24501     24499     24502     24503     24501     24499     24502     24504
     24501     24499     24502     24505     24502     24505     24508     24509
     24502     24505     24508     24510     24502     24505     24508     24511
     24503     24502     24505     24506     24503     24502     24505     24507
     24503     24502     24505     24508     24504     24502     24505     24506
     24504     24502     24505     24507     24504     24502     24505     24508
     24505     24508     24511     24512     24505     24508     24511     24513
     24505     24508     24511     24514     24506     24505     24508     24509
     24506     24505     24508     24510     24506     24505     24508     24511
     24507     24505     24508     24509     24507     24505     24508     24510
     24507     24505     24508     24511     24508     24511     24514     24515
     24508     24511     24514     24516     24508     24511     24514     24517
     24509     24508     24511     24512     24509     24508     24511     24513
     24509     24508     24511     24514     24510     24508     24511     24512
     24510     24508     24511     24513     24510     24508     24511     24514
     24511     24514     24517     24518     24511     24514     24517     24519
     24511     24514     24517     24520     24512     24511     24514     24515
     24512     24511     24514     24516     24512     24511     24514     24517
     24513     24511     24514     24515     24513     24511     24514     24516
     24513     24511     24514     24517     24514     24517     24520     24521
     24514     24517     24520     24522     24514     24517     24520     24523
     24515     24514     24517     24518     24515     24514     24517     24519
     24515     24514     24517     24520     24516     24514     24517     24518
     24516     24514     24517     24519     24516     24514     24517     24520
     24518     24517     24520     24521     24518     24517     24520     24522
     24518     24517     24520     24523     24519     24517     24520     24521
     24519     24517     24520     24522     24519     24517     24520     24523
     24524     24527     24530     24531     24524     24527     24530     24532
     24524     24527     24530     24533     24525     24524     24527     24528
     24525     24524     24527     24529     24525     24524     24527     24530
     24526     24524     24527     24528     24526     24524     24527     24529
     24526     24524     24527     24530     24527     24530     24533     24534
     24527     24530     24533     24535     24527     24530     24533     24536
     24528     24527     24530     24531     24528     24527     24530     24532
     24528     24527     24530     24533     24529     24527     24530     24531
     24529     24527     24530     24532     24529     24527     24530     24533
     24530     24533     24536     24537     24530     24533     24536     24538
     24530     24533     24536     24539     24531     24530     24533     24534
     24531     24530     24533     24535     24531     24530     24533     24536
     24532     24530     24533     24534     24532     24530     24533     24535
     24532     24530     24533     24536     24533     24536     24539     24540
     24533     24536     24539     24541     24533     24536     24539     24542
     24534     24533     24536     24537     24534     24533     24536     24538
     24534     24533     24536     24539     24535     24533     24536     24537
     24535     24533     24536     24538     24535     24533     24536     24539
     24536     24539     24542     24543     24536     24539     24542     24544
     24536     24539     24542     24545     24537     24536     24539     24540
     24537     24536     24539     24541     24537     24536     24539     24542
     24538     24536     24539     24540     24538     24536     24539     24541
     24538     24536     24539     24542     24539     24542     24545     24546
     24539     24542     24545     24547     24539     24542     24545     24548
     24540     24539     24542     24543     24540     24539     24542     24544
     24540     24539     24542     24545     24541     24539     24542     24543
     24541     24539     24542     24544     24541     24539     24542     24545
     24542     24545     24548     24549     24542     24545     24548     24550
     24542     24545     24548     24551     24543     24542     24545     24546
     24543     24542     24545     24547     24543     24542     24545     24548
     24544     24542     24545     24546     24544     24542     24545     24547
     24544     24542     24545     24548     24545     24548     24551     24552
     24545     24548     24551     24553     24545     24548     24551     24554
     24546     24545     24548     24549     24546     24545     24548     24550
     24546     24545     24548     24551     24547     24545     24548     24549
     24547     24545     24548     24550     24547     24545     24548     24551
     24548     24551     24554     24555     24548     24551     24554     24556
     24548     24551     24554     24557     24549     24548     24551     24552
     24549     24548     24551     24553     24549     24548     24551     24554
     24550     24548     24551     24552     24550     24548     24551     24553
     24550     24548     24551     24554     24552     24551     24554     24555
     24552     24551     24554     24556     24552     24551     24554     24557
     24553     24551     24554     24555     24553     24551     24554     24556
     24553     24551     24554     24557     24558     24560     24563     24564
     24558     24560     24563     24565     24558     24560     24563     24602
     24559     24558     24560     24561     24559     24558     24560     24562
     24559     24558     24560     24563     24560     24563     24565     24566
     24560     24563     24602     24603     24560     24563     24602     24604
     24560     24563     24602     24605     24561     24560     24563     24564
     24561     24560     24563     24565     24561     24560     24563     24602
     24562     24560     24563     24564     24562     24560     24563     24565
     24562     24560     24563     24602     24563     24565     24566     24567
     24563     24565     24566     24568     24563     24602     24605     24606
     24563     24602     24605     24607     24563     24602     24605     24608
     24564     24563     24565     24566     24564     24563     24602     24603
     24564     24563     24602     24604     24564     24563     24602     24605
     24565     24563     24602     24603     24565     24563     24602     24604
     24565     24563     24602     24605     24565     24566     24568     24569
     24565     24566     24568     24570     24565     24566     24568     24571
     24566     24565     24563     24602     24566     24568     24571     24572
     24566     24568     24571     24573     24566     24568     24571     24574
     24567     24566     24568     24569     24567     24566     24568     24570
     24567     24566     24568     24571     24568     24571     24574     24575
     24568     24571     24574     24576     24568     24571     24574     24577
     24569     24568     24571     24572     24569     24568     24571     24573
     24569     24568     24571     24574     24570     24568     24571     24572
     24570     24568     24571     24573     24570     24568     24571     24574
     24571     24574     24577     24578     24571     24574     24577     24579
     24571     24574     24577     24580     24572     24571     24574     24575
     24572     24571     24574     24576     24572     24571     24574     24577
     24573     24571     24574     24575     24573     24571     24574     24576
     24573     24571     24574     24577     24574     24577     24580     24581
     24574     24577     24580     24582     24574     24577     24580     24583
     24575     24574     24577     24578     24575     24574     24577     24579
     24575     24574     24577     24580     24576     24574     24577     24578
     24576     24574     24577     24579     24576     24574     24577     24580
     24577     24580     24583     24584     24577     24580     24583     24585
     24577     24580     24583     24586     24578     24577     24580     24581
     24578     24577     24580     24582     24578     24577     24580     24583
     24579     24577     24580     24581     24579     24577     24580     24582
     24579     24577     24580     24583     24580     24583     24586     24587
     24580     24583     24586     24588     24580     24583     24586     24589
     24581     24580     24583     24584     24581     24580     24583     24585
     24581     24580     24583     24586     24582     24580     24583     24584
     24582     24580     24583     24585     24582     24580     24583     24586
     24583     24586     24589     24590     24583     24586     24589     24591
     24583     24586     24589     24592     24584     24583     24586     24587
     24584     24583     24586     24588     24584     24583     24586     24589
     24585     24583     24586     24587     24585     24583     24586     24588
     24585     24583     24586     24589     24586     24589     24592     24593
     24586     24589     24592     24594     24586     24589     24592     24595
     24587     24586     24589     24590     24587     24586     24589     24591
     24587     24586     24589     24592     24588     24586     24589     24590
     24588     24586     24589     24591     24588     24586     24589     24592
     24589     24592     24595     24596     24589     24592     24595     24597
     24589     24592     24595     24598     24590     24589     24592     24593
     24590     24589     24592     24594     24590     24589     24592     24595
     24591     24589     24592     24593     24591     24589     24592     24594
     24591     24589     24592     24595     24592     24595     24598     24599
     24592     24595     24598     24600     24592     24595     24598     24601
     24593     24592     24595     24596     24593     24592     24595     24597
     24593     24592     24595     24598     24594     24592     24595     24596
     24594     24592     24595     24597     24594     24592     24595     24598
     24596     24595     24598     24599     24596     24595     24598     24600
     24596     24595     24598     24601     24597     24595     24598     24599
     24597     24595     24598     24600     24597     24595     24598     24601
     24602     24605     24608     24609     24602     24605     24608     24610
     24602     24605     24608     24611     24603     24602     24605     24606
     24603     24602     24605     24607     24603     24602     24605     24608
     24604     24602     24605     24606     24604     24602     24605     24607
     24604     24602     24605     24608     24605     24608     24611     24612
     24605     24608     24611     24613     24605     24608     24611     24614
     24606     24605     24608     24609     24606     24605     24608     24610
     24606     24605     24608     24611     24607     24605     24608     24609
     24607     24605     24608     24610     24607     24605     24608     24611
     24608     24611     24614     24615     24608     24611     24614     24616
     24608     24611     24614     24617     24609     24608     24611     24612
     24609     24608     24611     24613     24609     24608     24611     24614
     24610     24608     24611     24612     24610     24608     24611     24613
     24610     24608     24611     24614     24611     24614     24617     24618
     24611     24614     24617     24619     24611     24614     24617     24620
     24612     24611     24614     24615     24612     24611     24614     24616
     24612     24611     24614     24617     24613     24611     24614     24615
     24613     24611     24614     24616     24613     24611     24614     24617
     24614     24617     24620     24621     24614     24617     24620     24622
     24614     24617     24620     24623     24615     24614     24617     24618
     24615     24614     24617     24619     24615     24614     24617     24620
     24616     24614     24617     24618     24616     24614     24617     24619
     24616     24614     24617     24620     24617     24620     24623     24624
     24617     24620     24623     24625     24617     24620     24623     24626
     24618     24617     24620     24621     24618     24617     24620     24622
     24618     24617     24620     24623     24619     24617     24620     24621
     24619     24617     24620     24622     24619     24617     24620     24623
     24620     24623     24626     24627     24620     24623     24626     24628
     24620     24623     24626     24629     24621     24620     24623     24624
     24621     24620     24623     24625     24621     24620     24623     24626
     24622     24620     24623     24624     24622     24620     24623     24625
     24622     24620     24623     24626     24623     24626     24629     24630
     24623     24626     24629     24631     24623     24626     24629     24632
     24624     24623     24626     24627     24624     24623     24626     24628
     24624     24623     24626     24629     24625     24623     24626     24627
     24625     24623     24626     24628     24625     24623     24626     24629
     24626     24629     24632     24633     24626     24629     24632     24634
     24626     24629     24632     24635     24627     24626     24629     24630
     24627     24626     24629     24631     24627     24626     24629     24632
     24628     24626     24629     24630     24628     24626     24629     24631
     24628     24626     24629     24632     24630     24629     24632     24633
     24630     24629     24632     24634     24630     24629     24632     24635
     24631     24629     24632     24633     24631     24629     24632     24634
     24631     24629     24632     24635     24636     24640     24643     24644
     24636     24640     24643     24645     24636     24640     24643     24646
     24637     24636     24638     24639     24637     24636     24640     24641
     24637     24636     24640     24642     24637     24636     24640     24643
     24638     24636     24640     24641     24638     24636     24640     24642
     24638     24636     24640     24643     24639     24638     24636     24640
     24640     24643     24646     24647     24640     24643     24646     24648
     24640     24643     24646     24649     24641     24640     24643     24644
     24641     24640     24643     24645     24641     24640     24643     24646
     24642     24640     24643     24644     24642     24640     24643     24645
     24642     24640     24643     24646     24643     24646     24649     24650
     24643     24646     24649     24651     24643     24646     24649     24652
     24644     24643     24646     24647     24644     24643     24646     24648
     24644     24643     24646     24649     24645     24643     24646     24647
     24645     24643     24646     24648     24645     24643     24646     24649
     24646     24649     24652     24653     24646     24649     24652     24654
     24646     24649     24652     24655     24647     24646     24649     24650
     24647     24646     24649     24651     24647     24646     24649     24652
     24648     24646     24649     24650     24648     24646     24649     24651
     24648     24646     24649     24652     24649     24652     24655     24656
     24649     24652     24655     24657     24649     24652     24655     24658
     24650     24649     24652     24653     24650     24649     24652     24654
     24650     24649     24652     24655     24651     24649     24652     24653
     24651     24649     24652     24654     24651     24649     24652     24655
     24652     24655     24658     24659     24652     24655     24658     24660
     24652     24655     24658     24661     24653     24652     24655     24656
     24653     24652     24655     24657     24653     24652     24655     24658
     24654     24652     24655     24656     24654     24652     24655     24657
     24654     24652     24655     24658     24655     24658     24661     24662
     24655     24658     24661     24663     24655     24658     24661     24664
     24656     24655     24658     24659     24656     24655     24658     24660
     24656     24655     24658     24661     24657     24655     24658     24659
     24657     24655     24658     24660     24657     24655     24658     24661
     24658     24661     24664     24665     24658     24661     24664     24666
     24658     24661     24664     24667     24659     24658     24661     24662
     24659     24658     24661     24663     24659     24658     24661     24664
     24660     24658     24661     24662     24660     24658     24661     24663
     24660     24658     24661     24664     24661     24664     24667     24668
     24661     24664     24667     24669     24661     24664     24667     24670
     24662     24661     24664     24665     24662     24661     24664     24666
     24662     24661     24664     24667     24663     24661     24664     24665
     24663     24661     24664     24666     24663     24661     24664     24667
     24664     24667     24670     24671     24664     24667     24670     24672
     24664     24667     24670     24673     24665     24664     24667     24668
     24665     24664     24667     24669     24665     24664     24667     24670
     24666     24664     24667     24668     24666     24664     24667     24669
     24666     24664     24667     24670     24668     24667     24670     24671
     24668     24667     24670     24672     24668     24667     24670     24673
     24669     24667     24670     24671     24669     24667     24670     24672
     24669     24667     24670     24673     24674     24676     24679     24680
     24674     24676     24679     24681     24674     24676     24679     24683
     24675     24674     24676     24677     24675     24674     24676     24678
     24675     24674     24676     24679     24676     24679     24681     24682
     24676     24679     24683     24684     24676     24679     24683     24685
     24676     24679     24683     24686     24677     24676     24679     24680
     24677     24676     24679     24681     24677     24676     24679     24683
     24678     24676     24679     24680     24678     24676     24679     24681
     24678     24676     24679     24683     24679     24683     24686     24687
     24679     24683     24686     24688     24679     24683     24686     24689
     24680     24679     24681     24682     24680     24679     24683     24684
     24680     24679     24683     24685     24680     24679     24683     24686
     24681     24679     24683     24684     24681     24679     24683     24685
     24681     24679     24683     24686     24682     24681     24679     24683
     24683     24686     24689     24690     24683     24686     24689     24691
     24683     24686     24689     24692     24684     24683     24686     24687
     24684     24683     24686     24688     24684     24683     24686     24689
     24685     24683     24686     24687     24685     24683     24686     24688
     24685     24683     24686     24689     24686     24689     24692     24693
     24686     24689     24692     24694     24686     24689     24692     24695
     24687     24686     24689     24690     24687     24686     24689     24691
     24687     24686     24689     24692     24688     24686     24689     24690
     24688     24686     24689     24691     24688     24686     24689     24692
     24689     24692     24695     24696     24689     24692     24695     24697
     24689     24692     24695     24698     24690     24689     24692     24693
     24690     24689     24692     24694     24690     24689     24692     24695
     24691     24689     24692     24693     24691     24689     24692     24694
     24691     24689     24692     24695     24692     24695     24698     24699
     24692     24695     24698     24700     24692     24695     24698     24701
     24693     24692     24695     24696     24693     24692     24695     24697
     24693     24692     24695     24698     24694     24692     24695     24696
     24694     24692     24695     24697     24694     24692     24695     24698
     24695     24698     24701     24702     24695     24698     24701     24703
     24695     24698     24701     24704     24696     24695     24698     24699
     24696     24695     24698     24700     24696     24695     24698     24701
     24697     24695     24698     24699     24697     24695     24698     24700
     24697     24695     24698     24701     24698     24701     24704     24705
     24698     24701     24704     24706     24698     24701     24704     24707
     24699     24698     24701     24702     24699     24698     24701     24703
     24699     24698     24701     24704     24700     24698     24701     24702
     24700     24698     24701     24703     24700     24698     24701     24704
     24701     24704     24707     24708     24701     24704     24707     24709
     24701     24704     24707     24710     24702     24701     24704     24705
     24702     24701     24704     24706     24702     24701     24704     24707
     24703     24701     24704     24705     24703     24701     24704     24706
     24703     24701     24704     24707     24704     24707     24710     24711
     24704     24707     24710     24712     24704     24707     24710     24713
     24705     24704     24707     24708     24705     24704     24707     24709
     24705     24704     24707     24710     24706     24704     24707     24708
     24706     24704     24707     24709     24706     24704     24707     24710
     24707     24710     24713     24714     24707     24710     24713     24715
     24707     24710     24713     24716     24708     24707     24710     24711
     24708     24707     24710     24712     24708     24707     24710     24713
     24709     24707     24710     24711     24709     24707     24710     24712
     24709     24707     24710     24713     24711     24710     24713     24714
     24711     24710     24713     24715     24711     24710     24713     24716
     24712     24710     24713     24714     24712     24710     24713     24715
     24712     24710     24713     24716     24717     24720     24723     24721
     24717     24720     24724     24725     24717     24720     24724     24726
     24717     24720     24724     24727     24718     24717     24720     24723
     24718     24717     24720     24724     24719     24717     24720     24723
     24719     24717     24720     24724     24720     24723     24721     24722
     24720     24723     24721     24730     24720     24723     24721     24733
     24720     24724     24727     24728     24720     24724     24727     24729
     24720     24724     24727     24730     24721     24723     24720     24724
     24721     24730     24727     24724     24721     24730     24727     24728
     24721     24730     24727     24729     24721     24730     24732     24769
     24721     24733     24735     24736     24721     24733     24737     24738
     24721     24733     24737     24739     24721     24733     24737     24740
     24722     24721     24730     24727     24722     24721     24730     24731
     24722     24721     24730     24732     24722     24721     24733     24734
     24722     24721     24733     24735     24722     24721     24733     24737
     24723     24720     24724     24725     24723     24720     24724     24726
     24723     24720     24724     24727     24723     24721     24730     24727
     24723     24721     24730     24731     24723     24721     24730     24732
     24723     24721     24733     24734     24723     24721     24733     24735
     24723     24721     24733     24737     24724     24727     24729     24745
     24724     24727     24730     24731     24724     24727     24730     24732
     24725     24724     24727     24728     24725     24724     24727     24729
     24725     24724     24727     24730     24726     24724     24727     24728
     24726     24724     24727     24729     24726     24724     24727     24730
     24727     24729     24745     24742     24727     24729     24745     24748
     24727     24729     24745     24749     24727     24730     24721     24733
     24727     24730     24732     24769     24728     24727     24729     24745
     24728     24727     24730     24731     24728     24727     24730     24732
     24729     24727     24730     24731     24729     24727     24730     24732
     24729     24745     24742     24743     24729     24745     24742     24744
     24729     24745     24748     24746     24729     24745     24749     24750
     24729     24745     24749     24751     24729     24745     24749     24752
     24730     24721     24733     24734     24730     24721     24733     24735
     24730     24721     24733     24737     24730     24727     24729     24745
     24730     24732     24769     24770     24730     24732     24769     24773
     24730     24732     24769     24774     24731     24730     24721     24733
     24731     24730     24732     24769     24732     24730     24721     24733
     24732     24769     24773     24771     24732     24769     24774     24775
     24732     24769     24774     24776     24732     24769     24774     24778
     24733     24737     24740     24741     24734     24733     24735     24736
     24734     24733     24737     24738     24734     24733     24737     24739
     24734     24733     24737     24740     24735     24733     24737     24738
     24735     24733     24737     24739     24735     24733     24737     24740
     24736     24735     24733     24737     24738     24737     24740     24741
     24739     24737     24740     24741     24742     24745     24748     24746
     24742     24745     24749     24750     24742     24745     24749     24751
     24742     24745     24749     24752     24743     24742     24745     24748
     24743     24742     24745     24749     24744     24742     24745     24748
     24744     24742     24745     24749     24745     24748     24746     24747
     24745     24748     24746     24756     24745     24748     24746     24760
     24745     24749     24752     24753     24745     24749     24752     24754
     24745     24749     24752     24756     24746     24748     24745     24749
     24746     24756     24752     24749     24746     24756     24752     24753
     24746     24756     24752     24754     24746     24756     24758     24759
     24746     24760     24762     24763     24746     24760     24764     24765
     24746     24760     24764     24766     24746     24760     24764     24767
     24747     24746     24756     24752     24747     24746     24756     24757
     24747     24746     24756     24758     24747     24746     24760     24761
     24747     24746     24760     24762     24747     24746     24760     24764
     24748     24745     24749     24750     24748     24745     24749     24751
     24748     24745     24749     24752     24748     24746     24756     24752
     24748     24746     24756     24757     24748     24746     24756     24758
     24748     24746     24760     24761     24748     24746     24760     24762
     24748     24746     24760     24764     24749     24752     24754     24755
     24749     24752     24756     24757     24749     24752     24756     24758
     24750     24749     24752     24753     24750     24749     24752     24754
     24750     24749     24752     24756     24751     24749     24752     24753
     24751     24749     24752     24754     24751     24749     24752     24756
     24752     24756     24746     24760     24752     24756     24758     24759
     24753     24752     24754     24755     24753     24752     24756     24757
     24753     24752     24756     24758     24754     24752     24756     24757
     24754     24752     24756     24758     24755     24754     24752     24756
     24756     24746     24760     24761     24756     24746     24760     24762
     24756     24746     24760     24764     24757     24756     24746     24760
     24757     24756     24758     24759     24758     24756     24746     24760
     24760     24764     24767     24768     24761     24760     24762     24763
     24761     24760     24764     24765     24761     24760     24764     24766
     24761     24760     24764     24767     24762     24760     24764     24765
     24762     24760     24764     24766     24762     24760     24764     24767
     24763     24762     24760     24764     24765     24764     24767     24768
     24766     24764     24767     24768     24769     24773     24771     24772
     24769     24773     24771     24781     24769     24773     24771     24788
     24769     24774     24776     24777     24769     24774     24778     24779
     24769     24774     24778     24780     24769     24774     24778     24781
     24770     24769     24773     24771     24770     24769     24774     24775
     24770     24769     24774     24776     24770     24769     24774     24778
     24771     24773     24769     24774     24771     24781     24778     24774
     24771     24781     24778     24779     24771     24781     24778     24780
     24771     24781     24783     24784     24771     24788     24790     24791
     24771     24788     24792     24793     24771     24788     24792     24794
     24771     24788     24792     24795     24772     24771     24781     24778
     24772     24771     24781     24782     24772     24771     24781     24783
     24772     24771     24788     24789     24772     24771     24788     24790
     24772     24771     24788     24792     24773     24769     24774     24775
     24773     24769     24774     24776     24773     24769     24774     24778
     24773     24771     24781     24778     24773     24771     24781     24782
     24773     24771     24781     24783     24773     24771     24788     24789
     24773     24771     24788     24790     24773     24771     24788     24792
     24774     24778     24780     24797     24774     24778     24781     24782
     24774     24778     24781     24783     24775     24774     24776     24777
     24775     24774     24778     24779     24775     24774     24778     24780
     24775     24774     24778     24781     24776     24774     24778     24779
     24776     24774     24778     24780     24776     24774     24778     24781
     24777     24776     24774     24778     24778     24780     24797     24798
     24778     24780     24797     24801     24778     24780     24797     24802
     24778     24781     24771     24788     24778     24781     24783     24784
     24779     24778     24780     24797     24779     24778     24781     24782
     24779     24778     24781     24783     24780     24778     24781     24782
     24780     24778     24781     24783     24780     24797     24801     24799
     24780     24797     24802     24803     24780     24797     24802     24804
     24780     24797     24802     24806     24781     24771     24788     24789
     24781     24771     24788     24790     24781     24771     24788     24792
     24781     24778     24780     24797     24781     24783     24784     24785
     24781     24783     24784     24786     24781     24783     24784     24787
     24782     24781     24771     24788     24782     24781     24783     24784
     24783     24781     24771     24788     24788     24792     24795     24796
     24789     24788     24790     24791     24789     24788     24792     24793
     24789     24788     24792     24794     24789     24788     24792     24795
     24790     24788     24792     24793     24790     24788     24792     24794
     24790     24788     24792     24795     24791     24790     24788     24792
     24793     24792     24795     24796     24794     24792     24795     24796
     24797     24801     24799     24800     24797     24801     24799     24809
     24797     24801     24799     24816     24797     24802     24804     24805
     24797     24802     24806     24807     24797     24802     24806     24808
     24797     24802     24806     24809     24798     24797     24801     24799
     24798     24797     24802     24803     24798     24797     24802     24804
     24798     24797     24802     24806     24799     24801     24797     24802
     24799     24809     24806     24802     24799     24809     24806     24807
     24799     24809     24806     24808     24799     24809     24811     24812
     24799     24816     24818     24819     24799     24816     24820     24821
     24799     24816     24820     24822     24799     24816     24820     24823
     24800     24799     24809     24806     24800     24799     24809     24810
     24800     24799     24809     24811     24800     24799     24816     24817
     24800     24799     24816     24818     24800     24799     24816     24820
     24801     24797     24802     24803     24801     24797     24802     24804
     24801     24797     24802     24806     24801     24799     24809     24806
     24801     24799     24809     24810     24801     24799     24809     24811
     24801     24799     24816     24817     24801     24799     24816     24818
     24801     24799     24816     24820     24802     24806     24808     24850
     24802     24806     24809     24810     24802     24806     24809     24811
     24803     24802     24804     24805     24803     24802     24806     24807
     24803     24802     24806     24808     24803     24802     24806     24809
     24804     24802     24806     24807     24804     24802     24806     24808
     24804     24802     24806     24809     24805     24804     24802     24806
     24806     24808     24850     24851     24806     24808     24850     24854
     24806     24808     24850     24855     24806     24809     24799     24816
     24806     24809     24811     24812     24807     24806     24808     24850
     24807     24806     24809     24810     24807     24806     24809     24811
     24808     24806     24809     24810     24808     24806     24809     24811
     24808     24850     24854     24852     24808     24850     24855     24856
     24808     24850     24855     24857     24808     24850     24855     24859
     24809     24799     24816     24817     24809     24799     24816     24818
     24809     24799     24816     24820     24809     24806     24808     24850
     24809     24811     24812     24813     24809     24811     24812     24814
     24809     24811     24812     24815     24810     24809     24799     24816
     24810     24809     24811     24812     24811     24809     24799     24816
     24816     24820     24823     24824     24817     24816     24818     24819
     24817     24816     24820     24821     24817     24816     24820     24822
     24817     24816     24820     24823     24818     24816     24820     24821
     24818     24816     24820     24822     24818     24816     24820     24823
     24819     24818     24816     24820     24820     24823     24824     24825
     24820     24823     24824     24828     24820     24823     24824     24829
     24821     24820     24823     24824     24822     24820     24823     24824
     24823     24824     24828     24826     24823     24824     24829     24830
     24823     24824     24829     24831     24823     24824     24829     24833
     24824     24828     24826     24827     24824     24828     24826     24837
     24824     24828     24826     24841     24824     24829     24831     24832
     24824     24829     24833     24834     24824     24829     24833     24835
     24824     24829     24833     24837     24825     24824     24828     24826
     24825     24824     24829     24830     24825     24824     24829     24831
     24825     24824     24829     24833     24826     24828     24824     24829
     24826     24837     24833     24829     24826     24837     24833     24834
     24826     24837     24833     24835     24826     24837     24839     24840
     24826     24841     24843     24844     24826     24841     24845     24846
     24826     24841     24845     24847     24826     24841     24845     24848
     24827     24826     24837     24833     24827     24826     24837     24838
     24827     24826     24837     24839     24827     24826     24841     24842
     24827     24826     24841     24843     24827     24826     24841     24845
     24828     24824     24829     24830     24828     24824     24829     24831
     24828     24824     24829     24833     24828     24826     24837     24833
     24828     24826     24837     24838     24828     24826     24837     24839
     24828     24826     24841     24842     24828     24826     24841     24843
     24828     24826     24841     24845     24829     24833     24835     24836
     24829     24833     24837     24838     24829     24833     24837     24839
     24830     24829     24831     24832     24830     24829     24833     24834
     24830     24829     24833     24835     24830     24829     24833     24837
     24831     24829     24833     24834     24831     24829     24833     24835
     24831     24829     24833     24837     24832     24831     24829     24833
     24833     24837     24826     24841     24833     24837     24839     24840
     24834     24833     24835     24836     24834     24833     24837     24838
     24834     24833     24837     24839     24835     24833     24837     24838
     24835     24833     24837     24839     24836     24835     24833     24837
     24837     24826     24841     24842     24837     24826     24841     24843
     24837     24826     24841     24845     24838     24837     24826     24841
     24838     24837     24839     24840     24839     24837     24826     24841
     24841     24845     24848     24849     24842     24841     24843     24844
     24842     24841     24845     24846     24842     24841     24845     24847
     24842     24841     24845     24848     24843     24841     24845     24846
     24843     24841     24845     24847     24843     24841     24845     24848
     24844     24843     24841     24845     24846     24845     24848     24849
     24847     24845     24848     24849     24850     24854     24852     24853
     24850     24854     24852     24862     24850     24854     24852     24866
     24850     24855     24857     24858     24850     24855     24859     24860
     24850     24855     24859     24861     24850     24855     24859     24862
     24851     24850     24854     24852     24851     24850     24855     24856
     24851     24850     24855     24857     24851     24850     24855     24859
     24852     24854     24850     24855     24852     24862     24859     24855
     24852     24862     24859     24860     24852     24862     24859     24861
     24852     24862     24864     24865     24852     24866     24869     24870
     24853     24852     24862     24859     24853     24852     24862     24863
     24853     24852     24862     24864     24853     24852     24866     24867
     24853     24852     24866     24868     24853     24852     24866     24869
     24854     24850     24855     24856     24854     24850     24855     24857
     24854     24850     24855     24859     24854     24852     24862     24859
     24854     24852     24862     24863     24854     24852     24862     24864
     24854     24852     24866     24867     24854     24852     24866     24868
     24854     24852     24866     24869     24855     24859     24861     24871
     24855     24859     24862     24863     24855     24859     24862     24864
     24856     24855     24857     24858     24856     24855     24859     24860
     24856     24855     24859     24861     24856     24855     24859     24862
     24857     24855     24859     24860     24857     24855     24859     24861
     24857     24855     24859     24862     24858     24857     24855     24859
     24859     24861     24871     24872     24859     24861     24871     24875
     24859     24861     24871     24876     24859     24862     24852     24866
     24859     24862     24864     24865     24860     24859     24861     24871
     24860     24859     24862     24863     24860     24859     24862     24864
     24861     24859     24862     24863     24861     24859     24862     24864
     24861     24871     24875     24873     24861     24871     24876     24877
     24861     24871     24876     24878     24861     24871     24876     24879
     24862     24852     24866     24867     24862     24852     24866     24868
     24862     24852     24866     24869     24862     24859     24861     24871
     24863     24862     24852     24866     24863     24862     24864     24865
     24864     24862     24852     24866     24867     24866     24869     24870
     24868     24866     24869     24870     24871     24875     24873     24874
     24871     24875     24873     24882     24871     24875     24873     24886
     24871     24876     24878     24891     24871     24876     24879     24880
     24871     24876     24879     24881     24871     24876     24879     24882
     24872     24871     24875     24873     24872     24871     24876     24877
     24872     24871     24876     24878     24872     24871     24876     24879
     24873     24875     24871     24876     24873     24882     24879     24876
     24873     24882     24879     24880     24873     24882     24879     24881
     24873     24882     24884     24885     24873     24886     24889     24890
     24874     24873     24882     24879     24874     24873     24882     24883
     24874     24873     24882     24884     24874     24873     24886     24887
     24874     24873     24886     24888     24874     24873     24886     24889
     24875     24871     24876     24877     24875     24871     24876     24878
     24875     24871     24876     24879     24875     24873     24882     24879
     24875     24873     24882     24883     24875     24873     24882     24884
     24875     24873     24886     24887     24875     24873     24886     24888
     24875     24873     24886     24889     24876     24878     24891     24892
     24876     24878     24891     24895     24876     24878     24891     24896
     24876     24879     24881     24934     24876     24879     24882     24883
     24876     24879     24882     24884     24877     24876     24878     24891
     24877     24876     24879     24880     24877     24876     24879     24881
     24877     24876     24879     24882     24878     24876     24879     24880
     24878     24876     24879     24881     24878     24876     24879     24882
     24878     24891     24895     24893     24878     24891     24896     24897
     24878     24891     24896     24898     24878     24891     24896     24899
     24879     24876     24878     24891     24879     24881     24934     24935
     24879     24881     24934     24938     24879     24881     24934     24939
     24879     24882     24873     24886     24879     24882     24884     24885
     24880     24879     24881     24934     24880     24879     24882     24883
     24880     24879     24882     24884     24881     24879     24882     24883
     24881     24879     24882     24884     24881     24934     24938     24936
     24881     24934     24939     24940     24881     24934     24939     24941
     24881     24934     24939     24943     24882     24873     24886     24887
     24882     24873     24886     24888     24882     24873     24886     24889
     24882     24879     24881     24934     24883     24882     24873     24886
     24883     24882     24884     24885     24884     24882     24873     24886
     24887     24886     24889     24890     24888     24886     24889     24890
     24891     24895     24893     24894     24891     24895     24893     24903
     24891     24895     24893     24907     24891     24896     24898     24912
     24891     24896     24899     24900     24891     24896     24899     24901
     24891     24896     24899     24903     24892     24891     24895     24893
     24892     24891     24896     24897     24892     24891     24896     24898
     24892     24891     24896     24899     24893     24895     24891     24896
     24893     24903     24899     24896     24893     24903     24899     24900
     24893     24903     24899     24901     24893     24903     24905     24906
     24893     24907     24910     24911     24894     24893     24903     24899
     24894     24893     24903     24904     24894     24893     24903     24905
     24894     24893     24907     24908     24894     24893     24907     24909
     24894     24893     24907     24910     24895     24891     24896     24897
     24895     24891     24896     24898     24895     24891     24896     24899
     24895     24893     24903     24899     24895     24893     24903     24904
     24895     24893     24903     24905     24895     24893     24907     24908
     24895     24893     24907     24909     24895     24893     24907     24910
     24896     24898     24912     24913     24896     24898     24912     24916
     24896     24898     24912     24917     24896     24899     24901     24902
     24896     24899     24903     24904     24896     24899     24903     24905
     24897     24896     24898     24912     24897     24896     24899     24900
     24897     24896     24899     24901     24897     24896     24899     24903
     24898     24896     24899     24900     24898     24896     24899     24901
     24898     24896     24899     24903     24898     24912     24916     24914
     24898     24912     24917     24918     24898     24912     24917     24919
     24898     24912     24917     24921     24899     24896     24898     24912
     24899     24903     24893     24907     24899     24903     24905     24906
     24900     24899     24901     24902     24900     24899     24903     24904
     24900     24899     24903     24905     24901     24899     24903     24904
     24901     24899     24903     24905     24902     24901     24899     24903
     24903     24893     24907     24908     24903     24893     24907     24909
     24903     24893     24907     24910     24904     24903     24893     24907
     24904     24903     24905     24906     24905     24903     24893     24907
     24908     24907     24910     24911     24909     24907     24910     24911
     24912     24916     24914     24915     24912     24916     24914     24925
     24912     24916     24914     24929     24912     24917     24919     24920
     24912     24917     24921     24922     24912     24917     24921     24923
     24912     24917     24921     24925     24913     24912     24916     24914
     24913     24912     24917     24918     24913     24912     24917     24919
     24913     24912     24917     24921     24914     24916     24912     24917
     24914     24925     24921     24917     24914     24925     24921     24922
     24914     24925     24921     24923     24914     24925     24927     24928
     24914     24929     24932     24933     24915     24914     24925     24921
     24915     24914     24925     24926     24915     24914     24925     24927
     24915     24914     24929     24930     24915     24914     24929     24931
     24915     24914     24929     24932     24916     24912     24917     24918
     24916     24912     24917     24919     24916     24912     24917     24921
     24916     24914     24925     24921     24916     24914     24925     24926
     24916     24914     24925     24927     24916     24914     24929     24930
     24916     24914     24929     24931     24916     24914     24929     24932
     24917     24921     24923     24924     24917     24921     24925     24926
     24917     24921     24925     24927     24918     24917     24919     24920
     24918     24917     24921     24922     24918     24917     24921     24923
     24918     24917     24921     24925     24919     24917     24921     24922
     24919     24917     24921     24923     24919     24917     24921     24925
     24920     24919     24917     24921     24921     24925     24914     24929
     24921     24925     24927     24928     24922     24921     24923     24924
     24922     24921     24925     24926     24922     24921     24925     24927
     24923     24921     24925     24926     24923     24921     24925     24927
     24924     24923     24921     24925     24925     24914     24929     24930
     24925     24914     24929     24931     24925     24914     24929     24932
     24926     24925     24914     24929     24926     24925     24927     24928
     24927     24925     24914     24929     24930     24929     24932     24933
     24931     24929     24932     24933     24934     24938     24936     24937
     24934     24938     24936     24946     24934     24938     24936     24950
     24934     24939     24941     24942     24934     24939     24943     24944
     24934     24939     24943     24945     24934     24939     24943     24946
     24935     24934     24938     24936     24935     24934     24939     24940
     24935     24934     24939     24941     24935     24934     24939     24943
     24936     24938     24934     24939     24936     24946     24943     24939
     24936     24946     24943     24944     24936     24946     24943     24945
     24936     24946     24948     24949     24936     24950     24953     24954
     24937     24936     24946     24943     24937     24936     24946     24947
     24937     24936     24946     24948     24937     24936     24950     24951
     24937     24936     24950     24952     24937     24936     24950     24953
     24938     24934     24939     24940     24938     24934     24939     24941
     24938     24934     24939     24943     24938     24936     24946     24943
     24938     24936     24946     24947     24938     24936     24946     24948
     24938     24936     24950     24951     24938     24936     24950     24952
     24938     24936     24950     24953     24939     24943     24945     24955
     24939     24943     24946     24947     24939     24943     24946     24948
     24940     24939     24941     24942     24940     24939     24943     24944
     24940     24939     24943     24945     24940     24939     24943     24946
     24941     24939     24943     24944     24941     24939     24943     24945
     24941     24939     24943     24946     24942     24941     24939     24943
     24943     24945     24955     24956     24943     24945     24955     24959
     24943     24945     24955     24960     24943     24946     24936     24950
     24943     24946     24948     24949     24944     24943     24945     24955
     24944     24943     24946     24947     24944     24943     24946     24948
     24945     24943     24946     24947     24945     24943     24946     24948
     24945     24955     24959     24957     24945     24955     24960     24961
     24945     24955     24960     24962     24945     24955     24960     24970
     24946     24936     24950     24951     24946     24936     24950     24952
     24946     24936     24950     24953     24946     24943     24945     24955
     24947     24946     24936     24950     24947     24946     24948     24949
     24948     24946     24936     24950     24951     24950     24953     24954
     24952     24950     24953     24954     24955     24959     24957     24958
     24955     24959     24957     24973     24955     24959     24957     24977
     24955     24960     24962     24963     24955     24960     24962     24964
     24955     24960     24970     24971     24955     24960     24970     24972
     24955     24960     24970     24973     24956     24955     24959     24957
     24956     24955     24960     24961     24956     24955     24960     24962
     24956     24955     24960     24970     24957     24959     24955     24960
     24957     24973     24970     24960     24957     24973     24970     24971
     24957     24973     24970     24972     24957     24973     24975     24976
     24957     24977     24980     24981     24958     24957     24973     24970
     24958     24957     24973     24974     24958     24957     24973     24975
     24958     24957     24977     24978     24958     24957     24977     24979
     24958     24957     24977     24980     24959     24955     24960     24961
     24959     24955     24960     24962     24959     24955     24960     24970
     24959     24957     24973     24970     24959     24957     24973     24974
     24959     24957     24973     24975     24959     24957     24977     24978
     24959     24957     24977     24979     24959     24957     24977     24980
     24960     24962     24964     24965     24960     24962     24964     24966
     24960     24970     24972     24982     24960     24970     24973     24974
     24960     24970     24973     24975     24961     24960     24962     24963
     24961     24960     24962     24964     24961     24960     24970     24971
     24961     24960     24970     24972     24961     24960     24970     24973
     24962     24960     24970     24971     24962     24960     24970     24972
     24962     24960     24970     24973     24962     24964     24966     24967
     24962     24964     24966     24968     24962     24964     24966     24969
     24963     24962     24960     24970     24963     24962     24964     24965
     24963     24962     24964     24966     24964     24962     24960     24970
     24965     24964     24966     24967     24965     24964     24966     24968
     24965     24964     24966     24969     24970     24972     24982     24983
     24970     24972     24982     24986     24970     24972     24982     24987
     24970     24973     24957     24977     24970     24973     24975     24976
     24971     24970     24972     24982     24971     24970     24973     24974
     24971     24970     24973     24975     24972     24970     24973     24974
     24972     24970     24973     24975     24972     24982     24986     24984
     24972     24982     24987     24988     24972     24982     24987     24989
     24972     24982     24987     24990     24973     24957     24977     24978
     24973     24957     24977     24979     24973     24957     24977     24980
     24973     24970     24972     24982     24974     24973     24957     24977
     24974     24973     24975     24976     24975     24973     24957     24977
     24978     24977     24980     24981     24979     24977     24980     24981
     24982     24986     24984     24985     24982     24986     24984     24994
     24982     24986     24984     24998     24982     24987     24989     25003
     24982     24987     24990     24991     24982     24987     24990     24992
     24982     24987     24990     24994     24983     24982     24986     24984
     24983     24982     24987     24988     24983     24982     24987     24989
     24983     24982     24987     24990     24984     24986     24982     24987
     24984     24994     24990     24987     24984     24994     24990     24991
     24984     24994     24990     24992     24984     24994     24996     24997
     24984     24998     25001     25002     24985     24984     24994     24990
     24985     24984     24994     24995     24985     24984     24994     24996
     24985     24984     24998     24999     24985     24984     24998     25000
     24985     24984     24998     25001     24986     24982     24987     24988
     24986     24982     24987     24989     24986     24982     24987     24990
     24986     24984     24994     24990     24986     24984     24994     24995
     24986     24984     24994     24996     24986     24984     24998     24999
     24986     24984     24998     25000     24986     24984     24998     25001
     24987     24989     25003     25004     24987     24989     25003     25007
     24987     24989     25003     25008     24987     24990     24992     24993
     24987     24990     24994     24995     24987     24990     24994     24996
     24988     24987     24989     25003     24988     24987     24990     24991
     24988     24987     24990     24992     24988     24987     24990     24994
     24989     24987     24990     24991     24989     24987     24990     24992
     24989     24987     24990     24994     24989     25003     25007     25005
     24989     25003     25008     25009     24989     25003     25008     25010
     24989     25003     25008     25011     24990     24987     24989     25003
     24990     24994     24984     24998     24990     24994     24996     24997
     24991     24990     24992     24993     24991     24990     24994     24995
     24991     24990     24994     24996     24992     24990     24994     24995
     24992     24990     24994     24996     24993     24992     24990     24994
     24994     24984     24998     24999     24994     24984     24998     25000
     24994     24984     24998     25001     24995     24994     24984     24998
     24995     24994     24996     24997     24996     24994     24984     24998
     24999     24998     25001     25002     25000     24998     25001     25002
     25003     25007     25005     25006     25003     25007     25005     25015
     25003     25007     25005     25019     25003     25008     25010     25023
     25003     25008     25011     25012     25003     25008     25011     25013
     25003     25008     25011     25015     25004     25003     25007     25005
     25004     25003     25008     25009     25004     25003     25008     25010
     25004     25003     25008     25011     25005     25007     25003     25008
     25005     25015     25011     25008     25005     25015     25011     25012
     25005     25015     25011     25013     25005     25015     25017     25018
     25006     25005     25015     25011     25006     25005     25015     25016
     25006     25005     25015     25017     25006     25005     25019     25020
     25006     25005     25019     25021     25006     25005     25019     25022
     25007     25003     25008     25009     25007     25003     25008     25010
     25007     25003     25008     25011     25007     25005     25015     25011
     25007     25005     25015     25016     25007     25005     25015     25017
     25007     25005     25019     25020     25007     25005     25019     25021
     25007     25005     25019     25022     25008     25010     25023     25024
     25008     25010     25023     25027     25008     25010     25023     25028
     25008     25011     25013     25014     25008     25011     25015     25016
     25008     25011     25015     25017     25009     25008     25010     25023
     25009     25008     25011     25012     25009     25008     25011     25013
     25009     25008     25011     25015     25010     25008     25011     25012
     25010     25008     25011     25013     25010     25008     25011     25015
     25010     25023     25027     25025     25010     25023     25028     25029
     25010     25023     25028     25030     25010     25023     25028     25031
     25011     25008     25010     25023     25011     25015     25005     25019
     25011     25015     25017     25018     25012     25011     25013     25014
     25012     25011     25015     25016     25012     25011     25015     25017
     25013     25011     25015     25016     25013     25011     25015     25017
     25014     25013     25011     25015     25015     25005     25019     25020
     25015     25005     25019     25021     25015     25005     25019     25022
     25016     25015     25005     25019     25016     25015     25017     25018
     25017     25015     25005     25019     25023     25027     25025     25026
     25023     25027     25025     25034     25023     25027     25025     25038
     25023     25028     25030     25042     25023     25028     25031     25032
     25023     25028     25031     25033     25023     25028     25031     25034
     25024     25023     25027     25025     25024     25023     25028     25029
     25024     25023     25028     25030     25024     25023     25028     25031
     25025     25027     25023     25028     25025     25034     25031     25028
     25025     25034     25031     25032     25025     25034     25031     25033
     25025     25034     25036     25037     25026     25025     25034     25031
     25026     25025     25034     25035     25026     25025     25034     25036
     25026     25025     25038     25039     25026     25025     25038     25040
     25026     25025     25038     25041     25027     25023     25028     25029
     25027     25023     25028     25030     25027     25023     25028     25031
     25027     25025     25034     25031     25027     25025     25034     25035
     25027     25025     25034     25036     25027     25025     25038     25039
     25027     25025     25038     25040     25027     25025     25038     25041
     25028     25030     25042     25043     25028     25030     25042     25046
     25028     25030     25042     25047     25028     25031     25033     25070
     25028     25031     25034     25035     25028     25031     25034     25036
     25029     25028     25030     25042     25029     25028     25031     25032
     25029     25028     25031     25033     25029     25028     25031     25034
     25030     25028     25031     25032     25030     25028     25031     25033
     25030     25028     25031     25034     25030     25042     25046     25044
     25030     25042     25047     25048     25030     25042     25047     25049
     25030     25042     25047     25057     25031     25028     25030     25042
     25031     25033     25070     25071     25031     25033     25070     25074
     25031     25033     25070     25075     25031     25034     25025     25038
     25031     25034     25036     25037     25032     25031     25033     25070
     25032     25031     25034     25035     25032     25031     25034     25036
     25033     25031     25034     25035     25033     25031     25034     25036
     25033     25070     25074     25072     25033     25070     25075     25076
     25033     25070     25075     25077     25033     25070     25075     25085
     25034     25025     25038     25039     25034     25025     25038     25040
     25034     25025     25038     25041     25034     25031     25033     25070
     25035     25034     25025     25038     25035     25034     25036     25037
     25036     25034     25025     25038     25042     25046     25044     25045
     25042     25046     25044     25061     25042     25046     25044     25065
     25042     25047     25049     25050     25042     25047     25049     25051
     25042     25047     25057     25058     25042     25047     25057     25059
     25042     25047     25057     25061     25043     25042     25046     25044
     25043     25042     25047     25048     25043     25042     25047     25049
     25043     25042     25047     25057     25044     25046     25042     25047
     25044     25061     25057     25047     25044     25061     25057     25058
     25044     25061     25057     25059     25044     25061     25063     25064
     25044     25065     25068     25069     25045     25044     25061     25057
     25045     25044     25061     25062     25045     25044     25061     25063
     25045     25044     25065     25066     25045     25044     25065     25067
     25045     25044     25065     25068     25046     25042     25047     25048
     25046     25042     25047     25049     25046     25042     25047     25057
     25046     25044     25061     25057     25046     25044     25061     25062
     25046     25044     25061     25063     25046     25044     25065     25066
     25046     25044     25065     25067     25046     25044     25065     25068
     25047     25049     25051     25052     25047     25049     25051     25053
     25047     25057     25059     25060     25047     25057     25061     25062
     25047     25057     25061     25063     25048     25047     25049     25050
     25048     25047     25049     25051     25048     25047     25057     25058
     25048     25047     25057     25059     25048     25047     25057     25061
     25049     25047     25057     25058     25049     25047     25057     25059
     25049     25047     25057     25061     25049     25051     25053     25054
     25049     25051     25053     25055     25049     25051     25053     25056
     25050     25049     25047     25057     25050     25049     25051     25052
     25050     25049     25051     25053     25051     25049     25047     25057
     25052     25051     25053     25054     25052     25051     25053     25055
     25052     25051     25053     25056     25057     25061     25044     25065
     25057     25061     25063     25064     25058     25057     25059     25060
     25058     25057     25061     25062     25058     25057     25061     25063
     25059     25057     25061     25062     25059     25057     25061     25063
     25060     25059     25057     25061     25061     25044     25065     25066
     25061     25044     25065     25067     25061     25044     25065     25068
     25062     25061     25044     25065     25062     25061     25063     25064
     25063     25061     25044     25065     25066     25065     25068     25069
     25067     25065     25068     25069     25070     25074     25072     25073
     25070     25074     25072     25088     25070     25074     25072     25092
     25070     25075     25077     25078     25070     25075     25077     25079
     25070     25075     25085     25086     25070     25075     25085     25087
     25070     25075     25085     25088     25071     25070     25074     25072
     25071     25070     25075     25076     25071     25070     25075     25077
     25071     25070     25075     25085     25072     25074     25070     25075
     25072     25088     25085     25075     25072     25088     25085     25086
     25072     25088     25085     25087     25072     25088     25090     25091
     25072     25092     25095     25096     25073     25072     25088     25085
     25073     25072     25088     25089     25073     25072     25088     25090
     25073     25072     25092     25093     25073     25072     25092     25094
     25073     25072     25092     25095     25074     25070     25075     25076
     25074     25070     25075     25077     25074     25070     25075     25085
     25074     25072     25088     25085     25074     25072     25088     25089
     25074     25072     25088     25090     25074     25072     25092     25093
     25074     25072     25092     25094     25074     25072     25092     25095
     25075     25077     25079     25080     25075     25077     25079     25081
     25075     25085     25087     25097     25075     25085     25088     25089
     25075     25085     25088     25090     25076     25075     25077     25078
     25076     25075     25077     25079     25076     25075     25085     25086
     25076     25075     25085     25087     25076     25075     25085     25088
     25077     25075     25085     25086     25077     25075     25085     25087
     25077     25075     25085     25088     25077     25079     25081     25082
     25077     25079     25081     25083     25077     25079     25081     25084
     25078     25077     25075     25085     25078     25077     25079     25080
     25078     25077     25079     25081     25079     25077     25075     25085
     25080     25079     25081     25082     25080     25079     25081     25083
     25080     25079     25081     25084     25085     25087     25097     25098
     25085     25087     25097     25101     25085     25087     25097     25102
     25085     25088     25072     25092     25085     25088     25090     25091
     25086     25085     25087     25097     25086     25085     25088     25089
     25086     25085     25088     25090     25087     25085     25088     25089
     25087     25085     25088     25090     25087     25097     25101     25099
     25087     25097     25102     25103     25087     25097     25102     25104
     25087     25097     25102     25105     25088     25072     25092     25093
     25088     25072     25092     25094     25088     25072     25092     25095
     25088     25085     25087     25097     25089     25088     25072     25092
     25089     25088     25090     25091     25090     25088     25072     25092
     25093     25092     25095     25096     25094     25092     25095     25096
     25097     25101     25099     25100     25097     25101     25099     25109
     25097     25101     25099     25113     25097     25102     25104     25118
     25097     25102     25105     25106     25097     25102     25105     25107
     25097     25102     25105     25109     25098     25097     25101     25099
     25098     25097     25102     25103     25098     25097     25102     25104
     25098     25097     25102     25105     25099     25101     25097     25102
     25099     25109     25105     25102     25099     25109     25105     25106
     25099     25109     25105     25107     25099     25109     25111     25112
     25099     25113     25116     25117     25100     25099     25109     25105
     25100     25099     25109     25110     25100     25099     25109     25111
     25100     25099     25113     25114     25100     25099     25113     25115
     25100     25099     25113     25116     25101     25097     25102     25103
     25101     25097     25102     25104     25101     25097     25102     25105
     25101     25099     25109     25105     25101     25099     25109     25110
     25101     25099     25109     25111     25101     25099     25113     25114
     25101     25099     25113     25115     25101     25099     25113     25116
     25102     25104     25118     25119     25102     25104     25118     25122
     25102     25104     25118     25123     25102     25105     25107     25108
     25102     25105     25109     25110     25102     25105     25109     25111
     25103     25102     25104     25118     25103     25102     25105     25106
     25103     25102     25105     25107     25103     25102     25105     25109
     25104     25102     25105     25106     25104     25102     25105     25107
     25104     25102     25105     25109     25104     25118     25122     25120
     25104     25118     25123     25124     25104     25118     25123     25125
     25104     25118     25123     25126     25105     25102     25104     25118
     25105     25109     25099     25113     25105     25109     25111     25112
     25106     25105     25107     25108     25106     25105     25109     25110
     25106     25105     25109     25111     25107     25105     25109     25110
     25107     25105     25109     25111     25108     25107     25105     25109
     25109     25099     25113     25114     25109     25099     25113     25115
     25109     25099     25113     25116     25110     25109     25099     25113
     25110     25109     25111     25112     25111     25109     25099     25113
     25114     25113     25116     25117     25115     25113     25116     25117
     25118     25122     25120     25121     25118     25122     25120     25130
     25118     25122     25120     25134     25118     25123     25125     25138
     25118     25123     25126     25127     25118     25123     25126     25128
     25118     25123     25126     25130     25119     25118     25122     25120
     25119     25118     25123     25124     25119     25118     25123     25125
     25119     25118     25123     25126     25120     25122     25118     25123
     25120     25130     25126     25123     25120     25130     25126     25127
     25120     25130     25126     25128     25120     25130     25132     25133
     25121     25120     25130     25126     25121     25120     25130     25131
     25121     25120     25130     25132     25121     25120     25134     25135
     25121     25120     25134     25136     25121     25120     25134     25137
     25122     25118     25123     25124     25122     25118     25123     25125
     25122     25118     25123     25126     25122     25120     25130     25126
     25122     25120     25130     25131     25122     25120     25130     25132
     25122     25120     25134     25135     25122     25120     25134     25136
     25122     25120     25134     25137     25123     25125     25138     25139
     25123     25125     25138     25142     25123     25125     25138     25143
     25123     25126     25128     25129     25123     25126     25130     25131
     25123     25126     25130     25132     25124     25123     25125     25138
     25124     25123     25126     25127     25124     25123     25126     25128
     25124     25123     25126     25130     25125     25123     25126     25127
     25125     25123     25126     25128     25125     25123     25126     25130
     25125     25138     25142     25140     25125     25138     25143     25144
     25125     25138     25143     25145     25125     25138     25143     25146
     25126     25123     25125     25138     25126     25130     25120     25134
     25126     25130     25132     25133     25127     25126     25128     25129
     25127     25126     25130     25131     25127     25126     25130     25132
     25128     25126     25130     25131     25128     25126     25130     25132
     25129     25128     25126     25130     25130     25120     25134     25135
     25130     25120     25134     25136     25130     25120     25134     25137
     25131     25130     25120     25134     25131     25130     25132     25133
     25132     25130     25120     25134     25138     25142     25140     25141
     25138     25142     25140     25149     25138     25142     25140     25153
     25138     25143     25145     25157     25138     25143     25146     25147
     25138     25143     25146     25148     25138     25143     25146     25149
     25139     25138     25142     25140     25139     25138     25143     25144
     25139     25138     25143     25145     25139     25138     25143     25146
     25140     25142     25138     25143     25140     25149     25146     25143
     25140     25149     25146     25147     25140     25149     25146     25148
     25140     25149     25151     25152     25141     25140     25149     25146
     25141     25140     25149     25150     25141     25140     25149     25151
     25141     25140     25153     25154     25141     25140     25153     25155
     25141     25140     25153     25156     25142     25138     25143     25144
     25142     25138     25143     25145     25142     25138     25143     25146
     25142     25140     25149     25146     25142     25140     25149     25150
     25142     25140     25149     25151     25142     25140     25153     25154
     25142     25140     25153     25155     25142     25140     25153     25156
     25143     25145     25157     25158     25143     25145     25157     25161
     25143     25145     25157     25162     25143     25146     25148     25185
     25143     25146     25149     25150     25143     25146     25149     25151
     25144     25143     25145     25157     25144     25143     25146     25147
     25144     25143     25146     25148     25144     25143     25146     25149
     25145     25143     25146     25147     25145     25143     25146     25148
     25145     25143     25146     25149     25145     25157     25161     25159
     25145     25157     25162     25163     25145     25157     25162     25164
     25145     25157     25162     25172     25146     25143     25145     25157
     25146     25148     25185     25186     25146     25148     25185     25189
     25146     25148     25185     25190     25146     25149     25140     25153
     25146     25149     25151     25152     25147     25146     25148     25185
     25147     25146     25149     25150     25147     25146     25149     25151
     25148     25146     25149     25150     25148     25146     25149     25151
     25148     25185     25189     25187     25148     25185     25190     25191
     25148     25185     25190     25192     25148     25185     25190     25200
     25149     25140     25153     25154     25149     25140     25153     25155
     25149     25140     25153     25156     25149     25146     25148     25185
     25150     25149     25140     25153     25150     25149     25151     25152
     25151     25149     25140     25153     25157     25161     25159     25160
     25157     25161     25159     25176     25157     25161     25159     25180
     25157     25162     25164     25165     25157     25162     25164     25166
     25157     25162     25172     25173     25157     25162     25172     25174
     25157     25162     25172     25176     25158     25157     25161     25159
     25158     25157     25162     25163     25158     25157     25162     25164
     25158     25157     25162     25172     25159     25161     25157     25162
     25159     25176     25172     25162     25159     25176     25172     25173
     25159     25176     25172     25174     25159     25176     25178     25179
     25159     25180     25183     25184     25160     25159     25176     25172
     25160     25159     25176     25177     25160     25159     25176     25178
     25160     25159     25180     25181     25160     25159     25180     25182
     25160     25159     25180     25183     25161     25157     25162     25163
     25161     25157     25162     25164     25161     25157     25162     25172
     25161     25159     25176     25172     25161     25159     25176     25177
     25161     25159     25176     25178     25161     25159     25180     25181
     25161     25159     25180     25182     25161     25159     25180     25183
     25162     25164     25166     25167     25162     25164     25166     25168
     25162     25172     25174     25175     25162     25172     25176     25177
     25162     25172     25176     25178     25163     25162     25164     25165
     25163     25162     25164     25166     25163     25162     25172     25173
     25163     25162     25172     25174     25163     25162     25172     25176
     25164     25162     25172     25173     25164     25162     25172     25174
     25164     25162     25172     25176     25164     25166     25168     25169
     25164     25166     25168     25170     25164     25166     25168     25171
     25165     25164     25162     25172     25165     25164     25166     25167
     25165     25164     25166     25168     25166     25164     25162     25172
     25167     25166     25168     25169     25167     25166     25168     25170
     25167     25166     25168     25171     25172     25176     25159     25180
     25172     25176     25178     25179     25173     25172     25174     25175
     25173     25172     25176     25177     25173     25172     25176     25178
     25174     25172     25176     25177     25174     25172     25176     25178
     25175     25174     25172     25176     25176     25159     25180     25181
     25176     25159     25180     25182     25176     25159     25180     25183
     25177     25176     25159     25180     25177     25176     25178     25179
     25178     25176     25159     25180     25181     25180     25183     25184
     25182     25180     25183     25184     25185     25189     25187     25188
     25185     25189     25187     25203     25185     25189     25187     25207
     25185     25190     25192     25193     25185     25190     25192     25194
     25185     25190     25200     25201     25185     25190     25200     25202
     25185     25190     25200     25203     25186     25185     25189     25187
     25186     25185     25190     25191     25186     25185     25190     25192
     25186     25185     25190     25200     25187     25189     25185     25190
     25187     25203     25200     25190     25187     25203     25200     25201
     25187     25203     25200     25202     25187     25203     25205     25206
     25187     25207     25210     25211     25188     25187     25203     25200
     25188     25187     25203     25204     25188     25187     25203     25205
     25188     25187     25207     25208     25188     25187     25207     25209
     25188     25187     25207     25210     25189     25185     25190     25191
     25189     25185     25190     25192     25189     25185     25190     25200
     25189     25187     25203     25200     25189     25187     25203     25204
     25189     25187     25203     25205     25189     25187     25207     25208
     25189     25187     25207     25209     25189     25187     25207     25210
     25190     25192     25194     25195     25190     25192     25194     25196
     25190     25200     25202     25212     25190     25200     25203     25204
     25190     25200     25203     25205     25191     25190     25192     25193
     25191     25190     25192     25194     25191     25190     25200     25201
     25191     25190     25200     25202     25191     25190     25200     25203
     25192     25190     25200     25201     25192     25190     25200     25202
     25192     25190     25200     25203     25192     25194     25196     25197
     25192     25194     25196     25198     25192     25194     25196     25199
     25193     25192     25190     25200     25193     25192     25194     25195
     25193     25192     25194     25196     25194     25192     25190     25200
     25195     25194     25196     25197     25195     25194     25196     25198
     25195     25194     25196     25199     25200     25202     25212     25213
     25200     25202     25212     25216     25200     25202     25212     25217
     25200     25203     25187     25207     25200     25203     25205     25206
     25201     25200     25202     25212     25201     25200     25203     25204
     25201     25200     25203     25205     25202     25200     25203     25204
     25202     25200     25203     25205     25202     25212     25216     25214
     25202     25212     25217     25218     25202     25212     25217     25219
     25202     25212     25217     25220     25203     25187     25207     25208
     25203     25187     25207     25209     25203     25187     25207     25210
     25203     25200     25202     25212     25204     25203     25187     25207
     25204     25203     25205     25206     25205     25203     25187     25207
     25208     25207     25210     25211     25209     25207     25210     25211
     25212     25216     25214     25215     25212     25216     25214     25224
     25212     25216     25214     25228     25212     25217     25219     25233
     25212     25217     25220     25221     25212     25217     25220     25222
     25212     25217     25220     25224     25213     25212     25216     25214
     25213     25212     25217     25218     25213     25212     25217     25219
     25213     25212     25217     25220     25214     25216     25212     25217
     25214     25224     25220     25217     25214     25224     25220     25221
     25214     25224     25220     25222     25214     25224     25226     25227
     25214     25228     25231     25232     25215     25214     25224     25220
     25215     25214     25224     25225     25215     25214     25224     25226
     25215     25214     25228     25229     25215     25214     25228     25230
     25215     25214     25228     25231     25216     25212     25217     25218
     25216     25212     25217     25219     25216     25212     25217     25220
     25216     25214     25224     25220     25216     25214     25224     25225
     25216     25214     25224     25226     25216     25214     25228     25229
     25216     25214     25228     25230     25216     25214     25228     25231
     25217     25219     25233     25234     25217     25219     25233     25237
     25217     25219     25233     25238     25217     25220     25222     25223
     25217     25220     25224     25225     25217     25220     25224     25226
     25218     25217     25219     25233     25218     25217     25220     25221
     25218     25217     25220     25222     25218     25217     25220     25224
     25219     25217     25220     25221     25219     25217     25220     25222
     25219     25217     25220     25224     25219     25233     25237     25235
     25219     25233     25238     25239     25219     25233     25238     25240
     25219     25233     25238     25241     25220     25217     25219     25233
     25220     25224     25214     25228     25220     25224     25226     25227
     25221     25220     25222     25223     25221     25220     25224     25225
     25221     25220     25224     25226     25222     25220     25224     25225
     25222     25220     25224     25226     25223     25222     25220     25224
     25224     25214     25228     25229     25224     25214     25228     25230
     25224     25214     25228     25231     25225     25224     25214     25228
     25225     25224     25226     25227     25226     25224     25214     25228
     25229     25228     25231     25232     25230     25228     25231     25232
     25233     25237     25235     25236     25233     25237     25235     25245
     25233     25237     25235     25249     25233     25238     25240     25253
     25233     25238     25241     25242     25233     25238     25241     25243
     25233     25238     25241     25245     25234     25233     25237     25235
     25234     25233     25238     25239     25234     25233     25238     25240
     25234     25233     25238     25241     25235     25237     25233     25238
     25235     25245     25241     25238     25235     25245     25241     25242
     25235     25245     25241     25243     25235     25245     25247     25248
     25236     25235     25245     25241     25236     25235     25245     25246
     25236     25235     25245     25247     25236     25235     25249     25250
     25236     25235     25249     25251     25236     25235     25249     25252
     25237     25233     25238     25239     25237     25233     25238     25240
     25237     25233     25238     25241     25237     25235     25245     25241
     25237     25235     25245     25246     25237     25235     25245     25247
     25237     25235     25249     25250     25237     25235     25249     25251
     25237     25235     25249     25252     25238     25240     25253     25254
     25238     25240     25253     25257     25238     25240     25253     25258
     25238     25241     25243     25244     25238     25241     25245     25246
     25238     25241     25245     25247     25239     25238     25240     25253
     25239     25238     25241     25242     25239     25238     25241     25243
     25239     25238     25241     25245     25240     25238     25241     25242
     25240     25238     25241     25243     25240     25238     25241     25245
     25240     25253     25257     25255     25240     25253     25258     25259
     25240     25253     25258     25260     25240     25253     25258     25261
     25241     25238     25240     25253     25241     25245     25235     25249
     25241     25245     25247     25248     25242     25241     25243     25244
     25242     25241     25245     25246     25242     25241     25245     25247
     25243     25241     25245     25246     25243     25241     25245     25247
     25244     25243     25241     25245     25245     25235     25249     25250
     25245     25235     25249     25251     25245     25235     25249     25252
     25246     25245     25235     25249     25246     25245     25247     25248
     25247     25245     25235     25249     25253     25257     25255     25256
     25253     25257     25255     25264     25253     25257     25255     25268
     25253     25258     25260     25272     25253     25258     25261     25262
     25253     25258     25261     25263     25253     25258     25261     25264
     25254     25253     25257     25255     25254     25253     25258     25259
     25254     25253     25258     25260     25254     25253     25258     25261
     25255     25257     25253     25258     25255     25264     25261     25258
     25255     25264     25261     25262     25255     25264     25261     25263
     25255     25264     25266     25267     25256     25255     25264     25261
     25256     25255     25264     25265     25256     25255     25264     25266
     25256     25255     25268     25269     25256     25255     25268     25270
     25256     25255     25268     25271     25257     25253     25258     25259
     25257     25253     25258     25260     25257     25253     25258     25261
     25257     25255     25264     25261     25257     25255     25264     25265
     25257     25255     25264     25266     25257     25255     25268     25269
     25257     25255     25268     25270     25257     25255     25268     25271
     25258     25260     25272     25273     25258     25260     25272     25276
     25258     25260     25272     25277     25258     25261     25263     25300
     25258     25261     25264     25265     25258     25261     25264     25266
     25259     25258     25260     25272     25259     25258     25261     25262
     25259     25258     25261     25263     25259     25258     25261     25264
     25260     25258     25261     25262     25260     25258     25261     25263
     25260     25258     25261     25264     25260     25272     25276     25274
     25260     25272     25277     25278     25260     25272     25277     25279
     25260     25272     25277     25287     25261     25258     25260     25272
     25261     25263     25300     25301     25261     25263     25300     25304
     25261     25263     25300     25305     25261     25264     25255     25268
     25261     25264     25266     25267     25262     25261     25263     25300
     25262     25261     25264     25265     25262     25261     25264     25266
     25263     25261     25264     25265     25263     25261     25264     25266
     25263     25300     25304     25302     25263     25300     25305     25306
     25263     25300     25305     25307     25263     25300     25305     25315
     25264     25255     25268     25269     25264     25255     25268     25270
     25264     25255     25268     25271     25264     25261     25263     25300
     25265     25264     25255     25268     25265     25264     25266     25267
     25266     25264     25255     25268     25272     25276     25274     25275
     25272     25276     25274     25291     25272     25276     25274     25295
     25272     25277     25279     25280     25272     25277     25279     25281
     25272     25277     25287     25288     25272     25277     25287     25289
     25272     25277     25287     25291     25273     25272     25276     25274
     25273     25272     25277     25278     25273     25272     25277     25279
     25273     25272     25277     25287     25274     25276     25272     25277
     25274     25291     25287     25277     25274     25291     25287     25288
     25274     25291     25287     25289     25274     25291     25293     25294
     25274     25295     25298     25299     25275     25274     25291     25287
     25275     25274     25291     25292     25275     25274     25291     25293
     25275     25274     25295     25296     25275     25274     25295     25297
     25275     25274     25295     25298     25276     25272     25277     25278
     25276     25272     25277     25279     25276     25272     25277     25287
     25276     25274     25291     25287     25276     25274     25291     25292
     25276     25274     25291     25293     25276     25274     25295     25296
     25276     25274     25295     25297     25276     25274     25295     25298
     25277     25279     25281     25282     25277     25279     25281     25283
     25277     25287     25289     25290     25277     25287     25291     25292
     25277     25287     25291     25293     25278     25277     25279     25280
     25278     25277     25279     25281     25278     25277     25287     25288
     25278     25277     25287     25289     25278     25277     25287     25291
     25279     25277     25287     25288     25279     25277     25287     25289
     25279     25277     25287     25291     25279     25281     25283     25284
     25279     25281     25283     25285     25279     25281     25283     25286
     25280     25279     25277     25287     25280     25279     25281     25282
     25280     25279     25281     25283     25281     25279     25277     25287
     25282     25281     25283     25284     25282     25281     25283     25285
     25282     25281     25283     25286     25287     25291     25274     25295
     25287     25291     25293     25294     25288     25287     25289     25290
     25288     25287     25291     25292     25288     25287     25291     25293
     25289     25287     25291     25292     25289     25287     25291     25293
     25290     25289     25287     25291     25291     25274     25295     25296
     25291     25274     25295     25297     25291     25274     25295     25298
     25292     25291     25274     25295     25292     25291     25293     25294
     25293     25291     25274     25295     25296     25295     25298     25299
     25297     25295     25298     25299     25300     25304     25302     25303
     25300     25304     25302     25318     25300     25304     25302     25322
     25300     25305     25307     25308     25300     25305     25307     25309
     25300     25305     25315     25316     25300     25305     25315     25317
     25300     25305     25315     25318     25301     25300     25304     25302
     25301     25300     25305     25306     25301     25300     25305     25307
     25301     25300     25305     25315     25302     25304     25300     25305
     25302     25318     25315     25305     25302     25318     25315     25316
     25302     25318     25315     25317     25302     25318     25320     25321
     25302     25322     25325     25326     25303     25302     25318     25315
     25303     25302     25318     25319     25303     25302     25318     25320
     25303     25302     25322     25323     25303     25302     25322     25324
     25303     25302     25322     25325     25304     25300     25305     25306
     25304     25300     25305     25307     25304     25300     25305     25315
     25304     25302     25318     25315     25304     25302     25318     25319
     25304     25302     25318     25320     25304     25302     25322     25323
     25304     25302     25322     25324     25304     25302     25322     25325
     25305     25307     25309     25310     25305     25307     25309     25311
     25305     25315     25317     25327     25305     25315     25318     25319
     25305     25315     25318     25320     25306     25305     25307     25308
     25306     25305     25307     25309     25306     25305     25315     25316
     25306     25305     25315     25317     25306     25305     25315     25318
     25307     25305     25315     25316     25307     25305     25315     25317
     25307     25305     25315     25318     25307     25309     25311     25312
     25307     25309     25311     25313     25307     25309     25311     25314
     25308     25307     25305     25315     25308     25307     25309     25310
     25308     25307     25309     25311     25309     25307     25305     25315
     25310     25309     25311     25312     25310     25309     25311     25313
     25310     25309     25311     25314     25315     25317     25327     25328
     25315     25317     25327     25331     25315     25317     25327     25332
     25315     25318     25302     25322     25315     25318     25320     25321
     25316     25315     25317     25327     25316     25315     25318     25319
     25316     25315     25318     25320     25317     25315     25318     25319
     25317     25315     25318     25320     25317     25327     25331     25329
     25317     25327     25332     25333     25317     25327     25332     25334
     25317     25327     25332     25335     25318     25302     25322     25323
     25318     25302     25322     25324     25318     25302     25322     25325
     25318     25315     25317     25327     25319     25318     25302     25322
     25319     25318     25320     25321     25320     25318     25302     25322
     25323     25322     25325     25326     25324     25322     25325     25326
     25327     25331     25329     25330     25327     25331     25329     25339
     25327     25331     25329     25343     25327     25332     25334     25348
     25327     25332     25335     25336     25327     25332     25335     25337
     25327     25332     25335     25339     25328     25327     25331     25329
     25328     25327     25332     25333     25328     25327     25332     25334
     25328     25327     25332     25335     25329     25331     25327     25332
     25329     25339     25335     25332     25329     25339     25335     25336
     25329     25339     25335     25337     25329     25339     25341     25342
     25329     25343     25346     25347     25330     25329     25339     25335
     25330     25329     25339     25340     25330     25329     25339     25341
     25330     25329     25343     25344     25330     25329     25343     25345
     25330     25329     25343     25346     25331     25327     25332     25333
     25331     25327     25332     25334     25331     25327     25332     25335
     25331     25329     25339     25335     25331     25329     25339     25340
     25331     25329     25339     25341     25331     25329     25343     25344
     25331     25329     25343     25345     25331     25329     25343     25346
     25332     25334     25348     25349     25332     25334     25348     25352
     25332     25334     25348     25353     25332     25335     25337     25338
     25332     25335     25339     25340     25332     25335     25339     25341
     25333     25332     25334     25348     25333     25332     25335     25336
     25333     25332     25335     25337     25333     25332     25335     25339
     25334     25332     25335     25336     25334     25332     25335     25337
     25334     25332     25335     25339     25334     25348     25352     25350
     25334     25348     25353     25354     25334     25348     25353     25355
     25334     25348     25353     25356     25335     25332     25334     25348
     25335     25339     25329     25343     25335     25339     25341     25342
     25336     25335     25337     25338     25336     25335     25339     25340
     25336     25335     25339     25341     25337     25335     25339     25340
     25337     25335     25339     25341     25338     25337     25335     25339
     25339     25329     25343     25344     25339     25329     25343     25345
     25339     25329     25343     25346     25340     25339     25329     25343
     25340     25339     25341     25342     25341     25339     25329     25343
     25344     25343     25346     25347     25345     25343     25346     25347
     25348     25352     25350     25351     25348     25352     25350     25360
     25348     25352     25350     25364     25348     25353     25355     25368
     25348     25353     25356     25357     25348     25353     25356     25358
     25348     25353     25356     25360     25349     25348     25352     25350
     25349     25348     25353     25354     25349     25348     25353     25355
     25349     25348     25353     25356     25350     25352     25348     25353
     25350     25360     25356     25353     25350     25360     25356     25357
     25350     25360     25356     25358     25350     25360     25362     25363
     25351     25350     25360     25356     25351     25350     25360     25361
     25351     25350     25360     25362     25351     25350     25364     25365
     25351     25350     25364     25366     25351     25350     25364     25367
     25352     25348     25353     25354     25352     25348     25353     25355
     25352     25348     25353     25356     25352     25350     25360     25356
     25352     25350     25360     25361     25352     25350     25360     25362
     25352     25350     25364     25365     25352     25350     25364     25366
     25352     25350     25364     25367     25353     25355     25368     25369
     25353     25355     25368     25372     25353     25355     25368     25373
     25353     25356     25358     25359     25353     25356     25360     25361
     25353     25356     25360     25362     25354     25353     25355     25368
     25354     25353     25356     25357     25354     25353     25356     25358
     25354     25353     25356     25360     25355     25353     25356     25357
     25355     25353     25356     25358     25355     25353     25356     25360
     25355     25368     25372     25370     25355     25368     25373     25374
     25355     25368     25373     25375     25355     25368     25373     25376
     25356     25353     25355     25368     25356     25360     25350     25364
     25356     25360     25362     25363     25357     25356     25358     25359
     25357     25356     25360     25361     25357     25356     25360     25362
     25358     25356     25360     25361     25358     25356     25360     25362
     25359     25358     25356     25360     25360     25350     25364     25365
     25360     25350     25364     25366     25360     25350     25364     25367
     25361     25360     25350     25364     25361     25360     25362     25363
     25362     25360     25350     25364     25368     25372     25370     25371
     25368     25372     25370     25379     25368     25372     25370     25383
     25368     25373     25375     25387     25368     25373     25376     25377
     25368     25373     25376     25378     25368     25373     25376     25379
     25369     25368     25372     25370     25369     25368     25373     25374
     25369     25368     25373     25375     25369     25368     25373     25376
     25370     25372     25368     25373     25370     25379     25376     25373
     25370     25379     25376     25377     25370     25379     25376     25378
     25370     25379     25381     25382     25371     25370     25379     25376
     25371     25370     25379     25380     25371     25370     25379     25381
     25371     25370     25383     25384     25371     25370     25383     25385
     25371     25370     25383     25386     25372     25368     25373     25374
     25372     25368     25373     25375     25372     25368     25373     25376
     25372     25370     25379     25376     25372     25370     25379     25380
     25372     25370     25379     25381     25372     25370     25383     25384
     25372     25370     25383     25385     25372     25370     25383     25386
     25373     25375     25387     25388     25373     25375     25387     25391
     25373     25375     25387     25392     25373     25376     25378     25415
     25373     25376     25379     25380     25373     25376     25379     25381
     25374     25373     25375     25387     25374     25373     25376     25377
     25374     25373     25376     25378     25374     25373     25376     25379
     25375     25373     25376     25377     25375     25373     25376     25378
     25375     25373     25376     25379     25375     25387     25391     25389
     25375     25387     25392     25393     25375     25387     25392     25394
     25375     25387     25392     25402     25376     25373     25375     25387
     25376     25378     25415     25416     25376     25378     25415     25419
     25376     25378     25415     25420     25376     25379     25370     25383
     25376     25379     25381     25382     25377     25376     25378     25415
     25377     25376     25379     25380     25377     25376     25379     25381
     25378     25376     25379     25380     25378     25376     25379     25381
     25378     25415     25419     25417     25378     25415     25420     25421
     25378     25415     25420     25422     25378     25415     25420     25430
     25379     25370     25383     25384     25379     25370     25383     25385
     25379     25370     25383     25386     25379     25376     25378     25415
     25380     25379     25370     25383     25380     25379     25381     25382
     25381     25379     25370     25383     25387     25391     25389     25390
     25387     25391     25389     25406     25387     25391     25389     25410
     25387     25392     25394     25395     25387     25392     25394     25396
     25387     25392     25402     25403     25387     25392     25402     25404
     25387     25392     25402     25406     25388     25387     25391     25389
     25388     25387     25392     25393     25388     25387     25392     25394
     25388     25387     25392     25402     25389     25391     25387     25392
     25389     25406     25402     25392     25389     25406     25402     25403
     25389     25406     25402     25404     25389     25406     25408     25409
     25389     25410     25413     25414     25390     25389     25406     25402
     25390     25389     25406     25407     25390     25389     25406     25408
     25390     25389     25410     25411     25390     25389     25410     25412
     25390     25389     25410     25413     25391     25387     25392     25393
     25391     25387     25392     25394     25391     25387     25392     25402
     25391     25389     25406     25402     25391     25389     25406     25407
     25391     25389     25406     25408     25391     25389     25410     25411
     25391     25389     25410     25412     25391     25389     25410     25413
     25392     25394     25396     25397     25392     25394     25396     25398
     25392     25402     25404     25405     25392     25402     25406     25407
     25392     25402     25406     25408     25393     25392     25394     25395
     25393     25392     25394     25396     25393     25392     25402     25403
     25393     25392     25402     25404     25393     25392     25402     25406
     25394     25392     25402     25403     25394     25392     25402     25404
     25394     25392     25402     25406     25394     25396     25398     25399
     25394     25396     25398     25400     25394     25396     25398     25401
     25395     25394     25392     25402     25395     25394     25396     25397
     25395     25394     25396     25398     25396     25394     25392     25402
     25397     25396     25398     25399     25397     25396     25398     25400
     25397     25396     25398     25401     25402     25406     25389     25410
     25402     25406     25408     25409     25403     25402     25404     25405
     25403     25402     25406     25407     25403     25402     25406     25408
     25404     25402     25406     25407     25404     25402     25406     25408
     25405     25404     25402     25406     25406     25389     25410     25411
     25406     25389     25410     25412     25406     25389     25410     25413
     25407     25406     25389     25410     25407     25406     25408     25409
     25408     25406     25389     25410     25411     25410     25413     25414
     25412     25410     25413     25414     25415     25419     25417     25418
     25415     25419     25417     25433     25415     25419     25417     25437
     25415     25420     25422     25423     25415     25420     25422     25424
     25415     25420     25430     25431     25415     25420     25430     25432
     25415     25420     25430     25433     25416     25415     25419     25417
     25416     25415     25420     25421     25416     25415     25420     25422
     25416     25415     25420     25430     25417     25419     25415     25420
     25417     25433     25430     25420     25417     25433     25430     25431
     25417     25433     25430     25432     25417     25433     25435     25436
     25417     25437     25440     25441     25418     25417     25433     25430
     25418     25417     25433     25434     25418     25417     25433     25435
     25418     25417     25437     25438     25418     25417     25437     25439
     25418     25417     25437     25440     25419     25415     25420     25421
     25419     25415     25420     25422     25419     25415     25420     25430
     25419     25417     25433     25430     25419     25417     25433     25434
     25419     25417     25433     25435     25419     25417     25437     25438
     25419     25417     25437     25439     25419     25417     25437     25440
     25420     25422     25424     25425     25420     25422     25424     25426
     25420     25430     25432     25442     25420     25430     25433     25434
     25420     25430     25433     25435     25421     25420     25422     25423
     25421     25420     25422     25424     25421     25420     25430     25431
     25421     25420     25430     25432     25421     25420     25430     25433
     25422     25420     25430     25431     25422     25420     25430     25432
     25422     25420     25430     25433     25422     25424     25426     25427
     25422     25424     25426     25428     25422     25424     25426     25429
     25423     25422     25420     25430     25423     25422     25424     25425
     25423     25422     25424     25426     25424     25422     25420     25430
     25425     25424     25426     25427     25425     25424     25426     25428
     25425     25424     25426     25429     25430     25432     25442     25443
     25430     25432     25442     25446     25430     25432     25442     25447
     25430     25433     25417     25437     25430     25433     25435     25436
     25431     25430     25432     25442     25431     25430     25433     25434
     25431     25430     25433     25435     25432     25430     25433     25434
     25432     25430     25433     25435     25432     25442     25446     25444
     25432     25442     25447     25448     25432     25442     25447     25449
     25432     25442     25447     25450     25433     25417     25437     25438
     25433     25417     25437     25439     25433     25417     25437     25440
     25433     25430     25432     25442     25434     25433     25417     25437
     25434     25433     25435     25436     25435     25433     25417     25437
     25438     25437     25440     25441     25439     25437     25440     25441
     25442     25446     25444     25445     25442     25446     25444     25454
     25442     25446     25444     25458     25442     25447     25449     25463
     25442     25447     25450     25451     25442     25447     25450     25452
     25442     25447     25450     25454     25443     25442     25446     25444
     25443     25442     25447     25448     25443     25442     25447     25449
     25443     25442     25447     25450     25444     25446     25442     25447
     25444     25454     25450     25447     25444     25454     25450     25451
     25444     25454     25450     25452     25444     25454     25456     25457
     25444     25458     25461     25462     25445     25444     25454     25450
     25445     25444     25454     25455     25445     25444     25454     25456
     25445     25444     25458     25459     25445     25444     25458     25460
     25445     25444     25458     25461     25446     25442     25447     25448
     25446     25442     25447     25449     25446     25442     25447     25450
     25446     25444     25454     25450     25446     25444     25454     25455
     25446     25444     25454     25456     25446     25444     25458     25459
     25446     25444     25458     25460     25446     25444     25458     25461
     25447     25449     25463     25464     25447     25449     25463     25467
     25447     25449     25463     25468     25447     25450     25452     25453
     25447     25450     25454     25455     25447     25450     25454     25456
     25448     25447     25449     25463     25448     25447     25450     25451
     25448     25447     25450     25452     25448     25447     25450     25454
     25449     25447     25450     25451     25449     25447     25450     25452
     25449     25447     25450     25454     25449     25463     25467     25465
     25449     25463     25468     25469     25449     25463     25468     25470
     25449     25463     25468     25471     25450     25447     25449     25463
     25450     25454     25444     25458     25450     25454     25456     25457
     25451     25450     25452     25453     25451     25450     25454     25455
     25451     25450     25454     25456     25452     25450     25454     25455
     25452     25450     25454     25456     25453     25452     25450     25454
     25454     25444     25458     25459     25454     25444     25458     25460
     25454     25444     25458     25461     25455     25454     25444     25458
     25455     25454     25456     25457     25456     25454     25444     25458
     25459     25458     25461     25462     25460     25458     25461     25462
     25463     25467     25465     25466     25463     25467     25465     25475
     25463     25467     25465     25479     25463     25468     25470     25483
     25463     25468     25471     25472     25463     25468     25471     25473
     25463     25468     25471     25475     25464     25463     25467     25465
     25464     25463     25468     25469     25464     25463     25468     25470
     25464     25463     25468     25471     25465     25467     25463     25468
     25465     25475     25471     25468     25465     25475     25471     25472
     25465     25475     25471     25473     25465     25475     25477     25478
     25466     25465     25475     25471     25466     25465     25475     25476
     25466     25465     25475     25477     25466     25465     25479     25480
     25466     25465     25479     25481     25466     25465     25479     25482
     25467     25463     25468     25469     25467     25463     25468     25470
     25467     25463     25468     25471     25467     25465     25475     25471
     25467     25465     25475     25476     25467     25465     25475     25477
     25467     25465     25479     25480     25467     25465     25479     25481
     25467     25465     25479     25482     25468     25470     25483     25484
     25468     25470     25483     25487     25468     25470     25483     25488
     25468     25471     25473     25474     25468     25471     25475     25476
     25468     25471     25475     25477     25469     25468     25470     25483
     25469     25468     25471     25472     25469     25468     25471     25473
     25469     25468     25471     25475     25470     25468     25471     25472
     25470     25468     25471     25473     25470     25468     25471     25475
     25470     25483     25487     25485     25470     25483     25488     25489
     25470     25483     25488     25490     25470     25483     25488     25491
     25471     25468     25470     25483     25471     25475     25465     25479
     25471     25475     25477     25478     25472     25471     25473     25474
     25472     25471     25475     25476     25472     25471     25475     25477
     25473     25471     25475     25476     25473     25471     25475     25477
     25474     25473     25471     25475     25475     25465     25479     25480
     25475     25465     25479     25481     25475     25465     25479     25482
     25476     25475     25465     25479     25476     25475     25477     25478
     25477     25475     25465     25479     25483     25487     25485     25486
     25483     25487     25485     25495     25483     25487     25485     25499
     25483     25488     25490     25503     25483     25488     25491     25492
     25483     25488     25491     25493     25483     25488     25491     25495
     25484     25483     25487     25485     25484     25483     25488     25489
     25484     25483     25488     25490     25484     25483     25488     25491
     25485     25487     25483     25488     25485     25495     25491     25488
     25485     25495     25491     25492     25485     25495     25491     25493
     25485     25495     25497     25498     25486     25485     25495     25491
     25486     25485     25495     25496     25486     25485     25495     25497
     25486     25485     25499     25500     25486     25485     25499     25501
     25486     25485     25499     25502     25487     25483     25488     25489
     25487     25483     25488     25490     25487     25483     25488     25491
     25487     25485     25495     25491     25487     25485     25495     25496
     25487     25485     25495     25497     25487     25485     25499     25500
     25487     25485     25499     25501     25487     25485     25499     25502
     25488     25490     25503     25504     25488     25490     25503     25507
     25488     25490     25503     25508     25488     25491     25493     25494
     25488     25491     25495     25496     25488     25491     25495     25497
     25489     25488     25490     25503     25489     25488     25491     25492
     25489     25488     25491     25493     25489     25488     25491     25495
     25490     25488     25491     25492     25490     25488     25491     25493
     25490     25488     25491     25495     25490     25503     25507     25505
     25490     25503     25508     25509     25490     25503     25508     25510
     25490     25503     25508     25518     25491     25488     25490     25503
     25491     25495     25485     25499     25491     25495     25497     25498
     25492     25491     25493     25494     25492     25491     25495     25496
     25492     25491     25495     25497     25493     25491     25495     25496
     25493     25491     25495     25497     25494     25493     25491     25495
     25495     25485     25499     25500     25495     25485     25499     25501
     25495     25485     25499     25502     25496     25495     25485     25499
     25496     25495     25497     25498     25497     25495     25485     25499
     25503     25507     25505     25506     25503     25507     25505     25522
     25503     25507     25505     25526     25503     25508     25510     25511
     25503     25508     25510     25512     25503     25508     25518     25519
     25503     25508     25518     25520     25503     25508     25518     25522
     25504     25503     25507     25505     25504     25503     25508     25509
     25504     25503     25508     25510     25504     25503     25508     25518
     25505     25507     25503     25508     25505     25522     25518     25508
     25505     25522     25518     25519     25505     25522     25518     25520
     25505     25522     25524     25525     25505     25526     25529     25530
     25506     25505     25522     25518     25506     25505     25522     25523
     25506     25505     25522     25524     25506     25505     25526     25527
     25506     25505     25526     25528     25506     25505     25526     25529
     25507     25503     25508     25509     25507     25503     25508     25510
     25507     25503     25508     25518     25507     25505     25522     25518
     25507     25505     25522     25523     25507     25505     25522     25524
     25507     25505     25526     25527     25507     25505     25526     25528
     25507     25505     25526     25529     25508     25510     25512     25513
     25508     25510     25512     25514     25508     25518     25520     25521
     25508     25518     25522     25523     25508     25518     25522     25524
     25509     25508     25510     25511     25509     25508     25510     25512
     25509     25508     25518     25519     25509     25508     25518     25520
     25509     25508     25518     25522     25510     25508     25518     25519
     25510     25508     25518     25520     25510     25508     25518     25522
     25510     25512     25514     25515     25510     25512     25514     25516
     25510     25512     25514     25517     25511     25510     25508     25518
     25511     25510     25512     25513     25511     25510     25512     25514
     25512     25510     25508     25518     25513     25512     25514     25515
     25513     25512     25514     25516     25513     25512     25514     25517
     25518     25522     25505     25526     25518     25522     25524     25525
     25519     25518     25520     25521     25519     25518     25522     25523
     25519     25518     25522     25524     25520     25518     25522     25523
     25520     25518     25522     25524     25521     25520     25518     25522
     25522     25505     25526     25527     25522     25505     25526     25528
     25522     25505     25526     25529     25523     25522     25505     25526
     25523     25522     25524     25525     25524     25522     25505     25526
     25527     25526     25529     25530     25528     25526     25529     25530
     25531     25533     25532     25830     25531     25533     25535     25536
     25531     25533     25535     25537     25531     25533     25535     25544
     25532     25533     25535     25536     25532     25533     25535     25537
     25532     25533     25535     25544     25532     25830     25827     25828
     25532     25830     25827     25829     25532     25830     25833     25831
     25532     25830     25834     25835     25532     25830     25834     25836
     25532     25830     25834     25837     25533     25532     25830     25827
     25533     25532     25830     25833     25533     25532     25830     25834
     25533     25535     25536     25538     25533     25535     25544     25545
     25533     25535     25544     25546     25533     25535     25544     25551
     25534     25533     25532     25830     25534     25533     25535     25536
     25534     25533     25535     25537     25534     25533     25535     25544
     25535     25533     25532     25830     25535     25536     25538     25539
     25535     25536     25538     25540     25535     25536     25538     25559
     25535     25544     25546     25547     25535     25544     25551     25552
     25535     25544     25551     25553     25535     25544     25551     25559
     25536     25535     25544     25545     25536     25535     25544     25546
     25536     25535     25544     25551     25536     25538     25540     25541
     25536     25538     25559     25551     25536     25538     25559     25560
     25536     25538     25559     25561     25537     25535     25536     25538
     25537     25535     25544     25545     25537     25535     25544     25546
     25537     25535     25544     25551     25538     25536     25535     25544
     25538     25540     25541     25542     25538     25540     25541     25543
     25538     25540     25541     25567     25538     25559     25551     25544
     25538     25559     25551     25552     25538     25559     25551     25553
     25538     25559     25561     25562     25538     25559     25561     25668
     25539     25538     25540     25541     25539     25538     25559     25551
     25539     25538     25559     25560     25539     25538     25559     25561
     25540     25538     25559     25551     25540     25538     25559     25560
     25540     25538     25559     25561     25540     25541     25567     25563
     25540     25541     25567     25568     25540     25541     25567     25569
     25541     25540     25538     25559     25541     25567     25563     25564
     25541     25567     25563     25565     25541     25567     25563     25577
     25541     25567     25569     25570     25542     25541     25567     25563
     25542     25541     25567     25568     25542     25541     25567     25569
     25543     25541     25567     25563     25543     25541     25567     25568
     25543     25541     25567     25569     25544     25546     25547     25548
     25544     25546     25547     25549     25544     25546     25547     25550
     25544     25551     25552     25554     25544     25551     25559     25560
     25544     25551     25559     25561     25545     25544     25546     25547
     25545     25544     25551     25552     25545     25544     25551     25553
     25545     25544     25551     25559     25546     25544     25551     25552
     25546     25544     25551     25553     25546     25544     25551     25559
     25547     25546     25544     25551     25551     25552     25554     25555
     25551     25552     25554     25556     25551     25559     25561     25562
     25551     25559     25561     25668     25552     25551     25559     25560
     25552     25551     25559     25561     25552     25554     25556     25557
     25552     25554     25556     25558     25552     25554     25556     25589
     25553     25551     25552     25554     25553     25551     25559     25560
     25553     25551     25559     25561     25554     25552     25551     25559
     25554     25556     25589     25590     25554     25556     25589     25591
     25554     25556     25589     25634     25555     25554     25556     25557
     25555     25554     25556     25558     25555     25554     25556     25589
     25556     25589     25591     25592     25556     25589     25634     25635
     25556     25589     25634     25636     25556     25589     25634     25637
     25557     25556     25589     25590     25557     25556     25589     25591
     25557     25556     25589     25634     25558     25556     25589     25590
     25558     25556     25589     25591     25558     25556     25589     25634
     25559     25561     25668     25669     25559     25561     25668     25670
     25560     25559     25561     25562     25560     25559     25561     25668
     25561     25668     25670     25671     25561     25668     25670     25672
     25561     25668     25670     25673     25562     25561     25668     25669
     25562     25561     25668     25670     25563     25567     25569     25570
     25563     25577     25579     25580     25563     25577     25585     25570
     25563     25577     25585     25586     25563     25577     25585     25587
     25564     25563     25565     25566     25564     25563     25567     25568
     25564     25563     25567     25569     25564     25563     25577     25578
     25564     25563     25577     25579     25564     25563     25577     25585
     25565     25563     25567     25568     25565     25563     25567     25569
     25565     25563     25577     25578     25565     25563     25577     25579
     25565     25563     25577     25585     25566     25565     25563     25567
     25566     25565     25563     25577     25567     25563     25577     25578
     25567     25563     25577     25579     25567     25563     25577     25585
     25567     25569     25570     25571     25567     25569     25570     25572
     25567     25569     25570     25585     25568     25567     25563     25577
     25568     25567     25569     25570     25569     25567     25563     25577
     25569     25570     25572     25576     25569     25570     25585     25577
     25569     25570     25585     25586     25569     25570     25585     25587
     25570     25572     25576     25573     25570     25572     25576     25574
     25570     25572     25576     25575     25570     25585     25577     25578
     25570     25585     25577     25579     25570     25585     25587     25588
     25570     25585     25587     25784     25571     25570     25572     25576
     25571     25570     25585     25577     25571     25570     25585     25586
     25571     25570     25585     25587     25572     25570     25585     25577
     25572     25570     25585     25586     25572     25570     25585     25587
     25576     25572     25570     25585     25577     25579     25580     25581
     25577     25579     25580     25582     25577     25585     25587     25588
     25577     25585     25587     25784     25578     25577     25579     25580
     25578     25577     25585     25586     25578     25577     25585     25587
     25579     25577     25585     25586     25579     25577     25585     25587
     25579     25580     25582     25583     25579     25580     25582     25584
     25579     25580     25582     25746     25580     25579     25577     25585
     25580     25582     25746     25747     25580     25582     25746     25748
     25580     25582     25746     25750     25581     25580     25582     25583
     25581     25580     25582     25584     25581     25580     25582     25746
     25582     25746     25748     25749     25582     25746     25750     25751
     25582     25746     25750     25752     25582     25746     25750     25753
     25583     25582     25746     25747     25583     25582     25746     25748
     25583     25582     25746     25750     25584     25582     25746     25747
     25584     25582     25746     25748     25584     25582     25746     25750
     25585     25587     25784     25785     25585     25587     25784     25786
     25586     25585     25587     25588     25586     25585     25587     25784
     25587     25784     25786     25787     25587     25784     25786     25788
     25587     25784     25786     25789     25588     25587     25784     25785
     25588     25587     25784     25786     25589     25591     25592     25593
     25589     25591     25592     25594     25589     25634     25637     25638
     25589     25634     25637     25639     25589     25634     25637     25640
     25590     25589     25591     25592     25590     25589     25634     25635
     25590     25589     25634     25636     25590     25589     25634     25637
     25591     25589     25634     25635     25591     25589     25634     25636
     25591     25589     25634     25637     25591     25592     25594     25595
     25591     25592     25594     25596     25591     25592     25594     25597
     25592     25591     25589     25634     25592     25594     25597     25598
     25592     25594     25597     25599     25592     25594     25597     25600
     25593     25592     25594     25595     25593     25592     25594     25596
     25593     25592     25594     25597     25594     25597     25600     25601
     25594     25597     25600     25602     25594     25597     25600     25603
     25595     25594     25597     25598     25595     25594     25597     25599
     25595     25594     25597     25600     25596     25594     25597     25598
     25596     25594     25597     25599     25596     25594     25597     25600
     25597     25600     25603     25604     25597     25600     25603     25605
     25597     25600     25603     25606     25598     25597     25600     25601
     25598     25597     25600     25602     25598     25597     25600     25603
     25599     25597     25600     25601     25599     25597     25600     25602
     25599     25597     25600     25603     25600     25603     25606     25607
     25600     25603     25606     25608     25600     25603     25606     25609
     25601     25600     25603     25604     25601     25600     25603     25605
     25601     25600     25603     25606     25602     25600     25603     25604
     25602     25600     25603     25605     25602     25600     25603     25606
     25603     25606     25609     25610     25603     25606     25609     25611
     25603     25606     25609     25612     25604     25603     25606     25607
     25604     25603     25606     25608     25604     25603     25606     25609
     25605     25603     25606     25607     25605     25603     25606     25608
     25605     25603     25606     25609     25606     25609     25612     25613
     25606     25609     25612     25614     25606     25609     25612     25615
     25607     25606     25609     25610     25607     25606     25609     25611
     25607     25606     25609     25612     25608     25606     25609     25610
     25608     25606     25609     25611     25608     25606     25609     25612
     25609     25612     25615     25616     25609     25612     25615     25617
     25609     25612     25615     25618     25610     25609     25612     25613
     25610     25609     25612     25614     25610     25609     25612     25615
     25611     25609     25612     25613     25611     25609     25612     25614
     25611     25609     25612     25615     25612     25615     25618     25619
     25612     25615     25618     25620     25612     25615     25618     25621
     25613     25612     25615     25616     25613     25612     25615     25617
     25613     25612     25615     25618     25614     25612     25615     25616
     25614     25612     25615     25617     25614     25612     25615     25618
     25615     25618     25621     25622     25615     25618     25621     25623
     25615     25618     25621     25624     25616     25615     25618     25619
     25616     25615     25618     25620     25616     25615     25618     25621
     25617     25615     25618     25619     25617     25615     25618     25620
     25617     25615     25618     25621     25618     25621     25624     25625
     25618     25621     25624     25626     25618     25621     25624     25627
     25619     25618     25621     25622     25619     25618     25621     25623
     25619     25618     25621     25624     25620     25618     25621     25622
     25620     25618     25621     25623     25620     25618     25621     25624
     25621     25624     25627     25628     25621     25624     25627     25629
     25621     25624     25627     25630     25622     25621     25624     25625
     25622     25621     25624     25626     25622     25621     25624     25627
     25623     25621     25624     25625     25623     25621     25624     25626
     25623     25621     25624     25627     25624     25627     25630     25631
     25624     25627     25630     25632     25624     25627     25630     25633
     25625     25624     25627     25628     25625     25624     25627     25629
     25625     25624     25627     25630     25626     25624     25627     25628
     25626     25624     25627     25629     25626     25624     25627     25630
     25628     25627     25630     25631     25628     25627     25630     25632
     25628     25627     25630     25633     25629     25627     25630     25631
     25629     25627     25630     25632     25629     25627     25630     25633
     25634     25637     25640     25641     25634     25637     25640     25642
     25634     25637     25640     25643     25635     25634     25637     25638
     25635     25634     25637     25639     25635     25634     25637     25640
     25636     25634     25637     25638     25636     25634     25637     25639
     25636     25634     25637     25640     25637     25640     25643     25644
     25637     25640     25643     25645     25637     25640     25643     25646
     25638     25637     25640     25641     25638     25637     25640     25642
     25638     25637     25640     25643     25639     25637     25640     25641
     25639     25637     25640     25642     25639     25637     25640     25643
     25640     25643     25646     25647     25640     25643     25646     25648
     25640     25643     25646     25649     25641     25640     25643     25644
     25641     25640     25643     25645     25641     25640     25643     25646
     25642     25640     25643     25644     25642     25640     25643     25645
     25642     25640     25643     25646     25643     25646     25649     25650
     25643     25646     25649     25651     25643     25646     25649     25652
     25644     25643     25646     25647     25644     25643     25646     25648
     25644     25643     25646     25649     25645     25643     25646     25647
     25645     25643     25646     25648     25645     25643     25646     25649
     25646     25649     25652     25653     25646     25649     25652     25654
     25646     25649     25652     25655     25647     25646     25649     25650
     25647     25646     25649     25651     25647     25646     25649     25652
     25648     25646     25649     25650     25648     25646     25649     25651
     25648     25646     25649     25652     25649     25652     25655     25656
     25649     25652     25655     25657     25649     25652     25655     25658
     25650     25649     25652     25653     25650     25649     25652     25654
     25650     25649     25652     25655     25651     25649     25652     25653
     25651     25649     25652     25654     25651     25649     25652     25655
     25652     25655     25658     25659     25652     25655     25658     25660
     25652     25655     25658     25661     25653     25652     25655     25656
     25653     25652     25655     25657     25653     25652     25655     25658
     25654     25652     25655     25656     25654     25652     25655     25657
     25654     25652     25655     25658     25655     25658     25661     25662
     25655     25658     25661     25663     25655     25658     25661     25664
     25656     25655     25658     25659     25656     25655     25658     25660
     25656     25655     25658     25661     25657     25655     25658     25659
     25657     25655     25658     25660     25657     25655     25658     25661
     25658     25661     25664     25665     25658     25661     25664     25666
     25658     25661     25664     25667     25659     25658     25661     25662
     25659     25658     25661     25663     25659     25658     25661     25664
     25660     25658     25661     25662     25660     25658     25661     25663
     25660     25658     25661     25664     25662     25661     25664     25665
     25662     25661     25664     25666     25662     25661     25664     25667
     25663     25661     25664     25665     25663     25661     25664     25666
     25663     25661     25664     25667     25668     25670     25673     25674
     25668     25670     25673     25675     25668     25670     25673     25712
     25669     25668     25670     25671     25669     25668     25670     25672
     25669     25668     25670     25673     25670     25673     25675     25676
     25670     25673     25712     25713     25670     25673     25712     25714
     25670     25673     25712     25715     25671     25670     25673     25674
     25671     25670     25673     25675     25671     25670     25673     25712
     25672     25670     25673     25674     25672     25670     25673     25675
     25672     25670     25673     25712     25673     25675     25676     25677
     25673     25675     25676     25678     25673     25712     25715     25716
     25673     25712     25715     25717     25673     25712     25715     25718
     25674     25673     25675     25676     25674     25673     25712     25713
     25674     25673     25712     25714     25674     25673     25712     25715
     25675     25673     25712     25713     25675     25673     25712     25714
     25675     25673     25712     25715     25675     25676     25678     25679
     25675     25676     25678     25680     25675     25676     25678     25681
     25676     25675     25673     25712     25676     25678     25681     25682
     25676     25678     25681     25683     25676     25678     25681     25684
     25677     25676     25678     25679     25677     25676     25678     25680
     25677     25676     25678     25681     25678     25681     25684     25685
     25678     25681     25684     25686     25678     25681     25684     25687
     25679     25678     25681     25682     25679     25678     25681     25683
     25679     25678     25681     25684     25680     25678     25681     25682
     25680     25678     25681     25683     25680     25678     25681     25684
     25681     25684     25687     25688     25681     25684     25687     25689
     25681     25684     25687     25690     25682     25681     25684     25685
     25682     25681     25684     25686     25682     25681     25684     25687
     25683     25681     25684     25685     25683     25681     25684     25686
     25683     25681     25684     25687     25684     25687     25690     25691
     25684     25687     25690     25692     25684     25687     25690     25693
     25685     25684     25687     25688     25685     25684     25687     25689
     25685     25684     25687     25690     25686     25684     25687     25688
     25686     25684     25687     25689     25686     25684     25687     25690
     25687     25690     25693     25694     25687     25690     25693     25695
     25687     25690     25693     25696     25688     25687     25690     25691
     25688     25687     25690     25692     25688     25687     25690     25693
     25689     25687     25690     25691     25689     25687     25690     25692
     25689     25687     25690     25693     25690     25693     25696     25697
     25690     25693     25696     25698     25690     25693     25696     25699
     25691     25690     25693     25694     25691     25690     25693     25695
     25691     25690     25693     25696     25692     25690     25693     25694
     25692     25690     25693     25695     25692     25690     25693     25696
     25693     25696     25699     25700     25693     25696     25699     25701
     25693     25696     25699     25702     25694     25693     25696     25697
     25694     25693     25696     25698     25694     25693     25696     25699
     25695     25693     25696     25697     25695     25693     25696     25698
     25695     25693     25696     25699     25696     25699     25702     25703
     25696     25699     25702     25704     25696     25699     25702     25705
     25697     25696     25699     25700     25697     25696     25699     25701
     25697     25696     25699     25702     25698     25696     25699     25700
     25698     25696     25699     25701     25698     25696     25699     25702
     25699     25702     25705     25706     25699     25702     25705     25707
     25699     25702     25705     25708     25700     25699     25702     25703
     25700     25699     25702     25704     25700     25699     25702     25705
     25701     25699     25702     25703     25701     25699     25702     25704
     25701     25699     25702     25705     25702     25705     25708     25709
     25702     25705     25708     25710     25702     25705     25708     25711
     25703     25702     25705     25706     25703     25702     25705     25707
     25703     25702     25705     25708     25704     25702     25705     25706
     25704     25702     25705     25707     25704     25702     25705     25708
     25706     25705     25708     25709     25706     25705     25708     25710
     25706     25705     25708     25711     25707     25705     25708     25709
     25707     25705     25708     25710     25707     25705     25708     25711
     25712     25715     25718     25719     25712     25715     25718     25720
     25712     25715     25718     25721     25713     25712     25715     25716
     25713     25712     25715     25717     25713     25712     25715     25718
     25714     25712     25715     25716     25714     25712     25715     25717
     25714     25712     25715     25718     25715     25718     25721     25722
     25715     25718     25721     25723     25715     25718     25721     25724
     25716     25715     25718     25719     25716     25715     25718     25720
     25716     25715     25718     25721     25717     25715     25718     25719
     25717     25715     25718     25720     25717     25715     25718     25721
     25718     25721     25724     25725     25718     25721     25724     25726
     25718     25721     25724     25727     25719     25718     25721     25722
     25719     25718     25721     25723     25719     25718     25721     25724
     25720     25718     25721     25722     25720     25718     25721     25723
     25720     25718     25721     25724     25721     25724     25727     25728
     25721     25724     25727     25729     25721     25724     25727     25730
     25722     25721     25724     25725     25722     25721     25724     25726
     25722     25721     25724     25727     25723     25721     25724     25725
     25723     25721     25724     25726     25723     25721     25724     25727
     25724     25727     25730     25731     25724     25727     25730     25732
     25724     25727     25730     25733     25725     25724     25727     25728
     25725     25724     25727     25729     25725     25724     25727     25730
     25726     25724     25727     25728     25726     25724     25727     25729
     25726     25724     25727     25730     25727     25730     25733     25734
     25727     25730     25733     25735     25727     25730     25733     25736
     25728     25727     25730     25731     25728     25727     25730     25732
     25728     25727     25730     25733     25729     25727     25730     25731
     25729     25727     25730     25732     25729     25727     25730     25733
     25730     25733     25736     25737     25730     25733     25736     25738
     25730     25733     25736     25739     25731     25730     25733     25734
     25731     25730     25733     25735     25731     25730     25733     25736
     25732     25730     25733     25734     25732     25730     25733     25735
     25732     25730     25733     25736     25733     25736     25739     25740
     25733     25736     25739     25741     25733     25736     25739     25742
     25734     25733     25736     25737     25734     25733     25736     25738
     25734     25733     25736     25739     25735     25733     25736     25737
     25735     25733     25736     25738     25735     25733     25736     25739
     25736     25739     25742     25743     25736     25739     25742     25744
     25736     25739     25742     25745     25737     25736     25739     25740
     25737     25736     25739     25741     25737     25736     25739     25742
     25738     25736     25739     25740     25738     25736     25739     25741
     25738     25736     25739     25742     25740     25739     25742     25743
     25740     25739     25742     25744     25740     25739     25742     25745
     25741     25739     25742     25743     25741     25739     25742     25744
     25741     25739     25742     25745     25746     25750     25753     25754
     25746     25750     25753     25755     25746     25750     25753     25756
     25747     25746     25748     25749     25747     25746     25750     25751
     25747     25746     25750     25752     25747     25746     25750     25753
     25748     25746     25750     25751     25748     25746     25750     25752
     25748     25746     25750     25753     25749     25748     25746     25750
     25750     25753     25756     25757     25750     25753     25756     25758
     25750     25753     25756     25759     25751     25750     25753     25754
     25751     25750     25753     25755     25751     25750     25753     25756
     25752     25750     25753     25754     25752     25750     25753     25755
     25752     25750     25753     25756     25753     25756     25759     25760
     25753     25756     25759     25761     25753     25756     25759     25762
     25754     25753     25756     25757     25754     25753     25756     25758
     25754     25753     25756     25759     25755     25753     25756     25757
     25755     25753     25756     25758     25755     25753     25756     25759
     25756     25759     25762     25763     25756     25759     25762     25764
     25756     25759     25762     25765     25757     25756     25759     25760
     25757     25756     25759     25761     25757     25756     25759     25762
     25758     25756     25759     25760     25758     25756     25759     25761
     25758     25756     25759     25762     25759     25762     25765     25766
     25759     25762     25765     25767     25759     25762     25765     25768
     25760     25759     25762     25763     25760     25759     25762     25764
     25760     25759     25762     25765     25761     25759     25762     25763
     25761     25759     25762     25764     25761     25759     25762     25765
     25762     25765     25768     25769     25762     25765     25768     25770
     25762     25765     25768     25771     25763     25762     25765     25766
     25763     25762     25765     25767     25763     25762     25765     25768
     25764     25762     25765     25766     25764     25762     25765     25767
     25764     25762     25765     25768     25765     25768     25771     25772
     25765     25768     25771     25773     25765     25768     25771     25774
     25766     25765     25768     25769     25766     25765     25768     25770
     25766     25765     25768     25771     25767     25765     25768     25769
     25767     25765     25768     25770     25767     25765     25768     25771
     25768     25771     25774     25775     25768     25771     25774     25776
     25768     25771     25774     25777     25769     25768     25771     25772
     25769     25768     25771     25773     25769     25768     25771     25774
     25770     25768     25771     25772     25770     25768     25771     25773
     25770     25768     25771     25774     25771     25774     25777     25778
     25771     25774     25777     25779     25771     25774     25777     25780
     25772     25771     25774     25775     25772     25771     25774     25776
     25772     25771     25774     25777     25773     25771     25774     25775
     25773     25771     25774     25776     25773     25771     25774     25777
     25774     25777     25780     25781     25774     25777     25780     25782
     25774     25777     25780     25783     25775     25774     25777     25778
     25775     25774     25777     25779     25775     25774     25777     25780
     25776     25774     25777     25778     25776     25774     25777     25779
     25776     25774     25777     25780     25778     25777     25780     25781
     25778     25777     25780     25782     25778     25777     25780     25783
     25779     25777     25780     25781     25779     25777     25780     25782
     25779     25777     25780     25783     25784     25786     25789     25790
     25784     25786     25789     25791     25784     25786     25789     25793
     25785     25784     25786     25787     25785     25784     25786     25788
     25785     25784     25786     25789     25786     25789     25791     25792
     25786     25789     25793     25794     25786     25789     25793     25795
     25786     25789     25793     25796     25787     25786     25789     25790
     25787     25786     25789     25791     25787     25786     25789     25793
     25788     25786     25789     25790     25788     25786     25789     25791
     25788     25786     25789     25793     25789     25793     25796     25797
     25789     25793     25796     25798     25789     25793     25796     25799
     25790     25789     25791     25792     25790     25789     25793     25794
     25790     25789     25793     25795     25790     25789     25793     25796
     25791     25789     25793     25794     25791     25789     25793     25795
     25791     25789     25793     25796     25792     25791     25789     25793
     25793     25796     25799     25800     25793     25796     25799     25801
     25793     25796     25799     25802     25794     25793     25796     25797
     25794     25793     25796     25798     25794     25793     25796     25799
     25795     25793     25796     25797     25795     25793     25796     25798
     25795     25793     25796     25799     25796     25799     25802     25803
     25796     25799     25802     25804     25796     25799     25802     25805
     25797     25796     25799     25800     25797     25796     25799     25801
     25797     25796     25799     25802     25798     25796     25799     25800
     25798     25796     25799     25801     25798     25796     25799     25802
     25799     25802     25805     25806     25799     25802     25805     25807
     25799     25802     25805     25808     25800     25799     25802     25803
     25800     25799     25802     25804     25800     25799     25802     25805
     25801     25799     25802     25803     25801     25799     25802     25804
     25801     25799     25802     25805     25802     25805     25808     25809
     25802     25805     25808     25810     25802     25805     25808     25811
     25803     25802     25805     25806     25803     25802     25805     25807
     25803     25802     25805     25808     25804     25802     25805     25806
     25804     25802     25805     25807     25804     25802     25805     25808
     25805     25808     25811     25812     25805     25808     25811     25813
     25805     25808     25811     25814     25806     25805     25808     25809
     25806     25805     25808     25810     25806     25805     25808     25811
     25807     25805     25808     25809     25807     25805     25808     25810
     25807     25805     25808     25811     25808     25811     25814     25815
     25808     25811     25814     25816     25808     25811     25814     25817
     25809     25808     25811     25812     25809     25808     25811     25813
     25809     25808     25811     25814     25810     25808     25811     25812
     25810     25808     25811     25813     25810     25808     25811     25814
     25811     25814     25817     25818     25811     25814     25817     25819
     25811     25814     25817     25820     25812     25811     25814     25815
     25812     25811     25814     25816     25812     25811     25814     25817
     25813     25811     25814     25815     25813     25811     25814     25816
     25813     25811     25814     25817     25814     25817     25820     25821
     25814     25817     25820     25822     25814     25817     25820     25823
     25815     25814     25817     25818     25815     25814     25817     25819
     25815     25814     25817     25820     25816     25814     25817     25818
     25816     25814     25817     25819     25816     25814     25817     25820
     25817     25820     25823     25824     25817     25820     25823     25825
     25817     25820     25823     25826     25818     25817     25820     25821
     25818     25817     25820     25822     25818     25817     25820     25823
     25819     25817     25820     25821     25819     25817     25820     25822
     25819     25817     25820     25823     25821     25820     25823     25824
     25821     25820     25823     25825     25821     25820     25823     25826
     25822     25820     25823     25824     25822     25820     25823     25825
     25822     25820     25823     25826     25827     25830     25833     25831
     25827     25830     25834     25835     25827     25830     25834     25836
     25827     25830     25834     25837     25828     25827     25830     25833
     25828     25827     25830     25834     25829     25827     25830     25833
     25829     25827     25830     25834     25830     25833     25831     25832
     25830     25833     25831     25840     25830     25833     25831     25843
     25830     25834     25837     25838     25830     25834     25837     25839
     25830     25834     25837     25840     25831     25833     25830     25834
     25831     25840     25837     25834     25831     25840     25837     25838
     25831     25840     25837     25839     25831     25840     25842     25879
     25831     25843     25845     25846     25831     25843     25847     25848
     25831     25843     25847     25849     25831     25843     25847     25850
     25832     25831     25840     25837     25832     25831     25840     25841
     25832     25831     25840     25842     25832     25831     25843     25844
     25832     25831     25843     25845     25832     25831     25843     25847
     25833     25830     25834     25835     25833     25830     25834     25836
     25833     25830     25834     25837     25833     25831     25840     25837
     25833     25831     25840     25841     25833     25831     25840     25842
     25833     25831     25843     25844     25833     25831     25843     25845
     25833     25831     25843     25847     25834     25837     25839     25855
     25834     25837     25840     25841     25834     25837     25840     25842
     25835     25834     25837     25838     25835     25834     25837     25839
     25835     25834     25837     25840     25836     25834     25837     25838
     25836     25834     25837     25839     25836     25834     25837     25840
     25837     25839     25855     25852     25837     25839     25855     25858
     25837     25839     25855     25859     25837     25840     25831     25843
     25837     25840     25842     25879     25838     25837     25839     25855
     25838     25837     25840     25841     25838     25837     25840     25842
     25839     25837     25840     25841     25839     25837     25840     25842
     25839     25855     25852     25853     25839     25855     25852     25854
     25839     25855     25858     25856     25839     25855     25859     25860
     25839     25855     25859     25861     25839     25855     25859     25862
     25840     25831     25843     25844     25840     25831     25843     25845
     25840     25831     25843     25847     25840     25837     25839     25855
     25840     25842     25879     25880     25840     25842     25879     25883
     25840     25842     25879     25884     25841     25840     25831     25843
     25841     25840     25842     25879     25842     25840     25831     25843
     25842     25879     25883     25881     25842     25879     25884     25885
     25842     25879     25884     25886     25842     25879     25884     25888
     25843     25847     25850     25851     25844     25843     25845     25846
     25844     25843     25847     25848     25844     25843     25847     25849
     25844     25843     25847     25850     25845     25843     25847     25848
     25845     25843     25847     25849     25845     25843     25847     25850
     25846     25845     25843     25847     25848     25847     25850     25851
     25849     25847     25850     25851     25852     25855     25858     25856
     25852     25855     25859     25860     25852     25855     25859     25861
     25852     25855     25859     25862     25853     25852     25855     25858
     25853     25852     25855     25859     25854     25852     25855     25858
     25854     25852     25855     25859     25855     25858     25856     25857
     25855     25858     25856     25866     25855     25858     25856     25870
     25855     25859     25862     25863     25855     25859     25862     25864
     25855     25859     25862     25866     25856     25858     25855     25859
     25856     25866     25862     25859     25856     25866     25862     25863
     25856     25866     25862     25864     25856     25866     25868     25869
     25856     25870     25872     25873     25856     25870     25874     25875
     25856     25870     25874     25876     25856     25870     25874     25877
     25857     25856     25866     25862     25857     25856     25866     25867
     25857     25856     25866     25868     25857     25856     25870     25871
     25857     25856     25870     25872     25857     25856     25870     25874
     25858     25855     25859     25860     25858     25855     25859     25861
     25858     25855     25859     25862     25858     25856     25866     25862
     25858     25856     25866     25867     25858     25856     25866     25868
     25858     25856     25870     25871     25858     25856     25870     25872
     25858     25856     25870     25874     25859     25862     25864     25865
     25859     25862     25866     25867     25859     25862     25866     25868
     25860     25859     25862     25863     25860     25859     25862     25864
     25860     25859     25862     25866     25861     25859     25862     25863
     25861     25859     25862     25864     25861     25859     25862     25866
     25862     25866     25856     25870     25862     25866     25868     25869
     25863     25862     25864     25865     25863     25862     25866     25867
     25863     25862     25866     25868     25864     25862     25866     25867
     25864     25862     25866     25868     25865     25864     25862     25866
     25866     25856     25870     25871     25866     25856     25870     25872
     25866     25856     25870     25874     25867     25866     25856     25870
     25867     25866     25868     25869     25868     25866     25856     25870
     25870     25874     25877     25878     25871     25870     25872     25873
     25871     25870     25874     25875     25871     25870     25874     25876
     25871     25870     25874     25877     25872     25870     25874     25875
     25872     25870     25874     25876     25872     25870     25874     25877
     25873     25872     25870     25874     25875     25874     25877     25878
     25876     25874     25877     25878     25879     25883     25881     25882
     25879     25883     25881     25891     25879     25883     25881     25898
     25879     25884     25886     25887     25879     25884     25888     25889
     25879     25884     25888     25890     25879     25884     25888     25891
     25880     25879     25883     25881     25880     25879     25884     25885
     25880     25879     25884     25886     25880     25879     25884     25888
     25881     25883     25879     25884     25881     25891     25888     25884
     25881     25891     25888     25889     25881     25891     25888     25890
     25881     25891     25893     25894     25881     25898     25900     25901
     25881     25898     25902     25903     25881     25898     25902     25904
     25881     25898     25902     25905     25882     25881     25891     25888
     25882     25881     25891     25892     25882     25881     25891     25893
     25882     25881     25898     25899     25882     25881     25898     25900
     25882     25881     25898     25902     25883     25879     25884     25885
     25883     25879     25884     25886     25883     25879     25884     25888
     25883     25881     25891     25888     25883     25881     25891     25892
     25883     25881     25891     25893     25883     25881     25898     25899
     25883     25881     25898     25900     25883     25881     25898     25902
     25884     25888     25890     25907     25884     25888     25891     25892
     25884     25888     25891     25893     25885     25884     25886     25887
     25885     25884     25888     25889     25885     25884     25888     25890
     25885     25884     25888     25891     25886     25884     25888     25889
     25886     25884     25888     25890     25886     25884     25888     25891
     25887     25886     25884     25888     25888     25890     25907     25908
     25888     25890     25907     25911     25888     25890     25907     25912
     25888     25891     25881     25898     25888     25891     25893     25894
     25889     25888     25890     25907     25889     25888     25891     25892
     25889     25888     25891     25893     25890     25888     25891     25892
     25890     25888     25891     25893     25890     25907     25911     25909
     25890     25907     25912     25913     25890     25907     25912     25914
     25890     25907     25912     25916     25891     25881     25898     25899
     25891     25881     25898     25900     25891     25881     25898     25902
     25891     25888     25890     25907     25891     25893     25894     25895
     25891     25893     25894     25896     25891     25893     25894     25897
     25892     25891     25881     25898     25892     25891     25893     25894
     25893     25891     25881     25898     25898     25902     25905     25906
     25899     25898     25900     25901     25899     25898     25902     25903
     25899     25898     25902     25904     25899     25898     25902     25905
     25900     25898     25902     25903     25900     25898     25902     25904
     25900     25898     25902     25905     25901     25900     25898     25902
     25903     25902     25905     25906     25904     25902     25905     25906
     25907     25911     25909     25910     25907     25911     25909     25919
     25907     25911     25909     25926     25907     25912     25914     25915
     25907     25912     25916     25917     25907     25912     25916     25918
     25907     25912     25916     25919     25908     25907     25911     25909
     25908     25907     25912     25913     25908     25907     25912     25914
     25908     25907     25912     25916     25909     25911     25907     25912
     25909     25919     25916     25912     25909     25919     25916     25917
     25909     25919     25916     25918     25909     25919     25921     25922
     25909     25926     25928     25929     25909     25926     25930     25931
     25909     25926     25930     25932     25909     25926     25930     25933
     25910     25909     25919     25916     25910     25909     25919     25920
     25910     25909     25919     25921     25910     25909     25926     25927
     25910     25909     25926     25928     25910     25909     25926     25930
     25911     25907     25912     25913     25911     25907     25912     25914
     25911     25907     25912     25916     25911     25909     25919     25916
     25911     25909     25919     25920     25911     25909     25919     25921
     25911     25909     25926     25927     25911     25909     25926     25928
     25911     25909     25926     25930     25912     25916     25918     25960
     25912     25916     25919     25920     25912     25916     25919     25921
     25913     25912     25914     25915     25913     25912     25916     25917
     25913     25912     25916     25918     25913     25912     25916     25919
     25914     25912     25916     25917     25914     25912     25916     25918
     25914     25912     25916     25919     25915     25914     25912     25916
     25916     25918     25960     25961     25916     25918     25960     25964
     25916     25918     25960     25965     25916     25919     25909     25926
     25916     25919     25921     25922     25917     25916     25918     25960
     25917     25916     25919     25920     25917     25916     25919     25921
     25918     25916     25919     25920     25918     25916     25919     25921
     25918     25960     25964     25962     25918     25960     25965     25966
     25918     25960     25965     25967     25918     25960     25965     25969
     25919     25909     25926     25927     25919     25909     25926     25928
     25919     25909     25926     25930     25919     25916     25918     25960
     25919     25921     25922     25923     25919     25921     25922     25924
     25919     25921     25922     25925     25920     25919     25909     25926
     25920     25919     25921     25922     25921     25919     25909     25926
     25926     25930     25933     25934     25927     25926     25928     25929
     25927     25926     25930     25931     25927     25926     25930     25932
     25927     25926     25930     25933     25928     25926     25930     25931
     25928     25926     25930     25932     25928     25926     25930     25933
     25929     25928     25926     25930     25930     25933     25934     25935
     25930     25933     25934     25938     25930     25933     25934     25939
     25931     25930     25933     25934     25932     25930     25933     25934
     25933     25934     25938     25936     25933     25934     25939     25940
     25933     25934     25939     25941     25933     25934     25939     25943
     25934     25938     25936     25937     25934     25938     25936     25947
     25934     25938     25936     25951     25934     25939     25941     25942
     25934     25939     25943     25944     25934     25939     25943     25945
     25934     25939     25943     25947     25935     25934     25938     25936
     25935     25934     25939     25940     25935     25934     25939     25941
     25935     25934     25939     25943     25936     25938     25934     25939
     25936     25947     25943     25939     25936     25947     25943     25944
     25936     25947     25943     25945     25936     25947     25949     25950
     25936     25951     25953     25954     25936     25951     25955     25956
     25936     25951     25955     25957     25936     25951     25955     25958
     25937     25936     25947     25943     25937     25936     25947     25948
     25937     25936     25947     25949     25937     25936     25951     25952
     25937     25936     25951     25953     25937     25936     25951     25955
     25938     25934     25939     25940     25938     25934     25939     25941
     25938     25934     25939     25943     25938     25936     25947     25943
     25938     25936     25947     25948     25938     25936     25947     25949
     25938     25936     25951     25952     25938     25936     25951     25953
     25938     25936     25951     25955     25939     25943     25945     25946
     25939     25943     25947     25948     25939     25943     25947     25949
     25940     25939     25941     25942     25940     25939     25943     25944
     25940     25939     25943     25945     25940     25939     25943     25947
     25941     25939     25943     25944     25941     25939     25943     25945
     25941     25939     25943     25947     25942     25941     25939     25943
     25943     25947     25936     25951     25943     25947     25949     25950
     25944     25943     25945     25946     25944     25943     25947     25948
     25944     25943     25947     25949     25945     25943     25947     25948
     25945     25943     25947     25949     25946     25945     25943     25947
     25947     25936     25951     25952     25947     25936     25951     25953
     25947     25936     25951     25955     25948     25947     25936     25951
     25948     25947     25949     25950     25949     25947     25936     25951
     25951     25955     25958     25959     25952     25951     25953     25954
     25952     25951     25955     25956     25952     25951     25955     25957
     25952     25951     25955     25958     25953     25951     25955     25956
     25953     25951     25955     25957     25953     25951     25955     25958
     25954     25953     25951     25955     25956     25955     25958     25959
     25957     25955     25958     25959     25960     25964     25962     25963
     25960     25964     25962     25972     25960     25964     25962     25976
     25960     25965     25967     25968     25960     25965     25969     25970
     25960     25965     25969     25971     25960     25965     25969     25972
     25961     25960     25964     25962     25961     25960     25965     25966
     25961     25960     25965     25967     25961     25960     25965     25969
     25962     25964     25960     25965     25962     25972     25969     25965
     25962     25972     25969     25970     25962     25972     25969     25971
     25962     25972     25974     25975     25962     25976     25979     25980
     25963     25962     25972     25969     25963     25962     25972     25973
     25963     25962     25972     25974     25963     25962     25976     25977
     25963     25962     25976     25978     25963     25962     25976     25979
     25964     25960     25965     25966     25964     25960     25965     25967
     25964     25960     25965     25969     25964     25962     25972     25969
     25964     25962     25972     25973     25964     25962     25972     25974
     25964     25962     25976     25977     25964     25962     25976     25978
     25964     25962     25976     25979     25965     25969     25971     25981
     25965     25969     25972     25973     25965     25969     25972     25974
     25966     25965     25967     25968     25966     25965     25969     25970
     25966     25965     25969     25971     25966     25965     25969     25972
     25967     25965     25969     25970     25967     25965     25969     25971
     25967     25965     25969     25972     25968     25967     25965     25969
     25969     25971     25981     25982     25969     25971     25981     25985
     25969     25971     25981     25986     25969     25972     25962     25976
     25969     25972     25974     25975     25970     25969     25971     25981
     25970     25969     25972     25973     25970     25969     25972     25974
     25971     25969     25972     25973     25971     25969     25972     25974
     25971     25981     25985     25983     25971     25981     25986     25987
     25971     25981     25986     25988     25971     25981     25986     25989
     25972     25962     25976     25977     25972     25962     25976     25978
     25972     25962     25976     25979     25972     25969     25971     25981
     25973     25972     25962     25976     25973     25972     25974     25975
     25974     25972     25962     25976     25977     25976     25979     25980
     25978     25976     25979     25980     25981     25985     25983     25984
     25981     25985     25983     25992     25981     25985     25983     25996
     25981     25986     25988     26001     25981     25986     25989     25990
     25981     25986     25989     25991     25981     25986     25989     25992
     25982     25981     25985     25983     25982     25981     25986     25987
     25982     25981     25986     25988     25982     25981     25986     25989
     25983     25985     25981     25986     25983     25992     25989     25986
     25983     25992     25989     25990     25983     25992     25989     25991
     25983     25992     25994     25995     25983     25996     25999     26000
     25984     25983     25992     25989     25984     25983     25992     25993
     25984     25983     25992     25994     25984     25983     25996     25997
     25984     25983     25996     25998     25984     25983     25996     25999
     25985     25981     25986     25987     25985     25981     25986     25988
     25985     25981     25986     25989     25985     25983     25992     25989
     25985     25983     25992     25993     25985     25983     25992     25994
     25985     25983     25996     25997     25985     25983     25996     25998
     25985     25983     25996     25999     25986     25988     26001     26002
     25986     25988     26001     26005     25986     25988     26001     26006
     25986     25989     25991     26044     25986     25989     25992     25993
     25986     25989     25992     25994     25987     25986     25988     26001
     25987     25986     25989     25990     25987     25986     25989     25991
     25987     25986     25989     25992     25988     25986     25989     25990
     25988     25986     25989     25991     25988     25986     25989     25992
     25988     26001     26005     26003     25988     26001     26006     26007
     25988     26001     26006     26008     25988     26001     26006     26009
     25989     25986     25988     26001     25989     25991     26044     26045
     25989     25991     26044     26048     25989     25991     26044     26049
     25989     25992     25983     25996     25989     25992     25994     25995
     25990     25989     25991     26044     25990     25989     25992     25993
     25990     25989     25992     25994     25991     25989     25992     25993
     25991     25989     25992     25994     25991     26044     26048     26046
     25991     26044     26049     26050     25991     26044     26049     26051
     25991     26044     26049     26053     25992     25983     25996     25997
     25992     25983     25996     25998     25992     25983     25996     25999
     25992     25989     25991     26044     25993     25992     25983     25996
     25993     25992     25994     25995     25994     25992     25983     25996
     25997     25996     25999     26000     25998     25996     25999     26000
     26001     26005     26003     26004     26001     26005     26003     26013
     26001     26005     26003     26017     26001     26006     26008     26022
     26001     26006     26009     26010     26001     26006     26009     26011
     26001     26006     26009     26013     26002     26001     26005     26003
     26002     26001     26006     26007     26002     26001     26006     26008
     26002     26001     26006     26009     26003     26005     26001     26006
     26003     26013     26009     26006     26003     26013     26009     26010
     26003     26013     26009     26011     26003     26013     26015     26016
     26003     26017     26020     26021     26004     26003     26013     26009
     26004     26003     26013     26014     26004     26003     26013     26015
     26004     26003     26017     26018     26004     26003     26017     26019
     26004     26003     26017     26020     26005     26001     26006     26007
     26005     26001     26006     26008     26005     26001     26006     26009
     26005     26003     26013     26009     26005     26003     26013     26014
     26005     26003     26013     26015     26005     26003     26017     26018
     26005     26003     26017     26019     26005     26003     26017     26020
     26006     26008     26022     26023     26006     26008     26022     26026
     26006     26008     26022     26027     26006     26009     26011     26012
     26006     26009     26013     26014     26006     26009     26013     26015
     26007     26006     26008     26022     26007     26006     26009     26010
     26007     26006     26009     26011     26007     26006     26009     26013
     26008     26006     26009     26010     26008     26006     26009     26011
     26008     26006     26009     26013     26008     26022     26026     26024
     26008     26022     26027     26028     26008     26022     26027     26029
     26008     26022     26027     26031     26009     26006     26008     26022
     26009     26013     26003     26017     26009     26013     26015     26016
     26010     26009     26011     26012     26010     26009     26013     26014
     26010     26009     26013     26015     26011     26009     26013     26014
     26011     26009     26013     26015     26012     26011     26009     26013
     26013     26003     26017     26018     26013     26003     26017     26019
     26013     26003     26017     26020     26014     26013     26003     26017
     26014     26013     26015     26016     26015     26013     26003     26017
     26018     26017     26020     26021     26019     26017     26020     26021
     26022     26026     26024     26025     26022     26026     26024     26035
     26022     26026     26024     26039     26022     26027     26029     26030
     26022     26027     26031     26032     26022     26027     26031     26033
     26022     26027     26031     26035     26023     26022     26026     26024
     26023     26022     26027     26028     26023     26022     26027     26029
     26023     26022     26027     26031     26024     26026     26022     26027
     26024     26035     26031     26027     26024     26035     26031     26032
     26024     26035     26031     26033     26024     26035     26037     26038
     26024     26039     26042     26043     26025     26024     26035     26031
     26025     26024     26035     26036     26025     26024     26035     26037
     26025     26024     26039     26040     26025     26024     26039     26041
     26025     26024     26039     26042     26026     26022     26027     26028
     26026     26022     26027     26029     26026     26022     26027     26031
     26026     26024     26035     26031     26026     26024     26035     26036
     26026     26024     26035     26037     26026     26024     26039     26040
     26026     26024     26039     26041     26026     26024     26039     26042
     26027     26031     26033     26034     26027     26031     26035     26036
     26027     26031     26035     26037     26028     26027     26029     26030
     26028     26027     26031     26032     26028     26027     26031     26033
     26028     26027     26031     26035     26029     26027     26031     26032
     26029     26027     26031     26033     26029     26027     26031     26035
     26030     26029     26027     26031     26031     26035     26024     26039
     26031     26035     26037     26038     26032     26031     26033     26034
     26032     26031     26035     26036     26032     26031     26035     26037
     26033     26031     26035     26036     26033     26031     26035     26037
     26034     26033     26031     26035     26035     26024     26039     26040
     26035     26024     26039     26041     26035     26024     26039     26042
     26036     26035     26024     26039     26036     26035     26037     26038
     26037     26035     26024     26039     26040     26039     26042     26043
     26041     26039     26042     26043     26044     26048     26046     26047
     26044     26048     26046     26056     26044     26048     26046     26060
     26044     26049     26051     26052     26044     26049     26053     26054
     26044     26049     26053     26055     26044     26049     26053     26056
     26045     26044     26048     26046     26045     26044     26049     26050
     26045     26044     26049     26051     26045     26044     26049     26053
     26046     26048     26044     26049     26046     26056     26053     26049
     26046     26056     26053     26054     26046     26056     26053     26055
     26046     26056     26058     26059     26046     26060     26063     26064
     26047     26046     26056     26053     26047     26046     26056     26057
     26047     26046     26056     26058     26047     26046     26060     26061
     26047     26046     26060     26062     26047     26046     26060     26063
     26048     26044     26049     26050     26048     26044     26049     26051
     26048     26044     26049     26053     26048     26046     26056     26053
     26048     26046     26056     26057     26048     26046     26056     26058
     26048     26046     26060     26061     26048     26046     26060     26062
     26048     26046     26060     26063     26049     26053     26055     26065
     26049     26053     26056     26057     26049     26053     26056     26058
     26050     26049     26051     26052     26050     26049     26053     26054
     26050     26049     26053     26055     26050     26049     26053     26056
     26051     26049     26053     26054     26051     26049     26053     26055
     26051     26049     26053     26056     26052     26051     26049     26053
     26053     26055     26065     26066     26053     26055     26065     26069
     26053     26055     26065     26070     26053     26056     26046     26060
     26053     26056     26058     26059     26054     26053     26055     26065
     26054     26053     26056     26057     26054     26053     26056     26058
     26055     26053     26056     26057     26055     26053     26056     26058
     26055     26065     26069     26067     26055     26065     26070     26071
     26055     26065     26070     26072     26055     26065     26070     26080
     26056     26046     26060     26061     26056     26046     26060     26062
     26056     26046     26060     26063     26056     26053     26055     26065
     26057     26056     26046     26060     26057     26056     26058     26059
     26058     26056     26046     26060     26061     26060     26063     26064
     26062     26060     26063     26064     26065     26069     26067     26068
     26065     26069     26067     26083     26065     26069     26067     26087
     26065     26070     26072     26073     26065     26070     26072     26074
     26065     26070     26080     26081     26065     26070     26080     26082
     26065     26070     26080     26083     26066     26065     26069     26067
     26066     26065     26070     26071     26066     26065     26070     26072
     26066     26065     26070     26080     26067     26069     26065     26070
     26067     26083     26080     26070     26067     26083     26080     26081
     26067     26083     26080     26082     26067     26083     26085     26086
     26067     26087     26090     26091     26068     26067     26083     26080
     26068     26067     26083     26084     26068     26067     26083     26085
     26068     26067     26087     26088     26068     26067     26087     26089
     26068     26067     26087     26090     26069     26065     26070     26071
     26069     26065     26070     26072     26069     26065     26070     26080
     26069     26067     26083     26080     26069     26067     26083     26084
     26069     26067     26083     26085     26069     26067     26087     26088
     26069     26067     26087     26089     26069     26067     26087     26090
     26070     26072     26074     26075     26070     26072     26074     26076
     26070     26080     26082     26092     26070     26080     26083     26084
     26070     26080     26083     26085     26071     26070     26072     26073
     26071     26070     26072     26074     26071     26070     26080     26081
     26071     26070     26080     26082     26071     26070     26080     26083
     26072     26070     26080     26081     26072     26070     26080     26082
     26072     26070     26080     26083     26072     26074     26076     26077
     26072     26074     26076     26078     26072     26074     26076     26079
     26073     26072     26070     26080     26073     26072     26074     26075
     26073     26072     26074     26076     26074     26072     26070     26080
     26075     26074     26076     26077     26075     26074     26076     26078
     26075     26074     26076     26079     26080     26082     26092     26093
     26080     26082     26092     26096     26080     26082     26092     26097
     26080     26083     26067     26087     26080     26083     26085     26086
     26081     26080     26082     26092     26081     26080     26083     26084
     26081     26080     26083     26085     26082     26080     26083     26084
     26082     26080     26083     26085     26082     26092     26096     26094
     26082     26092     26097     26098     26082     26092     26097     26099
     26082     26092     26097     26100     26083     26067     26087     26088
     26083     26067     26087     26089     26083     26067     26087     26090
     26083     26080     26082     26092     26084     26083     26067     26087
     26084     26083     26085     26086     26085     26083     26067     26087
     26088     26087     26090     26091     26089     26087     26090     26091
     26092     26096     26094     26095     26092     26096     26094     26104
     26092     26096     26094     26108     26092     26097     26099     26113
     26092     26097     26100     26101     26092     26097     26100     26102
     26092     26097     26100     26104     26093     26092     26096     26094
     26093     26092     26097     26098     26093     26092     26097     26099
     26093     26092     26097     26100     26094     26096     26092     26097
     26094     26104     26100     26097     26094     26104     26100     26101
     26094     26104     26100     26102     26094     26104     26106     26107
     26094     26108     26111     26112     26095     26094     26104     26100
     26095     26094     26104     26105     26095     26094     26104     26106
     26095     26094     26108     26109     26095     26094     26108     26110
     26095     26094     26108     26111     26096     26092     26097     26098
     26096     26092     26097     26099     26096     26092     26097     26100
     26096     26094     26104     26100     26096     26094     26104     26105
     26096     26094     26104     26106     26096     26094     26108     26109
     26096     26094     26108     26110     26096     26094     26108     26111
     26097     26099     26113     26114     26097     26099     26113     26117
     26097     26099     26113     26118     26097     26100     26102     26103
     26097     26100     26104     26105     26097     26100     26104     26106
     26098     26097     26099     26113     26098     26097     26100     26101
     26098     26097     26100     26102     26098     26097     26100     26104
     26099     26097     26100     26101     26099     26097     26100     26102
     26099     26097     26100     26104     26099     26113     26117     26115
     26099     26113     26118     26119     26099     26113     26118     26120
     26099     26113     26118     26121     26100     26097     26099     26113
     26100     26104     26094     26108     26100     26104     26106     26107
     26101     26100     26102     26103     26101     26100     26104     26105
     26101     26100     26104     26106     26102     26100     26104     26105
     26102     26100     26104     26106     26103     26102     26100     26104
     26104     26094     26108     26109     26104     26094     26108     26110
     26104     26094     26108     26111     26105     26104     26094     26108
     26105     26104     26106     26107     26106     26104     26094     26108
     26109     26108     26111     26112     26110     26108     26111     26112
     26113     26117     26115     26116     26113     26117     26115     26125
     26113     26117     26115     26129     26113     26118     26120     26133
     26113     26118     26121     26122     26113     26118     26121     26123
     26113     26118     26121     26125     26114     26113     26117     26115
     26114     26113     26118     26119     26114     26113     26118     26120
     26114     26113     26118     26121     26115     26117     26113     26118
     26115     26125     26121     26118     26115     26125     26121     26122
     26115     26125     26121     26123     26115     26125     26127     26128
     26116     26115     26125     26121     26116     26115     26125     26126
     26116     26115     26125     26127     26116     26115     26129     26130
     26116     26115     26129     26131     26116     26115     26129     26132
     26117     26113     26118     26119     26117     26113     26118     26120
     26117     26113     26118     26121     26117     26115     26125     26121
     26117     26115     26125     26126     26117     26115     26125     26127
     26117     26115     26129     26130     26117     26115     26129     26131
     26117     26115     26129     26132     26118     26120     26133     26134
     26118     26120     26133     26137     26118     26120     26133     26138
     26118     26121     26123     26124     26118     26121     26125     26126
     26118     26121     26125     26127     26119     26118     26120     26133
     26119     26118     26121     26122     26119     26118     26121     26123
     26119     26118     26121     26125     26120     26118     26121     26122
     26120     26118     26121     26123     26120     26118     26121     26125
     26120     26133     26137     26135     26120     26133     26138     26139
     26120     26133     26138     26140     26120     26133     26138     26141
     26121     26118     26120     26133     26121     26125     26115     26129
     26121     26125     26127     26128     26122     26121     26123     26124
     26122     26121     26125     26126     26122     26121     26125     26127
     26123     26121     26125     26126     26123     26121     26125     26127
     26124     26123     26121     26125     26125     26115     26129     26130
     26125     26115     26129     26131     26125     26115     26129     26132
     26126     26125     26115     26129     26126     26125     26127     26128
     26127     26125     26115     26129     26133     26137     26135     26136
     26133     26137     26135     26144     26133     26137     26135     26148
     26133     26138     26140     26152     26133     26138     26141     26142
     26133     26138     26141     26143     26133     26138     26141     26144
     26134     26133     26137     26135     26134     26133     26138     26139
     26134     26133     26138     26140     26134     26133     26138     26141
     26135     26137     26133     26138     26135     26144     26141     26138
     26135     26144     26141     26142     26135     26144     26141     26143
     26135     26144     26146     26147     26136     26135     26144     26141
     26136     26135     26144     26145     26136     26135     26144     26146
     26136     26135     26148     26149     26136     26135     26148     26150
     26136     26135     26148     26151     26137     26133     26138     26139
     26137     26133     26138     26140     26137     26133     26138     26141
     26137     26135     26144     26141     26137     26135     26144     26145
     26137     26135     26144     26146     26137     26135     26148     26149
     26137     26135     26148     26150     26137     26135     26148     26151
     26138     26140     26152     26153     26138     26140     26152     26156
     26138     26140     26152     26157     26138     26141     26143     26180
     26138     26141     26144     26145     26138     26141     26144     26146
     26139     26138     26140     26152     26139     26138     26141     26142
     26139     26138     26141     26143     26139     26138     26141     26144
     26140     26138     26141     26142     26140     26138     26141     26143
     26140     26138     26141     26144     26140     26152     26156     26154
     26140     26152     26157     26158     26140     26152     26157     26159
     26140     26152     26157     26167     26141     26138     26140     26152
     26141     26143     26180     26181     26141     26143     26180     26184
     26141     26143     26180     26185     26141     26144     26135     26148
     26141     26144     26146     26147     26142     26141     26143     26180
     26142     26141     26144     26145     26142     26141     26144     26146
     26143     26141     26144     26145     26143     26141     26144     26146
     26143     26180     26184     26182     26143     26180     26185     26186
     26143     26180     26185     26187     26143     26180     26185     26195
     26144     26135     26148     26149     26144     26135     26148     26150
     26144     26135     26148     26151     26144     26141     26143     26180
     26145     26144     26135     26148     26145     26144     26146     26147
     26146     26144     26135     26148     26152     26156     26154     26155
     26152     26156     26154     26171     26152     26156     26154     26175
     26152     26157     26159     26160     26152     26157     26159     26161
     26152     26157     26167     26168     26152     26157     26167     26169
     26152     26157     26167     26171     26153     26152     26156     26154
     26153     26152     26157     26158     26153     26152     26157     26159
     26153     26152     26157     26167     26154     26156     26152     26157
     26154     26171     26167     26157     26154     26171     26167     26168
     26154     26171     26167     26169     26154     26171     26173     26174
     26154     26175     26178     26179     26155     26154     26171     26167
     26155     26154     26171     26172     26155     26154     26171     26173
     26155     26154     26175     26176     26155     26154     26175     26177
     26155     26154     26175     26178     26156     26152     26157     26158
     26156     26152     26157     26159     26156     26152     26157     26167
     26156     26154     26171     26167     26156     26154     26171     26172
     26156     26154     26171     26173     26156     26154     26175     26176
     26156     26154     26175     26177     26156     26154     26175     26178
     26157     26159     26161     26162     26157     26159     26161     26163
     26157     26167     26169     26170     26157     26167     26171     26172
     26157     26167     26171     26173     26158     26157     26159     26160
     26158     26157     26159     26161     26158     26157     26167     26168
     26158     26157     26167     26169     26158     26157     26167     26171
     26159     26157     26167     26168     26159     26157     26167     26169
     26159     26157     26167     26171     26159     26161     26163     26164
     26159     26161     26163     26165     26159     26161     26163     26166
     26160     26159     26157     26167     26160     26159     26161     26162
     26160     26159     26161     26163     26161     26159     26157     26167
     26162     26161     26163     26164     26162     26161     26163     26165
     26162     26161     26163     26166     26167     26171     26154     26175
     26167     26171     26173     26174     26168     26167     26169     26170
     26168     26167     26171     26172     26168     26167     26171     26173
     26169     26167     26171     26172     26169     26167     26171     26173
     26170     26169     26167     26171     26171     26154     26175     26176
     26171     26154     26175     26177     26171     26154     26175     26178
     26172     26171     26154     26175     26172     26171     26173     26174
     26173     26171     26154     26175     26176     26175     26178     26179
     26177     26175     26178     26179     26180     26184     26182     26183
     26180     26184     26182     26198     26180     26184     26182     26202
     26180     26185     26187     26188     26180     26185     26187     26189
     26180     26185     26195     26196     26180     26185     26195     26197
     26180     26185     26195     26198     26181     26180     26184     26182
     26181     26180     26185     26186     26181     26180     26185     26187
     26181     26180     26185     26195     26182     26184     26180     26185
     26182     26198     26195     26185     26182     26198     26195     26196
     26182     26198     26195     26197     26182     26198     26200     26201
     26182     26202     26205     26206     26183     26182     26198     26195
     26183     26182     26198     26199     26183     26182     26198     26200
     26183     26182     26202     26203     26183     26182     26202     26204
     26183     26182     26202     26205     26184     26180     26185     26186
     26184     26180     26185     26187     26184     26180     26185     26195
     26184     26182     26198     26195     26184     26182     26198     26199
     26184     26182     26198     26200     26184     26182     26202     26203
     26184     26182     26202     26204     26184     26182     26202     26205
     26185     26187     26189     26190     26185     26187     26189     26191
     26185     26195     26197     26207     26185     26195     26198     26199
     26185     26195     26198     26200     26186     26185     26187     26188
     26186     26185     26187     26189     26186     26185     26195     26196
     26186     26185     26195     26197     26186     26185     26195     26198
     26187     26185     26195     26196     26187     26185     26195     26197
     26187     26185     26195     26198     26187     26189     26191     26192
     26187     26189     26191     26193     26187     26189     26191     26194
     26188     26187     26185     26195     26188     26187     26189     26190
     26188     26187     26189     26191     26189     26187     26185     26195
     26190     26189     26191     26192     26190     26189     26191     26193
     26190     26189     26191     26194     26195     26197     26207     26208
     26195     26197     26207     26211     26195     26197     26207     26212
     26195     26198     26182     26202     26195     26198     26200     26201
     26196     26195     26197     26207     26196     26195     26198     26199
     26196     26195     26198     26200     26197     26195     26198     26199
     26197     26195     26198     26200     26197     26207     26211     26209
     26197     26207     26212     26213     26197     26207     26212     26214
     26197     26207     26212     26215     26198     26182     26202     26203
     26198     26182     26202     26204     26198     26182     26202     26205
     26198     26195     26197     26207     26199     26198     26182     26202
     26199     26198     26200     26201     26200     26198     26182     26202
     26203     26202     26205     26206     26204     26202     26205     26206
     26207     26211     26209     26210     26207     26211     26209     26219
     26207     26211     26209     26223     26207     26212     26214     26228
     26207     26212     26215     26216     26207     26212     26215     26217
     26207     26212     26215     26219     26208     26207     26211     26209
     26208     26207     26212     26213     26208     26207     26212     26214
     26208     26207     26212     26215     26209     26211     26207     26212
     26209     26219     26215     26212     26209     26219     26215     26216
     26209     26219     26215     26217     26209     26219     26221     26222
     26209     26223     26226     26227     26210     26209     26219     26215
     26210     26209     26219     26220     26210     26209     26219     26221
     26210     26209     26223     26224     26210     26209     26223     26225
     26210     26209     26223     26226     26211     26207     26212     26213
     26211     26207     26212     26214     26211     26207     26212     26215
     26211     26209     26219     26215     26211     26209     26219     26220
     26211     26209     26219     26221     26211     26209     26223     26224
     26211     26209     26223     26225     26211     26209     26223     26226
     26212     26214     26228     26229     26212     26214     26228     26232
     26212     26214     26228     26233     26212     26215     26217     26218
     26212     26215     26219     26220     26212     26215     26219     26221
     26213     26212     26214     26228     26213     26212     26215     26216
     26213     26212     26215     26217     26213     26212     26215     26219
     26214     26212     26215     26216     26214     26212     26215     26217
     26214     26212     26215     26219     26214     26228     26232     26230
     26214     26228     26233     26234     26214     26228     26233     26235
     26214     26228     26233     26236     26215     26212     26214     26228
     26215     26219     26209     26223     26215     26219     26221     26222
     26216     26215     26217     26218     26216     26215     26219     26220
     26216     26215     26219     26221     26217     26215     26219     26220
     26217     26215     26219     26221     26218     26217     26215     26219
     26219     26209     26223     26224     26219     26209     26223     26225
     26219     26209     26223     26226     26220     26219     26209     26223
     26220     26219     26221     26222     26221     26219     26209     26223
     26224     26223     26226     26227     26225     26223     26226     26227
     26228     26232     26230     26231     26228     26232     26230     26240
     26228     26232     26230     26244     26228     26233     26235     26248
     26228     26233     26236     26237     26228     26233     26236     26238
     26228     26233     26236     26240     26229     26228     26232     26230
     26229     26228     26233     26234     26229     26228     26233     26235
     26229     26228     26233     26236     26230     26232     26228     26233
     26230     26240     26236     26233     26230     26240     26236     26237
     26230     26240     26236     26238     26230     26240     26242     26243
     26231     26230     26240     26236     26231     26230     26240     26241
     26231     26230     26240     26242     26231     26230     26244     26245
     26231     26230     26244     26246     26231     26230     26244     26247
     26232     26228     26233     26234     26232     26228     26233     26235
     26232     26228     26233     26236     26232     26230     26240     26236
     26232     26230     26240     26241     26232     26230     26240     26242
     26232     26230     26244     26245     26232     26230     26244     26246
     26232     26230     26244     26247     26233     26235     26248     26249
     26233     26235     26248     26252     26233     26235     26248     26253
     26233     26236     26238     26239     26233     26236     26240     26241
     26233     26236     26240     26242     26234     26233     26235     26248
     26234     26233     26236     26237     26234     26233     26236     26238
     26234     26233     26236     26240     26235     26233     26236     26237
     26235     26233     26236     26238     26235     26233     26236     26240
     26235     26248     26252     26250     26235     26248     26253     26254
     26235     26248     26253     26255     26235     26248     26253     26256
     26236     26233     26235     26248     26236     26240     26230     26244
     26236     26240     26242     26243     26237     26236     26238     26239
     26237     26236     26240     26241     26237     26236     26240     26242
     26238     26236     26240     26241     26238     26236     26240     26242
     26239     26238     26236     26240     26240     26230     26244     26245
     26240     26230     26244     26246     26240     26230     26244     26247
     26241     26240     26230     26244     26241     26240     26242     26243
     26242     26240     26230     26244     26248     26252     26250     26251
     26248     26252     26250     26259     26248     26252     26250     26263
     26248     26253     26255     26267     26248     26253     26256     26257
     26248     26253     26256     26258     26248     26253     26256     26259
     26249     26248     26252     26250     26249     26248     26253     26254
     26249     26248     26253     26255     26249     26248     26253     26256
     26250     26252     26248     26253     26250     26259     26256     26253
     26250     26259     26256     26257     26250     26259     26256     26258
     26250     26259     26261     26262     26251     26250     26259     26256
     26251     26250     26259     26260     26251     26250     26259     26261
     26251     26250     26263     26264     26251     26250     26263     26265
     26251     26250     26263     26266     26252     26248     26253     26254
     26252     26248     26253     26255     26252     26248     26253     26256
     26252     26250     26259     26256     26252     26250     26259     26260
     26252     26250     26259     26261     26252     26250     26263     26264
     26252     26250     26263     26265     26252     26250     26263     26266
     26253     26255     26267     26268     26253     26255     26267     26271
     26253     26255     26267     26272     26253     26256     26258     26295
     26253     26256     26259     26260     26253     26256     26259     26261
     26254     26253     26255     26267     26254     26253     26256     26257
     26254     26253     26256     26258     26254     26253     26256     26259
     26255     26253     26256     26257     26255     26253     26256     26258
     26255     26253     26256     26259     26255     26267     26271     26269
     26255     26267     26272     26273     26255     26267     26272     26274
     26255     26267     26272     26282     26256     26253     26255     26267
     26256     26258     26295     26296     26256     26258     26295     26299
     26256     26258     26295     26300     26256     26259     26250     26263
     26256     26259     26261     26262     26257     26256     26258     26295
     26257     26256     26259     26260     26257     26256     26259     26261
     26258     26256     26259     26260     26258     26256     26259     26261
     26258     26295     26299     26297     26258     26295     26300     26301
     26258     26295     26300     26302     26258     26295     26300     26310
     26259     26250     26263     26264     26259     26250     26263     26265
     26259     26250     26263     26266     26259     26256     26258     26295
     26260     26259     26250     26263     26260     26259     26261     26262
     26261     26259     26250     26263     26267     26271     26269     26270
     26267     26271     26269     26286     26267     26271     26269     26290
     26267     26272     26274     26275     26267     26272     26274     26276
     26267     26272     26282     26283     26267     26272     26282     26284
     26267     26272     26282     26286     26268     26267     26271     26269
     26268     26267     26272     26273     26268     26267     26272     26274
     26268     26267     26272     26282     26269     26271     26267     26272
     26269     26286     26282     26272     26269     26286     26282     26283
     26269     26286     26282     26284     26269     26286     26288     26289
     26269     26290     26293     26294     26270     26269     26286     26282
     26270     26269     26286     26287     26270     26269     26286     26288
     26270     26269     26290     26291     26270     26269     26290     26292
     26270     26269     26290     26293     26271     26267     26272     26273
     26271     26267     26272     26274     26271     26267     26272     26282
     26271     26269     26286     26282     26271     26269     26286     26287
     26271     26269     26286     26288     26271     26269     26290     26291
     26271     26269     26290     26292     26271     26269     26290     26293
     26272     26274     26276     26277     26272     26274     26276     26278
     26272     26282     26284     26285     26272     26282     26286     26287
     26272     26282     26286     26288     26273     26272     26274     26275
     26273     26272     26274     26276     26273     26272     26282     26283
     26273     26272     26282     26284     26273     26272     26282     26286
     26274     26272     26282     26283     26274     26272     26282     26284
     26274     26272     26282     26286     26274     26276     26278     26279
     26274     26276     26278     26280     26274     26276     26278     26281
     26275     26274     26272     26282     26275     26274     26276     26277
     26275     26274     26276     26278     26276     26274     26272     26282
     26277     26276     26278     26279     26277     26276     26278     26280
     26277     26276     26278     26281     26282     26286     26269     26290
     26282     26286     26288     26289     26283     26282     26284     26285
     26283     26282     26286     26287     26283     26282     26286     26288
     26284     26282     26286     26287     26284     26282     26286     26288
     26285     26284     26282     26286     26286     26269     26290     26291
     26286     26269     26290     26292     26286     26269     26290     26293
     26287     26286     26269     26290     26287     26286     26288     26289
     26288     26286     26269     26290     26291     26290     26293     26294
     26292     26290     26293     26294     26295     26299     26297     26298
     26295     26299     26297     26313     26295     26299     26297     26317
     26295     26300     26302     26303     26295     26300     26302     26304
     26295     26300     26310     26311     26295     26300     26310     26312
     26295     26300     26310     26313     26296     26295     26299     26297
     26296     26295     26300     26301     26296     26295     26300     26302
     26296     26295     26300     26310     26297     26299     26295     26300
     26297     26313     26310     26300     26297     26313     26310     26311
     26297     26313     26310     26312     26297     26313     26315     26316
     26297     26317     26320     26321     26298     26297     26313     26310
     26298     26297     26313     26314     26298     26297     26313     26315
     26298     26297     26317     26318     26298     26297     26317     26319
     26298     26297     26317     26320     26299     26295     26300     26301
     26299     26295     26300     26302     26299     26295     26300     26310
     26299     26297     26313     26310     26299     26297     26313     26314
     26299     26297     26313     26315     26299     26297     26317     26318
     26299     26297     26317     26319     26299     26297     26317     26320
     26300     26302     26304     26305     26300     26302     26304     26306
     26300     26310     26312     26322     26300     26310     26313     26314
     26300     26310     26313     26315     26301     26300     26302     26303
     26301     26300     26302     26304     26301     26300     26310     26311
     26301     26300     26310     26312     26301     26300     26310     26313
     26302     26300     26310     26311     26302     26300     26310     26312
     26302     26300     26310     26313     26302     26304     26306     26307
     26302     26304     26306     26308     26302     26304     26306     26309
     26303     26302     26300     26310     26303     26302     26304     26305
     26303     26302     26304     26306     26304     26302     26300     26310
     26305     26304     26306     26307     26305     26304     26306     26308
     26305     26304     26306     26309     26310     26312     26322     26323
     26310     26312     26322     26326     26310     26312     26322     26327
     26310     26313     26297     26317     26310     26313     26315     26316
     26311     26310     26312     26322     26311     26310     26313     26314
     26311     26310     26313     26315     26312     26310     26313     26314
     26312     26310     26313     26315     26312     26322     26326     26324
     26312     26322     26327     26328     26312     26322     26327     26329
     26312     26322     26327     26330     26313     26297     26317     26318
     26313     26297     26317     26319     26313     26297     26317     26320
     26313     26310     26312     26322     26314     26313     26297     26317
     26314     26313     26315     26316     26315     26313     26297     26317
     26318     26317     26320     26321     26319     26317     26320     26321
     26322     26326     26324     26325     26322     26326     26324     26334
     26322     26326     26324     26338     26322     26327     26329     26343
     26322     26327     26330     26331     26322     26327     26330     26332
     26322     26327     26330     26334     26323     26322     26326     26324
     26323     26322     26327     26328     26323     26322     26327     26329
     26323     26322     26327     26330     26324     26326     26322     26327
     26324     26334     26330     26327     26324     26334     26330     26331
     26324     26334     26330     26332     26324     26334     26336     26337
     26324     26338     26341     26342     26325     26324     26334     26330
     26325     26324     26334     26335     26325     26324     26334     26336
     26325     26324     26338     26339     26325     26324     26338     26340
     26325     26324     26338     26341     26326     26322     26327     26328
     26326     26322     26327     26329     26326     26322     26327     26330
     26326     26324     26334     26330     26326     26324     26334     26335
     26326     26324     26334     26336     26326     26324     26338     26339
     26326     26324     26338     26340     26326     26324     26338     26341
     26327     26329     26343     26344     26327     26329     26343     26347
     26327     26329     26343     26348     26327     26330     26332     26333
     26327     26330     26334     26335     26327     26330     26334     26336
     26328     26327     26329     26343     26328     26327     26330     26331
     26328     26327     26330     26332     26328     26327     26330     26334
     26329     26327     26330     26331     26329     26327     26330     26332
     26329     26327     26330     26334     26329     26343     26347     26345
     26329     26343     26348     26349     26329     26343     26348     26350
     26329     26343     26348     26351     26330     26327     26329     26343
     26330     26334     26324     26338     26330     26334     26336     26337
     26331     26330     26332     26333     26331     26330     26334     26335
     26331     26330     26334     26336     26332     26330     26334     26335
     26332     26330     26334     26336     26333     26332     26330     26334
     26334     26324     26338     26339     26334     26324     26338     26340
     26334     26324     26338     26341     26335     26334     26324     26338
     26335     26334     26336     26337     26336     26334     26324     26338
     26339     26338     26341     26342     26340     26338     26341     26342
     26343     26347     26345     26346     26343     26347     26345     26355
     26343     26347     26345     26359     26343     26348     26350     26363
     26343     26348     26351     26352     26343     26348     26351     26353
     26343     26348     26351     26355     26344     26343     26347     26345
     26344     26343     26348     26349     26344     26343     26348     26350
     26344     26343     26348     26351     26345     26347     26343     26348
     26345     26355     26351     26348     26345     26355     26351     26352
     26345     26355     26351     26353     26345     26355     26357     26358
     26346     26345     26355     26351     26346     26345     26355     26356
     26346     26345     26355     26357     26346     26345     26359     26360
     26346     26345     26359     26361     26346     26345     26359     26362
     26347     26343     26348     26349     26347     26343     26348     26350
     26347     26343     26348     26351     26347     26345     26355     26351
     26347     26345     26355     26356     26347     26345     26355     26357
     26347     26345     26359     26360     26347     26345     26359     26361
     26347     26345     26359     26362     26348     26350     26363     26364
     26348     26350     26363     26367     26348     26350     26363     26368
     26348     26351     26353     26354     26348     26351     26355     26356
     26348     26351     26355     26357     26349     26348     26350     26363
     26349     26348     26351     26352     26349     26348     26351     26353
     26349     26348     26351     26355     26350     26348     26351     26352
     26350     26348     26351     26353     26350     26348     26351     26355
     26350     26363     26367     26365     26350     26363     26368     26369
     26350     26363     26368     26370     26350     26363     26368     26371
     26351     26348     26350     26363     26351     26355     26345     26359
     26351     26355     26357     26358     26352     26351     26353     26354
     26352     26351     26355     26356     26352     26351     26355     26357
     26353     26351     26355     26356     26353     26351     26355     26357
     26354     26353     26351     26355     26355     26345     26359     26360
     26355     26345     26359     26361     26355     26345     26359     26362
     26356     26355     26345     26359     26356     26355     26357     26358
     26357     26355     26345     26359     26363     26367     26365     26366
     26363     26367     26365     26374     26363     26367     26365     26378
     26363     26368     26370     26382     26363     26368     26371     26372
     26363     26368     26371     26373     26363     26368     26371     26374
     26364     26363     26367     26365     26364     26363     26368     26369
     26364     26363     26368     26370     26364     26363     26368     26371
     26365     26367     26363     26368     26365     26374     26371     26368
     26365     26374     26371     26372     26365     26374     26371     26373
     26365     26374     26376     26377     26366     26365     26374     26371
     26366     26365     26374     26375     26366     26365     26374     26376
     26366     26365     26378     26379     26366     26365     26378     26380
     26366     26365     26378     26381     26367     26363     26368     26369
     26367     26363     26368     26370     26367     26363     26368     26371
     26367     26365     26374     26371     26367     26365     26374     26375
     26367     26365     26374     26376     26367     26365     26378     26379
     26367     26365     26378     26380     26367     26365     26378     26381
     26368     26370     26382     26383     26368     26370     26382     26386
     26368     26370     26382     26387     26368     26371     26373     26410
     26368     26371     26374     26375     26368     26371     26374     26376
     26369     26368     26370     26382     26369     26368     26371     26372
     26369     26368     26371     26373     26369     26368     26371     26374
     26370     26368     26371     26372     26370     26368     26371     26373
     26370     26368     26371     26374     26370     26382     26386     26384
     26370     26382     26387     26388     26370     26382     26387     26389
     26370     26382     26387     26397     26371     26368     26370     26382
     26371     26373     26410     26411     26371     26373     26410     26414
     26371     26373     26410     26415     26371     26374     26365     26378
     26371     26374     26376     26377     26372     26371     26373     26410
     26372     26371     26374     26375     26372     26371     26374     26376
     26373     26371     26374     26375     26373     26371     26374     26376
     26373     26410     26414     26412     26373     26410     26415     26416
     26373     26410     26415     26417     26373     26410     26415     26425
     26374     26365     26378     26379     26374     26365     26378     26380
     26374     26365     26378     26381     26374     26371     26373     26410
     26375     26374     26365     26378     26375     26374     26376     26377
     26376     26374     26365     26378     26382     26386     26384     26385
     26382     26386     26384     26401     26382     26386     26384     26405
     26382     26387     26389     26390     26382     26387     26389     26391
     26382     26387     26397     26398     26382     26387     26397     26399
     26382     26387     26397     26401     26383     26382     26386     26384
     26383     26382     26387     26388     26383     26382     26387     26389
     26383     26382     26387     26397     26384     26386     26382     26387
     26384     26401     26397     26387     26384     26401     26397     26398
     26384     26401     26397     26399     26384     26401     26403     26404
     26384     26405     26408     26409     26385     26384     26401     26397
     26385     26384     26401     26402     26385     26384     26401     26403
     26385     26384     26405     26406     26385     26384     26405     26407
     26385     26384     26405     26408     26386     26382     26387     26388
     26386     26382     26387     26389     26386     26382     26387     26397
     26386     26384     26401     26397     26386     26384     26401     26402
     26386     26384     26401     26403     26386     26384     26405     26406
     26386     26384     26405     26407     26386     26384     26405     26408
     26387     26389     26391     26392     26387     26389     26391     26393
     26387     26397     26399     26400     26387     26397     26401     26402
     26387     26397     26401     26403     26388     26387     26389     26390
     26388     26387     26389     26391     26388     26387     26397     26398
     26388     26387     26397     26399     26388     26387     26397     26401
     26389     26387     26397     26398     26389     26387     26397     26399
     26389     26387     26397     26401     26389     26391     26393     26394
     26389     26391     26393     26395     26389     26391     26393     26396
     26390     26389     26387     26397     26390     26389     26391     26392
     26390     26389     26391     26393     26391     26389     26387     26397
     26392     26391     26393     26394     26392     26391     26393     26395
     26392     26391     26393     26396     26397     26401     26384     26405
     26397     26401     26403     26404     26398     26397     26399     26400
     26398     26397     26401     26402     26398     26397     26401     26403
     26399     26397     26401     26402     26399     26397     26401     26403
     26400     26399     26397     26401     26401     26384     26405     26406
     26401     26384     26405     26407     26401     26384     26405     26408
     26402     26401     26384     26405     26402     26401     26403     26404
     26403     26401     26384     26405     26406     26405     26408     26409
     26407     26405     26408     26409     26410     26414     26412     26413
     26410     26414     26412     26428     26410     26414     26412     26432
     26410     26415     26417     26418     26410     26415     26417     26419
     26410     26415     26425     26426     26410     26415     26425     26427
     26410     26415     26425     26428     26411     26410     26414     26412
     26411     26410     26415     26416     26411     26410     26415     26417
     26411     26410     26415     26425     26412     26414     26410     26415
     26412     26428     26425     26415     26412     26428     26425     26426
     26412     26428     26425     26427     26412     26428     26430     26431
     26412     26432     26435     26436     26413     26412     26428     26425
     26413     26412     26428     26429     26413     26412     26428     26430
     26413     26412     26432     26433     26413     26412     26432     26434
     26413     26412     26432     26435     26414     26410     26415     26416
     26414     26410     26415     26417     26414     26410     26415     26425
     26414     26412     26428     26425     26414     26412     26428     26429
     26414     26412     26428     26430     26414     26412     26432     26433
     26414     26412     26432     26434     26414     26412     26432     26435
     26415     26417     26419     26420     26415     26417     26419     26421
     26415     26425     26427     26437     26415     26425     26428     26429
     26415     26425     26428     26430     26416     26415     26417     26418
     26416     26415     26417     26419     26416     26415     26425     26426
     26416     26415     26425     26427     26416     26415     26425     26428
     26417     26415     26425     26426     26417     26415     26425     26427
     26417     26415     26425     26428     26417     26419     26421     26422
     26417     26419     26421     26423     26417     26419     26421     26424
     26418     26417     26415     26425     26418     26417     26419     26420
     26418     26417     26419     26421     26419     26417     26415     26425
     26420     26419     26421     26422     26420     26419     26421     26423
     26420     26419     26421     26424     26425     26427     26437     26438
     26425     26427     26437     26441     26425     26427     26437     26442
     26425     26428     26412     26432     26425     26428     26430     26431
     26426     26425     26427     26437     26426     26425     26428     26429
     26426     26425     26428     26430     26427     26425     26428     26429
     26427     26425     26428     26430     26427     26437     26441     26439
     26427     26437     26442     26443     26427     26437     26442     26444
     26427     26437     26442     26445     26428     26412     26432     26433
     26428     26412     26432     26434     26428     26412     26432     26435
     26428     26425     26427     26437     26429     26428     26412     26432
     26429     26428     26430     26431     26430     26428     26412     26432
     26433     26432     26435     26436     26434     26432     26435     26436
     26437     26441     26439     26440     26437     26441     26439     26449
     26437     26441     26439     26453     26437     26442     26444     26458
     26437     26442     26445     26446     26437     26442     26445     26447
     26437     26442     26445     26449     26438     26437     26441     26439
     26438     26437     26442     26443     26438     26437     26442     26444
     26438     26437     26442     26445     26439     26441     26437     26442
     26439     26449     26445     26442     26439     26449     26445     26446
     26439     26449     26445     26447     26439     26449     26451     26452
     26439     26453     26456     26457     26440     26439     26449     26445
     26440     26439     26449     26450     26440     26439     26449     26451
     26440     26439     26453     26454     26440     26439     26453     26455
     26440     26439     26453     26456     26441     26437     26442     26443
     26441     26437     26442     26444     26441     26437     26442     26445
     26441     26439     26449     26445     26441     26439     26449     26450
     26441     26439     26449     26451     26441     26439     26453     26454
     26441     26439     26453     26455     26441     26439     26453     26456
     26442     26444     26458     26459     26442     26444     26458     26462
     26442     26444     26458     26463     26442     26445     26447     26448
     26442     26445     26449     26450     26442     26445     26449     26451
     26443     26442     26444     26458     26443     26442     26445     26446
     26443     26442     26445     26447     26443     26442     26445     26449
     26444     26442     26445     26446     26444     26442     26445     26447
     26444     26442     26445     26449     26444     26458     26462     26460
     26444     26458     26463     26464     26444     26458     26463     26465
     26444     26458     26463     26466     26445     26442     26444     26458
     26445     26449     26439     26453     26445     26449     26451     26452
     26446     26445     26447     26448     26446     26445     26449     26450
     26446     26445     26449     26451     26447     26445     26449     26450
     26447     26445     26449     26451     26448     26447     26445     26449
     26449     26439     26453     26454     26449     26439     26453     26455
     26449     26439     26453     26456     26450     26449     26439     26453
     26450     26449     26451     26452     26451     26449     26439     26453
     26454     26453     26456     26457     26455     26453     26456     26457
     26458     26462     26460     26461     26458     26462     26460     26470
     26458     26462     26460     26474     26458     26463     26465     26478
     26458     26463     26466     26467     26458     26463     26466     26468
     26458     26463     26466     26470     26459     26458     26462     26460
     26459     26458     26463     26464     26459     26458     26463     26465
     26459     26458     26463     26466     26460     26462     26458     26463
     26460     26470     26466     26463     26460     26470     26466     26467
     26460     26470     26466     26468     26460     26470     26472     26473
     26461     26460     26470     26466     26461     26460     26470     26471
     26461     26460     26470     26472     26461     26460     26474     26475
     26461     26460     26474     26476     26461     26460     26474     26477
     26462     26458     26463     26464     26462     26458     26463     26465
     26462     26458     26463     26466     26462     26460     26470     26466
     26462     26460     26470     26471     26462     26460     26470     26472
     26462     26460     26474     26475     26462     26460     26474     26476
     26462     26460     26474     26477     26463     26465     26478     26479
     26463     26465     26478     26482     26463     26465     26478     26483
     26463     26466     26468     26469     26463     26466     26470     26471
     26463     26466     26470     26472     26464     26463     26465     26478
     26464     26463     26466     26467     26464     26463     26466     26468
     26464     26463     26466     26470     26465     26463     26466     26467
     26465     26463     26466     26468     26465     26463     26466     26470
     26465     26478     26482     26480     26465     26478     26483     26484
     26465     26478     26483     26485     26465     26478     26483     26486
     26466     26463     26465     26478     26466     26470     26460     26474
     26466     26470     26472     26473     26467     26466     26468     26469
     26467     26466     26470     26471     26467     26466     26470     26472
     26468     26466     26470     26471     26468     26466     26470     26472
     26469     26468     26466     26470     26470     26460     26474     26475
     26470     26460     26474     26476     26470     26460     26474     26477
     26471     26470     26460     26474     26471     26470     26472     26473
     26472     26470     26460     26474     26478     26482     26480     26481
     26478     26482     26480     26489     26478     26482     26480     26493
     26478     26483     26485     26497     26478     26483     26486     26487
     26478     26483     26486     26488     26478     26483     26486     26489
     26479     26478     26482     26480     26479     26478     26483     26484
     26479     26478     26483     26485     26479     26478     26483     26486
     26480     26482     26478     26483     26480     26489     26486     26483
     26480     26489     26486     26487     26480     26489     26486     26488
     26480     26489     26491     26492     26481     26480     26489     26486
     26481     26480     26489     26490     26481     26480     26489     26491
     26481     26480     26493     26494     26481     26480     26493     26495
     26481     26480     26493     26496     26482     26478     26483     26484
     26482     26478     26483     26485     26482     26478     26483     26486
     26482     26480     26489     26486     26482     26480     26489     26490
     26482     26480     26489     26491     26482     26480     26493     26494
     26482     26480     26493     26495     26482     26480     26493     26496
     26483     26485     26497     26498     26483     26485     26497     26501
     26483     26485     26497     26502     26483     26486     26488     26525
     26483     26486     26489     26490     26483     26486     26489     26491
     26484     26483     26485     26497     26484     26483     26486     26487
     26484     26483     26486     26488     26484     26483     26486     26489
     26485     26483     26486     26487     26485     26483     26486     26488
     26485     26483     26486     26489     26485     26497     26501     26499
     26485     26497     26502     26503     26485     26497     26502     26504
     26485     26497     26502     26512     26486     26483     26485     26497
     26486     26488     26525     26526     26486     26488     26525     26529
     26486     26488     26525     26530     26486     26489     26480     26493
     26486     26489     26491     26492     26487     26486     26488     26525
     26487     26486     26489     26490     26487     26486     26489     26491
     26488     26486     26489     26490     26488     26486     26489     26491
     26488     26525     26529     26527     26488     26525     26530     26531
     26488     26525     26530     26532     26488     26525     26530     26540
     26489     26480     26493     26494     26489     26480     26493     26495
     26489     26480     26493     26496     26489     26486     26488     26525
     26490     26489     26480     26493     26490     26489     26491     26492
     26491     26489     26480     26493     26497     26501     26499     26500
     26497     26501     26499     26516     26497     26501     26499     26520
     26497     26502     26504     26505     26497     26502     26504     26506
     26497     26502     26512     26513     26497     26502     26512     26514
     26497     26502     26512     26516     26498     26497     26501     26499
     26498     26497     26502     26503     26498     26497     26502     26504
     26498     26497     26502     26512     26499     26501     26497     26502
     26499     26516     26512     26502     26499     26516     26512     26513
     26499     26516     26512     26514     26499     26516     26518     26519
     26499     26520     26523     26524     26500     26499     26516     26512
     26500     26499     26516     26517     26500     26499     26516     26518
     26500     26499     26520     26521     26500     26499     26520     26522
     26500     26499     26520     26523     26501     26497     26502     26503
     26501     26497     26502     26504     26501     26497     26502     26512
     26501     26499     26516     26512     26501     26499     26516     26517
     26501     26499     26516     26518     26501     26499     26520     26521
     26501     26499     26520     26522     26501     26499     26520     26523
     26502     26504     26506     26507     26502     26504     26506     26508
     26502     26512     26514     26515     26502     26512     26516     26517
     26502     26512     26516     26518     26503     26502     26504     26505
     26503     26502     26504     26506     26503     26502     26512     26513
     26503     26502     26512     26514     26503     26502     26512     26516
     26504     26502     26512     26513     26504     26502     26512     26514
     26504     26502     26512     26516     26504     26506     26508     26509
     26504     26506     26508     26510     26504     26506     26508     26511
     26505     26504     26502     26512     26505     26504     26506     26507
     26505     26504     26506     26508     26506     26504     26502     26512
     26507     26506     26508     26509     26507     26506     26508     26510
     26507     26506     26508     26511     26512     26516     26499     26520
     26512     26516     26518     26519     26513     26512     26514     26515
     26513     26512     26516     26517     26513     26512     26516     26518
     26514     26512     26516     26517     26514     26512     26516     26518
     26515     26514     26512     26516     26516     26499     26520     26521
     26516     26499     26520     26522     26516     26499     26520     26523
     26517     26516     26499     26520     26517     26516     26518     26519
     26518     26516     26499     26520     26521     26520     26523     26524
     26522     26520     26523     26524     26525     26529     26527     26528
     26525     26529     26527     26543     26525     26529     26527     26547
     26525     26530     26532     26533     26525     26530     26532     26534
     26525     26530     26540     26541     26525     26530     26540     26542
     26525     26530     26540     26543     26526     26525     26529     26527
     26526     26525     26530     26531     26526     26525     26530     26532
     26526     26525     26530     26540     26527     26529     26525     26530
     26527     26543     26540     26530     26527     26543     26540     26541
     26527     26543     26540     26542     26527     26543     26545     26546
     26527     26547     26550     26551     26528     26527     26543     26540
     26528     26527     26543     26544     26528     26527     26543     26545
     26528     26527     26547     26548     26528     26527     26547     26549
     26528     26527     26547     26550     26529     26525     26530     26531
     26529     26525     26530     26532     26529     26525     26530     26540
     26529     26527     26543     26540     26529     26527     26543     26544
     26529     26527     26543     26545     26529     26527     26547     26548
     26529     26527     26547     26549     26529     26527     26547     26550
     26530     26532     26534     26535     26530     26532     26534     26536
     26530     26540     26542     26552     26530     26540     26543     26544
     26530     26540     26543     26545     26531     26530     26532     26533
     26531     26530     26532     26534     26531     26530     26540     26541
     26531     26530     26540     26542     26531     26530     26540     26543
     26532     26530     26540     26541     26532     26530     26540     26542
     26532     26530     26540     26543     26532     26534     26536     26537
     26532     26534     26536     26538     26532     26534     26536     26539
     26533     26532     26530     26540     26533     26532     26534     26535
     26533     26532     26534     26536     26534     26532     26530     26540
     26535     26534     26536     26537     26535     26534     26536     26538
     26535     26534     26536     26539     26540     26542     26552     26553
     26540     26542     26552     26556     26540     26542     26552     26557
     26540     26543     26527     26547     26540     26543     26545     26546
     26541     26540     26542     26552     26541     26540     26543     26544
     26541     26540     26543     26545     26542     26540     26543     26544
     26542     26540     26543     26545     26542     26552     26556     26554
     26542     26552     26557     26558     26542     26552     26557     26559
     26542     26552     26557     26560     26543     26527     26547     26548
     26543     26527     26547     26549     26543     26527     26547     26550
     26543     26540     26542     26552     26544     26543     26527     26547
     26544     26543     26545     26546     26545     26543     26527     26547
     26548     26547     26550     26551     26549     26547     26550     26551
     26552     26556     26554     26555     26552     26556     26554     26564
     26552     26556     26554     26568     26552     26557     26559     26573
     26552     26557     26560     26561     26552     26557     26560     26562
     26552     26557     26560     26564     26553     26552     26556     26554
     26553     26552     26557     26558     26553     26552     26557     26559
     26553     26552     26557     26560     26554     26556     26552     26557
     26554     26564     26560     26557     26554     26564     26560     26561
     26554     26564     26560     26562     26554     26564     26566     26567
     26554     26568     26571     26572     26555     26554     26564     26560
     26555     26554     26564     26565     26555     26554     26564     26566
     26555     26554     26568     26569     26555     26554     26568     26570
     26555     26554     26568     26571     26556     26552     26557     26558
     26556     26552     26557     26559     26556     26552     26557     26560
     26556     26554     26564     26560     26556     26554     26564     26565
     26556     26554     26564     26566     26556     26554     26568     26569
     26556     26554     26568     26570     26556     26554     26568     26571
     26557     26559     26573     26574     26557     26559     26573     26577
     26557     26559     26573     26578     26557     26560     26562     26563
     26557     26560     26564     26565     26557     26560     26564     26566
     26558     26557     26559     26573     26558     26557     26560     26561
     26558     26557     26560     26562     26558     26557     26560     26564
     26559     26557     26560     26561     26559     26557     26560     26562
     26559     26557     26560     26564     26559     26573     26577     26575
     26559     26573     26578     26579     26559     26573     26578     26580
     26559     26573     26578     26581     26560     26557     26559     26573
     26560     26564     26554     26568     26560     26564     26566     26567
     26561     26560     26562     26563     26561     26560     26564     26565
     26561     26560     26564     26566     26562     26560     26564     26565
     26562     26560     26564     26566     26563     26562     26560     26564
     26564     26554     26568     26569     26564     26554     26568     26570
     26564     26554     26568     26571     26565     26564     26554     26568
     26565     26564     26566     26567     26566     26564     26554     26568
     26569     26568     26571     26572     26570     26568     26571     26572
     26573     26577     26575     26576     26573     26577     26575     26585
     26573     26577     26575     26589     26573     26578     26580     26593
     26573     26578     26581     26582     26573     26578     26581     26583
     26573     26578     26581     26585     26574     26573     26577     26575
     26574     26573     26578     26579     26574     26573     26578     26580
     26574     26573     26578     26581     26575     26577     26573     26578
     26575     26585     26581     26578     26575     26585     26581     26582
     26575     26585     26581     26583     26575     26585     26587     26588
     26576     26575     26585     26581     26576     26575     26585     26586
     26576     26575     26585     26587     26576     26575     26589     26590
     26576     26575     26589     26591     26576     26575     26589     26592
     26577     26573     26578     26579     26577     26573     26578     26580
     26577     26573     26578     26581     26577     26575     26585     26581
     26577     26575     26585     26586     26577     26575     26585     26587
     26577     26575     26589     26590     26577     26575     26589     26591
     26577     26575     26589     26592     26578     26580     26593     26594
     26578     26580     26593     26597     26578     26580     26593     26598
     26578     26581     26583     26584     26578     26581     26585     26586
     26578     26581     26585     26587     26579     26578     26580     26593
     26579     26578     26581     26582     26579     26578     26581     26583
     26579     26578     26581     26585     26580     26578     26581     26582
     26580     26578     26581     26583     26580     26578     26581     26585
     26580     26593     26597     26595     26580     26593     26598     26599
     26580     26593     26598     26600     26580     26593     26598     26601
     26581     26578     26580     26593     26581     26585     26575     26589
     26581     26585     26587     26588     26582     26581     26583     26584
     26582     26581     26585     26586     26582     26581     26585     26587
     26583     26581     26585     26586     26583     26581     26585     26587
     26584     26583     26581     26585     26585     26575     26589     26590
     26585     26575     26589     26591     26585     26575     26589     26592
     26586     26585     26575     26589     26586     26585     26587     26588
     26587     26585     26575     26589     26593     26597     26595     26596
     26593     26597     26595     26605     26593     26597     26595     26609
     26593     26598     26600     26613     26593     26598     26601     26602
     26593     26598     26601     26603     26593     26598     26601     26605
     26594     26593     26597     26595     26594     26593     26598     26599
     26594     26593     26598     26600     26594     26593     26598     26601
     26595     26597     26593     26598     26595     26605     26601     26598
     26595     26605     26601     26602     26595     26605     26601     26603
     26595     26605     26607     26608     26596     26595     26605     26601
     26596     26595     26605     26606     26596     26595     26605     26607
     26596     26595     26609     26610     26596     26595     26609     26611
     26596     26595     26609     26612     26597     26593     26598     26599
     26597     26593     26598     26600     26597     26593     26598     26601
     26597     26595     26605     26601     26597     26595     26605     26606
     26597     26595     26605     26607     26597     26595     26609     26610
     26597     26595     26609     26611     26597     26595     26609     26612
     26598     26600     26613     26614     26598     26600     26613     26617
     26598     26600     26613     26618     26598     26601     26603     26604
     26598     26601     26605     26606     26598     26601     26605     26607
     26599     26598     26600     26613     26599     26598     26601     26602
     26599     26598     26601     26603     26599     26598     26601     26605
     26600     26598     26601     26602     26600     26598     26601     26603
     26600     26598     26601     26605     26600     26613     26617     26615
     26600     26613     26618     26619     26600     26613     26618     26620
     26600     26613     26618     26628     26601     26598     26600     26613
     26601     26605     26595     26609     26601     26605     26607     26608
     26602     26601     26603     26604     26602     26601     26605     26606
     26602     26601     26605     26607     26603     26601     26605     26606
     26603     26601     26605     26607     26604     26603     26601     26605
     26605     26595     26609     26610     26605     26595     26609     26611
     26605     26595     26609     26612     26606     26605     26595     26609
     26606     26605     26607     26608     26607     26605     26595     26609
     26613     26617     26615     26616     26613     26617     26615     26632
     26613     26617     26615     26636     26613     26618     26620     26621
     26613     26618     26620     26622     26613     26618     26628     26629
     26613     26618     26628     26630     26613     26618     26628     26632
     26614     26613     26617     26615     26614     26613     26618     26619
     26614     26613     26618     26620     26614     26613     26618     26628
     26615     26617     26613     26618     26615     26632     26628     26618
     26615     26632     26628     26629     26615     26632     26628     26630
     26615     26632     26634     26635     26615     26636     26639     26640
     26616     26615     26632     26628     26616     26615     26632     26633
     26616     26615     26632     26634     26616     26615     26636     26637
     26616     26615     26636     26638     26616     26615     26636     26639
     26617     26613     26618     26619     26617     26613     26618     26620
     26617     26613     26618     26628     26617     26615     26632     26628
     26617     26615     26632     26633     26617     26615     26632     26634
     26617     26615     26636     26637     26617     26615     26636     26638
     26617     26615     26636     26639     26618     26620     26622     26623
     26618     26620     26622     26624     26618     26628     26630     26631
     26618     26628     26632     26633     26618     26628     26632     26634
     26619     26618     26620     26621     26619     26618     26620     26622
     26619     26618     26628     26629     26619     26618     26628     26630
     26619     26618     26628     26632     26620     26618     26628     26629
     26620     26618     26628     26630     26620     26618     26628     26632
     26620     26622     26624     26625     26620     26622     26624     26626
     26620     26622     26624     26627     26621     26620     26618     26628
     26621     26620     26622     26623     26621     26620     26622     26624
     26622     26620     26618     26628     26623     26622     26624     26625
     26623     26622     26624     26626     26623     26622     26624     26627
     26628     26632     26615     26636     26628     26632     26634     26635
     26629     26628     26630     26631     26629     26628     26632     26633
     26629     26628     26632     26634     26630     26628     26632     26633
     26630     26628     26632     26634     26631     26630     26628     26632
     26632     26615     26636     26637     26632     26615     26636     26638
     26632     26615     26636     26639     26633     26632     26615     26636
     26633     26632     26634     26635     26634     26632     26615     26636
     26637     26636     26639     26640     26638     26636     26639     26640
     26641     26643     26642     26940     26641     26643     26645     26646
     26641     26643     26645     26647     26641     26643     26645     26654
     26642     26643     26645     26646     26642     26643     26645     26647
     26642     26643     26645     26654     26642     26940     26937     26938
     26642     26940     26937     26939     26642     26940     26943     26941
     26642     26940     26944     26945     26642     26940     26944     26946
     26642     26940     26944     26947     26643     26642     26940     26937
     26643     26642     26940     26943     26643     26642     26940     26944
     26643     26645     26646     26648     26643     26645     26654     26655
     26643     26645     26654     26656     26643     26645     26654     26661
     26644     26643     26642     26940     26644     26643     26645     26646
     26644     26643     26645     26647     26644     26643     26645     26654
     26645     26643     26642     26940     26645     26646     26648     26649
     26645     26646     26648     26650     26645     26646     26648     26669
     26645     26654     26656     26657     26645     26654     26661     26662
     26645     26654     26661     26663     26645     26654     26661     26669
     26646     26645     26654     26655     26646     26645     26654     26656
     26646     26645     26654     26661     26646     26648     26650     26651
     26646     26648     26669     26661     26646     26648     26669     26670
     26646     26648     26669     26671     26647     26645     26646     26648
     26647     26645     26654     26655     26647     26645     26654     26656
     26647     26645     26654     26661     26648     26646     26645     26654
     26648     26650     26651     26652     26648     26650     26651     26653
     26648     26650     26651     26677     26648     26669     26661     26654
     26648     26669     26661     26662     26648     26669     26661     26663
     26648     26669     26671     26672     26648     26669     26671     26778
     26649     26648     26650     26651     26649     26648     26669     26661
     26649     26648     26669     26670     26649     26648     26669     26671
     26650     26648     26669     26661     26650     26648     26669     26670
     26650     26648     26669     26671     26650     26651     26677     26673
     26650     26651     26677     26678     26650     26651     26677     26679
     26651     26650     26648     26669     26651     26677     26673     26674
     26651     26677     26673     26675     26651     26677     26673     26687
     26651     26677     26679     26680     26652     26651     26677     26673
     26652     26651     26677     26678     26652     26651     26677     26679
     26653     26651     26677     26673     26653     26651     26677     26678
     26653     26651     26677     26679     26654     26656     26657     26658
     26654     26656     26657     26659     26654     26656     26657     26660
     26654     26661     26662     26664     26654     26661     26669     26670
     26654     26661     26669     26671     26655     26654     26656     26657
     26655     26654     26661     26662     26655     26654     26661     26663
     26655     26654     26661     26669     26656     26654     26661     26662
     26656     26654     26661     26663     26656     26654     26661     26669
     26657     26656     26654     26661     26661     26662     26664     26665
     26661     26662     26664     26666     26661     26669     26671     26672
     26661     26669     26671     26778     26662     26661     26669     26670
     26662     26661     26669     26671     26662     26664     26666     26667
     26662     26664     26666     26668     26662     26664     26666     26699
     26663     26661     26662     26664     26663     26661     26669     26670
     26663     26661     26669     26671     26664     26662     26661     26669
     26664     26666     26699     26700     26664     26666     26699     26701
     26664     26666     26699     26744     26665     26664     26666     26667
     26665     26664     26666     26668     26665     26664     26666     26699
     26666     26699     26701     26702     26666     26699     26744     26745
     26666     26699     26744     26746     26666     26699     26744     26747
     26667     26666     26699     26700     26667     26666     26699     26701
     26667     26666     26699     26744     26668     26666     26699     26700
     26668     26666     26699     26701     26668     26666     26699     26744
     26669     26671     26778     26779     26669     26671     26778     26780
     26670     26669     26671     26672     26670     26669     26671     26778
     26671     26778     26780     26781     26671     26778     26780     26782
     26671     26778     26780     26783     26672     26671     26778     26779
     26672     26671     26778     26780     26673     26677     26679     26680
     26673     26687     26689     26690     26673     26687     26695     26680
     26673     26687     26695     26696     26673     26687     26695     26697
     26674     26673     26675     26676     26674     26673     26677     26678
     26674     26673     26677     26679     26674     26673     26687     26688
     26674     26673     26687     26689     26674     26673     26687     26695
     26675     26673     26677     26678     26675     26673     26677     26679
     26675     26673     26687     26688     26675     26673     26687     26689
     26675     26673     26687     26695     26676     26675     26673     26677
     26676     26675     26673     26687     26677     26673     26687     26688
     26677     26673     26687     26689     26677     26673     26687     26695
     26677     26679     26680     26681     26677     26679     26680     26682
     26677     26679     26680     26695     26678     26677     26673     26687
     26678     26677     26679     26680     26679     26677     26673     26687
     26679     26680     26682     26686     26679     26680     26695     26687
     26679     26680     26695     26696     26679     26680     26695     26697
     26680     26682     26686     26683     26680     26682     26686     26684
     26680     26682     26686     26685     26680     26695     26687     26688
     26680     26695     26687     26689     26680     26695     26697     26698
     26680     26695     26697     26894     26681     26680     26682     26686
     26681     26680     26695     26687     26681     26680     26695     26696
     26681     26680     26695     26697     26682     26680     26695     26687
     26682     26680     26695     26696     26682     26680     26695     26697
     26686     26682     26680     26695     26687     26689     26690     26691
     26687     26689     26690     26692     26687     26695     26697     26698
     26687     26695     26697     26894     26688     26687     26689     26690
     26688     26687     26695     26696     26688     26687     26695     26697
     26689     26687     26695     26696     26689     26687     26695     26697
     26689     26690     26692     26693     26689     26690     26692     26694
     26689     26690     26692     26856     26690     26689     26687     26695
     26690     26692     26856     26857     26690     26692     26856     26858
     26690     26692     26856     26860     26691     26690     26692     26693
     26691     26690     26692     26694     26691     26690     26692     26856
     26692     26856     26858     26859     26692     26856     26860     26861
     26692     26856     26860     26862     26692     26856     26860     26863
     26693     26692     26856     26857     26693     26692     26856     26858
     26693     26692     26856     26860     26694     26692     26856     26857
     26694     26692     26856     26858     26694     26692     26856     26860
     26695     26697     26894     26895     26695     26697     26894     26896
     26696     26695     26697     26698     26696     26695     26697     26894
     26697     26894     26896     26897     26697     26894     26896     26898
     26697     26894     26896     26899     26698     26697     26894     26895
     26698     26697     26894     26896     26699     26701     26702     26703
     26699     26701     26702     26704     26699     26744     26747     26748
     26699     26744     26747     26749     26699     26744     26747     26750
     26700     26699     26701     26702     26700     26699     26744     26745
     26700     26699     26744     26746     26700     26699     26744     26747
     26701     26699     26744     26745     26701     26699     26744     26746
     26701     26699     26744     26747     26701     26702     26704     26705
     26701     26702     26704     26706     26701     26702     26704     26707
     26702     26701     26699     26744     26702     26704     26707     26708
     26702     26704     26707     26709     26702     26704     26707     26710
     26703     26702     26704     26705     26703     26702     26704     26706
     26703     26702     26704     26707     26704     26707     26710     26711
     26704     26707     26710     26712     26704     26707     26710     26713
     26705     26704     26707     26708     26705     26704     26707     26709
     26705     26704     26707     26710     26706     26704     26707     26708
     26706     26704     26707     26709     26706     26704     26707     26710
     26707     26710     26713     26714     26707     26710     26713     26715
     26707     26710     26713     26716     26708     26707     26710     26711
     26708     26707     26710     26712     26708     26707     26710     26713
     26709     26707     26710     26711     26709     26707     26710     26712
     26709     26707     26710     26713     26710     26713     26716     26717
     26710     26713     26716     26718     26710     26713     26716     26719
     26711     26710     26713     26714     26711     26710     26713     26715
     26711     26710     26713     26716     26712     26710     26713     26714
     26712     26710     26713     26715     26712     26710     26713     26716
     26713     26716     26719     26720     26713     26716     26719     26721
     26713     26716     26719     26722     26714     26713     26716     26717
     26714     26713     26716     26718     26714     26713     26716     26719
     26715     26713     26716     26717     26715     26713     26716     26718
     26715     26713     26716     26719     26716     26719     26722     26723
     26716     26719     26722     26724     26716     26719     26722     26725
     26717     26716     26719     26720     26717     26716     26719     26721
     26717     26716     26719     26722     26718     26716     26719     26720
     26718     26716     26719     26721     26718     26716     26719     26722
     26719     26722     26725     26726     26719     26722     26725     26727
     26719     26722     26725     26728     26720     26719     26722     26723
     26720     26719     26722     26724     26720     26719     26722     26725
     26721     26719     26722     26723     26721     26719     26722     26724
     26721     26719     26722     26725     26722     26725     26728     26729
     26722     26725     26728     26730     26722     26725     26728     26731
     26723     26722     26725     26726     26723     26722     26725     26727
     26723     26722     26725     26728     26724     26722     26725     26726
     26724     26722     26725     26727     26724     26722     26725     26728
     26725     26728     26731     26732     26725     26728     26731     26733
     26725     26728     26731     26734     26726     26725     26728     26729
     26726     26725     26728     26730     26726     26725     26728     26731
     26727     26725     26728     26729     26727     26725     26728     26730
     26727     26725     26728     26731     26728     26731     26734     26735
     26728     26731     26734     26736     26728     26731     26734     26737
     26729     26728     26731     26732     26729     26728     26731     26733
     26729     26728     26731     26734     26730     26728     26731     26732
     26730     26728     26731     26733     26730     26728     26731     26734
     26731     26734     26737     26738     26731     26734     26737     26739
     26731     26734     26737     26740     26732     26731     26734     26735
     26732     26731     26734     26736     26732     26731     26734     26737
     26733     26731     26734     26735     26733     26731     26734     26736
     26733     26731     26734     26737     26734     26737     26740     26741
     26734     26737     26740     26742     26734     26737     26740     26743
     26735     26734     26737     26738     26735     26734     26737     26739
     26735     26734     26737     26740     26736     26734     26737     26738
     26736     26734     26737     26739     26736     26734     26737     26740
     26738     26737     26740     26741     26738     26737     26740     26742
     26738     26737     26740     26743     26739     26737     26740     26741
     26739     26737     26740     26742     26739     26737     26740     26743
     26744     26747     26750     26751     26744     26747     26750     26752
     26744     26747     26750     26753     26745     26744     26747     26748
     26745     26744     26747     26749     26745     26744     26747     26750
     26746     26744     26747     26748     26746     26744     26747     26749
     26746     26744     26747     26750     26747     26750     26753     26754
     26747     26750     26753     26755     26747     26750     26753     26756
     26748     26747     26750     26751     26748     26747     26750     26752
     26748     26747     26750     26753     26749     26747     26750     26751
     26749     26747     26750     26752     26749     26747     26750     26753
     26750     26753     26756     26757     26750     26753     26756     26758
     26750     26753     26756     26759     26751     26750     26753     26754
     26751     26750     26753     26755     26751     26750     26753     26756
     26752     26750     26753     26754     26752     26750     26753     26755
     26752     26750     26753     26756     26753     26756     26759     26760
     26753     26756     26759     26761     26753     26756     26759     26762
     26754     26753     26756     26757     26754     26753     26756     26758
     26754     26753     26756     26759     26755     26753     26756     26757
     26755     26753     26756     26758     26755     26753     26756     26759
     26756     26759     26762     26763     26756     26759     26762     26764
     26756     26759     26762     26765     26757     26756     26759     26760
     26757     26756     26759     26761     26757     26756     26759     26762
     26758     26756     26759     26760     26758     26756     26759     26761
     26758     26756     26759     26762     26759     26762     26765     26766
     26759     26762     26765     26767     26759     26762     26765     26768
     26760     26759     26762     26763     26760     26759     26762     26764
     26760     26759     26762     26765     26761     26759     26762     26763
     26761     26759     26762     26764     26761     26759     26762     26765
     26762     26765     26768     26769     26762     26765     26768     26770
     26762     26765     26768     26771     26763     26762     26765     26766
     26763     26762     26765     26767     26763     26762     26765     26768
     26764     26762     26765     26766     26764     26762     26765     26767
     26764     26762     26765     26768     26765     26768     26771     26772
     26765     26768     26771     26773     26765     26768     26771     26774
     26766     26765     26768     26769     26766     26765     26768     26770
     26766     26765     26768     26771     26767     26765     26768     26769
     26767     26765     26768     26770     26767     26765     26768     26771
     26768     26771     26774     26775     26768     26771     26774     26776
     26768     26771     26774     26777     26769     26768     26771     26772
     26769     26768     26771     26773     26769     26768     26771     26774
     26770     26768     26771     26772     26770     26768     26771     26773
     26770     26768     26771     26774     26772     26771     26774     26775
     26772     26771     26774     26776     26772     26771     26774     26777
     26773     26771     26774     26775     26773     26771     26774     26776
     26773     26771     26774     26777     26778     26780     26783     26784
     26778     26780     26783     26785     26778     26780     26783     26822
     26779     26778     26780     26781     26779     26778     26780     26782
     26779     26778     26780     26783     26780     26783     26785     26786
     26780     26783     26822     26823     26780     26783     26822     26824
     26780     26783     26822     26825     26781     26780     26783     26784
     26781     26780     26783     26785     26781     26780     26783     26822
     26782     26780     26783     26784     26782     26780     26783     26785
     26782     26780     26783     26822     26783     26785     26786     26787
     26783     26785     26786     26788     26783     26822     26825     26826
     26783     26822     26825     26827     26783     26822     26825     26828
     26784     26783     26785     26786     26784     26783     26822     26823
     26784     26783     26822     26824     26784     26783     26822     26825
     26785     26783     26822     26823     26785     26783     26822     26824
     26785     26783     26822     26825     26785     26786     26788     26789
     26785     26786     26788     26790     26785     26786     26788     26791
     26786     26785     26783     26822     26786     26788     26791     26792
     26786     26788     26791     26793     26786     26788     26791     26794
     26787     26786     26788     26789     26787     26786     26788     26790
     26787     26786     26788     26791     26788     26791     26794     26795
     26788     26791     26794     26796     26788     26791     26794     26797
     26789     26788     26791     26792     26789     26788     26791     26793
     26789     26788     26791     26794     26790     26788     26791     26792
     26790     26788     26791     26793     26790     26788     26791     26794
     26791     26794     26797     26798     26791     26794     26797     26799
     26791     26794     26797     26800     26792     26791     26794     26795
     26792     26791     26794     26796     26792     26791     26794     26797
     26793     26791     26794     26795     26793     26791     26794     26796
     26793     26791     26794     26797     26794     26797     26800     26801
     26794     26797     26800     26802     26794     26797     26800     26803
     26795     26794     26797     26798     26795     26794     26797     26799
     26795     26794     26797     26800     26796     26794     26797     26798
     26796     26794     26797     26799     26796     26794     26797     26800
     26797     26800     26803     26804     26797     26800     26803     26805
     26797     26800     26803     26806     26798     26797     26800     26801
     26798     26797     26800     26802     26798     26797     26800     26803
     26799     26797     26800     26801     26799     26797     26800     26802
     26799     26797     26800     26803     26800     26803     26806     26807
     26800     26803     26806     26808     26800     26803     26806     26809
     26801     26800     26803     26804     26801     26800     26803     26805
     26801     26800     26803     26806     26802     26800     26803     26804
     26802     26800     26803     26805     26802     26800     26803     26806
     26803     26806     26809     26810     26803     26806     26809     26811
     26803     26806     26809     26812     26804     26803     26806     26807
     26804     26803     26806     26808     26804     26803     26806     26809
     26805     26803     26806     26807     26805     26803     26806     26808
     26805     26803     26806     26809     26806     26809     26812     26813
     26806     26809     26812     26814     26806     26809     26812     26815
     26807     26806     26809     26810     26807     26806     26809     26811
     26807     26806     26809     26812     26808     26806     26809     26810
     26808     26806     26809     26811     26808     26806     26809     26812
     26809     26812     26815     26816     26809     26812     26815     26817
     26809     26812     26815     26818     26810     26809     26812     26813
     26810     26809     26812     26814     26810     26809     26812     26815
     26811     26809     26812     26813     26811     26809     26812     26814
     26811     26809     26812     26815     26812     26815     26818     26819
     26812     26815     26818     26820     26812     26815     26818     26821
     26813     26812     26815     26816     26813     26812     26815     26817
     26813     26812     26815     26818     26814     26812     26815     26816
     26814     26812     26815     26817     26814     26812     26815     26818
     26816     26815     26818     26819     26816     26815     26818     26820
     26816     26815     26818     26821     26817     26815     26818     26819
     26817     26815     26818     26820     26817     26815     26818     26821
     26822     26825     26828     26829     26822     26825     26828     26830
     26822     26825     26828     26831     26823     26822     26825     26826
     26823     26822     26825     26827     26823     26822     26825     26828
     26824     26822     26825     26826     26824     26822     26825     26827
     26824     26822     26825     26828     26825     26828     26831     26832
     26825     26828     26831     26833     26825     26828     26831     26834
     26826     26825     26828     26829     26826     26825     26828     26830
     26826     26825     26828     26831     26827     26825     26828     26829
     26827     26825     26828     26830     26827     26825     26828     26831
     26828     26831     26834     26835     26828     26831     26834     26836
     26828     26831     26834     26837     26829     26828     26831     26832
     26829     26828     26831     26833     26829     26828     26831     26834
     26830     26828     26831     26832     26830     26828     26831     26833
     26830     26828     26831     26834     26831     26834     26837     26838
     26831     26834     26837     26839     26831     26834     26837     26840
     26832     26831     26834     26835     26832     26831     26834     26836
     26832     26831     26834     26837     26833     26831     26834     26835
     26833     26831     26834     26836     26833     26831     26834     26837
     26834     26837     26840     26841     26834     26837     26840     26842
     26834     26837     26840     26843     26835     26834     26837     26838
     26835     26834     26837     26839     26835     26834     26837     26840
     26836     26834     26837     26838     26836     26834     26837     26839
     26836     26834     26837     26840     26837     26840     26843     26844
     26837     26840     26843     26845     26837     26840     26843     26846
     26838     26837     26840     26841     26838     26837     26840     26842
     26838     26837     26840     26843     26839     26837     26840     26841
     26839     26837     26840     26842     26839     26837     26840     26843
     26840     26843     26846     26847     26840     26843     26846     26848
     26840     26843     26846     26849     26841     26840     26843     26844
     26841     26840     26843     26845     26841     26840     26843     26846
     26842     26840     26843     26844     26842     26840     26843     26845
     26842     26840     26843     26846     26843     26846     26849     26850
     26843     26846     26849     26851     26843     26846     26849     26852
     26844     26843     26846     26847     26844     26843     26846     26848
     26844     26843     26846     26849     26845     26843     26846     26847
     26845     26843     26846     26848     26845     26843     26846     26849
     26846     26849     26852     26853     26846     26849     26852     26854
     26846     26849     26852     26855     26847     26846     26849     26850
     26847     26846     26849     26851     26847     26846     26849     26852
     26848     26846     26849     26850     26848     26846     26849     26851
     26848     26846     26849     26852     26850     26849     26852     26853
     26850     26849     26852     26854     26850     26849     26852     26855
     26851     26849     26852     26853     26851     26849     26852     26854
     26851     26849     26852     26855     26856     26860     26863     26864
     26856     26860     26863     26865     26856     26860     26863     26866
     26857     26856     26858     26859     26857     26856     26860     26861
     26857     26856     26860     26862     26857     26856     26860     26863
     26858     26856     26860     26861     26858     26856     26860     26862
     26858     26856     26860     26863     26859     26858     26856     26860
     26860     26863     26866     26867     26860     26863     26866     26868
     26860     26863     26866     26869     26861     26860     26863     26864
     26861     26860     26863     26865     26861     26860     26863     26866
     26862     26860     26863     26864     26862     26860     26863     26865
     26862     26860     26863     26866     26863     26866     26869     26870
     26863     26866     26869     26871     26863     26866     26869     26872
     26864     26863     26866     26867     26864     26863     26866     26868
     26864     26863     26866     26869     26865     26863     26866     26867
     26865     26863     26866     26868     26865     26863     26866     26869
     26866     26869     26872     26873     26866     26869     26872     26874
     26866     26869     26872     26875     26867     26866     26869     26870
     26867     26866     26869     26871     26867     26866     26869     26872
     26868     26866     26869     26870     26868     26866     26869     26871
     26868     26866     26869     26872     26869     26872     26875     26876
     26869     26872     26875     26877     26869     26872     26875     26878
     26870     26869     26872     26873     26870     26869     26872     26874
     26870     26869     26872     26875     26871     26869     26872     26873
     26871     26869     26872     26874     26871     26869     26872     26875
     26872     26875     26878     26879     26872     26875     26878     26880
     26872     26875     26878     26881     26873     26872     26875     26876
     26873     26872     26875     26877     26873     26872     26875     26878
     26874     26872     26875     26876     26874     26872     26875     26877
     26874     26872     26875     26878     26875     26878     26881     26882
     26875     26878     26881     26883     26875     26878     26881     26884
     26876     26875     26878     26879     26876     26875     26878     26880
     26876     26875     26878     26881     26877     26875     26878     26879
     26877     26875     26878     26880     26877     26875     26878     26881
     26878     26881     26884     26885     26878     26881     26884     26886
     26878     26881     26884     26887     26879     26878     26881     26882
     26879     26878     26881     26883     26879     26878     26881     26884
     26880     26878     26881     26882     26880     26878     26881     26883
     26880     26878     26881     26884     26881     26884     26887     26888
     26881     26884     26887     26889     26881     26884     26887     26890
     26882     26881     26884     26885     26882     26881     26884     26886
     26882     26881     26884     26887     26883     26881     26884     26885
     26883     26881     26884     26886     26883     26881     26884     26887
     26884     26887     26890     26891     26884     26887     26890     26892
     26884     26887     26890     26893     26885     26884     26887     26888
     26885     26884     26887     26889     26885     26884     26887     26890
     26886     26884     26887     26888     26886     26884     26887     26889
     26886     26884     26887     26890     26888     26887     26890     26891
     26888     26887     26890     26892     26888     26887     26890     26893
     26889     26887     26890     26891     26889     26887     26890     26892
     26889     26887     26890     26893     26894     26896     26899     26900
     26894     26896     26899     26901     26894     26896     26899     26903
     26895     26894     26896     26897     26895     26894     26896     26898
     26895     26894     26896     26899     26896     26899     26901     26902
     26896     26899     26903     26904     26896     26899     26903     26905
     26896     26899     26903     26906     26897     26896     26899     26900
     26897     26896     26899     26901     26897     26896     26899     26903
     26898     26896     26899     26900     26898     26896     26899     26901
     26898     26896     26899     26903     26899     26903     26906     26907
     26899     26903     26906     26908     26899     26903     26906     26909
     26900     26899     26901     26902     26900     26899     26903     26904
     26900     26899     26903     26905     26900     26899     26903     26906
     26901     26899     26903     26904     26901     26899     26903     26905
     26901     26899     26903     26906     26902     26901     26899     26903
     26903     26906     26909     26910     26903     26906     26909     26911
     26903     26906     26909     26912     26904     26903     26906     26907
     26904     26903     26906     26908     26904     26903     26906     26909
     26905     26903     26906     26907     26905     26903     26906     26908
     26905     26903     26906     26909     26906     26909     26912     26913
     26906     26909     26912     26914     26906     26909     26912     26915
     26907     26906     26909     26910     26907     26906     26909     26911
     26907     26906     26909     26912     26908     26906     26909     26910
     26908     26906     26909     26911     26908     26906     26909     26912
     26909     26912     26915     26916     26909     26912     26915     26917
     26909     26912     26915     26918     26910     26909     26912     26913
     26910     26909     26912     26914     26910     26909     26912     26915
     26911     26909     26912     26913     26911     26909     26912     26914
     26911     26909     26912     26915     26912     26915     26918     26919
     26912     26915     26918     26920     26912     26915     26918     26921
     26913     26912     26915     26916     26913     26912     26915     26917
     26913     26912     26915     26918     26914     26912     26915     26916
     26914     26912     26915     26917     26914     26912     26915     26918
     26915     26918     26921     26922     26915     26918     26921     26923
     26915     26918     26921     26924     26916     26915     26918     26919
     26916     26915     26918     26920     26916     26915     26918     26921
     26917     26915     26918     26919     26917     26915     26918     26920
     26917     26915     26918     26921     26918     26921     26924     26925
     26918     26921     26924     26926     26918     26921     26924     26927
     26919     26918     26921     26922     26919     26918     26921     26923
     26919     26918     26921     26924     26920     26918     26921     26922
     26920     26918     26921     26923     26920     26918     26921     26924
     26921     26924     26927     26928     26921     26924     26927     26929
     26921     26924     26927     26930     26922     26921     26924     26925
     26922     26921     26924     26926     26922     26921     26924     26927
     26923     26921     26924     26925     26923     26921     26924     26926
     26923     26921     26924     26927     26924     26927     26930     26931
     26924     26927     26930     26932     26924     26927     26930     26933
     26925     26924     26927     26928     26925     26924     26927     26929
     26925     26924     26927     26930     26926     26924     26927     26928
     26926     26924     26927     26929     26926     26924     26927     26930
     26927     26930     26933     26934     26927     26930     26933     26935
     26927     26930     26933     26936     26928     26927     26930     26931
     26928     26927     26930     26932     26928     26927     26930     26933
     26929     26927     26930     26931     26929     26927     26930     26932
     26929     26927     26930     26933     26931     26930     26933     26934
     26931     26930     26933     26935     26931     26930     26933     26936
     26932     26930     26933     26934     26932     26930     26933     26935
     26932     26930     26933     26936     26937     26940     26943     26941
     26937     26940     26944     26945     26937     26940     26944     26946
     26937     26940     26944     26947     26938     26937     26940     26943
     26938     26937     26940     26944     26939     26937     26940     26943
     26939     26937     26940     26944     26940     26943     26941     26942
     26940     26943     26941     26950     26940     26943     26941     26953
     26940     26944     26947     26948     26940     26944     26947     26949
     26940     26944     26947     26950     26941     26943     26940     26944
     26941     26950     26947     26944     26941     26950     26947     26948
     26941     26950     26947     26949     26941     26950     26952     26989
     26941     26953     26955     26956     26941     26953     26957     26958
     26941     26953     26957     26959     26941     26953     26957     26960
     26942     26941     26950     26947     26942     26941     26950     26951
     26942     26941     26950     26952     26942     26941     26953     26954
     26942     26941     26953     26955     26942     26941     26953     26957
     26943     26940     26944     26945     26943     26940     26944     26946
     26943     26940     26944     26947     26943     26941     26950     26947
     26943     26941     26950     26951     26943     26941     26950     26952
     26943     26941     26953     26954     26943     26941     26953     26955
     26943     26941     26953     26957     26944     26947     26949     26965
     26944     26947     26950     26951     26944     26947     26950     26952
     26945     26944     26947     26948     26945     26944     26947     26949
     26945     26944     26947     26950     26946     26944     26947     26948
     26946     26944     26947     26949     26946     26944     26947     26950
     26947     26949     26965     26962     26947     26949     26965     26968
     26947     26949     26965     26969     26947     26950     26941     26953
     26947     26950     26952     26989     26948     26947     26949     26965
     26948     26947     26950     26951     26948     26947     26950     26952
     26949     26947     26950     26951     26949     26947     26950     26952
     26949     26965     26962     26963     26949     26965     26962     26964
     26949     26965     26968     26966     26949     26965     26969     26970
     26949     26965     26969     26971     26949     26965     26969     26972
     26950     26941     26953     26954     26950     26941     26953     26955
     26950     26941     26953     26957     26950     26947     26949     26965
     26950     26952     26989     26990     26950     26952     26989     26993
     26950     26952     26989     26994     26951     26950     26941     26953
     26951     26950     26952     26989     26952     26950     26941     26953
     26952     26989     26993     26991     26952     26989     26994     26995
     26952     26989     26994     26996     26952     26989     26994     26998
     26953     26957     26960     26961     26954     26953     26955     26956
     26954     26953     26957     26958     26954     26953     26957     26959
     26954     26953     26957     26960     26955     26953     26957     26958
     26955     26953     26957     26959     26955     26953     26957     26960
     26956     26955     26953     26957     26958     26957     26960     26961
     26959     26957     26960     26961     26962     26965     26968     26966
     26962     26965     26969     26970     26962     26965     26969     26971
     26962     26965     26969     26972     26963     26962     26965     26968
     26963     26962     26965     26969     26964     26962     26965     26968
     26964     26962     26965     26969     26965     26968     26966     26967
     26965     26968     26966     26976     26965     26968     26966     26980
     26965     26969     26972     26973     26965     26969     26972     26974
     26965     26969     26972     26976     26966     26968     26965     26969
     26966     26976     26972     26969     26966     26976     26972     26973
     26966     26976     26972     26974     26966     26976     26978     26979
     26966     26980     26982     26983     26966     26980     26984     26985
     26966     26980     26984     26986     26966     26980     26984     26987
     26967     26966     26976     26972     26967     26966     26976     26977
     26967     26966     26976     26978     26967     26966     26980     26981
     26967     26966     26980     26982     26967     26966     26980     26984
     26968     26965     26969     26970     26968     26965     26969     26971
     26968     26965     26969     26972     26968     26966     26976     26972
     26968     26966     26976     26977     26968     26966     26976     26978
     26968     26966     26980     26981     26968     26966     26980     26982
     26968     26966     26980     26984     26969     26972     26974     26975
     26969     26972     26976     26977     26969     26972     26976     26978
     26970     26969     26972     26973     26970     26969     26972     26974
     26970     26969     26972     26976     26971     26969     26972     26973
     26971     26969     26972     26974     26971     26969     26972     26976
     26972     26976     26966     26980     26972     26976     26978     26979
     26973     26972     26974     26975     26973     26972     26976     26977
     26973     26972     26976     26978     26974     26972     26976     26977
     26974     26972     26976     26978     26975     26974     26972     26976
     26976     26966     26980     26981     26976     26966     26980     26982
     26976     26966     26980     26984     26977     26976     26966     26980
     26977     26976     26978     26979     26978     26976     26966     26980
     26980     26984     26987     26988     26981     26980     26982     26983
     26981     26980     26984     26985     26981     26980     26984     26986
     26981     26980     26984     26987     26982     26980     26984     26985
     26982     26980     26984     26986     26982     26980     26984     26987
     26983     26982     26980     26984     26985     26984     26987     26988
     26986     26984     26987     26988     26989     26993     26991     26992
     26989     26993     26991     27001     26989     26993     26991     27008
     26989     26994     26996     26997     26989     26994     26998     26999
     26989     26994     26998     27000     26989     26994     26998     27001
     26990     26989     26993     26991     26990     26989     26994     26995
     26990     26989     26994     26996     26990     26989     26994     26998
     26991     26993     26989     26994     26991     27001     26998     26994
     26991     27001     26998     26999     26991     27001     26998     27000
     26991     27001     27003     27004     26991     27008     27010     27011
     26991     27008     27012     27013     26991     27008     27012     27014
     26991     27008     27012     27015     26992     26991     27001     26998
     26992     26991     27001     27002     26992     26991     27001     27003
     26992     26991     27008     27009     26992     26991     27008     27010
     26992     26991     27008     27012     26993     26989     26994     26995
     26993     26989     26994     26996     26993     26989     26994     26998
     26993     26991     27001     26998     26993     26991     27001     27002
     26993     26991     27001     27003     26993     26991     27008     27009
     26993     26991     27008     27010     26993     26991     27008     27012
     26994     26998     27000     27017     26994     26998     27001     27002
     26994     26998     27001     27003     26995     26994     26996     26997
     26995     26994     26998     26999     26995     26994     26998     27000
     26995     26994     26998     27001     26996     26994     26998     26999
     26996     26994     26998     27000     26996     26994     26998     27001
     26997     26996     26994     26998     26998     27000     27017     27018
     26998     27000     27017     27021     26998     27000     27017     27022
     26998     27001     26991     27008     26998     27001     27003     27004
     26999     26998     27000     27017     26999     26998     27001     27002
     26999     26998     27001     27003     27000     26998     27001     27002
     27000     26998     27001     27003     27000     27017     27021     27019
     27000     27017     27022     27023     27000     27017     27022     27024
     27000     27017     27022     27026     27001     26991     27008     27009
     27001     26991     27008     27010     27001     26991     27008     27012
     27001     26998     27000     27017     27001     27003     27004     27005
     27001     27003     27004     27006     27001     27003     27004     27007
     27002     27001     26991     27008     27002     27001     27003     27004
     27003     27001     26991     27008     27008     27012     27015     27016
     27009     27008     27010     27011     27009     27008     27012     27013
     27009     27008     27012     27014     27009     27008     27012     27015
     27010     27008     27012     27013     27010     27008     27012     27014
     27010     27008     27012     27015     27011     27010     27008     27012
     27013     27012     27015     27016     27014     27012     27015     27016
     27017     27021     27019     27020     27017     27021     27019     27029
     27017     27021     27019     27036     27017     27022     27024     27025
     27017     27022     27026     27027     27017     27022     27026     27028
     27017     27022     27026     27029     27018     27017     27021     27019
     27018     27017     27022     27023     27018     27017     27022     27024
     27018     27017     27022     27026     27019     27021     27017     27022
     27019     27029     27026     27022     27019     27029     27026     27027
     27019     27029     27026     27028     27019     27029     27031     27032
     27019     27036     27038     27039     27019     27036     27040     27041
     27019     27036     27040     27042     27019     27036     27040     27043
     27020     27019     27029     27026     27020     27019     27029     27030
     27020     27019     27029     27031     27020     27019     27036     27037
     27020     27019     27036     27038     27020     27019     27036     27040
     27021     27017     27022     27023     27021     27017     27022     27024
     27021     27017     27022     27026     27021     27019     27029     27026
     27021     27019     27029     27030     27021     27019     27029     27031
     27021     27019     27036     27037     27021     27019     27036     27038
     27021     27019     27036     27040     27022     27026     27028     27070
     27022     27026     27029     27030     27022     27026     27029     27031
     27023     27022     27024     27025     27023     27022     27026     27027
     27023     27022     27026     27028     27023     27022     27026     27029
     27024     27022     27026     27027     27024     27022     27026     27028
     27024     27022     27026     27029     27025     27024     27022     27026
     27026     27028     27070     27071     27026     27028     27070     27074
     27026     27028     27070     27075     27026     27029     27019     27036
     27026     27029     27031     27032     27027     27026     27028     27070
     27027     27026     27029     27030     27027     27026     27029     27031
     27028     27026     27029     27030     27028     27026     27029     27031
     27028     27070     27074     27072     27028     27070     27075     27076
     27028     27070     27075     27077     27028     27070     27075     27079
     27029     27019     27036     27037     27029     27019     27036     27038
     27029     27019     27036     27040     27029     27026     27028     27070
     27029     27031     27032     27033     27029     27031     27032     27034
     27029     27031     27032     27035     27030     27029     27019     27036
     27030     27029     27031     27032     27031     27029     27019     27036
     27036     27040     27043     27044     27037     27036     27038     27039
     27037     27036     27040     27041     27037     27036     27040     27042
     27037     27036     27040     27043     27038     27036     27040     27041
     27038     27036     27040     27042     27038     27036     27040     27043
     27039     27038     27036     27040     27040     27043     27044     27045
     27040     27043     27044     27048     27040     27043     27044     27049
     27041     27040     27043     27044     27042     27040     27043     27044
     27043     27044     27048     27046     27043     27044     27049     27050
     27043     27044     27049     27051     27043     27044     27049     27053
     27044     27048     27046     27047     27044     27048     27046     27057
     27044     27048     27046     27061     27044     27049     27051     27052
     27044     27049     27053     27054     27044     27049     27053     27055
     27044     27049     27053     27057     27045     27044     27048     27046
     27045     27044     27049     27050     27045     27044     27049     27051
     27045     27044     27049     27053     27046     27048     27044     27049
     27046     27057     27053     27049     27046     27057     27053     27054
     27046     27057     27053     27055     27046     27057     27059     27060
     27046     27061     27063     27064     27046     27061     27065     27066
     27046     27061     27065     27067     27046     27061     27065     27068
     27047     27046     27057     27053     27047     27046     27057     27058
     27047     27046     27057     27059     27047     27046     27061     27062
     27047     27046     27061     27063     27047     27046     27061     27065
     27048     27044     27049     27050     27048     27044     27049     27051
     27048     27044     27049     27053     27048     27046     27057     27053
     27048     27046     27057     27058     27048     27046     27057     27059
     27048     27046     27061     27062     27048     27046     27061     27063
     27048     27046     27061     27065     27049     27053     27055     27056
     27049     27053     27057     27058     27049     27053     27057     27059
     27050     27049     27051     27052     27050     27049     27053     27054
     27050     27049     27053     27055     27050     27049     27053     27057
     27051     27049     27053     27054     27051     27049     27053     27055
     27051     27049     27053     27057     27052     27051     27049     27053
     27053     27057     27046     27061     27053     27057     27059     27060
     27054     27053     27055     27056     27054     27053     27057     27058
     27054     27053     27057     27059     27055     27053     27057     27058
     27055     27053     27057     27059     27056     27055     27053     27057
     27057     27046     27061     27062     27057     27046     27061     27063
     27057     27046     27061     27065     27058     27057     27046     27061
     27058     27057     27059     27060     27059     27057     27046     27061
     27061     27065     27068     27069     27062     27061     27063     27064
     27062     27061     27065     27066     27062     27061     27065     27067
     27062     27061     27065     27068     27063     27061     27065     27066
     27063     27061     27065     27067     27063     27061     27065     27068
     27064     27063     27061     27065     27066     27065     27068     27069
     27067     27065     27068     27069     27070     27074     27072     27073
     27070     27074     27072     27082     27070     27074     27072     27086
     27070     27075     27077     27078     27070     27075     27079     27080
     27070     27075     27079     27081     27070     27075     27079     27082
     27071     27070     27074     27072     27071     27070     27075     27076
     27071     27070     27075     27077     27071     27070     27075     27079
     27072     27074     27070     27075     27072     27082     27079     27075
     27072     27082     27079     27080     27072     27082     27079     27081
     27072     27082     27084     27085     27072     27086     27089     27090
     27073     27072     27082     27079     27073     27072     27082     27083
     27073     27072     27082     27084     27073     27072     27086     27087
     27073     27072     27086     27088     27073     27072     27086     27089
     27074     27070     27075     27076     27074     27070     27075     27077
     27074     27070     27075     27079     27074     27072     27082     27079
     27074     27072     27082     27083     27074     27072     27082     27084
     27074     27072     27086     27087     27074     27072     27086     27088
     27074     27072     27086     27089     27075     27079     27081     27091
     27075     27079     27082     27083     27075     27079     27082     27084
     27076     27075     27077     27078     27076     27075     27079     27080
     27076     27075     27079     27081     27076     27075     27079     27082
     27077     27075     27079     27080     27077     27075     27079     27081
     27077     27075     27079     27082     27078     27077     27075     27079
     27079     27081     27091     27092     27079     27081     27091     27095
     27079     27081     27091     27096     27079     27082     27072     27086
     27079     27082     27084     27085     27080     27079     27081     27091
     27080     27079     27082     27083     27080     27079     27082     27084
     27081     27079     27082     27083     27081     27079     27082     27084
     27081     27091     27095     27093     27081     27091     27096     27097
     27081     27091     27096     27098     27081     27091     27096     27099
     27082     27072     27086     27087     27082     27072     27086     27088
     27082     27072     27086     27089     27082     27079     27081     27091
     27083     27082     27072     27086     27083     27082     27084     27085
     27084     27082     27072     27086     27087     27086     27089     27090
     27088     27086     27089     27090     27091     27095     27093     27094
     27091     27095     27093     27102     27091     27095     27093     27106
     27091     27096     27098     27111     27091     27096     27099     27100
     27091     27096     27099     27101     27091     27096     27099     27102
     27092     27091     27095     27093     27092     27091     27096     27097
     27092     27091     27096     27098     27092     27091     27096     27099
     27093     27095     27091     27096     27093     27102     27099     27096
     27093     27102     27099     27100     27093     27102     27099     27101
     27093     27102     27104     27105     27093     27106     27109     27110
     27094     27093     27102     27099     27094     27093     27102     27103
     27094     27093     27102     27104     27094     27093     27106     27107
     27094     27093     27106     27108     27094     27093     27106     27109
     27095     27091     27096     27097     27095     27091     27096     27098
     27095     27091     27096     27099     27095     27093     27102     27099
     27095     27093     27102     27103     27095     27093     27102     27104
     27095     27093     27106     27107     27095     27093     27106     27108
     27095     27093     27106     27109     27096     27098     27111     27112
     27096     27098     27111     27115     27096     27098     27111     27116
     27096     27099     27101     27154     27096     27099     27102     27103
     27096     27099     27102     27104     27097     27096     27098     27111
     27097     27096     27099     27100     27097     27096     27099     27101
     27097     27096     27099     27102     27098     27096     27099     27100
     27098     27096     27099     27101     27098     27096     27099     27102
     27098     27111     27115     27113     27098     27111     27116     27117
     27098     27111     27116     27118     27098     27111     27116     27119
     27099     27096     27098     27111     27099     27101     27154     27155
     27099     27101     27154     27158     27099     27101     27154     27159
     27099     27102     27093     27106     27099     27102     27104     27105
     27100     27099     27101     27154     27100     27099     27102     27103
     27100     27099     27102     27104     27101     27099     27102     27103
     27101     27099     27102     27104     27101     27154     27158     27156
     27101     27154     27159     27160     27101     27154     27159     27161
     27101     27154     27159     27163     27102     27093     27106     27107
     27102     27093     27106     27108     27102     27093     27106     27109
     27102     27099     27101     27154     27103     27102     27093     27106
     27103     27102     27104     27105     27104     27102     27093     27106
     27107     27106     27109     27110     27108     27106     27109     27110
     27111     27115     27113     27114     27111     27115     27113     27123
     27111     27115     27113     27127     27111     27116     27118     27132
     27111     27116     27119     27120     27111     27116     27119     27121
     27111     27116     27119     27123     27112     27111     27115     27113
     27112     27111     27116     27117     27112     27111     27116     27118
     27112     27111     27116     27119     27113     27115     27111     27116
     27113     27123     27119     27116     27113     27123     27119     27120
     27113     27123     27119     27121     27113     27123     27125     27126
     27113     27127     27130     27131     27114     27113     27123     27119
     27114     27113     27123     27124     27114     27113     27123     27125
     27114     27113     27127     27128     27114     27113     27127     27129
     27114     27113     27127     27130     27115     27111     27116     27117
     27115     27111     27116     27118     27115     27111     27116     27119
     27115     27113     27123     27119     27115     27113     27123     27124
     27115     27113     27123     27125     27115     27113     27127     27128
     27115     27113     27127     27129     27115     27113     27127     27130
     27116     27118     27132     27133     27116     27118     27132     27136
     27116     27118     27132     27137     27116     27119     27121     27122
     27116     27119     27123     27124     27116     27119     27123     27125
     27117     27116     27118     27132     27117     27116     27119     27120
     27117     27116     27119     27121     27117     27116     27119     27123
     27118     27116     27119     27120     27118     27116     27119     27121
     27118     27116     27119     27123     27118     27132     27136     27134
     27118     27132     27137     27138     27118     27132     27137     27139
     27118     27132     27137     27141     27119     27116     27118     27132
     27119     27123     27113     27127     27119     27123     27125     27126
     27120     27119     27121     27122     27120     27119     27123     27124
     27120     27119     27123     27125     27121     27119     27123     27124
     27121     27119     27123     27125     27122     27121     27119     27123
     27123     27113     27127     27128     27123     27113     27127     27129
     27123     27113     27127     27130     27124     27123     27113     27127
     27124     27123     27125     27126     27125     27123     27113     27127
     27128     27127     27130     27131     27129     27127     27130     27131
     27132     27136     27134     27135     27132     27136     27134     27145
     27132     27136     27134     27149     27132     27137     27139     27140
     27132     27137     27141     27142     27132     27137     27141     27143
     27132     27137     27141     27145     27133     27132     27136     27134
     27133     27132     27137     27138     27133     27132     27137     27139
     27133     27132     27137     27141     27134     27136     27132     27137
     27134     27145     27141     27137     27134     27145     27141     27142
     27134     27145     27141     27143     27134     27145     27147     27148
     27134     27149     27152     27153     27135     27134     27145     27141
     27135     27134     27145     27146     27135     27134     27145     27147
     27135     27134     27149     27150     27135     27134     27149     27151
     27135     27134     27149     27152     27136     27132     27137     27138
     27136     27132     27137     27139     27136     27132     27137     27141
     27136     27134     27145     27141     27136     27134     27145     27146
     27136     27134     27145     27147     27136     27134     27149     27150
     27136     27134     27149     27151     27136     27134     27149     27152
     27137     27141     27143     27144     27137     27141     27145     27146
     27137     27141     27145     27147     27138     27137     27139     27140
     27138     27137     27141     27142     27138     27137     27141     27143
     27138     27137     27141     27145     27139     27137     27141     27142
     27139     27137     27141     27143     27139     27137     27141     27145
     27140     27139     27137     27141     27141     27145     27134     27149
     27141     27145     27147     27148     27142     27141     27143     27144
     27142     27141     27145     27146     27142     27141     27145     27147
     27143     27141     27145     27146     27143     27141     27145     27147
     27144     27143     27141     27145     27145     27134     27149     27150
     27145     27134     27149     27151     27145     27134     27149     27152
     27146     27145     27134     27149     27146     27145     27147     27148
     27147     27145     27134     27149     27150     27149     27152     27153
     27151     27149     27152     27153     27154     27158     27156     27157
     27154     27158     27156     27166     27154     27158     27156     27170
     27154     27159     27161     27162     27154     27159     27163     27164
     27154     27159     27163     27165     27154     27159     27163     27166
     27155     27154     27158     27156     27155     27154     27159     27160
     27155     27154     27159     27161     27155     27154     27159     27163
     27156     27158     27154     27159     27156     27166     27163     27159
     27156     27166     27163     27164     27156     27166     27163     27165
     27156     27166     27168     27169     27156     27170     27173     27174
     27157     27156     27166     27163     27157     27156     27166     27167
     27157     27156     27166     27168     27157     27156     27170     27171
     27157     27156     27170     27172     27157     27156     27170     27173
     27158     27154     27159     27160     27158     27154     27159     27161
     27158     27154     27159     27163     27158     27156     27166     27163
     27158     27156     27166     27167     27158     27156     27166     27168
     27158     27156     27170     27171     27158     27156     27170     27172
     27158     27156     27170     27173     27159     27163     27165     27175
     27159     27163     27166     27167     27159     27163     27166     27168
     27160     27159     27161     27162     27160     27159     27163     27164
     27160     27159     27163     27165     27160     27159     27163     27166
     27161     27159     27163     27164     27161     27159     27163     27165
     27161     27159     27163     27166     27162     27161     27159     27163
     27163     27165     27175     27176     27163     27165     27175     27179
     27163     27165     27175     27180     27163     27166     27156     27170
     27163     27166     27168     27169     27164     27163     27165     27175
     27164     27163     27166     27167     27164     27163     27166     27168
     27165     27163     27166     27167     27165     27163     27166     27168
     27165     27175     27179     27177     27165     27175     27180     27181
     27165     27175     27180     27182     27165     27175     27180     27190
     27166     27156     27170     27171     27166     27156     27170     27172
     27166     27156     27170     27173     27166     27163     27165     27175
     27167     27166     27156     27170     27167     27166     27168     27169
     27168     27166     27156     27170     27171     27170     27173     27174
     27172     27170     27173     27174     27175     27179     27177     27178
     27175     27179     27177     27193     27175     27179     27177     27197
     27175     27180     27182     27183     27175     27180     27182     27184
     27175     27180     27190     27191     27175     27180     27190     27192
     27175     27180     27190     27193     27176     27175     27179     27177
     27176     27175     27180     27181     27176     27175     27180     27182
     27176     27175     27180     27190     27177     27179     27175     27180
     27177     27193     27190     27180     27177     27193     27190     27191
     27177     27193     27190     27192     27177     27193     27195     27196
     27177     27197     27200     27201     27178     27177     27193     27190
     27178     27177     27193     27194     27178     27177     27193     27195
     27178     27177     27197     27198     27178     27177     27197     27199
     27178     27177     27197     27200     27179     27175     27180     27181
     27179     27175     27180     27182     27179     27175     27180     27190
     27179     27177     27193     27190     27179     27177     27193     27194
     27179     27177     27193     27195     27179     27177     27197     27198
     27179     27177     27197     27199     27179     27177     27197     27200
     27180     27182     27184     27185     27180     27182     27184     27186
     27180     27190     27192     27202     27180     27190     27193     27194
     27180     27190     27193     27195     27181     27180     27182     27183
     27181     27180     27182     27184     27181     27180     27190     27191
     27181     27180     27190     27192     27181     27180     27190     27193
     27182     27180     27190     27191     27182     27180     27190     27192
     27182     27180     27190     27193     27182     27184     27186     27187
     27182     27184     27186     27188     27182     27184     27186     27189
     27183     27182     27180     27190     27183     27182     27184     27185
     27183     27182     27184     27186     27184     27182     27180     27190
     27185     27184     27186     27187     27185     27184     27186     27188
     27185     27184     27186     27189     27190     27192     27202     27203
     27190     27192     27202     27206     27190     27192     27202     27207
     27190     27193     27177     27197     27190     27193     27195     27196
     27191     27190     27192     27202     27191     27190     27193     27194
     27191     27190     27193     27195     27192     27190     27193     27194
     27192     27190     27193     27195     27192     27202     27206     27204
     27192     27202     27207     27208     27192     27202     27207     27209
     27192     27202     27207     27210     27193     27177     27197     27198
     27193     27177     27197     27199     27193     27177     27197     27200
     27193     27190     27192     27202     27194     27193     27177     27197
     27194     27193     27195     27196     27195     27193     27177     27197
     27198     27197     27200     27201     27199     27197     27200     27201
     27202     27206     27204     27205     27202     27206     27204     27214
     27202     27206     27204     27218     27202     27207     27209     27223
     27202     27207     27210     27211     27202     27207     27210     27212
     27202     27207     27210     27214     27203     27202     27206     27204
     27203     27202     27207     27208     27203     27202     27207     27209
     27203     27202     27207     27210     27204     27206     27202     27207
     27204     27214     27210     27207     27204     27214     27210     27211
     27204     27214     27210     27212     27204     27214     27216     27217
     27204     27218     27221     27222     27205     27204     27214     27210
     27205     27204     27214     27215     27205     27204     27214     27216
     27205     27204     27218     27219     27205     27204     27218     27220
     27205     27204     27218     27221     27206     27202     27207     27208
     27206     27202     27207     27209     27206     27202     27207     27210
     27206     27204     27214     27210     27206     27204     27214     27215
     27206     27204     27214     27216     27206     27204     27218     27219
     27206     27204     27218     27220     27206     27204     27218     27221
     27207     27209     27223     27224     27207     27209     27223     27227
     27207     27209     27223     27228     27207     27210     27212     27213
     27207     27210     27214     27215     27207     27210     27214     27216
     27208     27207     27209     27223     27208     27207     27210     27211
     27208     27207     27210     27212     27208     27207     27210     27214
     27209     27207     27210     27211     27209     27207     27210     27212
     27209     27207     27210     27214     27209     27223     27227     27225
     27209     27223     27228     27229     27209     27223     27228     27230
     27209     27223     27228     27231     27210     27207     27209     27223
     27210     27214     27204     27218     27210     27214     27216     27217
     27211     27210     27212     27213     27211     27210     27214     27215
     27211     27210     27214     27216     27212     27210     27214     27215
     27212     27210     27214     27216     27213     27212     27210     27214
     27214     27204     27218     27219     27214     27204     27218     27220
     27214     27204     27218     27221     27215     27214     27204     27218
     27215     27214     27216     27217     27216     27214     27204     27218
     27219     27218     27221     27222     27220     27218     27221     27222
     27223     27227     27225     27226     27223     27227     27225     27235
     27223     27227     27225     27239     27223     27228     27230     27243
     27223     27228     27231     27232     27223     27228     27231     27233
     27223     27228     27231     27235     27224     27223     27227     27225
     27224     27223     27228     27229     27224     27223     27228     27230
     27224     27223     27228     27231     27225     27227     27223     27228
     27225     27235     27231     27228     27225     27235     27231     27232
     27225     27235     27231     27233     27225     27235     27237     27238
     27226     27225     27235     27231     27226     27225     27235     27236
     27226     27225     27235     27237     27226     27225     27239     27240
     27226     27225     27239     27241     27226     27225     27239     27242
     27227     27223     27228     27229     27227     27223     27228     27230
     27227     27223     27228     27231     27227     27225     27235     27231
     27227     27225     27235     27236     27227     27225     27235     27237
     27227     27225     27239     27240     27227     27225     27239     27241
     27227     27225     27239     27242     27228     27230     27243     27244
     27228     27230     27243     27247     27228     27230     27243     27248
     27228     27231     27233     27234     27228     27231     27235     27236
     27228     27231     27235     27237     27229     27228     27230     27243
     27229     27228     27231     27232     27229     27228     27231     27233
     27229     27228     27231     27235     27230     27228     27231     27232
     27230     27228     27231     27233     27230     27228     27231     27235
     27230     27243     27247     27245     27230     27243     27248     27249
     27230     27243     27248     27250     27230     27243     27248     27251
     27231     27228     27230     27243     27231     27235     27225     27239
     27231     27235     27237     27238     27232     27231     27233     27234
     27232     27231     27235     27236     27232     27231     27235     27237
     27233     27231     27235     27236     27233     27231     27235     27237
     27234     27233     27231     27235     27235     27225     27239     27240
     27235     27225     27239     27241     27235     27225     27239     27242
     27236     27235     27225     27239     27236     27235     27237     27238
     27237     27235     27225     27239     27243     27247     27245     27246
     27243     27247     27245     27254     27243     27247     27245     27258
     27243     27248     27250     27262     27243     27248     27251     27252
     27243     27248     27251     27253     27243     27248     27251     27254
     27244     27243     27247     27245     27244     27243     27248     27249
     27244     27243     27248     27250     27244     27243     27248     27251
     27245     27247     27243     27248     27245     27254     27251     27248
     27245     27254     27251     27252     27245     27254     27251     27253
     27245     27254     27256     27257     27246     27245     27254     27251
     27246     27245     27254     27255     27246     27245     27254     27256
     27246     27245     27258     27259     27246     27245     27258     27260
     27246     27245     27258     27261     27247     27243     27248     27249
     27247     27243     27248     27250     27247     27243     27248     27251
     27247     27245     27254     27251     27247     27245     27254     27255
     27247     27245     27254     27256     27247     27245     27258     27259
     27247     27245     27258     27260     27247     27245     27258     27261
     27248     27250     27262     27263     27248     27250     27262     27266
     27248     27250     27262     27267     27248     27251     27253     27290
     27248     27251     27254     27255     27248     27251     27254     27256
     27249     27248     27250     27262     27249     27248     27251     27252
     27249     27248     27251     27253     27249     27248     27251     27254
     27250     27248     27251     27252     27250     27248     27251     27253
     27250     27248     27251     27254     27250     27262     27266     27264
     27250     27262     27267     27268     27250     27262     27267     27269
     27250     27262     27267     27277     27251     27248     27250     27262
     27251     27253     27290     27291     27251     27253     27290     27294
     27251     27253     27290     27295     27251     27254     27245     27258
     27251     27254     27256     27257     27252     27251     27253     27290
     27252     27251     27254     27255     27252     27251     27254     27256
     27253     27251     27254     27255     27253     27251     27254     27256
     27253     27290     27294     27292     27253     27290     27295     27296
     27253     27290     27295     27297     27253     27290     27295     27305
     27254     27245     27258     27259     27254     27245     27258     27260
     27254     27245     27258     27261     27254     27251     27253     27290
     27255     27254     27245     27258     27255     27254     27256     27257
     27256     27254     27245     27258     27262     27266     27264     27265
     27262     27266     27264     27281     27262     27266     27264     27285
     27262     27267     27269     27270     27262     27267     27269     27271
     27262     27267     27277     27278     27262     27267     27277     27279
     27262     27267     27277     27281     27263     27262     27266     27264
     27263     27262     27267     27268     27263     27262     27267     27269
     27263     27262     27267     27277     27264     27266     27262     27267
     27264     27281     27277     27267     27264     27281     27277     27278
     27264     27281     27277     27279     27264     27281     27283     27284
     27264     27285     27288     27289     27265     27264     27281     27277
     27265     27264     27281     27282     27265     27264     27281     27283
     27265     27264     27285     27286     27265     27264     27285     27287
     27265     27264     27285     27288     27266     27262     27267     27268
     27266     27262     27267     27269     27266     27262     27267     27277
     27266     27264     27281     27277     27266     27264     27281     27282
     27266     27264     27281     27283     27266     27264     27285     27286
     27266     27264     27285     27287     27266     27264     27285     27288
     27267     27269     27271     27272     27267     27269     27271     27273
     27267     27277     27279     27280     27267     27277     27281     27282
     27267     27277     27281     27283     27268     27267     27269     27270
     27268     27267     27269     27271     27268     27267     27277     27278
     27268     27267     27277     27279     27268     27267     27277     27281
     27269     27267     27277     27278     27269     27267     27277     27279
     27269     27267     27277     27281     27269     27271     27273     27274
     27269     27271     27273     27275     27269     27271     27273     27276
     27270     27269     27267     27277     27270     27269     27271     27272
     27270     27269     27271     27273     27271     27269     27267     27277
     27272     27271     27273     27274     27272     27271     27273     27275
     27272     27271     27273     27276     27277     27281     27264     27285
     27277     27281     27283     27284     27278     27277     27279     27280
     27278     27277     27281     27282     27278     27277     27281     27283
     27279     27277     27281     27282     27279     27277     27281     27283
     27280     27279     27277     27281     27281     27264     27285     27286
     27281     27264     27285     27287     27281     27264     27285     27288
     27282     27281     27264     27285     27282     27281     27283     27284
     27283     27281     27264     27285     27286     27285     27288     27289
     27287     27285     27288     27289     27290     27294     27292     27293
     27290     27294     27292     27308     27290     27294     27292     27312
     27290     27295     27297     27298     27290     27295     27297     27299
     27290     27295     27305     27306     27290     27295     27305     27307
     27290     27295     27305     27308     27291     27290     27294     27292
     27291     27290     27295     27296     27291     27290     27295     27297
     27291     27290     27295     27305     27292     27294     27290     27295
     27292     27308     27305     27295     27292     27308     27305     27306
     27292     27308     27305     27307     27292     27308     27310     27311
     27292     27312     27315     27316     27293     27292     27308     27305
     27293     27292     27308     27309     27293     27292     27308     27310
     27293     27292     27312     27313     27293     27292     27312     27314
     27293     27292     27312     27315     27294     27290     27295     27296
     27294     27290     27295     27297     27294     27290     27295     27305
     27294     27292     27308     27305     27294     27292     27308     27309
     27294     27292     27308     27310     27294     27292     27312     27313
     27294     27292     27312     27314     27294     27292     27312     27315
     27295     27297     27299     27300     27295     27297     27299     27301
     27295     27305     27307     27317     27295     27305     27308     27309
     27295     27305     27308     27310     27296     27295     27297     27298
     27296     27295     27297     27299     27296     27295     27305     27306
     27296     27295     27305     27307     27296     27295     27305     27308
     27297     27295     27305     27306     27297     27295     27305     27307
     27297     27295     27305     27308     27297     27299     27301     27302
     27297     27299     27301     27303     27297     27299     27301     27304
     27298     27297     27295     27305     27298     27297     27299     27300
     27298     27297     27299     27301     27299     27297     27295     27305
     27300     27299     27301     27302     27300     27299     27301     27303
     27300     27299     27301     27304     27305     27307     27317     27318
     27305     27307     27317     27321     27305     27307     27317     27322
     27305     27308     27292     27312     27305     27308     27310     27311
     27306     27305     27307     27317     27306     27305     27308     27309
     27306     27305     27308     27310     27307     27305     27308     27309
     27307     27305     27308     27310     27307     27317     27321     27319
     27307     27317     27322     27323     27307     27317     27322     27324
     27307     27317     27322     27325     27308     27292     27312     27313
     27308     27292     27312     27314     27308     27292     27312     27315
     27308     27305     27307     27317     27309     27308     27292     27312
     27309     27308     27310     27311     27310     27308     27292     27312
     27313     27312     27315     27316     27314     27312     27315     27316
     27317     27321     27319     27320     27317     27321     27319     27329
     27317     27321     27319     27333     27317     27322     27324     27338
     27317     27322     27325     27326     27317     27322     27325     27327
     27317     27322     27325     27329     27318     27317     27321     27319
     27318     27317     27322     27323     27318     27317     27322     27324
     27318     27317     27322     27325     27319     27321     27317     27322
     27319     27329     27325     27322     27319     27329     27325     27326
     27319     27329     27325     27327     27319     27329     27331     27332
     27319     27333     27336     27337     27320     27319     27329     27325
     27320     27319     27329     27330     27320     27319     27329     27331
     27320     27319     27333     27334     27320     27319     27333     27335
     27320     27319     27333     27336     27321     27317     27322     27323
     27321     27317     27322     27324     27321     27317     27322     27325
     27321     27319     27329     27325     27321     27319     27329     27330
     27321     27319     27329     27331     27321     27319     27333     27334
     27321     27319     27333     27335     27321     27319     27333     27336
     27322     27324     27338     27339     27322     27324     27338     27342
     27322     27324     27338     27343     27322     27325     27327     27328
     27322     27325     27329     27330     27322     27325     27329     27331
     27323     27322     27324     27338     27323     27322     27325     27326
     27323     27322     27325     27327     27323     27322     27325     27329
     27324     27322     27325     27326     27324     27322     27325     27327
     27324     27322     27325     27329     27324     27338     27342     27340
     27324     27338     27343     27344     27324     27338     27343     27345
     27324     27338     27343     27346     27325     27322     27324     27338
     27325     27329     27319     27333     27325     27329     27331     27332
     27326     27325     27327     27328     27326     27325     27329     27330
     27326     27325     27329     27331     27327     27325     27329     27330
     27327     27325     27329     27331     27328     27327     27325     27329
     27329     27319     27333     27334     27329     27319     27333     27335
     27329     27319     27333     27336     27330     27329     27319     27333
     27330     27329     27331     27332     27331     27329     27319     27333
     27334     27333     27336     27337     27335     27333     27336     27337
     27338     27342     27340     27341     27338     27342     27340     27350
     27338     27342     27340     27354     27338     27343     27345     27358
     27338     27343     27346     27347     27338     27343     27346     27348
     27338     27343     27346     27350     27339     27338     27342     27340
     27339     27338     27343     27344     27339     27338     27343     27345
     27339     27338     27343     27346     27340     27342     27338     27343
     27340     27350     27346     27343     27340     27350     27346     27347
     27340     27350     27346     27348     27340     27350     27352     27353
     27341     27340     27350     27346     27341     27340     27350     27351
     27341     27340     27350     27352     27341     27340     27354     27355
     27341     27340     27354     27356     27341     27340     27354     27357
     27342     27338     27343     27344     27342     27338     27343     27345
     27342     27338     27343     27346     27342     27340     27350     27346
     27342     27340     27350     27351     27342     27340     27350     27352
     27342     27340     27354     27355     27342     27340     27354     27356
     27342     27340     27354     27357     27343     27345     27358     27359
     27343     27345     27358     27362     27343     27345     27358     27363
     27343     27346     27348     27349     27343     27346     27350     27351
     27343     27346     27350     27352     27344     27343     27345     27358
     27344     27343     27346     27347     27344     27343     27346     27348
     27344     27343     27346     27350     27345     27343     27346     27347
     27345     27343     27346     27348     27345     27343     27346     27350
     27345     27358     27362     27360     27345     27358     27363     27364
     27345     27358     27363     27365     27345     27358     27363     27366
     27346     27343     27345     27358     27346     27350     27340     27354
     27346     27350     27352     27353     27347     27346     27348     27349
     27347     27346     27350     27351     27347     27346     27350     27352
     27348     27346     27350     27351     27348     27346     27350     27352
     27349     27348     27346     27350     27350     27340     27354     27355
     27350     27340     27354     27356     27350     27340     27354     27357
     27351     27350     27340     27354     27351     27350     27352     27353
     27352     27350     27340     27354     27358     27362     27360     27361
     27358     27362     27360     27369     27358     27362     27360     27373
     27358     27363     27365     27377     27358     27363     27366     27367
     27358     27363     27366     27368     27358     27363     27366     27369
     27359     27358     27362     27360     27359     27358     27363     27364
     27359     27358     27363     27365     27359     27358     27363     27366
     27360     27362     27358     27363     27360     27369     27366     27363
     27360     27369     27366     27367     27360     27369     27366     27368
     27360     27369     27371     27372     27361     27360     27369     27366
     27361     27360     27369     27370     27361     27360     27369     27371
     27361     27360     27373     27374     27361     27360     27373     27375
     27361     27360     27373     27376     27362     27358     27363     27364
     27362     27358     27363     27365     27362     27358     27363     27366
     27362     27360     27369     27366     27362     27360     27369     27370
     27362     27360     27369     27371     27362     27360     27373     27374
     27362     27360     27373     27375     27362     27360     27373     27376
     27363     27365     27377     27378     27363     27365     27377     27381
     27363     27365     27377     27382     27363     27366     27368     27405
     27363     27366     27369     27370     27363     27366     27369     27371
     27364     27363     27365     27377     27364     27363     27366     27367
     27364     27363     27366     27368     27364     27363     27366     27369
     27365     27363     27366     27367     27365     27363     27366     27368
     27365     27363     27366     27369     27365     27377     27381     27379
     27365     27377     27382     27383     27365     27377     27382     27384
     27365     27377     27382     27392     27366     27363     27365     27377
     27366     27368     27405     27406     27366     27368     27405     27409
     27366     27368     27405     27410     27366     27369     27360     27373
     27366     27369     27371     27372     27367     27366     27368     27405
     27367     27366     27369     27370     27367     27366     27369     27371
     27368     27366     27369     27370     27368     27366     27369     27371
     27368     27405     27409     27407     27368     27405     27410     27411
     27368     27405     27410     27412     27368     27405     27410     27420
     27369     27360     27373     27374     27369     27360     27373     27375
     27369     27360     27373     27376     27369     27366     27368     27405
     27370     27369     27360     27373     27370     27369     27371     27372
     27371     27369     27360     27373     27377     27381     27379     27380
     27377     27381     27379     27396     27377     27381     27379     27400
     27377     27382     27384     27385     27377     27382     27384     27386
     27377     27382     27392     27393     27377     27382     27392     27394
     27377     27382     27392     27396     27378     27377     27381     27379
     27378     27377     27382     27383     27378     27377     27382     27384
     27378     27377     27382     27392     27379     27381     27377     27382
     27379     27396     27392     27382     27379     27396     27392     27393
     27379     27396     27392     27394     27379     27396     27398     27399
     27379     27400     27403     27404     27380     27379     27396     27392
     27380     27379     27396     27397     27380     27379     27396     27398
     27380     27379     27400     27401     27380     27379     27400     27402
     27380     27379     27400     27403     27381     27377     27382     27383
     27381     27377     27382     27384     27381     27377     27382     27392
     27381     27379     27396     27392     27381     27379     27396     27397
     27381     27379     27396     27398     27381     27379     27400     27401
     27381     27379     27400     27402     27381     27379     27400     27403
     27382     27384     27386     27387     27382     27384     27386     27388
     27382     27392     27394     27395     27382     27392     27396     27397
     27382     27392     27396     27398     27383     27382     27384     27385
     27383     27382     27384     27386     27383     27382     27392     27393
     27383     27382     27392     27394     27383     27382     27392     27396
     27384     27382     27392     27393     27384     27382     27392     27394
     27384     27382     27392     27396     27384     27386     27388     27389
     27384     27386     27388     27390     27384     27386     27388     27391
     27385     27384     27382     27392     27385     27384     27386     27387
     27385     27384     27386     27388     27386     27384     27382     27392
     27387     27386     27388     27389     27387     27386     27388     27390
     27387     27386     27388     27391     27392     27396     27379     27400
     27392     27396     27398     27399     27393     27392     27394     27395
     27393     27392     27396     27397     27393     27392     27396     27398
     27394     27392     27396     27397     27394     27392     27396     27398
     27395     27394     27392     27396     27396     27379     27400     27401
     27396     27379     27400     27402     27396     27379     27400     27403
     27397     27396     27379     27400     27397     27396     27398     27399
     27398     27396     27379     27400     27401     27400     27403     27404
     27402     27400     27403     27404     27405     27409     27407     27408
     27405     27409     27407     27423     27405     27409     27407     27427
     27405     27410     27412     27413     27405     27410     27412     27414
     27405     27410     27420     27421     27405     27410     27420     27422
     27405     27410     27420     27423     27406     27405     27409     27407
     27406     27405     27410     27411     27406     27405     27410     27412
     27406     27405     27410     27420     27407     27409     27405     27410
     27407     27423     27420     27410     27407     27423     27420     27421
     27407     27423     27420     27422     27407     27423     27425     27426
     27407     27427     27430     27431     27408     27407     27423     27420
     27408     27407     27423     27424     27408     27407     27423     27425
     27408     27407     27427     27428     27408     27407     27427     27429
     27408     27407     27427     27430     27409     27405     27410     27411
     27409     27405     27410     27412     27409     27405     27410     27420
     27409     27407     27423     27420     27409     27407     27423     27424
     27409     27407     27423     27425     27409     27407     27427     27428
     27409     27407     27427     27429     27409     27407     27427     27430
     27410     27412     27414     27415     27410     27412     27414     27416
     27410     27420     27422     27432     27410     27420     27423     27424
     27410     27420     27423     27425     27411     27410     27412     27413
     27411     27410     27412     27414     27411     27410     27420     27421
     27411     27410     27420     27422     27411     27410     27420     27423
     27412     27410     27420     27421     27412     27410     27420     27422
     27412     27410     27420     27423     27412     27414     27416     27417
     27412     27414     27416     27418     27412     27414     27416     27419
     27413     27412     27410     27420     27413     27412     27414     27415
     27413     27412     27414     27416     27414     27412     27410     27420
     27415     27414     27416     27417     27415     27414     27416     27418
     27415     27414     27416     27419     27420     27422     27432     27433
     27420     27422     27432     27436     27420     27422     27432     27437
     27420     27423     27407     27427     27420     27423     27425     27426
     27421     27420     27422     27432     27421     27420     27423     27424
     27421     27420     27423     27425     27422     27420     27423     27424
     27422     27420     27423     27425     27422     27432     27436     27434
     27422     27432     27437     27438     27422     27432     27437     27439
     27422     27432     27437     27440     27423     27407     27427     27428
     27423     27407     27427     27429     27423     27407     27427     27430
     27423     27420     27422     27432     27424     27423     27407     27427
     27424     27423     27425     27426     27425     27423     27407     27427
     27428     27427     27430     27431     27429     27427     27430     27431
     27432     27436     27434     27435     27432     27436     27434     27444
     27432     27436     27434     27448     27432     27437     27439     27453
     27432     27437     27440     27441     27432     27437     27440     27442
     27432     27437     27440     27444     27433     27432     27436     27434
     27433     27432     27437     27438     27433     27432     27437     27439
     27433     27432     27437     27440     27434     27436     27432     27437
     27434     27444     27440     27437     27434     27444     27440     27441
     27434     27444     27440     27442     27434     27444     27446     27447
     27434     27448     27451     27452     27435     27434     27444     27440
     27435     27434     27444     27445     27435     27434     27444     27446
     27435     27434     27448     27449     27435     27434     27448     27450
     27435     27434     27448     27451     27436     27432     27437     27438
     27436     27432     27437     27439     27436     27432     27437     27440
     27436     27434     27444     27440     27436     27434     27444     27445
     27436     27434     27444     27446     27436     27434     27448     27449
     27436     27434     27448     27450     27436     27434     27448     27451
     27437     27439     27453     27454     27437     27439     27453     27457
     27437     27439     27453     27458     27437     27440     27442     27443
     27437     27440     27444     27445     27437     27440     27444     27446
     27438     27437     27439     27453     27438     27437     27440     27441
     27438     27437     27440     27442     27438     27437     27440     27444
     27439     27437     27440     27441     27439     27437     27440     27442
     27439     27437     27440     27444     27439     27453     27457     27455
     27439     27453     27458     27459     27439     27453     27458     27460
     27439     27453     27458     27461     27440     27437     27439     27453
     27440     27444     27434     27448     27440     27444     27446     27447
     27441     27440     27442     27443     27441     27440     27444     27445
     27441     27440     27444     27446     27442     27440     27444     27445
     27442     27440     27444     27446     27443     27442     27440     27444
     27444     27434     27448     27449     27444     27434     27448     27450
     27444     27434     27448     27451     27445     27444     27434     27448
     27445     27444     27446     27447     27446     27444     27434     27448
     27449     27448     27451     27452     27450     27448     27451     27452
     27453     27457     27455     27456     27453     27457     27455     27465
     27453     27457     27455     27469     27453     27458     27460     27473
     27453     27458     27461     27462     27453     27458     27461     27463
     27453     27458     27461     27465     27454     27453     27457     27455
     27454     27453     27458     27459     27454     27453     27458     27460
     27454     27453     27458     27461     27455     27457     27453     27458
     27455     27465     27461     27458     27455     27465     27461     27462
     27455     27465     27461     27463     27455     27465     27467     27468
     27456     27455     27465     27461     27456     27455     27465     27466
     27456     27455     27465     27467     27456     27455     27469     27470
     27456     27455     27469     27471     27456     27455     27469     27472
     27457     27453     27458     27459     27457     27453     27458     27460
     27457     27453     27458     27461     27457     27455     27465     27461
     27457     27455     27465     27466     27457     27455     27465     27467
     27457     27455     27469     27470     27457     27455     27469     27471
     27457     27455     27469     27472     27458     27460     27473     27474
     27458     27460     27473     27477     27458     27460     27473     27478
     27458     27461     27463     27464     27458     27461     27465     27466
     27458     27461     27465     27467     27459     27458     27460     27473
     27459     27458     27461     27462     27459     27458     27461     27463
     27459     27458     27461     27465     27460     27458     27461     27462
     27460     27458     27461     27463     27460     27458     27461     27465
     27460     27473     27477     27475     27460     27473     27478     27479
     27460     27473     27478     27480     27460     27473     27478     27481
     27461     27458     27460     27473     27461     27465     27455     27469
     27461     27465     27467     27468     27462     27461     27463     27464
     27462     27461     27465     27466     27462     27461     27465     27467
     27463     27461     27465     27466     27463     27461     27465     27467
     27464     27463     27461     27465     27465     27455     27469     27470
     27465     27455     27469     27471     27465     27455     27469     27472
     27466     27465     27455     27469     27466     27465     27467     27468
     27467     27465     27455     27469     27473     27477     27475     27476
     27473     27477     27475     27484     27473     27477     27475     27488
     27473     27478     27480     27492     27473     27478     27481     27482
     27473     27478     27481     27483     27473     27478     27481     27484
     27474     27473     27477     27475     27474     27473     27478     27479
     27474     27473     27478     27480     27474     27473     27478     27481
     27475     27477     27473     27478     27475     27484     27481     27478
     27475     27484     27481     27482     27475     27484     27481     27483
     27475     27484     27486     27487     27476     27475     27484     27481
     27476     27475     27484     27485     27476     27475     27484     27486
     27476     27475     27488     27489     27476     27475     27488     27490
     27476     27475     27488     27491     27477     27473     27478     27479
     27477     27473     27478     27480     27477     27473     27478     27481
     27477     27475     27484     27481     27477     27475     27484     27485
     27477     27475     27484     27486     27477     27475     27488     27489
     27477     27475     27488     27490     27477     27475     27488     27491
     27478     27480     27492     27493     27478     27480     27492     27496
     27478     27480     27492     27497     27478     27481     27483     27520
     27478     27481     27484     27485     27478     27481     27484     27486
     27479     27478     27480     27492     27479     27478     27481     27482
     27479     27478     27481     27483     27479     27478     27481     27484
     27480     27478     27481     27482     27480     27478     27481     27483
     27480     27478     27481     27484     27480     27492     27496     27494
     27480     27492     27497     27498     27480     27492     27497     27499
     27480     27492     27497     27507     27481     27478     27480     27492
     27481     27483     27520     27521     27481     27483     27520     27524
     27481     27483     27520     27525     27481     27484     27475     27488
     27481     27484     27486     27487     27482     27481     27483     27520
     27482     27481     27484     27485     27482     27481     27484     27486
     27483     27481     27484     27485     27483     27481     27484     27486
     27483     27520     27524     27522     27483     27520     27525     27526
     27483     27520     27525     27527     27483     27520     27525     27535
     27484     27475     27488     27489     27484     27475     27488     27490
     27484     27475     27488     27491     27484     27481     27483     27520
     27485     27484     27475     27488     27485     27484     27486     27487
     27486     27484     27475     27488     27492     27496     27494     27495
     27492     27496     27494     27511     27492     27496     27494     27515
     27492     27497     27499     27500     27492     27497     27499     27501
     27492     27497     27507     27508     27492     27497     27507     27509
     27492     27497     27507     27511     27493     27492     27496     27494
     27493     27492     27497     27498     27493     27492     27497     27499
     27493     27492     27497     27507     27494     27496     27492     27497
     27494     27511     27507     27497     27494     27511     27507     27508
     27494     27511     27507     27509     27494     27511     27513     27514
     27494     27515     27518     27519     27495     27494     27511     27507
     27495     27494     27511     27512     27495     27494     27511     27513
     27495     27494     27515     27516     27495     27494     27515     27517
     27495     27494     27515     27518     27496     27492     27497     27498
     27496     27492     27497     27499     27496     27492     27497     27507
     27496     27494     27511     27507     27496     27494     27511     27512
     27496     27494     27511     27513     27496     27494     27515     27516
     27496     27494     27515     27517     27496     27494     27515     27518
     27497     27499     27501     27502     27497     27499     27501     27503
     27497     27507     27509     27510     27497     27507     27511     27512
     27497     27507     27511     27513     27498     27497     27499     27500
     27498     27497     27499     27501     27498     27497     27507     27508
     27498     27497     27507     27509     27498     27497     27507     27511
     27499     27497     27507     27508     27499     27497     27507     27509
     27499     27497     27507     27511     27499     27501     27503     27504
     27499     27501     27503     27505     27499     27501     27503     27506
     27500     27499     27497     27507     27500     27499     27501     27502
     27500     27499     27501     27503     27501     27499     27497     27507
     27502     27501     27503     27504     27502     27501     27503     27505
     27502     27501     27503     27506     27507     27511     27494     27515
     27507     27511     27513     27514     27508     27507     27509     27510
     27508     27507     27511     27512     27508     27507     27511     27513
     27509     27507     27511     27512     27509     27507     27511     27513
     27510     27509     27507     27511     27511     27494     27515     27516
     27511     27494     27515     27517     27511     27494     27515     27518
     27512     27511     27494     27515     27512     27511     27513     27514
     27513     27511     27494     27515     27516     27515     27518     27519
     27517     27515     27518     27519     27520     27524     27522     27523
     27520     27524     27522     27538     27520     27524     27522     27542
     27520     27525     27527     27528     27520     27525     27527     27529
     27520     27525     27535     27536     27520     27525     27535     27537
     27520     27525     27535     27538     27521     27520     27524     27522
     27521     27520     27525     27526     27521     27520     27525     27527
     27521     27520     27525     27535     27522     27524     27520     27525
     27522     27538     27535     27525     27522     27538     27535     27536
     27522     27538     27535     27537     27522     27538     27540     27541
     27522     27542     27545     27546     27523     27522     27538     27535
     27523     27522     27538     27539     27523     27522     27538     27540
     27523     27522     27542     27543     27523     27522     27542     27544
     27523     27522     27542     27545     27524     27520     27525     27526
     27524     27520     27525     27527     27524     27520     27525     27535
     27524     27522     27538     27535     27524     27522     27538     27539
     27524     27522     27538     27540     27524     27522     27542     27543
     27524     27522     27542     27544     27524     27522     27542     27545
     27525     27527     27529     27530     27525     27527     27529     27531
     27525     27535     27537     27547     27525     27535     27538     27539
     27525     27535     27538     27540     27526     27525     27527     27528
     27526     27525     27527     27529     27526     27525     27535     27536
     27526     27525     27535     27537     27526     27525     27535     27538
     27527     27525     27535     27536     27527     27525     27535     27537
     27527     27525     27535     27538     27527     27529     27531     27532
     27527     27529     27531     27533     27527     27529     27531     27534
     27528     27527     27525     27535     27528     27527     27529     27530
     27528     27527     27529     27531     27529     27527     27525     27535
     27530     27529     27531     27532     27530     27529     27531     27533
     27530     27529     27531     27534     27535     27537     27547     27548
     27535     27537     27547     27551     27535     27537     27547     27552
     27535     27538     27522     27542     27535     27538     27540     27541
     27536     27535     27537     27547     27536     27535     27538     27539
     27536     27535     27538     27540     27537     27535     27538     27539
     27537     27535     27538     27540     27537     27547     27551     27549
     27537     27547     27552     27553     27537     27547     27552     27554
     27537     27547     27552     27555     27538     27522     27542     27543
     27538     27522     27542     27544     27538     27522     27542     27545
     27538     27535     27537     27547     27539     27538     27522     27542
     27539     27538     27540     27541     27540     27538     27522     27542
     27543     27542     27545     27546     27544     27542     27545     27546
     27547     27551     27549     27550     27547     27551     27549     27559
     27547     27551     27549     27563     27547     27552     27554     27568
     27547     27552     27555     27556     27547     27552     27555     27557
     27547     27552     27555     27559     27548     27547     27551     27549
     27548     27547     27552     27553     27548     27547     27552     27554
     27548     27547     27552     27555     27549     27551     27547     27552
     27549     27559     27555     27552     27549     27559     27555     27556
     27549     27559     27555     27557     27549     27559     27561     27562
     27549     27563     27566     27567     27550     27549     27559     27555
     27550     27549     27559     27560     27550     27549     27559     27561
     27550     27549     27563     27564     27550     27549     27563     27565
     27550     27549     27563     27566     27551     27547     27552     27553
     27551     27547     27552     27554     27551     27547     27552     27555
     27551     27549     27559     27555     27551     27549     27559     27560
     27551     27549     27559     27561     27551     27549     27563     27564
     27551     27549     27563     27565     27551     27549     27563     27566
     27552     27554     27568     27569     27552     27554     27568     27572
     27552     27554     27568     27573     27552     27555     27557     27558
     27552     27555     27559     27560     27552     27555     27559     27561
     27553     27552     27554     27568     27553     27552     27555     27556
     27553     27552     27555     27557     27553     27552     27555     27559
     27554     27552     27555     27556     27554     27552     27555     27557
     27554     27552     27555     27559     27554     27568     27572     27570
     27554     27568     27573     27574     27554     27568     27573     27575
     27554     27568     27573     27576     27555     27552     27554     27568
     27555     27559     27549     27563     27555     27559     27561     27562
     27556     27555     27557     27558     27556     27555     27559     27560
     27556     27555     27559     27561     27557     27555     27559     27560
     27557     27555     27559     27561     27558     27557     27555     27559
     27559     27549     27563     27564     27559     27549     27563     27565
     27559     27549     27563     27566     27560     27559     27549     27563
     27560     27559     27561     27562     27561     27559     27549     27563
     27564     27563     27566     27567     27565     27563     27566     27567
     27568     27572     27570     27571     27568     27572     27570     27580
     27568     27572     27570     27584     27568     27573     27575     27588
     27568     27573     27576     27577     27568     27573     27576     27578
     27568     27573     27576     27580     27569     27568     27572     27570
     27569     27568     27573     27574     27569     27568     27573     27575
     27569     27568     27573     27576     27570     27572     27568     27573
     27570     27580     27576     27573     27570     27580     27576     27577
     27570     27580     27576     27578     27570     27580     27582     27583
     27571     27570     27580     27576     27571     27570     27580     27581
     27571     27570     27580     27582     27571     27570     27584     27585
     27571     27570     27584     27586     27571     27570     27584     27587
     27572     27568     27573     27574     27572     27568     27573     27575
     27572     27568     27573     27576     27572     27570     27580     27576
     27572     27570     27580     27581     27572     27570     27580     27582
     27572     27570     27584     27585     27572     27570     27584     27586
     27572     27570     27584     27587     27573     27575     27588     27589
     27573     27575     27588     27592     27573     27575     27588     27593
     27573     27576     27578     27579     27573     27576     27580     27581
     27573     27576     27580     27582     27574     27573     27575     27588
     27574     27573     27576     27577     27574     27573     27576     27578
     27574     27573     27576     27580     27575     27573     27576     27577
     27575     27573     27576     27578     27575     27573     27576     27580
     27575     27588     27592     27590     27575     27588     27593     27594
     27575     27588     27593     27595     27575     27588     27593     27596
     27576     27573     27575     27588     27576     27580     27570     27584
     27576     27580     27582     27583     27577     27576     27578     27579
     27577     27576     27580     27581     27577     27576     27580     27582
     27578     27576     27580     27581     27578     27576     27580     27582
     27579     27578     27576     27580     27580     27570     27584     27585
     27580     27570     27584     27586     27580     27570     27584     27587
     27581     27580     27570     27584     27581     27580     27582     27583
     27582     27580     27570     27584     27588     27592     27590     27591
     27588     27592     27590     27599     27588     27592     27590     27603
     27588     27593     27595     27607     27588     27593     27596     27597
     27588     27593     27596     27598     27588     27593     27596     27599
     27589     27588     27592     27590     27589     27588     27593     27594
     27589     27588     27593     27595     27589     27588     27593     27596
     27590     27592     27588     27593     27590     27599     27596     27593
     27590     27599     27596     27597     27590     27599     27596     27598
     27590     27599     27601     27602     27591     27590     27599     27596
     27591     27590     27599     27600     27591     27590     27599     27601
     27591     27590     27603     27604     27591     27590     27603     27605
     27591     27590     27603     27606     27592     27588     27593     27594
     27592     27588     27593     27595     27592     27588     27593     27596
     27592     27590     27599     27596     27592     27590     27599     27600
     27592     27590     27599     27601     27592     27590     27603     27604
     27592     27590     27603     27605     27592     27590     27603     27606
     27593     27595     27607     27608     27593     27595     27607     27611
     27593     27595     27607     27612     27593     27596     27598     27635
     27593     27596     27599     27600     27593     27596     27599     27601
     27594     27593     27595     27607     27594     27593     27596     27597
     27594     27593     27596     27598     27594     27593     27596     27599
     27595     27593     27596     27597     27595     27593     27596     27598
     27595     27593     27596     27599     27595     27607     27611     27609
     27595     27607     27612     27613     27595     27607     27612     27614
     27595     27607     27612     27622     27596     27593     27595     27607
     27596     27598     27635     27636     27596     27598     27635     27639
     27596     27598     27635     27640     27596     27599     27590     27603
     27596     27599     27601     27602     27597     27596     27598     27635
     27597     27596     27599     27600     27597     27596     27599     27601
     27598     27596     27599     27600     27598     27596     27599     27601
     27598     27635     27639     27637     27598     27635     27640     27641
     27598     27635     27640     27642     27598     27635     27640     27650
     27599     27590     27603     27604     27599     27590     27603     27605
     27599     27590     27603     27606     27599     27596     27598     27635
     27600     27599     27590     27603     27600     27599     27601     27602
     27601     27599     27590     27603     27607     27611     27609     27610
     27607     27611     27609     27626     27607     27611     27609     27630
     27607     27612     27614     27615     27607     27612     27614     27616
     27607     27612     27622     27623     27607     27612     27622     27624
     27607     27612     27622     27626     27608     27607     27611     27609
     27608     27607     27612     27613     27608     27607     27612     27614
     27608     27607     27612     27622     27609     27611     27607     27612
     27609     27626     27622     27612     27609     27626     27622     27623
     27609     27626     27622     27624     27609     27626     27628     27629
     27609     27630     27633     27634     27610     27609     27626     27622
     27610     27609     27626     27627     27610     27609     27626     27628
     27610     27609     27630     27631     27610     27609     27630     27632
     27610     27609     27630     27633     27611     27607     27612     27613
     27611     27607     27612     27614     27611     27607     27612     27622
     27611     27609     27626     27622     27611     27609     27626     27627
     27611     27609     27626     27628     27611     27609     27630     27631
     27611     27609     27630     27632     27611     27609     27630     27633
     27612     27614     27616     27617     27612     27614     27616     27618
     27612     27622     27624     27625     27612     27622     27626     27627
     27612     27622     27626     27628     27613     27612     27614     27615
     27613     27612     27614     27616     27613     27612     27622     27623
     27613     27612     27622     27624     27613     27612     27622     27626
     27614     27612     27622     27623     27614     27612     27622     27624
     27614     27612     27622     27626     27614     27616     27618     27619
     27614     27616     27618     27620     27614     27616     27618     27621
     27615     27614     27612     27622     27615     27614     27616     27617
     27615     27614     27616     27618     27616     27614     27612     27622
     27617     27616     27618     27619     27617     27616     27618     27620
     27617     27616     27618     27621     27622     27626     27609     27630
     27622     27626     27628     27629     27623     27622     27624     27625
     27623     27622     27626     27627     27623     27622     27626     27628
     27624     27622     27626     27627     27624     27622     27626     27628
     27625     27624     27622     27626     27626     27609     27630     27631
     27626     27609     27630     27632     27626     27609     27630     27633
     27627     27626     27609     27630     27627     27626     27628     27629
     27628     27626     27609     27630     27631     27630     27633     27634
     27632     27630     27633     27634     27635     27639     27637     27638
     27635     27639     27637     27653     27635     27639     27637     27657
     27635     27640     27642     27643     27635     27640     27642     27644
     27635     27640     27650     27651     27635     27640     27650     27652
     27635     27640     27650     27653     27636     27635     27639     27637
     27636     27635     27640     27641     27636     27635     27640     27642
     27636     27635     27640     27650     27637     27639     27635     27640
     27637     27653     27650     27640     27637     27653     27650     27651
     27637     27653     27650     27652     27637     27653     27655     27656
     27637     27657     27660     27661     27638     27637     27653     27650
     27638     27637     27653     27654     27638     27637     27653     27655
     27638     27637     27657     27658     27638     27637     27657     27659
     27638     27637     27657     27660     27639     27635     27640     27641
     27639     27635     27640     27642     27639     27635     27640     27650
     27639     27637     27653     27650     27639     27637     27653     27654
     27639     27637     27653     27655     27639     27637     27657     27658
     27639     27637     27657     27659     27639     27637     27657     27660
     27640     27642     27644     27645     27640     27642     27644     27646
     27640     27650     27652     27662     27640     27650     27653     27654
     27640     27650     27653     27655     27641     27640     27642     27643
     27641     27640     27642     27644     27641     27640     27650     27651
     27641     27640     27650     27652     27641     27640     27650     27653
     27642     27640     27650     27651     27642     27640     27650     27652
     27642     27640     27650     27653     27642     27644     27646     27647
     27642     27644     27646     27648     27642     27644     27646     27649
     27643     27642     27640     27650     27643     27642     27644     27645
     27643     27642     27644     27646     27644     27642     27640     27650
     27645     27644     27646     27647     27645     27644     27646     27648
     27645     27644     27646     27649     27650     27652     27662     27663
     27650     27652     27662     27666     27650     27652     27662     27667
     27650     27653     27637     27657     27650     27653     27655     27656
     27651     27650     27652     27662     27651     27650     27653     27654
     27651     27650     27653     27655     27652     27650     27653     27654
     27652     27650     27653     27655     27652     27662     27666     27664
     27652     27662     27667     27668     27652     27662     27667     27669
     27652     27662     27667     27670     27653     27637     27657     27658
     27653     27637     27657     27659     27653     27637     27657     27660
     27653     27650     27652     27662     27654     27653     27637     27657
     27654     27653     27655     27656     27655     27653     27637     27657
     27658     27657     27660     27661     27659     27657     27660     27661
     27662     27666     27664     27665     27662     27666     27664     27674
     27662     27666     27664     27678     27662     27667     27669     27683
     27662     27667     27670     27671     27662     27667     27670     27672
     27662     27667     27670     27674     27663     27662     27666     27664
     27663     27662     27667     27668     27663     27662     27667     27669
     27663     27662     27667     27670     27664     27666     27662     27667
     27664     27674     27670     27667     27664     27674     27670     27671
     27664     27674     27670     27672     27664     27674     27676     27677
     27664     27678     27681     27682     27665     27664     27674     27670
     27665     27664     27674     27675     27665     27664     27674     27676
     27665     27664     27678     27679     27665     27664     27678     27680
     27665     27664     27678     27681     27666     27662     27667     27668
     27666     27662     27667     27669     27666     27662     27667     27670
     27666     27664     27674     27670     27666     27664     27674     27675
     27666     27664     27674     27676     27666     27664     27678     27679
     27666     27664     27678     27680     27666     27664     27678     27681
     27667     27669     27683     27684     27667     27669     27683     27687
     27667     27669     27683     27688     27667     27670     27672     27673
     27667     27670     27674     27675     27667     27670     27674     27676
     27668     27667     27669     27683     27668     27667     27670     27671
     27668     27667     27670     27672     27668     27667     27670     27674
     27669     27667     27670     27671     27669     27667     27670     27672
     27669     27667     27670     27674     27669     27683     27687     27685
     27669     27683     27688     27689     27669     27683     27688     27690
     27669     27683     27688     27691     27670     27667     27669     27683
     27670     27674     27664     27678     27670     27674     27676     27677
     27671     27670     27672     27673     27671     27670     27674     27675
     27671     27670     27674     27676     27672     27670     27674     27675
     27672     27670     27674     27676     27673     27672     27670     27674
     27674     27664     27678     27679     27674     27664     27678     27680
     27674     27664     27678     27681     27675     27674     27664     27678
     27675     27674     27676     27677     27676     27674     27664     27678
     27679     27678     27681     27682     27680     27678     27681     27682
     27683     27687     27685     27686     27683     27687     27685     27695
     27683     27687     27685     27699     27683     27688     27690     27703
     27683     27688     27691     27692     27683     27688     27691     27693
     27683     27688     27691     27695     27684     27683     27687     27685
     27684     27683     27688     27689     27684     27683     27688     27690
     27684     27683     27688     27691     27685     27687     27683     27688
     27685     27695     27691     27688     27685     27695     27691     27692
     27685     27695     27691     27693     27685     27695     27697     27698
     27686     27685     27695     27691     27686     27685     27695     27696
     27686     27685     27695     27697     27686     27685     27699     27700
     27686     27685     27699     27701     27686     27685     27699     27702
     27687     27683     27688     27689     27687     27683     27688     27690
     27687     27683     27688     27691     27687     27685     27695     27691
     27687     27685     27695     27696     27687     27685     27695     27697
     27687     27685     27699     27700     27687     27685     27699     27701
     27687     27685     27699     27702     27688     27690     27703     27704
     27688     27690     27703     27707     27688     27690     27703     27708
     27688     27691     27693     27694     27688     27691     27695     27696
     27688     27691     27695     27697     27689     27688     27690     27703
     27689     27688     27691     27692     27689     27688     27691     27693
     27689     27688     27691     27695     27690     27688     27691     27692
     27690     27688     27691     27693     27690     27688     27691     27695
     27690     27703     27707     27705     27690     27703     27708     27709
     27690     27703     27708     27710     27690     27703     27708     27711
     27691     27688     27690     27703     27691     27695     27685     27699
     27691     27695     27697     27698     27692     27691     27693     27694
     27692     27691     27695     27696     27692     27691     27695     27697
     27693     27691     27695     27696     27693     27691     27695     27697
     27694     27693     27691     27695     27695     27685     27699     27700
     27695     27685     27699     27701     27695     27685     27699     27702
     27696     27695     27685     27699     27696     27695     27697     27698
     27697     27695     27685     27699     27703     27707     27705     27706
     27703     27707     27705     27715     27703     27707     27705     27719
     27703     27708     27710     27723     27703     27708     27711     27712
     27703     27708     27711     27713     27703     27708     27711     27715
     27704     27703     27707     27705     27704     27703     27708     27709
     27704     27703     27708     27710     27704     27703     27708     27711
     27705     27707     27703     27708     27705     27715     27711     27708
     27705     27715     27711     27712     27705     27715     27711     27713
     27705     27715     27717     27718     27706     27705     27715     27711
     27706     27705     27715     27716     27706     27705     27715     27717
     27706     27705     27719     27720     27706     27705     27719     27721
     27706     27705     27719     27722     27707     27703     27708     27709
     27707     27703     27708     27710     27707     27703     27708     27711
     27707     27705     27715     27711     27707     27705     27715     27716
     27707     27705     27715     27717     27707     27705     27719     27720
     27707     27705     27719     27721     27707     27705     27719     27722
     27708     27710     27723     27724     27708     27710     27723     27727
     27708     27710     27723     27728     27708     27711     27713     27714
     27708     27711     27715     27716     27708     27711     27715     27717
     27709     27708     27710     27723     27709     27708     27711     27712
     27709     27708     27711     27713     27709     27708     27711     27715
     27710     27708     27711     27712     27710     27708     27711     27713
     27710     27708     27711     27715     27710     27723     27727     27725
     27710     27723     27728     27729     27710     27723     27728     27730
     27710     27723     27728     27738     27711     27708     27710     27723
     27711     27715     27705     27719     27711     27715     27717     27718
     27712     27711     27713     27714     27712     27711     27715     27716
     27712     27711     27715     27717     27713     27711     27715     27716
     27713     27711     27715     27717     27714     27713     27711     27715
     27715     27705     27719     27720     27715     27705     27719     27721
     27715     27705     27719     27722     27716     27715     27705     27719
     27716     27715     27717     27718     27717     27715     27705     27719
     27723     27727     27725     27726     27723     27727     27725     27742
     27723     27727     27725     27746     27723     27728     27730     27731
     27723     27728     27730     27732     27723     27728     27738     27739
     27723     27728     27738     27740     27723     27728     27738     27742
     27724     27723     27727     27725     27724     27723     27728     27729
     27724     27723     27728     27730     27724     27723     27728     27738
     27725     27727     27723     27728     27725     27742     27738     27728
     27725     27742     27738     27739     27725     27742     27738     27740
     27725     27742     27744     27745     27725     27746     27749     27750
     27726     27725     27742     27738     27726     27725     27742     27743
     27726     27725     27742     27744     27726     27725     27746     27747
     27726     27725     27746     27748     27726     27725     27746     27749
     27727     27723     27728     27729     27727     27723     27728     27730
     27727     27723     27728     27738     27727     27725     27742     27738
     27727     27725     27742     27743     27727     27725     27742     27744
     27727     27725     27746     27747     27727     27725     27746     27748
     27727     27725     27746     27749     27728     27730     27732     27733
     27728     27730     27732     27734     27728     27738     27740     27741
     27728     27738     27742     27743     27728     27738     27742     27744
     27729     27728     27730     27731     27729     27728     27730     27732
     27729     27728     27738     27739     27729     27728     27738     27740
     27729     27728     27738     27742     27730     27728     27738     27739
     27730     27728     27738     27740     27730     27728     27738     27742
     27730     27732     27734     27735     27730     27732     27734     27736
     27730     27732     27734     27737     27731     27730     27728     27738
     27731     27730     27732     27733     27731     27730     27732     27734
     27732     27730     27728     27738     27733     27732     27734     27735
     27733     27732     27734     27736     27733     27732     27734     27737
     27738     27742     27725     27746     27738     27742     27744     27745
     27739     27738     27740     27741     27739     27738     27742     27743
     27739     27738     27742     27744     27740     27738     27742     27743
     27740     27738     27742     27744     27741     27740     27738     27742
     27742     27725     27746     27747     27742     27725     27746     27748
     27742     27725     27746     27749     27743     27742     27725     27746
     27743     27742     27744     27745     27744     27742     27725     27746
     27747     27746     27749     27750     27748     27746     27749     27750
     27751     27753     27752     28050     27751     27753     27755     27756
     27751     27753     27755     27757     27751     27753     27755     27764
     27752     27753     27755     27756     27752     27753     27755     27757
     27752     27753     27755     27764     27752     28050     28047     28048
     27752     28050     28047     28049     27752     28050     28053     28051
     27752     28050     28054     28055     27752     28050     28054     28056
     27752     28050     28054     28057     27753     27752     28050     28047
     27753     27752     28050     28053     27753     27752     28050     28054
     27753     27755     27756     27758     27753     27755     27764     27765
     27753     27755     27764     27766     27753     27755     27764     27771
     27754     27753     27752     28050     27754     27753     27755     27756
     27754     27753     27755     27757     27754     27753     27755     27764
     27755     27753     27752     28050     27755     27756     27758     27759
     27755     27756     27758     27760     27755     27756     27758     27779
     27755     27764     27766     27767     27755     27764     27771     27772
     27755     27764     27771     27773     27755     27764     27771     27779
     27756     27755     27764     27765     27756     27755     27764     27766
     27756     27755     27764     27771     27756     27758     27760     27761
     27756     27758     27779     27771     27756     27758     27779     27780
     27756     27758     27779     27781     27757     27755     27756     27758
     27757     27755     27764     27765     27757     27755     27764     27766
     27757     27755     27764     27771     27758     27756     27755     27764
     27758     27760     27761     27762     27758     27760     27761     27763
     27758     27760     27761     27787     27758     27779     27771     27764
     27758     27779     27771     27772     27758     27779     27771     27773
     27758     27779     27781     27782     27758     27779     27781     27888
     27759     27758     27760     27761     27759     27758     27779     27771
     27759     27758     27779     27780     27759     27758     27779     27781
     27760     27758     27779     27771     27760     27758     27779     27780
     27760     27758     27779     27781     27760     27761     27787     27783
     27760     27761     27787     27788     27760     27761     27787     27789
     27761     27760     27758     27779     27761     27787     27783     27784
     27761     27787     27783     27785     27761     27787     27783     27797
     27761     27787     27789     27790     27762     27761     27787     27783
     27762     27761     27787     27788     27762     27761     27787     27789
     27763     27761     27787     27783     27763     27761     27787     27788
     27763     27761     27787     27789     27764     27766     27767     27768
     27764     27766     27767     27769     27764     27766     27767     27770
     27764     27771     27772     27774     27764     27771     27779     27780
     27764     27771     27779     27781     27765     27764     27766     27767
     27765     27764     27771     27772     27765     27764     27771     27773
     27765     27764     27771     27779     27766     27764     27771     27772
     27766     27764     27771     27773     27766     27764     27771     27779
     27767     27766     27764     27771     27771     27772     27774     27775
     27771     27772     27774     27776     27771     27779     27781     27782
     27771     27779     27781     27888     27772     27771     27779     27780
     27772     27771     27779     27781     27772     27774     27776     27777
     27772     27774     27776     27778     27772     27774     27776     27809
     27773     27771     27772     27774     27773     27771     27779     27780
     27773     27771     27779     27781     27774     27772     27771     27779
     27774     27776     27809     27810     27774     27776     27809     27811
     27774     27776     27809     27854     27775     27774     27776     27777
     27775     27774     27776     27778     27775     27774     27776     27809
     27776     27809     27811     27812     27776     27809     27854     27855
     27776     27809     27854     27856     27776     27809     27854     27857
     27777     27776     27809     27810     27777     27776     27809     27811
     27777     27776     27809     27854     27778     27776     27809     27810
     27778     27776     27809     27811     27778     27776     27809     27854
     27779     27781     27888     27889     27779     27781     27888     27890
     27780     27779     27781     27782     27780     27779     27781     27888
     27781     27888     27890     27891     27781     27888     27890     27892
     27781     27888     27890     27893     27782     27781     27888     27889
     27782     27781     27888     27890     27783     27787     27789     27790
     27783     27797     27799     27800     27783     27797     27805     27790
     27783     27797     27805     27806     27783     27797     27805     27807
     27784     27783     27785     27786     27784     27783     27787     27788
     27784     27783     27787     27789     27784     27783     27797     27798
     27784     27783     27797     27799     27784     27783     27797     27805
     27785     27783     27787     27788     27785     27783     27787     27789
     27785     27783     27797     27798     27785     27783     27797     27799
     27785     27783     27797     27805     27786     27785     27783     27787
     27786     27785     27783     27797     27787     27783     27797     27798
     27787     27783     27797     27799     27787     27783     27797     27805
     27787     27789     27790     27791     27787     27789     27790     27792
     27787     27789     27790     27805     27788     27787     27783     27797
     27788     27787     27789     27790     27789     27787     27783     27797
     27789     27790     27792     27796     27789     27790     27805     27797
     27789     27790     27805     27806     27789     27790     27805     27807
     27790     27792     27796     27793     27790     27792     27796     27794
     27790     27792     27796     27795     27790     27805     27797     27798
     27790     27805     27797     27799     27790     27805     27807     27808
     27790     27805     27807     28004     27791     27790     27792     27796
     27791     27790     27805     27797     27791     27790     27805     27806
     27791     27790     27805     27807     27792     27790     27805     27797
     27792     27790     27805     27806     27792     27790     27805     27807
     27796     27792     27790     27805     27797     27799     27800     27801
     27797     27799     27800     27802     27797     27805     27807     27808
     27797     27805     27807     28004     27798     27797     27799     27800
     27798     27797     27805     27806     27798     27797     27805     27807
     27799     27797     27805     27806     27799     27797     27805     27807
     27799     27800     27802     27803     27799     27800     27802     27804
     27799     27800     27802     27966     27800     27799     27797     27805
     27800     27802     27966     27967     27800     27802     27966     27968
     27800     27802     27966     27970     27801     27800     27802     27803
     27801     27800     27802     27804     27801     27800     27802     27966
     27802     27966     27968     27969     27802     27966     27970     27971
     27802     27966     27970     27972     27802     27966     27970     27973
     27803     27802     27966     27967     27803     27802     27966     27968
     27803     27802     27966     27970     27804     27802     27966     27967
     27804     27802     27966     27968     27804     27802     27966     27970
     27805     27807     28004     28005     27805     27807     28004     28006
     27806     27805     27807     27808     27806     27805     27807     28004
     27807     28004     28006     28007     27807     28004     28006     28008
     27807     28004     28006     28009     27808     27807     28004     28005
     27808     27807     28004     28006     27809     27811     27812     27813
     27809     27811     27812     27814     27809     27854     27857     27858
     27809     27854     27857     27859     27809     27854     27857     27860
     27810     27809     27811     27812     27810     27809     27854     27855
     27810     27809     27854     27856     27810     27809     27854     27857
     27811     27809     27854     27855     27811     27809     27854     27856
     27811     27809     27854     27857     27811     27812     27814     27815
     27811     27812     27814     27816     27811     27812     27814     27817
     27812     27811     27809     27854     27812     27814     27817     27818
     27812     27814     27817     27819     27812     27814     27817     27820
     27813     27812     27814     27815     27813     27812     27814     27816
     27813     27812     27814     27817     27814     27817     27820     27821
     27814     27817     27820     27822     27814     27817     27820     27823
     27815     27814     27817     27818     27815     27814     27817     27819
     27815     27814     27817     27820     27816     27814     27817     27818
     27816     27814     27817     27819     27816     27814     27817     27820
     27817     27820     27823     27824     27817     27820     27823     27825
     27817     27820     27823     27826     27818     27817     27820     27821
     27818     27817     27820     27822     27818     27817     27820     27823
     27819     27817     27820     27821     27819     27817     27820     27822
     27819     27817     27820     27823     27820     27823     27826     27827
     27820     27823     27826     27828     27820     27823     27826     27829
     27821     27820     27823     27824     27821     27820     27823     27825
     27821     27820     27823     27826     27822     27820     27823     27824
     27822     27820     27823     27825     27822     27820     27823     27826
     27823     27826     27829     27830     27823     27826     27829     27831
     27823     27826     27829     27832     27824     27823     27826     27827
     27824     27823     27826     27828     27824     27823     27826     27829
     27825     27823     27826     27827     27825     27823     27826     27828
     27825     27823     27826     27829     27826     27829     27832     27833
     27826     27829     27832     27834     27826     27829     27832     27835
     27827     27826     27829     27830     27827     27826     27829     27831
     27827     27826     27829     27832     27828     27826     27829     27830
     27828     27826     27829     27831     27828     27826     27829     27832
     27829     27832     27835     27836     27829     27832     27835     27837
     27829     27832     27835     27838     27830     27829     27832     27833
     27830     27829     27832     27834     27830     27829     27832     27835
     27831     27829     27832     27833     27831     27829     27832     27834
     27831     27829     27832     27835     27832     27835     27838     27839
     27832     27835     27838     27840     27832     27835     27838     27841
     27833     27832     27835     27836     27833     27832     27835     27837
     27833     27832     27835     27838     27834     27832     27835     27836
     27834     27832     27835     27837     27834     27832     27835     27838
     27835     27838     27841     27842     27835     27838     27841     27843
     27835     27838     27841     27844     27836     27835     27838     27839
     27836     27835     27838     27840     27836     27835     27838     27841
     27837     27835     27838     27839     27837     27835     27838     27840
     27837     27835     27838     27841     27838     27841     27844     27845
     27838     27841     27844     27846     27838     27841     27844     27847
     27839     27838     27841     27842     27839     27838     27841     27843
     27839     27838     27841     27844     27840     27838     27841     27842
     27840     27838     27841     27843     27840     27838     27841     27844
     27841     27844     27847     27848     27841     27844     27847     27849
     27841     27844     27847     27850     27842     27841     27844     27845
     27842     27841     27844     27846     27842     27841     27844     27847
     27843     27841     27844     27845     27843     27841     27844     27846
     27843     27841     27844     27847     27844     27847     27850     27851
     27844     27847     27850     27852     27844     27847     27850     27853
     27845     27844     27847     27848     27845     27844     27847     27849
     27845     27844     27847     27850     27846     27844     27847     27848
     27846     27844     27847     27849     27846     27844     27847     27850
     27848     27847     27850     27851     27848     27847     27850     27852
     27848     27847     27850     27853     27849     27847     27850     27851
     27849     27847     27850     27852     27849     27847     27850     27853
     27854     27857     27860     27861     27854     27857     27860     27862
     27854     27857     27860     27863     27855     27854     27857     27858
     27855     27854     27857     27859     27855     27854     27857     27860
     27856     27854     27857     27858     27856     27854     27857     27859
     27856     27854     27857     27860     27857     27860     27863     27864
     27857     27860     27863     27865     27857     27860     27863     27866
     27858     27857     27860     27861     27858     27857     27860     27862
     27858     27857     27860     27863     27859     27857     27860     27861
     27859     27857     27860     27862     27859     27857     27860     27863
     27860     27863     27866     27867     27860     27863     27866     27868
     27860     27863     27866     27869     27861     27860     27863     27864
     27861     27860     27863     27865     27861     27860     27863     27866
     27862     27860     27863     27864     27862     27860     27863     27865
     27862     27860     27863     27866     27863     27866     27869     27870
     27863     27866     27869     27871     27863     27866     27869     27872
     27864     27863     27866     27867     27864     27863     27866     27868
     27864     27863     27866     27869     27865     27863     27866     27867
     27865     27863     27866     27868     27865     27863     27866     27869
     27866     27869     27872     27873     27866     27869     27872     27874
     27866     27869     27872     27875     27867     27866     27869     27870
     27867     27866     27869     27871     27867     27866     27869     27872
     27868     27866     27869     27870     27868     27866     27869     27871
     27868     27866     27869     27872     27869     27872     27875     27876
     27869     27872     27875     27877     27869     27872     27875     27878
     27870     27869     27872     27873     27870     27869     27872     27874
     27870     27869     27872     27875     27871     27869     27872     27873
     27871     27869     27872     27874     27871     27869     27872     27875
     27872     27875     27878     27879     27872     27875     27878     27880
     27872     27875     27878     27881     27873     27872     27875     27876
     27873     27872     27875     27877     27873     27872     27875     27878
     27874     27872     27875     27876     27874     27872     27875     27877
     27874     27872     27875     27878     27875     27878     27881     27882
     27875     27878     27881     27883     27875     27878     27881     27884
     27876     27875     27878     27879     27876     27875     27878     27880
     27876     27875     27878     27881     27877     27875     27878     27879
     27877     27875     27878     27880     27877     27875     27878     27881
     27878     27881     27884     27885     27878     27881     27884     27886
     27878     27881     27884     27887     27879     27878     27881     27882
     27879     27878     27881     27883     27879     27878     27881     27884
     27880     27878     27881     27882     27880     27878     27881     27883
     27880     27878     27881     27884     27882     27881     27884     27885
     27882     27881     27884     27886     27882     27881     27884     27887
     27883     27881     27884     27885     27883     27881     27884     27886
     27883     27881     27884     27887     27888     27890     27893     27894
     27888     27890     27893     27895     27888     27890     27893     27932
     27889     27888     27890     27891     27889     27888     27890     27892
     27889     27888     27890     27893     27890     27893     27895     27896
     27890     27893     27932     27933     27890     27893     27932     27934
     27890     27893     27932     27935     27891     27890     27893     27894
     27891     27890     27893     27895     27891     27890     27893     27932
     27892     27890     27893     27894     27892     27890     27893     27895
     27892     27890     27893     27932     27893     27895     27896     27897
     27893     27895     27896     27898     27893     27932     27935     27936
     27893     27932     27935     27937     27893     27932     27935     27938
     27894     27893     27895     27896     27894     27893     27932     27933
     27894     27893     27932     27934     27894     27893     27932     27935
     27895     27893     27932     27933     27895     27893     27932     27934
     27895     27893     27932     27935     27895     27896     27898     27899
     27895     27896     27898     27900     27895     27896     27898     27901
     27896     27895     27893     27932     27896     27898     27901     27902
     27896     27898     27901     27903     27896     27898     27901     27904
     27897     27896     27898     27899     27897     27896     27898     27900
     27897     27896     27898     27901     27898     27901     27904     27905
     27898     27901     27904     27906     27898     27901     27904     27907
     27899     27898     27901     27902     27899     27898     27901     27903
     27899     27898     27901     27904     27900     27898     27901     27902
     27900     27898     27901     27903     27900     27898     27901     27904
     27901     27904     27907     27908     27901     27904     27907     27909
     27901     27904     27907     27910     27902     27901     27904     27905
     27902     27901     27904     27906     27902     27901     27904     27907
     27903     27901     27904     27905     27903     27901     27904     27906
     27903     27901     27904     27907     27904     27907     27910     27911
     27904     27907     27910     27912     27904     27907     27910     27913
     27905     27904     27907     27908     27905     27904     27907     27909
     27905     27904     27907     27910     27906     27904     27907     27908
     27906     27904     27907     27909     27906     27904     27907     27910
     27907     27910     27913     27914     27907     27910     27913     27915
     27907     27910     27913     27916     27908     27907     27910     27911
     27908     27907     27910     27912     27908     27907     27910     27913
     27909     27907     27910     27911     27909     27907     27910     27912
     27909     27907     27910     27913     27910     27913     27916     27917
     27910     27913     27916     27918     27910     27913     27916     27919
     27911     27910     27913     27914     27911     27910     27913     27915
     27911     27910     27913     27916     27912     27910     27913     27914
     27912     27910     27913     27915     27912     27910     27913     27916
     27913     27916     27919     27920     27913     27916     27919     27921
     27913     27916     27919     27922     27914     27913     27916     27917
     27914     27913     27916     27918     27914     27913     27916     27919
     27915     27913     27916     27917     27915     27913     27916     27918
     27915     27913     27916     27919     27916     27919     27922     27923
     27916     27919     27922     27924     27916     27919     27922     27925
     27917     27916     27919     27920     27917     27916     27919     27921
     27917     27916     27919     27922     27918     27916     27919     27920
     27918     27916     27919     27921     27918     27916     27919     27922
     27919     27922     27925     27926     27919     27922     27925     27927
     27919     27922     27925     27928     27920     27919     27922     27923
     27920     27919     27922     27924     27920     27919     27922     27925
     27921     27919     27922     27923     27921     27919     27922     27924
     27921     27919     27922     27925     27922     27925     27928     27929
     27922     27925     27928     27930     27922     27925     27928     27931
     27923     27922     27925     27926     27923     27922     27925     27927
     27923     27922     27925     27928     27924     27922     27925     27926
     27924     27922     27925     27927     27924     27922     27925     27928
     27926     27925     27928     27929     27926     27925     27928     27930
     27926     27925     27928     27931     27927     27925     27928     27929
     27927     27925     27928     27930     27927     27925     27928     27931
     27932     27935     27938     27939     27932     27935     27938     27940
     27932     27935     27938     27941     27933     27932     27935     27936
     27933     27932     27935     27937     27933     27932     27935     27938
     27934     27932     27935     27936     27934     27932     27935     27937
     27934     27932     27935     27938     27935     27938     27941     27942
     27935     27938     27941     27943     27935     27938     27941     27944
     27936     27935     27938     27939     27936     27935     27938     27940
     27936     27935     27938     27941     27937     27935     27938     27939
     27937     27935     27938     27940     27937     27935     27938     27941
     27938     27941     27944     27945     27938     27941     27944     27946
     27938     27941     27944     27947     27939     27938     27941     27942
     27939     27938     27941     27943     27939     27938     27941     27944
     27940     27938     27941     27942     27940     27938     27941     27943
     27940     27938     27941     27944     27941     27944     27947     27948
     27941     27944     27947     27949     27941     27944     27947     27950
     27942     27941     27944     27945     27942     27941     27944     27946
     27942     27941     27944     27947     27943     27941     27944     27945
     27943     27941     27944     27946     27943     27941     27944     27947
     27944     27947     27950     27951     27944     27947     27950     27952
     27944     27947     27950     27953     27945     27944     27947     27948
     27945     27944     27947     27949     27945     27944     27947     27950
     27946     27944     27947     27948     27946     27944     27947     27949
     27946     27944     27947     27950     27947     27950     27953     27954
     27947     27950     27953     27955     27947     27950     27953     27956
     27948     27947     27950     27951     27948     27947     27950     27952
     27948     27947     27950     27953     27949     27947     27950     27951
     27949     27947     27950     27952     27949     27947     27950     27953
     27950     27953     27956     27957     27950     27953     27956     27958
     27950     27953     27956     27959     27951     27950     27953     27954
     27951     27950     27953     27955     27951     27950     27953     27956
     27952     27950     27953     27954     27952     27950     27953     27955
     27952     27950     27953     27956     27953     27956     27959     27960
     27953     27956     27959     27961     27953     27956     27959     27962
     27954     27953     27956     27957     27954     27953     27956     27958
     27954     27953     27956     27959     27955     27953     27956     27957
     27955     27953     27956     27958     27955     27953     27956     27959
     27956     27959     27962     27963     27956     27959     27962     27964
     27956     27959     27962     27965     27957     27956     27959     27960
     27957     27956     27959     27961     27957     27956     27959     27962
     27958     27956     27959     27960     27958     27956     27959     27961
     27958     27956     27959     27962     27960     27959     27962     27963
     27960     27959     27962     27964     27960     27959     27962     27965
     27961     27959     27962     27963     27961     27959     27962     27964
     27961     27959     27962     27965     27966     27970     27973     27974
     27966     27970     27973     27975     27966     27970     27973     27976
     27967     27966     27968     27969     27967     27966     27970     27971
     27967     27966     27970     27972     27967     27966     27970     27973
     27968     27966     27970     27971     27968     27966     27970     27972
     27968     27966     27970     27973     27969     27968     27966     27970
     27970     27973     27976     27977     27970     27973     27976     27978
     27970     27973     27976     27979     27971     27970     27973     27974
     27971     27970     27973     27975     27971     27970     27973     27976
     27972     27970     27973     27974     27972     27970     27973     27975
     27972     27970     27973     27976     27973     27976     27979     27980
     27973     27976     27979     27981     27973     27976     27979     27982
     27974     27973     27976     27977     27974     27973     27976     27978
     27974     27973     27976     27979     27975     27973     27976     27977
     27975     27973     27976     27978     27975     27973     27976     27979
     27976     27979     27982     27983     27976     27979     27982     27984
     27976     27979     27982     27985     27977     27976     27979     27980
     27977     27976     27979     27981     27977     27976     27979     27982
     27978     27976     27979     27980     27978     27976     27979     27981
     27978     27976     27979     27982     27979     27982     27985     27986
     27979     27982     27985     27987     27979     27982     27985     27988
     27980     27979     27982     27983     27980     27979     27982     27984
     27980     27979     27982     27985     27981     27979     27982     27983
     27981     27979     27982     27984     27981     27979     27982     27985
     27982     27985     27988     27989     27982     27985     27988     27990
     27982     27985     27988     27991     27983     27982     27985     27986
     27983     27982     27985     27987     27983     27982     27985     27988
     27984     27982     27985     27986     27984     27982     27985     27987
     27984     27982     27985     27988     27985     27988     27991     27992
     27985     27988     27991     27993     27985     27988     27991     27994
     27986     27985     27988     27989     27986     27985     27988     27990
     27986     27985     27988     27991     27987     27985     27988     27989
     27987     27985     27988     27990     27987     27985     27988     27991
     27988     27991     27994     27995     27988     27991     27994     27996
     27988     27991     27994     27997     27989     27988     27991     27992
     27989     27988     27991     27993     27989     27988     27991     27994
     27990     27988     27991     27992     27990     27988     27991     27993
     27990     27988     27991     27994     27991     27994     27997     27998
     27991     27994     27997     27999     27991     27994     27997     28000
     27992     27991     27994     27995     27992     27991     27994     27996
     27992     27991     27994     27997     27993     27991     27994     27995
     27993     27991     27994     27996     27993     27991     27994     27997
     27994     27997     28000     28001     27994     27997     28000     28002
     27994     27997     28000     28003     27995     27994     27997     27998
     27995     27994     27997     27999     27995     27994     27997     28000
     27996     27994     27997     27998     27996     27994     27997     27999
     27996     27994     27997     28000     27998     27997     28000     28001
     27998     27997     28000     28002     27998     27997     28000     28003
     27999     27997     28000     28001     27999     27997     28000     28002
     27999     27997     28000     28003     28004     28006     28009     28010
     28004     28006     28009     28011     28004     28006     28009     28013
     28005     28004     28006     28007     28005     28004     28006     28008
     28005     28004     28006     28009     28006     28009     28011     28012
     28006     28009     28013     28014     28006     28009     28013     28015
     28006     28009     28013     28016     28007     28006     28009     28010
     28007     28006     28009     28011     28007     28006     28009     28013
     28008     28006     28009     28010     28008     28006     28009     28011
     28008     28006     28009     28013     28009     28013     28016     28017
     28009     28013     28016     28018     28009     28013     28016     28019
     28010     28009     28011     28012     28010     28009     28013     28014
     28010     28009     28013     28015     28010     28009     28013     28016
     28011     28009     28013     28014     28011     28009     28013     28015
     28011     28009     28013     28016     28012     28011     28009     28013
     28013     28016     28019     28020     28013     28016     28019     28021
     28013     28016     28019     28022     28014     28013     28016     28017
     28014     28013     28016     28018     28014     28013     28016     28019
     28015     28013     28016     28017     28015     28013     28016     28018
     28015     28013     28016     28019     28016     28019     28022     28023
     28016     28019     28022     28024     28016     28019     28022     28025
     28017     28016     28019     28020     28017     28016     28019     28021
     28017     28016     28019     28022     28018     28016     28019     28020
     28018     28016     28019     28021     28018     28016     28019     28022
     28019     28022     28025     28026     28019     28022     28025     28027
     28019     28022     28025     28028     28020     28019     28022     28023
     28020     28019     28022     28024     28020     28019     28022     28025
     28021     28019     28022     28023     28021     28019     28022     28024
     28021     28019     28022     28025     28022     28025     28028     28029
     28022     28025     28028     28030     28022     28025     28028     28031
     28023     28022     28025     28026     28023     28022     28025     28027
     28023     28022     28025     28028     28024     28022     28025     28026
     28024     28022     28025     28027     28024     28022     28025     28028
     28025     28028     28031     28032     28025     28028     28031     28033
     28025     28028     28031     28034     28026     28025     28028     28029
     28026     28025     28028     28030     28026     28025     28028     28031
     28027     28025     28028     28029     28027     28025     28028     28030
     28027     28025     28028     28031     28028     28031     28034     28035
     28028     28031     28034     28036     28028     28031     28034     28037
     28029     28028     28031     28032     28029     28028     28031     28033
     28029     28028     28031     28034     28030     28028     28031     28032
     28030     28028     28031     28033     28030     28028     28031     28034
     28031     28034     28037     28038     28031     28034     28037     28039
     28031     28034     28037     28040     28032     28031     28034     28035
     28032     28031     28034     28036     28032     28031     28034     28037
     28033     28031     28034     28035     28033     28031     28034     28036
     28033     28031     28034     28037     28034     28037     28040     28041
     28034     28037     28040     28042     28034     28037     28040     28043
     28035     28034     28037     28038     28035     28034     28037     28039
     28035     28034     28037     28040     28036     28034     28037     28038
     28036     28034     28037     28039     28036     28034     28037     28040
     28037     28040     28043     28044     28037     28040     28043     28045
     28037     28040     28043     28046     28038     28037     28040     28041
     28038     28037     28040     28042     28038     28037     28040     28043
     28039     28037     28040     28041     28039     28037     28040     28042
     28039     28037     28040     28043     28041     28040     28043     28044
     28041     28040     28043     28045     28041     28040     28043     28046
     28042     28040     28043     28044     28042     28040     28043     28045
     28042     28040     28043     28046     28047     28050     28053     28051
     28047     28050     28054     28055     28047     28050     28054     28056
     28047     28050     28054     28057     28048     28047     28050     28053
     28048     28047     28050     28054     28049     28047     28050     28053
     28049     28047     28050     28054     28050     28053     28051     28052
     28050     28053     28051     28060     28050     28053     28051     28063
     28050     28054     28057     28058     28050     28054     28057     28059
     28050     28054     28057     28060     28051     28053     28050     28054
     28051     28060     28057     28054     28051     28060     28057     28058
     28051     28060     28057     28059     28051     28060     28062     28099
     28051     28063     28065     28066     28051     28063     28067     28068
     28051     28063     28067     28069     28051     28063     28067     28070
     28052     28051     28060     28057     28052     28051     28060     28061
     28052     28051     28060     28062     28052     28051     28063     28064
     28052     28051     28063     28065     28052     28051     28063     28067
     28053     28050     28054     28055     28053     28050     28054     28056
     28053     28050     28054     28057     28053     28051     28060     28057
     28053     28051     28060     28061     28053     28051     28060     28062
     28053     28051     28063     28064     28053     28051     28063     28065
     28053     28051     28063     28067     28054     28057     28059     28075
     28054     28057     28060     28061     28054     28057     28060     28062
     28055     28054     28057     28058     28055     28054     28057     28059
     28055     28054     28057     28060     28056     28054     28057     28058
     28056     28054     28057     28059     28056     28054     28057     28060
     28057     28059     28075     28072     28057     28059     28075     28078
     28057     28059     28075     28079     28057     28060     28051     28063
     28057     28060     28062     28099     28058     28057     28059     28075
     28058     28057     28060     28061     28058     28057     28060     28062
     28059     28057     28060     28061     28059     28057     28060     28062
     28059     28075     28072     28073     28059     28075     28072     28074
     28059     28075     28078     28076     28059     28075     28079     28080
     28059     28075     28079     28081     28059     28075     28079     28082
     28060     28051     28063     28064     28060     28051     28063     28065
     28060     28051     28063     28067     28060     28057     28059     28075
     28060     28062     28099     28100     28060     28062     28099     28103
     28060     28062     28099     28104     28061     28060     28051     28063
     28061     28060     28062     28099     28062     28060     28051     28063
     28062     28099     28103     28101     28062     28099     28104     28105
     28062     28099     28104     28106     28062     28099     28104     28108
     28063     28067     28070     28071     28064     28063     28065     28066
     28064     28063     28067     28068     28064     28063     28067     28069
     28064     28063     28067     28070     28065     28063     28067     28068
     28065     28063     28067     28069     28065     28063     28067     28070
     28066     28065     28063     28067     28068     28067     28070     28071
     28069     28067     28070     28071     28072     28075     28078     28076
     28072     28075     28079     28080     28072     28075     28079     28081
     28072     28075     28079     28082     28073     28072     28075     28078
     28073     28072     28075     28079     28074     28072     28075     28078
     28074     28072     28075     28079     28075     28078     28076     28077
     28075     28078     28076     28086     28075     28078     28076     28090
     28075     28079     28082     28083     28075     28079     28082     28084
     28075     28079     28082     28086     28076     28078     28075     28079
     28076     28086     28082     28079     28076     28086     28082     28083
     28076     28086     28082     28084     28076     28086     28088     28089
     28076     28090     28092     28093     28076     28090     28094     28095
     28076     28090     28094     28096     28076     28090     28094     28097
     28077     28076     28086     28082     28077     28076     28086     28087
     28077     28076     28086     28088     28077     28076     28090     28091
     28077     28076     28090     28092     28077     28076     28090     28094
     28078     28075     28079     28080     28078     28075     28079     28081
     28078     28075     28079     28082     28078     28076     28086     28082
     28078     28076     28086     28087     28078     28076     28086     28088
     28078     28076     28090     28091     28078     28076     28090     28092
     28078     28076     28090     28094     28079     28082     28084     28085
     28079     28082     28086     28087     28079     28082     28086     28088
     28080     28079     28082     28083     28080     28079     28082     28084
     28080     28079     28082     28086     28081     28079     28082     28083
     28081     28079     28082     28084     28081     28079     28082     28086
     28082     28086     28076     28090     28082     28086     28088     28089
     28083     28082     28084     28085     28083     28082     28086     28087
     28083     28082     28086     28088     28084     28082     28086     28087
     28084     28082     28086     28088     28085     28084     28082     28086
     28086     28076     28090     28091     28086     28076     28090     28092
     28086     28076     28090     28094     28087     28086     28076     28090
     28087     28086     28088     28089     28088     28086     28076     28090
     28090     28094     28097     28098     28091     28090     28092     28093
     28091     28090     28094     28095     28091     28090     28094     28096
     28091     28090     28094     28097     28092     28090     28094     28095
     28092     28090     28094     28096     28092     28090     28094     28097
     28093     28092     28090     28094     28095     28094     28097     28098
     28096     28094     28097     28098     28099     28103     28101     28102
     28099     28103     28101     28111     28099     28103     28101     28118
     28099     28104     28106     28107     28099     28104     28108     28109
     28099     28104     28108     28110     28099     28104     28108     28111
     28100     28099     28103     28101     28100     28099     28104     28105
     28100     28099     28104     28106     28100     28099     28104     28108
     28101     28103     28099     28104     28101     28111     28108     28104
     28101     28111     28108     28109     28101     28111     28108     28110
     28101     28111     28113     28114     28101     28118     28120     28121
     28101     28118     28122     28123     28101     28118     28122     28124
     28101     28118     28122     28125     28102     28101     28111     28108
     28102     28101     28111     28112     28102     28101     28111     28113
     28102     28101     28118     28119     28102     28101     28118     28120
     28102     28101     28118     28122     28103     28099     28104     28105
     28103     28099     28104     28106     28103     28099     28104     28108
     28103     28101     28111     28108     28103     28101     28111     28112
     28103     28101     28111     28113     28103     28101     28118     28119
     28103     28101     28118     28120     28103     28101     28118     28122
     28104     28108     28110     28127     28104     28108     28111     28112
     28104     28108     28111     28113     28105     28104     28106     28107
     28105     28104     28108     28109     28105     28104     28108     28110
     28105     28104     28108     28111     28106     28104     28108     28109
     28106     28104     28108     28110     28106     28104     28108     28111
     28107     28106     28104     28108     28108     28110     28127     28128
     28108     28110     28127     28131     28108     28110     28127     28132
     28108     28111     28101     28118     28108     28111     28113     28114
     28109     28108     28110     28127     28109     28108     28111     28112
     28109     28108     28111     28113     28110     28108     28111     28112
     28110     28108     28111     28113     28110     28127     28131     28129
     28110     28127     28132     28133     28110     28127     28132     28134
     28110     28127     28132     28136     28111     28101     28118     28119
     28111     28101     28118     28120     28111     28101     28118     28122
     28111     28108     28110     28127     28111     28113     28114     28115
     28111     28113     28114     28116     28111     28113     28114     28117
     28112     28111     28101     28118     28112     28111     28113     28114
     28113     28111     28101     28118     28118     28122     28125     28126
     28119     28118     28120     28121     28119     28118     28122     28123
     28119     28118     28122     28124     28119     28118     28122     28125
     28120     28118     28122     28123     28120     28118     28122     28124
     28120     28118     28122     28125     28121     28120     28118     28122
     28123     28122     28125     28126     28124     28122     28125     28126
     28127     28131     28129     28130     28127     28131     28129     28139
     28127     28131     28129     28146     28127     28132     28134     28135
     28127     28132     28136     28137     28127     28132     28136     28138
     28127     28132     28136     28139     28128     28127     28131     28129
     28128     28127     28132     28133     28128     28127     28132     28134
     28128     28127     28132     28136     28129     28131     28127     28132
     28129     28139     28136     28132     28129     28139     28136     28137
     28129     28139     28136     28138     28129     28139     28141     28142
     28129     28146     28148     28149     28129     28146     28150     28151
     28129     28146     28150     28152     28129     28146     28150     28153
     28130     28129     28139     28136     28130     28129     28139     28140
     28130     28129     28139     28141     28130     28129     28146     28147
     28130     28129     28146     28148     28130     28129     28146     28150
     28131     28127     28132     28133     28131     28127     28132     28134
     28131     28127     28132     28136     28131     28129     28139     28136
     28131     28129     28139     28140     28131     28129     28139     28141
     28131     28129     28146     28147     28131     28129     28146     28148
     28131     28129     28146     28150     28132     28136     28138     28180
     28132     28136     28139     28140     28132     28136     28139     28141
     28133     28132     28134     28135     28133     28132     28136     28137
     28133     28132     28136     28138     28133     28132     28136     28139
     28134     28132     28136     28137     28134     28132     28136     28138
     28134     28132     28136     28139     28135     28134     28132     28136
     28136     28138     28180     28181     28136     28138     28180     28184
     28136     28138     28180     28185     28136     28139     28129     28146
     28136     28139     28141     28142     28137     28136     28138     28180
     28137     28136     28139     28140     28137     28136     28139     28141
     28138     28136     28139     28140     28138     28136     28139     28141
     28138     28180     28184     28182     28138     28180     28185     28186
     28138     28180     28185     28187     28138     28180     28185     28189
     28139     28129     28146     28147     28139     28129     28146     28148
     28139     28129     28146     28150     28139     28136     28138     28180
     28139     28141     28142     28143     28139     28141     28142     28144
     28139     28141     28142     28145     28140     28139     28129     28146
     28140     28139     28141     28142     28141     28139     28129     28146
     28146     28150     28153     28154     28147     28146     28148     28149
     28147     28146     28150     28151     28147     28146     28150     28152
     28147     28146     28150     28153     28148     28146     28150     28151
     28148     28146     28150     28152     28148     28146     28150     28153
     28149     28148     28146     28150     28150     28153     28154     28155
     28150     28153     28154     28158     28150     28153     28154     28159
     28151     28150     28153     28154     28152     28150     28153     28154
     28153     28154     28158     28156     28153     28154     28159     28160
     28153     28154     28159     28161     28153     28154     28159     28163
     28154     28158     28156     28157     28154     28158     28156     28167
     28154     28158     28156     28171     28154     28159     28161     28162
     28154     28159     28163     28164     28154     28159     28163     28165
     28154     28159     28163     28167     28155     28154     28158     28156
     28155     28154     28159     28160     28155     28154     28159     28161
     28155     28154     28159     28163     28156     28158     28154     28159
     28156     28167     28163     28159     28156     28167     28163     28164
     28156     28167     28163     28165     28156     28167     28169     28170
     28156     28171     28173     28174     28156     28171     28175     28176
     28156     28171     28175     28177     28156     28171     28175     28178
     28157     28156     28167     28163     28157     28156     28167     28168
     28157     28156     28167     28169     28157     28156     28171     28172
     28157     28156     28171     28173     28157     28156     28171     28175
     28158     28154     28159     28160     28158     28154     28159     28161
     28158     28154     28159     28163     28158     28156     28167     28163
     28158     28156     28167     28168     28158     28156     28167     28169
     28158     28156     28171     28172     28158     28156     28171     28173
     28158     28156     28171     28175     28159     28163     28165     28166
     28159     28163     28167     28168     28159     28163     28167     28169
     28160     28159     28161     28162     28160     28159     28163     28164
     28160     28159     28163     28165     28160     28159     28163     28167
     28161     28159     28163     28164     28161     28159     28163     28165
     28161     28159     28163     28167     28162     28161     28159     28163
     28163     28167     28156     28171     28163     28167     28169     28170
     28164     28163     28165     28166     28164     28163     28167     28168
     28164     28163     28167     28169     28165     28163     28167     28168
     28165     28163     28167     28169     28166     28165     28163     28167
     28167     28156     28171     28172     28167     28156     28171     28173
     28167     28156     28171     28175     28168     28167     28156     28171
     28168     28167     28169     28170     28169     28167     28156     28171
     28171     28175     28178     28179     28172     28171     28173     28174
     28172     28171     28175     28176     28172     28171     28175     28177
     28172     28171     28175     28178     28173     28171     28175     28176
     28173     28171     28175     28177     28173     28171     28175     28178
     28174     28173     28171     28175     28176     28175     28178     28179
     28177     28175     28178     28179     28180     28184     28182     28183
     28180     28184     28182     28192     28180     28184     28182     28196
     28180     28185     28187     28188     28180     28185     28189     28190
     28180     28185     28189     28191     28180     28185     28189     28192
     28181     28180     28184     28182     28181     28180     28185     28186
     28181     28180     28185     28187     28181     28180     28185     28189
     28182     28184     28180     28185     28182     28192     28189     28185
     28182     28192     28189     28190     28182     28192     28189     28191
     28182     28192     28194     28195     28182     28196     28199     28200
     28183     28182     28192     28189     28183     28182     28192     28193
     28183     28182     28192     28194     28183     28182     28196     28197
     28183     28182     28196     28198     28183     28182     28196     28199
     28184     28180     28185     28186     28184     28180     28185     28187
     28184     28180     28185     28189     28184     28182     28192     28189
     28184     28182     28192     28193     28184     28182     28192     28194
     28184     28182     28196     28197     28184     28182     28196     28198
     28184     28182     28196     28199     28185     28189     28191     28201
     28185     28189     28192     28193     28185     28189     28192     28194
     28186     28185     28187     28188     28186     28185     28189     28190
     28186     28185     28189     28191     28186     28185     28189     28192
     28187     28185     28189     28190     28187     28185     28189     28191
     28187     28185     28189     28192     28188     28187     28185     28189
     28189     28191     28201     28202     28189     28191     28201     28205
     28189     28191     28201     28206     28189     28192     28182     28196
     28189     28192     28194     28195     28190     28189     28191     28201
     28190     28189     28192     28193     28190     28189     28192     28194
     28191     28189     28192     28193     28191     28189     28192     28194
     28191     28201     28205     28203     28191     28201     28206     28207
     28191     28201     28206     28208     28191     28201     28206     28209
     28192     28182     28196     28197     28192     28182     28196     28198
     28192     28182     28196     28199     28192     28189     28191     28201
     28193     28192     28182     28196     28193     28192     28194     28195
     28194     28192     28182     28196     28197     28196     28199     28200
     28198     28196     28199     28200     28201     28205     28203     28204
     28201     28205     28203     28212     28201     28205     28203     28216
     28201     28206     28208     28221     28201     28206     28209     28210
     28201     28206     28209     28211     28201     28206     28209     28212
     28202     28201     28205     28203     28202     28201     28206     28207
     28202     28201     28206     28208     28202     28201     28206     28209
     28203     28205     28201     28206     28203     28212     28209     28206
     28203     28212     28209     28210     28203     28212     28209     28211
     28203     28212     28214     28215     28203     28216     28219     28220
     28204     28203     28212     28209     28204     28203     28212     28213
     28204     28203     28212     28214     28204     28203     28216     28217
     28204     28203     28216     28218     28204     28203     28216     28219
     28205     28201     28206     28207     28205     28201     28206     28208
     28205     28201     28206     28209     28205     28203     28212     28209
     28205     28203     28212     28213     28205     28203     28212     28214
     28205     28203     28216     28217     28205     28203     28216     28218
     28205     28203     28216     28219     28206     28208     28221     28222
     28206     28208     28221     28225     28206     28208     28221     28226
     28206     28209     28211     28264     28206     28209     28212     28213
     28206     28209     28212     28214     28207     28206     28208     28221
     28207     28206     28209     28210     28207     28206     28209     28211
     28207     28206     28209     28212     28208     28206     28209     28210
     28208     28206     28209     28211     28208     28206     28209     28212
     28208     28221     28225     28223     28208     28221     28226     28227
     28208     28221     28226     28228     28208     28221     28226     28229
     28209     28206     28208     28221     28209     28211     28264     28265
     28209     28211     28264     28268     28209     28211     28264     28269
     28209     28212     28203     28216     28209     28212     28214     28215
     28210     28209     28211     28264     28210     28209     28212     28213
     28210     28209     28212     28214     28211     28209     28212     28213
     28211     28209     28212     28214     28211     28264     28268     28266
     28211     28264     28269     28270     28211     28264     28269     28271
     28211     28264     28269     28273     28212     28203     28216     28217
     28212     28203     28216     28218     28212     28203     28216     28219
     28212     28209     28211     28264     28213     28212     28203     28216
     28213     28212     28214     28215     28214     28212     28203     28216
     28217     28216     28219     28220     28218     28216     28219     28220
     28221     28225     28223     28224     28221     28225     28223     28233
     28221     28225     28223     28237     28221     28226     28228     28242
     28221     28226     28229     28230     28221     28226     28229     28231
     28221     28226     28229     28233     28222     28221     28225     28223
     28222     28221     28226     28227     28222     28221     28226     28228
     28222     28221     28226     28229     28223     28225     28221     28226
     28223     28233     28229     28226     28223     28233     28229     28230
     28223     28233     28229     28231     28223     28233     28235     28236
     28223     28237     28240     28241     28224     28223     28233     28229
     28224     28223     28233     28234     28224     28223     28233     28235
     28224     28223     28237     28238     28224     28223     28237     28239
     28224     28223     28237     28240     28225     28221     28226     28227
     28225     28221     28226     28228     28225     28221     28226     28229
     28225     28223     28233     28229     28225     28223     28233     28234
     28225     28223     28233     28235     28225     28223     28237     28238
     28225     28223     28237     28239     28225     28223     28237     28240
     28226     28228     28242     28243     28226     28228     28242     28246
     28226     28228     28242     28247     28226     28229     28231     28232
     28226     28229     28233     28234     28226     28229     28233     28235
     28227     28226     28228     28242     28227     28226     28229     28230
     28227     28226     28229     28231     28227     28226     28229     28233
     28228     28226     28229     28230     28228     28226     28229     28231
     28228     28226     28229     28233     28228     28242     28246     28244
     28228     28242     28247     28248     28228     28242     28247     28249
     28228     28242     28247     28251     28229     28226     28228     28242
     28229     28233     28223     28237     28229     28233     28235     28236
     28230     28229     28231     28232     28230     28229     28233     28234
     28230     28229     28233     28235     28231     28229     28233     28234
     28231     28229     28233     28235     28232     28231     28229     28233
     28233     28223     28237     28238     28233     28223     28237     28239
     28233     28223     28237     28240     28234     28233     28223     28237
     28234     28233     28235     28236     28235     28233     28223     28237
     28238     28237     28240     28241     28239     28237     28240     28241
     28242     28246     28244     28245     28242     28246     28244     28255
     28242     28246     28244     28259     28242     28247     28249     28250
     28242     28247     28251     28252     28242     28247     28251     28253
     28242     28247     28251     28255     28243     28242     28246     28244
     28243     28242     28247     28248     28243     28242     28247     28249
     28243     28242     28247     28251     28244     28246     28242     28247
     28244     28255     28251     28247     28244     28255     28251     28252
     28244     28255     28251     28253     28244     28255     28257     28258
     28244     28259     28262     28263     28245     28244     28255     28251
     28245     28244     28255     28256     28245     28244     28255     28257
     28245     28244     28259     28260     28245     28244     28259     28261
     28245     28244     28259     28262     28246     28242     28247     28248
     28246     28242     28247     28249     28246     28242     28247     28251
     28246     28244     28255     28251     28246     28244     28255     28256
     28246     28244     28255     28257     28246     28244     28259     28260
     28246     28244     28259     28261     28246     28244     28259     28262
     28247     28251     28253     28254     28247     28251     28255     28256
     28247     28251     28255     28257     28248     28247     28249     28250
     28248     28247     28251     28252     28248     28247     28251     28253
     28248     28247     28251     28255     28249     28247     28251     28252
     28249     28247     28251     28253     28249     28247     28251     28255
     28250     28249     28247     28251     28251     28255     28244     28259
     28251     28255     28257     28258     28252     28251     28253     28254
     28252     28251     28255     28256     28252     28251     28255     28257
     28253     28251     28255     28256     28253     28251     28255     28257
     28254     28253     28251     28255     28255     28244     28259     28260
     28255     28244     28259     28261     28255     28244     28259     28262
     28256     28255     28244     28259     28256     28255     28257     28258
     28257     28255     28244     28259     28260     28259     28262     28263
     28261     28259     28262     28263     28264     28268     28266     28267
     28264     28268     28266     28276     28264     28268     28266     28280
     28264     28269     28271     28272     28264     28269     28273     28274
     28264     28269     28273     28275     28264     28269     28273     28276
     28265     28264     28268     28266     28265     28264     28269     28270
     28265     28264     28269     28271     28265     28264     28269     28273
     28266     28268     28264     28269     28266     28276     28273     28269
     28266     28276     28273     28274     28266     28276     28273     28275
     28266     28276     28278     28279     28266     28280     28283     28284
     28267     28266     28276     28273     28267     28266     28276     28277
     28267     28266     28276     28278     28267     28266     28280     28281
     28267     28266     28280     28282     28267     28266     28280     28283
     28268     28264     28269     28270     28268     28264     28269     28271
     28268     28264     28269     28273     28268     28266     28276     28273
     28268     28266     28276     28277     28268     28266     28276     28278
     28268     28266     28280     28281     28268     28266     28280     28282
     28268     28266     28280     28283     28269     28273     28275     28285
     28269     28273     28276     28277     28269     28273     28276     28278
     28270     28269     28271     28272     28270     28269     28273     28274
     28270     28269     28273     28275     28270     28269     28273     28276
     28271     28269     28273     28274     28271     28269     28273     28275
     28271     28269     28273     28276     28272     28271     28269     28273
     28273     28275     28285     28286     28273     28275     28285     28289
     28273     28275     28285     28290     28273     28276     28266     28280
     28273     28276     28278     28279     28274     28273     28275     28285
     28274     28273     28276     28277     28274     28273     28276     28278
     28275     28273     28276     28277     28275     28273     28276     28278
     28275     28285     28289     28287     28275     28285     28290     28291
     28275     28285     28290     28292     28275     28285     28290     28300
     28276     28266     28280     28281     28276     28266     28280     28282
     28276     28266     28280     28283     28276     28273     28275     28285
     28277     28276     28266     28280     28277     28276     28278     28279
     28278     28276     28266     28280     28281     28280     28283     28284
     28282     28280     28283     28284     28285     28289     28287     28288
     28285     28289     28287     28303     28285     28289     28287     28307
     28285     28290     28292     28293     28285     28290     28292     28294
     28285     28290     28300     28301     28285     28290     28300     28302
     28285     28290     28300     28303     28286     28285     28289     28287
     28286     28285     28290     28291     28286     28285     28290     28292
     28286     28285     28290     28300     28287     28289     28285     28290
     28287     28303     28300     28290     28287     28303     28300     28301
     28287     28303     28300     28302     28287     28303     28305     28306
     28287     28307     28310     28311     28288     28287     28303     28300
     28288     28287     28303     28304     28288     28287     28303     28305
     28288     28287     28307     28308     28288     28287     28307     28309
     28288     28287     28307     28310     28289     28285     28290     28291
     28289     28285     28290     28292     28289     28285     28290     28300
     28289     28287     28303     28300     28289     28287     28303     28304
     28289     28287     28303     28305     28289     28287     28307     28308
     28289     28287     28307     28309     28289     28287     28307     28310
     28290     28292     28294     28295     28290     28292     28294     28296
     28290     28300     28302     28312     28290     28300     28303     28304
     28290     28300     28303     28305     28291     28290     28292     28293
     28291     28290     28292     28294     28291     28290     28300     28301
     28291     28290     28300     28302     28291     28290     28300     28303
     28292     28290     28300     28301     28292     28290     28300     28302
     28292     28290     28300     28303     28292     28294     28296     28297
     28292     28294     28296     28298     28292     28294     28296     28299
     28293     28292     28290     28300     28293     28292     28294     28295
     28293     28292     28294     28296     28294     28292     28290     28300
     28295     28294     28296     28297     28295     28294     28296     28298
     28295     28294     28296     28299     28300     28302     28312     28313
     28300     28302     28312     28316     28300     28302     28312     28317
     28300     28303     28287     28307     28300     28303     28305     28306
     28301     28300     28302     28312     28301     28300     28303     28304
     28301     28300     28303     28305     28302     28300     28303     28304
     28302     28300     28303     28305     28302     28312     28316     28314
     28302     28312     28317     28318     28302     28312     28317     28319
     28302     28312     28317     28320     28303     28287     28307     28308
     28303     28287     28307     28309     28303     28287     28307     28310
     28303     28300     28302     28312     28304     28303     28287     28307
     28304     28303     28305     28306     28305     28303     28287     28307
     28308     28307     28310     28311     28309     28307     28310     28311
     28312     28316     28314     28315     28312     28316     28314     28324
     28312     28316     28314     28328     28312     28317     28319     28333
     28312     28317     28320     28321     28312     28317     28320     28322
     28312     28317     28320     28324     28313     28312     28316     28314
     28313     28312     28317     28318     28313     28312     28317     28319
     28313     28312     28317     28320     28314     28316     28312     28317
     28314     28324     28320     28317     28314     28324     28320     28321
     28314     28324     28320     28322     28314     28324     28326     28327
     28314     28328     28331     28332     28315     28314     28324     28320
     28315     28314     28324     28325     28315     28314     28324     28326
     28315     28314     28328     28329     28315     28314     28328     28330
     28315     28314     28328     28331     28316     28312     28317     28318
     28316     28312     28317     28319     28316     28312     28317     28320
     28316     28314     28324     28320     28316     28314     28324     28325
     28316     28314     28324     28326     28316     28314     28328     28329
     28316     28314     28328     28330     28316     28314     28328     28331
     28317     28319     28333     28334     28317     28319     28333     28337
     28317     28319     28333     28338     28317     28320     28322     28323
     28317     28320     28324     28325     28317     28320     28324     28326
     28318     28317     28319     28333     28318     28317     28320     28321
     28318     28317     28320     28322     28318     28317     28320     28324
     28319     28317     28320     28321     28319     28317     28320     28322
     28319     28317     28320     28324     28319     28333     28337     28335
     28319     28333     28338     28339     28319     28333     28338     28340
     28319     28333     28338     28341     28320     28317     28319     28333
     28320     28324     28314     28328     28320     28324     28326     28327
     28321     28320     28322     28323     28321     28320     28324     28325
     28321     28320     28324     28326     28322     28320     28324     28325
     28322     28320     28324     28326     28323     28322     28320     28324
     28324     28314     28328     28329     28324     28314     28328     28330
     28324     28314     28328     28331     28325     28324     28314     28328
     28325     28324     28326     28327     28326     28324     28314     28328
     28329     28328     28331     28332     28330     28328     28331     28332
     28333     28337     28335     28336     28333     28337     28335     28345
     28333     28337     28335     28349     28333     28338     28340     28353
     28333     28338     28341     28342     28333     28338     28341     28343
     28333     28338     28341     28345     28334     28333     28337     28335
     28334     28333     28338     28339     28334     28333     28338     28340
     28334     28333     28338     28341     28335     28337     28333     28338
     28335     28345     28341     28338     28335     28345     28341     28342
     28335     28345     28341     28343     28335     28345     28347     28348
     28336     28335     28345     28341     28336     28335     28345     28346
     28336     28335     28345     28347     28336     28335     28349     28350
     28336     28335     28349     28351     28336     28335     28349     28352
     28337     28333     28338     28339     28337     28333     28338     28340
     28337     28333     28338     28341     28337     28335     28345     28341
     28337     28335     28345     28346     28337     28335     28345     28347
     28337     28335     28349     28350     28337     28335     28349     28351
     28337     28335     28349     28352     28338     28340     28353     28354
     28338     28340     28353     28357     28338     28340     28353     28358
     28338     28341     28343     28344     28338     28341     28345     28346
     28338     28341     28345     28347     28339     28338     28340     28353
     28339     28338     28341     28342     28339     28338     28341     28343
     28339     28338     28341     28345     28340     28338     28341     28342
     28340     28338     28341     28343     28340     28338     28341     28345
     28340     28353     28357     28355     28340     28353     28358     28359
     28340     28353     28358     28360     28340     28353     28358     28361
     28341     28338     28340     28353     28341     28345     28335     28349
     28341     28345     28347     28348     28342     28341     28343     28344
     28342     28341     28345     28346     28342     28341     28345     28347
     28343     28341     28345     28346     28343     28341     28345     28347
     28344     28343     28341     28345     28345     28335     28349     28350
     28345     28335     28349     28351     28345     28335     28349     28352
     28346     28345     28335     28349     28346     28345     28347     28348
     28347     28345     28335     28349     28353     28357     28355     28356
     28353     28357     28355     28364     28353     28357     28355     28368
     28353     28358     28360     28372     28353     28358     28361     28362
     28353     28358     28361     28363     28353     28358     28361     28364
     28354     28353     28357     28355     28354     28353     28358     28359
     28354     28353     28358     28360     28354     28353     28358     28361
     28355     28357     28353     28358     28355     28364     28361     28358
     28355     28364     28361     28362     28355     28364     28361     28363
     28355     28364     28366     28367     28356     28355     28364     28361
     28356     28355     28364     28365     28356     28355     28364     28366
     28356     28355     28368     28369     28356     28355     28368     28370
     28356     28355     28368     28371     28357     28353     28358     28359
     28357     28353     28358     28360     28357     28353     28358     28361
     28357     28355     28364     28361     28357     28355     28364     28365
     28357     28355     28364     28366     28357     28355     28368     28369
     28357     28355     28368     28370     28357     28355     28368     28371
     28358     28360     28372     28373     28358     28360     28372     28376
     28358     28360     28372     28377     28358     28361     28363     28400
     28358     28361     28364     28365     28358     28361     28364     28366
     28359     28358     28360     28372     28359     28358     28361     28362
     28359     28358     28361     28363     28359     28358     28361     28364
     28360     28358     28361     28362     28360     28358     28361     28363
     28360     28358     28361     28364     28360     28372     28376     28374
     28360     28372     28377     28378     28360     28372     28377     28379
     28360     28372     28377     28387     28361     28358     28360     28372
     28361     28363     28400     28401     28361     28363     28400     28404
     28361     28363     28400     28405     28361     28364     28355     28368
     28361     28364     28366     28367     28362     28361     28363     28400
     28362     28361     28364     28365     28362     28361     28364     28366
     28363     28361     28364     28365     28363     28361     28364     28366
     28363     28400     28404     28402     28363     28400     28405     28406
     28363     28400     28405     28407     28363     28400     28405     28415
     28364     28355     28368     28369     28364     28355     28368     28370
     28364     28355     28368     28371     28364     28361     28363     28400
     28365     28364     28355     28368     28365     28364     28366     28367
     28366     28364     28355     28368     28372     28376     28374     28375
     28372     28376     28374     28391     28372     28376     28374     28395
     28372     28377     28379     28380     28372     28377     28379     28381
     28372     28377     28387     28388     28372     28377     28387     28389
     28372     28377     28387     28391     28373     28372     28376     28374
     28373     28372     28377     28378     28373     28372     28377     28379
     28373     28372     28377     28387     28374     28376     28372     28377
     28374     28391     28387     28377     28374     28391     28387     28388
     28374     28391     28387     28389     28374     28391     28393     28394
     28374     28395     28398     28399     28375     28374     28391     28387
     28375     28374     28391     28392     28375     28374     28391     28393
     28375     28374     28395     28396     28375     28374     28395     28397
     28375     28374     28395     28398     28376     28372     28377     28378
     28376     28372     28377     28379     28376     28372     28377     28387
     28376     28374     28391     28387     28376     28374     28391     28392
     28376     28374     28391     28393     28376     28374     28395     28396
     28376     28374     28395     28397     28376     28374     28395     28398
     28377     28379     28381     28382     28377     28379     28381     28383
     28377     28387     28389     28390     28377     28387     28391     28392
     28377     28387     28391     28393     28378     28377     28379     28380
     28378     28377     28379     28381     28378     28377     28387     28388
     28378     28377     28387     28389     28378     28377     28387     28391
     28379     28377     28387     28388     28379     28377     28387     28389
     28379     28377     28387     28391     28379     28381     28383     28384
     28379     28381     28383     28385     28379     28381     28383     28386
     28380     28379     28377     28387     28380     28379     28381     28382
     28380     28379     28381     28383     28381     28379     28377     28387
     28382     28381     28383     28384     28382     28381     28383     28385
     28382     28381     28383     28386     28387     28391     28374     28395
     28387     28391     28393     28394     28388     28387     28389     28390
     28388     28387     28391     28392     28388     28387     28391     28393
     28389     28387     28391     28392     28389     28387     28391     28393
     28390     28389     28387     28391     28391     28374     28395     28396
     28391     28374     28395     28397     28391     28374     28395     28398
     28392     28391     28374     28395     28392     28391     28393     28394
     28393     28391     28374     28395     28396     28395     28398     28399
     28397     28395     28398     28399     28400     28404     28402     28403
     28400     28404     28402     28418     28400     28404     28402     28422
     28400     28405     28407     28408     28400     28405     28407     28409
     28400     28405     28415     28416     28400     28405     28415     28417
     28400     28405     28415     28418     28401     28400     28404     28402
     28401     28400     28405     28406     28401     28400     28405     28407
     28401     28400     28405     28415     28402     28404     28400     28405
     28402     28418     28415     28405     28402     28418     28415     28416
     28402     28418     28415     28417     28402     28418     28420     28421
     28402     28422     28425     28426     28403     28402     28418     28415
     28403     28402     28418     28419     28403     28402     28418     28420
     28403     28402     28422     28423     28403     28402     28422     28424
     28403     28402     28422     28425     28404     28400     28405     28406
     28404     28400     28405     28407     28404     28400     28405     28415
     28404     28402     28418     28415     28404     28402     28418     28419
     28404     28402     28418     28420     28404     28402     28422     28423
     28404     28402     28422     28424     28404     28402     28422     28425
     28405     28407     28409     28410     28405     28407     28409     28411
     28405     28415     28417     28427     28405     28415     28418     28419
     28405     28415     28418     28420     28406     28405     28407     28408
     28406     28405     28407     28409     28406     28405     28415     28416
     28406     28405     28415     28417     28406     28405     28415     28418
     28407     28405     28415     28416     28407     28405     28415     28417
     28407     28405     28415     28418     28407     28409     28411     28412
     28407     28409     28411     28413     28407     28409     28411     28414
     28408     28407     28405     28415     28408     28407     28409     28410
     28408     28407     28409     28411     28409     28407     28405     28415
     28410     28409     28411     28412     28410     28409     28411     28413
     28410     28409     28411     28414     28415     28417     28427     28428
     28415     28417     28427     28431     28415     28417     28427     28432
     28415     28418     28402     28422     28415     28418     28420     28421
     28416     28415     28417     28427     28416     28415     28418     28419
     28416     28415     28418     28420     28417     28415     28418     28419
     28417     28415     28418     28420     28417     28427     28431     28429
     28417     28427     28432     28433     28417     28427     28432     28434
     28417     28427     28432     28435     28418     28402     28422     28423
     28418     28402     28422     28424     28418     28402     28422     28425
     28418     28415     28417     28427     28419     28418     28402     28422
     28419     28418     28420     28421     28420     28418     28402     28422
     28423     28422     28425     28426     28424     28422     28425     28426
     28427     28431     28429     28430     28427     28431     28429     28439
     28427     28431     28429     28443     28427     28432     28434     28448
     28427     28432     28435     28436     28427     28432     28435     28437
     28427     28432     28435     28439     28428     28427     28431     28429
     28428     28427     28432     28433     28428     28427     28432     28434
     28428     28427     28432     28435     28429     28431     28427     28432
     28429     28439     28435     28432     28429     28439     28435     28436
     28429     28439     28435     28437     28429     28439     28441     28442
     28429     28443     28446     28447     28430     28429     28439     28435
     28430     28429     28439     28440     28430     28429     28439     28441
     28430     28429     28443     28444     28430     28429     28443     28445
     28430     28429     28443     28446     28431     28427     28432     28433
     28431     28427     28432     28434     28431     28427     28432     28435
     28431     28429     28439     28435     28431     28429     28439     28440
     28431     28429     28439     28441     28431     28429     28443     28444
     28431     28429     28443     28445     28431     28429     28443     28446
     28432     28434     28448     28449     28432     28434     28448     28452
     28432     28434     28448     28453     28432     28435     28437     28438
     28432     28435     28439     28440     28432     28435     28439     28441
     28433     28432     28434     28448     28433     28432     28435     28436
     28433     28432     28435     28437     28433     28432     28435     28439
     28434     28432     28435     28436     28434     28432     28435     28437
     28434     28432     28435     28439     28434     28448     28452     28450
     28434     28448     28453     28454     28434     28448     28453     28455
     28434     28448     28453     28456     28435     28432     28434     28448
     28435     28439     28429     28443     28435     28439     28441     28442
     28436     28435     28437     28438     28436     28435     28439     28440
     28436     28435     28439     28441     28437     28435     28439     28440
     28437     28435     28439     28441     28438     28437     28435     28439
     28439     28429     28443     28444     28439     28429     28443     28445
     28439     28429     28443     28446     28440     28439     28429     28443
     28440     28439     28441     28442     28441     28439     28429     28443
     28444     28443     28446     28447     28445     28443     28446     28447
     28448     28452     28450     28451     28448     28452     28450     28460
     28448     28452     28450     28464     28448     28453     28455     28468
     28448     28453     28456     28457     28448     28453     28456     28458
     28448     28453     28456     28460     28449     28448     28452     28450
     28449     28448     28453     28454     28449     28448     28453     28455
     28449     28448     28453     28456     28450     28452     28448     28453
     28450     28460     28456     28453     28450     28460     28456     28457
     28450     28460     28456     28458     28450     28460     28462     28463
     28451     28450     28460     28456     28451     28450     28460     28461
     28451     28450     28460     28462     28451     28450     28464     28465
     28451     28450     28464     28466     28451     28450     28464     28467
     28452     28448     28453     28454     28452     28448     28453     28455
     28452     28448     28453     28456     28452     28450     28460     28456
     28452     28450     28460     28461     28452     28450     28460     28462
     28452     28450     28464     28465     28452     28450     28464     28466
     28452     28450     28464     28467     28453     28455     28468     28469
     28453     28455     28468     28472     28453     28455     28468     28473
     28453     28456     28458     28459     28453     28456     28460     28461
     28453     28456     28460     28462     28454     28453     28455     28468
     28454     28453     28456     28457     28454     28453     28456     28458
     28454     28453     28456     28460     28455     28453     28456     28457
     28455     28453     28456     28458     28455     28453     28456     28460
     28455     28468     28472     28470     28455     28468     28473     28474
     28455     28468     28473     28475     28455     28468     28473     28476
     28456     28453     28455     28468     28456     28460     28450     28464
     28456     28460     28462     28463     28457     28456     28458     28459
     28457     28456     28460     28461     28457     28456     28460     28462
     28458     28456     28460     28461     28458     28456     28460     28462
     28459     28458     28456     28460     28460     28450     28464     28465
     28460     28450     28464     28466     28460     28450     28464     28467
     28461     28460     28450     28464     28461     28460     28462     28463
     28462     28460     28450     28464     28468     28472     28470     28471
     28468     28472     28470     28479     28468     28472     28470     28483
     28468     28473     28475     28487     28468     28473     28476     28477
     28468     28473     28476     28478     28468     28473     28476     28479
     28469     28468     28472     28470     28469     28468     28473     28474
     28469     28468     28473     28475     28469     28468     28473     28476
     28470     28472     28468     28473     28470     28479     28476     28473
     28470     28479     28476     28477     28470     28479     28476     28478
     28470     28479     28481     28482     28471     28470     28479     28476
     28471     28470     28479     28480     28471     28470     28479     28481
     28471     28470     28483     28484     28471     28470     28483     28485
     28471     28470     28483     28486     28472     28468     28473     28474
     28472     28468     28473     28475     28472     28468     28473     28476
     28472     28470     28479     28476     28472     28470     28479     28480
     28472     28470     28479     28481     28472     28470     28483     28484
     28472     28470     28483     28485     28472     28470     28483     28486
     28473     28475     28487     28488     28473     28475     28487     28491
     28473     28475     28487     28492     28473     28476     28478     28515
     28473     28476     28479     28480     28473     28476     28479     28481
     28474     28473     28475     28487     28474     28473     28476     28477
     28474     28473     28476     28478     28474     28473     28476     28479
     28475     28473     28476     28477     28475     28473     28476     28478
     28475     28473     28476     28479     28475     28487     28491     28489
     28475     28487     28492     28493     28475     28487     28492     28494
     28475     28487     28492     28502     28476     28473     28475     28487
     28476     28478     28515     28516     28476     28478     28515     28519
     28476     28478     28515     28520     28476     28479     28470     28483
     28476     28479     28481     28482     28477     28476     28478     28515
     28477     28476     28479     28480     28477     28476     28479     28481
     28478     28476     28479     28480     28478     28476     28479     28481
     28478     28515     28519     28517     28478     28515     28520     28521
     28478     28515     28520     28522     28478     28515     28520     28530
     28479     28470     28483     28484     28479     28470     28483     28485
     28479     28470     28483     28486     28479     28476     28478     28515
     28480     28479     28470     28483     28480     28479     28481     28482
     28481     28479     28470     28483     28487     28491     28489     28490
     28487     28491     28489     28506     28487     28491     28489     28510
     28487     28492     28494     28495     28487     28492     28494     28496
     28487     28492     28502     28503     28487     28492     28502     28504
     28487     28492     28502     28506     28488     28487     28491     28489
     28488     28487     28492     28493     28488     28487     28492     28494
     28488     28487     28492     28502     28489     28491     28487     28492
     28489     28506     28502     28492     28489     28506     28502     28503
     28489     28506     28502     28504     28489     28506     28508     28509
     28489     28510     28513     28514     28490     28489     28506     28502
     28490     28489     28506     28507     28490     28489     28506     28508
     28490     28489     28510     28511     28490     28489     28510     28512
     28490     28489     28510     28513     28491     28487     28492     28493
     28491     28487     28492     28494     28491     28487     28492     28502
     28491     28489     28506     28502     28491     28489     28506     28507
     28491     28489     28506     28508     28491     28489     28510     28511
     28491     28489     28510     28512     28491     28489     28510     28513
     28492     28494     28496     28497     28492     28494     28496     28498
     28492     28502     28504     28505     28492     28502     28506     28507
     28492     28502     28506     28508     28493     28492     28494     28495
     28493     28492     28494     28496     28493     28492     28502     28503
     28493     28492     28502     28504     28493     28492     28502     28506
     28494     28492     28502     28503     28494     28492     28502     28504
     28494     28492     28502     28506     28494     28496     28498     28499
     28494     28496     28498     28500     28494     28496     28498     28501
     28495     28494     28492     28502     28495     28494     28496     28497
     28495     28494     28496     28498     28496     28494     28492     28502
     28497     28496     28498     28499     28497     28496     28498     28500
     28497     28496     28498     28501     28502     28506     28489     28510
     28502     28506     28508     28509     28503     28502     28504     28505
     28503     28502     28506     28507     28503     28502     28506     28508
     28504     28502     28506     28507     28504     28502     28506     28508
     28505     28504     28502     28506     28506     28489     28510     28511
     28506     28489     28510     28512     28506     28489     28510     28513
     28507     28506     28489     28510     28507     28506     28508     28509
     28508     28506     28489     28510     28511     28510     28513     28514
     28512     28510     28513     28514     28515     28519     28517     28518
     28515     28519     28517     28533     28515     28519     28517     28537
     28515     28520     28522     28523     28515     28520     28522     28524
     28515     28520     28530     28531     28515     28520     28530     28532
     28515     28520     28530     28533     28516     28515     28519     28517
     28516     28515     28520     28521     28516     28515     28520     28522
     28516     28515     28520     28530     28517     28519     28515     28520
     28517     28533     28530     28520     28517     28533     28530     28531
     28517     28533     28530     28532     28517     28533     28535     28536
     28517     28537     28540     28541     28518     28517     28533     28530
     28518     28517     28533     28534     28518     28517     28533     28535
     28518     28517     28537     28538     28518     28517     28537     28539
     28518     28517     28537     28540     28519     28515     28520     28521
     28519     28515     28520     28522     28519     28515     28520     28530
     28519     28517     28533     28530     28519     28517     28533     28534
     28519     28517     28533     28535     28519     28517     28537     28538
     28519     28517     28537     28539     28519     28517     28537     28540
     28520     28522     28524     28525     28520     28522     28524     28526
     28520     28530     28532     28542     28520     28530     28533     28534
     28520     28530     28533     28535     28521     28520     28522     28523
     28521     28520     28522     28524     28521     28520     28530     28531
     28521     28520     28530     28532     28521     28520     28530     28533
     28522     28520     28530     28531     28522     28520     28530     28532
     28522     28520     28530     28533     28522     28524     28526     28527
     28522     28524     28526     28528     28522     28524     28526     28529
     28523     28522     28520     28530     28523     28522     28524     28525
     28523     28522     28524     28526     28524     28522     28520     28530
     28525     28524     28526     28527     28525     28524     28526     28528
     28525     28524     28526     28529     28530     28532     28542     28543
     28530     28532     28542     28546     28530     28532     28542     28547
     28530     28533     28517     28537     28530     28533     28535     28536
     28531     28530     28532     28542     28531     28530     28533     28534
     28531     28530     28533     28535     28532     28530     28533     28534
     28532     28530     28533     28535     28532     28542     28546     28544
     28532     28542     28547     28548     28532     28542     28547     28549
     28532     28542     28547     28550     28533     28517     28537     28538
     28533     28517     28537     28539     28533     28517     28537     28540
     28533     28530     28532     28542     28534     28533     28517     28537
     28534     28533     28535     28536     28535     28533     28517     28537
     28538     28537     28540     28541     28539     28537     28540     28541
     28542     28546     28544     28545     28542     28546     28544     28554
     28542     28546     28544     28558     28542     28547     28549     28563
     28542     28547     28550     28551     28542     28547     28550     28552
     28542     28547     28550     28554     28543     28542     28546     28544
     28543     28542     28547     28548     28543     28542     28547     28549
     28543     28542     28547     28550     28544     28546     28542     28547
     28544     28554     28550     28547     28544     28554     28550     28551
     28544     28554     28550     28552     28544     28554     28556     28557
     28544     28558     28561     28562     28545     28544     28554     28550
     28545     28544     28554     28555     28545     28544     28554     28556
     28545     28544     28558     28559     28545     28544     28558     28560
     28545     28544     28558     28561     28546     28542     28547     28548
     28546     28542     28547     28549     28546     28542     28547     28550
     28546     28544     28554     28550     28546     28544     28554     28555
     28546     28544     28554     28556     28546     28544     28558     28559
     28546     28544     28558     28560     28546     28544     28558     28561
     28547     28549     28563     28564     28547     28549     28563     28567
     28547     28549     28563     28568     28547     28550     28552     28553
     28547     28550     28554     28555     28547     28550     28554     28556
     28548     28547     28549     28563     28548     28547     28550     28551
     28548     28547     28550     28552     28548     28547     28550     28554
     28549     28547     28550     28551     28549     28547     28550     28552
     28549     28547     28550     28554     28549     28563     28567     28565
     28549     28563     28568     28569     28549     28563     28568     28570
     28549     28563     28568     28571     28550     28547     28549     28563
     28550     28554     28544     28558     28550     28554     28556     28557
     28551     28550     28552     28553     28551     28550     28554     28555
     28551     28550     28554     28556     28552     28550     28554     28555
     28552     28550     28554     28556     28553     28552     28550     28554
     28554     28544     28558     28559     28554     28544     28558     28560
     28554     28544     28558     28561     28555     28554     28544     28558
     28555     28554     28556     28557     28556     28554     28544     28558
     28559     28558     28561     28562     28560     28558     28561     28562
     28563     28567     28565     28566     28563     28567     28565     28575
     28563     28567     28565     28579     28563     28568     28570     28583
     28563     28568     28571     28572     28563     28568     28571     28573
     28563     28568     28571     28575     28564     28563     28567     28565
     28564     28563     28568     28569     28564     28563     28568     28570
     28564     28563     28568     28571     28565     28567     28563     28568
     28565     28575     28571     28568     28565     28575     28571     28572
     28565     28575     28571     28573     28565     28575     28577     28578
     28566     28565     28575     28571     28566     28565     28575     28576
     28566     28565     28575     28577     28566     28565     28579     28580
     28566     28565     28579     28581     28566     28565     28579     28582
     28567     28563     28568     28569     28567     28563     28568     28570
     28567     28563     28568     28571     28567     28565     28575     28571
     28567     28565     28575     28576     28567     28565     28575     28577
     28567     28565     28579     28580     28567     28565     28579     28581
     28567     28565     28579     28582     28568     28570     28583     28584
     28568     28570     28583     28587     28568     28570     28583     28588
     28568     28571     28573     28574     28568     28571     28575     28576
     28568     28571     28575     28577     28569     28568     28570     28583
     28569     28568     28571     28572     28569     28568     28571     28573
     28569     28568     28571     28575     28570     28568     28571     28572
     28570     28568     28571     28573     28570     28568     28571     28575
     28570     28583     28587     28585     28570     28583     28588     28589
     28570     28583     28588     28590     28570     28583     28588     28591
     28571     28568     28570     28583     28571     28575     28565     28579
     28571     28575     28577     28578     28572     28571     28573     28574
     28572     28571     28575     28576     28572     28571     28575     28577
     28573     28571     28575     28576     28573     28571     28575     28577
     28574     28573     28571     28575     28575     28565     28579     28580
     28575     28565     28579     28581     28575     28565     28579     28582
     28576     28575     28565     28579     28576     28575     28577     28578
     28577     28575     28565     28579     28583     28587     28585     28586
     28583     28587     28585     28594     28583     28587     28585     28598
     28583     28588     28590     28602     28583     28588     28591     28592
     28583     28588     28591     28593     28583     28588     28591     28594
     28584     28583     28587     28585     28584     28583     28588     28589
     28584     28583     28588     28590     28584     28583     28588     28591
     28585     28587     28583     28588     28585     28594     28591     28588
     28585     28594     28591     28592     28585     28594     28591     28593
     28585     28594     28596     28597     28586     28585     28594     28591
     28586     28585     28594     28595     28586     28585     28594     28596
     28586     28585     28598     28599     28586     28585     28598     28600
     28586     28585     28598     28601     28587     28583     28588     28589
     28587     28583     28588     28590     28587     28583     28588     28591
     28587     28585     28594     28591     28587     28585     28594     28595
     28587     28585     28594     28596     28587     28585     28598     28599
     28587     28585     28598     28600     28587     28585     28598     28601
     28588     28590     28602     28603     28588     28590     28602     28606
     28588     28590     28602     28607     28588     28591     28593     28630
     28588     28591     28594     28595     28588     28591     28594     28596
     28589     28588     28590     28602     28589     28588     28591     28592
     28589     28588     28591     28593     28589     28588     28591     28594
     28590     28588     28591     28592     28590     28588     28591     28593
     28590     28588     28591     28594     28590     28602     28606     28604
     28590     28602     28607     28608     28590     28602     28607     28609
     28590     28602     28607     28617     28591     28588     28590     28602
     28591     28593     28630     28631     28591     28593     28630     28634
     28591     28593     28630     28635     28591     28594     28585     28598
     28591     28594     28596     28597     28592     28591     28593     28630
     28592     28591     28594     28595     28592     28591     28594     28596
     28593     28591     28594     28595     28593     28591     28594     28596
     28593     28630     28634     28632     28593     28630     28635     28636
     28593     28630     28635     28637     28593     28630     28635     28645
     28594     28585     28598     28599     28594     28585     28598     28600
     28594     28585     28598     28601     28594     28591     28593     28630
     28595     28594     28585     28598     28595     28594     28596     28597
     28596     28594     28585     28598     28602     28606     28604     28605
     28602     28606     28604     28621     28602     28606     28604     28625
     28602     28607     28609     28610     28602     28607     28609     28611
     28602     28607     28617     28618     28602     28607     28617     28619
     28602     28607     28617     28621     28603     28602     28606     28604
     28603     28602     28607     28608     28603     28602     28607     28609
     28603     28602     28607     28617     28604     28606     28602     28607
     28604     28621     28617     28607     28604     28621     28617     28618
     28604     28621     28617     28619     28604     28621     28623     28624
     28604     28625     28628     28629     28605     28604     28621     28617
     28605     28604     28621     28622     28605     28604     28621     28623
     28605     28604     28625     28626     28605     28604     28625     28627
     28605     28604     28625     28628     28606     28602     28607     28608
     28606     28602     28607     28609     28606     28602     28607     28617
     28606     28604     28621     28617     28606     28604     28621     28622
     28606     28604     28621     28623     28606     28604     28625     28626
     28606     28604     28625     28627     28606     28604     28625     28628
     28607     28609     28611     28612     28607     28609     28611     28613
     28607     28617     28619     28620     28607     28617     28621     28622
     28607     28617     28621     28623     28608     28607     28609     28610
     28608     28607     28609     28611     28608     28607     28617     28618
     28608     28607     28617     28619     28608     28607     28617     28621
     28609     28607     28617     28618     28609     28607     28617     28619
     28609     28607     28617     28621     28609     28611     28613     28614
     28609     28611     28613     28615     28609     28611     28613     28616
     28610     28609     28607     28617     28610     28609     28611     28612
     28610     28609     28611     28613     28611     28609     28607     28617
     28612     28611     28613     28614     28612     28611     28613     28615
     28612     28611     28613     28616     28617     28621     28604     28625
     28617     28621     28623     28624     28618     28617     28619     28620
     28618     28617     28621     28622     28618     28617     28621     28623
     28619     28617     28621     28622     28619     28617     28621     28623
     28620     28619     28617     28621     28621     28604     28625     28626
     28621     28604     28625     28627     28621     28604     28625     28628
     28622     28621     28604     28625     28622     28621     28623     28624
     28623     28621     28604     28625     28626     28625     28628     28629
     28627     28625     28628     28629     28630     28634     28632     28633
     28630     28634     28632     28648     28630     28634     28632     28652
     28630     28635     28637     28638     28630     28635     28637     28639
     28630     28635     28645     28646     28630     28635     28645     28647
     28630     28635     28645     28648     28631     28630     28634     28632
     28631     28630     28635     28636     28631     28630     28635     28637
     28631     28630     28635     28645     28632     28634     28630     28635
     28632     28648     28645     28635     28632     28648     28645     28646
     28632     28648     28645     28647     28632     28648     28650     28651
     28632     28652     28655     28656     28633     28632     28648     28645
     28633     28632     28648     28649     28633     28632     28648     28650
     28633     28632     28652     28653     28633     28632     28652     28654
     28633     28632     28652     28655     28634     28630     28635     28636
     28634     28630     28635     28637     28634     28630     28635     28645
     28634     28632     28648     28645     28634     28632     28648     28649
     28634     28632     28648     28650     28634     28632     28652     28653
     28634     28632     28652     28654     28634     28632     28652     28655
     28635     28637     28639     28640     28635     28637     28639     28641
     28635     28645     28647     28657     28635     28645     28648     28649
     28635     28645     28648     28650     28636     28635     28637     28638
     28636     28635     28637     28639     28636     28635     28645     28646
     28636     28635     28645     28647     28636     28635     28645     28648
     28637     28635     28645     28646     28637     28635     28645     28647
     28637     28635     28645     28648     28637     28639     28641     28642
     28637     28639     28641     28643     28637     28639     28641     28644
     28638     28637     28635     28645     28638     28637     28639     28640
     28638     28637     28639     28641     28639     28637     28635     28645
     28640     28639     28641     28642     28640     28639     28641     28643
     28640     28639     28641     28644     28645     28647     28657     28658
     28645     28647     28657     28661     28645     28647     28657     28662
     28645     28648     28632     28652     28645     28648     28650     28651
     28646     28645     28647     28657     28646     28645     28648     28649
     28646     28645     28648     28650     28647     28645     28648     28649
     28647     28645     28648     28650     28647     28657     28661     28659
     28647     28657     28662     28663     28647     28657     28662     28664
     28647     28657     28662     28665     28648     28632     28652     28653
     28648     28632     28652     28654     28648     28632     28652     28655
     28648     28645     28647     28657     28649     28648     28632     28652
     28649     28648     28650     28651     28650     28648     28632     28652
     28653     28652     28655     28656     28654     28652     28655     28656
     28657     28661     28659     28660     28657     28661     28659     28669
     28657     28661     28659     28673     28657     28662     28664     28678
     28657     28662     28665     28666     28657     28662     28665     28667
     28657     28662     28665     28669     28658     28657     28661     28659
     28658     28657     28662     28663     28658     28657     28662     28664
     28658     28657     28662     28665     28659     28661     28657     28662
     28659     28669     28665     28662     28659     28669     28665     28666
     28659     28669     28665     28667     28659     28669     28671     28672
     28659     28673     28676     28677     28660     28659     28669     28665
     28660     28659     28669     28670     28660     28659     28669     28671
     28660     28659     28673     28674     28660     28659     28673     28675
     28660     28659     28673     28676     28661     28657     28662     28663
     28661     28657     28662     28664     28661     28657     28662     28665
     28661     28659     28669     28665     28661     28659     28669     28670
     28661     28659     28669     28671     28661     28659     28673     28674
     28661     28659     28673     28675     28661     28659     28673     28676
     28662     28664     28678     28679     28662     28664     28678     28682
     28662     28664     28678     28683     28662     28665     28667     28668
     28662     28665     28669     28670     28662     28665     28669     28671
     28663     28662     28664     28678     28663     28662     28665     28666
     28663     28662     28665     28667     28663     28662     28665     28669
     28664     28662     28665     28666     28664     28662     28665     28667
     28664     28662     28665     28669     28664     28678     28682     28680
     28664     28678     28683     28684     28664     28678     28683     28685
     28664     28678     28683     28686     28665     28662     28664     28678
     28665     28669     28659     28673     28665     28669     28671     28672
     28666     28665     28667     28668     28666     28665     28669     28670
     28666     28665     28669     28671     28667     28665     28669     28670
     28667     28665     28669     28671     28668     28667     28665     28669
     28669     28659     28673     28674     28669     28659     28673     28675
     28669     28659     28673     28676     28670     28669     28659     28673
     28670     28669     28671     28672     28671     28669     28659     28673
     28674     28673     28676     28677     28675     28673     28676     28677
     28678     28682     28680     28681     28678     28682     28680     28690
     28678     28682     28680     28694     28678     28683     28685     28698
     28678     28683     28686     28687     28678     28683     28686     28688
     28678     28683     28686     28690     28679     28678     28682     28680
     28679     28678     28683     28684     28679     28678     28683     28685
     28679     28678     28683     28686     28680     28682     28678     28683
     28680     28690     28686     28683     28680     28690     28686     28687
     28680     28690     28686     28688     28680     28690     28692     28693
     28681     28680     28690     28686     28681     28680     28690     28691
     28681     28680     28690     28692     28681     28680     28694     28695
     28681     28680     28694     28696     28681     28680     28694     28697
     28682     28678     28683     28684     28682     28678     28683     28685
     28682     28678     28683     28686     28682     28680     28690     28686
     28682     28680     28690     28691     28682     28680     28690     28692
     28682     28680     28694     28695     28682     28680     28694     28696
     28682     28680     28694     28697     28683     28685     28698     28699
     28683     28685     28698     28702     28683     28685     28698     28703
     28683     28686     28688     28689     28683     28686     28690     28691
     28683     28686     28690     28692     28684     28683     28685     28698
     28684     28683     28686     28687     28684     28683     28686     28688
     28684     28683     28686     28690     28685     28683     28686     28687
     28685     28683     28686     28688     28685     28683     28686     28690
     28685     28698     28702     28700     28685     28698     28703     28704
     28685     28698     28703     28705     28685     28698     28703     28706
     28686     28683     28685     28698     28686     28690     28680     28694
     28686     28690     28692     28693     28687     28686     28688     28689
     28687     28686     28690     28691     28687     28686     28690     28692
     28688     28686     28690     28691     28688     28686     28690     28692
     28689     28688     28686     28690     28690     28680     28694     28695
     28690     28680     28694     28696     28690     28680     28694     28697
     28691     28690     28680     28694     28691     28690     28692     28693
     28692     28690     28680     28694     28698     28702     28700     28701
     28698     28702     28700     28709     28698     28702     28700     28713
     28698     28703     28705     28717     28698     28703     28706     28707
     28698     28703     28706     28708     28698     28703     28706     28709
     28699     28698     28702     28700     28699     28698     28703     28704
     28699     28698     28703     28705     28699     28698     28703     28706
     28700     28702     28698     28703     28700     28709     28706     28703
     28700     28709     28706     28707     28700     28709     28706     28708
     28700     28709     28711     28712     28701     28700     28709     28706
     28701     28700     28709     28710     28701     28700     28709     28711
     28701     28700     28713     28714     28701     28700     28713     28715
     28701     28700     28713     28716     28702     28698     28703     28704
     28702     28698     28703     28705     28702     28698     28703     28706
     28702     28700     28709     28706     28702     28700     28709     28710
     28702     28700     28709     28711     28702     28700     28713     28714
     28702     28700     28713     28715     28702     28700     28713     28716
     28703     28705     28717     28718     28703     28705     28717     28721
     28703     28705     28717     28722     28703     28706     28708     28745
     28703     28706     28709     28710     28703     28706     28709     28711
     28704     28703     28705     28717     28704     28703     28706     28707
     28704     28703     28706     28708     28704     28703     28706     28709
     28705     28703     28706     28707     28705     28703     28706     28708
     28705     28703     28706     28709     28705     28717     28721     28719
     28705     28717     28722     28723     28705     28717     28722     28724
     28705     28717     28722     28732     28706     28703     28705     28717
     28706     28708     28745     28746     28706     28708     28745     28749
     28706     28708     28745     28750     28706     28709     28700     28713
     28706     28709     28711     28712     28707     28706     28708     28745
     28707     28706     28709     28710     28707     28706     28709     28711
     28708     28706     28709     28710     28708     28706     28709     28711
     28708     28745     28749     28747     28708     28745     28750     28751
     28708     28745     28750     28752     28708     28745     28750     28760
     28709     28700     28713     28714     28709     28700     28713     28715
     28709     28700     28713     28716     28709     28706     28708     28745
     28710     28709     28700     28713     28710     28709     28711     28712
     28711     28709     28700     28713     28717     28721     28719     28720
     28717     28721     28719     28736     28717     28721     28719     28740
     28717     28722     28724     28725     28717     28722     28724     28726
     28717     28722     28732     28733     28717     28722     28732     28734
     28717     28722     28732     28736     28718     28717     28721     28719
     28718     28717     28722     28723     28718     28717     28722     28724
     28718     28717     28722     28732     28719     28721     28717     28722
     28719     28736     28732     28722     28719     28736     28732     28733
     28719     28736     28732     28734     28719     28736     28738     28739
     28719     28740     28743     28744     28720     28719     28736     28732
     28720     28719     28736     28737     28720     28719     28736     28738
     28720     28719     28740     28741     28720     28719     28740     28742
     28720     28719     28740     28743     28721     28717     28722     28723
     28721     28717     28722     28724     28721     28717     28722     28732
     28721     28719     28736     28732     28721     28719     28736     28737
     28721     28719     28736     28738     28721     28719     28740     28741
     28721     28719     28740     28742     28721     28719     28740     28743
     28722     28724     28726     28727     28722     28724     28726     28728
     28722     28732     28734     28735     28722     28732     28736     28737
     28722     28732     28736     28738     28723     28722     28724     28725
     28723     28722     28724     28726     28723     28722     28732     28733
     28723     28722     28732     28734     28723     28722     28732     28736
     28724     28722     28732     28733     28724     28722     28732     28734
     28724     28722     28732     28736     28724     28726     28728     28729
     28724     28726     28728     28730     28724     28726     28728     28731
     28725     28724     28722     28732     28725     28724     28726     28727
     28725     28724     28726     28728     28726     28724     28722     28732
     28727     28726     28728     28729     28727     28726     28728     28730
     28727     28726     28728     28731     28732     28736     28719     28740
     28732     28736     28738     28739     28733     28732     28734     28735
     28733     28732     28736     28737     28733     28732     28736     28738
     28734     28732     28736     28737     28734     28732     28736     28738
     28735     28734     28732     28736     28736     28719     28740     28741
     28736     28719     28740     28742     28736     28719     28740     28743
     28737     28736     28719     28740     28737     28736     28738     28739
     28738     28736     28719     28740     28741     28740     28743     28744
     28742     28740     28743     28744     28745     28749     28747     28748
     28745     28749     28747     28763     28745     28749     28747     28767
     28745     28750     28752     28753     28745     28750     28752     28754
     28745     28750     28760     28761     28745     28750     28760     28762
     28745     28750     28760     28763     28746     28745     28749     28747
     28746     28745     28750     28751     28746     28745     28750     28752
     28746     28745     28750     28760     28747     28749     28745     28750
     28747     28763     28760     28750     28747     28763     28760     28761
     28747     28763     28760     28762     28747     28763     28765     28766
     28747     28767     28770     28771     28748     28747     28763     28760
     28748     28747     28763     28764     28748     28747     28763     28765
     28748     28747     28767     28768     28748     28747     28767     28769
     28748     28747     28767     28770     28749     28745     28750     28751
     28749     28745     28750     28752     28749     28745     28750     28760
     28749     28747     28763     28760     28749     28747     28763     28764
     28749     28747     28763     28765     28749     28747     28767     28768
     28749     28747     28767     28769     28749     28747     28767     28770
     28750     28752     28754     28755     28750     28752     28754     28756
     28750     28760     28762     28772     28750     28760     28763     28764
     28750     28760     28763     28765     28751     28750     28752     28753
     28751     28750     28752     28754     28751     28750     28760     28761
     28751     28750     28760     28762     28751     28750     28760     28763
     28752     28750     28760     28761     28752     28750     28760     28762
     28752     28750     28760     28763     28752     28754     28756     28757
     28752     28754     28756     28758     28752     28754     28756     28759
     28753     28752     28750     28760     28753     28752     28754     28755
     28753     28752     28754     28756     28754     28752     28750     28760
     28755     28754     28756     28757     28755     28754     28756     28758
     28755     28754     28756     28759     28760     28762     28772     28773
     28760     28762     28772     28776     28760     28762     28772     28777
     28760     28763     28747     28767     28760     28763     28765     28766
     28761     28760     28762     28772     28761     28760     28763     28764
     28761     28760     28763     28765     28762     28760     28763     28764
     28762     28760     28763     28765     28762     28772     28776     28774
     28762     28772     28777     28778     28762     28772     28777     28779
     28762     28772     28777     28780     28763     28747     28767     28768
     28763     28747     28767     28769     28763     28747     28767     28770
     28763     28760     28762     28772     28764     28763     28747     28767
     28764     28763     28765     28766     28765     28763     28747     28767
     28768     28767     28770     28771     28769     28767     28770     28771
     28772     28776     28774     28775     28772     28776     28774     28784
     28772     28776     28774     28788     28772     28777     28779     28793
     28772     28777     28780     28781     28772     28777     28780     28782
     28772     28777     28780     28784     28773     28772     28776     28774
     28773     28772     28777     28778     28773     28772     28777     28779
     28773     28772     28777     28780     28774     28776     28772     28777
     28774     28784     28780     28777     28774     28784     28780     28781
     28774     28784     28780     28782     28774     28784     28786     28787
     28774     28788     28791     28792     28775     28774     28784     28780
     28775     28774     28784     28785     28775     28774     28784     28786
     28775     28774     28788     28789     28775     28774     28788     28790
     28775     28774     28788     28791     28776     28772     28777     28778
     28776     28772     28777     28779     28776     28772     28777     28780
     28776     28774     28784     28780     28776     28774     28784     28785
     28776     28774     28784     28786     28776     28774     28788     28789
     28776     28774     28788     28790     28776     28774     28788     28791
     28777     28779     28793     28794     28777     28779     28793     28797
     28777     28779     28793     28798     28777     28780     28782     28783
     28777     28780     28784     28785     28777     28780     28784     28786
     28778     28777     28779     28793     28778     28777     28780     28781
     28778     28777     28780     28782     28778     28777     28780     28784
     28779     28777     28780     28781     28779     28777     28780     28782
     28779     28777     28780     28784     28779     28793     28797     28795
     28779     28793     28798     28799     28779     28793     28798     28800
     28779     28793     28798     28801     28780     28777     28779     28793
     28780     28784     28774     28788     28780     28784     28786     28787
     28781     28780     28782     28783     28781     28780     28784     28785
     28781     28780     28784     28786     28782     28780     28784     28785
     28782     28780     28784     28786     28783     28782     28780     28784
     28784     28774     28788     28789     28784     28774     28788     28790
     28784     28774     28788     28791     28785     28784     28774     28788
     28785     28784     28786     28787     28786     28784     28774     28788
     28789     28788     28791     28792     28790     28788     28791     28792
     28793     28797     28795     28796     28793     28797     28795     28805
     28793     28797     28795     28809     28793     28798     28800     28813
     28793     28798     28801     28802     28793     28798     28801     28803
     28793     28798     28801     28805     28794     28793     28797     28795
     28794     28793     28798     28799     28794     28793     28798     28800
     28794     28793     28798     28801     28795     28797     28793     28798
     28795     28805     28801     28798     28795     28805     28801     28802
     28795     28805     28801     28803     28795     28805     28807     28808
     28796     28795     28805     28801     28796     28795     28805     28806
     28796     28795     28805     28807     28796     28795     28809     28810
     28796     28795     28809     28811     28796     28795     28809     28812
     28797     28793     28798     28799     28797     28793     28798     28800
     28797     28793     28798     28801     28797     28795     28805     28801
     28797     28795     28805     28806     28797     28795     28805     28807
     28797     28795     28809     28810     28797     28795     28809     28811
     28797     28795     28809     28812     28798     28800     28813     28814
     28798     28800     28813     28817     28798     28800     28813     28818
     28798     28801     28803     28804     28798     28801     28805     28806
     28798     28801     28805     28807     28799     28798     28800     28813
     28799     28798     28801     28802     28799     28798     28801     28803
     28799     28798     28801     28805     28800     28798     28801     28802
     28800     28798     28801     28803     28800     28798     28801     28805
     28800     28813     28817     28815     28800     28813     28818     28819
     28800     28813     28818     28820     28800     28813     28818     28821
     28801     28798     28800     28813     28801     28805     28795     28809
     28801     28805     28807     28808     28802     28801     28803     28804
     28802     28801     28805     28806     28802     28801     28805     28807
     28803     28801     28805     28806     28803     28801     28805     28807
     28804     28803     28801     28805     28805     28795     28809     28810
     28805     28795     28809     28811     28805     28795     28809     28812
     28806     28805     28795     28809     28806     28805     28807     28808
     28807     28805     28795     28809     28813     28817     28815     28816
     28813     28817     28815     28825     28813     28817     28815     28829
     28813     28818     28820     28833     28813     28818     28821     28822
     28813     28818     28821     28823     28813     28818     28821     28825
     28814     28813     28817     28815     28814     28813     28818     28819
     28814     28813     28818     28820     28814     28813     28818     28821
     28815     28817     28813     28818     28815     28825     28821     28818
     28815     28825     28821     28822     28815     28825     28821     28823
     28815     28825     28827     28828     28816     28815     28825     28821
     28816     28815     28825     28826     28816     28815     28825     28827
     28816     28815     28829     28830     28816     28815     28829     28831
     28816     28815     28829     28832     28817     28813     28818     28819
     28817     28813     28818     28820     28817     28813     28818     28821
     28817     28815     28825     28821     28817     28815     28825     28826
     28817     28815     28825     28827     28817     28815     28829     28830
     28817     28815     28829     28831     28817     28815     28829     28832
     28818     28820     28833     28834     28818     28820     28833     28837
     28818     28820     28833     28838     28818     28821     28823     28824
     28818     28821     28825     28826     28818     28821     28825     28827
     28819     28818     28820     28833     28819     28818     28821     28822
     28819     28818     28821     28823     28819     28818     28821     28825
     28820     28818     28821     28822     28820     28818     28821     28823
     28820     28818     28821     28825     28820     28833     28837     28835
     28820     28833     28838     28839     28820     28833     28838     28840
     28820     28833     28838     28848     28821     28818     28820     28833
     28821     28825     28815     28829     28821     28825     28827     28828
     28822     28821     28823     28824     28822     28821     28825     28826
     28822     28821     28825     28827     28823     28821     28825     28826
     28823     28821     28825     28827     28824     28823     28821     28825
     28825     28815     28829     28830     28825     28815     28829     28831
     28825     28815     28829     28832     28826     28825     28815     28829
     28826     28825     28827     28828     28827     28825     28815     28829
     28833     28837     28835     28836     28833     28837     28835     28852
     28833     28837     28835     28856     28833     28838     28840     28841
     28833     28838     28840     28842     28833     28838     28848     28849
     28833     28838     28848     28850     28833     28838     28848     28852
     28834     28833     28837     28835     28834     28833     28838     28839
     28834     28833     28838     28840     28834     28833     28838     28848
     28835     28837     28833     28838     28835     28852     28848     28838
     28835     28852     28848     28849     28835     28852     28848     28850
     28835     28852     28854     28855     28835     28856     28859     28860
     28836     28835     28852     28848     28836     28835     28852     28853
     28836     28835     28852     28854     28836     28835     28856     28857
     28836     28835     28856     28858     28836     28835     28856     28859
     28837     28833     28838     28839     28837     28833     28838     28840
     28837     28833     28838     28848     28837     28835     28852     28848
     28837     28835     28852     28853     28837     28835     28852     28854
     28837     28835     28856     28857     28837     28835     28856     28858
     28837     28835     28856     28859     28838     28840     28842     28843
     28838     28840     28842     28844     28838     28848     28850     28851
     28838     28848     28852     28853     28838     28848     28852     28854
     28839     28838     28840     28841     28839     28838     28840     28842
     28839     28838     28848     28849     28839     28838     28848     28850
     28839     28838     28848     28852     28840     28838     28848     28849
     28840     28838     28848     28850     28840     28838     28848     28852
     28840     28842     28844     28845     28840     28842     28844     28846
     28840     28842     28844     28847     28841     28840     28838     28848
     28841     28840     28842     28843     28841     28840     28842     28844
     28842     28840     28838     28848     28843     28842     28844     28845
     28843     28842     28844     28846     28843     28842     28844     28847
     28848     28852     28835     28856     28848     28852     28854     28855
     28849     28848     28850     28851     28849     28848     28852     28853
     28849     28848     28852     28854     28850     28848     28852     28853
     28850     28848     28852     28854     28851     28850     28848     28852
     28852     28835     28856     28857     28852     28835     28856     28858
     28852     28835     28856     28859     28853     28852     28835     28856
     28853     28852     28854     28855     28854     28852     28835     28856
     28857     28856     28859     28860     28858     28856     28859     28860
     28861     28863     28862     29160     28861     28863     28865     28866
     28861     28863     28865     28867     28861     28863     28865     28874
     28862     28863     28865     28866     28862     28863     28865     28867
     28862     28863     28865     28874     28862     29160     29157     29158
     28862     29160     29157     29159     28862     29160     29163     29161
     28862     29160     29164     29165     28862     29160     29164     29166
     28862     29160     29164     29167     28863     28862     29160     29157
     28863     28862     29160     29163     28863     28862     29160     29164
     28863     28865     28866     28868     28863     28865     28874     28875
     28863     28865     28874     28876     28863     28865     28874     28881
     28864     28863     28862     29160     28864     28863     28865     28866
     28864     28863     28865     28867     28864     28863     28865     28874
     28865     28863     28862     29160     28865     28866     28868     28869
     28865     28866     28868     28870     28865     28866     28868     28889
     28865     28874     28876     28877     28865     28874     28881     28882
     28865     28874     28881     28883     28865     28874     28881     28889
     28866     28865     28874     28875     28866     28865     28874     28876
     28866     28865     28874     28881     28866     28868     28870     28871
     28866     28868     28889     28881     28866     28868     28889     28890
     28866     28868     28889     28891     28867     28865     28866     28868
     28867     28865     28874     28875     28867     28865     28874     28876
     28867     28865     28874     28881     28868     28866     28865     28874
     28868     28870     28871     28872     28868     28870     28871     28873
     28868     28870     28871     28897     28868     28889     28881     28874
     28868     28889     28881     28882     28868     28889     28881     28883
     28868     28889     28891     28892     28868     28889     28891     28998
     28869     28868     28870     28871     28869     28868     28889     28881
     28869     28868     28889     28890     28869     28868     28889     28891
     28870     28868     28889     28881     28870     28868     28889     28890
     28870     28868     28889     28891     28870     28871     28897     28893
     28870     28871     28897     28898     28870     28871     28897     28899
     28871     28870     28868     28889     28871     28897     28893     28894
     28871     28897     28893     28895     28871     28897     28893     28907
     28871     28897     28899     28900     28872     28871     28897     28893
     28872     28871     28897     28898     28872     28871     28897     28899
     28873     28871     28897     28893     28873     28871     28897     28898
     28873     28871     28897     28899     28874     28876     28877     28878
     28874     28876     28877     28879     28874     28876     28877     28880
     28874     28881     28882     28884     28874     28881     28889     28890
     28874     28881     28889     28891     28875     28874     28876     28877
     28875     28874     28881     28882     28875     28874     28881     28883
     28875     28874     28881     28889     28876     28874     28881     28882
     28876     28874     28881     28883     28876     28874     28881     28889
     28877     28876     28874     28881     28881     28882     28884     28885
     28881     28882     28884     28886     28881     28889     28891     28892
     28881     28889     28891     28998     28882     28881     28889     28890
     28882     28881     28889     28891     28882     28884     28886     28887
     28882     28884     28886     28888     28882     28884     28886     28919
     28883     28881     28882     28884     28883     28881     28889     28890
     28883     28881     28889     28891     28884     28882     28881     28889
     28884     28886     28919     28920     28884     28886     28919     28921
     28884     28886     28919     28964     28885     28884     28886     28887
     28885     28884     28886     28888     28885     28884     28886     28919
     28886     28919     28921     28922     28886     28919     28964     28965
     28886     28919     28964     28966     28886     28919     28964     28967
     28887     28886     28919     28920     28887     28886     28919     28921
     28887     28886     28919     28964     28888     28886     28919     28920
     28888     28886     28919     28921     28888     28886     28919     28964
     28889     28891     28998     28999     28889     28891     28998     29000
     28890     28889     28891     28892     28890     28889     28891     28998
     28891     28998     29000     29001     28891     28998     29000     29002
     28891     28998     29000     29003     28892     28891     28998     28999
     28892     28891     28998     29000     28893     28897     28899     28900
     28893     28907     28909     28910     28893     28907     28915     28900
     28893     28907     28915     28916     28893     28907     28915     28917
     28894     28893     28895     28896     28894     28893     28897     28898
     28894     28893     28897     28899     28894     28893     28907     28908
     28894     28893     28907     28909     28894     28893     28907     28915
     28895     28893     28897     28898     28895     28893     28897     28899
     28895     28893     28907     28908     28895     28893     28907     28909
     28895     28893     28907     28915     28896     28895     28893     28897
     28896     28895     28893     28907     28897     28893     28907     28908
     28897     28893     28907     28909     28897     28893     28907     28915
     28897     28899     28900     28901     28897     28899     28900     28902
     28897     28899     28900     28915     28898     28897     28893     28907
     28898     28897     28899     28900     28899     28897     28893     28907
     28899     28900     28902     28906     28899     28900     28915     28907
     28899     28900     28915     28916     28899     28900     28915     28917
     28900     28902     28906     28903     28900     28902     28906     28904
     28900     28902     28906     28905     28900     28915     28907     28908
     28900     28915     28907     28909     28900     28915     28917     28918
     28900     28915     28917     29114     28901     28900     28902     28906
     28901     28900     28915     28907     28901     28900     28915     28916
     28901     28900     28915     28917     28902     28900     28915     28907
     28902     28900     28915     28916     28902     28900     28915     28917
     28906     28902     28900     28915     28907     28909     28910     28911
     28907     28909     28910     28912     28907     28915     28917     28918
     28907     28915     28917     29114     28908     28907     28909     28910
     28908     28907     28915     28916     28908     28907     28915     28917
     28909     28907     28915     28916     28909     28907     28915     28917
     28909     28910     28912     28913     28909     28910     28912     28914
     28909     28910     28912     29076     28910     28909     28907     28915
     28910     28912     29076     29077     28910     28912     29076     29078
     28910     28912     29076     29080     28911     28910     28912     28913
     28911     28910     28912     28914     28911     28910     28912     29076
     28912     29076     29078     29079     28912     29076     29080     29081
     28912     29076     29080     29082     28912     29076     29080     29083
     28913     28912     29076     29077     28913     28912     29076     29078
     28913     28912     29076     29080     28914     28912     29076     29077
     28914     28912     29076     29078     28914     28912     29076     29080
     28915     28917     29114     29115     28915     28917     29114     29116
     28916     28915     28917     28918     28916     28915     28917     29114
     28917     29114     29116     29117     28917     29114     29116     29118
     28917     29114     29116     29119     28918     28917     29114     29115
     28918     28917     29114     29116     28919     28921     28922     28923
     28919     28921     28922     28924     28919     28964     28967     28968
     28919     28964     28967     28969     28919     28964     28967     28970
     28920     28919     28921     28922     28920     28919     28964     28965
     28920     28919     28964     28966     28920     28919     28964     28967
     28921     28919     28964     28965     28921     28919     28964     28966
     28921     28919     28964     28967     28921     28922     28924     28925
     28921     28922     28924     28926     28921     28922     28924     28927
     28922     28921     28919     28964     28922     28924     28927     28928
     28922     28924     28927     28929     28922     28924     28927     28930
     28923     28922     28924     28925     28923     28922     28924     28926
     28923     28922     28924     28927     28924     28927     28930     28931
     28924     28927     28930     28932     28924     28927     28930     28933
     28925     28924     28927     28928     28925     28924     28927     28929
     28925     28924     28927     28930     28926     28924     28927     28928
     28926     28924     28927     28929     28926     28924     28927     28930
     28927     28930     28933     28934     28927     28930     28933     28935
     28927     28930     28933     28936     28928     28927     28930     28931
     28928     28927     28930     28932     28928     28927     28930     28933
     28929     28927     28930     28931     28929     28927     28930     28932
     28929     28927     28930     28933     28930     28933     28936     28937
     28930     28933     28936     28938     28930     28933     28936     28939
     28931     28930     28933     28934     28931     28930     28933     28935
     28931     28930     28933     28936     28932     28930     28933     28934
     28932     28930     28933     28935     28932     28930     28933     28936
     28933     28936     28939     28940     28933     28936     28939     28941
     28933     28936     28939     28942     28934     28933     28936     28937
     28934     28933     28936     28938     28934     28933     28936     28939
     28935     28933     28936     28937     28935     28933     28936     28938
     28935     28933     28936     28939     28936     28939     28942     28943
     28936     28939     28942     28944     28936     28939     28942     28945
     28937     28936     28939     28940     28937     28936     28939     28941
     28937     28936     28939     28942     28938     28936     28939     28940
     28938     28936     28939     28941     28938     28936     28939     28942
     28939     28942     28945     28946     28939     28942     28945     28947
     28939     28942     28945     28948     28940     28939     28942     28943
     28940     28939     28942     28944     28940     28939     28942     28945
     28941     28939     28942     28943     28941     28939     28942     28944
     28941     28939     28942     28945     28942     28945     28948     28949
     28942     28945     28948     28950     28942     28945     28948     28951
     28943     28942     28945     28946     28943     28942     28945     28947
     28943     28942     28945     28948     28944     28942     28945     28946
     28944     28942     28945     28947     28944     28942     28945     28948
     28945     28948     28951     28952     28945     28948     28951     28953
     28945     28948     28951     28954     28946     28945     28948     28949
     28946     28945     28948     28950     28946     28945     28948     28951
     28947     28945     28948     28949     28947     28945     28948     28950
     28947     28945     28948     28951     28948     28951     28954     28955
     28948     28951     28954     28956     28948     28951     28954     28957
     28949     28948     28951     28952     28949     28948     28951     28953
     28949     28948     28951     28954     28950     28948     28951     28952
     28950     28948     28951     28953     28950     28948     28951     28954
     28951     28954     28957     28958     28951     28954     28957     28959
     28951     28954     28957     28960     28952     28951     28954     28955
     28952     28951     28954     28956     28952     28951     28954     28957
     28953     28951     28954     28955     28953     28951     28954     28956
     28953     28951     28954     28957     28954     28957     28960     28961
     28954     28957     28960     28962     28954     28957     28960     28963
     28955     28954     28957     28958     28955     28954     28957     28959
     28955     28954     28957     28960     28956     28954     28957     28958
     28956     28954     28957     28959     28956     28954     28957     28960
     28958     28957     28960     28961     28958     28957     28960     28962
     28958     28957     28960     28963     28959     28957     28960     28961
     28959     28957     28960     28962     28959     28957     28960     28963
     28964     28967     28970     28971     28964     28967     28970     28972
     28964     28967     28970     28973     28965     28964     28967     28968
     28965     28964     28967     28969     28965     28964     28967     28970
     28966     28964     28967     28968     28966     28964     28967     28969
     28966     28964     28967     28970     28967     28970     28973     28974
     28967     28970     28973     28975     28967     28970     28973     28976
     28968     28967     28970     28971     28968     28967     28970     28972
     28968     28967     28970     28973     28969     28967     28970     28971
     28969     28967     28970     28972     28969     28967     28970     28973
     28970     28973     28976     28977     28970     28973     28976     28978
     28970     28973     28976     28979     28971     28970     28973     28974
     28971     28970     28973     28975     28971     28970     28973     28976
     28972     28970     28973     28974     28972     28970     28973     28975
     28972     28970     28973     28976     28973     28976     28979     28980
     28973     28976     28979     28981     28973     28976     28979     28982
     28974     28973     28976     28977     28974     28973     28976     28978
     28974     28973     28976     28979     28975     28973     28976     28977
     28975     28973     28976     28978     28975     28973     28976     28979
     28976     28979     28982     28983     28976     28979     28982     28984
     28976     28979     28982     28985     28977     28976     28979     28980
     28977     28976     28979     28981     28977     28976     28979     28982
     28978     28976     28979     28980     28978     28976     28979     28981
     28978     28976     28979     28982     28979     28982     28985     28986
     28979     28982     28985     28987     28979     28982     28985     28988
     28980     28979     28982     28983     28980     28979     28982     28984
     28980     28979     28982     28985     28981     28979     28982     28983
     28981     28979     28982     28984     28981     28979     28982     28985
     28982     28985     28988     28989     28982     28985     28988     28990
     28982     28985     28988     28991     28983     28982     28985     28986
     28983     28982     28985     28987     28983     28982     28985     28988
     28984     28982     28985     28986     28984     28982     28985     28987
     28984     28982     28985     28988     28985     28988     28991     28992
     28985     28988     28991     28993     28985     28988     28991     28994
     28986     28985     28988     28989     28986     28985     28988     28990
     28986     28985     28988     28991     28987     28985     28988     28989
     28987     28985     28988     28990     28987     28985     28988     28991
     28988     28991     28994     28995     28988     28991     28994     28996
     28988     28991     28994     28997     28989     28988     28991     28992
     28989     28988     28991     28993     28989     28988     28991     28994
     28990     28988     28991     28992     28990     28988     28991     28993
     28990     28988     28991     28994     28992     28991     28994     28995
     28992     28991     28994     28996     28992     28991     28994     28997
     28993     28991     28994     28995     28993     28991     28994     28996
     28993     28991     28994     28997     28998     29000     29003     29004
     28998     29000     29003     29005     28998     29000     29003     29042
     28999     28998     29000     29001     28999     28998     29000     29002
     28999     28998     29000     29003     29000     29003     29005     29006
     29000     29003     29042     29043     29000     29003     29042     29044
     29000     29003     29042     29045     29001     29000     29003     29004
     29001     29000     29003     29005     29001     29000     29003     29042
     29002     29000     29003     29004     29002     29000     29003     29005
     29002     29000     29003     29042     29003     29005     29006     29007
     29003     29005     29006     29008     29003     29042     29045     29046
     29003     29042     29045     29047     29003     29042     29045     29048
     29004     29003     29005     29006     29004     29003     29042     29043
     29004     29003     29042     29044     29004     29003     29042     29045
     29005     29003     29042     29043     29005     29003     29042     29044
     29005     29003     29042     29045     29005     29006     29008     29009
     29005     29006     29008     29010     29005     29006     29008     29011
     29006     29005     29003     29042     29006     29008     29011     29012
     29006     29008     29011     29013     29006     29008     29011     29014
     29007     29006     29008     29009     29007     29006     29008     29010
     29007     29006     29008     29011     29008     29011     29014     29015
     29008     29011     29014     29016     29008     29011     29014     29017
     29009     29008     29011     29012     29009     29008     29011     29013
     29009     29008     29011     29014     29010     29008     29011     29012
     29010     29008     29011     29013     29010     29008     29011     29014
     29011     29014     29017     29018     29011     29014     29017     29019
     29011     29014     29017     29020     29012     29011     29014     29015
     29012     29011     29014     29016     29012     29011     29014     29017
     29013     29011     29014     29015     29013     29011     29014     29016
     29013     29011     29014     29017     29014     29017     29020     29021
     29014     29017     29020     29022     29014     29017     29020     29023
     29015     29014     29017     29018     29015     29014     29017     29019
     29015     29014     29017     29020     29016     29014     29017     29018
     29016     29014     29017     29019     29016     29014     29017     29020
     29017     29020     29023     29024     29017     29020     29023     29025
     29017     29020     29023     29026     29018     29017     29020     29021
     29018     29017     29020     29022     29018     29017     29020     29023
     29019     29017     29020     29021     29019     29017     29020     29022
     29019     29017     29020     29023     29020     29023     29026     29027
     29020     29023     29026     29028     29020     29023     29026     29029
     29021     29020     29023     29024     29021     29020     29023     29025
     29021     29020     29023     29026     29022     29020     29023     29024
     29022     29020     29023     29025     29022     29020     29023     29026
     29023     29026     29029     29030     29023     29026     29029     29031
     29023     29026     29029     29032     29024     29023     29026     29027
     29024     29023     29026     29028     29024     29023     29026     29029
     29025     29023     29026     29027     29025     29023     29026     29028
     29025     29023     29026     29029     29026     29029     29032     29033
     29026     29029     29032     29034     29026     29029     29032     29035
     29027     29026     29029     29030     29027     29026     29029     29031
     29027     29026     29029     29032     29028     29026     29029     29030
     29028     29026     29029     29031     29028     29026     29029     29032
     29029     29032     29035     29036     29029     29032     29035     29037
     29029     29032     29035     29038     29030     29029     29032     29033
     29030     29029     29032     29034     29030     29029     29032     29035
     29031     29029     29032     29033     29031     29029     29032     29034
     29031     29029     29032     29035     29032     29035     29038     29039
     29032     29035     29038     29040     29032     29035     29038     29041
     29033     29032     29035     29036     29033     29032     29035     29037
     29033     29032     29035     29038     29034     29032     29035     29036
     29034     29032     29035     29037     29034     29032     29035     29038
     29036     29035     29038     29039     29036     29035     29038     29040
     29036     29035     29038     29041     29037     29035     29038     29039
     29037     29035     29038     29040     29037     29035     29038     29041
     29042     29045     29048     29049     29042     29045     29048     29050
     29042     29045     29048     29051     29043     29042     29045     29046
     29043     29042     29045     29047     29043     29042     29045     29048
     29044     29042     29045     29046     29044     29042     29045     29047
     29044     29042     29045     29048     29045     29048     29051     29052
     29045     29048     29051     29053     29045     29048     29051     29054
     29046     29045     29048     29049     29046     29045     29048     29050
     29046     29045     29048     29051     29047     29045     29048     29049
     29047     29045     29048     29050     29047     29045     29048     29051
     29048     29051     29054     29055     29048     29051     29054     29056
     29048     29051     29054     29057     29049     29048     29051     29052
     29049     29048     29051     29053     29049     29048     29051     29054
     29050     29048     29051     29052     29050     29048     29051     29053
     29050     29048     29051     29054     29051     29054     29057     29058
     29051     29054     29057     29059     29051     29054     29057     29060
     29052     29051     29054     29055     29052     29051     29054     29056
     29052     29051     29054     29057     29053     29051     29054     29055
     29053     29051     29054     29056     29053     29051     29054     29057
     29054     29057     29060     29061     29054     29057     29060     29062
     29054     29057     29060     29063     29055     29054     29057     29058
     29055     29054     29057     29059     29055     29054     29057     29060
     29056     29054     29057     29058     29056     29054     29057     29059
     29056     29054     29057     29060     29057     29060     29063     29064
     29057     29060     29063     29065     29057     29060     29063     29066
     29058     29057     29060     29061     29058     29057     29060     29062
     29058     29057     29060     29063     29059     29057     29060     29061
     29059     29057     29060     29062     29059     29057     29060     29063
     29060     29063     29066     29067     29060     29063     29066     29068
     29060     29063     29066     29069     29061     29060     29063     29064
     29061     29060     29063     29065     29061     29060     29063     29066
     29062     29060     29063     29064     29062     29060     29063     29065
     29062     29060     29063     29066     29063     29066     29069     29070
     29063     29066     29069     29071     29063     29066     29069     29072
     29064     29063     29066     29067     29064     29063     29066     29068
     29064     29063     29066     29069     29065     29063     29066     29067
     29065     29063     29066     29068     29065     29063     29066     29069
     29066     29069     29072     29073     29066     29069     29072     29074
     29066     29069     29072     29075     29067     29066     29069     29070
     29067     29066     29069     29071     29067     29066     29069     29072
     29068     29066     29069     29070     29068     29066     29069     29071
     29068     29066     29069     29072     29070     29069     29072     29073
     29070     29069     29072     29074     29070     29069     29072     29075
     29071     29069     29072     29073     29071     29069     29072     29074
     29071     29069     29072     29075     29076     29080     29083     29084
     29076     29080     29083     29085     29076     29080     29083     29086
     29077     29076     29078     29079     29077     29076     29080     29081
     29077     29076     29080     29082     29077     29076     29080     29083
     29078     29076     29080     29081     29078     29076     29080     29082
     29078     29076     29080     29083     29079     29078     29076     29080
     29080     29083     29086     29087     29080     29083     29086     29088
     29080     29083     29086     29089     29081     29080     29083     29084
     29081     29080     29083     29085     29081     29080     29083     29086
     29082     29080     29083     29084     29082     29080     29083     29085
     29082     29080     29083     29086     29083     29086     29089     29090
     29083     29086     29089     29091     29083     29086     29089     29092
     29084     29083     29086     29087     29084     29083     29086     29088
     29084     29083     29086     29089     29085     29083     29086     29087
     29085     29083     29086     29088     29085     29083     29086     29089
     29086     29089     29092     29093     29086     29089     29092     29094
     29086     29089     29092     29095     29087     29086     29089     29090
     29087     29086     29089     29091     29087     29086     29089     29092
     29088     29086     29089     29090     29088     29086     29089     29091
     29088     29086     29089     29092     29089     29092     29095     29096
     29089     29092     29095     29097     29089     29092     29095     29098
     29090     29089     29092     29093     29090     29089     29092     29094
     29090     29089     29092     29095     29091     29089     29092     29093
     29091     29089     29092     29094     29091     29089     29092     29095
     29092     29095     29098     29099     29092     29095     29098     29100
     29092     29095     29098     29101     29093     29092     29095     29096
     29093     29092     29095     29097     29093     29092     29095     29098
     29094     29092     29095     29096     29094     29092     29095     29097
     29094     29092     29095     29098     29095     29098     29101     29102
     29095     29098     29101     29103     29095     29098     29101     29104
     29096     29095     29098     29099     29096     29095     29098     29100
     29096     29095     29098     29101     29097     29095     29098     29099
     29097     29095     29098     29100     29097     29095     29098     29101
     29098     29101     29104     29105     29098     29101     29104     29106
     29098     29101     29104     29107     29099     29098     29101     29102
     29099     29098     29101     29103     29099     29098     29101     29104
     29100     29098     29101     29102     29100     29098     29101     29103
     29100     29098     29101     29104     29101     29104     29107     29108
     29101     29104     29107     29109     29101     29104     29107     29110
     29102     29101     29104     29105     29102     29101     29104     29106
     29102     29101     29104     29107     29103     29101     29104     29105
     29103     29101     29104     29106     29103     29101     29104     29107
     29104     29107     29110     29111     29104     29107     29110     29112
     29104     29107     29110     29113     29105     29104     29107     29108
     29105     29104     29107     29109     29105     29104     29107     29110
     29106     29104     29107     29108     29106     29104     29107     29109
     29106     29104     29107     29110     29108     29107     29110     29111
     29108     29107     29110     29112     29108     29107     29110     29113
     29109     29107     29110     29111     29109     29107     29110     29112
     29109     29107     29110     29113     29114     29116     29119     29120
     29114     29116     29119     29121     29114     29116     29119     29123
     29115     29114     29116     29117     29115     29114     29116     29118
     29115     29114     29116     29119     29116     29119     29121     29122
     29116     29119     29123     29124     29116     29119     29123     29125
     29116     29119     29123     29126     29117     29116     29119     29120
     29117     29116     29119     29121     29117     29116     29119     29123
     29118     29116     29119     29120     29118     29116     29119     29121
     29118     29116     29119     29123     29119     29123     29126     29127
     29119     29123     29126     29128     29119     29123     29126     29129
     29120     29119     29121     29122     29120     29119     29123     29124
     29120     29119     29123     29125     29120     29119     29123     29126
     29121     29119     29123     29124     29121     29119     29123     29125
     29121     29119     29123     29126     29122     29121     29119     29123
     29123     29126     29129     29130     29123     29126     29129     29131
     29123     29126     29129     29132     29124     29123     29126     29127
     29124     29123     29126     29128     29124     29123     29126     29129
     29125     29123     29126     29127     29125     29123     29126     29128
     29125     29123     29126     29129     29126     29129     29132     29133
     29126     29129     29132     29134     29126     29129     29132     29135
     29127     29126     29129     29130     29127     29126     29129     29131
     29127     29126     29129     29132     29128     29126     29129     29130
     29128     29126     29129     29131     29128     29126     29129     29132
     29129     29132     29135     29136     29129     29132     29135     29137
     29129     29132     29135     29138     29130     29129     29132     29133
     29130     29129     29132     29134     29130     29129     29132     29135
     29131     29129     29132     29133     29131     29129     29132     29134
     29131     29129     29132     29135     29132     29135     29138     29139
     29132     29135     29138     29140     29132     29135     29138     29141
     29133     29132     29135     29136     29133     29132     29135     29137
     29133     29132     29135     29138     29134     29132     29135     29136
     29134     29132     29135     29137     29134     29132     29135     29138
     29135     29138     29141     29142     29135     29138     29141     29143
     29135     29138     29141     29144     29136     29135     29138     29139
     29136     29135     29138     29140     29136     29135     29138     29141
     29137     29135     29138     29139     29137     29135     29138     29140
     29137     29135     29138     29141     29138     29141     29144     29145
     29138     29141     29144     29146     29138     29141     29144     29147
     29139     29138     29141     29142     29139     29138     29141     29143
     29139     29138     29141     29144     29140     29138     29141     29142
     29140     29138     29141     29143     29140     29138     29141     29144
     29141     29144     29147     29148     29141     29144     29147     29149
     29141     29144     29147     29150     29142     29141     29144     29145
     29142     29141     29144     29146     29142     29141     29144     29147
     29143     29141     29144     29145     29143     29141     29144     29146
     29143     29141     29144     29147     29144     29147     29150     29151
     29144     29147     29150     29152     29144     29147     29150     29153
     29145     29144     29147     29148     29145     29144     29147     29149
     29145     29144     29147     29150     29146     29144     29147     29148
     29146     29144     29147     29149     29146     29144     29147     29150
     29147     29150     29153     29154     29147     29150     29153     29155
     29147     29150     29153     29156     29148     29147     29150     29151
     29148     29147     29150     29152     29148     29147     29150     29153
     29149     29147     29150     29151     29149     29147     29150     29152
     29149     29147     29150     29153     29151     29150     29153     29154
     29151     29150     29153     29155     29151     29150     29153     29156
     29152     29150     29153     29154     29152     29150     29153     29155
     29152     29150     29153     29156     29157     29160     29163     29161
     29157     29160     29164     29165     29157     29160     29164     29166
     29157     29160     29164     29167     29158     29157     29160     29163
     29158     29157     29160     29164     29159     29157     29160     29163
     29159     29157     29160     29164     29160     29163     29161     29162
     29160     29163     29161     29170     29160     29163     29161     29173
     29160     29164     29167     29168     29160     29164     29167     29169
     29160     29164     29167     29170     29161     29163     29160     29164
     29161     29170     29167     29164     29161     29170     29167     29168
     29161     29170     29167     29169     29161     29170     29172     29209
     29161     29173     29175     29176     29161     29173     29177     29178
     29161     29173     29177     29179     29161     29173     29177     29180
     29162     29161     29170     29167     29162     29161     29170     29171
     29162     29161     29170     29172     29162     29161     29173     29174
     29162     29161     29173     29175     29162     29161     29173     29177
     29163     29160     29164     29165     29163     29160     29164     29166
     29163     29160     29164     29167     29163     29161     29170     29167
     29163     29161     29170     29171     29163     29161     29170     29172
     29163     29161     29173     29174     29163     29161     29173     29175
     29163     29161     29173     29177     29164     29167     29169     29185
     29164     29167     29170     29171     29164     29167     29170     29172
     29165     29164     29167     29168     29165     29164     29167     29169
     29165     29164     29167     29170     29166     29164     29167     29168
     29166     29164     29167     29169     29166     29164     29167     29170
     29167     29169     29185     29182     29167     29169     29185     29188
     29167     29169     29185     29189     29167     29170     29161     29173
     29167     29170     29172     29209     29168     29167     29169     29185
     29168     29167     29170     29171     29168     29167     29170     29172
     29169     29167     29170     29171     29169     29167     29170     29172
     29169     29185     29182     29183     29169     29185     29182     29184
     29169     29185     29188     29186     29169     29185     29189     29190
     29169     29185     29189     29191     29169     29185     29189     29192
     29170     29161     29173     29174     29170     29161     29173     29175
     29170     29161     29173     29177     29170     29167     29169     29185
     29170     29172     29209     29210     29170     29172     29209     29213
     29170     29172     29209     29214     29171     29170     29161     29173
     29171     29170     29172     29209     29172     29170     29161     29173
     29172     29209     29213     29211     29172     29209     29214     29215
     29172     29209     29214     29216     29172     29209     29214     29218
     29173     29177     29180     29181     29174     29173     29175     29176
     29174     29173     29177     29178     29174     29173     29177     29179
     29174     29173     29177     29180     29175     29173     29177     29178
     29175     29173     29177     29179     29175     29173     29177     29180
     29176     29175     29173     29177     29178     29177     29180     29181
     29179     29177     29180     29181     29182     29185     29188     29186
     29182     29185     29189     29190     29182     29185     29189     29191
     29182     29185     29189     29192     29183     29182     29185     29188
     29183     29182     29185     29189     29184     29182     29185     29188
     29184     29182     29185     29189     29185     29188     29186     29187
     29185     29188     29186     29196     29185     29188     29186     29200
     29185     29189     29192     29193     29185     29189     29192     29194
     29185     29189     29192     29196     29186     29188     29185     29189
     29186     29196     29192     29189     29186     29196     29192     29193
     29186     29196     29192     29194     29186     29196     29198     29199
     29186     29200     29202     29203     29186     29200     29204     29205
     29186     29200     29204     29206     29186     29200     29204     29207
     29187     29186     29196     29192     29187     29186     29196     29197
     29187     29186     29196     29198     29187     29186     29200     29201
     29187     29186     29200     29202     29187     29186     29200     29204
     29188     29185     29189     29190     29188     29185     29189     29191
     29188     29185     29189     29192     29188     29186     29196     29192
     29188     29186     29196     29197     29188     29186     29196     29198
     29188     29186     29200     29201     29188     29186     29200     29202
     29188     29186     29200     29204     29189     29192     29194     29195
     29189     29192     29196     29197     29189     29192     29196     29198
     29190     29189     29192     29193     29190     29189     29192     29194
     29190     29189     29192     29196     29191     29189     29192     29193
     29191     29189     29192     29194     29191     29189     29192     29196
     29192     29196     29186     29200     29192     29196     29198     29199
     29193     29192     29194     29195     29193     29192     29196     29197
     29193     29192     29196     29198     29194     29192     29196     29197
     29194     29192     29196     29198     29195     29194     29192     29196
     29196     29186     29200     29201     29196     29186     29200     29202
     29196     29186     29200     29204     29197     29196     29186     29200
     29197     29196     29198     29199     29198     29196     29186     29200
     29200     29204     29207     29208     29201     29200     29202     29203
     29201     29200     29204     29205     29201     29200     29204     29206
     29201     29200     29204     29207     29202     29200     29204     29205
     29202     29200     29204     29206     29202     29200     29204     29207
     29203     29202     29200     29204     29205     29204     29207     29208
     29206     29204     29207     29208     29209     29213     29211     29212
     29209     29213     29211     29221     29209     29213     29211     29228
     29209     29214     29216     29217     29209     29214     29218     29219
     29209     29214     29218     29220     29209     29214     29218     29221
     29210     29209     29213     29211     29210     29209     29214     29215
     29210     29209     29214     29216     29210     29209     29214     29218
     29211     29213     29209     29214     29211     29221     29218     29214
     29211     29221     29218     29219     29211     29221     29218     29220
     29211     29221     29223     29224     29211     29228     29230     29231
     29211     29228     29232     29233     29211     29228     29232     29234
     29211     29228     29232     29235     29212     29211     29221     29218
     29212     29211     29221     29222     29212     29211     29221     29223
     29212     29211     29228     29229     29212     29211     29228     29230
     29212     29211     29228     29232     29213     29209     29214     29215
     29213     29209     29214     29216     29213     29209     29214     29218
     29213     29211     29221     29218     29213     29211     29221     29222
     29213     29211     29221     29223     29213     29211     29228     29229
     29213     29211     29228     29230     29213     29211     29228     29232
     29214     29218     29220     29237     29214     29218     29221     29222
     29214     29218     29221     29223     29215     29214     29216     29217
     29215     29214     29218     29219     29215     29214     29218     29220
     29215     29214     29218     29221     29216     29214     29218     29219
     29216     29214     29218     29220     29216     29214     29218     29221
     29217     29216     29214     29218     29218     29220     29237     29238
     29218     29220     29237     29241     29218     29220     29237     29242
     29218     29221     29211     29228     29218     29221     29223     29224
     29219     29218     29220     29237     29219     29218     29221     29222
     29219     29218     29221     29223     29220     29218     29221     29222
     29220     29218     29221     29223     29220     29237     29241     29239
     29220     29237     29242     29243     29220     29237     29242     29244
     29220     29237     29242     29246     29221     29211     29228     29229
     29221     29211     29228     29230     29221     29211     29228     29232
     29221     29218     29220     29237     29221     29223     29224     29225
     29221     29223     29224     29226     29221     29223     29224     29227
     29222     29221     29211     29228     29222     29221     29223     29224
     29223     29221     29211     29228     29228     29232     29235     29236
     29229     29228     29230     29231     29229     29228     29232     29233
     29229     29228     29232     29234     29229     29228     29232     29235
     29230     29228     29232     29233     29230     29228     29232     29234
     29230     29228     29232     29235     29231     29230     29228     29232
     29233     29232     29235     29236     29234     29232     29235     29236
     29237     29241     29239     29240     29237     29241     29239     29249
     29237     29241     29239     29256     29237     29242     29244     29245
     29237     29242     29246     29247     29237     29242     29246     29248
     29237     29242     29246     29249     29238     29237     29241     29239
     29238     29237     29242     29243     29238     29237     29242     29244
     29238     29237     29242     29246     29239     29241     29237     29242
     29239     29249     29246     29242     29239     29249     29246     29247
     29239     29249     29246     29248     29239     29249     29251     29252
     29239     29256     29258     29259     29239     29256     29260     29261
     29239     29256     29260     29262     29239     29256     29260     29263
     29240     29239     29249     29246     29240     29239     29249     29250
     29240     29239     29249     29251     29240     29239     29256     29257
     29240     29239     29256     29258     29240     29239     29256     29260
     29241     29237     29242     29243     29241     29237     29242     29244
     29241     29237     29242     29246     29241     29239     29249     29246
     29241     29239     29249     29250     29241     29239     29249     29251
     29241     29239     29256     29257     29241     29239     29256     29258
     29241     29239     29256     29260     29242     29246     29248     29290
     29242     29246     29249     29250     29242     29246     29249     29251
     29243     29242     29244     29245     29243     29242     29246     29247
     29243     29242     29246     29248     29243     29242     29246     29249
     29244     29242     29246     29247     29244     29242     29246     29248
     29244     29242     29246     29249     29245     29244     29242     29246
     29246     29248     29290     29291     29246     29248     29290     29294
     29246     29248     29290     29295     29246     29249     29239     29256
     29246     29249     29251     29252     29247     29246     29248     29290
     29247     29246     29249     29250     29247     29246     29249     29251
     29248     29246     29249     29250     29248     29246     29249     29251
     29248     29290     29294     29292     29248     29290     29295     29296
     29248     29290     29295     29297     29248     29290     29295     29299
     29249     29239     29256     29257     29249     29239     29256     29258
     29249     29239     29256     29260     29249     29246     29248     29290
     29249     29251     29252     29253     29249     29251     29252     29254
     29249     29251     29252     29255     29250     29249     29239     29256
     29250     29249     29251     29252     29251     29249     29239     29256
     29256     29260     29263     29264     29257     29256     29258     29259
     29257     29256     29260     29261     29257     29256     29260     29262
     29257     29256     29260     29263     29258     29256     29260     29261
     29258     29256     29260     29262     29258     29256     29260     29263
     29259     29258     29256     29260     29260     29263     29264     29265
     29260     29263     29264     29268     29260     29263     29264     29269
     29261     29260     29263     29264     29262     29260     29263     29264
     29263     29264     29268     29266     29263     29264     29269     29270
     29263     29264     29269     29271     29263     29264     29269     29273
     29264     29268     29266     29267     29264     29268     29266     29277
     29264     29268     29266     29281     29264     29269     29271     29272
     29264     29269     29273     29274     29264     29269     29273     29275
     29264     29269     29273     29277     29265     29264     29268     29266
     29265     29264     29269     29270     29265     29264     29269     29271
     29265     29264     29269     29273     29266     29268     29264     29269
     29266     29277     29273     29269     29266     29277     29273     29274
     29266     29277     29273     29275     29266     29277     29279     29280
     29266     29281     29283     29284     29266     29281     29285     29286
     29266     29281     29285     29287     29266     29281     29285     29288
     29267     29266     29277     29273     29267     29266     29277     29278
     29267     29266     29277     29279     29267     29266     29281     29282
     29267     29266     29281     29283     29267     29266     29281     29285
     29268     29264     29269     29270     29268     29264     29269     29271
     29268     29264     29269     29273     29268     29266     29277     29273
     29268     29266     29277     29278     29268     29266     29277     29279
     29268     29266     29281     29282     29268     29266     29281     29283
     29268     29266     29281     29285     29269     29273     29275     29276
     29269     29273     29277     29278     29269     29273     29277     29279
     29270     29269     29271     29272     29270     29269     29273     29274
     29270     29269     29273     29275     29270     29269     29273     29277
     29271     29269     29273     29274     29271     29269     29273     29275
     29271     29269     29273     29277     29272     29271     29269     29273
     29273     29277     29266     29281     29273     29277     29279     29280
     29274     29273     29275     29276     29274     29273     29277     29278
     29274     29273     29277     29279     29275     29273     29277     29278
     29275     29273     29277     29279     29276     29275     29273     29277
     29277     29266     29281     29282     29277     29266     29281     29283
     29277     29266     29281     29285     29278     29277     29266     29281
     29278     29277     29279     29280     29279     29277     29266     29281
     29281     29285     29288     29289     29282     29281     29283     29284
     29282     29281     29285     29286     29282     29281     29285     29287
     29282     29281     29285     29288     29283     29281     29285     29286
     29283     29281     29285     29287     29283     29281     29285     29288
     29284     29283     29281     29285     29286     29285     29288     29289
     29287     29285     29288     29289     29290     29294     29292     29293
     29290     29294     29292     29302     29290     29294     29292     29306
     29290     29295     29297     29298     29290     29295     29299     29300
     29290     29295     29299     29301     29290     29295     29299     29302
     29291     29290     29294     29292     29291     29290     29295     29296
     29291     29290     29295     29297     29291     29290     29295     29299
     29292     29294     29290     29295     29292     29302     29299     29295
     29292     29302     29299     29300     29292     29302     29299     29301
     29292     29302     29304     29305     29292     29306     29309     29310
     29293     29292     29302     29299     29293     29292     29302     29303
     29293     29292     29302     29304     29293     29292     29306     29307
     29293     29292     29306     29308     29293     29292     29306     29309
     29294     29290     29295     29296     29294     29290     29295     29297
     29294     29290     29295     29299     29294     29292     29302     29299
     29294     29292     29302     29303     29294     29292     29302     29304
     29294     29292     29306     29307     29294     29292     29306     29308
     29294     29292     29306     29309     29295     29299     29301     29311
     29295     29299     29302     29303     29295     29299     29302     29304
     29296     29295     29297     29298     29296     29295     29299     29300
     29296     29295     29299     29301     29296     29295     29299     29302
     29297     29295     29299     29300     29297     29295     29299     29301
     29297     29295     29299     29302     29298     29297     29295     29299
     29299     29301     29311     29312     29299     29301     29311     29315
     29299     29301     29311     29316     29299     29302     29292     29306
     29299     29302     29304     29305     29300     29299     29301     29311
     29300     29299     29302     29303     29300     29299     29302     29304
     29301     29299     29302     29303     29301     29299     29302     29304
     29301     29311     29315     29313     29301     29311     29316     29317
     29301     29311     29316     29318     29301     29311     29316     29319
     29302     29292     29306     29307     29302     29292     29306     29308
     29302     29292     29306     29309     29302     29299     29301     29311
     29303     29302     29292     29306     29303     29302     29304     29305
     29304     29302     29292     29306     29307     29306     29309     29310
     29308     29306     29309     29310     29311     29315     29313     29314
     29311     29315     29313     29322     29311     29315     29313     29326
     29311     29316     29318     29331     29311     29316     29319     29320
     29311     29316     29319     29321     29311     29316     29319     29322
     29312     29311     29315     29313     29312     29311     29316     29317
     29312     29311     29316     29318     29312     29311     29316     29319
     29313     29315     29311     29316     29313     29322     29319     29316
     29313     29322     29319     29320     29313     29322     29319     29321
     29313     29322     29324     29325     29313     29326     29329     29330
     29314     29313     29322     29319     29314     29313     29322     29323
     29314     29313     29322     29324     29314     29313     29326     29327
     29314     29313     29326     29328     29314     29313     29326     29329
     29315     29311     29316     29317     29315     29311     29316     29318
     29315     29311     29316     29319     29315     29313     29322     29319
     29315     29313     29322     29323     29315     29313     29322     29324
     29315     29313     29326     29327     29315     29313     29326     29328
     29315     29313     29326     29329     29316     29318     29331     29332
     29316     29318     29331     29335     29316     29318     29331     29336
     29316     29319     29321     29374     29316     29319     29322     29323
     29316     29319     29322     29324     29317     29316     29318     29331
     29317     29316     29319     29320     29317     29316     29319     29321
     29317     29316     29319     29322     29318     29316     29319     29320
     29318     29316     29319     29321     29318     29316     29319     29322
     29318     29331     29335     29333     29318     29331     29336     29337
     29318     29331     29336     29338     29318     29331     29336     29339
     29319     29316     29318     29331     29319     29321     29374     29375
     29319     29321     29374     29378     29319     29321     29374     29379
     29319     29322     29313     29326     29319     29322     29324     29325
     29320     29319     29321     29374     29320     29319     29322     29323
     29320     29319     29322     29324     29321     29319     29322     29323
     29321     29319     29322     29324     29321     29374     29378     29376
     29321     29374     29379     29380     29321     29374     29379     29381
     29321     29374     29379     29383     29322     29313     29326     29327
     29322     29313     29326     29328     29322     29313     29326     29329
     29322     29319     29321     29374     29323     29322     29313     29326
     29323     29322     29324     29325     29324     29322     29313     29326
     29327     29326     29329     29330     29328     29326     29329     29330
     29331     29335     29333     29334     29331     29335     29333     29343
     29331     29335     29333     29347     29331     29336     29338     29352
     29331     29336     29339     29340     29331     29336     29339     29341
     29331     29336     29339     29343     29332     29331     29335     29333
     29332     29331     29336     29337     29332     29331     29336     29338
     29332     29331     29336     29339     29333     29335     29331     29336
     29333     29343     29339     29336     29333     29343     29339     29340
     29333     29343     29339     29341     29333     29343     29345     29346
     29333     29347     29350     29351     29334     29333     29343     29339
     29334     29333     29343     29344     29334     29333     29343     29345
     29334     29333     29347     29348     29334     29333     29347     29349
     29334     29333     29347     29350     29335     29331     29336     29337
     29335     29331     29336     29338     29335     29331     29336     29339
     29335     29333     29343     29339     29335     29333     29343     29344
     29335     29333     29343     29345     29335     29333     29347     29348
     29335     29333     29347     29349     29335     29333     29347     29350
     29336     29338     29352     29353     29336     29338     29352     29356
     29336     29338     29352     29357     29336     29339     29341     29342
     29336     29339     29343     29344     29336     29339     29343     29345
     29337     29336     29338     29352     29337     29336     29339     29340
     29337     29336     29339     29341     29337     29336     29339     29343
     29338     29336     29339     29340     29338     29336     29339     29341
     29338     29336     29339     29343     29338     29352     29356     29354
     29338     29352     29357     29358     29338     29352     29357     29359
     29338     29352     29357     29361     29339     29336     29338     29352
     29339     29343     29333     29347     29339     29343     29345     29346
     29340     29339     29341     29342     29340     29339     29343     29344
     29340     29339     29343     29345     29341     29339     29343     29344
     29341     29339     29343     29345     29342     29341     29339     29343
     29343     29333     29347     29348     29343     29333     29347     29349
     29343     29333     29347     29350     29344     29343     29333     29347
     29344     29343     29345     29346     29345     29343     29333     29347
     29348     29347     29350     29351     29349     29347     29350     29351
     29352     29356     29354     29355     29352     29356     29354     29365
     29352     29356     29354     29369     29352     29357     29359     29360
     29352     29357     29361     29362     29352     29357     29361     29363
     29352     29357     29361     29365     29353     29352     29356     29354
     29353     29352     29357     29358     29353     29352     29357     29359
     29353     29352     29357     29361     29354     29356     29352     29357
     29354     29365     29361     29357     29354     29365     29361     29362
     29354     29365     29361     29363     29354     29365     29367     29368
     29354     29369     29372     29373     29355     29354     29365     29361
     29355     29354     29365     29366     29355     29354     29365     29367
     29355     29354     29369     29370     29355     29354     29369     29371
     29355     29354     29369     29372     29356     29352     29357     29358
     29356     29352     29357     29359     29356     29352     29357     29361
     29356     29354     29365     29361     29356     29354     29365     29366
     29356     29354     29365     29367     29356     29354     29369     29370
     29356     29354     29369     29371     29356     29354     29369     29372
     29357     29361     29363     29364     29357     29361     29365     29366
     29357     29361     29365     29367     29358     29357     29359     29360
     29358     29357     29361     29362     29358     29357     29361     29363
     29358     29357     29361     29365     29359     29357     29361     29362
     29359     29357     29361     29363     29359     29357     29361     29365
     29360     29359     29357     29361     29361     29365     29354     29369
     29361     29365     29367     29368     29362     29361     29363     29364
     29362     29361     29365     29366     29362     29361     29365     29367
     29363     29361     29365     29366     29363     29361     29365     29367
     29364     29363     29361     29365     29365     29354     29369     29370
     29365     29354     29369     29371     29365     29354     29369     29372
     29366     29365     29354     29369     29366     29365     29367     29368
     29367     29365     29354     29369     29370     29369     29372     29373
     29371     29369     29372     29373     29374     29378     29376     29377
     29374     29378     29376     29386     29374     29378     29376     29390
     29374     29379     29381     29382     29374     29379     29383     29384
     29374     29379     29383     29385     29374     29379     29383     29386
     29375     29374     29378     29376     29375     29374     29379     29380
     29375     29374     29379     29381     29375     29374     29379     29383
     29376     29378     29374     29379     29376     29386     29383     29379
     29376     29386     29383     29384     29376     29386     29383     29385
     29376     29386     29388     29389     29376     29390     29393     29394
     29377     29376     29386     29383     29377     29376     29386     29387
     29377     29376     29386     29388     29377     29376     29390     29391
     29377     29376     29390     29392     29377     29376     29390     29393
     29378     29374     29379     29380     29378     29374     29379     29381
     29378     29374     29379     29383     29378     29376     29386     29383
     29378     29376     29386     29387     29378     29376     29386     29388
     29378     29376     29390     29391     29378     29376     29390     29392
     29378     29376     29390     29393     29379     29383     29385     29395
     29379     29383     29386     29387     29379     29383     29386     29388
     29380     29379     29381     29382     29380     29379     29383     29384
     29380     29379     29383     29385     29380     29379     29383     29386
     29381     29379     29383     29384     29381     29379     29383     29385
     29381     29379     29383     29386     29382     29381     29379     29383
     29383     29385     29395     29396     29383     29385     29395     29399
     29383     29385     29395     29400     29383     29386     29376     29390
     29383     29386     29388     29389     29384     29383     29385     29395
     29384     29383     29386     29387     29384     29383     29386     29388
     29385     29383     29386     29387     29385     29383     29386     29388
     29385     29395     29399     29397     29385     29395     29400     29401
     29385     29395     29400     29402     29385     29395     29400     29410
     29386     29376     29390     29391     29386     29376     29390     29392
     29386     29376     29390     29393     29386     29383     29385     29395
     29387     29386     29376     29390     29387     29386     29388     29389
     29388     29386     29376     29390     29391     29390     29393     29394
     29392     29390     29393     29394     29395     29399     29397     29398
     29395     29399     29397     29413     29395     29399     29397     29417
     29395     29400     29402     29403     29395     29400     29402     29404
     29395     29400     29410     29411     29395     29400     29410     29412
     29395     29400     29410     29413     29396     29395     29399     29397
     29396     29395     29400     29401     29396     29395     29400     29402
     29396     29395     29400     29410     29397     29399     29395     29400
     29397     29413     29410     29400     29397     29413     29410     29411
     29397     29413     29410     29412     29397     29413     29415     29416
     29397     29417     29420     29421     29398     29397     29413     29410
     29398     29397     29413     29414     29398     29397     29413     29415
     29398     29397     29417     29418     29398     29397     29417     29419
     29398     29397     29417     29420     29399     29395     29400     29401
     29399     29395     29400     29402     29399     29395     29400     29410
     29399     29397     29413     29410     29399     29397     29413     29414
     29399     29397     29413     29415     29399     29397     29417     29418
     29399     29397     29417     29419     29399     29397     29417     29420
     29400     29402     29404     29405     29400     29402     29404     29406
     29400     29410     29412     29422     29400     29410     29413     29414
     29400     29410     29413     29415     29401     29400     29402     29403
     29401     29400     29402     29404     29401     29400     29410     29411
     29401     29400     29410     29412     29401     29400     29410     29413
     29402     29400     29410     29411     29402     29400     29410     29412
     29402     29400     29410     29413     29402     29404     29406     29407
     29402     29404     29406     29408     29402     29404     29406     29409
     29403     29402     29400     29410     29403     29402     29404     29405
     29403     29402     29404     29406     29404     29402     29400     29410
     29405     29404     29406     29407     29405     29404     29406     29408
     29405     29404     29406     29409     29410     29412     29422     29423
     29410     29412     29422     29426     29410     29412     29422     29427
     29410     29413     29397     29417     29410     29413     29415     29416
     29411     29410     29412     29422     29411     29410     29413     29414
     29411     29410     29413     29415     29412     29410     29413     29414
     29412     29410     29413     29415     29412     29422     29426     29424
     29412     29422     29427     29428     29412     29422     29427     29429
     29412     29422     29427     29430     29413     29397     29417     29418
     29413     29397     29417     29419     29413     29397     29417     29420
     29413     29410     29412     29422     29414     29413     29397     29417
     29414     29413     29415     29416     29415     29413     29397     29417
     29418     29417     29420     29421     29419     29417     29420     29421
     29422     29426     29424     29425     29422     29426     29424     29434
     29422     29426     29424     29438     29422     29427     29429     29443
     29422     29427     29430     29431     29422     29427     29430     29432
     29422     29427     29430     29434     29423     29422     29426     29424
     29423     29422     29427     29428     29423     29422     29427     29429
     29423     29422     29427     29430     29424     29426     29422     29427
     29424     29434     29430     29427     29424     29434     29430     29431
     29424     29434     29430     29432     29424     29434     29436     29437
     29424     29438     29441     29442     29425     29424     29434     29430
     29425     29424     29434     29435     29425     29424     29434     29436
     29425     29424     29438     29439     29425     29424     29438     29440
     29425     29424     29438     29441     29426     29422     29427     29428
     29426     29422     29427     29429     29426     29422     29427     29430
     29426     29424     29434     29430     29426     29424     29434     29435
     29426     29424     29434     29436     29426     29424     29438     29439
     29426     29424     29438     29440     29426     29424     29438     29441
     29427     29429     29443     29444     29427     29429     29443     29447
     29427     29429     29443     29448     29427     29430     29432     29433
     29427     29430     29434     29435     29427     29430     29434     29436
     29428     29427     29429     29443     29428     29427     29430     29431
     29428     29427     29430     29432     29428     29427     29430     29434
     29429     29427     29430     29431     29429     29427     29430     29432
     29429     29427     29430     29434     29429     29443     29447     29445
     29429     29443     29448     29449     29429     29443     29448     29450
     29429     29443     29448     29451     29430     29427     29429     29443
     29430     29434     29424     29438     29430     29434     29436     29437
     29431     29430     29432     29433     29431     29430     29434     29435
     29431     29430     29434     29436     29432     29430     29434     29435
     29432     29430     29434     29436     29433     29432     29430     29434
     29434     29424     29438     29439     29434     29424     29438     29440
     29434     29424     29438     29441     29435     29434     29424     29438
     29435     29434     29436     29437     29436     29434     29424     29438
     29439     29438     29441     29442     29440     29438     29441     29442
     29443     29447     29445     29446     29443     29447     29445     29455
     29443     29447     29445     29459     29443     29448     29450     29463
     29443     29448     29451     29452     29443     29448     29451     29453
     29443     29448     29451     29455     29444     29443     29447     29445
     29444     29443     29448     29449     29444     29443     29448     29450
     29444     29443     29448     29451     29445     29447     29443     29448
     29445     29455     29451     29448     29445     29455     29451     29452
     29445     29455     29451     29453     29445     29455     29457     29458
     29446     29445     29455     29451     29446     29445     29455     29456
     29446     29445     29455     29457     29446     29445     29459     29460
     29446     29445     29459     29461     29446     29445     29459     29462
     29447     29443     29448     29449     29447     29443     29448     29450
     29447     29443     29448     29451     29447     29445     29455     29451
     29447     29445     29455     29456     29447     29445     29455     29457
     29447     29445     29459     29460     29447     29445     29459     29461
     29447     29445     29459     29462     29448     29450     29463     29464
     29448     29450     29463     29467     29448     29450     29463     29468
     29448     29451     29453     29454     29448     29451     29455     29456
     29448     29451     29455     29457     29449     29448     29450     29463
     29449     29448     29451     29452     29449     29448     29451     29453
     29449     29448     29451     29455     29450     29448     29451     29452
     29450     29448     29451     29453     29450     29448     29451     29455
     29450     29463     29467     29465     29450     29463     29468     29469
     29450     29463     29468     29470     29450     29463     29468     29471
     29451     29448     29450     29463     29451     29455     29445     29459
     29451     29455     29457     29458     29452     29451     29453     29454
     29452     29451     29455     29456     29452     29451     29455     29457
     29453     29451     29455     29456     29453     29451     29455     29457
     29454     29453     29451     29455     29455     29445     29459     29460
     29455     29445     29459     29461     29455     29445     29459     29462
     29456     29455     29445     29459     29456     29455     29457     29458
     29457     29455     29445     29459     29463     29467     29465     29466
     29463     29467     29465     29474     29463     29467     29465     29478
     29463     29468     29470     29482     29463     29468     29471     29472
     29463     29468     29471     29473     29463     29468     29471     29474
     29464     29463     29467     29465     29464     29463     29468     29469
     29464     29463     29468     29470     29464     29463     29468     29471
     29465     29467     29463     29468     29465     29474     29471     29468
     29465     29474     29471     29472     29465     29474     29471     29473
     29465     29474     29476     29477     29466     29465     29474     29471
     29466     29465     29474     29475     29466     29465     29474     29476
     29466     29465     29478     29479     29466     29465     29478     29480
     29466     29465     29478     29481     29467     29463     29468     29469
     29467     29463     29468     29470     29467     29463     29468     29471
     29467     29465     29474     29471     29467     29465     29474     29475
     29467     29465     29474     29476     29467     29465     29478     29479
     29467     29465     29478     29480     29467     29465     29478     29481
     29468     29470     29482     29483     29468     29470     29482     29486
     29468     29470     29482     29487     29468     29471     29473     29510
     29468     29471     29474     29475     29468     29471     29474     29476
     29469     29468     29470     29482     29469     29468     29471     29472
     29469     29468     29471     29473     29469     29468     29471     29474
     29470     29468     29471     29472     29470     29468     29471     29473
     29470     29468     29471     29474     29470     29482     29486     29484
     29470     29482     29487     29488     29470     29482     29487     29489
     29470     29482     29487     29497     29471     29468     29470     29482
     29471     29473     29510     29511     29471     29473     29510     29514
     29471     29473     29510     29515     29471     29474     29465     29478
     29471     29474     29476     29477     29472     29471     29473     29510
     29472     29471     29474     29475     29472     29471     29474     29476
     29473     29471     29474     29475     29473     29471     29474     29476
     29473     29510     29514     29512     29473     29510     29515     29516
     29473     29510     29515     29517     29473     29510     29515     29525
     29474     29465     29478     29479     29474     29465     29478     29480
     29474     29465     29478     29481     29474     29471     29473     29510
     29475     29474     29465     29478     29475     29474     29476     29477
     29476     29474     29465     29478     29482     29486     29484     29485
     29482     29486     29484     29501     29482     29486     29484     29505
     29482     29487     29489     29490     29482     29487     29489     29491
     29482     29487     29497     29498     29482     29487     29497     29499
     29482     29487     29497     29501     29483     29482     29486     29484
     29483     29482     29487     29488     29483     29482     29487     29489
     29483     29482     29487     29497     29484     29486     29482     29487
     29484     29501     29497     29487     29484     29501     29497     29498
     29484     29501     29497     29499     29484     29501     29503     29504
     29484     29505     29508     29509     29485     29484     29501     29497
     29485     29484     29501     29502     29485     29484     29501     29503
     29485     29484     29505     29506     29485     29484     29505     29507
     29485     29484     29505     29508     29486     29482     29487     29488
     29486     29482     29487     29489     29486     29482     29487     29497
     29486     29484     29501     29497     29486     29484     29501     29502
     29486     29484     29501     29503     29486     29484     29505     29506
     29486     29484     29505     29507     29486     29484     29505     29508
     29487     29489     29491     29492     29487     29489     29491     29493
     29487     29497     29499     29500     29487     29497     29501     29502
     29487     29497     29501     29503     29488     29487     29489     29490
     29488     29487     29489     29491     29488     29487     29497     29498
     29488     29487     29497     29499     29488     29487     29497     29501
     29489     29487     29497     29498     29489     29487     29497     29499
     29489     29487     29497     29501     29489     29491     29493     29494
     29489     29491     29493     29495     29489     29491     29493     29496
     29490     29489     29487     29497     29490     29489     29491     29492
     29490     29489     29491     29493     29491     29489     29487     29497
     29492     29491     29493     29494     29492     29491     29493     29495
     29492     29491     29493     29496     29497     29501     29484     29505
     29497     29501     29503     29504     29498     29497     29499     29500
     29498     29497     29501     29502     29498     29497     29501     29503
     29499     29497     29501     29502     29499     29497     29501     29503
     29500     29499     29497     29501     29501     29484     29505     29506
     29501     29484     29505     29507     29501     29484     29505     29508
     29502     29501     29484     29505     29502     29501     29503     29504
     29503     29501     29484     29505     29506     29505     29508     29509
     29507     29505     29508     29509     29510     29514     29512     29513
     29510     29514     29512     29528     29510     29514     29512     29532
     29510     29515     29517     29518     29510     29515     29517     29519
     29510     29515     29525     29526     29510     29515     29525     29527
     29510     29515     29525     29528     29511     29510     29514     29512
     29511     29510     29515     29516     29511     29510     29515     29517
     29511     29510     29515     29525     29512     29514     29510     29515
     29512     29528     29525     29515     29512     29528     29525     29526
     29512     29528     29525     29527     29512     29528     29530     29531
     29512     29532     29535     29536     29513     29512     29528     29525
     29513     29512     29528     29529     29513     29512     29528     29530
     29513     29512     29532     29533     29513     29512     29532     29534
     29513     29512     29532     29535     29514     29510     29515     29516
     29514     29510     29515     29517     29514     29510     29515     29525
     29514     29512     29528     29525     29514     29512     29528     29529
     29514     29512     29528     29530     29514     29512     29532     29533
     29514     29512     29532     29534     29514     29512     29532     29535
     29515     29517     29519     29520     29515     29517     29519     29521
     29515     29525     29527     29537     29515     29525     29528     29529
     29515     29525     29528     29530     29516     29515     29517     29518
     29516     29515     29517     29519     29516     29515     29525     29526
     29516     29515     29525     29527     29516     29515     29525     29528
     29517     29515     29525     29526     29517     29515     29525     29527
     29517     29515     29525     29528     29517     29519     29521     29522
     29517     29519     29521     29523     29517     29519     29521     29524
     29518     29517     29515     29525     29518     29517     29519     29520
     29518     29517     29519     29521     29519     29517     29515     29525
     29520     29519     29521     29522     29520     29519     29521     29523
     29520     29519     29521     29524     29525     29527     29537     29538
     29525     29527     29537     29541     29525     29527     29537     29542
     29525     29528     29512     29532     29525     29528     29530     29531
     29526     29525     29527     29537     29526     29525     29528     29529
     29526     29525     29528     29530     29527     29525     29528     29529
     29527     29525     29528     29530     29527     29537     29541     29539
     29527     29537     29542     29543     29527     29537     29542     29544
     29527     29537     29542     29545     29528     29512     29532     29533
     29528     29512     29532     29534     29528     29512     29532     29535
     29528     29525     29527     29537     29529     29528     29512     29532
     29529     29528     29530     29531     29530     29528     29512     29532
     29533     29532     29535     29536     29534     29532     29535     29536
     29537     29541     29539     29540     29537     29541     29539     29549
     29537     29541     29539     29553     29537     29542     29544     29558
     29537     29542     29545     29546     29537     29542     29545     29547
     29537     29542     29545     29549     29538     29537     29541     29539
     29538     29537     29542     29543     29538     29537     29542     29544
     29538     29537     29542     29545     29539     29541     29537     29542
     29539     29549     29545     29542     29539     29549     29545     29546
     29539     29549     29545     29547     29539     29549     29551     29552
     29539     29553     29556     29557     29540     29539     29549     29545
     29540     29539     29549     29550     29540     29539     29549     29551
     29540     29539     29553     29554     29540     29539     29553     29555
     29540     29539     29553     29556     29541     29537     29542     29543
     29541     29537     29542     29544     29541     29537     29542     29545
     29541     29539     29549     29545     29541     29539     29549     29550
     29541     29539     29549     29551     29541     29539     29553     29554
     29541     29539     29553     29555     29541     29539     29553     29556
     29542     29544     29558     29559     29542     29544     29558     29562
     29542     29544     29558     29563     29542     29545     29547     29548
     29542     29545     29549     29550     29542     29545     29549     29551
     29543     29542     29544     29558     29543     29542     29545     29546
     29543     29542     29545     29547     29543     29542     29545     29549
     29544     29542     29545     29546     29544     29542     29545     29547
     29544     29542     29545     29549     29544     29558     29562     29560
     29544     29558     29563     29564     29544     29558     29563     29565
     29544     29558     29563     29566     29545     29542     29544     29558
     29545     29549     29539     29553     29545     29549     29551     29552
     29546     29545     29547     29548     29546     29545     29549     29550
     29546     29545     29549     29551     29547     29545     29549     29550
     29547     29545     29549     29551     29548     29547     29545     29549
     29549     29539     29553     29554     29549     29539     29553     29555
     29549     29539     29553     29556     29550     29549     29539     29553
     29550     29549     29551     29552     29551     29549     29539     29553
     29554     29553     29556     29557     29555     29553     29556     29557
     29558     29562     29560     29561     29558     29562     29560     29570
     29558     29562     29560     29574     29558     29563     29565     29578
     29558     29563     29566     29567     29558     29563     29566     29568
     29558     29563     29566     29570     29559     29558     29562     29560
     29559     29558     29563     29564     29559     29558     29563     29565
     29559     29558     29563     29566     29560     29562     29558     29563
     29560     29570     29566     29563     29560     29570     29566     29567
     29560     29570     29566     29568     29560     29570     29572     29573
     29561     29560     29570     29566     29561     29560     29570     29571
     29561     29560     29570     29572     29561     29560     29574     29575
     29561     29560     29574     29576     29561     29560     29574     29577
     29562     29558     29563     29564     29562     29558     29563     29565
     29562     29558     29563     29566     29562     29560     29570     29566
     29562     29560     29570     29571     29562     29560     29570     29572
     29562     29560     29574     29575     29562     29560     29574     29576
     29562     29560     29574     29577     29563     29565     29578     29579
     29563     29565     29578     29582     29563     29565     29578     29583
     29563     29566     29568     29569     29563     29566     29570     29571
     29563     29566     29570     29572     29564     29563     29565     29578
     29564     29563     29566     29567     29564     29563     29566     29568
     29564     29563     29566     29570     29565     29563     29566     29567
     29565     29563     29566     29568     29565     29563     29566     29570
     29565     29578     29582     29580     29565     29578     29583     29584
     29565     29578     29583     29585     29565     29578     29583     29586
     29566     29563     29565     29578     29566     29570     29560     29574
     29566     29570     29572     29573     29567     29566     29568     29569
     29567     29566     29570     29571     29567     29566     29570     29572
     29568     29566     29570     29571     29568     29566     29570     29572
     29569     29568     29566     29570     29570     29560     29574     29575
     29570     29560     29574     29576     29570     29560     29574     29577
     29571     29570     29560     29574     29571     29570     29572     29573
     29572     29570     29560     29574     29578     29582     29580     29581
     29578     29582     29580     29589     29578     29582     29580     29593
     29578     29583     29585     29597     29578     29583     29586     29587
     29578     29583     29586     29588     29578     29583     29586     29589
     29579     29578     29582     29580     29579     29578     29583     29584
     29579     29578     29583     29585     29579     29578     29583     29586
     29580     29582     29578     29583     29580     29589     29586     29583
     29580     29589     29586     29587     29580     29589     29586     29588
     29580     29589     29591     29592     29581     29580     29589     29586
     29581     29580     29589     29590     29581     29580     29589     29591
     29581     29580     29593     29594     29581     29580     29593     29595
     29581     29580     29593     29596     29582     29578     29583     29584
     29582     29578     29583     29585     29582     29578     29583     29586
     29582     29580     29589     29586     29582     29580     29589     29590
     29582     29580     29589     29591     29582     29580     29593     29594
     29582     29580     29593     29595     29582     29580     29593     29596
     29583     29585     29597     29598     29583     29585     29597     29601
     29583     29585     29597     29602     29583     29586     29588     29625
     29583     29586     29589     29590     29583     29586     29589     29591
     29584     29583     29585     29597     29584     29583     29586     29587
     29584     29583     29586     29588     29584     29583     29586     29589
     29585     29583     29586     29587     29585     29583     29586     29588
     29585     29583     29586     29589     29585     29597     29601     29599
     29585     29597     29602     29603     29585     29597     29602     29604
     29585     29597     29602     29612     29586     29583     29585     29597
     29586     29588     29625     29626     29586     29588     29625     29629
     29586     29588     29625     29630     29586     29589     29580     29593
     29586     29589     29591     29592     29587     29586     29588     29625
     29587     29586     29589     29590     29587     29586     29589     29591
     29588     29586     29589     29590     29588     29586     29589     29591
     29588     29625     29629     29627     29588     29625     29630     29631
     29588     29625     29630     29632     29588     29625     29630     29640
     29589     29580     29593     29594     29589     29580     29593     29595
     29589     29580     29593     29596     29589     29586     29588     29625
     29590     29589     29580     29593     29590     29589     29591     29592
     29591     29589     29580     29593     29597     29601     29599     29600
     29597     29601     29599     29616     29597     29601     29599     29620
     29597     29602     29604     29605     29597     29602     29604     29606
     29597     29602     29612     29613     29597     29602     29612     29614
     29597     29602     29612     29616     29598     29597     29601     29599
     29598     29597     29602     29603     29598     29597     29602     29604
     29598     29597     29602     29612     29599     29601     29597     29602
     29599     29616     29612     29602     29599     29616     29612     29613
     29599     29616     29612     29614     29599     29616     29618     29619
     29599     29620     29623     29624     29600     29599     29616     29612
     29600     29599     29616     29617     29600     29599     29616     29618
     29600     29599     29620     29621     29600     29599     29620     29622
     29600     29599     29620     29623     29601     29597     29602     29603
     29601     29597     29602     29604     29601     29597     29602     29612
     29601     29599     29616     29612     29601     29599     29616     29617
     29601     29599     29616     29618     29601     29599     29620     29621
     29601     29599     29620     29622     29601     29599     29620     29623
     29602     29604     29606     29607     29602     29604     29606     29608
     29602     29612     29614     29615     29602     29612     29616     29617
     29602     29612     29616     29618     29603     29602     29604     29605
     29603     29602     29604     29606     29603     29602     29612     29613
     29603     29602     29612     29614     29603     29602     29612     29616
     29604     29602     29612     29613     29604     29602     29612     29614
     29604     29602     29612     29616     29604     29606     29608     29609
     29604     29606     29608     29610     29604     29606     29608     29611
     29605     29604     29602     29612     29605     29604     29606     29607
     29605     29604     29606     29608     29606     29604     29602     29612
     29607     29606     29608     29609     29607     29606     29608     29610
     29607     29606     29608     29611     29612     29616     29599     29620
     29612     29616     29618     29619     29613     29612     29614     29615
     29613     29612     29616     29617     29613     29612     29616     29618
     29614     29612     29616     29617     29614     29612     29616     29618
     29615     29614     29612     29616     29616     29599     29620     29621
     29616     29599     29620     29622     29616     29599     29620     29623
     29617     29616     29599     29620     29617     29616     29618     29619
     29618     29616     29599     29620     29621     29620     29623     29624
     29622     29620     29623     29624     29625     29629     29627     29628
     29625     29629     29627     29643     29625     29629     29627     29647
     29625     29630     29632     29633     29625     29630     29632     29634
     29625     29630     29640     29641     29625     29630     29640     29642
     29625     29630     29640     29643     29626     29625     29629     29627
     29626     29625     29630     29631     29626     29625     29630     29632
     29626     29625     29630     29640     29627     29629     29625     29630
     29627     29643     29640     29630     29627     29643     29640     29641
     29627     29643     29640     29642     29627     29643     29645     29646
     29627     29647     29650     29651     29628     29627     29643     29640
     29628     29627     29643     29644     29628     29627     29643     29645
     29628     29627     29647     29648     29628     29627     29647     29649
     29628     29627     29647     29650     29629     29625     29630     29631
     29629     29625     29630     29632     29629     29625     29630     29640
     29629     29627     29643     29640     29629     29627     29643     29644
     29629     29627     29643     29645     29629     29627     29647     29648
     29629     29627     29647     29649     29629     29627     29647     29650
     29630     29632     29634     29635     29630     29632     29634     29636
     29630     29640     29642     29652     29630     29640     29643     29644
     29630     29640     29643     29645     29631     29630     29632     29633
     29631     29630     29632     29634     29631     29630     29640     29641
     29631     29630     29640     29642     29631     29630     29640     29643
     29632     29630     29640     29641     29632     29630     29640     29642
     29632     29630     29640     29643     29632     29634     29636     29637
     29632     29634     29636     29638     29632     29634     29636     29639
     29633     29632     29630     29640     29633     29632     29634     29635
     29633     29632     29634     29636     29634     29632     29630     29640
     29635     29634     29636     29637     29635     29634     29636     29638
     29635     29634     29636     29639     29640     29642     29652     29653
     29640     29642     29652     29656     29640     29642     29652     29657
     29640     29643     29627     29647     29640     29643     29645     29646
     29641     29640     29642     29652     29641     29640     29643     29644
     29641     29640     29643     29645     29642     29640     29643     29644
     29642     29640     29643     29645     29642     29652     29656     29654
     29642     29652     29657     29658     29642     29652     29657     29659
     29642     29652     29657     29660     29643     29627     29647     29648
     29643     29627     29647     29649     29643     29627     29647     29650
     29643     29640     29642     29652     29644     29643     29627     29647
     29644     29643     29645     29646     29645     29643     29627     29647
     29648     29647     29650     29651     29649     29647     29650     29651
     29652     29656     29654     29655     29652     29656     29654     29664
     29652     29656     29654     29668     29652     29657     29659     29673
     29652     29657     29660     29661     29652     29657     29660     29662
     29652     29657     29660     29664     29653     29652     29656     29654
     29653     29652     29657     29658     29653     29652     29657     29659
     29653     29652     29657     29660     29654     29656     29652     29657
     29654     29664     29660     29657     29654     29664     29660     29661
     29654     29664     29660     29662     29654     29664     29666     29667
     29654     29668     29671     29672     29655     29654     29664     29660
     29655     29654     29664     29665     29655     29654     29664     29666
     29655     29654     29668     29669     29655     29654     29668     29670
     29655     29654     29668     29671     29656     29652     29657     29658
     29656     29652     29657     29659     29656     29652     29657     29660
     29656     29654     29664     29660     29656     29654     29664     29665
     29656     29654     29664     29666     29656     29654     29668     29669
     29656     29654     29668     29670     29656     29654     29668     29671
     29657     29659     29673     29674     29657     29659     29673     29677
     29657     29659     29673     29678     29657     29660     29662     29663
     29657     29660     29664     29665     29657     29660     29664     29666
     29658     29657     29659     29673     29658     29657     29660     29661
     29658     29657     29660     29662     29658     29657     29660     29664
     29659     29657     29660     29661     29659     29657     29660     29662
     29659     29657     29660     29664     29659     29673     29677     29675
     29659     29673     29678     29679     29659     29673     29678     29680
     29659     29673     29678     29681     29660     29657     29659     29673
     29660     29664     29654     29668     29660     29664     29666     29667
     29661     29660     29662     29663     29661     29660     29664     29665
     29661     29660     29664     29666     29662     29660     29664     29665
     29662     29660     29664     29666     29663     29662     29660     29664
     29664     29654     29668     29669     29664     29654     29668     29670
     29664     29654     29668     29671     29665     29664     29654     29668
     29665     29664     29666     29667     29666     29664     29654     29668
     29669     29668     29671     29672     29670     29668     29671     29672
     29673     29677     29675     29676     29673     29677     29675     29685
     29673     29677     29675     29689     29673     29678     29680     29693
     29673     29678     29681     29682     29673     29678     29681     29683
     29673     29678     29681     29685     29674     29673     29677     29675
     29674     29673     29678     29679     29674     29673     29678     29680
     29674     29673     29678     29681     29675     29677     29673     29678
     29675     29685     29681     29678     29675     29685     29681     29682
     29675     29685     29681     29683     29675     29685     29687     29688
     29676     29675     29685     29681     29676     29675     29685     29686
     29676     29675     29685     29687     29676     29675     29689     29690
     29676     29675     29689     29691     29676     29675     29689     29692
     29677     29673     29678     29679     29677     29673     29678     29680
     29677     29673     29678     29681     29677     29675     29685     29681
     29677     29675     29685     29686     29677     29675     29685     29687
     29677     29675     29689     29690     29677     29675     29689     29691
     29677     29675     29689     29692     29678     29680     29693     29694
     29678     29680     29693     29697     29678     29680     29693     29698
     29678     29681     29683     29684     29678     29681     29685     29686
     29678     29681     29685     29687     29679     29678     29680     29693
     29679     29678     29681     29682     29679     29678     29681     29683
     29679     29678     29681     29685     29680     29678     29681     29682
     29680     29678     29681     29683     29680     29678     29681     29685
     29680     29693     29697     29695     29680     29693     29698     29699
     29680     29693     29698     29700     29680     29693     29698     29701
     29681     29678     29680     29693     29681     29685     29675     29689
     29681     29685     29687     29688     29682     29681     29683     29684
     29682     29681     29685     29686     29682     29681     29685     29687
     29683     29681     29685     29686     29683     29681     29685     29687
     29684     29683     29681     29685     29685     29675     29689     29690
     29685     29675     29689     29691     29685     29675     29689     29692
     29686     29685     29675     29689     29686     29685     29687     29688
     29687     29685     29675     29689     29693     29697     29695     29696
     29693     29697     29695     29704     29693     29697     29695     29708
     29693     29698     29700     29712     29693     29698     29701     29702
     29693     29698     29701     29703     29693     29698     29701     29704
     29694     29693     29697     29695     29694     29693     29698     29699
     29694     29693     29698     29700     29694     29693     29698     29701
     29695     29697     29693     29698     29695     29704     29701     29698
     29695     29704     29701     29702     29695     29704     29701     29703
     29695     29704     29706     29707     29696     29695     29704     29701
     29696     29695     29704     29705     29696     29695     29704     29706
     29696     29695     29708     29709     29696     29695     29708     29710
     29696     29695     29708     29711     29697     29693     29698     29699
     29697     29693     29698     29700     29697     29693     29698     29701
     29697     29695     29704     29701     29697     29695     29704     29705
     29697     29695     29704     29706     29697     29695     29708     29709
     29697     29695     29708     29710     29697     29695     29708     29711
     29698     29700     29712     29713     29698     29700     29712     29716
     29698     29700     29712     29717     29698     29701     29703     29740
     29698     29701     29704     29705     29698     29701     29704     29706
     29699     29698     29700     29712     29699     29698     29701     29702
     29699     29698     29701     29703     29699     29698     29701     29704
     29700     29698     29701     29702     29700     29698     29701     29703
     29700     29698     29701     29704     29700     29712     29716     29714
     29700     29712     29717     29718     29700     29712     29717     29719
     29700     29712     29717     29727     29701     29698     29700     29712
     29701     29703     29740     29741     29701     29703     29740     29744
     29701     29703     29740     29745     29701     29704     29695     29708
     29701     29704     29706     29707     29702     29701     29703     29740
     29702     29701     29704     29705     29702     29701     29704     29706
     29703     29701     29704     29705     29703     29701     29704     29706
     29703     29740     29744     29742     29703     29740     29745     29746
     29703     29740     29745     29747     29703     29740     29745     29755
     29704     29695     29708     29709     29704     29695     29708     29710
     29704     29695     29708     29711     29704     29701     29703     29740
     29705     29704     29695     29708     29705     29704     29706     29707
     29706     29704     29695     29708     29712     29716     29714     29715
     29712     29716     29714     29731     29712     29716     29714     29735
     29712     29717     29719     29720     29712     29717     29719     29721
     29712     29717     29727     29728     29712     29717     29727     29729
     29712     29717     29727     29731     29713     29712     29716     29714
     29713     29712     29717     29718     29713     29712     29717     29719
     29713     29712     29717     29727     29714     29716     29712     29717
     29714     29731     29727     29717     29714     29731     29727     29728
     29714     29731     29727     29729     29714     29731     29733     29734
     29714     29735     29738     29739     29715     29714     29731     29727
     29715     29714     29731     29732     29715     29714     29731     29733
     29715     29714     29735     29736     29715     29714     29735     29737
     29715     29714     29735     29738     29716     29712     29717     29718
     29716     29712     29717     29719     29716     29712     29717     29727
     29716     29714     29731     29727     29716     29714     29731     29732
     29716     29714     29731     29733     29716     29714     29735     29736
     29716     29714     29735     29737     29716     29714     29735     29738
     29717     29719     29721     29722     29717     29719     29721     29723
     29717     29727     29729     29730     29717     29727     29731     29732
     29717     29727     29731     29733     29718     29717     29719     29720
     29718     29717     29719     29721     29718     29717     29727     29728
     29718     29717     29727     29729     29718     29717     29727     29731
     29719     29717     29727     29728     29719     29717     29727     29729
     29719     29717     29727     29731     29719     29721     29723     29724
     29719     29721     29723     29725     29719     29721     29723     29726
     29720     29719     29717     29727     29720     29719     29721     29722
     29720     29719     29721     29723     29721     29719     29717     29727
     29722     29721     29723     29724     29722     29721     29723     29725
     29722     29721     29723     29726     29727     29731     29714     29735
     29727     29731     29733     29734     29728     29727     29729     29730
     29728     29727     29731     29732     29728     29727     29731     29733
     29729     29727     29731     29732     29729     29727     29731     29733
     29730     29729     29727     29731     29731     29714     29735     29736
     29731     29714     29735     29737     29731     29714     29735     29738
     29732     29731     29714     29735     29732     29731     29733     29734
     29733     29731     29714     29735     29736     29735     29738     29739
     29737     29735     29738     29739     29740     29744     29742     29743
     29740     29744     29742     29758     29740     29744     29742     29762
     29740     29745     29747     29748     29740     29745     29747     29749
     29740     29745     29755     29756     29740     29745     29755     29757
     29740     29745     29755     29758     29741     29740     29744     29742
     29741     29740     29745     29746     29741     29740     29745     29747
     29741     29740     29745     29755     29742     29744     29740     29745
     29742     29758     29755     29745     29742     29758     29755     29756
     29742     29758     29755     29757     29742     29758     29760     29761
     29742     29762     29765     29766     29743     29742     29758     29755
     29743     29742     29758     29759     29743     29742     29758     29760
     29743     29742     29762     29763     29743     29742     29762     29764
     29743     29742     29762     29765     29744     29740     29745     29746
     29744     29740     29745     29747     29744     29740     29745     29755
     29744     29742     29758     29755     29744     29742     29758     29759
     29744     29742     29758     29760     29744     29742     29762     29763
     29744     29742     29762     29764     29744     29742     29762     29765
     29745     29747     29749     29750     29745     29747     29749     29751
     29745     29755     29757     29767     29745     29755     29758     29759
     29745     29755     29758     29760     29746     29745     29747     29748
     29746     29745     29747     29749     29746     29745     29755     29756
     29746     29745     29755     29757     29746     29745     29755     29758
     29747     29745     29755     29756     29747     29745     29755     29757
     29747     29745     29755     29758     29747     29749     29751     29752
     29747     29749     29751     29753     29747     29749     29751     29754
     29748     29747     29745     29755     29748     29747     29749     29750
     29748     29747     29749     29751     29749     29747     29745     29755
     29750     29749     29751     29752     29750     29749     29751     29753
     29750     29749     29751     29754     29755     29757     29767     29768
     29755     29757     29767     29771     29755     29757     29767     29772
     29755     29758     29742     29762     29755     29758     29760     29761
     29756     29755     29757     29767     29756     29755     29758     29759
     29756     29755     29758     29760     29757     29755     29758     29759
     29757     29755     29758     29760     29757     29767     29771     29769
     29757     29767     29772     29773     29757     29767     29772     29774
     29757     29767     29772     29775     29758     29742     29762     29763
     29758     29742     29762     29764     29758     29742     29762     29765
     29758     29755     29757     29767     29759     29758     29742     29762
     29759     29758     29760     29761     29760     29758     29742     29762
     29763     29762     29765     29766     29764     29762     29765     29766
     29767     29771     29769     29770     29767     29771     29769     29779
     29767     29771     29769     29783     29767     29772     29774     29788
     29767     29772     29775     29776     29767     29772     29775     29777
     29767     29772     29775     29779     29768     29767     29771     29769
     29768     29767     29772     29773     29768     29767     29772     29774
     29768     29767     29772     29775     29769     29771     29767     29772
     29769     29779     29775     29772     29769     29779     29775     29776
     29769     29779     29775     29777     29769     29779     29781     29782
     29769     29783     29786     29787     29770     29769     29779     29775
     29770     29769     29779     29780     29770     29769     29779     29781
     29770     29769     29783     29784     29770     29769     29783     29785
     29770     29769     29783     29786     29771     29767     29772     29773
     29771     29767     29772     29774     29771     29767     29772     29775
     29771     29769     29779     29775     29771     29769     29779     29780
     29771     29769     29779     29781     29771     29769     29783     29784
     29771     29769     29783     29785     29771     29769     29783     29786
     29772     29774     29788     29789     29772     29774     29788     29792
     29772     29774     29788     29793     29772     29775     29777     29778
     29772     29775     29779     29780     29772     29775     29779     29781
     29773     29772     29774     29788     29773     29772     29775     29776
     29773     29772     29775     29777     29773     29772     29775     29779
     29774     29772     29775     29776     29774     29772     29775     29777
     29774     29772     29775     29779     29774     29788     29792     29790
     29774     29788     29793     29794     29774     29788     29793     29795
     29774     29788     29793     29796     29775     29772     29774     29788
     29775     29779     29769     29783     29775     29779     29781     29782
     29776     29775     29777     29778     29776     29775     29779     29780
     29776     29775     29779     29781     29777     29775     29779     29780
     29777     29775     29779     29781     29778     29777     29775     29779
     29779     29769     29783     29784     29779     29769     29783     29785
     29779     29769     29783     29786     29780     29779     29769     29783
     29780     29779     29781     29782     29781     29779     29769     29783
     29784     29783     29786     29787     29785     29783     29786     29787
     29788     29792     29790     29791     29788     29792     29790     29800
     29788     29792     29790     29804     29788     29793     29795     29808
     29788     29793     29796     29797     29788     29793     29796     29798
     29788     29793     29796     29800     29789     29788     29792     29790
     29789     29788     29793     29794     29789     29788     29793     29795
     29789     29788     29793     29796     29790     29792     29788     29793
     29790     29800     29796     29793     29790     29800     29796     29797
     29790     29800     29796     29798     29790     29800     29802     29803
     29791     29790     29800     29796     29791     29790     29800     29801
     29791     29790     29800     29802     29791     29790     29804     29805
     29791     29790     29804     29806     29791     29790     29804     29807
     29792     29788     29793     29794     29792     29788     29793     29795
     29792     29788     29793     29796     29792     29790     29800     29796
     29792     29790     29800     29801     29792     29790     29800     29802
     29792     29790     29804     29805     29792     29790     29804     29806
     29792     29790     29804     29807     29793     29795     29808     29809
     29793     29795     29808     29812     29793     29795     29808     29813
     29793     29796     29798     29799     29793     29796     29800     29801
     29793     29796     29800     29802     29794     29793     29795     29808
     29794     29793     29796     29797     29794     29793     29796     29798
     29794     29793     29796     29800     29795     29793     29796     29797
     29795     29793     29796     29798     29795     29793     29796     29800
     29795     29808     29812     29810     29795     29808     29813     29814
     29795     29808     29813     29815     29795     29808     29813     29816
     29796     29793     29795     29808     29796     29800     29790     29804
     29796     29800     29802     29803     29797     29796     29798     29799
     29797     29796     29800     29801     29797     29796     29800     29802
     29798     29796     29800     29801     29798     29796     29800     29802
     29799     29798     29796     29800     29800     29790     29804     29805
     29800     29790     29804     29806     29800     29790     29804     29807
     29801     29800     29790     29804     29801     29800     29802     29803
     29802     29800     29790     29804     29808     29812     29810     29811
     29808     29812     29810     29819     29808     29812     29810     29823
     29808     29813     29815     29827     29808     29813     29816     29817
     29808     29813     29816     29818     29808     29813     29816     29819
     29809     29808     29812     29810     29809     29808     29813     29814
     29809     29808     29813     29815     29809     29808     29813     29816
     29810     29812     29808     29813     29810     29819     29816     29813
     29810     29819     29816     29817     29810     29819     29816     29818
     29810     29819     29821     29822     29811     29810     29819     29816
     29811     29810     29819     29820     29811     29810     29819     29821
     29811     29810     29823     29824     29811     29810     29823     29825
     29811     29810     29823     29826     29812     29808     29813     29814
     29812     29808     29813     29815     29812     29808     29813     29816
     29812     29810     29819     29816     29812     29810     29819     29820
     29812     29810     29819     29821     29812     29810     29823     29824
     29812     29810     29823     29825     29812     29810     29823     29826
     29813     29815     29827     29828     29813     29815     29827     29831
     29813     29815     29827     29832     29813     29816     29818     29855
     29813     29816     29819     29820     29813     29816     29819     29821
     29814     29813     29815     29827     29814     29813     29816     29817
     29814     29813     29816     29818     29814     29813     29816     29819
     29815     29813     29816     29817     29815     29813     29816     29818
     29815     29813     29816     29819     29815     29827     29831     29829
     29815     29827     29832     29833     29815     29827     29832     29834
     29815     29827     29832     29842     29816     29813     29815     29827
     29816     29818     29855     29856     29816     29818     29855     29859
     29816     29818     29855     29860     29816     29819     29810     29823
     29816     29819     29821     29822     29817     29816     29818     29855
     29817     29816     29819     29820     29817     29816     29819     29821
     29818     29816     29819     29820     29818     29816     29819     29821
     29818     29855     29859     29857     29818     29855     29860     29861
     29818     29855     29860     29862     29818     29855     29860     29870
     29819     29810     29823     29824     29819     29810     29823     29825
     29819     29810     29823     29826     29819     29816     29818     29855
     29820     29819     29810     29823     29820     29819     29821     29822
     29821     29819     29810     29823     29827     29831     29829     29830
     29827     29831     29829     29846     29827     29831     29829     29850
     29827     29832     29834     29835     29827     29832     29834     29836
     29827     29832     29842     29843     29827     29832     29842     29844
     29827     29832     29842     29846     29828     29827     29831     29829
     29828     29827     29832     29833     29828     29827     29832     29834
     29828     29827     29832     29842     29829     29831     29827     29832
     29829     29846     29842     29832     29829     29846     29842     29843
     29829     29846     29842     29844     29829     29846     29848     29849
     29829     29850     29853     29854     29830     29829     29846     29842
     29830     29829     29846     29847     29830     29829     29846     29848
     29830     29829     29850     29851     29830     29829     29850     29852
     29830     29829     29850     29853     29831     29827     29832     29833
     29831     29827     29832     29834     29831     29827     29832     29842
     29831     29829     29846     29842     29831     29829     29846     29847
     29831     29829     29846     29848     29831     29829     29850     29851
     29831     29829     29850     29852     29831     29829     29850     29853
     29832     29834     29836     29837     29832     29834     29836     29838
     29832     29842     29844     29845     29832     29842     29846     29847
     29832     29842     29846     29848     29833     29832     29834     29835
     29833     29832     29834     29836     29833     29832     29842     29843
     29833     29832     29842     29844     29833     29832     29842     29846
     29834     29832     29842     29843     29834     29832     29842     29844
     29834     29832     29842     29846     29834     29836     29838     29839
     29834     29836     29838     29840     29834     29836     29838     29841
     29835     29834     29832     29842     29835     29834     29836     29837
     29835     29834     29836     29838     29836     29834     29832     29842
     29837     29836     29838     29839     29837     29836     29838     29840
     29837     29836     29838     29841     29842     29846     29829     29850
     29842     29846     29848     29849     29843     29842     29844     29845
     29843     29842     29846     29847     29843     29842     29846     29848
     29844     29842     29846     29847     29844     29842     29846     29848
     29845     29844     29842     29846     29846     29829     29850     29851
     29846     29829     29850     29852     29846     29829     29850     29853
     29847     29846     29829     29850     29847     29846     29848     29849
     29848     29846     29829     29850     29851     29850     29853     29854
     29852     29850     29853     29854     29855     29859     29857     29858
     29855     29859     29857     29873     29855     29859     29857     29877
     29855     29860     29862     29863     29855     29860     29862     29864
     29855     29860     29870     29871     29855     29860     29870     29872
     29855     29860     29870     29873     29856     29855     29859     29857
     29856     29855     29860     29861     29856     29855     29860     29862
     29856     29855     29860     29870     29857     29859     29855     29860
     29857     29873     29870     29860     29857     29873     29870     29871
     29857     29873     29870     29872     29857     29873     29875     29876
     29857     29877     29880     29881     29858     29857     29873     29870
     29858     29857     29873     29874     29858     29857     29873     29875
     29858     29857     29877     29878     29858     29857     29877     29879
     29858     29857     29877     29880     29859     29855     29860     29861
     29859     29855     29860     29862     29859     29855     29860     29870
     29859     29857     29873     29870     29859     29857     29873     29874
     29859     29857     29873     29875     29859     29857     29877     29878
     29859     29857     29877     29879     29859     29857     29877     29880
     29860     29862     29864     29865     29860     29862     29864     29866
     29860     29870     29872     29882     29860     29870     29873     29874
     29860     29870     29873     29875     29861     29860     29862     29863
     29861     29860     29862     29864     29861     29860     29870     29871
     29861     29860     29870     29872     29861     29860     29870     29873
     29862     29860     29870     29871     29862     29860     29870     29872
     29862     29860     29870     29873     29862     29864     29866     29867
     29862     29864     29866     29868     29862     29864     29866     29869
     29863     29862     29860     29870     29863     29862     29864     29865
     29863     29862     29864     29866     29864     29862     29860     29870
     29865     29864     29866     29867     29865     29864     29866     29868
     29865     29864     29866     29869     29870     29872     29882     29883
     29870     29872     29882     29886     29870     29872     29882     29887
     29870     29873     29857     29877     29870     29873     29875     29876
     29871     29870     29872     29882     29871     29870     29873     29874
     29871     29870     29873     29875     29872     29870     29873     29874
     29872     29870     29873     29875     29872     29882     29886     29884
     29872     29882     29887     29888     29872     29882     29887     29889
     29872     29882     29887     29890     29873     29857     29877     29878
     29873     29857     29877     29879     29873     29857     29877     29880
     29873     29870     29872     29882     29874     29873     29857     29877
     29874     29873     29875     29876     29875     29873     29857     29877
     29878     29877     29880     29881     29879     29877     29880     29881
     29882     29886     29884     29885     29882     29886     29884     29894
     29882     29886     29884     29898     29882     29887     29889     29903
     29882     29887     29890     29891     29882     29887     29890     29892
     29882     29887     29890     29894     29883     29882     29886     29884
     29883     29882     29887     29888     29883     29882     29887     29889
     29883     29882     29887     29890     29884     29886     29882     29887
     29884     29894     29890     29887     29884     29894     29890     29891
     29884     29894     29890     29892     29884     29894     29896     29897
     29884     29898     29901     29902     29885     29884     29894     29890
     29885     29884     29894     29895     29885     29884     29894     29896
     29885     29884     29898     29899     29885     29884     29898     29900
     29885     29884     29898     29901     29886     29882     29887     29888
     29886     29882     29887     29889     29886     29882     29887     29890
     29886     29884     29894     29890     29886     29884     29894     29895
     29886     29884     29894     29896     29886     29884     29898     29899
     29886     29884     29898     29900     29886     29884     29898     29901
     29887     29889     29903     29904     29887     29889     29903     29907
     29887     29889     29903     29908     29887     29890     29892     29893
     29887     29890     29894     29895     29887     29890     29894     29896
     29888     29887     29889     29903     29888     29887     29890     29891
     29888     29887     29890     29892     29888     29887     29890     29894
     29889     29887     29890     29891     29889     29887     29890     29892
     29889     29887     29890     29894     29889     29903     29907     29905
     29889     29903     29908     29909     29889     29903     29908     29910
     29889     29903     29908     29911     29890     29887     29889     29903
     29890     29894     29884     29898     29890     29894     29896     29897
     29891     29890     29892     29893     29891     29890     29894     29895
     29891     29890     29894     29896     29892     29890     29894     29895
     29892     29890     29894     29896     29893     29892     29890     29894
     29894     29884     29898     29899     29894     29884     29898     29900
     29894     29884     29898     29901     29895     29894     29884     29898
     29895     29894     29896     29897     29896     29894     29884     29898
     29899     29898     29901     29902     29900     29898     29901     29902
     29903     29907     29905     29906     29903     29907     29905     29915
     29903     29907     29905     29919     29903     29908     29910     29923
     29903     29908     29911     29912     29903     29908     29911     29913
     29903     29908     29911     29915     29904     29903     29907     29905
     29904     29903     29908     29909     29904     29903     29908     29910
     29904     29903     29908     29911     29905     29907     29903     29908
     29905     29915     29911     29908     29905     29915     29911     29912
     29905     29915     29911     29913     29905     29915     29917     29918
     29906     29905     29915     29911     29906     29905     29915     29916
     29906     29905     29915     29917     29906     29905     29919     29920
     29906     29905     29919     29921     29906     29905     29919     29922
     29907     29903     29908     29909     29907     29903     29908     29910
     29907     29903     29908     29911     29907     29905     29915     29911
     29907     29905     29915     29916     29907     29905     29915     29917
     29907     29905     29919     29920     29907     29905     29919     29921
     29907     29905     29919     29922     29908     29910     29923     29924
     29908     29910     29923     29927     29908     29910     29923     29928
     29908     29911     29913     29914     29908     29911     29915     29916
     29908     29911     29915     29917     29909     29908     29910     29923
     29909     29908     29911     29912     29909     29908     29911     29913
     29909     29908     29911     29915     29910     29908     29911     29912
     29910     29908     29911     29913     29910     29908     29911     29915
     29910     29923     29927     29925     29910     29923     29928     29929
     29910     29923     29928     29930     29910     29923     29928     29931
     29911     29908     29910     29923     29911     29915     29905     29919
     29911     29915     29917     29918     29912     29911     29913     29914
     29912     29911     29915     29916     29912     29911     29915     29917
     29913     29911     29915     29916     29913     29911     29915     29917
     29914     29913     29911     29915     29915     29905     29919     29920
     29915     29905     29919     29921     29915     29905     29919     29922
     29916     29915     29905     29919     29916     29915     29917     29918
     29917     29915     29905     29919     29923     29927     29925     29926
     29923     29927     29925     29935     29923     29927     29925     29939
     29923     29928     29930     29943     29923     29928     29931     29932
     29923     29928     29931     29933     29923     29928     29931     29935
     29924     29923     29927     29925     29924     29923     29928     29929
     29924     29923     29928     29930     29924     29923     29928     29931
     29925     29927     29923     29928     29925     29935     29931     29928
     29925     29935     29931     29932     29925     29935     29931     29933
     29925     29935     29937     29938     29926     29925     29935     29931
     29926     29925     29935     29936     29926     29925     29935     29937
     29926     29925     29939     29940     29926     29925     29939     29941
     29926     29925     29939     29942     29927     29923     29928     29929
     29927     29923     29928     29930     29927     29923     29928     29931
     29927     29925     29935     29931     29927     29925     29935     29936
     29927     29925     29935     29937     29927     29925     29939     29940
     29927     29925     29939     29941     29927     29925     29939     29942
     29928     29930     29943     29944     29928     29930     29943     29947
     29928     29930     29943     29948     29928     29931     29933     29934
     29928     29931     29935     29936     29928     29931     29935     29937
     29929     29928     29930     29943     29929     29928     29931     29932
     29929     29928     29931     29933     29929     29928     29931     29935
     29930     29928     29931     29932     29930     29928     29931     29933
     29930     29928     29931     29935     29930     29943     29947     29945
     29930     29943     29948     29949     29930     29943     29948     29950
     29930     29943     29948     29958     29931     29928     29930     29943
     29931     29935     29925     29939     29931     29935     29937     29938
     29932     29931     29933     29934     29932     29931     29935     29936
     29932     29931     29935     29937     29933     29931     29935     29936
     29933     29931     29935     29937     29934     29933     29931     29935
     29935     29925     29939     29940     29935     29925     29939     29941
     29935     29925     29939     29942     29936     29935     29925     29939
     29936     29935     29937     29938     29937     29935     29925     29939
     29943     29947     29945     29946     29943     29947     29945     29962
     29943     29947     29945     29966     29943     29948     29950     29951
     29943     29948     29950     29952     29943     29948     29958     29959
     29943     29948     29958     29960     29943     29948     29958     29962
     29944     29943     29947     29945     29944     29943     29948     29949
     29944     29943     29948     29950     29944     29943     29948     29958
     29945     29947     29943     29948     29945     29962     29958     29948
     29945     29962     29958     29959     29945     29962     29958     29960
     29945     29962     29964     29965     29945     29966     29969     29970
     29946     29945     29962     29958     29946     29945     29962     29963
     29946     29945     29962     29964     29946     29945     29966     29967
     29946     29945     29966     29968     29946     29945     29966     29969
     29947     29943     29948     29949     29947     29943     29948     29950
     29947     29943     29948     29958     29947     29945     29962     29958
     29947     29945     29962     29963     29947     29945     29962     29964
     29947     29945     29966     29967     29947     29945     29966     29968
     29947     29945     29966     29969     29948     29950     29952     29953
     29948     29950     29952     29954     29948     29958     29960     29961
     29948     29958     29962     29963     29948     29958     29962     29964
     29949     29948     29950     29951     29949     29948     29950     29952
     29949     29948     29958     29959     29949     29948     29958     29960
     29949     29948     29958     29962     29950     29948     29958     29959
     29950     29948     29958     29960     29950     29948     29958     29962
     29950     29952     29954     29955     29950     29952     29954     29956
     29950     29952     29954     29957     29951     29950     29948     29958
     29951     29950     29952     29953     29951     29950     29952     29954
     29952     29950     29948     29958     29953     29952     29954     29955
     29953     29952     29954     29956     29953     29952     29954     29957
     29958     29962     29945     29966     29958     29962     29964     29965
     29959     29958     29960     29961     29959     29958     29962     29963
     29959     29958     29962     29964     29960     29958     29962     29963
     29960     29958     29962     29964     29961     29960     29958     29962
     29962     29945     29966     29967     29962     29945     29966     29968
     29962     29945     29966     29969     29963     29962     29945     29966
     29963     29962     29964     29965     29964     29962     29945     29966
     29967     29966     29969     29970     29968     29966     29969     29970
     29971     29973     29972     30270     29971     29973     29975     29976
     29971     29973     29975     29977     29971     29973     29975     29984
     29972     29973     29975     29976     29972     29973     29975     29977
     29972     29973     29975     29984     29972     30270     30267     30268
     29972     30270     30267     30269     29972     30270     30273     30271
     29972     30270     30274     30275     29972     30270     30274     30276
     29972     30270     30274     30277     29973     29972     30270     30267
     29973     29972     30270     30273     29973     29972     30270     30274
     29973     29975     29976     29978     29973     29975     29984     29985
     29973     29975     29984     29986     29973     29975     29984     29991
     29974     29973     29972     30270     29974     29973     29975     29976
     29974     29973     29975     29977     29974     29973     29975     29984
     29975     29973     29972     30270     29975     29976     29978     29979
     29975     29976     29978     29980     29975     29976     29978     29999
     29975     29984     29986     29987     29975     29984     29991     29992
     29975     29984     29991     29993     29975     29984     29991     29999
     29976     29975     29984     29985     29976     29975     29984     29986
     29976     29975     29984     29991     29976     29978     29980     29981
     29976     29978     29999     29991     29976     29978     29999     30000
     29976     29978     29999     30001     29977     29975     29976     29978
     29977     29975     29984     29985     29977     29975     29984     29986
     29977     29975     29984     29991     29978     29976     29975     29984
     29978     29980     29981     29982     29978     29980     29981     29983
     29978     29980     29981     30007     29978     29999     29991     29984
     29978     29999     29991     29992     29978     29999     29991     29993
     29978     29999     30001     30002     29978     29999     30001     30108
     29979     29978     29980     29981     29979     29978     29999     29991
     29979     29978     29999     30000     29979     29978     29999     30001
     29980     29978     29999     29991     29980     29978     29999     30000
     29980     29978     29999     30001     29980     29981     30007     30003
     29980     29981     30007     30008     29980     29981     30007     30009
     29981     29980     29978     29999     29981     30007     30003     30004
     29981     30007     30003     30005     29981     30007     30003     30017
     29981     30007     30009     30010     29982     29981     30007     30003
     29982     29981     30007     30008     29982     29981     30007     30009
     29983     29981     30007     30003     29983     29981     30007     30008
     29983     29981     30007     30009     29984     29986     29987     29988
     29984     29986     29987     29989     29984     29986     29987     29990
     29984     29991     29992     29994     29984     29991     29999     30000
     29984     29991     29999     30001     29985     29984     29986     29987
     29985     29984     29991     29992     29985     29984     29991     29993
     29985     29984     29991     29999     29986     29984     29991     29992
     29986     29984     29991     29993     29986     29984     29991     29999
     29987     29986     29984     29991     29991     29992     29994     29995
     29991     29992     29994     29996     29991     29999     30001     30002
     29991     29999     30001     30108     29992     29991     29999     30000
     29992     29991     29999     30001     29992     29994     29996     29997
     29992     29994     29996     29998     29992     29994     29996     30029
     29993     29991     29992     29994     29993     29991     29999     30000
     29993     29991     29999     30001     29994     29992     29991     29999
     29994     29996     30029     30030     29994     29996     30029     30031
     29994     29996     30029     30074     29995     29994     29996     29997
     29995     29994     29996     29998     29995     29994     29996     30029
     29996     30029     30031     30032     29996     30029     30074     30075
     29996     30029     30074     30076     29996     30029     30074     30077
     29997     29996     30029     30030     29997     29996     30029     30031
     29997     29996     30029     30074     29998     29996     30029     30030
     29998     29996     30029     30031     29998     29996     30029     30074
     29999     30001     30108     30109     29999     30001     30108     30110
     30000     29999     30001     30002     30000     29999     30001     30108
     30001     30108     30110     30111     30001     30108     30110     30112
     30001     30108     30110     30113     30002     30001     30108     30109
     30002     30001     30108     30110     30003     30007     30009     30010
     30003     30017     30019     30020     30003     30017     30025     30010
     30003     30017     30025     30026     30003     30017     30025     30027
     30004     30003     30005     30006     30004     30003     30007     30008
     30004     30003     30007     30009     30004     30003     30017     30018
     30004     30003     30017     30019     30004     30003     30017     30025
     30005     30003     30007     30008     30005     30003     30007     30009
     30005     30003     30017     30018     30005     30003     30017     30019
     30005     30003     30017     30025     30006     30005     30003     30007
     30006     30005     30003     30017     30007     30003     30017     30018
     30007     30003     30017     30019     30007     30003     30017     30025
     30007     30009     30010     30011     30007     30009     30010     30012
     30007     30009     30010     30025     30008     30007     30003     30017
     30008     30007     30009     30010     30009     30007     30003     30017
     30009     30010     30012     30016     30009     30010     30025     30017
     30009     30010     30025     30026     30009     30010     30025     30027
     30010     30012     30016     30013     30010     30012     30016     30014
     30010     30012     30016     30015     30010     30025     30017     30018
     30010     30025     30017     30019     30010     30025     30027     30028
     30010     30025     30027     30224     30011     30010     30012     30016
     30011     30010     30025     30017     30011     30010     30025     30026
     30011     30010     30025     30027     30012     30010     30025     30017
     30012     30010     30025     30026     30012     30010     30025     30027
     30016     30012     30010     30025     30017     30019     30020     30021
     30017     30019     30020     30022     30017     30025     30027     30028
     30017     30025     30027     30224     30018     30017     30019     30020
     30018     30017     30025     30026     30018     30017     30025     30027
     30019     30017     30025     30026     30019     30017     30025     30027
     30019     30020     30022     30023     30019     30020     30022     30024
     30019     30020     30022     30186     30020     30019     30017     30025
     30020     30022     30186     30187     30020     30022     30186     30188
     30020     30022     30186     30190     30021     30020     30022     30023
     30021     30020     30022     30024     30021     30020     30022     30186
     30022     30186     30188     30189     30022     30186     30190     30191
     30022     30186     30190     30192     30022     30186     30190     30193
     30023     30022     30186     30187     30023     30022     30186     30188
     30023     30022     30186     30190     30024     30022     30186     30187
     30024     30022     30186     30188     30024     30022     30186     30190
     30025     30027     30224     30225     30025     30027     30224     30226
     30026     30025     30027     30028     30026     30025     30027     30224
     30027     30224     30226     30227     30027     30224     30226     30228
     30027     30224     30226     30229     30028     30027     30224     30225
     30028     30027     30224     30226     30029     30031     30032     30033
     30029     30031     30032     30034     30029     30074     30077     30078
     30029     30074     30077     30079     30029     30074     30077     30080
     30030     30029     30031     30032     30030     30029     30074     30075
     30030     30029     30074     30076     30030     30029     30074     30077
     30031     30029     30074     30075     30031     30029     30074     30076
     30031     30029     30074     30077     30031     30032     30034     30035
     30031     30032     30034     30036     30031     30032     30034     30037
     30032     30031     30029     30074     30032     30034     30037     30038
     30032     30034     30037     30039     30032     30034     30037     30040
     30033     30032     30034     30035     30033     30032     30034     30036
     30033     30032     30034     30037     30034     30037     30040     30041
     30034     30037     30040     30042     30034     30037     30040     30043
     30035     30034     30037     30038     30035     30034     30037     30039
     30035     30034     30037     30040     30036     30034     30037     30038
     30036     30034     30037     30039     30036     30034     30037     30040
     30037     30040     30043     30044     30037     30040     30043     30045
     30037     30040     30043     30046     30038     30037     30040     30041
     30038     30037     30040     30042     30038     30037     30040     30043
     30039     30037     30040     30041     30039     30037     30040     30042
     30039     30037     30040     30043     30040     30043     30046     30047
     30040     30043     30046     30048     30040     30043     30046     30049
     30041     30040     30043     30044     30041     30040     30043     30045
     30041     30040     30043     30046     30042     30040     30043     30044
     30042     30040     30043     30045     30042     30040     30043     30046
     30043     30046     30049     30050     30043     30046     30049     30051
     30043     30046     30049     30052     30044     30043     30046     30047
     30044     30043     30046     30048     30044     30043     30046     30049
     30045     30043     30046     30047     30045     30043     30046     30048
     30045     30043     30046     30049     30046     30049     30052     30053
     30046     30049     30052     30054     30046     30049     30052     30055
     30047     30046     30049     30050     30047     30046     30049     30051
     30047     30046     30049     30052     30048     30046     30049     30050
     30048     30046     30049     30051     30048     30046     30049     30052
     30049     30052     30055     30056     30049     30052     30055     30057
     30049     30052     30055     30058     30050     30049     30052     30053
     30050     30049     30052     30054     30050     30049     30052     30055
     30051     30049     30052     30053     30051     30049     30052     30054
     30051     30049     30052     30055     30052     30055     30058     30059
     30052     30055     30058     30060     30052     30055     30058     30061
     30053     30052     30055     30056     30053     30052     30055     30057
     30053     30052     30055     30058     30054     30052     30055     30056
     30054     30052     30055     30057     30054     30052     30055     30058
     30055     30058     30061     30062     30055     30058     30061     30063
     30055     30058     30061     30064     30056     30055     30058     30059
     30056     30055     30058     30060     30056     30055     30058     30061
     30057     30055     30058     30059     30057     30055     30058     30060
     30057     30055     30058     30061     30058     30061     30064     30065
     30058     30061     30064     30066     30058     30061     30064     30067
     30059     30058     30061     30062     30059     30058     30061     30063
     30059     30058     30061     30064     30060     30058     30061     30062
     30060     30058     30061     30063     30060     30058     30061     30064
     30061     30064     30067     30068     30061     30064     30067     30069
     30061     30064     30067     30070     30062     30061     30064     30065
     30062     30061     30064     30066     30062     30061     30064     30067
     30063     30061     30064     30065     30063     30061     30064     30066
     30063     30061     30064     30067     30064     30067     30070     30071
     30064     30067     30070     30072     30064     30067     30070     30073
     30065     30064     30067     30068     30065     30064     30067     30069
     30065     30064     30067     30070     30066     30064     30067     30068
     30066     30064     30067     30069     30066     30064     30067     30070
     30068     30067     30070     30071     30068     30067     30070     30072
     30068     30067     30070     30073     30069     30067     30070     30071
     30069     30067     30070     30072     30069     30067     30070     30073
     30074     30077     30080     30081     30074     30077     30080     30082
     30074     30077     30080     30083     30075     30074     30077     30078
     30075     30074     30077     30079     30075     30074     30077     30080
     30076     30074     30077     30078     30076     30074     30077     30079
     30076     30074     30077     30080     30077     30080     30083     30084
     30077     30080     30083     30085     30077     30080     30083     30086
     30078     30077     30080     30081     30078     30077     30080     30082
     30078     30077     30080     30083     30079     30077     30080     30081
     30079     30077     30080     30082     30079     30077     30080     30083
     30080     30083     30086     30087     30080     30083     30086     30088
     30080     30083     30086     30089     30081     30080     30083     30084
     30081     30080     30083     30085     30081     30080     30083     30086
     30082     30080     30083     30084     30082     30080     30083     30085
     30082     30080     30083     30086     30083     30086     30089     30090
     30083     30086     30089     30091     30083     30086     30089     30092
     30084     30083     30086     30087     30084     30083     30086     30088
     30084     30083     30086     30089     30085     30083     30086     30087
     30085     30083     30086     30088     30085     30083     30086     30089
     30086     30089     30092     30093     30086     30089     30092     30094
     30086     30089     30092     30095     30087     30086     30089     30090
     30087     30086     30089     30091     30087     30086     30089     30092
     30088     30086     30089     30090     30088     30086     30089     30091
     30088     30086     30089     30092     30089     30092     30095     30096
     30089     30092     30095     30097     30089     30092     30095     30098
     30090     30089     30092     30093     30090     30089     30092     30094
     30090     30089     30092     30095     30091     30089     30092     30093
     30091     30089     30092     30094     30091     30089     30092     30095
     30092     30095     30098     30099     30092     30095     30098     30100
     30092     30095     30098     30101     30093     30092     30095     30096
     30093     30092     30095     30097     30093     30092     30095     30098
     30094     30092     30095     30096     30094     30092     30095     30097
     30094     30092     30095     30098     30095     30098     30101     30102
     30095     30098     30101     30103     30095     30098     30101     30104
     30096     30095     30098     30099     30096     30095     30098     30100
     30096     30095     30098     30101     30097     30095     30098     30099
     30097     30095     30098     30100     30097     30095     30098     30101
     30098     30101     30104     30105     30098     30101     30104     30106
     30098     30101     30104     30107     30099     30098     30101     30102
     30099     30098     30101     30103     30099     30098     30101     30104
     30100     30098     30101     30102     30100     30098     30101     30103
     30100     30098     30101     30104     30102     30101     30104     30105
     30102     30101     30104     30106     30102     30101     30104     30107
     30103     30101     30104     30105     30103     30101     30104     30106
     30103     30101     30104     30107     30108     30110     30113     30114
     30108     30110     30113     30115     30108     30110     30113     30152
     30109     30108     30110     30111     30109     30108     30110     30112
     30109     30108     30110     30113     30110     30113     30115     30116
     30110     30113     30152     30153     30110     30113     30152     30154
     30110     30113     30152     30155     30111     30110     30113     30114
     30111     30110     30113     30115     30111     30110     30113     30152
     30112     30110     30113     30114     30112     30110     30113     30115
     30112     30110     30113     30152     30113     30115     30116     30117
     30113     30115     30116     30118     30113     30152     30155     30156
     30113     30152     30155     30157     30113     30152     30155     30158
     30114     30113     30115     30116     30114     30113     30152     30153
     30114     30113     30152     30154     30114     30113     30152     30155
     30115     30113     30152     30153     30115     30113     30152     30154
     30115     30113     30152     30155     30115     30116     30118     30119
     30115     30116     30118     30120     30115     30116     30118     30121
     30116     30115     30113     30152     30116     30118     30121     30122
     30116     30118     30121     30123     30116     30118     30121     30124
     30117     30116     30118     30119     30117     30116     30118     30120
     30117     30116     30118     30121     30118     30121     30124     30125
     30118     30121     30124     30126     30118     30121     30124     30127
     30119     30118     30121     30122     30119     30118     30121     30123
     30119     30118     30121     30124     30120     30118     30121     30122
     30120     30118     30121     30123     30120     30118     30121     30124
     30121     30124     30127     30128     30121     30124     30127     30129
     30121     30124     30127     30130     30122     30121     30124     30125
     30122     30121     30124     30126     30122     30121     30124     30127
     30123     30121     30124     30125     30123     30121     30124     30126
     30123     30121     30124     30127     30124     30127     30130     30131
     30124     30127     30130     30132     30124     30127     30130     30133
     30125     30124     30127     30128     30125     30124     30127     30129
     30125     30124     30127     30130     30126     30124     30127     30128
     30126     30124     30127     30129     30126     30124     30127     30130
     30127     30130     30133     30134     30127     30130     30133     30135
     30127     30130     30133     30136     30128     30127     30130     30131
     30128     30127     30130     30132     30128     30127     30130     30133
     30129     30127     30130     30131     30129     30127     30130     30132
     30129     30127     30130     30133     30130     30133     30136     30137
     30130     30133     30136     30138     30130     30133     30136     30139
     30131     30130     30133     30134     30131     30130     30133     30135
     30131     30130     30133     30136     30132     30130     30133     30134
     30132     30130     30133     30135     30132     30130     30133     30136
     30133     30136     30139     30140     30133     30136     30139     30141
     30133     30136     30139     30142     30134     30133     30136     30137
     30134     30133     30136     30138     30134     30133     30136     30139
     30135     30133     30136     30137     30135     30133     30136     30138
     30135     30133     30136     30139     30136     30139     30142     30143
     30136     30139     30142     30144     30136     30139     30142     30145
     30137     30136     30139     30140     30137     30136     30139     30141
     30137     30136     30139     30142     30138     30136     30139     30140
     30138     30136     30139     30141     30138     30136     30139     30142
     30139     30142     30145     30146     30139     30142     30145     30147
     30139     30142     30145     30148     30140     30139     30142     30143
     30140     30139     30142     30144     30140     30139     30142     30145
     30141     30139     30142     30143     30141     30139     30142     30144
     30141     30139     30142     30145     30142     30145     30148     30149
     30142     30145     30148     30150     30142     30145     30148     30151
     30143     30142     30145     30146     30143     30142     30145     30147
     30143     30142     30145     30148     30144     30142     30145     30146
     30144     30142     30145     30147     30144     30142     30145     30148
     30146     30145     30148     30149     30146     30145     30148     30150
     30146     30145     30148     30151     30147     30145     30148     30149
     30147     30145     30148     30150     30147     30145     30148     30151
     30152     30155     30158     30159     30152     30155     30158     30160
     30152     30155     30158     30161     30153     30152     30155     30156
     30153     30152     30155     30157     30153     30152     30155     30158
     30154     30152     30155     30156     30154     30152     30155     30157
     30154     30152     30155     30158     30155     30158     30161     30162
     30155     30158     30161     30163     30155     30158     30161     30164
     30156     30155     30158     30159     30156     30155     30158     30160
     30156     30155     30158     30161     30157     30155     30158     30159
     30157     30155     30158     30160     30157     30155     30158     30161
     30158     30161     30164     30165     30158     30161     30164     30166
     30158     30161     30164     30167     30159     30158     30161     30162
     30159     30158     30161     30163     30159     30158     30161     30164
     30160     30158     30161     30162     30160     30158     30161     30163
     30160     30158     30161     30164     30161     30164     30167     30168
     30161     30164     30167     30169     30161     30164     30167     30170
     30162     30161     30164     30165     30162     30161     30164     30166
     30162     30161     30164     30167     30163     30161     30164     30165
     30163     30161     30164     30166     30163     30161     30164     30167
     30164     30167     30170     30171     30164     30167     30170     30172
     30164     30167     30170     30173     30165     30164     30167     30168
     30165     30164     30167     30169     30165     30164     30167     30170
     30166     30164     30167     30168     30166     30164     30167     30169
     30166     30164     30167     30170     30167     30170     30173     30174
     30167     30170     30173     30175     30167     30170     30173     30176
     30168     30167     30170     30171     30168     30167     30170     30172
     30168     30167     30170     30173     30169     30167     30170     30171
     30169     30167     30170     30172     30169     30167     30170     30173
     30170     30173     30176     30177     30170     30173     30176     30178
     30170     30173     30176     30179     30171     30170     30173     30174
     30171     30170     30173     30175     30171     30170     30173     30176
     30172     30170     30173     30174     30172     30170     30173     30175
     30172     30170     30173     30176     30173     30176     30179     30180
     30173     30176     30179     30181     30173     30176     30179     30182
     30174     30173     30176     30177     30174     30173     30176     30178
     30174     30173     30176     30179     30175     30173     30176     30177
     30175     30173     30176     30178     30175     30173     30176     30179
     30176     30179     30182     30183     30176     30179     30182     30184
     30176     30179     30182     30185     30177     30176     30179     30180
     30177     30176     30179     30181     30177     30176     30179     30182
     30178     30176     30179     30180     30178     30176     30179     30181
     30178     30176     30179     30182     30180     30179     30182     30183
     30180     30179     30182     30184     30180     30179     30182     30185
     30181     30179     30182     30183     30181     30179     30182     30184
     30181     30179     30182     30185     30186     30190     30193     30194
     30186     30190     30193     30195     30186     30190     30193     30196
     30187     30186     30188     30189     30187     30186     30190     30191
     30187     30186     30190     30192     30187     30186     30190     30193
     30188     30186     30190     30191     30188     30186     30190     30192
     30188     30186     30190     30193     30189     30188     30186     30190
     30190     30193     30196     30197     30190     30193     30196     30198
     30190     30193     30196     30199     30191     30190     30193     30194
     30191     30190     30193     30195     30191     30190     30193     30196
     30192     30190     30193     30194     30192     30190     30193     30195
     30192     30190     30193     30196     30193     30196     30199     30200
     30193     30196     30199     30201     30193     30196     30199     30202
     30194     30193     30196     30197     30194     30193     30196     30198
     30194     30193     30196     30199     30195     30193     30196     30197
     30195     30193     30196     30198     30195     30193     30196     30199
     30196     30199     30202     30203     30196     30199     30202     30204
     30196     30199     30202     30205     30197     30196     30199     30200
     30197     30196     30199     30201     30197     30196     30199     30202
     30198     30196     30199     30200     30198     30196     30199     30201
     30198     30196     30199     30202     30199     30202     30205     30206
     30199     30202     30205     30207     30199     30202     30205     30208
     30200     30199     30202     30203     30200     30199     30202     30204
     30200     30199     30202     30205     30201     30199     30202     30203
     30201     30199     30202     30204     30201     30199     30202     30205
     30202     30205     30208     30209     30202     30205     30208     30210
     30202     30205     30208     30211     30203     30202     30205     30206
     30203     30202     30205     30207     30203     30202     30205     30208
     30204     30202     30205     30206     30204     30202     30205     30207
     30204     30202     30205     30208     30205     30208     30211     30212
     30205     30208     30211     30213     30205     30208     30211     30214
     30206     30205     30208     30209     30206     30205     30208     30210
     30206     30205     30208     30211     30207     30205     30208     30209
     30207     30205     30208     30210     30207     30205     30208     30211
     30208     30211     30214     30215     30208     30211     30214     30216
     30208     30211     30214     30217     30209     30208     30211     30212
     30209     30208     30211     30213     30209     30208     30211     30214
     30210     30208     30211     30212     30210     30208     30211     30213
     30210     30208     30211     30214     30211     30214     30217     30218
     30211     30214     30217     30219     30211     30214     30217     30220
     30212     30211     30214     30215     30212     30211     30214     30216
     30212     30211     30214     30217     30213     30211     30214     30215
     30213     30211     30214     30216     30213     30211     30214     30217
     30214     30217     30220     30221     30214     30217     30220     30222
     30214     30217     30220     30223     30215     30214     30217     30218
     30215     30214     30217     30219     30215     30214     30217     30220
     30216     30214     30217     30218     30216     30214     30217     30219
     30216     30214     30217     30220     30218     30217     30220     30221
     30218     30217     30220     30222     30218     30217     30220     30223
     30219     30217     30220     30221     30219     30217     30220     30222
     30219     30217     30220     30223     30224     30226     30229     30230
     30224     30226     30229     30231     30224     30226     30229     30233
     30225     30224     30226     30227     30225     30224     30226     30228
     30225     30224     30226     30229     30226     30229     30231     30232
     30226     30229     30233     30234     30226     30229     30233     30235
     30226     30229     30233     30236     30227     30226     30229     30230
     30227     30226     30229     30231     30227     30226     30229     30233
     30228     30226     30229     30230     30228     30226     30229     30231
     30228     30226     30229     30233     30229     30233     30236     30237
     30229     30233     30236     30238     30229     30233     30236     30239
     30230     30229     30231     30232     30230     30229     30233     30234
     30230     30229     30233     30235     30230     30229     30233     30236
     30231     30229     30233     30234     30231     30229     30233     30235
     30231     30229     30233     30236     30232     30231     30229     30233
     30233     30236     30239     30240     30233     30236     30239     30241
     30233     30236     30239     30242     30234     30233     30236     30237
     30234     30233     30236     30238     30234     30233     30236     30239
     30235     30233     30236     30237     30235     30233     30236     30238
     30235     30233     30236     30239     30236     30239     30242     30243
     30236     30239     30242     30244     30236     30239     30242     30245
     30237     30236     30239     30240     30237     30236     30239     30241
     30237     30236     30239     30242     30238     30236     30239     30240
     30238     30236     30239     30241     30238     30236     30239     30242
     30239     30242     30245     30246     30239     30242     30245     30247
     30239     30242     30245     30248     30240     30239     30242     30243
     30240     30239     30242     30244     30240     30239     30242     30245
     30241     30239     30242     30243     30241     30239     30242     30244
     30241     30239     30242     30245     30242     30245     30248     30249
     30242     30245     30248     30250     30242     30245     30248     30251
     30243     30242     30245     30246     30243     30242     30245     30247
     30243     30242     30245     30248     30244     30242     30245     30246
     30244     30242     30245     30247     30244     30242     30245     30248
     30245     30248     30251     30252     30245     30248     30251     30253
     30245     30248     30251     30254     30246     30245     30248     30249
     30246     30245     30248     30250     30246     30245     30248     30251
     30247     30245     30248     30249     30247     30245     30248     30250
     30247     30245     30248     30251     30248     30251     30254     30255
     30248     30251     30254     30256     30248     30251     30254     30257
     30249     30248     30251     30252     30249     30248     30251     30253
     30249     30248     30251     30254     30250     30248     30251     30252
     30250     30248     30251     30253     30250     30248     30251     30254
     30251     30254     30257     30258     30251     30254     30257     30259
     30251     30254     30257     30260     30252     30251     30254     30255
     30252     30251     30254     30256     30252     30251     30254     30257
     30253     30251     30254     30255     30253     30251     30254     30256
     30253     30251     30254     30257     30254     30257     30260     30261
     30254     30257     30260     30262     30254     30257     30260     30263
     30255     30254     30257     30258     30255     30254     30257     30259
     30255     30254     30257     30260     30256     30254     30257     30258
     30256     30254     30257     30259     30256     30254     30257     30260
     30257     30260     30263     30264     30257     30260     30263     30265
     30257     30260     30263     30266     30258     30257     30260     30261
     30258     30257     30260     30262     30258     30257     30260     30263
     30259     30257     30260     30261     30259     30257     30260     30262
     30259     30257     30260     30263     30261     30260     30263     30264
     30261     30260     30263     30265     30261     30260     30263     30266
     30262     30260     30263     30264     30262     30260     30263     30265
     30262     30260     30263     30266     30267     30270     30273     30271
     30267     30270     30274     30275     30267     30270     30274     30276
     30267     30270     30274     30277     30268     30267     30270     30273
     30268     30267     30270     30274     30269     30267     30270     30273
     30269     30267     30270     30274     30270     30273     30271     30272
     30270     30273     30271     30280     30270     30273     30271     30283
     30270     30274     30277     30278     30270     30274     30277     30279
     30270     30274     30277     30280     30271     30273     30270     30274
     30271     30280     30277     30274     30271     30280     30277     30278
     30271     30280     30277     30279     30271     30280     30282     30319
     30271     30283     30285     30286     30271     30283     30287     30288
     30271     30283     30287     30289     30271     30283     30287     30290
     30272     30271     30280     30277     30272     30271     30280     30281
     30272     30271     30280     30282     30272     30271     30283     30284
     30272     30271     30283     30285     30272     30271     30283     30287
     30273     30270     30274     30275     30273     30270     30274     30276
     30273     30270     30274     30277     30273     30271     30280     30277
     30273     30271     30280     30281     30273     30271     30280     30282
     30273     30271     30283     30284     30273     30271     30283     30285
     30273     30271     30283     30287     30274     30277     30279     30295
     30274     30277     30280     30281     30274     30277     30280     30282
     30275     30274     30277     30278     30275     30274     30277     30279
     30275     30274     30277     30280     30276     30274     30277     30278
     30276     30274     30277     30279     30276     30274     30277     30280
     30277     30279     30295     30292     30277     30279     30295     30298
     30277     30279     30295     30299     30277     30280     30271     30283
     30277     30280     30282     30319     30278     30277     30279     30295
     30278     30277     30280     30281     30278     30277     30280     30282
     30279     30277     30280     30281     30279     30277     30280     30282
     30279     30295     30292     30293     30279     30295     30292     30294
     30279     30295     30298     30296     30279     30295     30299     30300
     30279     30295     30299     30301     30279     30295     30299     30302
     30280     30271     30283     30284     30280     30271     30283     30285
     30280     30271     30283     30287     30280     30277     30279     30295
     30280     30282     30319     30320     30280     30282     30319     30323
     30280     30282     30319     30324     30281     30280     30271     30283
     30281     30280     30282     30319     30282     30280     30271     30283
     30282     30319     30323     30321     30282     30319     30324     30325
     30282     30319     30324     30326     30282     30319     30324     30328
     30283     30287     30290     30291     30284     30283     30285     30286
     30284     30283     30287     30288     30284     30283     30287     30289
     30284     30283     30287     30290     30285     30283     30287     30288
     30285     30283     30287     30289     30285     30283     30287     30290
     30286     30285     30283     30287     30288     30287     30290     30291
     30289     30287     30290     30291     30292     30295     30298     30296
     30292     30295     30299     30300     30292     30295     30299     30301
     30292     30295     30299     30302     30293     30292     30295     30298
     30293     30292     30295     30299     30294     30292     30295     30298
     30294     30292     30295     30299     30295     30298     30296     30297
     30295     30298     30296     30306     30295     30298     30296     30310
     30295     30299     30302     30303     30295     30299     30302     30304
     30295     30299     30302     30306     30296     30298     30295     30299
     30296     30306     30302     30299     30296     30306     30302     30303
     30296     30306     30302     30304     30296     30306     30308     30309
     30296     30310     30312     30313     30296     30310     30314     30315
     30296     30310     30314     30316     30296     30310     30314     30317
     30297     30296     30306     30302     30297     30296     30306     30307
     30297     30296     30306     30308     30297     30296     30310     30311
     30297     30296     30310     30312     30297     30296     30310     30314
     30298     30295     30299     30300     30298     30295     30299     30301
     30298     30295     30299     30302     30298     30296     30306     30302
     30298     30296     30306     30307     30298     30296     30306     30308
     30298     30296     30310     30311     30298     30296     30310     30312
     30298     30296     30310     30314     30299     30302     30304     30305
     30299     30302     30306     30307     30299     30302     30306     30308
     30300     30299     30302     30303     30300     30299     30302     30304
     30300     30299     30302     30306     30301     30299     30302     30303
     30301     30299     30302     30304     30301     30299     30302     30306
     30302     30306     30296     30310     30302     30306     30308     30309
     30303     30302     30304     30305     30303     30302     30306     30307
     30303     30302     30306     30308     30304     30302     30306     30307
     30304     30302     30306     30308     30305     30304     30302     30306
     30306     30296     30310     30311     30306     30296     30310     30312
     30306     30296     30310     30314     30307     30306     30296     30310
     30307     30306     30308     30309     30308     30306     30296     30310
     30310     30314     30317     30318     30311     30310     30312     30313
     30311     30310     30314     30315     30311     30310     30314     30316
     30311     30310     30314     30317     30312     30310     30314     30315
     30312     30310     30314     30316     30312     30310     30314     30317
     30313     30312     30310     30314     30315     30314     30317     30318
     30316     30314     30317     30318     30319     30323     30321     30322
     30319     30323     30321     30331     30319     30323     30321     30338
     30319     30324     30326     30327     30319     30324     30328     30329
     30319     30324     30328     30330     30319     30324     30328     30331
     30320     30319     30323     30321     30320     30319     30324     30325
     30320     30319     30324     30326     30320     30319     30324     30328
     30321     30323     30319     30324     30321     30331     30328     30324
     30321     30331     30328     30329     30321     30331     30328     30330
     30321     30331     30333     30334     30321     30338     30340     30341
     30321     30338     30342     30343     30321     30338     30342     30344
     30321     30338     30342     30345     30322     30321     30331     30328
     30322     30321     30331     30332     30322     30321     30331     30333
     30322     30321     30338     30339     30322     30321     30338     30340
     30322     30321     30338     30342     30323     30319     30324     30325
     30323     30319     30324     30326     30323     30319     30324     30328
     30323     30321     30331     30328     30323     30321     30331     30332
     30323     30321     30331     30333     30323     30321     30338     30339
     30323     30321     30338     30340     30323     30321     30338     30342
     30324     30328     30330     30347     30324     30328     30331     30332
     30324     30328     30331     30333     30325     30324     30326     30327
     30325     30324     30328     30329     30325     30324     30328     30330
     30325     30324     30328     30331     30326     30324     30328     30329
     30326     30324     30328     30330     30326     30324     30328     30331
     30327     30326     30324     30328     30328     30330     30347     30348
     30328     30330     30347     30351     30328     30330     30347     30352
     30328     30331     30321     30338     30328     30331     30333     30334
     30329     30328     30330     30347     30329     30328     30331     30332
     30329     30328     30331     30333     30330     30328     30331     30332
     30330     30328     30331     30333     30330     30347     30351     30349
     30330     30347     30352     30353     30330     30347     30352     30354
     30330     30347     30352     30356     30331     30321     30338     30339
     30331     30321     30338     30340     30331     30321     30338     30342
     30331     30328     30330     30347     30331     30333     30334     30335
     30331     30333     30334     30336     30331     30333     30334     30337
     30332     30331     30321     30338     30332     30331     30333     30334
     30333     30331     30321     30338     30338     30342     30345     30346
     30339     30338     30340     30341     30339     30338     30342     30343
     30339     30338     30342     30344     30339     30338     30342     30345
     30340     30338     30342     30343     30340     30338     30342     30344
     30340     30338     30342     30345     30341     30340     30338     30342
     30343     30342     30345     30346     30344     30342     30345     30346
     30347     30351     30349     30350     30347     30351     30349     30359
     30347     30351     30349     30366     30347     30352     30354     30355
     30347     30352     30356     30357     30347     30352     30356     30358
     30347     30352     30356     30359     30348     30347     30351     30349
     30348     30347     30352     30353     30348     30347     30352     30354
     30348     30347     30352     30356     30349     30351     30347     30352
     30349     30359     30356     30352     30349     30359     30356     30357
     30349     30359     30356     30358     30349     30359     30361     30362
     30349     30366     30368     30369     30349     30366     30370     30371
     30349     30366     30370     30372     30349     30366     30370     30373
     30350     30349     30359     30356     30350     30349     30359     30360
     30350     30349     30359     30361     30350     30349     30366     30367
     30350     30349     30366     30368     30350     30349     30366     30370
     30351     30347     30352     30353     30351     30347     30352     30354
     30351     30347     30352     30356     30351     30349     30359     30356
     30351     30349     30359     30360     30351     30349     30359     30361
     30351     30349     30366     30367     30351     30349     30366     30368
     30351     30349     30366     30370     30352     30356     30358     30400
     30352     30356     30359     30360     30352     30356     30359     30361
     30353     30352     30354     30355     30353     30352     30356     30357
     30353     30352     30356     30358     30353     30352     30356     30359
     30354     30352     30356     30357     30354     30352     30356     30358
     30354     30352     30356     30359     30355     30354     30352     30356
     30356     30358     30400     30401     30356     30358     30400     30404
     30356     30358     30400     30405     30356     30359     30349     30366
     30356     30359     30361     30362     30357     30356     30358     30400
     30357     30356     30359     30360     30357     30356     30359     30361
     30358     30356     30359     30360     30358     30356     30359     30361
     30358     30400     30404     30402     30358     30400     30405     30406
     30358     30400     30405     30407     30358     30400     30405     30409
     30359     30349     30366     30367     30359     30349     30366     30368
     30359     30349     30366     30370     30359     30356     30358     30400
     30359     30361     30362     30363     30359     30361     30362     30364
     30359     30361     30362     30365     30360     30359     30349     30366
     30360     30359     30361     30362     30361     30359     30349     30366
     30366     30370     30373     30374     30367     30366     30368     30369
     30367     30366     30370     30371     30367     30366     30370     30372
     30367     30366     30370     30373     30368     30366     30370     30371
     30368     30366     30370     30372     30368     30366     30370     30373
     30369     30368     30366     30370     30370     30373     30374     30375
     30370     30373     30374     30378     30370     30373     30374     30379
     30371     30370     30373     30374     30372     30370     30373     30374
     30373     30374     30378     30376     30373     30374     30379     30380
     30373     30374     30379     30381     30373     30374     30379     30383
     30374     30378     30376     30377     30374     30378     30376     30387
     30374     30378     30376     30391     30374     30379     30381     30382
     30374     30379     30383     30384     30374     30379     30383     30385
     30374     30379     30383     30387     30375     30374     30378     30376
     30375     30374     30379     30380     30375     30374     30379     30381
     30375     30374     30379     30383     30376     30378     30374     30379
     30376     30387     30383     30379     30376     30387     30383     30384
     30376     30387     30383     30385     30376     30387     30389     30390
     30376     30391     30393     30394     30376     30391     30395     30396
     30376     30391     30395     30397     30376     30391     30395     30398
     30377     30376     30387     30383     30377     30376     30387     30388
     30377     30376     30387     30389     30377     30376     30391     30392
     30377     30376     30391     30393     30377     30376     30391     30395
     30378     30374     30379     30380     30378     30374     30379     30381
     30378     30374     30379     30383     30378     30376     30387     30383
     30378     30376     30387     30388     30378     30376     30387     30389
     30378     30376     30391     30392     30378     30376     30391     30393
     30378     30376     30391     30395     30379     30383     30385     30386
     30379     30383     30387     30388     30379     30383     30387     30389
     30380     30379     30381     30382     30380     30379     30383     30384
     30380     30379     30383     30385     30380     30379     30383     30387
     30381     30379     30383     30384     30381     30379     30383     30385
     30381     30379     30383     30387     30382     30381     30379     30383
     30383     30387     30376     30391     30383     30387     30389     30390
     30384     30383     30385     30386     30384     30383     30387     30388
     30384     30383     30387     30389     30385     30383     30387     30388
     30385     30383     30387     30389     30386     30385     30383     30387
     30387     30376     30391     30392     30387     30376     30391     30393
     30387     30376     30391     30395     30388     30387     30376     30391
     30388     30387     30389     30390     30389     30387     30376     30391
     30391     30395     30398     30399     30392     30391     30393     30394
     30392     30391     30395     30396     30392     30391     30395     30397
     30392     30391     30395     30398     30393     30391     30395     30396
     30393     30391     30395     30397     30393     30391     30395     30398
     30394     30393     30391     30395     30396     30395     30398     30399
     30397     30395     30398     30399     30400     30404     30402     30403
     30400     30404     30402     30412     30400     30404     30402     30416
     30400     30405     30407     30408     30400     30405     30409     30410
     30400     30405     30409     30411     30400     30405     30409     30412
     30401     30400     30404     30402     30401     30400     30405     30406
     30401     30400     30405     30407     30401     30400     30405     30409
     30402     30404     30400     30405     30402     30412     30409     30405
     30402     30412     30409     30410     30402     30412     30409     30411
     30402     30412     30414     30415     30402     30416     30419     30420
     30403     30402     30412     30409     30403     30402     30412     30413
     30403     30402     30412     30414     30403     30402     30416     30417
     30403     30402     30416     30418     30403     30402     30416     30419
     30404     30400     30405     30406     30404     30400     30405     30407
     30404     30400     30405     30409     30404     30402     30412     30409
     30404     30402     30412     30413     30404     30402     30412     30414
     30404     30402     30416     30417     30404     30402     30416     30418
     30404     30402     30416     30419     30405     30409     30411     30421
     30405     30409     30412     30413     30405     30409     30412     30414
     30406     30405     30407     30408     30406     30405     30409     30410
     30406     30405     30409     30411     30406     30405     30409     30412
     30407     30405     30409     30410     30407     30405     30409     30411
     30407     30405     30409     30412     30408     30407     30405     30409
     30409     30411     30421     30422     30409     30411     30421     30425
     30409     30411     30421     30426     30409     30412     30402     30416
     30409     30412     30414     30415     30410     30409     30411     30421
     30410     30409     30412     30413     30410     30409     30412     30414
     30411     30409     30412     30413     30411     30409     30412     30414
     30411     30421     30425     30423     30411     30421     30426     30427
     30411     30421     30426     30428     30411     30421     30426     30429
     30412     30402     30416     30417     30412     30402     30416     30418
     30412     30402     30416     30419     30412     30409     30411     30421
     30413     30412     30402     30416     30413     30412     30414     30415
     30414     30412     30402     30416     30417     30416     30419     30420
     30418     30416     30419     30420     30421     30425     30423     30424
     30421     30425     30423     30432     30421     30425     30423     30436
     30421     30426     30428     30441     30421     30426     30429     30430
     30421     30426     30429     30431     30421     30426     30429     30432
     30422     30421     30425     30423     30422     30421     30426     30427
     30422     30421     30426     30428     30422     30421     30426     30429
     30423     30425     30421     30426     30423     30432     30429     30426
     30423     30432     30429     30430     30423     30432     30429     30431
     30423     30432     30434     30435     30423     30436     30439     30440
     30424     30423     30432     30429     30424     30423     30432     30433
     30424     30423     30432     30434     30424     30423     30436     30437
     30424     30423     30436     30438     30424     30423     30436     30439
     30425     30421     30426     30427     30425     30421     30426     30428
     30425     30421     30426     30429     30425     30423     30432     30429
     30425     30423     30432     30433     30425     30423     30432     30434
     30425     30423     30436     30437     30425     30423     30436     30438
     30425     30423     30436     30439     30426     30428     30441     30442
     30426     30428     30441     30445     30426     30428     30441     30446
     30426     30429     30431     30484     30426     30429     30432     30433
     30426     30429     30432     30434     30427     30426     30428     30441
     30427     30426     30429     30430     30427     30426     30429     30431
     30427     30426     30429     30432     30428     30426     30429     30430
     30428     30426     30429     30431     30428     30426     30429     30432
     30428     30441     30445     30443     30428     30441     30446     30447
     30428     30441     30446     30448     30428     30441     30446     30449
     30429     30426     30428     30441     30429     30431     30484     30485
     30429     30431     30484     30488     30429     30431     30484     30489
     30429     30432     30423     30436     30429     30432     30434     30435
     30430     30429     30431     30484     30430     30429     30432     30433
     30430     30429     30432     30434     30431     30429     30432     30433
     30431     30429     30432     30434     30431     30484     30488     30486
     30431     30484     30489     30490     30431     30484     30489     30491
     30431     30484     30489     30493     30432     30423     30436     30437
     30432     30423     30436     30438     30432     30423     30436     30439
     30432     30429     30431     30484     30433     30432     30423     30436
     30433     30432     30434     30435     30434     30432     30423     30436
     30437     30436     30439     30440     30438     30436     30439     30440
     30441     30445     30443     30444     30441     30445     30443     30453
     30441     30445     30443     30457     30441     30446     30448     30462
     30441     30446     30449     30450     30441     30446     30449     30451
     30441     30446     30449     30453     30442     30441     30445     30443
     30442     30441     30446     30447     30442     30441     30446     30448
     30442     30441     30446     30449     30443     30445     30441     30446
     30443     30453     30449     30446     30443     30453     30449     30450
     30443     30453     30449     30451     30443     30453     30455     30456
     30443     30457     30460     30461     30444     30443     30453     30449
     30444     30443     30453     30454     30444     30443     30453     30455
     30444     30443     30457     30458     30444     30443     30457     30459
     30444     30443     30457     30460     30445     30441     30446     30447
     30445     30441     30446     30448     30445     30441     30446     30449
     30445     30443     30453     30449     30445     30443     30453     30454
     30445     30443     30453     30455     30445     30443     30457     30458
     30445     30443     30457     30459     30445     30443     30457     30460
     30446     30448     30462     30463     30446     30448     30462     30466
     30446     30448     30462     30467     30446     30449     30451     30452
     30446     30449     30453     30454     30446     30449     30453     30455
     30447     30446     30448     30462     30447     30446     30449     30450
     30447     30446     30449     30451     30447     30446     30449     30453
     30448     30446     30449     30450     30448     30446     30449     30451
     30448     30446     30449     30453     30448     30462     30466     30464
     30448     30462     30467     30468     30448     30462     30467     30469
     30448     30462     30467     30471     30449     30446     30448     30462
     30449     30453     30443     30457     30449     30453     30455     30456
     30450     30449     30451     30452     30450     30449     30453     30454
     30450     30449     30453     30455     30451     30449     30453     30454
     30451     30449     30453     30455     30452     30451     30449     30453
     30453     30443     30457     30458     30453     30443     30457     30459
     30453     30443     30457     30460     30454     30453     30443     30457
     30454     30453     30455     30456     30455     30453     30443     30457
     30458     30457     30460     30461     30459     30457     30460     30461
     30462     30466     30464     30465     30462     30466     30464     30475
     30462     30466     30464     30479     30462     30467     30469     30470
     30462     30467     30471     30472     30462     30467     30471     30473
     30462     30467     30471     30475     30463     30462     30466     30464
     30463     30462     30467     30468     30463     30462     30467     30469
     30463     30462     30467     30471     30464     30466     30462     30467
     30464     30475     30471     30467     30464     30475     30471     30472
     30464     30475     30471     30473     30464     30475     30477     30478
     30464     30479     30482     30483     30465     30464     30475     30471
     30465     30464     30475     30476     30465     30464     30475     30477
     30465     30464     30479     30480     30465     30464     30479     30481
     30465     30464     30479     30482     30466     30462     30467     30468
     30466     30462     30467     30469     30466     30462     30467     30471
     30466     30464     30475     30471     30466     30464     30475     30476
     30466     30464     30475     30477     30466     30464     30479     30480
     30466     30464     30479     30481     30466     30464     30479     30482
     30467     30471     30473     30474     30467     30471     30475     30476
     30467     30471     30475     30477     30468     30467     30469     30470
     30468     30467     30471     30472     30468     30467     30471     30473
     30468     30467     30471     30475     30469     30467     30471     30472
     30469     30467     30471     30473     30469     30467     30471     30475
     30470     30469     30467     30471     30471     30475     30464     30479
     30471     30475     30477     30478     30472     30471     30473     30474
     30472     30471     30475     30476     30472     30471     30475     30477
     30473     30471     30475     30476     30473     30471     30475     30477
     30474     30473     30471     30475     30475     30464     30479     30480
     30475     30464     30479     30481     30475     30464     30479     30482
     30476     30475     30464     30479     30476     30475     30477     30478
     30477     30475     30464     30479     30480     30479     30482     30483
     30481     30479     30482     30483     30484     30488     30486     30487
     30484     30488     30486     30496     30484     30488     30486     30500
     30484     30489     30491     30492     30484     30489     30493     30494
     30484     30489     30493     30495     30484     30489     30493     30496
     30485     30484     30488     30486     30485     30484     30489     30490
     30485     30484     30489     30491     30485     30484     30489     30493
     30486     30488     30484     30489     30486     30496     30493     30489
     30486     30496     30493     30494     30486     30496     30493     30495
     30486     30496     30498     30499     30486     30500     30503     30504
     30487     30486     30496     30493     30487     30486     30496     30497
     30487     30486     30496     30498     30487     30486     30500     30501
     30487     30486     30500     30502     30487     30486     30500     30503
     30488     30484     30489     30490     30488     30484     30489     30491
     30488     30484     30489     30493     30488     30486     30496     30493
     30488     30486     30496     30497     30488     30486     30496     30498
     30488     30486     30500     30501     30488     30486     30500     30502
     30488     30486     30500     30503     30489     30493     30495     30505
     30489     30493     30496     30497     30489     30493     30496     30498
     30490     30489     30491     30492     30490     30489     30493     30494
     30490     30489     30493     30495     30490     30489     30493     30496
     30491     30489     30493     30494     30491     30489     30493     30495
     30491     30489     30493     30496     30492     30491     30489     30493
     30493     30495     30505     30506     30493     30495     30505     30509
     30493     30495     30505     30510     30493     30496     30486     30500
     30493     30496     30498     30499     30494     30493     30495     30505
     30494     30493     30496     30497     30494     30493     30496     30498
     30495     30493     30496     30497     30495     30493     30496     30498
     30495     30505     30509     30507     30495     30505     30510     30511
     30495     30505     30510     30512     30495     30505     30510     30520
     30496     30486     30500     30501     30496     30486     30500     30502
     30496     30486     30500     30503     30496     30493     30495     30505
     30497     30496     30486     30500     30497     30496     30498     30499
     30498     30496     30486     30500     30501     30500     30503     30504
     30502     30500     30503     30504     30505     30509     30507     30508
     30505     30509     30507     30523     30505     30509     30507     30527
     30505     30510     30512     30513     30505     30510     30512     30514
     30505     30510     30520     30521     30505     30510     30520     30522
     30505     30510     30520     30523     30506     30505     30509     30507
     30506     30505     30510     30511     30506     30505     30510     30512
     30506     30505     30510     30520     30507     30509     30505     30510
     30507     30523     30520     30510     30507     30523     30520     30521
     30507     30523     30520     30522     30507     30523     30525     30526
     30507     30527     30530     30531     30508     30507     30523     30520
     30508     30507     30523     30524     30508     30507     30523     30525
     30508     30507     30527     30528     30508     30507     30527     30529
     30508     30507     30527     30530     30509     30505     30510     30511
     30509     30505     30510     30512     30509     30505     30510     30520
     30509     30507     30523     30520     30509     30507     30523     30524
     30509     30507     30523     30525     30509     30507     30527     30528
     30509     30507     30527     30529     30509     30507     30527     30530
     30510     30512     30514     30515     30510     30512     30514     30516
     30510     30520     30522     30532     30510     30520     30523     30524
     30510     30520     30523     30525     30511     30510     30512     30513
     30511     30510     30512     30514     30511     30510     30520     30521
     30511     30510     30520     30522     30511     30510     30520     30523
     30512     30510     30520     30521     30512     30510     30520     30522
     30512     30510     30520     30523     30512     30514     30516     30517
     30512     30514     30516     30518     30512     30514     30516     30519
     30513     30512     30510     30520     30513     30512     30514     30515
     30513     30512     30514     30516     30514     30512     30510     30520
     30515     30514     30516     30517     30515     30514     30516     30518
     30515     30514     30516     30519     30520     30522     30532     30533
     30520     30522     30532     30536     30520     30522     30532     30537
     30520     30523     30507     30527     30520     30523     30525     30526
     30521     30520     30522     30532     30521     30520     30523     30524
     30521     30520     30523     30525     30522     30520     30523     30524
     30522     30520     30523     30525     30522     30532     30536     30534
     30522     30532     30537     30538     30522     30532     30537     30539
     30522     30532     30537     30540     30523     30507     30527     30528
     30523     30507     30527     30529     30523     30507     30527     30530
     30523     30520     30522     30532     30524     30523     30507     30527
     30524     30523     30525     30526     30525     30523     30507     30527
     30528     30527     30530     30531     30529     30527     30530     30531
     30532     30536     30534     30535     30532     30536     30534     30544
     30532     30536     30534     30548     30532     30537     30539     30553
     30532     30537     30540     30541     30532     30537     30540     30542
     30532     30537     30540     30544     30533     30532     30536     30534
     30533     30532     30537     30538     30533     30532     30537     30539
     30533     30532     30537     30540     30534     30536     30532     30537
     30534     30544     30540     30537     30534     30544     30540     30541
     30534     30544     30540     30542     30534     30544     30546     30547
     30534     30548     30551     30552     30535     30534     30544     30540
     30535     30534     30544     30545     30535     30534     30544     30546
     30535     30534     30548     30549     30535     30534     30548     30550
     30535     30534     30548     30551     30536     30532     30537     30538
     30536     30532     30537     30539     30536     30532     30537     30540
     30536     30534     30544     30540     30536     30534     30544     30545
     30536     30534     30544     30546     30536     30534     30548     30549
     30536     30534     30548     30550     30536     30534     30548     30551
     30537     30539     30553     30554     30537     30539     30553     30557
     30537     30539     30553     30558     30537     30540     30542     30543
     30537     30540     30544     30545     30537     30540     30544     30546
     30538     30537     30539     30553     30538     30537     30540     30541
     30538     30537     30540     30542     30538     30537     30540     30544
     30539     30537     30540     30541     30539     30537     30540     30542
     30539     30537     30540     30544     30539     30553     30557     30555
     30539     30553     30558     30559     30539     30553     30558     30560
     30539     30553     30558     30561     30540     30537     30539     30553
     30540     30544     30534     30548     30540     30544     30546     30547
     30541     30540     30542     30543     30541     30540     30544     30545
     30541     30540     30544     30546     30542     30540     30544     30545
     30542     30540     30544     30546     30543     30542     30540     30544
     30544     30534     30548     30549     30544     30534     30548     30550
     30544     30534     30548     30551     30545     30544     30534     30548
     30545     30544     30546     30547     30546     30544     30534     30548
     30549     30548     30551     30552     30550     30548     30551     30552
     30553     30557     30555     30556     30553     30557     30555     30565
     30553     30557     30555     30569     30553     30558     30560     30573
     30553     30558     30561     30562     30553     30558     30561     30563
     30553     30558     30561     30565     30554     30553     30557     30555
     30554     30553     30558     30559     30554     30553     30558     30560
     30554     30553     30558     30561     30555     30557     30553     30558
     30555     30565     30561     30558     30555     30565     30561     30562
     30555     30565     30561     30563     30555     30565     30567     30568
     30556     30555     30565     30561     30556     30555     30565     30566
     30556     30555     30565     30567     30556     30555     30569     30570
     30556     30555     30569     30571     30556     30555     30569     30572
     30557     30553     30558     30559     30557     30553     30558     30560
     30557     30553     30558     30561     30557     30555     30565     30561
     30557     30555     30565     30566     30557     30555     30565     30567
     30557     30555     30569     30570     30557     30555     30569     30571
     30557     30555     30569     30572     30558     30560     30573     30574
     30558     30560     30573     30577     30558     30560     30573     30578
     30558     30561     30563     30564     30558     30561     30565     30566
     30558     30561     30565     30567     30559     30558     30560     30573
     30559     30558     30561     30562     30559     30558     30561     30563
     30559     30558     30561     30565     30560     30558     30561     30562
     30560     30558     30561     30563     30560     30558     30561     30565
     30560     30573     30577     30575     30560     30573     30578     30579
     30560     30573     30578     30580     30560     30573     30578     30581
     30561     30558     30560     30573     30561     30565     30555     30569
     30561     30565     30567     30568     30562     30561     30563     30564
     30562     30561     30565     30566     30562     30561     30565     30567
     30563     30561     30565     30566     30563     30561     30565     30567
     30564     30563     30561     30565     30565     30555     30569     30570
     30565     30555     30569     30571     30565     30555     30569     30572
     30566     30565     30555     30569     30566     30565     30567     30568
     30567     30565     30555     30569     30573     30577     30575     30576
     30573     30577     30575     30584     30573     30577     30575     30588
     30573     30578     30580     30592     30573     30578     30581     30582
     30573     30578     30581     30583     30573     30578     30581     30584
     30574     30573     30577     30575     30574     30573     30578     30579
     30574     30573     30578     30580     30574     30573     30578     30581
     30575     30577     30573     30578     30575     30584     30581     30578
     30575     30584     30581     30582     30575     30584     30581     30583
     30575     30584     30586     30587     30576     30575     30584     30581
     30576     30575     30584     30585     30576     30575     30584     30586
     30576     30575     30588     30589     30576     30575     30588     30590
     30576     30575     30588     30591     30577     30573     30578     30579
     30577     30573     30578     30580     30577     30573     30578     30581
     30577     30575     30584     30581     30577     30575     30584     30585
     30577     30575     30584     30586     30577     30575     30588     30589
     30577     30575     30588     30590     30577     30575     30588     30591
     30578     30580     30592     30593     30578     30580     30592     30596
     30578     30580     30592     30597     30578     30581     30583     30620
     30578     30581     30584     30585     30578     30581     30584     30586
     30579     30578     30580     30592     30579     30578     30581     30582
     30579     30578     30581     30583     30579     30578     30581     30584
     30580     30578     30581     30582     30580     30578     30581     30583
     30580     30578     30581     30584     30580     30592     30596     30594
     30580     30592     30597     30598     30580     30592     30597     30599
     30580     30592     30597     30607     30581     30578     30580     30592
     30581     30583     30620     30621     30581     30583     30620     30624
     30581     30583     30620     30625     30581     30584     30575     30588
     30581     30584     30586     30587     30582     30581     30583     30620
     30582     30581     30584     30585     30582     30581     30584     30586
     30583     30581     30584     30585     30583     30581     30584     30586
     30583     30620     30624     30622     30583     30620     30625     30626
     30583     30620     30625     30627     30583     30620     30625     30635
     30584     30575     30588     30589     30584     30575     30588     30590
     30584     30575     30588     30591     30584     30581     30583     30620
     30585     30584     30575     30588     30585     30584     30586     30587
     30586     30584     30575     30588     30592     30596     30594     30595
     30592     30596     30594     30611     30592     30596     30594     30615
     30592     30597     30599     30600     30592     30597     30599     30601
     30592     30597     30607     30608     30592     30597     30607     30609
     30592     30597     30607     30611     30593     30592     30596     30594
     30593     30592     30597     30598     30593     30592     30597     30599
     30593     30592     30597     30607     30594     30596     30592     30597
     30594     30611     30607     30597     30594     30611     30607     30608
     30594     30611     30607     30609     30594     30611     30613     30614
     30594     30615     30618     30619     30595     30594     30611     30607
     30595     30594     30611     30612     30595     30594     30611     30613
     30595     30594     30615     30616     30595     30594     30615     30617
     30595     30594     30615     30618     30596     30592     30597     30598
     30596     30592     30597     30599     30596     30592     30597     30607
     30596     30594     30611     30607     30596     30594     30611     30612
     30596     30594     30611     30613     30596     30594     30615     30616
     30596     30594     30615     30617     30596     30594     30615     30618
     30597     30599     30601     30602     30597     30599     30601     30603
     30597     30607     30609     30610     30597     30607     30611     30612
     30597     30607     30611     30613     30598     30597     30599     30600
     30598     30597     30599     30601     30598     30597     30607     30608
     30598     30597     30607     30609     30598     30597     30607     30611
     30599     30597     30607     30608     30599     30597     30607     30609
     30599     30597     30607     30611     30599     30601     30603     30604
     30599     30601     30603     30605     30599     30601     30603     30606
     30600     30599     30597     30607     30600     30599     30601     30602
     30600     30599     30601     30603     30601     30599     30597     30607
     30602     30601     30603     30604     30602     30601     30603     30605
     30602     30601     30603     30606     30607     30611     30594     30615
     30607     30611     30613     30614     30608     30607     30609     30610
     30608     30607     30611     30612     30608     30607     30611     30613
     30609     30607     30611     30612     30609     30607     30611     30613
     30610     30609     30607     30611     30611     30594     30615     30616
     30611     30594     30615     30617     30611     30594     30615     30618
     30612     30611     30594     30615     30612     30611     30613     30614
     30613     30611     30594     30615     30616     30615     30618     30619
     30617     30615     30618     30619     30620     30624     30622     30623
     30620     30624     30622     30638     30620     30624     30622     30642
     30620     30625     30627     30628     30620     30625     30627     30629
     30620     30625     30635     30636     30620     30625     30635     30637
     30620     30625     30635     30638     30621     30620     30624     30622
     30621     30620     30625     30626     30621     30620     30625     30627
     30621     30620     30625     30635     30622     30624     30620     30625
     30622     30638     30635     30625     30622     30638     30635     30636
     30622     30638     30635     30637     30622     30638     30640     30641
     30622     30642     30645     30646     30623     30622     30638     30635
     30623     30622     30638     30639     30623     30622     30638     30640
     30623     30622     30642     30643     30623     30622     30642     30644
     30623     30622     30642     30645     30624     30620     30625     30626
     30624     30620     30625     30627     30624     30620     30625     30635
     30624     30622     30638     30635     30624     30622     30638     30639
     30624     30622     30638     30640     30624     30622     30642     30643
     30624     30622     30642     30644     30624     30622     30642     30645
     30625     30627     30629     30630     30625     30627     30629     30631
     30625     30635     30637     30647     30625     30635     30638     30639
     30625     30635     30638     30640     30626     30625     30627     30628
     30626     30625     30627     30629     30626     30625     30635     30636
     30626     30625     30635     30637     30626     30625     30635     30638
     30627     30625     30635     30636     30627     30625     30635     30637
     30627     30625     30635     30638     30627     30629     30631     30632
     30627     30629     30631     30633     30627     30629     30631     30634
     30628     30627     30625     30635     30628     30627     30629     30630
     30628     30627     30629     30631     30629     30627     30625     30635
     30630     30629     30631     30632     30630     30629     30631     30633
     30630     30629     30631     30634     30635     30637     30647     30648
     30635     30637     30647     30651     30635     30637     30647     30652
     30635     30638     30622     30642     30635     30638     30640     30641
     30636     30635     30637     30647     30636     30635     30638     30639
     30636     30635     30638     30640     30637     30635     30638     30639
     30637     30635     30638     30640     30637     30647     30651     30649
     30637     30647     30652     30653     30637     30647     30652     30654
     30637     30647     30652     30655     30638     30622     30642     30643
     30638     30622     30642     30644     30638     30622     30642     30645
     30638     30635     30637     30647     30639     30638     30622     30642
     30639     30638     30640     30641     30640     30638     30622     30642
     30643     30642     30645     30646     30644     30642     30645     30646
     30647     30651     30649     30650     30647     30651     30649     30659
     30647     30651     30649     30663     30647     30652     30654     30668
     30647     30652     30655     30656     30647     30652     30655     30657
     30647     30652     30655     30659     30648     30647     30651     30649
     30648     30647     30652     30653     30648     30647     30652     30654
     30648     30647     30652     30655     30649     30651     30647     30652
     30649     30659     30655     30652     30649     30659     30655     30656
     30649     30659     30655     30657     30649     30659     30661     30662
     30649     30663     30666     30667     30650     30649     30659     30655
     30650     30649     30659     30660     30650     30649     30659     30661
     30650     30649     30663     30664     30650     30649     30663     30665
     30650     30649     30663     30666     30651     30647     30652     30653
     30651     30647     30652     30654     30651     30647     30652     30655
     30651     30649     30659     30655     30651     30649     30659     30660
     30651     30649     30659     30661     30651     30649     30663     30664
     30651     30649     30663     30665     30651     30649     30663     30666
     30652     30654     30668     30669     30652     30654     30668     30672
     30652     30654     30668     30673     30652     30655     30657     30658
     30652     30655     30659     30660     30652     30655     30659     30661
     30653     30652     30654     30668     30653     30652     30655     30656
     30653     30652     30655     30657     30653     30652     30655     30659
     30654     30652     30655     30656     30654     30652     30655     30657
     30654     30652     30655     30659     30654     30668     30672     30670
     30654     30668     30673     30674     30654     30668     30673     30675
     30654     30668     30673     30676     30655     30652     30654     30668
     30655     30659     30649     30663     30655     30659     30661     30662
     30656     30655     30657     30658     30656     30655     30659     30660
     30656     30655     30659     30661     30657     30655     30659     30660
     30657     30655     30659     30661     30658     30657     30655     30659
     30659     30649     30663     30664     30659     30649     30663     30665
     30659     30649     30663     30666     30660     30659     30649     30663
     30660     30659     30661     30662     30661     30659     30649     30663
     30664     30663     30666     30667     30665     30663     30666     30667
     30668     30672     30670     30671     30668     30672     30670     30680
     30668     30672     30670     30684     30668     30673     30675     30688
     30668     30673     30676     30677     30668     30673     30676     30678
     30668     30673     30676     30680     30669     30668     30672     30670
     30669     30668     30673     30674     30669     30668     30673     30675
     30669     30668     30673     30676     30670     30672     30668     30673
     30670     30680     30676     30673     30670     30680     30676     30677
     30670     30680     30676     30678     30670     30680     30682     30683
     30671     30670     30680     30676     30671     30670     30680     30681
     30671     30670     30680     30682     30671     30670     30684     30685
     30671     30670     30684     30686     30671     30670     30684     30687
     30672     30668     30673     30674     30672     30668     30673     30675
     30672     30668     30673     30676     30672     30670     30680     30676
     30672     30670     30680     30681     30672     30670     30680     30682
     30672     30670     30684     30685     30672     30670     30684     30686
     30672     30670     30684     30687     30673     30675     30688     30689
     30673     30675     30688     30692     30673     30675     30688     30693
     30673     30676     30678     30679     30673     30676     30680     30681
     30673     30676     30680     30682     30674     30673     30675     30688
     30674     30673     30676     30677     30674     30673     30676     30678
     30674     30673     30676     30680     30675     30673     30676     30677
     30675     30673     30676     30678     30675     30673     30676     30680
     30675     30688     30692     30690     30675     30688     30693     30694
     30675     30688     30693     30695     30675     30688     30693     30696
     30676     30673     30675     30688     30676     30680     30670     30684
     30676     30680     30682     30683     30677     30676     30678     30679
     30677     30676     30680     30681     30677     30676     30680     30682
     30678     30676     30680     30681     30678     30676     30680     30682
     30679     30678     30676     30680     30680     30670     30684     30685
     30680     30670     30684     30686     30680     30670     30684     30687
     30681     30680     30670     30684     30681     30680     30682     30683
     30682     30680     30670     30684     30688     30692     30690     30691
     30688     30692     30690     30699     30688     30692     30690     30703
     30688     30693     30695     30707     30688     30693     30696     30697
     30688     30693     30696     30698     30688     30693     30696     30699
     30689     30688     30692     30690     30689     30688     30693     30694
     30689     30688     30693     30695     30689     30688     30693     30696
     30690     30692     30688     30693     30690     30699     30696     30693
     30690     30699     30696     30697     30690     30699     30696     30698
     30690     30699     30701     30702     30691     30690     30699     30696
     30691     30690     30699     30700     30691     30690     30699     30701
     30691     30690     30703     30704     30691     30690     30703     30705
     30691     30690     30703     30706     30692     30688     30693     30694
     30692     30688     30693     30695     30692     30688     30693     30696
     30692     30690     30699     30696     30692     30690     30699     30700
     30692     30690     30699     30701     30692     30690     30703     30704
     30692     30690     30703     30705     30692     30690     30703     30706
     30693     30695     30707     30708     30693     30695     30707     30711
     30693     30695     30707     30712     30693     30696     30698     30735
     30693     30696     30699     30700     30693     30696     30699     30701
     30694     30693     30695     30707     30694     30693     30696     30697
     30694     30693     30696     30698     30694     30693     30696     30699
     30695     30693     30696     30697     30695     30693     30696     30698
     30695     30693     30696     30699     30695     30707     30711     30709
     30695     30707     30712     30713     30695     30707     30712     30714
     30695     30707     30712     30722     30696     30693     30695     30707
     30696     30698     30735     30736     30696     30698     30735     30739
     30696     30698     30735     30740     30696     30699     30690     30703
     30696     30699     30701     30702     30697     30696     30698     30735
     30697     30696     30699     30700     30697     30696     30699     30701
     30698     30696     30699     30700     30698     30696     30699     30701
     30698     30735     30739     30737     30698     30735     30740     30741
     30698     30735     30740     30742     30698     30735     30740     30750
     30699     30690     30703     30704     30699     30690     30703     30705
     30699     30690     30703     30706     30699     30696     30698     30735
     30700     30699     30690     30703     30700     30699     30701     30702
     30701     30699     30690     30703     30707     30711     30709     30710
     30707     30711     30709     30726     30707     30711     30709     30730
     30707     30712     30714     30715     30707     30712     30714     30716
     30707     30712     30722     30723     30707     30712     30722     30724
     30707     30712     30722     30726     30708     30707     30711     30709
     30708     30707     30712     30713     30708     30707     30712     30714
     30708     30707     30712     30722     30709     30711     30707     30712
     30709     30726     30722     30712     30709     30726     30722     30723
     30709     30726     30722     30724     30709     30726     30728     30729
     30709     30730     30733     30734     30710     30709     30726     30722
     30710     30709     30726     30727     30710     30709     30726     30728
     30710     30709     30730     30731     30710     30709     30730     30732
     30710     30709     30730     30733     30711     30707     30712     30713
     30711     30707     30712     30714     30711     30707     30712     30722
     30711     30709     30726     30722     30711     30709     30726     30727
     30711     30709     30726     30728     30711     30709     30730     30731
     30711     30709     30730     30732     30711     30709     30730     30733
     30712     30714     30716     30717     30712     30714     30716     30718
     30712     30722     30724     30725     30712     30722     30726     30727
     30712     30722     30726     30728     30713     30712     30714     30715
     30713     30712     30714     30716     30713     30712     30722     30723
     30713     30712     30722     30724     30713     30712     30722     30726
     30714     30712     30722     30723     30714     30712     30722     30724
     30714     30712     30722     30726     30714     30716     30718     30719
     30714     30716     30718     30720     30714     30716     30718     30721
     30715     30714     30712     30722     30715     30714     30716     30717
     30715     30714     30716     30718     30716     30714     30712     30722
     30717     30716     30718     30719     30717     30716     30718     30720
     30717     30716     30718     30721     30722     30726     30709     30730
     30722     30726     30728     30729     30723     30722     30724     30725
     30723     30722     30726     30727     30723     30722     30726     30728
     30724     30722     30726     30727     30724     30722     30726     30728
     30725     30724     30722     30726     30726     30709     30730     30731
     30726     30709     30730     30732     30726     30709     30730     30733
     30727     30726     30709     30730     30727     30726     30728     30729
     30728     30726     30709     30730     30731     30730     30733     30734
     30732     30730     30733     30734     30735     30739     30737     30738
     30735     30739     30737     30753     30735     30739     30737     30757
     30735     30740     30742     30743     30735     30740     30742     30744
     30735     30740     30750     30751     30735     30740     30750     30752
     30735     30740     30750     30753     30736     30735     30739     30737
     30736     30735     30740     30741     30736     30735     30740     30742
     30736     30735     30740     30750     30737     30739     30735     30740
     30737     30753     30750     30740     30737     30753     30750     30751
     30737     30753     30750     30752     30737     30753     30755     30756
     30737     30757     30760     30761     30738     30737     30753     30750
     30738     30737     30753     30754     30738     30737     30753     30755
     30738     30737     30757     30758     30738     30737     30757     30759
     30738     30737     30757     30760     30739     30735     30740     30741
     30739     30735     30740     30742     30739     30735     30740     30750
     30739     30737     30753     30750     30739     30737     30753     30754
     30739     30737     30753     30755     30739     30737     30757     30758
     30739     30737     30757     30759     30739     30737     30757     30760
     30740     30742     30744     30745     30740     30742     30744     30746
     30740     30750     30752     30762     30740     30750     30753     30754
     30740     30750     30753     30755     30741     30740     30742     30743
     30741     30740     30742     30744     30741     30740     30750     30751
     30741     30740     30750     30752     30741     30740     30750     30753
     30742     30740     30750     30751     30742     30740     30750     30752
     30742     30740     30750     30753     30742     30744     30746     30747
     30742     30744     30746     30748     30742     30744     30746     30749
     30743     30742     30740     30750     30743     30742     30744     30745
     30743     30742     30744     30746     30744     30742     30740     30750
     30745     30744     30746     30747     30745     30744     30746     30748
     30745     30744     30746     30749     30750     30752     30762     30763
     30750     30752     30762     30766     30750     30752     30762     30767
     30750     30753     30737     30757     30750     30753     30755     30756
     30751     30750     30752     30762     30751     30750     30753     30754
     30751     30750     30753     30755     30752     30750     30753     30754
     30752     30750     30753     30755     30752     30762     30766     30764
     30752     30762     30767     30768     30752     30762     30767     30769
     30752     30762     30767     30770     30753     30737     30757     30758
     30753     30737     30757     30759     30753     30737     30757     30760
     30753     30750     30752     30762     30754     30753     30737     30757
     30754     30753     30755     30756     30755     30753     30737     30757
     30758     30757     30760     30761     30759     30757     30760     30761
     30762     30766     30764     30765     30762     30766     30764     30774
     30762     30766     30764     30778     30762     30767     30769     30783
     30762     30767     30770     30771     30762     30767     30770     30772
     30762     30767     30770     30774     30763     30762     30766     30764
     30763     30762     30767     30768     30763     30762     30767     30769
     30763     30762     30767     30770     30764     30766     30762     30767
     30764     30774     30770     30767     30764     30774     30770     30771
     30764     30774     30770     30772     30764     30774     30776     30777
     30764     30778     30781     30782     30765     30764     30774     30770
     30765     30764     30774     30775     30765     30764     30774     30776
     30765     30764     30778     30779     30765     30764     30778     30780
     30765     30764     30778     30781     30766     30762     30767     30768
     30766     30762     30767     30769     30766     30762     30767     30770
     30766     30764     30774     30770     30766     30764     30774     30775
     30766     30764     30774     30776     30766     30764     30778     30779
     30766     30764     30778     30780     30766     30764     30778     30781
     30767     30769     30783     30784     30767     30769     30783     30787
     30767     30769     30783     30788     30767     30770     30772     30773
     30767     30770     30774     30775     30767     30770     30774     30776
     30768     30767     30769     30783     30768     30767     30770     30771
     30768     30767     30770     30772     30768     30767     30770     30774
     30769     30767     30770     30771     30769     30767     30770     30772
     30769     30767     30770     30774     30769     30783     30787     30785
     30769     30783     30788     30789     30769     30783     30788     30790
     30769     30783     30788     30791     30770     30767     30769     30783
     30770     30774     30764     30778     30770     30774     30776     30777
     30771     30770     30772     30773     30771     30770     30774     30775
     30771     30770     30774     30776     30772     30770     30774     30775
     30772     30770     30774     30776     30773     30772     30770     30774
     30774     30764     30778     30779     30774     30764     30778     30780
     30774     30764     30778     30781     30775     30774     30764     30778
     30775     30774     30776     30777     30776     30774     30764     30778
     30779     30778     30781     30782     30780     30778     30781     30782
     30783     30787     30785     30786     30783     30787     30785     30795
     30783     30787     30785     30799     30783     30788     30790     30803
     30783     30788     30791     30792     30783     30788     30791     30793
     30783     30788     30791     30795     30784     30783     30787     30785
     30784     30783     30788     30789     30784     30783     30788     30790
     30784     30783     30788     30791     30785     30787     30783     30788
     30785     30795     30791     30788     30785     30795     30791     30792
     30785     30795     30791     30793     30785     30795     30797     30798
     30786     30785     30795     30791     30786     30785     30795     30796
     30786     30785     30795     30797     30786     30785     30799     30800
     30786     30785     30799     30801     30786     30785     30799     30802
     30787     30783     30788     30789     30787     30783     30788     30790
     30787     30783     30788     30791     30787     30785     30795     30791
     30787     30785     30795     30796     30787     30785     30795     30797
     30787     30785     30799     30800     30787     30785     30799     30801
     30787     30785     30799     30802     30788     30790     30803     30804
     30788     30790     30803     30807     30788     30790     30803     30808
     30788     30791     30793     30794     30788     30791     30795     30796
     30788     30791     30795     30797     30789     30788     30790     30803
     30789     30788     30791     30792     30789     30788     30791     30793
     30789     30788     30791     30795     30790     30788     30791     30792
     30790     30788     30791     30793     30790     30788     30791     30795
     30790     30803     30807     30805     30790     30803     30808     30809
     30790     30803     30808     30810     30790     30803     30808     30811
     30791     30788     30790     30803     30791     30795     30785     30799
     30791     30795     30797     30798     30792     30791     30793     30794
     30792     30791     30795     30796     30792     30791     30795     30797
     30793     30791     30795     30796     30793     30791     30795     30797
     30794     30793     30791     30795     30795     30785     30799     30800
     30795     30785     30799     30801     30795     30785     30799     30802
     30796     30795     30785     30799     30796     30795     30797     30798
     30797     30795     30785     30799     30803     30807     30805     30806
     30803     30807     30805     30814     30803     30807     30805     30818
     30803     30808     30810     30822     30803     30808     30811     30812
     30803     30808     30811     30813     30803     30808     30811     30814
     30804     30803     30807     30805     30804     30803     30808     30809
     30804     30803     30808     30810     30804     30803     30808     30811
     30805     30807     30803     30808     30805     30814     30811     30808
     30805     30814     30811     30812     30805     30814     30811     30813
     30805     30814     30816     30817     30806     30805     30814     30811
     30806     30805     30814     30815     30806     30805     30814     30816
     30806     30805     30818     30819     30806     30805     30818     30820
     30806     30805     30818     30821     30807     30803     30808     30809
     30807     30803     30808     30810     30807     30803     30808     30811
     30807     30805     30814     30811     30807     30805     30814     30815
     30807     30805     30814     30816     30807     30805     30818     30819
     30807     30805     30818     30820     30807     30805     30818     30821
     30808     30810     30822     30823     30808     30810     30822     30826
     30808     30810     30822     30827     30808     30811     30813     30850
     30808     30811     30814     30815     30808     30811     30814     30816
     30809     30808     30810     30822     30809     30808     30811     30812
     30809     30808     30811     30813     30809     30808     30811     30814
     30810     30808     30811     30812     30810     30808     30811     30813
     30810     30808     30811     30814     30810     30822     30826     30824
     30810     30822     30827     30828     30810     30822     30827     30829
     30810     30822     30827     30837     30811     30808     30810     30822
     30811     30813     30850     30851     30811     30813     30850     30854
     30811     30813     30850     30855     30811     30814     30805     30818
     30811     30814     30816     30817     30812     30811     30813     30850
     30812     30811     30814     30815     30812     30811     30814     30816
     30813     30811     30814     30815     30813     30811     30814     30816
     30813     30850     30854     30852     30813     30850     30855     30856
     30813     30850     30855     30857     30813     30850     30855     30865
     30814     30805     30818     30819     30814     30805     30818     30820
     30814     30805     30818     30821     30814     30811     30813     30850
     30815     30814     30805     30818     30815     30814     30816     30817
     30816     30814     30805     30818     30822     30826     30824     30825
     30822     30826     30824     30841     30822     30826     30824     30845
     30822     30827     30829     30830     30822     30827     30829     30831
     30822     30827     30837     30838     30822     30827     30837     30839
     30822     30827     30837     30841     30823     30822     30826     30824
     30823     30822     30827     30828     30823     30822     30827     30829
     30823     30822     30827     30837     30824     30826     30822     30827
     30824     30841     30837     30827     30824     30841     30837     30838
     30824     30841     30837     30839     30824     30841     30843     30844
     30824     30845     30848     30849     30825     30824     30841     30837
     30825     30824     30841     30842     30825     30824     30841     30843
     30825     30824     30845     30846     30825     30824     30845     30847
     30825     30824     30845     30848     30826     30822     30827     30828
     30826     30822     30827     30829     30826     30822     30827     30837
     30826     30824     30841     30837     30826     30824     30841     30842
     30826     30824     30841     30843     30826     30824     30845     30846
     30826     30824     30845     30847     30826     30824     30845     30848
     30827     30829     30831     30832     30827     30829     30831     30833
     30827     30837     30839     30840     30827     30837     30841     30842
     30827     30837     30841     30843     30828     30827     30829     30830
     30828     30827     30829     30831     30828     30827     30837     30838
     30828     30827     30837     30839     30828     30827     30837     30841
     30829     30827     30837     30838     30829     30827     30837     30839
     30829     30827     30837     30841     30829     30831     30833     30834
     30829     30831     30833     30835     30829     30831     30833     30836
     30830     30829     30827     30837     30830     30829     30831     30832
     30830     30829     30831     30833     30831     30829     30827     30837
     30832     30831     30833     30834     30832     30831     30833     30835
     30832     30831     30833     30836     30837     30841     30824     30845
     30837     30841     30843     30844     30838     30837     30839     30840
     30838     30837     30841     30842     30838     30837     30841     30843
     30839     30837     30841     30842     30839     30837     30841     30843
     30840     30839     30837     30841     30841     30824     30845     30846
     30841     30824     30845     30847     30841     30824     30845     30848
     30842     30841     30824     30845     30842     30841     30843     30844
     30843     30841     30824     30845     30846     30845     30848     30849
     30847     30845     30848     30849     30850     30854     30852     30853
     30850     30854     30852     30868     30850     30854     30852     30872
     30850     30855     30857     30858     30850     30855     30857     30859
     30850     30855     30865     30866     30850     30855     30865     30867
     30850     30855     30865     30868     30851     30850     30854     30852
     30851     30850     30855     30856     30851     30850     30855     30857
     30851     30850     30855     30865     30852     30854     30850     30855
     30852     30868     30865     30855     30852     30868     30865     30866
     30852     30868     30865     30867     30852     30868     30870     30871
     30852     30872     30875     30876     30853     30852     30868     30865
     30853     30852     30868     30869     30853     30852     30868     30870
     30853     30852     30872     30873     30853     30852     30872     30874
     30853     30852     30872     30875     30854     30850     30855     30856
     30854     30850     30855     30857     30854     30850     30855     30865
     30854     30852     30868     30865     30854     30852     30868     30869
     30854     30852     30868     30870     30854     30852     30872     30873
     30854     30852     30872     30874     30854     30852     30872     30875
     30855     30857     30859     30860     30855     30857     30859     30861
     30855     30865     30867     30877     30855     30865     30868     30869
     30855     30865     30868     30870     30856     30855     30857     30858
     30856     30855     30857     30859     30856     30855     30865     30866
     30856     30855     30865     30867     30856     30855     30865     30868
     30857     30855     30865     30866     30857     30855     30865     30867
     30857     30855     30865     30868     30857     30859     30861     30862
     30857     30859     30861     30863     30857     30859     30861     30864
     30858     30857     30855     30865     30858     30857     30859     30860
     30858     30857     30859     30861     30859     30857     30855     30865
     30860     30859     30861     30862     30860     30859     30861     30863
     30860     30859     30861     30864     30865     30867     30877     30878
     30865     30867     30877     30881     30865     30867     30877     30882
     30865     30868     30852     30872     30865     30868     30870     30871
     30866     30865     30867     30877     30866     30865     30868     30869
     30866     30865     30868     30870     30867     30865     30868     30869
     30867     30865     30868     30870     30867     30877     30881     30879
     30867     30877     30882     30883     30867     30877     30882     30884
     30867     30877     30882     30885     30868     30852     30872     30873
     30868     30852     30872     30874     30868     30852     30872     30875
     30868     30865     30867     30877     30869     30868     30852     30872
     30869     30868     30870     30871     30870     30868     30852     30872
     30873     30872     30875     30876     30874     30872     30875     30876
     30877     30881     30879     30880     30877     30881     30879     30889
     30877     30881     30879     30893     30877     30882     30884     30898
     30877     30882     30885     30886     30877     30882     30885     30887
     30877     30882     30885     30889     30878     30877     30881     30879
     30878     30877     30882     30883     30878     30877     30882     30884
     30878     30877     30882     30885     30879     30881     30877     30882
     30879     30889     30885     30882     30879     30889     30885     30886
     30879     30889     30885     30887     30879     30889     30891     30892
     30879     30893     30896     30897     30880     30879     30889     30885
     30880     30879     30889     30890     30880     30879     30889     30891
     30880     30879     30893     30894     30880     30879     30893     30895
     30880     30879     30893     30896     30881     30877     30882     30883
     30881     30877     30882     30884     30881     30877     30882     30885
     30881     30879     30889     30885     30881     30879     30889     30890
     30881     30879     30889     30891     30881     30879     30893     30894
     30881     30879     30893     30895     30881     30879     30893     30896
     30882     30884     30898     30899     30882     30884     30898     30902
     30882     30884     30898     30903     30882     30885     30887     30888
     30882     30885     30889     30890     30882     30885     30889     30891
     30883     30882     30884     30898     30883     30882     30885     30886
     30883     30882     30885     30887     30883     30882     30885     30889
     30884     30882     30885     30886     30884     30882     30885     30887
     30884     30882     30885     30889     30884     30898     30902     30900
     30884     30898     30903     30904     30884     30898     30903     30905
     30884     30898     30903     30906     30885     30882     30884     30898
     30885     30889     30879     30893     30885     30889     30891     30892
     30886     30885     30887     30888     30886     30885     30889     30890
     30886     30885     30889     30891     30887     30885     30889     30890
     30887     30885     30889     30891     30888     30887     30885     30889
     30889     30879     30893     30894     30889     30879     30893     30895
     30889     30879     30893     30896     30890     30889     30879     30893
     30890     30889     30891     30892     30891     30889     30879     30893
     30894     30893     30896     30897     30895     30893     30896     30897
     30898     30902     30900     30901     30898     30902     30900     30910
     30898     30902     30900     30914     30898     30903     30905     30918
     30898     30903     30906     30907     30898     30903     30906     30908
     30898     30903     30906     30910     30899     30898     30902     30900
     30899     30898     30903     30904     30899     30898     30903     30905
     30899     30898     30903     30906     30900     30902     30898     30903
     30900     30910     30906     30903     30900     30910     30906     30907
     30900     30910     30906     30908     30900     30910     30912     30913
     30901     30900     30910     30906     30901     30900     30910     30911
     30901     30900     30910     30912     30901     30900     30914     30915
     30901     30900     30914     30916     30901     30900     30914     30917
     30902     30898     30903     30904     30902     30898     30903     30905
     30902     30898     30903     30906     30902     30900     30910     30906
     30902     30900     30910     30911     30902     30900     30910     30912
     30902     30900     30914     30915     30902     30900     30914     30916
     30902     30900     30914     30917     30903     30905     30918     30919
     30903     30905     30918     30922     30903     30905     30918     30923
     30903     30906     30908     30909     30903     30906     30910     30911
     30903     30906     30910     30912     30904     30903     30905     30918
     30904     30903     30906     30907     30904     30903     30906     30908
     30904     30903     30906     30910     30905     30903     30906     30907
     30905     30903     30906     30908     30905     30903     30906     30910
     30905     30918     30922     30920     30905     30918     30923     30924
     30905     30918     30923     30925     30905     30918     30923     30926
     30906     30903     30905     30918     30906     30910     30900     30914
     30906     30910     30912     30913     30907     30906     30908     30909
     30907     30906     30910     30911     30907     30906     30910     30912
     30908     30906     30910     30911     30908     30906     30910     30912
     30909     30908     30906     30910     30910     30900     30914     30915
     30910     30900     30914     30916     30910     30900     30914     30917
     30911     30910     30900     30914     30911     30910     30912     30913
     30912     30910     30900     30914     30918     30922     30920     30921
     30918     30922     30920     30929     30918     30922     30920     30933
     30918     30923     30925     30937     30918     30923     30926     30927
     30918     30923     30926     30928     30918     30923     30926     30929
     30919     30918     30922     30920     30919     30918     30923     30924
     30919     30918     30923     30925     30919     30918     30923     30926
     30920     30922     30918     30923     30920     30929     30926     30923
     30920     30929     30926     30927     30920     30929     30926     30928
     30920     30929     30931     30932     30921     30920     30929     30926
     30921     30920     30929     30930     30921     30920     30929     30931
     30921     30920     30933     30934     30921     30920     30933     30935
     30921     30920     30933     30936     30922     30918     30923     30924
     30922     30918     30923     30925     30922     30918     30923     30926
     30922     30920     30929     30926     30922     30920     30929     30930
     30922     30920     30929     30931     30922     30920     30933     30934
     30922     30920     30933     30935     30922     30920     30933     30936
     30923     30925     30937     30938     30923     30925     30937     30941
     30923     30925     30937     30942     30923     30926     30928     30965
     30923     30926     30929     30930     30923     30926     30929     30931
     30924     30923     30925     30937     30924     30923     30926     30927
     30924     30923     30926     30928     30924     30923     30926     30929
     30925     30923     30926     30927     30925     30923     30926     30928
     30925     30923     30926     30929     30925     30937     30941     30939
     30925     30937     30942     30943     30925     30937     30942     30944
     30925     30937     30942     30952     30926     30923     30925     30937
     30926     30928     30965     30966     30926     30928     30965     30969
     30926     30928     30965     30970     30926     30929     30920     30933
     30926     30929     30931     30932     30927     30926     30928     30965
     30927     30926     30929     30930     30927     30926     30929     30931
     30928     30926     30929     30930     30928     30926     30929     30931
     30928     30965     30969     30967     30928     30965     30970     30971
     30928     30965     30970     30972     30928     30965     30970     30980
     30929     30920     30933     30934     30929     30920     30933     30935
     30929     30920     30933     30936     30929     30926     30928     30965
     30930     30929     30920     30933     30930     30929     30931     30932
     30931     30929     30920     30933     30937     30941     30939     30940
     30937     30941     30939     30956     30937     30941     30939     30960
     30937     30942     30944     30945     30937     30942     30944     30946
     30937     30942     30952     30953     30937     30942     30952     30954
     30937     30942     30952     30956     30938     30937     30941     30939
     30938     30937     30942     30943     30938     30937     30942     30944
     30938     30937     30942     30952     30939     30941     30937     30942
     30939     30956     30952     30942     30939     30956     30952     30953
     30939     30956     30952     30954     30939     30956     30958     30959
     30939     30960     30963     30964     30940     30939     30956     30952
     30940     30939     30956     30957     30940     30939     30956     30958
     30940     30939     30960     30961     30940     30939     30960     30962
     30940     30939     30960     30963     30941     30937     30942     30943
     30941     30937     30942     30944     30941     30937     30942     30952
     30941     30939     30956     30952     30941     30939     30956     30957
     30941     30939     30956     30958     30941     30939     30960     30961
     30941     30939     30960     30962     30941     30939     30960     30963
     30942     30944     30946     30947     30942     30944     30946     30948
     30942     30952     30954     30955     30942     30952     30956     30957
     30942     30952     30956     30958     30943     30942     30944     30945
     30943     30942     30944     30946     30943     30942     30952     30953
     30943     30942     30952     30954     30943     30942     30952     30956
     30944     30942     30952     30953     30944     30942     30952     30954
     30944     30942     30952     30956     30944     30946     30948     30949
     30944     30946     30948     30950     30944     30946     30948     30951
     30945     30944     30942     30952     30945     30944     30946     30947
     30945     30944     30946     30948     30946     30944     30942     30952
     30947     30946     30948     30949     30947     30946     30948     30950
     30947     30946     30948     30951     30952     30956     30939     30960
     30952     30956     30958     30959     30953     30952     30954     30955
     30953     30952     30956     30957     30953     30952     30956     30958
     30954     30952     30956     30957     30954     30952     30956     30958
     30955     30954     30952     30956     30956     30939     30960     30961
     30956     30939     30960     30962     30956     30939     30960     30963
     30957     30956     30939     30960     30957     30956     30958     30959
     30958     30956     30939     30960     30961     30960     30963     30964
     30962     30960     30963     30964     30965     30969     30967     30968
     30965     30969     30967     30983     30965     30969     30967     30987
     30965     30970     30972     30973     30965     30970     30972     30974
     30965     30970     30980     30981     30965     30970     30980     30982
     30965     30970     30980     30983     30966     30965     30969     30967
     30966     30965     30970     30971     30966     30965     30970     30972
     30966     30965     30970     30980     30967     30969     30965     30970
     30967     30983     30980     30970     30967     30983     30980     30981
     30967     30983     30980     30982     30967     30983     30985     30986
     30967     30987     30990     30991     30968     30967     30983     30980
     30968     30967     30983     30984     30968     30967     30983     30985
     30968     30967     30987     30988     30968     30967     30987     30989
     30968     30967     30987     30990     30969     30965     30970     30971
     30969     30965     30970     30972     30969     30965     30970     30980
     30969     30967     30983     30980     30969     30967     30983     30984
     30969     30967     30983     30985     30969     30967     30987     30988
     30969     30967     30987     30989     30969     30967     30987     30990
     30970     30972     30974     30975     30970     30972     30974     30976
     30970     30980     30982     30992     30970     30980     30983     30984
     30970     30980     30983     30985     30971     30970     30972     30973
     30971     30970     30972     30974     30971     30970     30980     30981
     30971     30970     30980     30982     30971     30970     30980     30983
     30972     30970     30980     30981     30972     30970     30980     30982
     30972     30970     30980     30983     30972     30974     30976     30977
     30972     30974     30976     30978     30972     30974     30976     30979
     30973     30972     30970     30980     30973     30972     30974     30975
     30973     30972     30974     30976     30974     30972     30970     30980
     30975     30974     30976     30977     30975     30974     30976     30978
     30975     30974     30976     30979     30980     30982     30992     30993
     30980     30982     30992     30996     30980     30982     30992     30997
     30980     30983     30967     30987     30980     30983     30985     30986
     30981     30980     30982     30992     30981     30980     30983     30984
     30981     30980     30983     30985     30982     30980     30983     30984
     30982     30980     30983     30985     30982     30992     30996     30994
     30982     30992     30997     30998     30982     30992     30997     30999
     30982     30992     30997     31000     30983     30967     30987     30988
     30983     30967     30987     30989     30983     30967     30987     30990
     30983     30980     30982     30992     30984     30983     30967     30987
     30984     30983     30985     30986     30985     30983     30967     30987
     30988     30987     30990     30991     30989     30987     30990     30991
     30992     30996     30994     30995     30992     30996     30994     31004
     30992     30996     30994     31008     30992     30997     30999     31013
     30992     30997     31000     31001     30992     30997     31000     31002
     30992     30997     31000     31004     30993     30992     30996     30994
     30993     30992     30997     30998     30993     30992     30997     30999
     30993     30992     30997     31000     30994     30996     30992     30997
     30994     31004     31000     30997     30994     31004     31000     31001
     30994     31004     31000     31002     30994     31004     31006     31007
     30994     31008     31011     31012     30995     30994     31004     31000
     30995     30994     31004     31005     30995     30994     31004     31006
     30995     30994     31008     31009     30995     30994     31008     31010
     30995     30994     31008     31011     30996     30992     30997     30998
     30996     30992     30997     30999     30996     30992     30997     31000
     30996     30994     31004     31000     30996     30994     31004     31005
     30996     30994     31004     31006     30996     30994     31008     31009
     30996     30994     31008     31010     30996     30994     31008     31011
     30997     30999     31013     31014     30997     30999     31013     31017
     30997     30999     31013     31018     30997     31000     31002     31003
     30997     31000     31004     31005     30997     31000     31004     31006
     30998     30997     30999     31013     30998     30997     31000     31001
     30998     30997     31000     31002     30998     30997     31000     31004
     30999     30997     31000     31001     30999     30997     31000     31002
     30999     30997     31000     31004     30999     31013     31017     31015
     30999     31013     31018     31019     30999     31013     31018     31020
     30999     31013     31018     31021     31000     30997     30999     31013
     31000     31004     30994     31008     31000     31004     31006     31007
     31001     31000     31002     31003     31001     31000     31004     31005
     31001     31000     31004     31006     31002     31000     31004     31005
     31002     31000     31004     31006     31003     31002     31000     31004
     31004     30994     31008     31009     31004     30994     31008     31010
     31004     30994     31008     31011     31005     31004     30994     31008
     31005     31004     31006     31007     31006     31004     30994     31008
     31009     31008     31011     31012     31010     31008     31011     31012
     31013     31017     31015     31016     31013     31017     31015     31025
     31013     31017     31015     31029     31013     31018     31020     31033
     31013     31018     31021     31022     31013     31018     31021     31023
     31013     31018     31021     31025     31014     31013     31017     31015
     31014     31013     31018     31019     31014     31013     31018     31020
     31014     31013     31018     31021     31015     31017     31013     31018
     31015     31025     31021     31018     31015     31025     31021     31022
     31015     31025     31021     31023     31015     31025     31027     31028
     31016     31015     31025     31021     31016     31015     31025     31026
     31016     31015     31025     31027     31016     31015     31029     31030
     31016     31015     31029     31031     31016     31015     31029     31032
     31017     31013     31018     31019     31017     31013     31018     31020
     31017     31013     31018     31021     31017     31015     31025     31021
     31017     31015     31025     31026     31017     31015     31025     31027
     31017     31015     31029     31030     31017     31015     31029     31031
     31017     31015     31029     31032     31018     31020     31033     31034
     31018     31020     31033     31037     31018     31020     31033     31038
     31018     31021     31023     31024     31018     31021     31025     31026
     31018     31021     31025     31027     31019     31018     31020     31033
     31019     31018     31021     31022     31019     31018     31021     31023
     31019     31018     31021     31025     31020     31018     31021     31022
     31020     31018     31021     31023     31020     31018     31021     31025
     31020     31033     31037     31035     31020     31033     31038     31039
     31020     31033     31038     31040     31020     31033     31038     31041
     31021     31018     31020     31033     31021     31025     31015     31029
     31021     31025     31027     31028     31022     31021     31023     31024
     31022     31021     31025     31026     31022     31021     31025     31027
     31023     31021     31025     31026     31023     31021     31025     31027
     31024     31023     31021     31025     31025     31015     31029     31030
     31025     31015     31029     31031     31025     31015     31029     31032
     31026     31025     31015     31029     31026     31025     31027     31028
     31027     31025     31015     31029     31033     31037     31035     31036
     31033     31037     31035     31045     31033     31037     31035     31049
     31033     31038     31040     31053     31033     31038     31041     31042
     31033     31038     31041     31043     31033     31038     31041     31045
     31034     31033     31037     31035     31034     31033     31038     31039
     31034     31033     31038     31040     31034     31033     31038     31041
     31035     31037     31033     31038     31035     31045     31041     31038
     31035     31045     31041     31042     31035     31045     31041     31043
     31035     31045     31047     31048     31036     31035     31045     31041
     31036     31035     31045     31046     31036     31035     31045     31047
     31036     31035     31049     31050     31036     31035     31049     31051
     31036     31035     31049     31052     31037     31033     31038     31039
     31037     31033     31038     31040     31037     31033     31038     31041
     31037     31035     31045     31041     31037     31035     31045     31046
     31037     31035     31045     31047     31037     31035     31049     31050
     31037     31035     31049     31051     31037     31035     31049     31052
     31038     31040     31053     31054     31038     31040     31053     31057
     31038     31040     31053     31058     31038     31041     31043     31044
     31038     31041     31045     31046     31038     31041     31045     31047
     31039     31038     31040     31053     31039     31038     31041     31042
     31039     31038     31041     31043     31039     31038     31041     31045
     31040     31038     31041     31042     31040     31038     31041     31043
     31040     31038     31041     31045     31040     31053     31057     31055
     31040     31053     31058     31059     31040     31053     31058     31060
     31040     31053     31058     31068     31041     31038     31040     31053
     31041     31045     31035     31049     31041     31045     31047     31048
     31042     31041     31043     31044     31042     31041     31045     31046
     31042     31041     31045     31047     31043     31041     31045     31046
     31043     31041     31045     31047     31044     31043     31041     31045
     31045     31035     31049     31050     31045     31035     31049     31051
     31045     31035     31049     31052     31046     31045     31035     31049
     31046     31045     31047     31048     31047     31045     31035     31049
     31053     31057     31055     31056     31053     31057     31055     31072
     31053     31057     31055     31076     31053     31058     31060     31061
     31053     31058     31060     31062     31053     31058     31068     31069
     31053     31058     31068     31070     31053     31058     31068     31072
     31054     31053     31057     31055     31054     31053     31058     31059
     31054     31053     31058     31060     31054     31053     31058     31068
     31055     31057     31053     31058     31055     31072     31068     31058
     31055     31072     31068     31069     31055     31072     31068     31070
     31055     31072     31074     31075     31055     31076     31079     31080
     31056     31055     31072     31068     31056     31055     31072     31073
     31056     31055     31072     31074     31056     31055     31076     31077
     31056     31055     31076     31078     31056     31055     31076     31079
     31057     31053     31058     31059     31057     31053     31058     31060
     31057     31053     31058     31068     31057     31055     31072     31068
     31057     31055     31072     31073     31057     31055     31072     31074
     31057     31055     31076     31077     31057     31055     31076     31078
     31057     31055     31076     31079     31058     31060     31062     31063
     31058     31060     31062     31064     31058     31068     31070     31071
     31058     31068     31072     31073     31058     31068     31072     31074
     31059     31058     31060     31061     31059     31058     31060     31062
     31059     31058     31068     31069     31059     31058     31068     31070
     31059     31058     31068     31072     31060     31058     31068     31069
     31060     31058     31068     31070     31060     31058     31068     31072
     31060     31062     31064     31065     31060     31062     31064     31066
     31060     31062     31064     31067     31061     31060     31058     31068
     31061     31060     31062     31063     31061     31060     31062     31064
     31062     31060     31058     31068     31063     31062     31064     31065
     31063     31062     31064     31066     31063     31062     31064     31067
     31068     31072     31055     31076     31068     31072     31074     31075
     31069     31068     31070     31071     31069     31068     31072     31073
     31069     31068     31072     31074     31070     31068     31072     31073
     31070     31068     31072     31074     31071     31070     31068     31072
     31072     31055     31076     31077     31072     31055     31076     31078
     31072     31055     31076     31079     31073     31072     31055     31076
     31073     31072     31074     31075     31074     31072     31055     31076
     31077     31076     31079     31080     31078     31076     31079     31080
     31081     31083     31082     31380     31081     31083     31085     31086
     31081     31083     31085     31087     31081     31083     31085     31094
     31082     31083     31085     31086     31082     31083     31085     31087
     31082     31083     31085     31094     31082     31380     31377     31378
     31082     31380     31377     31379     31082     31380     31383     31381
     31082     31380     31384     31385     31082     31380     31384     31386
     31082     31380     31384     31387     31083     31082     31380     31377
     31083     31082     31380     31383     31083     31082     31380     31384
     31083     31085     31086     31088     31083     31085     31094     31095
     31083     31085     31094     31096     31083     31085     31094     31101
     31084     31083     31082     31380     31084     31083     31085     31086
     31084     31083     31085     31087     31084     31083     31085     31094
     31085     31083     31082     31380     31085     31086     31088     31089
     31085     31086     31088     31090     31085     31086     31088     31109
     31085     31094     31096     31097     31085     31094     31101     31102
     31085     31094     31101     31103     31085     31094     31101     31109
     31086     31085     31094     31095     31086     31085     31094     31096
     31086     31085     31094     31101     31086     31088     31090     31091
     31086     31088     31109     31101     31086     31088     31109     31110
     31086     31088     31109     31111     31087     31085     31086     31088
     31087     31085     31094     31095     31087     31085     31094     31096
     31087     31085     31094     31101     31088     31086     31085     31094
     31088     31090     31091     31092     31088     31090     31091     31093
     31088     31090     31091     31117     31088     31109     31101     31094
     31088     31109     31101     31102     31088     31109     31101     31103
     31088     31109     31111     31112     31088     31109     31111     31218
     31089     31088     31090     31091     31089     31088     31109     31101
     31089     31088     31109     31110     31089     31088     31109     31111
     31090     31088     31109     31101     31090     31088     31109     31110
     31090     31088     31109     31111     31090     31091     31117     31113
     31090     31091     31117     31118     31090     31091     31117     31119
     31091     31090     31088     31109     31091     31117     31113     31114
     31091     31117     31113     31115     31091     31117     31113     31127
     31091     31117     31119     31120     31092     31091     31117     31113
     31092     31091     31117     31118     31092     31091     31117     31119
     31093     31091     31117     31113     31093     31091     31117     31118
     31093     31091     31117     31119     31094     31096     31097     31098
     31094     31096     31097     31099     31094     31096     31097     31100
     31094     31101     31102     31104     31094     31101     31109     31110
     31094     31101     31109     31111     31095     31094     31096     31097
     31095     31094     31101     31102     31095     31094     31101     31103
     31095     31094     31101     31109     31096     31094     31101     31102
     31096     31094     31101     31103     31096     31094     31101     31109
     31097     31096     31094     31101     31101     31102     31104     31105
     31101     31102     31104     31106     31101     31109     31111     31112
     31101     31109     31111     31218     31102     31101     31109     31110
     31102     31101     31109     31111     31102     31104     31106     31107
     31102     31104     31106     31108     31102     31104     31106     31139
     31103     31101     31102     31104     31103     31101     31109     31110
     31103     31101     31109     31111     31104     31102     31101     31109
     31104     31106     31139     31140     31104     31106     31139     31141
     31104     31106     31139     31184     31105     31104     31106     31107
     31105     31104     31106     31108     31105     31104     31106     31139
     31106     31139     31141     31142     31106     31139     31184     31185
     31106     31139     31184     31186     31106     31139     31184     31187
     31107     31106     31139     31140     31107     31106     31139     31141
     31107     31106     31139     31184     31108     31106     31139     31140
     31108     31106     31139     31141     31108     31106     31139     31184
     31109     31111     31218     31219     31109     31111     31218     31220
     31110     31109     31111     31112     31110     31109     31111     31218
     31111     31218     31220     31221     31111     31218     31220     31222
     31111     31218     31220     31223     31112     31111     31218     31219
     31112     31111     31218     31220     31113     31117     31119     31120
     31113     31127     31129     31130     31113     31127     31135     31120
     31113     31127     31135     31136     31113     31127     31135     31137
     31114     31113     31115     31116     31114     31113     31117     31118
     31114     31113     31117     31119     31114     31113     31127     31128
     31114     31113     31127     31129     31114     31113     31127     31135
     31115     31113     31117     31118     31115     31113     31117     31119
     31115     31113     31127     31128     31115     31113     31127     31129
     31115     31113     31127     31135     31116     31115     31113     31117
     31116     31115     31113     31127     31117     31113     31127     31128
     31117     31113     31127     31129     31117     31113     31127     31135
     31117     31119     31120     31121     31117     31119     31120     31122
     31117     31119     31120     31135     31118     31117     31113     31127
     31118     31117     31119     31120     31119     31117     31113     31127
     31119     31120     31122     31126     31119     31120     31135     31127
     31119     31120     31135     31136     31119     31120     31135     31137
     31120     31122     31126     31123     31120     31122     31126     31124
     31120     31122     31126     31125     31120     31135     31127     31128
     31120     31135     31127     31129     31120     31135     31137     31138
     31120     31135     31137     31334     31121     31120     31122     31126
     31121     31120     31135     31127     31121     31120     31135     31136
     31121     31120     31135     31137     31122     31120     31135     31127
     31122     31120     31135     31136     31122     31120     31135     31137
     31126     31122     31120     31135     31127     31129     31130     31131
     31127     31129     31130     31132     31127     31135     31137     31138
     31127     31135     31137     31334     31128     31127     31129     31130
     31128     31127     31135     31136     31128     31127     31135     31137
     31129     31127     31135     31136     31129     31127     31135     31137
     31129     31130     31132     31133     31129     31130     31132     31134
     31129     31130     31132     31296     31130     31129     31127     31135
     31130     31132     31296     31297     31130     31132     31296     31298
     31130     31132     31296     31300     31131     31130     31132     31133
     31131     31130     31132     31134     31131     31130     31132     31296
     31132     31296     31298     31299     31132     31296     31300     31301
     31132     31296     31300     31302     31132     31296     31300     31303
     31133     31132     31296     31297     31133     31132     31296     31298
     31133     31132     31296     31300     31134     31132     31296     31297
     31134     31132     31296     31298     31134     31132     31296     31300
     31135     31137     31334     31335     31135     31137     31334     31336
     31136     31135     31137     31138     31136     31135     31137     31334
     31137     31334     31336     31337     31137     31334     31336     31338
     31137     31334     31336     31339     31138     31137     31334     31335
     31138     31137     31334     31336     31139     31141     31142     31143
     31139     31141     31142     31144     31139     31184     31187     31188
     31139     31184     31187     31189     31139     31184     31187     31190
     31140     31139     31141     31142     31140     31139     31184     31185
     31140     31139     31184     31186     31140     31139     31184     31187
     31141     31139     31184     31185     31141     31139     31184     31186
     31141     31139     31184     31187     31141     31142     31144     31145
     31141     31142     31144     31146     31141     31142     31144     31147
     31142     31141     31139     31184     31142     31144     31147     31148
     31142     31144     31147     31149     31142     31144     31147     31150
     31143     31142     31144     31145     31143     31142     31144     31146
     31143     31142     31144     31147     31144     31147     31150     31151
     31144     31147     31150     31152     31144     31147     31150     31153
     31145     31144     31147     31148     31145     31144     31147     31149
     31145     31144     31147     31150     31146     31144     31147     31148
     31146     31144     31147     31149     31146     31144     31147     31150
     31147     31150     31153     31154     31147     31150     31153     31155
     31147     31150     31153     31156     31148     31147     31150     31151
     31148     31147     31150     31152     31148     31147     31150     31153
     31149     31147     31150     31151     31149     31147     31150     31152
     31149     31147     31150     31153     31150     31153     31156     31157
     31150     31153     31156     31158     31150     31153     31156     31159
     31151     31150     31153     31154     31151     31150     31153     31155
     31151     31150     31153     31156     31152     31150     31153     31154
     31152     31150     31153     31155     31152     31150     31153     31156
     31153     31156     31159     31160     31153     31156     31159     31161
     31153     31156     31159     31162     31154     31153     31156     31157
     31154     31153     31156     31158     31154     31153     31156     31159
     31155     31153     31156     31157     31155     31153     31156     31158
     31155     31153     31156     31159     31156     31159     31162     31163
     31156     31159     31162     31164     31156     31159     31162     31165
     31157     31156     31159     31160     31157     31156     31159     31161
     31157     31156     31159     31162     31158     31156     31159     31160
     31158     31156     31159     31161     31158     31156     31159     31162
     31159     31162     31165     31166     31159     31162     31165     31167
     31159     31162     31165     31168     31160     31159     31162     31163
     31160     31159     31162     31164     31160     31159     31162     31165
     31161     31159     31162     31163     31161     31159     31162     31164
     31161     31159     31162     31165     31162     31165     31168     31169
     31162     31165     31168     31170     31162     31165     31168     31171
     31163     31162     31165     31166     31163     31162     31165     31167
     31163     31162     31165     31168     31164     31162     31165     31166
     31164     31162     31165     31167     31164     31162     31165     31168
     31165     31168     31171     31172     31165     31168     31171     31173
     31165     31168     31171     31174     31166     31165     31168     31169
     31166     31165     31168     31170     31166     31165     31168     31171
     31167     31165     31168     31169     31167     31165     31168     31170
     31167     31165     31168     31171     31168     31171     31174     31175
     31168     31171     31174     31176     31168     31171     31174     31177
     31169     31168     31171     31172     31169     31168     31171     31173
     31169     31168     31171     31174     31170     31168     31171     31172
     31170     31168     31171     31173     31170     31168     31171     31174
     31171     31174     31177     31178     31171     31174     31177     31179
     31171     31174     31177     31180     31172     31171     31174     31175
     31172     31171     31174     31176     31172     31171     31174     31177
     31173     31171     31174     31175     31173     31171     31174     31176
     31173     31171     31174     31177     31174     31177     31180     31181
     31174     31177     31180     31182     31174     31177     31180     31183
     31175     31174     31177     31178     31175     31174     31177     31179
     31175     31174     31177     31180     31176     31174     31177     31178
     31176     31174     31177     31179     31176     31174     31177     31180
     31178     31177     31180     31181     31178     31177     31180     31182
     31178     31177     31180     31183     31179     31177     31180     31181
     31179     31177     31180     31182     31179     31177     31180     31183
     31184     31187     31190     31191     31184     31187     31190     31192
     31184     31187     31190     31193     31185     31184     31187     31188
     31185     31184     31187     31189     31185     31184     31187     31190
     31186     31184     31187     31188     31186     31184     31187     31189
     31186     31184     31187     31190     31187     31190     31193     31194
     31187     31190     31193     31195     31187     31190     31193     31196
     31188     31187     31190     31191     31188     31187     31190     31192
     31188     31187     31190     31193     31189     31187     31190     31191
     31189     31187     31190     31192     31189     31187     31190     31193
     31190     31193     31196     31197     31190     31193     31196     31198
     31190     31193     31196     31199     31191     31190     31193     31194
     31191     31190     31193     31195     31191     31190     31193     31196
     31192     31190     31193     31194     31192     31190     31193     31195
     31192     31190     31193     31196     31193     31196     31199     31200
     31193     31196     31199     31201     31193     31196     31199     31202
     31194     31193     31196     31197     31194     31193     31196     31198
     31194     31193     31196     31199     31195     31193     31196     31197
     31195     31193     31196     31198     31195     31193     31196     31199
     31196     31199     31202     31203     31196     31199     31202     31204
     31196     31199     31202     31205     31197     31196     31199     31200
     31197     31196     31199     31201     31197     31196     31199     31202
     31198     31196     31199     31200     31198     31196     31199     31201
     31198     31196     31199     31202     31199     31202     31205     31206
     31199     31202     31205     31207     31199     31202     31205     31208
     31200     31199     31202     31203     31200     31199     31202     31204
     31200     31199     31202     31205     31201     31199     31202     31203
     31201     31199     31202     31204     31201     31199     31202     31205
     31202     31205     31208     31209     31202     31205     31208     31210
     31202     31205     31208     31211     31203     31202     31205     31206
     31203     31202     31205     31207     31203     31202     31205     31208
     31204     31202     31205     31206     31204     31202     31205     31207
     31204     31202     31205     31208     31205     31208     31211     31212
     31205     31208     31211     31213     31205     31208     31211     31214
     31206     31205     31208     31209     31206     31205     31208     31210
     31206     31205     31208     31211     31207     31205     31208     31209
     31207     31205     31208     31210     31207     31205     31208     31211
     31208     31211     31214     31215     31208     31211     31214     31216
     31208     31211     31214     31217     31209     31208     31211     31212
     31209     31208     31211     31213     31209     31208     31211     31214
     31210     31208     31211     31212     31210     31208     31211     31213
     31210     31208     31211     31214     31212     31211     31214     31215
     31212     31211     31214     31216     31212     31211     31214     31217
     31213     31211     31214     31215     31213     31211     31214     31216
     31213     31211     31214     31217     31218     31220     31223     31224
     31218     31220     31223     31225     31218     31220     31223     31262
     31219     31218     31220     31221     31219     31218     31220     31222
     31219     31218     31220     31223     31220     31223     31225     31226
     31220     31223     31262     31263     31220     31223     31262     31264
     31220     31223     31262     31265     31221     31220     31223     31224
     31221     31220     31223     31225     31221     31220     31223     31262
     31222     31220     31223     31224     31222     31220     31223     31225
     31222     31220     31223     31262     31223     31225     31226     31227
     31223     31225     31226     31228     31223     31262     31265     31266
     31223     31262     31265     31267     31223     31262     31265     31268
     31224     31223     31225     31226     31224     31223     31262     31263
     31224     31223     31262     31264     31224     31223     31262     31265
     31225     31223     31262     31263     31225     31223     31262     31264
     31225     31223     31262     31265     31225     31226     31228     31229
     31225     31226     31228     31230     31225     31226     31228     31231
     31226     31225     31223     31262     31226     31228     31231     31232
     31226     31228     31231     31233     31226     31228     31231     31234
     31227     31226     31228     31229     31227     31226     31228     31230
     31227     31226     31228     31231     31228     31231     31234     31235
     31228     31231     31234     31236     31228     31231     31234     31237
     31229     31228     31231     31232     31229     31228     31231     31233
     31229     31228     31231     31234     31230     31228     31231     31232
     31230     31228     31231     31233     31230     31228     31231     31234
     31231     31234     31237     31238     31231     31234     31237     31239
     31231     31234     31237     31240     31232     31231     31234     31235
     31232     31231     31234     31236     31232     31231     31234     31237
     31233     31231     31234     31235     31233     31231     31234     31236
     31233     31231     31234     31237     31234     31237     31240     31241
     31234     31237     31240     31242     31234     31237     31240     31243
     31235     31234     31237     31238     31235     31234     31237     31239
     31235     31234     31237     31240     31236     31234     31237     31238
     31236     31234     31237     31239     31236     31234     31237     31240
     31237     31240     31243     31244     31237     31240     31243     31245
     31237     31240     31243     31246     31238     31237     31240     31241
     31238     31237     31240     31242     31238     31237     31240     31243
     31239     31237     31240     31241     31239     31237     31240     31242
     31239     31237     31240     31243     31240     31243     31246     31247
     31240     31243     31246     31248     31240     31243     31246     31249
     31241     31240     31243     31244     31241     31240     31243     31245
     31241     31240     31243     31246     31242     31240     31243     31244
     31242     31240     31243     31245     31242     31240     31243     31246
     31243     31246     31249     31250     31243     31246     31249     31251
     31243     31246     31249     31252     31244     31243     31246     31247
     31244     31243     31246     31248     31244     31243     31246     31249
     31245     31243     31246     31247     31245     31243     31246     31248
     31245     31243     31246     31249     31246     31249     31252     31253
     31246     31249     31252     31254     31246     31249     31252     31255
     31247     31246     31249     31250     31247     31246     31249     31251
     31247     31246     31249     31252     31248     31246     31249     31250
     31248     31246     31249     31251     31248     31246     31249     31252
     31249     31252     31255     31256     31249     31252     31255     31257
     31249     31252     31255     31258     31250     31249     31252     31253
     31250     31249     31252     31254     31250     31249     31252     31255
     31251     31249     31252     31253     31251     31249     31252     31254
     31251     31249     31252     31255     31252     31255     31258     31259
     31252     31255     31258     31260     31252     31255     31258     31261
     31253     31252     31255     31256     31253     31252     31255     31257
     31253     31252     31255     31258     31254     31252     31255     31256
     31254     31252     31255     31257     31254     31252     31255     31258
     31256     31255     31258     31259     31256     31255     31258     31260
     31256     31255     31258     31261     31257     31255     31258     31259
     31257     31255     31258     31260     31257     31255     31258     31261
     31262     31265     31268     31269     31262     31265     31268     31270
     31262     31265     31268     31271     31263     31262     31265     31266
     31263     31262     31265     31267     31263     31262     31265     31268
     31264     31262     31265     31266     31264     31262     31265     31267
     31264     31262     31265     31268     31265     31268     31271     31272
     31265     31268     31271     31273     31265     31268     31271     31274
     31266     31265     31268     31269     31266     31265     31268     31270
     31266     31265     31268     31271     31267     31265     31268     31269
     31267     31265     31268     31270     31267     31265     31268     31271
     31268     31271     31274     31275     31268     31271     31274     31276
     31268     31271     31274     31277     31269     31268     31271     31272
     31269     31268     31271     31273     31269     31268     31271     31274
     31270     31268     31271     31272     31270     31268     31271     31273
     31270     31268     31271     31274     31271     31274     31277     31278
     31271     31274     31277     31279     31271     31274     31277     31280
     31272     31271     31274     31275     31272     31271     31274     31276
     31272     31271     31274     31277     31273     31271     31274     31275
     31273     31271     31274     31276     31273     31271     31274     31277
     31274     31277     31280     31281     31274     31277     31280     31282
     31274     31277     31280     31283     31275     31274     31277     31278
     31275     31274     31277     31279     31275     31274     31277     31280
     31276     31274     31277     31278     31276     31274     31277     31279
     31276     31274     31277     31280     31277     31280     31283     31284
     31277     31280     31283     31285     31277     31280     31283     31286
     31278     31277     31280     31281     31278     31277     31280     31282
     31278     31277     31280     31283     31279     31277     31280     31281
     31279     31277     31280     31282     31279     31277     31280     31283
     31280     31283     31286     31287     31280     31283     31286     31288
     31280     31283     31286     31289     31281     31280     31283     31284
     31281     31280     31283     31285     31281     31280     31283     31286
     31282     31280     31283     31284     31282     31280     31283     31285
     31282     31280     31283     31286     31283     31286     31289     31290
     31283     31286     31289     31291     31283     31286     31289     31292
     31284     31283     31286     31287     31284     31283     31286     31288
     31284     31283     31286     31289     31285     31283     31286     31287
     31285     31283     31286     31288     31285     31283     31286     31289
     31286     31289     31292     31293     31286     31289     31292     31294
     31286     31289     31292     31295     31287     31286     31289     31290
     31287     31286     31289     31291     31287     31286     31289     31292
     31288     31286     31289     31290     31288     31286     31289     31291
     31288     31286     31289     31292     31290     31289     31292     31293
     31290     31289     31292     31294     31290     31289     31292     31295
     31291     31289     31292     31293     31291     31289     31292     31294
     31291     31289     31292     31295     31296     31300     31303     31304
     31296     31300     31303     31305     31296     31300     31303     31306
     31297     31296     31298     31299     31297     31296     31300     31301
     31297     31296     31300     31302     31297     31296     31300     31303
     31298     31296     31300     31301     31298     31296     31300     31302
     31298     31296     31300     31303     31299     31298     31296     31300
     31300     31303     31306     31307     31300     31303     31306     31308
     31300     31303     31306     31309     31301     31300     31303     31304
     31301     31300     31303     31305     31301     31300     31303     31306
     31302     31300     31303     31304     31302     31300     31303     31305
     31302     31300     31303     31306     31303     31306     31309     31310
     31303     31306     31309     31311     31303     31306     31309     31312
     31304     31303     31306     31307     31304     31303     31306     31308
     31304     31303     31306     31309     31305     31303     31306     31307
     31305     31303     31306     31308     31305     31303     31306     31309
     31306     31309     31312     31313     31306     31309     31312     31314
     31306     31309     31312     31315     31307     31306     31309     31310
     31307     31306     31309     31311     31307     31306     31309     31312
     31308     31306     31309     31310     31308     31306     31309     31311
     31308     31306     31309     31312     31309     31312     31315     31316
     31309     31312     31315     31317     31309     31312     31315     31318
     31310     31309     31312     31313     31310     31309     31312     31314
     31310     31309     31312     31315     31311     31309     31312     31313
     31311     31309     31312     31314     31311     31309     31312     31315
     31312     31315     31318     31319     31312     31315     31318     31320
     31312     31315     31318     31321     31313     31312     31315     31316
     31313     31312     31315     31317     31313     31312     31315     31318
     31314     31312     31315     31316     31314     31312     31315     31317
     31314     31312     31315     31318     31315     31318     31321     31322
     31315     31318     31321     31323     31315     31318     31321     31324
     31316     31315     31318     31319     31316     31315     31318     31320
     31316     31315     31318     31321     31317     31315     31318     31319
     31317     31315     31318     31320     31317     31315     31318     31321
     31318     31321     31324     31325     31318     31321     31324     31326
     31318     31321     31324     31327     31319     31318     31321     31322
     31319     31318     31321     31323     31319     31318     31321     31324
     31320     31318     31321     31322     31320     31318     31321     31323
     31320     31318     31321     31324     31321     31324     31327     31328
     31321     31324     31327     31329     31321     31324     31327     31330
     31322     31321     31324     31325     31322     31321     31324     31326
     31322     31321     31324     31327     31323     31321     31324     31325
     31323     31321     31324     31326     31323     31321     31324     31327
     31324     31327     31330     31331     31324     31327     31330     31332
     31324     31327     31330     31333     31325     31324     31327     31328
     31325     31324     31327     31329     31325     31324     31327     31330
     31326     31324     31327     31328     31326     31324     31327     31329
     31326     31324     31327     31330     31328     31327     31330     31331
     31328     31327     31330     31332     31328     31327     31330     31333
     31329     31327     31330     31331     31329     31327     31330     31332
     31329     31327     31330     31333     31334     31336     31339     31340
     31334     31336     31339     31341     31334     31336     31339     31343
     31335     31334     31336     31337     31335     31334     31336     31338
     31335     31334     31336     31339     31336     31339     31341     31342
     31336     31339     31343     31344     31336     31339     31343     31345
     31336     31339     31343     31346     31337     31336     31339     31340
     31337     31336     31339     31341     31337     31336     31339     31343
     31338     31336     31339     31340     31338     31336     31339     31341
     31338     31336     31339     31343     31339     31343     31346     31347
     31339     31343     31346     31348     31339     31343     31346     31349
     31340     31339     31341     31342     31340     31339     31343     31344
     31340     31339     31343     31345     31340     31339     31343     31346
     31341     31339     31343     31344     31341     31339     31343     31345
     31341     31339     31343     31346     31342     31341     31339     31343
     31343     31346     31349     31350     31343     31346     31349     31351
     31343     31346     31349     31352     31344     31343     31346     31347
     31344     31343     31346     31348     31344     31343     31346     31349
     31345     31343     31346     31347     31345     31343     31346     31348
     31345     31343     31346     31349     31346     31349     31352     31353
     31346     31349     31352     31354     31346     31349     31352     31355
     31347     31346     31349     31350     31347     31346     31349     31351
     31347     31346     31349     31352     31348     31346     31349     31350
     31348     31346     31349     31351     31348     31346     31349     31352
     31349     31352     31355     31356     31349     31352     31355     31357
     31349     31352     31355     31358     31350     31349     31352     31353
     31350     31349     31352     31354     31350     31349     31352     31355
     31351     31349     31352     31353     31351     31349     31352     31354
     31351     31349     31352     31355     31352     31355     31358     31359
     31352     31355     31358     31360     31352     31355     31358     31361
     31353     31352     31355     31356     31353     31352     31355     31357
     31353     31352     31355     31358     31354     31352     31355     31356
     31354     31352     31355     31357     31354     31352     31355     31358
     31355     31358     31361     31362     31355     31358     31361     31363
     31355     31358     31361     31364     31356     31355     31358     31359
     31356     31355     31358     31360     31356     31355     31358     31361
     31357     31355     31358     31359     31357     31355     31358     31360
     31357     31355     31358     31361     31358     31361     31364     31365
     31358     31361     31364     31366     31358     31361     31364     31367
     31359     31358     31361     31362     31359     31358     31361     31363
     31359     31358     31361     31364     31360     31358     31361     31362
     31360     31358     31361     31363     31360     31358     31361     31364
     31361     31364     31367     31368     31361     31364     31367     31369
     31361     31364     31367     31370     31362     31361     31364     31365
     31362     31361     31364     31366     31362     31361     31364     31367
     31363     31361     31364     31365     31363     31361     31364     31366
     31363     31361     31364     31367     31364     31367     31370     31371
     31364     31367     31370     31372     31364     31367     31370     31373
     31365     31364     31367     31368     31365     31364     31367     31369
     31365     31364     31367     31370     31366     31364     31367     31368
     31366     31364     31367     31369     31366     31364     31367     31370
     31367     31370     31373     31374     31367     31370     31373     31375
     31367     31370     31373     31376     31368     31367     31370     31371
     31368     31367     31370     31372     31368     31367     31370     31373
     31369     31367     31370     31371     31369     31367     31370     31372
     31369     31367     31370     31373     31371     31370     31373     31374
     31371     31370     31373     31375     31371     31370     31373     31376
     31372     31370     31373     31374     31372     31370     31373     31375
     31372     31370     31373     31376     31377     31380     31383     31381
     31377     31380     31384     31385     31377     31380     31384     31386
     31377     31380     31384     31387     31378     31377     31380     31383
     31378     31377     31380     31384     31379     31377     31380     31383
     31379     31377     31380     31384     31380     31383     31381     31382
     31380     31383     31381     31390     31380     31383     31381     31393
     31380     31384     31387     31388     31380     31384     31387     31389
     31380     31384     31387     31390     31381     31383     31380     31384
     31381     31390     31387     31384     31381     31390     31387     31388
     31381     31390     31387     31389     31381     31390     31392     31429
     31381     31393     31395     31396     31381     31393     31397     31398
     31381     31393     31397     31399     31381     31393     31397     31400
     31382     31381     31390     31387     31382     31381     31390     31391
     31382     31381     31390     31392     31382     31381     31393     31394
     31382     31381     31393     31395     31382     31381     31393     31397
     31383     31380     31384     31385     31383     31380     31384     31386
     31383     31380     31384     31387     31383     31381     31390     31387
     31383     31381     31390     31391     31383     31381     31390     31392
     31383     31381     31393     31394     31383     31381     31393     31395
     31383     31381     31393     31397     31384     31387     31389     31405
     31384     31387     31390     31391     31384     31387     31390     31392
     31385     31384     31387     31388     31385     31384     31387     31389
     31385     31384     31387     31390     31386     31384     31387     31388
     31386     31384     31387     31389     31386     31384     31387     31390
     31387     31389     31405     31402     31387     31389     31405     31408
     31387     31389     31405     31409     31387     31390     31381     31393
     31387     31390     31392     31429     31388     31387     31389     31405
     31388     31387     31390     31391     31388     31387     31390     31392
     31389     31387     31390     31391     31389     31387     31390     31392
     31389     31405     31402     31403     31389     31405     31402     31404
     31389     31405     31408     31406     31389     31405     31409     31410
     31389     31405     31409     31411     31389     31405     31409     31412
     31390     31381     31393     31394     31390     31381     31393     31395
     31390     31381     31393     31397     31390     31387     31389     31405
     31390     31392     31429     31430     31390     31392     31429     31433
     31390     31392     31429     31434     31391     31390     31381     31393
     31391     31390     31392     31429     31392     31390     31381     31393
     31392     31429     31433     31431     31392     31429     31434     31435
     31392     31429     31434     31436     31392     31429     31434     31438
     31393     31397     31400     31401     31394     31393     31395     31396
     31394     31393     31397     31398     31394     31393     31397     31399
     31394     31393     31397     31400     31395     31393     31397     31398
     31395     31393     31397     31399     31395     31393     31397     31400
     31396     31395     31393     31397     31398     31397     31400     31401
     31399     31397     31400     31401     31402     31405     31408     31406
     31402     31405     31409     31410     31402     31405     31409     31411
     31402     31405     31409     31412     31403     31402     31405     31408
     31403     31402     31405     31409     31404     31402     31405     31408
     31404     31402     31405     31409     31405     31408     31406     31407
     31405     31408     31406     31416     31405     31408     31406     31420
     31405     31409     31412     31413     31405     31409     31412     31414
     31405     31409     31412     31416     31406     31408     31405     31409
     31406     31416     31412     31409     31406     31416     31412     31413
     31406     31416     31412     31414     31406     31416     31418     31419
     31406     31420     31422     31423     31406     31420     31424     31425
     31406     31420     31424     31426     31406     31420     31424     31427
     31407     31406     31416     31412     31407     31406     31416     31417
     31407     31406     31416     31418     31407     31406     31420     31421
     31407     31406     31420     31422     31407     31406     31420     31424
     31408     31405     31409     31410     31408     31405     31409     31411
     31408     31405     31409     31412     31408     31406     31416     31412
     31408     31406     31416     31417     31408     31406     31416     31418
     31408     31406     31420     31421     31408     31406     31420     31422
     31408     31406     31420     31424     31409     31412     31414     31415
     31409     31412     31416     31417     31409     31412     31416     31418
     31410     31409     31412     31413     31410     31409     31412     31414
     31410     31409     31412     31416     31411     31409     31412     31413
     31411     31409     31412     31414     31411     31409     31412     31416
     31412     31416     31406     31420     31412     31416     31418     31419
     31413     31412     31414     31415     31413     31412     31416     31417
     31413     31412     31416     31418     31414     31412     31416     31417
     31414     31412     31416     31418     31415     31414     31412     31416
     31416     31406     31420     31421     31416     31406     31420     31422
     31416     31406     31420     31424     31417     31416     31406     31420
     31417     31416     31418     31419     31418     31416     31406     31420
     31420     31424     31427     31428     31421     31420     31422     31423
     31421     31420     31424     31425     31421     31420     31424     31426
     31421     31420     31424     31427     31422     31420     31424     31425
     31422     31420     31424     31426     31422     31420     31424     31427
     31423     31422     31420     31424     31425     31424     31427     31428
     31426     31424     31427     31428     31429     31433     31431     31432
     31429     31433     31431     31441     31429     31433     31431     31448
     31429     31434     31436     31437     31429     31434     31438     31439
     31429     31434     31438     31440     31429     31434     31438     31441
     31430     31429     31433     31431     31430     31429     31434     31435
     31430     31429     31434     31436     31430     31429     31434     31438
     31431     31433     31429     31434     31431     31441     31438     31434
     31431     31441     31438     31439     31431     31441     31438     31440
     31431     31441     31443     31444     31431     31448     31450     31451
     31431     31448     31452     31453     31431     31448     31452     31454
     31431     31448     31452     31455     31432     31431     31441     31438
     31432     31431     31441     31442     31432     31431     31441     31443
     31432     31431     31448     31449     31432     31431     31448     31450
     31432     31431     31448     31452     31433     31429     31434     31435
     31433     31429     31434     31436     31433     31429     31434     31438
     31433     31431     31441     31438     31433     31431     31441     31442
     31433     31431     31441     31443     31433     31431     31448     31449
     31433     31431     31448     31450     31433     31431     31448     31452
     31434     31438     31440     31457     31434     31438     31441     31442
     31434     31438     31441     31443     31435     31434     31436     31437
     31435     31434     31438     31439     31435     31434     31438     31440
     31435     31434     31438     31441     31436     31434     31438     31439
     31436     31434     31438     31440     31436     31434     31438     31441
     31437     31436     31434     31438     31438     31440     31457     31458
     31438     31440     31457     31461     31438     31440     31457     31462
     31438     31441     31431     31448     31438     31441     31443     31444
     31439     31438     31440     31457     31439     31438     31441     31442
     31439     31438     31441     31443     31440     31438     31441     31442
     31440     31438     31441     31443     31440     31457     31461     31459
     31440     31457     31462     31463     31440     31457     31462     31464
     31440     31457     31462     31466     31441     31431     31448     31449
     31441     31431     31448     31450     31441     31431     31448     31452
     31441     31438     31440     31457     31441     31443     31444     31445
     31441     31443     31444     31446     31441     31443     31444     31447
     31442     31441     31431     31448     31442     31441     31443     31444
     31443     31441     31431     31448     31448     31452     31455     31456
     31449     31448     31450     31451     31449     31448     31452     31453
     31449     31448     31452     31454     31449     31448     31452     31455
     31450     31448     31452     31453     31450     31448     31452     31454
     31450     31448     31452     31455     31451     31450     31448     31452
     31453     31452     31455     31456     31454     31452     31455     31456
     31457     31461     31459     31460     31457     31461     31459     31469
     31457     31461     31459     31476     31457     31462     31464     31465
     31457     31462     31466     31467     31457     31462     31466     31468
     31457     31462     31466     31469     31458     31457     31461     31459
     31458     31457     31462     31463     31458     31457     31462     31464
     31458     31457     31462     31466     31459     31461     31457     31462
     31459     31469     31466     31462     31459     31469     31466     31467
     31459     31469     31466     31468     31459     31469     31471     31472
     31459     31476     31478     31479     31459     31476     31480     31481
     31459     31476     31480     31482     31459     31476     31480     31483
     31460     31459     31469     31466     31460     31459     31469     31470
     31460     31459     31469     31471     31460     31459     31476     31477
     31460     31459     31476     31478     31460     31459     31476     31480
     31461     31457     31462     31463     31461     31457     31462     31464
     31461     31457     31462     31466     31461     31459     31469     31466
     31461     31459     31469     31470     31461     31459     31469     31471
     31461     31459     31476     31477     31461     31459     31476     31478
     31461     31459     31476     31480     31462     31466     31468     31510
     31462     31466     31469     31470     31462     31466     31469     31471
     31463     31462     31464     31465     31463     31462     31466     31467
     31463     31462     31466     31468     31463     31462     31466     31469
     31464     31462     31466     31467     31464     31462     31466     31468
     31464     31462     31466     31469     31465     31464     31462     31466
     31466     31468     31510     31511     31466     31468     31510     31514
     31466     31468     31510     31515     31466     31469     31459     31476
     31466     31469     31471     31472     31467     31466     31468     31510
     31467     31466     31469     31470     31467     31466     31469     31471
     31468     31466     31469     31470     31468     31466     31469     31471
     31468     31510     31514     31512     31468     31510     31515     31516
     31468     31510     31515     31517     31468     31510     31515     31519
     31469     31459     31476     31477     31469     31459     31476     31478
     31469     31459     31476     31480     31469     31466     31468     31510
     31469     31471     31472     31473     31469     31471     31472     31474
     31469     31471     31472     31475     31470     31469     31459     31476
     31470     31469     31471     31472     31471     31469     31459     31476
     31476     31480     31483     31484     31477     31476     31478     31479
     31477     31476     31480     31481     31477     31476     31480     31482
     31477     31476     31480     31483     31478     31476     31480     31481
     31478     31476     31480     31482     31478     31476     31480     31483
     31479     31478     31476     31480     31480     31483     31484     31485
     31480     31483     31484     31488     31480     31483     31484     31489
     31481     31480     31483     31484     31482     31480     31483     31484
     31483     31484     31488     31486     31483     31484     31489     31490
     31483     31484     31489     31491     31483     31484     31489     31493
     31484     31488     31486     31487     31484     31488     31486     31497
     31484     31488     31486     31501     31484     31489     31491     31492
     31484     31489     31493     31494     31484     31489     31493     31495
     31484     31489     31493     31497     31485     31484     31488     31486
     31485     31484     31489     31490     31485     31484     31489     31491
     31485     31484     31489     31493     31486     31488     31484     31489
     31486     31497     31493     31489     31486     31497     31493     31494
     31486     31497     31493     31495     31486     31497     31499     31500
     31486     31501     31503     31504     31486     31501     31505     31506
     31486     31501     31505     31507     31486     31501     31505     31508
     31487     31486     31497     31493     31487     31486     31497     31498
     31487     31486     31497     31499     31487     31486     31501     31502
     31487     31486     31501     31503     31487     31486     31501     31505
     31488     31484     31489     31490     31488     31484     31489     31491
     31488     31484     31489     31493     31488     31486     31497     31493
     31488     31486     31497     31498     31488     31486     31497     31499
     31488     31486     31501     31502     31488     31486     31501     31503
     31488     31486     31501     31505     31489     31493     31495     31496
     31489     31493     31497     31498     31489     31493     31497     31499
     31490     31489     31491     31492     31490     31489     31493     31494
     31490     31489     31493     31495     31490     31489     31493     31497
     31491     31489     31493     31494     31491     31489     31493     31495
     31491     31489     31493     31497     31492     31491     31489     31493
     31493     31497     31486     31501     31493     31497     31499     31500
     31494     31493     31495     31496     31494     31493     31497     31498
     31494     31493     31497     31499     31495     31493     31497     31498
     31495     31493     31497     31499     31496     31495     31493     31497
     31497     31486     31501     31502     31497     31486     31501     31503
     31497     31486     31501     31505     31498     31497     31486     31501
     31498     31497     31499     31500     31499     31497     31486     31501
     31501     31505     31508     31509     31502     31501     31503     31504
     31502     31501     31505     31506     31502     31501     31505     31507
     31502     31501     31505     31508     31503     31501     31505     31506
     31503     31501     31505     31507     31503     31501     31505     31508
     31504     31503     31501     31505     31506     31505     31508     31509
     31507     31505     31508     31509     31510     31514     31512     31513
     31510     31514     31512     31522     31510     31514     31512     31526
     31510     31515     31517     31518     31510     31515     31519     31520
     31510     31515     31519     31521     31510     31515     31519     31522
     31511     31510     31514     31512     31511     31510     31515     31516
     31511     31510     31515     31517     31511     31510     31515     31519
     31512     31514     31510     31515     31512     31522     31519     31515
     31512     31522     31519     31520     31512     31522     31519     31521
     31512     31522     31524     31525     31512     31526     31529     31530
     31513     31512     31522     31519     31513     31512     31522     31523
     31513     31512     31522     31524     31513     31512     31526     31527
     31513     31512     31526     31528     31513     31512     31526     31529
     31514     31510     31515     31516     31514     31510     31515     31517
     31514     31510     31515     31519     31514     31512     31522     31519
     31514     31512     31522     31523     31514     31512     31522     31524
     31514     31512     31526     31527     31514     31512     31526     31528
     31514     31512     31526     31529     31515     31519     31521     31531
     31515     31519     31522     31523     31515     31519     31522     31524
     31516     31515     31517     31518     31516     31515     31519     31520
     31516     31515     31519     31521     31516     31515     31519     31522
     31517     31515     31519     31520     31517     31515     31519     31521
     31517     31515     31519     31522     31518     31517     31515     31519
     31519     31521     31531     31532     31519     31521     31531     31535
     31519     31521     31531     31536     31519     31522     31512     31526
     31519     31522     31524     31525     31520     31519     31521     31531
     31520     31519     31522     31523     31520     31519     31522     31524
     31521     31519     31522     31523     31521     31519     31522     31524
     31521     31531     31535     31533     31521     31531     31536     31537
     31521     31531     31536     31538     31521     31531     31536     31539
     31522     31512     31526     31527     31522     31512     31526     31528
     31522     31512     31526     31529     31522     31519     31521     31531
     31523     31522     31512     31526     31523     31522     31524     31525
     31524     31522     31512     31526     31527     31526     31529     31530
     31528     31526     31529     31530     31531     31535     31533     31534
     31531     31535     31533     31542     31531     31535     31533     31546
     31531     31536     31538     31551     31531     31536     31539     31540
     31531     31536     31539     31541     31531     31536     31539     31542
     31532     31531     31535     31533     31532     31531     31536     31537
     31532     31531     31536     31538     31532     31531     31536     31539
     31533     31535     31531     31536     31533     31542     31539     31536
     31533     31542     31539     31540     31533     31542     31539     31541
     31533     31542     31544     31545     31533     31546     31549     31550
     31534     31533     31542     31539     31534     31533     31542     31543
     31534     31533     31542     31544     31534     31533     31546     31547
     31534     31533     31546     31548     31534     31533     31546     31549
     31535     31531     31536     31537     31535     31531     31536     31538
     31535     31531     31536     31539     31535     31533     31542     31539
     31535     31533     31542     31543     31535     31533     31542     31544
     31535     31533     31546     31547     31535     31533     31546     31548
     31535     31533     31546     31549     31536     31538     31551     31552
     31536     31538     31551     31555     31536     31538     31551     31556
     31536     31539     31541     31594     31536     31539     31542     31543
     31536     31539     31542     31544     31537     31536     31538     31551
     31537     31536     31539     31540     31537     31536     31539     31541
     31537     31536     31539     31542     31538     31536     31539     31540
     31538     31536     31539     31541     31538     31536     31539     31542
     31538     31551     31555     31553     31538     31551     31556     31557
     31538     31551     31556     31558     31538     31551     31556     31559
     31539     31536     31538     31551     31539     31541     31594     31595
     31539     31541     31594     31598     31539     31541     31594     31599
     31539     31542     31533     31546     31539     31542     31544     31545
     31540     31539     31541     31594     31540     31539     31542     31543
     31540     31539     31542     31544     31541     31539     31542     31543
     31541     31539     31542     31544     31541     31594     31598     31596
     31541     31594     31599     31600     31541     31594     31599     31601
     31541     31594     31599     31603     31542     31533     31546     31547
     31542     31533     31546     31548     31542     31533     31546     31549
     31542     31539     31541     31594     31543     31542     31533     31546
     31543     31542     31544     31545     31544     31542     31533     31546
     31547     31546     31549     31550     31548     31546     31549     31550
     31551     31555     31553     31554     31551     31555     31553     31563
     31551     31555     31553     31567     31551     31556     31558     31572
     31551     31556     31559     31560     31551     31556     31559     31561
     31551     31556     31559     31563     31552     31551     31555     31553
     31552     31551     31556     31557     31552     31551     31556     31558
     31552     31551     31556     31559     31553     31555     31551     31556
     31553     31563     31559     31556     31553     31563     31559     31560
     31553     31563     31559     31561     31553     31563     31565     31566
     31553     31567     31570     31571     31554     31553     31563     31559
     31554     31553     31563     31564     31554     31553     31563     31565
     31554     31553     31567     31568     31554     31553     31567     31569
     31554     31553     31567     31570     31555     31551     31556     31557
     31555     31551     31556     31558     31555     31551     31556     31559
     31555     31553     31563     31559     31555     31553     31563     31564
     31555     31553     31563     31565     31555     31553     31567     31568
     31555     31553     31567     31569     31555     31553     31567     31570
     31556     31558     31572     31573     31556     31558     31572     31576
     31556     31558     31572     31577     31556     31559     31561     31562
     31556     31559     31563     31564     31556     31559     31563     31565
     31557     31556     31558     31572     31557     31556     31559     31560
     31557     31556     31559     31561     31557     31556     31559     31563
     31558     31556     31559     31560     31558     31556     31559     31561
     31558     31556     31559     31563     31558     31572     31576     31574
     31558     31572     31577     31578     31558     31572     31577     31579
     31558     31572     31577     31581     31559     31556     31558     31572
     31559     31563     31553     31567     31559     31563     31565     31566
     31560     31559     31561     31562     31560     31559     31563     31564
     31560     31559     31563     31565     31561     31559     31563     31564
     31561     31559     31563     31565     31562     31561     31559     31563
     31563     31553     31567     31568     31563     31553     31567     31569
     31563     31553     31567     31570     31564     31563     31553     31567
     31564     31563     31565     31566     31565     31563     31553     31567
     31568     31567     31570     31571     31569     31567     31570     31571
     31572     31576     31574     31575     31572     31576     31574     31585
     31572     31576     31574     31589     31572     31577     31579     31580
     31572     31577     31581     31582     31572     31577     31581     31583
     31572     31577     31581     31585     31573     31572     31576     31574
     31573     31572     31577     31578     31573     31572     31577     31579
     31573     31572     31577     31581     31574     31576     31572     31577
     31574     31585     31581     31577     31574     31585     31581     31582
     31574     31585     31581     31583     31574     31585     31587     31588
     31574     31589     31592     31593     31575     31574     31585     31581
     31575     31574     31585     31586     31575     31574     31585     31587
     31575     31574     31589     31590     31575     31574     31589     31591
     31575     31574     31589     31592     31576     31572     31577     31578
     31576     31572     31577     31579     31576     31572     31577     31581
     31576     31574     31585     31581     31576     31574     31585     31586
     31576     31574     31585     31587     31576     31574     31589     31590
     31576     31574     31589     31591     31576     31574     31589     31592
     31577     31581     31583     31584     31577     31581     31585     31586
     31577     31581     31585     31587     31578     31577     31579     31580
     31578     31577     31581     31582     31578     31577     31581     31583
     31578     31577     31581     31585     31579     31577     31581     31582
     31579     31577     31581     31583     31579     31577     31581     31585
     31580     31579     31577     31581     31581     31585     31574     31589
     31581     31585     31587     31588     31582     31581     31583     31584
     31582     31581     31585     31586     31582     31581     31585     31587
     31583     31581     31585     31586     31583     31581     31585     31587
     31584     31583     31581     31585     31585     31574     31589     31590
     31585     31574     31589     31591     31585     31574     31589     31592
     31586     31585     31574     31589     31586     31585     31587     31588
     31587     31585     31574     31589     31590     31589     31592     31593
     31591     31589     31592     31593     31594     31598     31596     31597
     31594     31598     31596     31606     31594     31598     31596     31610
     31594     31599     31601     31602     31594     31599     31603     31604
     31594     31599     31603     31605     31594     31599     31603     31606
     31595     31594     31598     31596     31595     31594     31599     31600
     31595     31594     31599     31601     31595     31594     31599     31603
     31596     31598     31594     31599     31596     31606     31603     31599
     31596     31606     31603     31604     31596     31606     31603     31605
     31596     31606     31608     31609     31596     31610     31613     31614
     31597     31596     31606     31603     31597     31596     31606     31607
     31597     31596     31606     31608     31597     31596     31610     31611
     31597     31596     31610     31612     31597     31596     31610     31613
     31598     31594     31599     31600     31598     31594     31599     31601
     31598     31594     31599     31603     31598     31596     31606     31603
     31598     31596     31606     31607     31598     31596     31606     31608
     31598     31596     31610     31611     31598     31596     31610     31612
     31598     31596     31610     31613     31599     31603     31605     31615
     31599     31603     31606     31607     31599     31603     31606     31608
     31600     31599     31601     31602     31600     31599     31603     31604
     31600     31599     31603     31605     31600     31599     31603     31606
     31601     31599     31603     31604     31601     31599     31603     31605
     31601     31599     31603     31606     31602     31601     31599     31603
     31603     31605     31615     31616     31603     31605     31615     31619
     31603     31605     31615     31620     31603     31606     31596     31610
     31603     31606     31608     31609     31604     31603     31605     31615
     31604     31603     31606     31607     31604     31603     31606     31608
     31605     31603     31606     31607     31605     31603     31606     31608
     31605     31615     31619     31617     31605     31615     31620     31621
     31605     31615     31620     31622     31605     31615     31620     31630
     31606     31596     31610     31611     31606     31596     31610     31612
     31606     31596     31610     31613     31606     31603     31605     31615
     31607     31606     31596     31610     31607     31606     31608     31609
     31608     31606     31596     31610     31611     31610     31613     31614
     31612     31610     31613     31614     31615     31619     31617     31618
     31615     31619     31617     31633     31615     31619     31617     31637
     31615     31620     31622     31623     31615     31620     31622     31624
     31615     31620     31630     31631     31615     31620     31630     31632
     31615     31620     31630     31633     31616     31615     31619     31617
     31616     31615     31620     31621     31616     31615     31620     31622
     31616     31615     31620     31630     31617     31619     31615     31620
     31617     31633     31630     31620     31617     31633     31630     31631
     31617     31633     31630     31632     31617     31633     31635     31636
     31617     31637     31640     31641     31618     31617     31633     31630
     31618     31617     31633     31634     31618     31617     31633     31635
     31618     31617     31637     31638     31618     31617     31637     31639
     31618     31617     31637     31640     31619     31615     31620     31621
     31619     31615     31620     31622     31619     31615     31620     31630
     31619     31617     31633     31630     31619     31617     31633     31634
     31619     31617     31633     31635     31619     31617     31637     31638
     31619     31617     31637     31639     31619     31617     31637     31640
     31620     31622     31624     31625     31620     31622     31624     31626
     31620     31630     31632     31642     31620     31630     31633     31634
     31620     31630     31633     31635     31621     31620     31622     31623
     31621     31620     31622     31624     31621     31620     31630     31631
     31621     31620     31630     31632     31621     31620     31630     31633
     31622     31620     31630     31631     31622     31620     31630     31632
     31622     31620     31630     31633     31622     31624     31626     31627
     31622     31624     31626     31628     31622     31624     31626     31629
     31623     31622     31620     31630     31623     31622     31624     31625
     31623     31622     31624     31626     31624     31622     31620     31630
     31625     31624     31626     31627     31625     31624     31626     31628
     31625     31624     31626     31629     31630     31632     31642     31643
     31630     31632     31642     31646     31630     31632     31642     31647
     31630     31633     31617     31637     31630     31633     31635     31636
     31631     31630     31632     31642     31631     31630     31633     31634
     31631     31630     31633     31635     31632     31630     31633     31634
     31632     31630     31633     31635     31632     31642     31646     31644
     31632     31642     31647     31648     31632     31642     31647     31649
     31632     31642     31647     31650     31633     31617     31637     31638
     31633     31617     31637     31639     31633     31617     31637     31640
     31633     31630     31632     31642     31634     31633     31617     31637
     31634     31633     31635     31636     31635     31633     31617     31637
     31638     31637     31640     31641     31639     31637     31640     31641
     31642     31646     31644     31645     31642     31646     31644     31654
     31642     31646     31644     31658     31642     31647     31649     31663
     31642     31647     31650     31651     31642     31647     31650     31652
     31642     31647     31650     31654     31643     31642     31646     31644
     31643     31642     31647     31648     31643     31642     31647     31649
     31643     31642     31647     31650     31644     31646     31642     31647
     31644     31654     31650     31647     31644     31654     31650     31651
     31644     31654     31650     31652     31644     31654     31656     31657
     31644     31658     31661     31662     31645     31644     31654     31650
     31645     31644     31654     31655     31645     31644     31654     31656
     31645     31644     31658     31659     31645     31644     31658     31660
     31645     31644     31658     31661     31646     31642     31647     31648
     31646     31642     31647     31649     31646     31642     31647     31650
     31646     31644     31654     31650     31646     31644     31654     31655
     31646     31644     31654     31656     31646     31644     31658     31659
     31646     31644     31658     31660     31646     31644     31658     31661
     31647     31649     31663     31664     31647     31649     31663     31667
     31647     31649     31663     31668     31647     31650     31652     31653
     31647     31650     31654     31655     31647     31650     31654     31656
     31648     31647     31649     31663     31648     31647     31650     31651
     31648     31647     31650     31652     31648     31647     31650     31654
     31649     31647     31650     31651     31649     31647     31650     31652
     31649     31647     31650     31654     31649     31663     31667     31665
     31649     31663     31668     31669     31649     31663     31668     31670
     31649     31663     31668     31671     31650     31647     31649     31663
     31650     31654     31644     31658     31650     31654     31656     31657
     31651     31650     31652     31653     31651     31650     31654     31655
     31651     31650     31654     31656     31652     31650     31654     31655
     31652     31650     31654     31656     31653     31652     31650     31654
     31654     31644     31658     31659     31654     31644     31658     31660
     31654     31644     31658     31661     31655     31654     31644     31658
     31655     31654     31656     31657     31656     31654     31644     31658
     31659     31658     31661     31662     31660     31658     31661     31662
     31663     31667     31665     31666     31663     31667     31665     31675
     31663     31667     31665     31679     31663     31668     31670     31683
     31663     31668     31671     31672     31663     31668     31671     31673
     31663     31668     31671     31675     31664     31663     31667     31665
     31664     31663     31668     31669     31664     31663     31668     31670
     31664     31663     31668     31671     31665     31667     31663     31668
     31665     31675     31671     31668     31665     31675     31671     31672
     31665     31675     31671     31673     31665     31675     31677     31678
     31666     31665     31675     31671     31666     31665     31675     31676
     31666     31665     31675     31677     31666     31665     31679     31680
     31666     31665     31679     31681     31666     31665     31679     31682
     31667     31663     31668     31669     31667     31663     31668     31670
     31667     31663     31668     31671     31667     31665     31675     31671
     31667     31665     31675     31676     31667     31665     31675     31677
     31667     31665     31679     31680     31667     31665     31679     31681
     31667     31665     31679     31682     31668     31670     31683     31684
     31668     31670     31683     31687     31668     31670     31683     31688
     31668     31671     31673     31674     31668     31671     31675     31676
     31668     31671     31675     31677     31669     31668     31670     31683
     31669     31668     31671     31672     31669     31668     31671     31673
     31669     31668     31671     31675     31670     31668     31671     31672
     31670     31668     31671     31673     31670     31668     31671     31675
     31670     31683     31687     31685     31670     31683     31688     31689
     31670     31683     31688     31690     31670     31683     31688     31691
     31671     31668     31670     31683     31671     31675     31665     31679
     31671     31675     31677     31678     31672     31671     31673     31674
     31672     31671     31675     31676     31672     31671     31675     31677
     31673     31671     31675     31676     31673     31671     31675     31677
     31674     31673     31671     31675     31675     31665     31679     31680
     31675     31665     31679     31681     31675     31665     31679     31682
     31676     31675     31665     31679     31676     31675     31677     31678
     31677     31675     31665     31679     31683     31687     31685     31686
     31683     31687     31685     31694     31683     31687     31685     31698
     31683     31688     31690     31702     31683     31688     31691     31692
     31683     31688     31691     31693     31683     31688     31691     31694
     31684     31683     31687     31685     31684     31683     31688     31689
     31684     31683     31688     31690     31684     31683     31688     31691
     31685     31687     31683     31688     31685     31694     31691     31688
     31685     31694     31691     31692     31685     31694     31691     31693
     31685     31694     31696     31697     31686     31685     31694     31691
     31686     31685     31694     31695     31686     31685     31694     31696
     31686     31685     31698     31699     31686     31685     31698     31700
     31686     31685     31698     31701     31687     31683     31688     31689
     31687     31683     31688     31690     31687     31683     31688     31691
     31687     31685     31694     31691     31687     31685     31694     31695
     31687     31685     31694     31696     31687     31685     31698     31699
     31687     31685     31698     31700     31687     31685     31698     31701
     31688     31690     31702     31703     31688     31690     31702     31706
     31688     31690     31702     31707     31688     31691     31693     31730
     31688     31691     31694     31695     31688     31691     31694     31696
     31689     31688     31690     31702     31689     31688     31691     31692
     31689     31688     31691     31693     31689     31688     31691     31694
     31690     31688     31691     31692     31690     31688     31691     31693
     31690     31688     31691     31694     31690     31702     31706     31704
     31690     31702     31707     31708     31690     31702     31707     31709
     31690     31702     31707     31717     31691     31688     31690     31702
     31691     31693     31730     31731     31691     31693     31730     31734
     31691     31693     31730     31735     31691     31694     31685     31698
     31691     31694     31696     31697     31692     31691     31693     31730
     31692     31691     31694     31695     31692     31691     31694     31696
     31693     31691     31694     31695     31693     31691     31694     31696
     31693     31730     31734     31732     31693     31730     31735     31736
     31693     31730     31735     31737     31693     31730     31735     31745
     31694     31685     31698     31699     31694     31685     31698     31700
     31694     31685     31698     31701     31694     31691     31693     31730
     31695     31694     31685     31698     31695     31694     31696     31697
     31696     31694     31685     31698     31702     31706     31704     31705
     31702     31706     31704     31721     31702     31706     31704     31725
     31702     31707     31709     31710     31702     31707     31709     31711
     31702     31707     31717     31718     31702     31707     31717     31719
     31702     31707     31717     31721     31703     31702     31706     31704
     31703     31702     31707     31708     31703     31702     31707     31709
     31703     31702     31707     31717     31704     31706     31702     31707
     31704     31721     31717     31707     31704     31721     31717     31718
     31704     31721     31717     31719     31704     31721     31723     31724
     31704     31725     31728     31729     31705     31704     31721     31717
     31705     31704     31721     31722     31705     31704     31721     31723
     31705     31704     31725     31726     31705     31704     31725     31727
     31705     31704     31725     31728     31706     31702     31707     31708
     31706     31702     31707     31709     31706     31702     31707     31717
     31706     31704     31721     31717     31706     31704     31721     31722
     31706     31704     31721     31723     31706     31704     31725     31726
     31706     31704     31725     31727     31706     31704     31725     31728
     31707     31709     31711     31712     31707     31709     31711     31713
     31707     31717     31719     31720     31707     31717     31721     31722
     31707     31717     31721     31723     31708     31707     31709     31710
     31708     31707     31709     31711     31708     31707     31717     31718
     31708     31707     31717     31719     31708     31707     31717     31721
     31709     31707     31717     31718     31709     31707     31717     31719
     31709     31707     31717     31721     31709     31711     31713     31714
     31709     31711     31713     31715     31709     31711     31713     31716
     31710     31709     31707     31717     31710     31709     31711     31712
     31710     31709     31711     31713     31711     31709     31707     31717
     31712     31711     31713     31714     31712     31711     31713     31715
     31712     31711     31713     31716     31717     31721     31704     31725
     31717     31721     31723     31724     31718     31717     31719     31720
     31718     31717     31721     31722     31718     31717     31721     31723
     31719     31717     31721     31722     31719     31717     31721     31723
     31720     31719     31717     31721     31721     31704     31725     31726
     31721     31704     31725     31727     31721     31704     31725     31728
     31722     31721     31704     31725     31722     31721     31723     31724
     31723     31721     31704     31725     31726     31725     31728     31729
     31727     31725     31728     31729     31730     31734     31732     31733
     31730     31734     31732     31748     31730     31734     31732     31752
     31730     31735     31737     31738     31730     31735     31737     31739
     31730     31735     31745     31746     31730     31735     31745     31747
     31730     31735     31745     31748     31731     31730     31734     31732
     31731     31730     31735     31736     31731     31730     31735     31737
     31731     31730     31735     31745     31732     31734     31730     31735
     31732     31748     31745     31735     31732     31748     31745     31746
     31732     31748     31745     31747     31732     31748     31750     31751
     31732     31752     31755     31756     31733     31732     31748     31745
     31733     31732     31748     31749     31733     31732     31748     31750
     31733     31732     31752     31753     31733     31732     31752     31754
     31733     31732     31752     31755     31734     31730     31735     31736
     31734     31730     31735     31737     31734     31730     31735     31745
     31734     31732     31748     31745     31734     31732     31748     31749
     31734     31732     31748     31750     31734     31732     31752     31753
     31734     31732     31752     31754     31734     31732     31752     31755
     31735     31737     31739     31740     31735     31737     31739     31741
     31735     31745     31747     31757     31735     31745     31748     31749
     31735     31745     31748     31750     31736     31735     31737     31738
     31736     31735     31737     31739     31736     31735     31745     31746
     31736     31735     31745     31747     31736     31735     31745     31748
     31737     31735     31745     31746     31737     31735     31745     31747
     31737     31735     31745     31748     31737     31739     31741     31742
     31737     31739     31741     31743     31737     31739     31741     31744
     31738     31737     31735     31745     31738     31737     31739     31740
     31738     31737     31739     31741     31739     31737     31735     31745
     31740     31739     31741     31742     31740     31739     31741     31743
     31740     31739     31741     31744     31745     31747     31757     31758
     31745     31747     31757     31761     31745     31747     31757     31762
     31745     31748     31732     31752     31745     31748     31750     31751
     31746     31745     31747     31757     31746     31745     31748     31749
     31746     31745     31748     31750     31747     31745     31748     31749
     31747     31745     31748     31750     31747     31757     31761     31759
     31747     31757     31762     31763     31747     31757     31762     31764
     31747     31757     31762     31765     31748     31732     31752     31753
     31748     31732     31752     31754     31748     31732     31752     31755
     31748     31745     31747     31757     31749     31748     31732     31752
     31749     31748     31750     31751     31750     31748     31732     31752
     31753     31752     31755     31756     31754     31752     31755     31756
     31757     31761     31759     31760     31757     31761     31759     31769
     31757     31761     31759     31773     31757     31762     31764     31778
     31757     31762     31765     31766     31757     31762     31765     31767
     31757     31762     31765     31769     31758     31757     31761     31759
     31758     31757     31762     31763     31758     31757     31762     31764
     31758     31757     31762     31765     31759     31761     31757     31762
     31759     31769     31765     31762     31759     31769     31765     31766
     31759     31769     31765     31767     31759     31769     31771     31772
     31759     31773     31776     31777     31760     31759     31769     31765
     31760     31759     31769     31770     31760     31759     31769     31771
     31760     31759     31773     31774     31760     31759     31773     31775
     31760     31759     31773     31776     31761     31757     31762     31763
     31761     31757     31762     31764     31761     31757     31762     31765
     31761     31759     31769     31765     31761     31759     31769     31770
     31761     31759     31769     31771     31761     31759     31773     31774
     31761     31759     31773     31775     31761     31759     31773     31776
     31762     31764     31778     31779     31762     31764     31778     31782
     31762     31764     31778     31783     31762     31765     31767     31768
     31762     31765     31769     31770     31762     31765     31769     31771
     31763     31762     31764     31778     31763     31762     31765     31766
     31763     31762     31765     31767     31763     31762     31765     31769
     31764     31762     31765     31766     31764     31762     31765     31767
     31764     31762     31765     31769     31764     31778     31782     31780
     31764     31778     31783     31784     31764     31778     31783     31785
     31764     31778     31783     31786     31765     31762     31764     31778
     31765     31769     31759     31773     31765     31769     31771     31772
     31766     31765     31767     31768     31766     31765     31769     31770
     31766     31765     31769     31771     31767     31765     31769     31770
     31767     31765     31769     31771     31768     31767     31765     31769
     31769     31759     31773     31774     31769     31759     31773     31775
     31769     31759     31773     31776     31770     31769     31759     31773
     31770     31769     31771     31772     31771     31769     31759     31773
     31774     31773     31776     31777     31775     31773     31776     31777
     31778     31782     31780     31781     31778     31782     31780     31790
     31778     31782     31780     31794     31778     31783     31785     31798
     31778     31783     31786     31787     31778     31783     31786     31788
     31778     31783     31786     31790     31779     31778     31782     31780
     31779     31778     31783     31784     31779     31778     31783     31785
     31779     31778     31783     31786     31780     31782     31778     31783
     31780     31790     31786     31783     31780     31790     31786     31787
     31780     31790     31786     31788     31780     31790     31792     31793
     31781     31780     31790     31786     31781     31780     31790     31791
     31781     31780     31790     31792     31781     31780     31794     31795
     31781     31780     31794     31796     31781     31780     31794     31797
     31782     31778     31783     31784     31782     31778     31783     31785
     31782     31778     31783     31786     31782     31780     31790     31786
     31782     31780     31790     31791     31782     31780     31790     31792
     31782     31780     31794     31795     31782     31780     31794     31796
     31782     31780     31794     31797     31783     31785     31798     31799
     31783     31785     31798     31802     31783     31785     31798     31803
     31783     31786     31788     31789     31783     31786     31790     31791
     31783     31786     31790     31792     31784     31783     31785     31798
     31784     31783     31786     31787     31784     31783     31786     31788
     31784     31783     31786     31790     31785     31783     31786     31787
     31785     31783     31786     31788     31785     31783     31786     31790
     31785     31798     31802     31800     31785     31798     31803     31804
     31785     31798     31803     31805     31785     31798     31803     31806
     31786     31783     31785     31798     31786     31790     31780     31794
     31786     31790     31792     31793     31787     31786     31788     31789
     31787     31786     31790     31791     31787     31786     31790     31792
     31788     31786     31790     31791     31788     31786     31790     31792
     31789     31788     31786     31790     31790     31780     31794     31795
     31790     31780     31794     31796     31790     31780     31794     31797
     31791     31790     31780     31794     31791     31790     31792     31793
     31792     31790     31780     31794     31798     31802     31800     31801
     31798     31802     31800     31809     31798     31802     31800     31813
     31798     31803     31805     31817     31798     31803     31806     31807
     31798     31803     31806     31808     31798     31803     31806     31809
     31799     31798     31802     31800     31799     31798     31803     31804
     31799     31798     31803     31805     31799     31798     31803     31806
     31800     31802     31798     31803     31800     31809     31806     31803
     31800     31809     31806     31807     31800     31809     31806     31808
     31800     31809     31811     31812     31801     31800     31809     31806
     31801     31800     31809     31810     31801     31800     31809     31811
     31801     31800     31813     31814     31801     31800     31813     31815
     31801     31800     31813     31816     31802     31798     31803     31804
     31802     31798     31803     31805     31802     31798     31803     31806
     31802     31800     31809     31806     31802     31800     31809     31810
     31802     31800     31809     31811     31802     31800     31813     31814
     31802     31800     31813     31815     31802     31800     31813     31816
     31803     31805     31817     31818     31803     31805     31817     31821
     31803     31805     31817     31822     31803     31806     31808     31845
     31803     31806     31809     31810     31803     31806     31809     31811
     31804     31803     31805     31817     31804     31803     31806     31807
     31804     31803     31806     31808     31804     31803     31806     31809
     31805     31803     31806     31807     31805     31803     31806     31808
     31805     31803     31806     31809     31805     31817     31821     31819
     31805     31817     31822     31823     31805     31817     31822     31824
     31805     31817     31822     31832     31806     31803     31805     31817
     31806     31808     31845     31846     31806     31808     31845     31849
     31806     31808     31845     31850     31806     31809     31800     31813
     31806     31809     31811     31812     31807     31806     31808     31845
     31807     31806     31809     31810     31807     31806     31809     31811
     31808     31806     31809     31810     31808     31806     31809     31811
     31808     31845     31849     31847     31808     31845     31850     31851
     31808     31845     31850     31852     31808     31845     31850     31860
     31809     31800     31813     31814     31809     31800     31813     31815
     31809     31800     31813     31816     31809     31806     31808     31845
     31810     31809     31800     31813     31810     31809     31811     31812
     31811     31809     31800     31813     31817     31821     31819     31820
     31817     31821     31819     31836     31817     31821     31819     31840
     31817     31822     31824     31825     31817     31822     31824     31826
     31817     31822     31832     31833     31817     31822     31832     31834
     31817     31822     31832     31836     31818     31817     31821     31819
     31818     31817     31822     31823     31818     31817     31822     31824
     31818     31817     31822     31832     31819     31821     31817     31822
     31819     31836     31832     31822     31819     31836     31832     31833
     31819     31836     31832     31834     31819     31836     31838     31839
     31819     31840     31843     31844     31820     31819     31836     31832
     31820     31819     31836     31837     31820     31819     31836     31838
     31820     31819     31840     31841     31820     31819     31840     31842
     31820     31819     31840     31843     31821     31817     31822     31823
     31821     31817     31822     31824     31821     31817     31822     31832
     31821     31819     31836     31832     31821     31819     31836     31837
     31821     31819     31836     31838     31821     31819     31840     31841
     31821     31819     31840     31842     31821     31819     31840     31843
     31822     31824     31826     31827     31822     31824     31826     31828
     31822     31832     31834     31835     31822     31832     31836     31837
     31822     31832     31836     31838     31823     31822     31824     31825
     31823     31822     31824     31826     31823     31822     31832     31833
     31823     31822     31832     31834     31823     31822     31832     31836
     31824     31822     31832     31833     31824     31822     31832     31834
     31824     31822     31832     31836     31824     31826     31828     31829
     31824     31826     31828     31830     31824     31826     31828     31831
     31825     31824     31822     31832     31825     31824     31826     31827
     31825     31824     31826     31828     31826     31824     31822     31832
     31827     31826     31828     31829     31827     31826     31828     31830
     31827     31826     31828     31831     31832     31836     31819     31840
     31832     31836     31838     31839     31833     31832     31834     31835
     31833     31832     31836     31837     31833     31832     31836     31838
     31834     31832     31836     31837     31834     31832     31836     31838
     31835     31834     31832     31836     31836     31819     31840     31841
     31836     31819     31840     31842     31836     31819     31840     31843
     31837     31836     31819     31840     31837     31836     31838     31839
     31838     31836     31819     31840     31841     31840     31843     31844
     31842     31840     31843     31844     31845     31849     31847     31848
     31845     31849     31847     31863     31845     31849     31847     31867
     31845     31850     31852     31853     31845     31850     31852     31854
     31845     31850     31860     31861     31845     31850     31860     31862
     31845     31850     31860     31863     31846     31845     31849     31847
     31846     31845     31850     31851     31846     31845     31850     31852
     31846     31845     31850     31860     31847     31849     31845     31850
     31847     31863     31860     31850     31847     31863     31860     31861
     31847     31863     31860     31862     31847     31863     31865     31866
     31847     31867     31870     31871     31848     31847     31863     31860
     31848     31847     31863     31864     31848     31847     31863     31865
     31848     31847     31867     31868     31848     31847     31867     31869
     31848     31847     31867     31870     31849     31845     31850     31851
     31849     31845     31850     31852     31849     31845     31850     31860
     31849     31847     31863     31860     31849     31847     31863     31864
     31849     31847     31863     31865     31849     31847     31867     31868
     31849     31847     31867     31869     31849     31847     31867     31870
     31850     31852     31854     31855     31850     31852     31854     31856
     31850     31860     31862     31872     31850     31860     31863     31864
     31850     31860     31863     31865     31851     31850     31852     31853
     31851     31850     31852     31854     31851     31850     31860     31861
     31851     31850     31860     31862     31851     31850     31860     31863
     31852     31850     31860     31861     31852     31850     31860     31862
     31852     31850     31860     31863     31852     31854     31856     31857
     31852     31854     31856     31858     31852     31854     31856     31859
     31853     31852     31850     31860     31853     31852     31854     31855
     31853     31852     31854     31856     31854     31852     31850     31860
     31855     31854     31856     31857     31855     31854     31856     31858
     31855     31854     31856     31859     31860     31862     31872     31873
     31860     31862     31872     31876     31860     31862     31872     31877
     31860     31863     31847     31867     31860     31863     31865     31866
     31861     31860     31862     31872     31861     31860     31863     31864
     31861     31860     31863     31865     31862     31860     31863     31864
     31862     31860     31863     31865     31862     31872     31876     31874
     31862     31872     31877     31878     31862     31872     31877     31879
     31862     31872     31877     31880     31863     31847     31867     31868
     31863     31847     31867     31869     31863     31847     31867     31870
     31863     31860     31862     31872     31864     31863     31847     31867
     31864     31863     31865     31866     31865     31863     31847     31867
     31868     31867     31870     31871     31869     31867     31870     31871
     31872     31876     31874     31875     31872     31876     31874     31884
     31872     31876     31874     31888     31872     31877     31879     31893
     31872     31877     31880     31881     31872     31877     31880     31882
     31872     31877     31880     31884     31873     31872     31876     31874
     31873     31872     31877     31878     31873     31872     31877     31879
     31873     31872     31877     31880     31874     31876     31872     31877
     31874     31884     31880     31877     31874     31884     31880     31881
     31874     31884     31880     31882     31874     31884     31886     31887
     31874     31888     31891     31892     31875     31874     31884     31880
     31875     31874     31884     31885     31875     31874     31884     31886
     31875     31874     31888     31889     31875     31874     31888     31890
     31875     31874     31888     31891     31876     31872     31877     31878
     31876     31872     31877     31879     31876     31872     31877     31880
     31876     31874     31884     31880     31876     31874     31884     31885
     31876     31874     31884     31886     31876     31874     31888     31889
     31876     31874     31888     31890     31876     31874     31888     31891
     31877     31879     31893     31894     31877     31879     31893     31897
     31877     31879     31893     31898     31877     31880     31882     31883
     31877     31880     31884     31885     31877     31880     31884     31886
     31878     31877     31879     31893     31878     31877     31880     31881
     31878     31877     31880     31882     31878     31877     31880     31884
     31879     31877     31880     31881     31879     31877     31880     31882
     31879     31877     31880     31884     31879     31893     31897     31895
     31879     31893     31898     31899     31879     31893     31898     31900
     31879     31893     31898     31901     31880     31877     31879     31893
     31880     31884     31874     31888     31880     31884     31886     31887
     31881     31880     31882     31883     31881     31880     31884     31885
     31881     31880     31884     31886     31882     31880     31884     31885
     31882     31880     31884     31886     31883     31882     31880     31884
     31884     31874     31888     31889     31884     31874     31888     31890
     31884     31874     31888     31891     31885     31884     31874     31888
     31885     31884     31886     31887     31886     31884     31874     31888
     31889     31888     31891     31892     31890     31888     31891     31892
     31893     31897     31895     31896     31893     31897     31895     31905
     31893     31897     31895     31909     31893     31898     31900     31913
     31893     31898     31901     31902     31893     31898     31901     31903
     31893     31898     31901     31905     31894     31893     31897     31895
     31894     31893     31898     31899     31894     31893     31898     31900
     31894     31893     31898     31901     31895     31897     31893     31898
     31895     31905     31901     31898     31895     31905     31901     31902
     31895     31905     31901     31903     31895     31905     31907     31908
     31896     31895     31905     31901     31896     31895     31905     31906
     31896     31895     31905     31907     31896     31895     31909     31910
     31896     31895     31909     31911     31896     31895     31909     31912
     31897     31893     31898     31899     31897     31893     31898     31900
     31897     31893     31898     31901     31897     31895     31905     31901
     31897     31895     31905     31906     31897     31895     31905     31907
     31897     31895     31909     31910     31897     31895     31909     31911
     31897     31895     31909     31912     31898     31900     31913     31914
     31898     31900     31913     31917     31898     31900     31913     31918
     31898     31901     31903     31904     31898     31901     31905     31906
     31898     31901     31905     31907     31899     31898     31900     31913
     31899     31898     31901     31902     31899     31898     31901     31903
     31899     31898     31901     31905     31900     31898     31901     31902
     31900     31898     31901     31903     31900     31898     31901     31905
     31900     31913     31917     31915     31900     31913     31918     31919
     31900     31913     31918     31920     31900     31913     31918     31921
     31901     31898     31900     31913     31901     31905     31895     31909
     31901     31905     31907     31908     31902     31901     31903     31904
     31902     31901     31905     31906     31902     31901     31905     31907
     31903     31901     31905     31906     31903     31901     31905     31907
     31904     31903     31901     31905     31905     31895     31909     31910
     31905     31895     31909     31911     31905     31895     31909     31912
     31906     31905     31895     31909     31906     31905     31907     31908
     31907     31905     31895     31909     31913     31917     31915     31916
     31913     31917     31915     31924     31913     31917     31915     31928
     31913     31918     31920     31932     31913     31918     31921     31922
     31913     31918     31921     31923     31913     31918     31921     31924
     31914     31913     31917     31915     31914     31913     31918     31919
     31914     31913     31918     31920     31914     31913     31918     31921
     31915     31917     31913     31918     31915     31924     31921     31918
     31915     31924     31921     31922     31915     31924     31921     31923
     31915     31924     31926     31927     31916     31915     31924     31921
     31916     31915     31924     31925     31916     31915     31924     31926
     31916     31915     31928     31929     31916     31915     31928     31930
     31916     31915     31928     31931     31917     31913     31918     31919
     31917     31913     31918     31920     31917     31913     31918     31921
     31917     31915     31924     31921     31917     31915     31924     31925
     31917     31915     31924     31926     31917     31915     31928     31929
     31917     31915     31928     31930     31917     31915     31928     31931
     31918     31920     31932     31933     31918     31920     31932     31936
     31918     31920     31932     31937     31918     31921     31923     31960
     31918     31921     31924     31925     31918     31921     31924     31926
     31919     31918     31920     31932     31919     31918     31921     31922
     31919     31918     31921     31923     31919     31918     31921     31924
     31920     31918     31921     31922     31920     31918     31921     31923
     31920     31918     31921     31924     31920     31932     31936     31934
     31920     31932     31937     31938     31920     31932     31937     31939
     31920     31932     31937     31947     31921     31918     31920     31932
     31921     31923     31960     31961     31921     31923     31960     31964
     31921     31923     31960     31965     31921     31924     31915     31928
     31921     31924     31926     31927     31922     31921     31923     31960
     31922     31921     31924     31925     31922     31921     31924     31926
     31923     31921     31924     31925     31923     31921     31924     31926
     31923     31960     31964     31962     31923     31960     31965     31966
     31923     31960     31965     31967     31923     31960     31965     31975
     31924     31915     31928     31929     31924     31915     31928     31930
     31924     31915     31928     31931     31924     31921     31923     31960
     31925     31924     31915     31928     31925     31924     31926     31927
     31926     31924     31915     31928     31932     31936     31934     31935
     31932     31936     31934     31951     31932     31936     31934     31955
     31932     31937     31939     31940     31932     31937     31939     31941
     31932     31937     31947     31948     31932     31937     31947     31949
     31932     31937     31947     31951     31933     31932     31936     31934
     31933     31932     31937     31938     31933     31932     31937     31939
     31933     31932     31937     31947     31934     31936     31932     31937
     31934     31951     31947     31937     31934     31951     31947     31948
     31934     31951     31947     31949     31934     31951     31953     31954
     31934     31955     31958     31959     31935     31934     31951     31947
     31935     31934     31951     31952     31935     31934     31951     31953
     31935     31934     31955     31956     31935     31934     31955     31957
     31935     31934     31955     31958     31936     31932     31937     31938
     31936     31932     31937     31939     31936     31932     31937     31947
     31936     31934     31951     31947     31936     31934     31951     31952
     31936     31934     31951     31953     31936     31934     31955     31956
     31936     31934     31955     31957     31936     31934     31955     31958
     31937     31939     31941     31942     31937     31939     31941     31943
     31937     31947     31949     31950     31937     31947     31951     31952
     31937     31947     31951     31953     31938     31937     31939     31940
     31938     31937     31939     31941     31938     31937     31947     31948
     31938     31937     31947     31949     31938     31937     31947     31951
     31939     31937     31947     31948     31939     31937     31947     31949
     31939     31937     31947     31951     31939     31941     31943     31944
     31939     31941     31943     31945     31939     31941     31943     31946
     31940     31939     31937     31947     31940     31939     31941     31942
     31940     31939     31941     31943     31941     31939     31937     31947
     31942     31941     31943     31944     31942     31941     31943     31945
     31942     31941     31943     31946     31947     31951     31934     31955
     31947     31951     31953     31954     31948     31947     31949     31950
     31948     31947     31951     31952     31948     31947     31951     31953
     31949     31947     31951     31952     31949     31947     31951     31953
     31950     31949     31947     31951     31951     31934     31955     31956
     31951     31934     31955     31957     31951     31934     31955     31958
     31952     31951     31934     31955     31952     31951     31953     31954
     31953     31951     31934     31955     31956     31955     31958     31959
     31957     31955     31958     31959     31960     31964     31962     31963
     31960     31964     31962     31978     31960     31964     31962     31982
     31960     31965     31967     31968     31960     31965     31967     31969
     31960     31965     31975     31976     31960     31965     31975     31977
     31960     31965     31975     31978     31961     31960     31964     31962
     31961     31960     31965     31966     31961     31960     31965     31967
     31961     31960     31965     31975     31962     31964     31960     31965
     31962     31978     31975     31965     31962     31978     31975     31976
     31962     31978     31975     31977     31962     31978     31980     31981
     31962     31982     31985     31986     31963     31962     31978     31975
     31963     31962     31978     31979     31963     31962     31978     31980
     31963     31962     31982     31983     31963     31962     31982     31984
     31963     31962     31982     31985     31964     31960     31965     31966
     31964     31960     31965     31967     31964     31960     31965     31975
     31964     31962     31978     31975     31964     31962     31978     31979
     31964     31962     31978     31980     31964     31962     31982     31983
     31964     31962     31982     31984     31964     31962     31982     31985
     31965     31967     31969     31970     31965     31967     31969     31971
     31965     31975     31977     31987     31965     31975     31978     31979
     31965     31975     31978     31980     31966     31965     31967     31968
     31966     31965     31967     31969     31966     31965     31975     31976
     31966     31965     31975     31977     31966     31965     31975     31978
     31967     31965     31975     31976     31967     31965     31975     31977
     31967     31965     31975     31978     31967     31969     31971     31972
     31967     31969     31971     31973     31967     31969     31971     31974
     31968     31967     31965     31975     31968     31967     31969     31970
     31968     31967     31969     31971     31969     31967     31965     31975
     31970     31969     31971     31972     31970     31969     31971     31973
     31970     31969     31971     31974     31975     31977     31987     31988
     31975     31977     31987     31991     31975     31977     31987     31992
     31975     31978     31962     31982     31975     31978     31980     31981
     31976     31975     31977     31987     31976     31975     31978     31979
     31976     31975     31978     31980     31977     31975     31978     31979
     31977     31975     31978     31980     31977     31987     31991     31989
     31977     31987     31992     31993     31977     31987     31992     31994
     31977     31987     31992     31995     31978     31962     31982     31983
     31978     31962     31982     31984     31978     31962     31982     31985
     31978     31975     31977     31987     31979     31978     31962     31982
     31979     31978     31980     31981     31980     31978     31962     31982
     31983     31982     31985     31986     31984     31982     31985     31986
     31987     31991     31989     31990     31987     31991     31989     31999
     31987     31991     31989     32003     31987     31992     31994     32008
     31987     31992     31995     31996     31987     31992     31995     31997
     31987     31992     31995     31999     31988     31987     31991     31989
     31988     31987     31992     31993     31988     31987     31992     31994
     31988     31987     31992     31995     31989     31991     31987     31992
     31989     31999     31995     31992     31989     31999     31995     31996
     31989     31999     31995     31997     31989     31999     32001     32002
     31989     32003     32006     32007     31990     31989     31999     31995
     31990     31989     31999     32000     31990     31989     31999     32001
     31990     31989     32003     32004     31990     31989     32003     32005
     31990     31989     32003     32006     31991     31987     31992     31993
     31991     31987     31992     31994     31991     31987     31992     31995
     31991     31989     31999     31995     31991     31989     31999     32000
     31991     31989     31999     32001     31991     31989     32003     32004
     31991     31989     32003     32005     31991     31989     32003     32006
     31992     31994     32008     32009     31992     31994     32008     32012
     31992     31994     32008     32013     31992     31995     31997     31998
     31992     31995     31999     32000     31992     31995     31999     32001
     31993     31992     31994     32008     31993     31992     31995     31996
     31993     31992     31995     31997     31993     31992     31995     31999
     31994     31992     31995     31996     31994     31992     31995     31997
     31994     31992     31995     31999     31994     32008     32012     32010
     31994     32008     32013     32014     31994     32008     32013     32015
     31994     32008     32013     32016     31995     31992     31994     32008
     31995     31999     31989     32003     31995     31999     32001     32002
     31996     31995     31997     31998     31996     31995     31999     32000
     31996     31995     31999     32001     31997     31995     31999     32000
     31997     31995     31999     32001     31998     31997     31995     31999
     31999     31989     32003     32004     31999     31989     32003     32005
     31999     31989     32003     32006     32000     31999     31989     32003
     32000     31999     32001     32002     32001     31999     31989     32003
     32004     32003     32006     32007     32005     32003     32006     32007
     32008     32012     32010     32011     32008     32012     32010     32020
     32008     32012     32010     32024     32008     32013     32015     32028
     32008     32013     32016     32017     32008     32013     32016     32018
     32008     32013     32016     32020     32009     32008     32012     32010
     32009     32008     32013     32014     32009     32008     32013     32015
     32009     32008     32013     32016     32010     32012     32008     32013
     32010     32020     32016     32013     32010     32020     32016     32017
     32010     32020     32016     32018     32010     32020     32022     32023
     32011     32010     32020     32016     32011     32010     32020     32021
     32011     32010     32020     32022     32011     32010     32024     32025
     32011     32010     32024     32026     32011     32010     32024     32027
     32012     32008     32013     32014     32012     32008     32013     32015
     32012     32008     32013     32016     32012     32010     32020     32016
     32012     32010     32020     32021     32012     32010     32020     32022
     32012     32010     32024     32025     32012     32010     32024     32026
     32012     32010     32024     32027     32013     32015     32028     32029
     32013     32015     32028     32032     32013     32015     32028     32033
     32013     32016     32018     32019     32013     32016     32020     32021
     32013     32016     32020     32022     32014     32013     32015     32028
     32014     32013     32016     32017     32014     32013     32016     32018
     32014     32013     32016     32020     32015     32013     32016     32017
     32015     32013     32016     32018     32015     32013     32016     32020
     32015     32028     32032     32030     32015     32028     32033     32034
     32015     32028     32033     32035     32015     32028     32033     32036
     32016     32013     32015     32028     32016     32020     32010     32024
     32016     32020     32022     32023     32017     32016     32018     32019
     32017     32016     32020     32021     32017     32016     32020     32022
     32018     32016     32020     32021     32018     32016     32020     32022
     32019     32018     32016     32020     32020     32010     32024     32025
     32020     32010     32024     32026     32020     32010     32024     32027
     32021     32020     32010     32024     32021     32020     32022     32023
     32022     32020     32010     32024     32028     32032     32030     32031
     32028     32032     32030     32039     32028     32032     32030     32043
     32028     32033     32035     32047     32028     32033     32036     32037
     32028     32033     32036     32038     32028     32033     32036     32039
     32029     32028     32032     32030     32029     32028     32033     32034
     32029     32028     32033     32035     32029     32028     32033     32036
     32030     32032     32028     32033     32030     32039     32036     32033
     32030     32039     32036     32037     32030     32039     32036     32038
     32030     32039     32041     32042     32031     32030     32039     32036
     32031     32030     32039     32040     32031     32030     32039     32041
     32031     32030     32043     32044     32031     32030     32043     32045
     32031     32030     32043     32046     32032     32028     32033     32034
     32032     32028     32033     32035     32032     32028     32033     32036
     32032     32030     32039     32036     32032     32030     32039     32040
     32032     32030     32039     32041     32032     32030     32043     32044
     32032     32030     32043     32045     32032     32030     32043     32046
     32033     32035     32047     32048     32033     32035     32047     32051
     32033     32035     32047     32052     32033     32036     32038     32075
     32033     32036     32039     32040     32033     32036     32039     32041
     32034     32033     32035     32047     32034     32033     32036     32037
     32034     32033     32036     32038     32034     32033     32036     32039
     32035     32033     32036     32037     32035     32033     32036     32038
     32035     32033     32036     32039     32035     32047     32051     32049
     32035     32047     32052     32053     32035     32047     32052     32054
     32035     32047     32052     32062     32036     32033     32035     32047
     32036     32038     32075     32076     32036     32038     32075     32079
     32036     32038     32075     32080     32036     32039     32030     32043
     32036     32039     32041     32042     32037     32036     32038     32075
     32037     32036     32039     32040     32037     32036     32039     32041
     32038     32036     32039     32040     32038     32036     32039     32041
     32038     32075     32079     32077     32038     32075     32080     32081
     32038     32075     32080     32082     32038     32075     32080     32090
     32039     32030     32043     32044     32039     32030     32043     32045
     32039     32030     32043     32046     32039     32036     32038     32075
     32040     32039     32030     32043     32040     32039     32041     32042
     32041     32039     32030     32043     32047     32051     32049     32050
     32047     32051     32049     32066     32047     32051     32049     32070
     32047     32052     32054     32055     32047     32052     32054     32056
     32047     32052     32062     32063     32047     32052     32062     32064
     32047     32052     32062     32066     32048     32047     32051     32049
     32048     32047     32052     32053     32048     32047     32052     32054
     32048     32047     32052     32062     32049     32051     32047     32052
     32049     32066     32062     32052     32049     32066     32062     32063
     32049     32066     32062     32064     32049     32066     32068     32069
     32049     32070     32073     32074     32050     32049     32066     32062
     32050     32049     32066     32067     32050     32049     32066     32068
     32050     32049     32070     32071     32050     32049     32070     32072
     32050     32049     32070     32073     32051     32047     32052     32053
     32051     32047     32052     32054     32051     32047     32052     32062
     32051     32049     32066     32062     32051     32049     32066     32067
     32051     32049     32066     32068     32051     32049     32070     32071
     32051     32049     32070     32072     32051     32049     32070     32073
     32052     32054     32056     32057     32052     32054     32056     32058
     32052     32062     32064     32065     32052     32062     32066     32067
     32052     32062     32066     32068     32053     32052     32054     32055
     32053     32052     32054     32056     32053     32052     32062     32063
     32053     32052     32062     32064     32053     32052     32062     32066
     32054     32052     32062     32063     32054     32052     32062     32064
     32054     32052     32062     32066     32054     32056     32058     32059
     32054     32056     32058     32060     32054     32056     32058     32061
     32055     32054     32052     32062     32055     32054     32056     32057
     32055     32054     32056     32058     32056     32054     32052     32062
     32057     32056     32058     32059     32057     32056     32058     32060
     32057     32056     32058     32061     32062     32066     32049     32070
     32062     32066     32068     32069     32063     32062     32064     32065
     32063     32062     32066     32067     32063     32062     32066     32068
     32064     32062     32066     32067     32064     32062     32066     32068
     32065     32064     32062     32066     32066     32049     32070     32071
     32066     32049     32070     32072     32066     32049     32070     32073
     32067     32066     32049     32070     32067     32066     32068     32069
     32068     32066     32049     32070     32071     32070     32073     32074
     32072     32070     32073     32074     32075     32079     32077     32078
     32075     32079     32077     32093     32075     32079     32077     32097
     32075     32080     32082     32083     32075     32080     32082     32084
     32075     32080     32090     32091     32075     32080     32090     32092
     32075     32080     32090     32093     32076     32075     32079     32077
     32076     32075     32080     32081     32076     32075     32080     32082
     32076     32075     32080     32090     32077     32079     32075     32080
     32077     32093     32090     32080     32077     32093     32090     32091
     32077     32093     32090     32092     32077     32093     32095     32096
     32077     32097     32100     32101     32078     32077     32093     32090
     32078     32077     32093     32094     32078     32077     32093     32095
     32078     32077     32097     32098     32078     32077     32097     32099
     32078     32077     32097     32100     32079     32075     32080     32081
     32079     32075     32080     32082     32079     32075     32080     32090
     32079     32077     32093     32090     32079     32077     32093     32094
     32079     32077     32093     32095     32079     32077     32097     32098
     32079     32077     32097     32099     32079     32077     32097     32100
     32080     32082     32084     32085     32080     32082     32084     32086
     32080     32090     32092     32102     32080     32090     32093     32094
     32080     32090     32093     32095     32081     32080     32082     32083
     32081     32080     32082     32084     32081     32080     32090     32091
     32081     32080     32090     32092     32081     32080     32090     32093
     32082     32080     32090     32091     32082     32080     32090     32092
     32082     32080     32090     32093     32082     32084     32086     32087
     32082     32084     32086     32088     32082     32084     32086     32089
     32083     32082     32080     32090     32083     32082     32084     32085
     32083     32082     32084     32086     32084     32082     32080     32090
     32085     32084     32086     32087     32085     32084     32086     32088
     32085     32084     32086     32089     32090     32092     32102     32103
     32090     32092     32102     32106     32090     32092     32102     32107
     32090     32093     32077     32097     32090     32093     32095     32096
     32091     32090     32092     32102     32091     32090     32093     32094
     32091     32090     32093     32095     32092     32090     32093     32094
     32092     32090     32093     32095     32092     32102     32106     32104
     32092     32102     32107     32108     32092     32102     32107     32109
     32092     32102     32107     32110     32093     32077     32097     32098
     32093     32077     32097     32099     32093     32077     32097     32100
     32093     32090     32092     32102     32094     32093     32077     32097
     32094     32093     32095     32096     32095     32093     32077     32097
     32098     32097     32100     32101     32099     32097     32100     32101
     32102     32106     32104     32105     32102     32106     32104     32114
     32102     32106     32104     32118     32102     32107     32109     32123
     32102     32107     32110     32111     32102     32107     32110     32112
     32102     32107     32110     32114     32103     32102     32106     32104
     32103     32102     32107     32108     32103     32102     32107     32109
     32103     32102     32107     32110     32104     32106     32102     32107
     32104     32114     32110     32107     32104     32114     32110     32111
     32104     32114     32110     32112     32104     32114     32116     32117
     32104     32118     32121     32122     32105     32104     32114     32110
     32105     32104     32114     32115     32105     32104     32114     32116
     32105     32104     32118     32119     32105     32104     32118     32120
     32105     32104     32118     32121     32106     32102     32107     32108
     32106     32102     32107     32109     32106     32102     32107     32110
     32106     32104     32114     32110     32106     32104     32114     32115
     32106     32104     32114     32116     32106     32104     32118     32119
     32106     32104     32118     32120     32106     32104     32118     32121
     32107     32109     32123     32124     32107     32109     32123     32127
     32107     32109     32123     32128     32107     32110     32112     32113
     32107     32110     32114     32115     32107     32110     32114     32116
     32108     32107     32109     32123     32108     32107     32110     32111
     32108     32107     32110     32112     32108     32107     32110     32114
     32109     32107     32110     32111     32109     32107     32110     32112
     32109     32107     32110     32114     32109     32123     32127     32125
     32109     32123     32128     32129     32109     32123     32128     32130
     32109     32123     32128     32131     32110     32107     32109     32123
     32110     32114     32104     32118     32110     32114     32116     32117
     32111     32110     32112     32113     32111     32110     32114     32115
     32111     32110     32114     32116     32112     32110     32114     32115
     32112     32110     32114     32116     32113     32112     32110     32114
     32114     32104     32118     32119     32114     32104     32118     32120
     32114     32104     32118     32121     32115     32114     32104     32118
     32115     32114     32116     32117     32116     32114     32104     32118
     32119     32118     32121     32122     32120     32118     32121     32122
     32123     32127     32125     32126     32123     32127     32125     32135
     32123     32127     32125     32139     32123     32128     32130     32143
     32123     32128     32131     32132     32123     32128     32131     32133
     32123     32128     32131     32135     32124     32123     32127     32125
     32124     32123     32128     32129     32124     32123     32128     32130
     32124     32123     32128     32131     32125     32127     32123     32128
     32125     32135     32131     32128     32125     32135     32131     32132
     32125     32135     32131     32133     32125     32135     32137     32138
     32126     32125     32135     32131     32126     32125     32135     32136
     32126     32125     32135     32137     32126     32125     32139     32140
     32126     32125     32139     32141     32126     32125     32139     32142
     32127     32123     32128     32129     32127     32123     32128     32130
     32127     32123     32128     32131     32127     32125     32135     32131
     32127     32125     32135     32136     32127     32125     32135     32137
     32127     32125     32139     32140     32127     32125     32139     32141
     32127     32125     32139     32142     32128     32130     32143     32144
     32128     32130     32143     32147     32128     32130     32143     32148
     32128     32131     32133     32134     32128     32131     32135     32136
     32128     32131     32135     32137     32129     32128     32130     32143
     32129     32128     32131     32132     32129     32128     32131     32133
     32129     32128     32131     32135     32130     32128     32131     32132
     32130     32128     32131     32133     32130     32128     32131     32135
     32130     32143     32147     32145     32130     32143     32148     32149
     32130     32143     32148     32150     32130     32143     32148     32151
     32131     32128     32130     32143     32131     32135     32125     32139
     32131     32135     32137     32138     32132     32131     32133     32134
     32132     32131     32135     32136     32132     32131     32135     32137
     32133     32131     32135     32136     32133     32131     32135     32137
     32134     32133     32131     32135     32135     32125     32139     32140
     32135     32125     32139     32141     32135     32125     32139     32142
     32136     32135     32125     32139     32136     32135     32137     32138
     32137     32135     32125     32139     32143     32147     32145     32146
     32143     32147     32145     32155     32143     32147     32145     32159
     32143     32148     32150     32163     32143     32148     32151     32152
     32143     32148     32151     32153     32143     32148     32151     32155
     32144     32143     32147     32145     32144     32143     32148     32149
     32144     32143     32148     32150     32144     32143     32148     32151
     32145     32147     32143     32148     32145     32155     32151     32148
     32145     32155     32151     32152     32145     32155     32151     32153
     32145     32155     32157     32158     32146     32145     32155     32151
     32146     32145     32155     32156     32146     32145     32155     32157
     32146     32145     32159     32160     32146     32145     32159     32161
     32146     32145     32159     32162     32147     32143     32148     32149
     32147     32143     32148     32150     32147     32143     32148     32151
     32147     32145     32155     32151     32147     32145     32155     32156
     32147     32145     32155     32157     32147     32145     32159     32160
     32147     32145     32159     32161     32147     32145     32159     32162
     32148     32150     32163     32164     32148     32150     32163     32167
     32148     32150     32163     32168     32148     32151     32153     32154
     32148     32151     32155     32156     32148     32151     32155     32157
     32149     32148     32150     32163     32149     32148     32151     32152
     32149     32148     32151     32153     32149     32148     32151     32155
     32150     32148     32151     32152     32150     32148     32151     32153
     32150     32148     32151     32155     32150     32163     32167     32165
     32150     32163     32168     32169     32150     32163     32168     32170
     32150     32163     32168     32178     32151     32148     32150     32163
     32151     32155     32145     32159     32151     32155     32157     32158
     32152     32151     32153     32154     32152     32151     32155     32156
     32152     32151     32155     32157     32153     32151     32155     32156
     32153     32151     32155     32157     32154     32153     32151     32155
     32155     32145     32159     32160     32155     32145     32159     32161
     32155     32145     32159     32162     32156     32155     32145     32159
     32156     32155     32157     32158     32157     32155     32145     32159
     32163     32167     32165     32166     32163     32167     32165     32182
     32163     32167     32165     32186     32163     32168     32170     32171
     32163     32168     32170     32172     32163     32168     32178     32179
     32163     32168     32178     32180     32163     32168     32178     32182
     32164     32163     32167     32165     32164     32163     32168     32169
     32164     32163     32168     32170     32164     32163     32168     32178
     32165     32167     32163     32168     32165     32182     32178     32168
     32165     32182     32178     32179     32165     32182     32178     32180
     32165     32182     32184     32185     32165     32186     32189     32190
     32166     32165     32182     32178     32166     32165     32182     32183
     32166     32165     32182     32184     32166     32165     32186     32187
     32166     32165     32186     32188     32166     32165     32186     32189
     32167     32163     32168     32169     32167     32163     32168     32170
     32167     32163     32168     32178     32167     32165     32182     32178
     32167     32165     32182     32183     32167     32165     32182     32184
     32167     32165     32186     32187     32167     32165     32186     32188
     32167     32165     32186     32189     32168     32170     32172     32173
     32168     32170     32172     32174     32168     32178     32180     32181
     32168     32178     32182     32183     32168     32178     32182     32184
     32169     32168     32170     32171     32169     32168     32170     32172
     32169     32168     32178     32179     32169     32168     32178     32180
     32169     32168     32178     32182     32170     32168     32178     32179
     32170     32168     32178     32180     32170     32168     32178     32182
     32170     32172     32174     32175     32170     32172     32174     32176
     32170     32172     32174     32177     32171     32170     32168     32178
     32171     32170     32172     32173     32171     32170     32172     32174
     32172     32170     32168     32178     32173     32172     32174     32175
     32173     32172     32174     32176     32173     32172     32174     32177
     32178     32182     32165     32186     32178     32182     32184     32185
     32179     32178     32180     32181     32179     32178     32182     32183
     32179     32178     32182     32184     32180     32178     32182     32183
     32180     32178     32182     32184     32181     32180     32178     32182
     32182     32165     32186     32187     32182     32165     32186     32188
     32182     32165     32186     32189     32183     32182     32165     32186
     32183     32182     32184     32185     32184     32182     32165     32186
     32187     32186     32189     32190     32188     32186     32189     32190
     32191     32193     32192     32490     32191     32193     32195     32196
     32191     32193     32195     32197     32191     32193     32195     32204
     32192     32193     32195     32196     32192     32193     32195     32197
     32192     32193     32195     32204     32192     32490     32487     32488
     32192     32490     32487     32489     32192     32490     32493     32491
     32192     32490     32494     32495     32192     32490     32494     32496
     32192     32490     32494     32497     32193     32192     32490     32487
     32193     32192     32490     32493     32193     32192     32490     32494
     32193     32195     32196     32198     32193     32195     32204     32205
     32193     32195     32204     32206     32193     32195     32204     32211
     32194     32193     32192     32490     32194     32193     32195     32196
     32194     32193     32195     32197     32194     32193     32195     32204
     32195     32193     32192     32490     32195     32196     32198     32199
     32195     32196     32198     32200     32195     32196     32198     32219
     32195     32204     32206     32207     32195     32204     32211     32212
     32195     32204     32211     32213     32195     32204     32211     32219
     32196     32195     32204     32205     32196     32195     32204     32206
     32196     32195     32204     32211     32196     32198     32200     32201
     32196     32198     32219     32211     32196     32198     32219     32220
     32196     32198     32219     32221     32197     32195     32196     32198
     32197     32195     32204     32205     32197     32195     32204     32206
     32197     32195     32204     32211     32198     32196     32195     32204
     32198     32200     32201     32202     32198     32200     32201     32203
     32198     32200     32201     32227     32198     32219     32211     32204
     32198     32219     32211     32212     32198     32219     32211     32213
     32198     32219     32221     32222     32198     32219     32221     32328
     32199     32198     32200     32201     32199     32198     32219     32211
     32199     32198     32219     32220     32199     32198     32219     32221
     32200     32198     32219     32211     32200     32198     32219     32220
     32200     32198     32219     32221     32200     32201     32227     32223
     32200     32201     32227     32228     32200     32201     32227     32229
     32201     32200     32198     32219     32201     32227     32223     32224
     32201     32227     32223     32225     32201     32227     32223     32237
     32201     32227     32229     32230     32202     32201     32227     32223
     32202     32201     32227     32228     32202     32201     32227     32229
     32203     32201     32227     32223     32203     32201     32227     32228
     32203     32201     32227     32229     32204     32206     32207     32208
     32204     32206     32207     32209     32204     32206     32207     32210
     32204     32211     32212     32214     32204     32211     32219     32220
     32204     32211     32219     32221     32205     32204     32206     32207
     32205     32204     32211     32212     32205     32204     32211     32213
     32205     32204     32211     32219     32206     32204     32211     32212
     32206     32204     32211     32213     32206     32204     32211     32219
     32207     32206     32204     32211     32211     32212     32214     32215
     32211     32212     32214     32216     32211     32219     32221     32222
     32211     32219     32221     32328     32212     32211     32219     32220
     32212     32211     32219     32221     32212     32214     32216     32217
     32212     32214     32216     32218     32212     32214     32216     32249
     32213     32211     32212     32214     32213     32211     32219     32220
     32213     32211     32219     32221     32214     32212     32211     32219
     32214     32216     32249     32250     32214     32216     32249     32251
     32214     32216     32249     32294     32215     32214     32216     32217
     32215     32214     32216     32218     32215     32214     32216     32249
     32216     32249     32251     32252     32216     32249     32294     32295
     32216     32249     32294     32296     32216     32249     32294     32297
     32217     32216     32249     32250     32217     32216     32249     32251
     32217     32216     32249     32294     32218     32216     32249     32250
     32218     32216     32249     32251     32218     32216     32249     32294
     32219     32221     32328     32329     32219     32221     32328     32330
     32220     32219     32221     32222     32220     32219     32221     32328
     32221     32328     32330     32331     32221     32328     32330     32332
     32221     32328     32330     32333     32222     32221     32328     32329
     32222     32221     32328     32330     32223     32227     32229     32230
     32223     32237     32239     32240     32223     32237     32245     32230
     32223     32237     32245     32246     32223     32237     32245     32247
     32224     32223     32225     32226     32224     32223     32227     32228
     32224     32223     32227     32229     32224     32223     32237     32238
     32224     32223     32237     32239     32224     32223     32237     32245
     32225     32223     32227     32228     32225     32223     32227     32229
     32225     32223     32237     32238     32225     32223     32237     32239
     32225     32223     32237     32245     32226     32225     32223     32227
     32226     32225     32223     32237     32227     32223     32237     32238
     32227     32223     32237     32239     32227     32223     32237     32245
     32227     32229     32230     32231     32227     32229     32230     32232
     32227     32229     32230     32245     32228     32227     32223     32237
     32228     32227     32229     32230     32229     32227     32223     32237
     32229     32230     32232     32236     32229     32230     32245     32237
     32229     32230     32245     32246     32229     32230     32245     32247
     32230     32232     32236     32233     32230     32232     32236     32234
     32230     32232     32236     32235     32230     32245     32237     32238
     32230     32245     32237     32239     32230     32245     32247     32248
     32230     32245     32247     32444     32231     32230     32232     32236
     32231     32230     32245     32237     32231     32230     32245     32246
     32231     32230     32245     32247     32232     32230     32245     32237
     32232     32230     32245     32246     32232     32230     32245     32247
     32236     32232     32230     32245     32237     32239     32240     32241
     32237     32239     32240     32242     32237     32245     32247     32248
     32237     32245     32247     32444     32238     32237     32239     32240
     32238     32237     32245     32246     32238     32237     32245     32247
     32239     32237     32245     32246     32239     32237     32245     32247
     32239     32240     32242     32243     32239     32240     32242     32244
     32239     32240     32242     32406     32240     32239     32237     32245
     32240     32242     32406     32407     32240     32242     32406     32408
     32240     32242     32406     32410     32241     32240     32242     32243
     32241     32240     32242     32244     32241     32240     32242     32406
     32242     32406     32408     32409     32242     32406     32410     32411
     32242     32406     32410     32412     32242     32406     32410     32413
     32243     32242     32406     32407     32243     32242     32406     32408
     32243     32242     32406     32410     32244     32242     32406     32407
     32244     32242     32406     32408     32244     32242     32406     32410
     32245     32247     32444     32445     32245     32247     32444     32446
     32246     32245     32247     32248     32246     32245     32247     32444
     32247     32444     32446     32447     32247     32444     32446     32448
     32247     32444     32446     32449     32248     32247     32444     32445
     32248     32247     32444     32446     32249     32251     32252     32253
     32249     32251     32252     32254     32249     32294     32297     32298
     32249     32294     32297     32299     32249     32294     32297     32300
     32250     32249     32251     32252     32250     32249     32294     32295
     32250     32249     32294     32296     32250     32249     32294     32297
     32251     32249     32294     32295     32251     32249     32294     32296
     32251     32249     32294     32297     32251     32252     32254     32255
     32251     32252     32254     32256     32251     32252     32254     32257
     32252     32251     32249     32294     32252     32254     32257     32258
     32252     32254     32257     32259     32252     32254     32257     32260
     32253     32252     32254     32255     32253     32252     32254     32256
     32253     32252     32254     32257     32254     32257     32260     32261
     32254     32257     32260     32262     32254     32257     32260     32263
     32255     32254     32257     32258     32255     32254     32257     32259
     32255     32254     32257     32260     32256     32254     32257     32258
     32256     32254     32257     32259     32256     32254     32257     32260
     32257     32260     32263     32264     32257     32260     32263     32265
     32257     32260     32263     32266     32258     32257     32260     32261
     32258     32257     32260     32262     32258     32257     32260     32263
     32259     32257     32260     32261     32259     32257     32260     32262
     32259     32257     32260     32263     32260     32263     32266     32267
     32260     32263     32266     32268     32260     32263     32266     32269
     32261     32260     32263     32264     32261     32260     32263     32265
     32261     32260     32263     32266     32262     32260     32263     32264
     32262     32260     32263     32265     32262     32260     32263     32266
     32263     32266     32269     32270     32263     32266     32269     32271
     32263     32266     32269     32272     32264     32263     32266     32267
     32264     32263     32266     32268     32264     32263     32266     32269
     32265     32263     32266     32267     32265     32263     32266     32268
     32265     32263     32266     32269     32266     32269     32272     32273
     32266     32269     32272     32274     32266     32269     32272     32275
     32267     32266     32269     32270     32267     32266     32269     32271
     32267     32266     32269     32272     32268     32266     32269     32270
     32268     32266     32269     32271     32268     32266     32269     32272
     32269     32272     32275     32276     32269     32272     32275     32277
     32269     32272     32275     32278     32270     32269     32272     32273
     32270     32269     32272     32274     32270     32269     32272     32275
     32271     32269     32272     32273     32271     32269     32272     32274
     32271     32269     32272     32275     32272     32275     32278     32279
     32272     32275     32278     32280     32272     32275     32278     32281
     32273     32272     32275     32276     32273     32272     32275     32277
     32273     32272     32275     32278     32274     32272     32275     32276
     32274     32272     32275     32277     32274     32272     32275     32278
     32275     32278     32281     32282     32275     32278     32281     32283
     32275     32278     32281     32284     32276     32275     32278     32279
     32276     32275     32278     32280     32276     32275     32278     32281
     32277     32275     32278     32279     32277     32275     32278     32280
     32277     32275     32278     32281     32278     32281     32284     32285
     32278     32281     32284     32286     32278     32281     32284     32287
     32279     32278     32281     32282     32279     32278     32281     32283
     32279     32278     32281     32284     32280     32278     32281     32282
     32280     32278     32281     32283     32280     32278     32281     32284
     32281     32284     32287     32288     32281     32284     32287     32289
     32281     32284     32287     32290     32282     32281     32284     32285
     32282     32281     32284     32286     32282     32281     32284     32287
     32283     32281     32284     32285     32283     32281     32284     32286
     32283     32281     32284     32287     32284     32287     32290     32291
     32284     32287     32290     32292     32284     32287     32290     32293
     32285     32284     32287     32288     32285     32284     32287     32289
     32285     32284     32287     32290     32286     32284     32287     32288
     32286     32284     32287     32289     32286     32284     32287     32290
     32288     32287     32290     32291     32288     32287     32290     32292
     32288     32287     32290     32293     32289     32287     32290     32291
     32289     32287     32290     32292     32289     32287     32290     32293
     32294     32297     32300     32301     32294     32297     32300     32302
     32294     32297     32300     32303     32295     32294     32297     32298
     32295     32294     32297     32299     32295     32294     32297     32300
     32296     32294     32297     32298     32296     32294     32297     32299
     32296     32294     32297     32300     32297     32300     32303     32304
     32297     32300     32303     32305     32297     32300     32303     32306
     32298     32297     32300     32301     32298     32297     32300     32302
     32298     32297     32300     32303     32299     32297     32300     32301
     32299     32297     32300     32302     32299     32297     32300     32303
     32300     32303     32306     32307     32300     32303     32306     32308
     32300     32303     32306     32309     32301     32300     32303     32304
     32301     32300     32303     32305     32301     32300     32303     32306
     32302     32300     32303     32304     32302     32300     32303     32305
     32302     32300     32303     32306     32303     32306     32309     32310
     32303     32306     32309     32311     32303     32306     32309     32312
     32304     32303     32306     32307     32304     32303     32306     32308
     32304     32303     32306     32309     32305     32303     32306     32307
     32305     32303     32306     32308     32305     32303     32306     32309
     32306     32309     32312     32313     32306     32309     32312     32314
     32306     32309     32312     32315     32307     32306     32309     32310
     32307     32306     32309     32311     32307     32306     32309     32312
     32308     32306     32309     32310     32308     32306     32309     32311
     32308     32306     32309     32312     32309     32312     32315     32316
     32309     32312     32315     32317     32309     32312     32315     32318
     32310     32309     32312     32313     32310     32309     32312     32314
     32310     32309     32312     32315     32311     32309     32312     32313
     32311     32309     32312     32314     32311     32309     32312     32315
     32312     32315     32318     32319     32312     32315     32318     32320
     32312     32315     32318     32321     32313     32312     32315     32316
     32313     32312     32315     32317     32313     32312     32315     32318
     32314     32312     32315     32316     32314     32312     32315     32317
     32314     32312     32315     32318     32315     32318     32321     32322
     32315     32318     32321     32323     32315     32318     32321     32324
     32316     32315     32318     32319     32316     32315     32318     32320
     32316     32315     32318     32321     32317     32315     32318     32319
     32317     32315     32318     32320     32317     32315     32318     32321
     32318     32321     32324     32325     32318     32321     32324     32326
     32318     32321     32324     32327     32319     32318     32321     32322
     32319     32318     32321     32323     32319     32318     32321     32324
     32320     32318     32321     32322     32320     32318     32321     32323
     32320     32318     32321     32324     32322     32321     32324     32325
     32322     32321     32324     32326     32322     32321     32324     32327
     32323     32321     32324     32325     32323     32321     32324     32326
     32323     32321     32324     32327     32328     32330     32333     32334
     32328     32330     32333     32335     32328     32330     32333     32372
     32329     32328     32330     32331     32329     32328     32330     32332
     32329     32328     32330     32333     32330     32333     32335     32336
     32330     32333     32372     32373     32330     32333     32372     32374
     32330     32333     32372     32375     32331     32330     32333     32334
     32331     32330     32333     32335     32331     32330     32333     32372
     32332     32330     32333     32334     32332     32330     32333     32335
     32332     32330     32333     32372     32333     32335     32336     32337
     32333     32335     32336     32338     32333     32372     32375     32376
     32333     32372     32375     32377     32333     32372     32375     32378
     32334     32333     32335     32336     32334     32333     32372     32373
     32334     32333     32372     32374     32334     32333     32372     32375
     32335     32333     32372     32373     32335     32333     32372     32374
     32335     32333     32372     32375     32335     32336     32338     32339
     32335     32336     32338     32340     32335     32336     32338     32341
     32336     32335     32333     32372     32336     32338     32341     32342
     32336     32338     32341     32343     32336     32338     32341     32344
     32337     32336     32338     32339     32337     32336     32338     32340
     32337     32336     32338     32341     32338     32341     32344     32345
     32338     32341     32344     32346     32338     32341     32344     32347
     32339     32338     32341     32342     32339     32338     32341     32343
     32339     32338     32341     32344     32340     32338     32341     32342
     32340     32338     32341     32343     32340     32338     32341     32344
     32341     32344     32347     32348     32341     32344     32347     32349
     32341     32344     32347     32350     32342     32341     32344     32345
     32342     32341     32344     32346     32342     32341     32344     32347
     32343     32341     32344     32345     32343     32341     32344     32346
     32343     32341     32344     32347     32344     32347     32350     32351
     32344     32347     32350     32352     32344     32347     32350     32353
     32345     32344     32347     32348     32345     32344     32347     32349
     32345     32344     32347     32350     32346     32344     32347     32348
     32346     32344     32347     32349     32346     32344     32347     32350
     32347     32350     32353     32354     32347     32350     32353     32355
     32347     32350     32353     32356     32348     32347     32350     32351
     32348     32347     32350     32352     32348     32347     32350     32353
     32349     32347     32350     32351     32349     32347     32350     32352
     32349     32347     32350     32353     32350     32353     32356     32357
     32350     32353     32356     32358     32350     32353     32356     32359
     32351     32350     32353     32354     32351     32350     32353     32355
     32351     32350     32353     32356     32352     32350     32353     32354
     32352     32350     32353     32355     32352     32350     32353     32356
     32353     32356     32359     32360     32353     32356     32359     32361
     32353     32356     32359     32362     32354     32353     32356     32357
     32354     32353     32356     32358     32354     32353     32356     32359
     32355     32353     32356     32357     32355     32353     32356     32358
     32355     32353     32356     32359     32356     32359     32362     32363
     32356     32359     32362     32364     32356     32359     32362     32365
     32357     32356     32359     32360     32357     32356     32359     32361
     32357     32356     32359     32362     32358     32356     32359     32360
     32358     32356     32359     32361     32358     32356     32359     32362
     32359     32362     32365     32366     32359     32362     32365     32367
     32359     32362     32365     32368     32360     32359     32362     32363
     32360     32359     32362     32364     32360     32359     32362     32365
     32361     32359     32362     32363     32361     32359     32362     32364
     32361     32359     32362     32365     32362     32365     32368     32369
     32362     32365     32368     32370     32362     32365     32368     32371
     32363     32362     32365     32366     32363     32362     32365     32367
     32363     32362     32365     32368     32364     32362     32365     32366
     32364     32362     32365     32367     32364     32362     32365     32368
     32366     32365     32368     32369     32366     32365     32368     32370
     32366     32365     32368     32371     32367     32365     32368     32369
     32367     32365     32368     32370     32367     32365     32368     32371
     32372     32375     32378     32379     32372     32375     32378     32380
     32372     32375     32378     32381     32373     32372     32375     32376
     32373     32372     32375     32377     32373     32372     32375     32378
     32374     32372     32375     32376     32374     32372     32375     32377
     32374     32372     32375     32378     32375     32378     32381     32382
     32375     32378     32381     32383     32375     32378     32381     32384
     32376     32375     32378     32379     32376     32375     32378     32380
     32376     32375     32378     32381     32377     32375     32378     32379
     32377     32375     32378     32380     32377     32375     32378     32381
     32378     32381     32384     32385     32378     32381     32384     32386
     32378     32381     32384     32387     32379     32378     32381     32382
     32379     32378     32381     32383     32379     32378     32381     32384
     32380     32378     32381     32382     32380     32378     32381     32383
     32380     32378     32381     32384     32381     32384     32387     32388
     32381     32384     32387     32389     32381     32384     32387     32390
     32382     32381     32384     32385     32382     32381     32384     32386
     32382     32381     32384     32387     32383     32381     32384     32385
     32383     32381     32384     32386     32383     32381     32384     32387
     32384     32387     32390     32391     32384     32387     32390     32392
     32384     32387     32390     32393     32385     32384     32387     32388
     32385     32384     32387     32389     32385     32384     32387     32390
     32386     32384     32387     32388     32386     32384     32387     32389
     32386     32384     32387     32390     32387     32390     32393     32394
     32387     32390     32393     32395     32387     32390     32393     32396
     32388     32387     32390     32391     32388     32387     32390     32392
     32388     32387     32390     32393     32389     32387     32390     32391
     32389     32387     32390     32392     32389     32387     32390     32393
     32390     32393     32396     32397     32390     32393     32396     32398
     32390     32393     32396     32399     32391     32390     32393     32394
     32391     32390     32393     32395     32391     32390     32393     32396
     32392     32390     32393     32394     32392     32390     32393     32395
     32392     32390     32393     32396     32393     32396     32399     32400
     32393     32396     32399     32401     32393     32396     32399     32402
     32394     32393     32396     32397     32394     32393     32396     32398
     32394     32393     32396     32399     32395     32393     32396     32397
     32395     32393     32396     32398     32395     32393     32396     32399
     32396     32399     32402     32403     32396     32399     32402     32404
     32396     32399     32402     32405     32397     32396     32399     32400
     32397     32396     32399     32401     32397     32396     32399     32402
     32398     32396     32399     32400     32398     32396     32399     32401
     32398     32396     32399     32402     32400     32399     32402     32403
     32400     32399     32402     32404     32400     32399     32402     32405
     32401     32399     32402     32403     32401     32399     32402     32404
     32401     32399     32402     32405     32406     32410     32413     32414
     32406     32410     32413     32415     32406     32410     32413     32416
     32407     32406     32408     32409     32407     32406     32410     32411
     32407     32406     32410     32412     32407     32406     32410     32413
     32408     32406     32410     32411     32408     32406     32410     32412
     32408     32406     32410     32413     32409     32408     32406     32410
     32410     32413     32416     32417     32410     32413     32416     32418
     32410     32413     32416     32419     32411     32410     32413     32414
     32411     32410     32413     32415     32411     32410     32413     32416
     32412     32410     32413     32414     32412     32410     32413     32415
     32412     32410     32413     32416     32413     32416     32419     32420
     32413     32416     32419     32421     32413     32416     32419     32422
     32414     32413     32416     32417     32414     32413     32416     32418
     32414     32413     32416     32419     32415     32413     32416     32417
     32415     32413     32416     32418     32415     32413     32416     32419
     32416     32419     32422     32423     32416     32419     32422     32424
     32416     32419     32422     32425     32417     32416     32419     32420
     32417     32416     32419     32421     32417     32416     32419     32422
     32418     32416     32419     32420     32418     32416     32419     32421
     32418     32416     32419     32422     32419     32422     32425     32426
     32419     32422     32425     32427     32419     32422     32425     32428
     32420     32419     32422     32423     32420     32419     32422     32424
     32420     32419     32422     32425     32421     32419     32422     32423
     32421     32419     32422     32424     32421     32419     32422     32425
     32422     32425     32428     32429     32422     32425     32428     32430
     32422     32425     32428     32431     32423     32422     32425     32426
     32423     32422     32425     32427     32423     32422     32425     32428
     32424     32422     32425     32426     32424     32422     32425     32427
     32424     32422     32425     32428     32425     32428     32431     32432
     32425     32428     32431     32433     32425     32428     32431     32434
     32426     32425     32428     32429     32426     32425     32428     32430
     32426     32425     32428     32431     32427     32425     32428     32429
     32427     32425     32428     32430     32427     32425     32428     32431
     32428     32431     32434     32435     32428     32431     32434     32436
     32428     32431     32434     32437     32429     32428     32431     32432
     32429     32428     32431     32433     32429     32428     32431     32434
     32430     32428     32431     32432     32430     32428     32431     32433
     32430     32428     32431     32434     32431     32434     32437     32438
     32431     32434     32437     32439     32431     32434     32437     32440
     32432     32431     32434     32435     32432     32431     32434     32436
     32432     32431     32434     32437     32433     32431     32434     32435
     32433     32431     32434     32436     32433     32431     32434     32437
     32434     32437     32440     32441     32434     32437     32440     32442
     32434     32437     32440     32443     32435     32434     32437     32438
     32435     32434     32437     32439     32435     32434     32437     32440
     32436     32434     32437     32438     32436     32434     32437     32439
     32436     32434     32437     32440     32438     32437     32440     32441
     32438     32437     32440     32442     32438     32437     32440     32443
     32439     32437     32440     32441     32439     32437     32440     32442
     32439     32437     32440     32443     32444     32446     32449     32450
     32444     32446     32449     32451     32444     32446     32449     32453
     32445     32444     32446     32447     32445     32444     32446     32448
     32445     32444     32446     32449     32446     32449     32451     32452
     32446     32449     32453     32454     32446     32449     32453     32455
     32446     32449     32453     32456     32447     32446     32449     32450
     32447     32446     32449     32451     32447     32446     32449     32453
     32448     32446     32449     32450     32448     32446     32449     32451
     32448     32446     32449     32453     32449     32453     32456     32457
     32449     32453     32456     32458     32449     32453     32456     32459
     32450     32449     32451     32452     32450     32449     32453     32454
     32450     32449     32453     32455     32450     32449     32453     32456
     32451     32449     32453     32454     32451     32449     32453     32455
     32451     32449     32453     32456     32452     32451     32449     32453
     32453     32456     32459     32460     32453     32456     32459     32461
     32453     32456     32459     32462     32454     32453     32456     32457
     32454     32453     32456     32458     32454     32453     32456     32459
     32455     32453     32456     32457     32455     32453     32456     32458
     32455     32453     32456     32459     32456     32459     32462     32463
     32456     32459     32462     32464     32456     32459     32462     32465
     32457     32456     32459     32460     32457     32456     32459     32461
     32457     32456     32459     32462     32458     32456     32459     32460
     32458     32456     32459     32461     32458     32456     32459     32462
     32459     32462     32465     32466     32459     32462     32465     32467
     32459     32462     32465     32468     32460     32459     32462     32463
     32460     32459     32462     32464     32460     32459     32462     32465
     32461     32459     32462     32463     32461     32459     32462     32464
     32461     32459     32462     32465     32462     32465     32468     32469
     32462     32465     32468     32470     32462     32465     32468     32471
     32463     32462     32465     32466     32463     32462     32465     32467
     32463     32462     32465     32468     32464     32462     32465     32466
     32464     32462     32465     32467     32464     32462     32465     32468
     32465     32468     32471     32472     32465     32468     32471     32473
     32465     32468     32471     32474     32466     32465     32468     32469
     32466     32465     32468     32470     32466     32465     32468     32471
     32467     32465     32468     32469     32467     32465     32468     32470
     32467     32465     32468     32471     32468     32471     32474     32475
     32468     32471     32474     32476     32468     32471     32474     32477
     32469     32468     32471     32472     32469     32468     32471     32473
     32469     32468     32471     32474     32470     32468     32471     32472
     32470     32468     32471     32473     32470     32468     32471     32474
     32471     32474     32477     32478     32471     32474     32477     32479
     32471     32474     32477     32480     32472     32471     32474     32475
     32472     32471     32474     32476     32472     32471     32474     32477
     32473     32471     32474     32475     32473     32471     32474     32476
     32473     32471     32474     32477     32474     32477     32480     32481
     32474     32477     32480     32482     32474     32477     32480     32483
     32475     32474     32477     32478     32475     32474     32477     32479
     32475     32474     32477     32480     32476     32474     32477     32478
     32476     32474     32477     32479     32476     32474     32477     32480
     32477     32480     32483     32484     32477     32480     32483     32485
     32477     32480     32483     32486     32478     32477     32480     32481
     32478     32477     32480     32482     32478     32477     32480     32483
     32479     32477     32480     32481     32479     32477     32480     32482
     32479     32477     32480     32483     32481     32480     32483     32484
     32481     32480     32483     32485     32481     32480     32483     32486
     32482     32480     32483     32484     32482     32480     32483     32485
     32482     32480     32483     32486     32487     32490     32493     32491
     32487     32490     32494     32495     32487     32490     32494     32496
     32487     32490     32494     32497     32488     32487     32490     32493
     32488     32487     32490     32494     32489     32487     32490     32493
     32489     32487     32490     32494     32490     32493     32491     32492
     32490     32493     32491     32500     32490     32493     32491     32503
     32490     32494     32497     32498     32490     32494     32497     32499
     32490     32494     32497     32500     32491     32493     32490     32494
     32491     32500     32497     32494     32491     32500     32497     32498
     32491     32500     32497     32499     32491     32500     32502     32539
     32491     32503     32505     32506     32491     32503     32507     32508
     32491     32503     32507     32509     32491     32503     32507     32510
     32492     32491     32500     32497     32492     32491     32500     32501
     32492     32491     32500     32502     32492     32491     32503     32504
     32492     32491     32503     32505     32492     32491     32503     32507
     32493     32490     32494     32495     32493     32490     32494     32496
     32493     32490     32494     32497     32493     32491     32500     32497
     32493     32491     32500     32501     32493     32491     32500     32502
     32493     32491     32503     32504     32493     32491     32503     32505
     32493     32491     32503     32507     32494     32497     32499     32515
     32494     32497     32500     32501     32494     32497     32500     32502
     32495     32494     32497     32498     32495     32494     32497     32499
     32495     32494     32497     32500     32496     32494     32497     32498
     32496     32494     32497     32499     32496     32494     32497     32500
     32497     32499     32515     32512     32497     32499     32515     32518
     32497     32499     32515     32519     32497     32500     32491     32503
     32497     32500     32502     32539     32498     32497     32499     32515
     32498     32497     32500     32501     32498     32497     32500     32502
     32499     32497     32500     32501     32499     32497     32500     32502
     32499     32515     32512     32513     32499     32515     32512     32514
     32499     32515     32518     32516     32499     32515     32519     32520
     32499     32515     32519     32521     32499     32515     32519     32522
     32500     32491     32503     32504     32500     32491     32503     32505
     32500     32491     32503     32507     32500     32497     32499     32515
     32500     32502     32539     32540     32500     32502     32539     32543
     32500     32502     32539     32544     32501     32500     32491     32503
     32501     32500     32502     32539     32502     32500     32491     32503
     32502     32539     32543     32541     32502     32539     32544     32545
     32502     32539     32544     32546     32502     32539     32544     32548
     32503     32507     32510     32511     32504     32503     32505     32506
     32504     32503     32507     32508     32504     32503     32507     32509
     32504     32503     32507     32510     32505     32503     32507     32508
     32505     32503     32507     32509     32505     32503     32507     32510
     32506     32505     32503     32507     32508     32507     32510     32511
     32509     32507     32510     32511     32512     32515     32518     32516
     32512     32515     32519     32520     32512     32515     32519     32521
     32512     32515     32519     32522     32513     32512     32515     32518
     32513     32512     32515     32519     32514     32512     32515     32518
     32514     32512     32515     32519     32515     32518     32516     32517
     32515     32518     32516     32526     32515     32518     32516     32530
     32515     32519     32522     32523     32515     32519     32522     32524
     32515     32519     32522     32526     32516     32518     32515     32519
     32516     32526     32522     32519     32516     32526     32522     32523
     32516     32526     32522     32524     32516     32526     32528     32529
     32516     32530     32532     32533     32516     32530     32534     32535
     32516     32530     32534     32536     32516     32530     32534     32537
     32517     32516     32526     32522     32517     32516     32526     32527
     32517     32516     32526     32528     32517     32516     32530     32531
     32517     32516     32530     32532     32517     32516     32530     32534
     32518     32515     32519     32520     32518     32515     32519     32521
     32518     32515     32519     32522     32518     32516     32526     32522
     32518     32516     32526     32527     32518     32516     32526     32528
     32518     32516     32530     32531     32518     32516     32530     32532
     32518     32516     32530     32534     32519     32522     32524     32525
     32519     32522     32526     32527     32519     32522     32526     32528
     32520     32519     32522     32523     32520     32519     32522     32524
     32520     32519     32522     32526     32521     32519     32522     32523
     32521     32519     32522     32524     32521     32519     32522     32526
     32522     32526     32516     32530     32522     32526     32528     32529
     32523     32522     32524     32525     32523     32522     32526     32527
     32523     32522     32526     32528     32524     32522     32526     32527
     32524     32522     32526     32528     32525     32524     32522     32526
     32526     32516     32530     32531     32526     32516     32530     32532
     32526     32516     32530     32534     32527     32526     32516     32530
     32527     32526     32528     32529     32528     32526     32516     32530
     32530     32534     32537     32538     32531     32530     32532     32533
     32531     32530     32534     32535     32531     32530     32534     32536
     32531     32530     32534     32537     32532     32530     32534     32535
     32532     32530     32534     32536     32532     32530     32534     32537
     32533     32532     32530     32534     32535     32534     32537     32538
     32536     32534     32537     32538     32539     32543     32541     32542
     32539     32543     32541     32551     32539     32543     32541     32558
     32539     32544     32546     32547     32539     32544     32548     32549
     32539     32544     32548     32550     32539     32544     32548     32551
     32540     32539     32543     32541     32540     32539     32544     32545
     32540     32539     32544     32546     32540     32539     32544     32548
     32541     32543     32539     32544     32541     32551     32548     32544
     32541     32551     32548     32549     32541     32551     32548     32550
     32541     32551     32553     32554     32541     32558     32560     32561
     32541     32558     32562     32563     32541     32558     32562     32564
     32541     32558     32562     32565     32542     32541     32551     32548
     32542     32541     32551     32552     32542     32541     32551     32553
     32542     32541     32558     32559     32542     32541     32558     32560
     32542     32541     32558     32562     32543     32539     32544     32545
     32543     32539     32544     32546     32543     32539     32544     32548
     32543     32541     32551     32548     32543     32541     32551     32552
     32543     32541     32551     32553     32543     32541     32558     32559
     32543     32541     32558     32560     32543     32541     32558     32562
     32544     32548     32550     32567     32544     32548     32551     32552
     32544     32548     32551     32553     32545     32544     32546     32547
     32545     32544     32548     32549     32545     32544     32548     32550
     32545     32544     32548     32551     32546     32544     32548     32549
     32546     32544     32548     32550     32546     32544     32548     32551
     32547     32546     32544     32548     32548     32550     32567     32568
     32548     32550     32567     32571     32548     32550     32567     32572
     32548     32551     32541     32558     32548     32551     32553     32554
     32549     32548     32550     32567     32549     32548     32551     32552
     32549     32548     32551     32553     32550     32548     32551     32552
     32550     32548     32551     32553     32550     32567     32571     32569
     32550     32567     32572     32573     32550     32567     32572     32574
     32550     32567     32572     32576     32551     32541     32558     32559
     32551     32541     32558     32560     32551     32541     32558     32562
     32551     32548     32550     32567     32551     32553     32554     32555
     32551     32553     32554     32556     32551     32553     32554     32557
     32552     32551     32541     32558     32552     32551     32553     32554
     32553     32551     32541     32558     32558     32562     32565     32566
     32559     32558     32560     32561     32559     32558     32562     32563
     32559     32558     32562     32564     32559     32558     32562     32565
     32560     32558     32562     32563     32560     32558     32562     32564
     32560     32558     32562     32565     32561     32560     32558     32562
     32563     32562     32565     32566     32564     32562     32565     32566
     32567     32571     32569     32570     32567     32571     32569     32579
     32567     32571     32569     32586     32567     32572     32574     32575
     32567     32572     32576     32577     32567     32572     32576     32578
     32567     32572     32576     32579     32568     32567     32571     32569
     32568     32567     32572     32573     32568     32567     32572     32574
     32568     32567     32572     32576     32569     32571     32567     32572
     32569     32579     32576     32572     32569     32579     32576     32577
     32569     32579     32576     32578     32569     32579     32581     32582
     32569     32586     32588     32589     32569     32586     32590     32591
     32569     32586     32590     32592     32569     32586     32590     32593
     32570     32569     32579     32576     32570     32569     32579     32580
     32570     32569     32579     32581     32570     32569     32586     32587
     32570     32569     32586     32588     32570     32569     32586     32590
     32571     32567     32572     32573     32571     32567     32572     32574
     32571     32567     32572     32576     32571     32569     32579     32576
     32571     32569     32579     32580     32571     32569     32579     32581
     32571     32569     32586     32587     32571     32569     32586     32588
     32571     32569     32586     32590     32572     32576     32578     32620
     32572     32576     32579     32580     32572     32576     32579     32581
     32573     32572     32574     32575     32573     32572     32576     32577
     32573     32572     32576     32578     32573     32572     32576     32579
     32574     32572     32576     32577     32574     32572     32576     32578
     32574     32572     32576     32579     32575     32574     32572     32576
     32576     32578     32620     32621     32576     32578     32620     32624
     32576     32578     32620     32625     32576     32579     32569     32586
     32576     32579     32581     32582     32577     32576     32578     32620
     32577     32576     32579     32580     32577     32576     32579     32581
     32578     32576     32579     32580     32578     32576     32579     32581
     32578     32620     32624     32622     32578     32620     32625     32626
     32578     32620     32625     32627     32578     32620     32625     32629
     32579     32569     32586     32587     32579     32569     32586     32588
     32579     32569     32586     32590     32579     32576     32578     32620
     32579     32581     32582     32583     32579     32581     32582     32584
     32579     32581     32582     32585     32580     32579     32569     32586
     32580     32579     32581     32582     32581     32579     32569     32586
     32586     32590     32593     32594     32587     32586     32588     32589
     32587     32586     32590     32591     32587     32586     32590     32592
     32587     32586     32590     32593     32588     32586     32590     32591
     32588     32586     32590     32592     32588     32586     32590     32593
     32589     32588     32586     32590     32590     32593     32594     32595
     32590     32593     32594     32598     32590     32593     32594     32599
     32591     32590     32593     32594     32592     32590     32593     32594
     32593     32594     32598     32596     32593     32594     32599     32600
     32593     32594     32599     32601     32593     32594     32599     32603
     32594     32598     32596     32597     32594     32598     32596     32607
     32594     32598     32596     32611     32594     32599     32601     32602
     32594     32599     32603     32604     32594     32599     32603     32605
     32594     32599     32603     32607     32595     32594     32598     32596
     32595     32594     32599     32600     32595     32594     32599     32601
     32595     32594     32599     32603     32596     32598     32594     32599
     32596     32607     32603     32599     32596     32607     32603     32604
     32596     32607     32603     32605     32596     32607     32609     32610
     32596     32611     32613     32614     32596     32611     32615     32616
     32596     32611     32615     32617     32596     32611     32615     32618
     32597     32596     32607     32603     32597     32596     32607     32608
     32597     32596     32607     32609     32597     32596     32611     32612
     32597     32596     32611     32613     32597     32596     32611     32615
     32598     32594     32599     32600     32598     32594     32599     32601
     32598     32594     32599     32603     32598     32596     32607     32603
     32598     32596     32607     32608     32598     32596     32607     32609
     32598     32596     32611     32612     32598     32596     32611     32613
     32598     32596     32611     32615     32599     32603     32605     32606
     32599     32603     32607     32608     32599     32603     32607     32609
     32600     32599     32601     32602     32600     32599     32603     32604
     32600     32599     32603     32605     32600     32599     32603     32607
     32601     32599     32603     32604     32601     32599     32603     32605
     32601     32599     32603     32607     32602     32601     32599     32603
     32603     32607     32596     32611     32603     32607     32609     32610
     32604     32603     32605     32606     32604     32603     32607     32608
     32604     32603     32607     32609     32605     32603     32607     32608
     32605     32603     32607     32609     32606     32605     32603     32607
     32607     32596     32611     32612     32607     32596     32611     32613
     32607     32596     32611     32615     32608     32607     32596     32611
     32608     32607     32609     32610     32609     32607     32596     32611
     32611     32615     32618     32619     32612     32611     32613     32614
     32612     32611     32615     32616     32612     32611     32615     32617
     32612     32611     32615     32618     32613     32611     32615     32616
     32613     32611     32615     32617     32613     32611     32615     32618
     32614     32613     32611     32615     32616     32615     32618     32619
     32617     32615     32618     32619     32620     32624     32622     32623
     32620     32624     32622     32632     32620     32624     32622     32636
     32620     32625     32627     32628     32620     32625     32629     32630
     32620     32625     32629     32631     32620     32625     32629     32632
     32621     32620     32624     32622     32621     32620     32625     32626
     32621     32620     32625     32627     32621     32620     32625     32629
     32622     32624     32620     32625     32622     32632     32629     32625
     32622     32632     32629     32630     32622     32632     32629     32631
     32622     32632     32634     32635     32622     32636     32639     32640
     32623     32622     32632     32629     32623     32622     32632     32633
     32623     32622     32632     32634     32623     32622     32636     32637
     32623     32622     32636     32638     32623     32622     32636     32639
     32624     32620     32625     32626     32624     32620     32625     32627
     32624     32620     32625     32629     32624     32622     32632     32629
     32624     32622     32632     32633     32624     32622     32632     32634
     32624     32622     32636     32637     32624     32622     32636     32638
     32624     32622     32636     32639     32625     32629     32631     32641
     32625     32629     32632     32633     32625     32629     32632     32634
     32626     32625     32627     32628     32626     32625     32629     32630
     32626     32625     32629     32631     32626     32625     32629     32632
     32627     32625     32629     32630     32627     32625     32629     32631
     32627     32625     32629     32632     32628     32627     32625     32629
     32629     32631     32641     32642     32629     32631     32641     32645
     32629     32631     32641     32646     32629     32632     32622     32636
     32629     32632     32634     32635     32630     32629     32631     32641
     32630     32629     32632     32633     32630     32629     32632     32634
     32631     32629     32632     32633     32631     32629     32632     32634
     32631     32641     32645     32643     32631     32641     32646     32647
     32631     32641     32646     32648     32631     32641     32646     32649
     32632     32622     32636     32637     32632     32622     32636     32638
     32632     32622     32636     32639     32632     32629     32631     32641
     32633     32632     32622     32636     32633     32632     32634     32635
     32634     32632     32622     32636     32637     32636     32639     32640
     32638     32636     32639     32640     32641     32645     32643     32644
     32641     32645     32643     32652     32641     32645     32643     32656
     32641     32646     32648     32661     32641     32646     32649     32650
     32641     32646     32649     32651     32641     32646     32649     32652
     32642     32641     32645     32643     32642     32641     32646     32647
     32642     32641     32646     32648     32642     32641     32646     32649
     32643     32645     32641     32646     32643     32652     32649     32646
     32643     32652     32649     32650     32643     32652     32649     32651
     32643     32652     32654     32655     32643     32656     32659     32660
     32644     32643     32652     32649     32644     32643     32652     32653
     32644     32643     32652     32654     32644     32643     32656     32657
     32644     32643     32656     32658     32644     32643     32656     32659
     32645     32641     32646     32647     32645     32641     32646     32648
     32645     32641     32646     32649     32645     32643     32652     32649
     32645     32643     32652     32653     32645     32643     32652     32654
     32645     32643     32656     32657     32645     32643     32656     32658
     32645     32643     32656     32659     32646     32648     32661     32662
     32646     32648     32661     32665     32646     32648     32661     32666
     32646     32649     32651     32704     32646     32649     32652     32653
     32646     32649     32652     32654     32647     32646     32648     32661
     32647     32646     32649     32650     32647     32646     32649     32651
     32647     32646     32649     32652     32648     32646     32649     32650
     32648     32646     32649     32651     32648     32646     32649     32652
     32648     32661     32665     32663     32648     32661     32666     32667
     32648     32661     32666     32668     32648     32661     32666     32669
     32649     32646     32648     32661     32649     32651     32704     32705
     32649     32651     32704     32708     32649     32651     32704     32709
     32649     32652     32643     32656     32649     32652     32654     32655
     32650     32649     32651     32704     32650     32649     32652     32653
     32650     32649     32652     32654     32651     32649     32652     32653
     32651     32649     32652     32654     32651     32704     32708     32706
     32651     32704     32709     32710     32651     32704     32709     32711
     32651     32704     32709     32713     32652     32643     32656     32657
     32652     32643     32656     32658     32652     32643     32656     32659
     32652     32649     32651     32704     32653     32652     32643     32656
     32653     32652     32654     32655     32654     32652     32643     32656
     32657     32656     32659     32660     32658     32656     32659     32660
     32661     32665     32663     32664     32661     32665     32663     32673
     32661     32665     32663     32677     32661     32666     32668     32682
     32661     32666     32669     32670     32661     32666     32669     32671
     32661     32666     32669     32673     32662     32661     32665     32663
     32662     32661     32666     32667     32662     32661     32666     32668
     32662     32661     32666     32669     32663     32665     32661     32666
     32663     32673     32669     32666     32663     32673     32669     32670
     32663     32673     32669     32671     32663     32673     32675     32676
     32663     32677     32680     32681     32664     32663     32673     32669
     32664     32663     32673     32674     32664     32663     32673     32675
     32664     32663     32677     32678     32664     32663     32677     32679
     32664     32663     32677     32680     32665     32661     32666     32667
     32665     32661     32666     32668     32665     32661     32666     32669
     32665     32663     32673     32669     32665     32663     32673     32674
     32665     32663     32673     32675     32665     32663     32677     32678
     32665     32663     32677     32679     32665     32663     32677     32680
     32666     32668     32682     32683     32666     32668     32682     32686
     32666     32668     32682     32687     32666     32669     32671     32672
     32666     32669     32673     32674     32666     32669     32673     32675
     32667     32666     32668     32682     32667     32666     32669     32670
     32667     32666     32669     32671     32667     32666     32669     32673
     32668     32666     32669     32670     32668     32666     32669     32671
     32668     32666     32669     32673     32668     32682     32686     32684
     32668     32682     32687     32688     32668     32682     32687     32689
     32668     32682     32687     32691     32669     32666     32668     32682
     32669     32673     32663     32677     32669     32673     32675     32676
     32670     32669     32671     32672     32670     32669     32673     32674
     32670     32669     32673     32675     32671     32669     32673     32674
     32671     32669     32673     32675     32672     32671     32669     32673
     32673     32663     32677     32678     32673     32663     32677     32679
     32673     32663     32677     32680     32674     32673     32663     32677
     32674     32673     32675     32676     32675     32673     32663     32677
     32678     32677     32680     32681     32679     32677     32680     32681
     32682     32686     32684     32685     32682     32686     32684     32695
     32682     32686     32684     32699     32682     32687     32689     32690
     32682     32687     32691     32692     32682     32687     32691     32693
     32682     32687     32691     32695     32683     32682     32686     32684
     32683     32682     32687     32688     32683     32682     32687     32689
     32683     32682     32687     32691     32684     32686     32682     32687
     32684     32695     32691     32687     32684     32695     32691     32692
     32684     32695     32691     32693     32684     32695     32697     32698
     32684     32699     32702     32703     32685     32684     32695     32691
     32685     32684     32695     32696     32685     32684     32695     32697
     32685     32684     32699     32700     32685     32684     32699     32701
     32685     32684     32699     32702     32686     32682     32687     32688
     32686     32682     32687     32689     32686     32682     32687     32691
     32686     32684     32695     32691     32686     32684     32695     32696
     32686     32684     32695     32697     32686     32684     32699     32700
     32686     32684     32699     32701     32686     32684     32699     32702
     32687     32691     32693     32694     32687     32691     32695     32696
     32687     32691     32695     32697     32688     32687     32689     32690
     32688     32687     32691     32692     32688     32687     32691     32693
     32688     32687     32691     32695     32689     32687     32691     32692
     32689     32687     32691     32693     32689     32687     32691     32695
     32690     32689     32687     32691     32691     32695     32684     32699
     32691     32695     32697     32698     32692     32691     32693     32694
     32692     32691     32695     32696     32692     32691     32695     32697
     32693     32691     32695     32696     32693     32691     32695     32697
     32694     32693     32691     32695     32695     32684     32699     32700
     32695     32684     32699     32701     32695     32684     32699     32702
     32696     32695     32684     32699     32696     32695     32697     32698
     32697     32695     32684     32699     32700     32699     32702     32703
     32701     32699     32702     32703     32704     32708     32706     32707
     32704     32708     32706     32716     32704     32708     32706     32720
     32704     32709     32711     32712     32704     32709     32713     32714
     32704     32709     32713     32715     32704     32709     32713     32716
     32705     32704     32708     32706     32705     32704     32709     32710
     32705     32704     32709     32711     32705     32704     32709     32713
     32706     32708     32704     32709     32706     32716     32713     32709
     32706     32716     32713     32714     32706     32716     32713     32715
     32706     32716     32718     32719     32706     32720     32723     32724
     32707     32706     32716     32713     32707     32706     32716     32717
     32707     32706     32716     32718     32707     32706     32720     32721
     32707     32706     32720     32722     32707     32706     32720     32723
     32708     32704     32709     32710     32708     32704     32709     32711
     32708     32704     32709     32713     32708     32706     32716     32713
     32708     32706     32716     32717     32708     32706     32716     32718
     32708     32706     32720     32721     32708     32706     32720     32722
     32708     32706     32720     32723     32709     32713     32715     32725
     32709     32713     32716     32717     32709     32713     32716     32718
     32710     32709     32711     32712     32710     32709     32713     32714
     32710     32709     32713     32715     32710     32709     32713     32716
     32711     32709     32713     32714     32711     32709     32713     32715
     32711     32709     32713     32716     32712     32711     32709     32713
     32713     32715     32725     32726     32713     32715     32725     32729
     32713     32715     32725     32730     32713     32716     32706     32720
     32713     32716     32718     32719     32714     32713     32715     32725
     32714     32713     32716     32717     32714     32713     32716     32718
     32715     32713     32716     32717     32715     32713     32716     32718
     32715     32725     32729     32727     32715     32725     32730     32731
     32715     32725     32730     32732     32715     32725     32730     32740
     32716     32706     32720     32721     32716     32706     32720     32722
     32716     32706     32720     32723     32716     32713     32715     32725
     32717     32716     32706     32720     32717     32716     32718     32719
     32718     32716     32706     32720     32721     32720     32723     32724
     32722     32720     32723     32724     32725     32729     32727     32728
     32725     32729     32727     32743     32725     32729     32727     32747
     32725     32730     32732     32733     32725     32730     32732     32734
     32725     32730     32740     32741     32725     32730     32740     32742
     32725     32730     32740     32743     32726     32725     32729     32727
     32726     32725     32730     32731     32726     32725     32730     32732
     32726     32725     32730     32740     32727     32729     32725     32730
     32727     32743     32740     32730     32727     32743     32740     32741
     32727     32743     32740     32742     32727     32743     32745     32746
     32727     32747     32750     32751     32728     32727     32743     32740
     32728     32727     32743     32744     32728     32727     32743     32745
     32728     32727     32747     32748     32728     32727     32747     32749
     32728     32727     32747     32750     32729     32725     32730     32731
     32729     32725     32730     32732     32729     32725     32730     32740
     32729     32727     32743     32740     32729     32727     32743     32744
     32729     32727     32743     32745     32729     32727     32747     32748
     32729     32727     32747     32749     32729     32727     32747     32750
     32730     32732     32734     32735     32730     32732     32734     32736
     32730     32740     32742     32752     32730     32740     32743     32744
     32730     32740     32743     32745     32731     32730     32732     32733
     32731     32730     32732     32734     32731     32730     32740     32741
     32731     32730     32740     32742     32731     32730     32740     32743
     32732     32730     32740     32741     32732     32730     32740     32742
     32732     32730     32740     32743     32732     32734     32736     32737
     32732     32734     32736     32738     32732     32734     32736     32739
     32733     32732     32730     32740     32733     32732     32734     32735
     32733     32732     32734     32736     32734     32732     32730     32740
     32735     32734     32736     32737     32735     32734     32736     32738
     32735     32734     32736     32739     32740     32742     32752     32753
     32740     32742     32752     32756     32740     32742     32752     32757
     32740     32743     32727     32747     32740     32743     32745     32746
     32741     32740     32742     32752     32741     32740     32743     32744
     32741     32740     32743     32745     32742     32740     32743     32744
     32742     32740     32743     32745     32742     32752     32756     32754
     32742     32752     32757     32758     32742     32752     32757     32759
     32742     32752     32757     32760     32743     32727     32747     32748
     32743     32727     32747     32749     32743     32727     32747     32750
     32743     32740     32742     32752     32744     32743     32727     32747
     32744     32743     32745     32746     32745     32743     32727     32747
     32748     32747     32750     32751     32749     32747     32750     32751
     32752     32756     32754     32755     32752     32756     32754     32764
     32752     32756     32754     32768     32752     32757     32759     32773
     32752     32757     32760     32761     32752     32757     32760     32762
     32752     32757     32760     32764     32753     32752     32756     32754
     32753     32752     32757     32758     32753     32752     32757     32759
     32753     32752     32757     32760     32754     32756     32752     32757
     32754     32764     32760     32757     32754     32764     32760     32761
     32754     32764     32760     32762     32754     32764     32766     32767
     32754     32768     32771     32772     32755     32754     32764     32760
     32755     32754     32764     32765     32755     32754     32764     32766
     32755     32754     32768     32769     32755     32754     32768     32770
     32755     32754     32768     32771     32756     32752     32757     32758
     32756     32752     32757     32759     32756     32752     32757     32760
     32756     32754     32764     32760     32756     32754     32764     32765
     32756     32754     32764     32766     32756     32754     32768     32769
     32756     32754     32768     32770     32756     32754     32768     32771
     32757     32759     32773     32774     32757     32759     32773     32777
     32757     32759     32773     32778     32757     32760     32762     32763
     32757     32760     32764     32765     32757     32760     32764     32766
     32758     32757     32759     32773     32758     32757     32760     32761
     32758     32757     32760     32762     32758     32757     32760     32764
     32759     32757     32760     32761     32759     32757     32760     32762
     32759     32757     32760     32764     32759     32773     32777     32775
     32759     32773     32778     32779     32759     32773     32778     32780
     32759     32773     32778     32781     32760     32757     32759     32773
     32760     32764     32754     32768     32760     32764     32766     32767
     32761     32760     32762     32763     32761     32760     32764     32765
     32761     32760     32764     32766     32762     32760     32764     32765
     32762     32760     32764     32766     32763     32762     32760     32764
     32764     32754     32768     32769     32764     32754     32768     32770
     32764     32754     32768     32771     32765     32764     32754     32768
     32765     32764     32766     32767     32766     32764     32754     32768
     32769     32768     32771     32772     32770     32768     32771     32772
     32773     32777     32775     32776     32773     32777     32775     32785
     32773     32777     32775     32789     32773     32778     32780     32793
     32773     32778     32781     32782     32773     32778     32781     32783
     32773     32778     32781     32785     32774     32773     32777     32775
     32774     32773     32778     32779     32774     32773     32778     32780
     32774     32773     32778     32781     32775     32777     32773     32778
     32775     32785     32781     32778     32775     32785     32781     32782
     32775     32785     32781     32783     32775     32785     32787     32788
     32776     32775     32785     32781     32776     32775     32785     32786
     32776     32775     32785     32787     32776     32775     32789     32790
     32776     32775     32789     32791     32776     32775     32789     32792
     32777     32773     32778     32779     32777     32773     32778     32780
     32777     32773     32778     32781     32777     32775     32785     32781
     32777     32775     32785     32786     32777     32775     32785     32787
     32777     32775     32789     32790     32777     32775     32789     32791
     32777     32775     32789     32792     32778     32780     32793     32794
     32778     32780     32793     32797     32778     32780     32793     32798
     32778     32781     32783     32784     32778     32781     32785     32786
     32778     32781     32785     32787     32779     32778     32780     32793
     32779     32778     32781     32782     32779     32778     32781     32783
     32779     32778     32781     32785     32780     32778     32781     32782
     32780     32778     32781     32783     32780     32778     32781     32785
     32780     32793     32797     32795     32780     32793     32798     32799
     32780     32793     32798     32800     32780     32793     32798     32801
     32781     32778     32780     32793     32781     32785     32775     32789
     32781     32785     32787     32788     32782     32781     32783     32784
     32782     32781     32785     32786     32782     32781     32785     32787
     32783     32781     32785     32786     32783     32781     32785     32787
     32784     32783     32781     32785     32785     32775     32789     32790
     32785     32775     32789     32791     32785     32775     32789     32792
     32786     32785     32775     32789     32786     32785     32787     32788
     32787     32785     32775     32789     32793     32797     32795     32796
     32793     32797     32795     32804     32793     32797     32795     32808
     32793     32798     32800     32812     32793     32798     32801     32802
     32793     32798     32801     32803     32793     32798     32801     32804
     32794     32793     32797     32795     32794     32793     32798     32799
     32794     32793     32798     32800     32794     32793     32798     32801
     32795     32797     32793     32798     32795     32804     32801     32798
     32795     32804     32801     32802     32795     32804     32801     32803
     32795     32804     32806     32807     32796     32795     32804     32801
     32796     32795     32804     32805     32796     32795     32804     32806
     32796     32795     32808     32809     32796     32795     32808     32810
     32796     32795     32808     32811     32797     32793     32798     32799
     32797     32793     32798     32800     32797     32793     32798     32801
     32797     32795     32804     32801     32797     32795     32804     32805
     32797     32795     32804     32806     32797     32795     32808     32809
     32797     32795     32808     32810     32797     32795     32808     32811
     32798     32800     32812     32813     32798     32800     32812     32816
     32798     32800     32812     32817     32798     32801     32803     32840
     32798     32801     32804     32805     32798     32801     32804     32806
     32799     32798     32800     32812     32799     32798     32801     32802
     32799     32798     32801     32803     32799     32798     32801     32804
     32800     32798     32801     32802     32800     32798     32801     32803
     32800     32798     32801     32804     32800     32812     32816     32814
     32800     32812     32817     32818     32800     32812     32817     32819
     32800     32812     32817     32827     32801     32798     32800     32812
     32801     32803     32840     32841     32801     32803     32840     32844
     32801     32803     32840     32845     32801     32804     32795     32808
     32801     32804     32806     32807     32802     32801     32803     32840
     32802     32801     32804     32805     32802     32801     32804     32806
     32803     32801     32804     32805     32803     32801     32804     32806
     32803     32840     32844     32842     32803     32840     32845     32846
     32803     32840     32845     32847     32803     32840     32845     32855
     32804     32795     32808     32809     32804     32795     32808     32810
     32804     32795     32808     32811     32804     32801     32803     32840
     32805     32804     32795     32808     32805     32804     32806     32807
     32806     32804     32795     32808     32812     32816     32814     32815
     32812     32816     32814     32831     32812     32816     32814     32835
     32812     32817     32819     32820     32812     32817     32819     32821
     32812     32817     32827     32828     32812     32817     32827     32829
     32812     32817     32827     32831     32813     32812     32816     32814
     32813     32812     32817     32818     32813     32812     32817     32819
     32813     32812     32817     32827     32814     32816     32812     32817
     32814     32831     32827     32817     32814     32831     32827     32828
     32814     32831     32827     32829     32814     32831     32833     32834
     32814     32835     32838     32839     32815     32814     32831     32827
     32815     32814     32831     32832     32815     32814     32831     32833
     32815     32814     32835     32836     32815     32814     32835     32837
     32815     32814     32835     32838     32816     32812     32817     32818
     32816     32812     32817     32819     32816     32812     32817     32827
     32816     32814     32831     32827     32816     32814     32831     32832
     32816     32814     32831     32833     32816     32814     32835     32836
     32816     32814     32835     32837     32816     32814     32835     32838
     32817     32819     32821     32822     32817     32819     32821     32823
     32817     32827     32829     32830     32817     32827     32831     32832
     32817     32827     32831     32833     32818     32817     32819     32820
     32818     32817     32819     32821     32818     32817     32827     32828
     32818     32817     32827     32829     32818     32817     32827     32831
     32819     32817     32827     32828     32819     32817     32827     32829
     32819     32817     32827     32831     32819     32821     32823     32824
     32819     32821     32823     32825     32819     32821     32823     32826
     32820     32819     32817     32827     32820     32819     32821     32822
     32820     32819     32821     32823     32821     32819     32817     32827
     32822     32821     32823     32824     32822     32821     32823     32825
     32822     32821     32823     32826     32827     32831     32814     32835
     32827     32831     32833     32834     32828     32827     32829     32830
     32828     32827     32831     32832     32828     32827     32831     32833
     32829     32827     32831     32832     32829     32827     32831     32833
     32830     32829     32827     32831     32831     32814     32835     32836
     32831     32814     32835     32837     32831     32814     32835     32838
     32832     32831     32814     32835     32832     32831     32833     32834
     32833     32831     32814     32835     32836     32835     32838     32839
     32837     32835     32838     32839     32840     32844     32842     32843
     32840     32844     32842     32858     32840     32844     32842     32862
     32840     32845     32847     32848     32840     32845     32847     32849
     32840     32845     32855     32856     32840     32845     32855     32857
     32840     32845     32855     32858     32841     32840     32844     32842
     32841     32840     32845     32846     32841     32840     32845     32847
     32841     32840     32845     32855     32842     32844     32840     32845
     32842     32858     32855     32845     32842     32858     32855     32856
     32842     32858     32855     32857     32842     32858     32860     32861
     32842     32862     32865     32866     32843     32842     32858     32855
     32843     32842     32858     32859     32843     32842     32858     32860
     32843     32842     32862     32863     32843     32842     32862     32864
     32843     32842     32862     32865     32844     32840     32845     32846
     32844     32840     32845     32847     32844     32840     32845     32855
     32844     32842     32858     32855     32844     32842     32858     32859
     32844     32842     32858     32860     32844     32842     32862     32863
     32844     32842     32862     32864     32844     32842     32862     32865
     32845     32847     32849     32850     32845     32847     32849     32851
     32845     32855     32857     32867     32845     32855     32858     32859
     32845     32855     32858     32860     32846     32845     32847     32848
     32846     32845     32847     32849     32846     32845     32855     32856
     32846     32845     32855     32857     32846     32845     32855     32858
     32847     32845     32855     32856     32847     32845     32855     32857
     32847     32845     32855     32858     32847     32849     32851     32852
     32847     32849     32851     32853     32847     32849     32851     32854
     32848     32847     32845     32855     32848     32847     32849     32850
     32848     32847     32849     32851     32849     32847     32845     32855
     32850     32849     32851     32852     32850     32849     32851     32853
     32850     32849     32851     32854     32855     32857     32867     32868
     32855     32857     32867     32871     32855     32857     32867     32872
     32855     32858     32842     32862     32855     32858     32860     32861
     32856     32855     32857     32867     32856     32855     32858     32859
     32856     32855     32858     32860     32857     32855     32858     32859
     32857     32855     32858     32860     32857     32867     32871     32869
     32857     32867     32872     32873     32857     32867     32872     32874
     32857     32867     32872     32875     32858     32842     32862     32863
     32858     32842     32862     32864     32858     32842     32862     32865
     32858     32855     32857     32867     32859     32858     32842     32862
     32859     32858     32860     32861     32860     32858     32842     32862
     32863     32862     32865     32866     32864     32862     32865     32866
     32867     32871     32869     32870     32867     32871     32869     32879
     32867     32871     32869     32883     32867     32872     32874     32888
     32867     32872     32875     32876     32867     32872     32875     32877
     32867     32872     32875     32879     32868     32867     32871     32869
     32868     32867     32872     32873     32868     32867     32872     32874
     32868     32867     32872     32875     32869     32871     32867     32872
     32869     32879     32875     32872     32869     32879     32875     32876
     32869     32879     32875     32877     32869     32879     32881     32882
     32869     32883     32886     32887     32870     32869     32879     32875
     32870     32869     32879     32880     32870     32869     32879     32881
     32870     32869     32883     32884     32870     32869     32883     32885
     32870     32869     32883     32886     32871     32867     32872     32873
     32871     32867     32872     32874     32871     32867     32872     32875
     32871     32869     32879     32875     32871     32869     32879     32880
     32871     32869     32879     32881     32871     32869     32883     32884
     32871     32869     32883     32885     32871     32869     32883     32886
     32872     32874     32888     32889     32872     32874     32888     32892
     32872     32874     32888     32893     32872     32875     32877     32878
     32872     32875     32879     32880     32872     32875     32879     32881
     32873     32872     32874     32888     32873     32872     32875     32876
     32873     32872     32875     32877     32873     32872     32875     32879
     32874     32872     32875     32876     32874     32872     32875     32877
     32874     32872     32875     32879     32874     32888     32892     32890
     32874     32888     32893     32894     32874     32888     32893     32895
     32874     32888     32893     32896     32875     32872     32874     32888
     32875     32879     32869     32883     32875     32879     32881     32882
     32876     32875     32877     32878     32876     32875     32879     32880
     32876     32875     32879     32881     32877     32875     32879     32880
     32877     32875     32879     32881     32878     32877     32875     32879
     32879     32869     32883     32884     32879     32869     32883     32885
     32879     32869     32883     32886     32880     32879     32869     32883
     32880     32879     32881     32882     32881     32879     32869     32883
     32884     32883     32886     32887     32885     32883     32886     32887
     32888     32892     32890     32891     32888     32892     32890     32900
     32888     32892     32890     32904     32888     32893     32895     32908
     32888     32893     32896     32897     32888     32893     32896     32898
     32888     32893     32896     32900     32889     32888     32892     32890
     32889     32888     32893     32894     32889     32888     32893     32895
     32889     32888     32893     32896     32890     32892     32888     32893
     32890     32900     32896     32893     32890     32900     32896     32897
     32890     32900     32896     32898     32890     32900     32902     32903
     32891     32890     32900     32896     32891     32890     32900     32901
     32891     32890     32900     32902     32891     32890     32904     32905
     32891     32890     32904     32906     32891     32890     32904     32907
     32892     32888     32893     32894     32892     32888     32893     32895
     32892     32888     32893     32896     32892     32890     32900     32896
     32892     32890     32900     32901     32892     32890     32900     32902
     32892     32890     32904     32905     32892     32890     32904     32906
     32892     32890     32904     32907     32893     32895     32908     32909
     32893     32895     32908     32912     32893     32895     32908     32913
     32893     32896     32898     32899     32893     32896     32900     32901
     32893     32896     32900     32902     32894     32893     32895     32908
     32894     32893     32896     32897     32894     32893     32896     32898
     32894     32893     32896     32900     32895     32893     32896     32897
     32895     32893     32896     32898     32895     32893     32896     32900
     32895     32908     32912     32910     32895     32908     32913     32914
     32895     32908     32913     32915     32895     32908     32913     32916
     32896     32893     32895     32908     32896     32900     32890     32904
     32896     32900     32902     32903     32897     32896     32898     32899
     32897     32896     32900     32901     32897     32896     32900     32902
     32898     32896     32900     32901     32898     32896     32900     32902
     32899     32898     32896     32900     32900     32890     32904     32905
     32900     32890     32904     32906     32900     32890     32904     32907
     32901     32900     32890     32904     32901     32900     32902     32903
     32902     32900     32890     32904     32908     32912     32910     32911
     32908     32912     32910     32919     32908     32912     32910     32923
     32908     32913     32915     32927     32908     32913     32916     32917
     32908     32913     32916     32918     32908     32913     32916     32919
     32909     32908     32912     32910     32909     32908     32913     32914
     32909     32908     32913     32915     32909     32908     32913     32916
     32910     32912     32908     32913     32910     32919     32916     32913
     32910     32919     32916     32917     32910     32919     32916     32918
     32910     32919     32921     32922     32911     32910     32919     32916
     32911     32910     32919     32920     32911     32910     32919     32921
     32911     32910     32923     32924     32911     32910     32923     32925
     32911     32910     32923     32926     32912     32908     32913     32914
     32912     32908     32913     32915     32912     32908     32913     32916
     32912     32910     32919     32916     32912     32910     32919     32920
     32912     32910     32919     32921     32912     32910     32923     32924
     32912     32910     32923     32925     32912     32910     32923     32926
     32913     32915     32927     32928     32913     32915     32927     32931
     32913     32915     32927     32932     32913     32916     32918     32955
     32913     32916     32919     32920     32913     32916     32919     32921
     32914     32913     32915     32927     32914     32913     32916     32917
     32914     32913     32916     32918     32914     32913     32916     32919
     32915     32913     32916     32917     32915     32913     32916     32918
     32915     32913     32916     32919     32915     32927     32931     32929
     32915     32927     32932     32933     32915     32927     32932     32934
     32915     32927     32932     32942     32916     32913     32915     32927
     32916     32918     32955     32956     32916     32918     32955     32959
     32916     32918     32955     32960     32916     32919     32910     32923
     32916     32919     32921     32922     32917     32916     32918     32955
     32917     32916     32919     32920     32917     32916     32919     32921
     32918     32916     32919     32920     32918     32916     32919     32921
     32918     32955     32959     32957     32918     32955     32960     32961
     32918     32955     32960     32962     32918     32955     32960     32970
     32919     32910     32923     32924     32919     32910     32923     32925
     32919     32910     32923     32926     32919     32916     32918     32955
     32920     32919     32910     32923     32920     32919     32921     32922
     32921     32919     32910     32923     32927     32931     32929     32930
     32927     32931     32929     32946     32927     32931     32929     32950
     32927     32932     32934     32935     32927     32932     32934     32936
     32927     32932     32942     32943     32927     32932     32942     32944
     32927     32932     32942     32946     32928     32927     32931     32929
     32928     32927     32932     32933     32928     32927     32932     32934
     32928     32927     32932     32942     32929     32931     32927     32932
     32929     32946     32942     32932     32929     32946     32942     32943
     32929     32946     32942     32944     32929     32946     32948     32949
     32929     32950     32953     32954     32930     32929     32946     32942
     32930     32929     32946     32947     32930     32929     32946     32948
     32930     32929     32950     32951     32930     32929     32950     32952
     32930     32929     32950     32953     32931     32927     32932     32933
     32931     32927     32932     32934     32931     32927     32932     32942
     32931     32929     32946     32942     32931     32929     32946     32947
     32931     32929     32946     32948     32931     32929     32950     32951
     32931     32929     32950     32952     32931     32929     32950     32953
     32932     32934     32936     32937     32932     32934     32936     32938
     32932     32942     32944     32945     32932     32942     32946     32947
     32932     32942     32946     32948     32933     32932     32934     32935
     32933     32932     32934     32936     32933     32932     32942     32943
     32933     32932     32942     32944     32933     32932     32942     32946
     32934     32932     32942     32943     32934     32932     32942     32944
     32934     32932     32942     32946     32934     32936     32938     32939
     32934     32936     32938     32940     32934     32936     32938     32941
     32935     32934     32932     32942     32935     32934     32936     32937
     32935     32934     32936     32938     32936     32934     32932     32942
     32937     32936     32938     32939     32937     32936     32938     32940
     32937     32936     32938     32941     32942     32946     32929     32950
     32942     32946     32948     32949     32943     32942     32944     32945
     32943     32942     32946     32947     32943     32942     32946     32948
     32944     32942     32946     32947     32944     32942     32946     32948
     32945     32944     32942     32946     32946     32929     32950     32951
     32946     32929     32950     32952     32946     32929     32950     32953
     32947     32946     32929     32950     32947     32946     32948     32949
     32948     32946     32929     32950     32951     32950     32953     32954
     32952     32950     32953     32954     32955     32959     32957     32958
     32955     32959     32957     32973     32955     32959     32957     32977
     32955     32960     32962     32963     32955     32960     32962     32964
     32955     32960     32970     32971     32955     32960     32970     32972
     32955     32960     32970     32973     32956     32955     32959     32957
     32956     32955     32960     32961     32956     32955     32960     32962
     32956     32955     32960     32970     32957     32959     32955     32960
     32957     32973     32970     32960     32957     32973     32970     32971
     32957     32973     32970     32972     32957     32973     32975     32976
     32957     32977     32980     32981     32958     32957     32973     32970
     32958     32957     32973     32974     32958     32957     32973     32975
     32958     32957     32977     32978     32958     32957     32977     32979
     32958     32957     32977     32980     32959     32955     32960     32961
     32959     32955     32960     32962     32959     32955     32960     32970
     32959     32957     32973     32970     32959     32957     32973     32974
     32959     32957     32973     32975     32959     32957     32977     32978
     32959     32957     32977     32979     32959     32957     32977     32980
     32960     32962     32964     32965     32960     32962     32964     32966
     32960     32970     32972     32982     32960     32970     32973     32974
     32960     32970     32973     32975     32961     32960     32962     32963
     32961     32960     32962     32964     32961     32960     32970     32971
     32961     32960     32970     32972     32961     32960     32970     32973
     32962     32960     32970     32971     32962     32960     32970     32972
     32962     32960     32970     32973     32962     32964     32966     32967
     32962     32964     32966     32968     32962     32964     32966     32969
     32963     32962     32960     32970     32963     32962     32964     32965
     32963     32962     32964     32966     32964     32962     32960     32970
     32965     32964     32966     32967     32965     32964     32966     32968
     32965     32964     32966     32969     32970     32972     32982     32983
     32970     32972     32982     32986     32970     32972     32982     32987
     32970     32973     32957     32977     32970     32973     32975     32976
     32971     32970     32972     32982     32971     32970     32973     32974
     32971     32970     32973     32975     32972     32970     32973     32974
     32972     32970     32973     32975     32972     32982     32986     32984
     32972     32982     32987     32988     32972     32982     32987     32989
     32972     32982     32987     32990     32973     32957     32977     32978
     32973     32957     32977     32979     32973     32957     32977     32980
     32973     32970     32972     32982     32974     32973     32957     32977
     32974     32973     32975     32976     32975     32973     32957     32977
     32978     32977     32980     32981     32979     32977     32980     32981
     32982     32986     32984     32985     32982     32986     32984     32994
     32982     32986     32984     32998     32982     32987     32989     33003
     32982     32987     32990     32991     32982     32987     32990     32992
     32982     32987     32990     32994     32983     32982     32986     32984
     32983     32982     32987     32988     32983     32982     32987     32989
     32983     32982     32987     32990     32984     32986     32982     32987
     32984     32994     32990     32987     32984     32994     32990     32991
     32984     32994     32990     32992     32984     32994     32996     32997
     32984     32998     33001     33002     32985     32984     32994     32990
     32985     32984     32994     32995     32985     32984     32994     32996
     32985     32984     32998     32999     32985     32984     32998     33000
     32985     32984     32998     33001     32986     32982     32987     32988
     32986     32982     32987     32989     32986     32982     32987     32990
     32986     32984     32994     32990     32986     32984     32994     32995
     32986     32984     32994     32996     32986     32984     32998     32999
     32986     32984     32998     33000     32986     32984     32998     33001
     32987     32989     33003     33004     32987     32989     33003     33007
     32987     32989     33003     33008     32987     32990     32992     32993
     32987     32990     32994     32995     32987     32990     32994     32996
     32988     32987     32989     33003     32988     32987     32990     32991
     32988     32987     32990     32992     32988     32987     32990     32994
     32989     32987     32990     32991     32989     32987     32990     32992
     32989     32987     32990     32994     32989     33003     33007     33005
     32989     33003     33008     33009     32989     33003     33008     33010
     32989     33003     33008     33011     32990     32987     32989     33003
     32990     32994     32984     32998     32990     32994     32996     32997
     32991     32990     32992     32993     32991     32990     32994     32995
     32991     32990     32994     32996     32992     32990     32994     32995
     32992     32990     32994     32996     32993     32992     32990     32994
     32994     32984     32998     32999     32994     32984     32998     33000
     32994     32984     32998     33001     32995     32994     32984     32998
     32995     32994     32996     32997     32996     32994     32984     32998
     32999     32998     33001     33002     33000     32998     33001     33002
     33003     33007     33005     33006     33003     33007     33005     33015
     33003     33007     33005     33019     33003     33008     33010     33023
     33003     33008     33011     33012     33003     33008     33011     33013
     33003     33008     33011     33015     33004     33003     33007     33005
     33004     33003     33008     33009     33004     33003     33008     33010
     33004     33003     33008     33011     33005     33007     33003     33008
     33005     33015     33011     33008     33005     33015     33011     33012
     33005     33015     33011     33013     33005     33015     33017     33018
     33006     33005     33015     33011     33006     33005     33015     33016
     33006     33005     33015     33017     33006     33005     33019     33020
     33006     33005     33019     33021     33006     33005     33019     33022
     33007     33003     33008     33009     33007     33003     33008     33010
     33007     33003     33008     33011     33007     33005     33015     33011
     33007     33005     33015     33016     33007     33005     33015     33017
     33007     33005     33019     33020     33007     33005     33019     33021
     33007     33005     33019     33022     33008     33010     33023     33024
     33008     33010     33023     33027     33008     33010     33023     33028
     33008     33011     33013     33014     33008     33011     33015     33016
     33008     33011     33015     33017     33009     33008     33010     33023
     33009     33008     33011     33012     33009     33008     33011     33013
     33009     33008     33011     33015     33010     33008     33011     33012
     33010     33008     33011     33013     33010     33008     33011     33015
     33010     33023     33027     33025     33010     33023     33028     33029
     33010     33023     33028     33030     33010     33023     33028     33031
     33011     33008     33010     33023     33011     33015     33005     33019
     33011     33015     33017     33018     33012     33011     33013     33014
     33012     33011     33015     33016     33012     33011     33015     33017
     33013     33011     33015     33016     33013     33011     33015     33017
     33014     33013     33011     33015     33015     33005     33019     33020
     33015     33005     33019     33021     33015     33005     33019     33022
     33016     33015     33005     33019     33016     33015     33017     33018
     33017     33015     33005     33019     33023     33027     33025     33026
     33023     33027     33025     33034     33023     33027     33025     33038
     33023     33028     33030     33042     33023     33028     33031     33032
     33023     33028     33031     33033     33023     33028     33031     33034
     33024     33023     33027     33025     33024     33023     33028     33029
     33024     33023     33028     33030     33024     33023     33028     33031
     33025     33027     33023     33028     33025     33034     33031     33028
     33025     33034     33031     33032     33025     33034     33031     33033
     33025     33034     33036     33037     33026     33025     33034     33031
     33026     33025     33034     33035     33026     33025     33034     33036
     33026     33025     33038     33039     33026     33025     33038     33040
     33026     33025     33038     33041     33027     33023     33028     33029
     33027     33023     33028     33030     33027     33023     33028     33031
     33027     33025     33034     33031     33027     33025     33034     33035
     33027     33025     33034     33036     33027     33025     33038     33039
     33027     33025     33038     33040     33027     33025     33038     33041
     33028     33030     33042     33043     33028     33030     33042     33046
     33028     33030     33042     33047     33028     33031     33033     33070
     33028     33031     33034     33035     33028     33031     33034     33036
     33029     33028     33030     33042     33029     33028     33031     33032
     33029     33028     33031     33033     33029     33028     33031     33034
     33030     33028     33031     33032     33030     33028     33031     33033
     33030     33028     33031     33034     33030     33042     33046     33044
     33030     33042     33047     33048     33030     33042     33047     33049
     33030     33042     33047     33057     33031     33028     33030     33042
     33031     33033     33070     33071     33031     33033     33070     33074
     33031     33033     33070     33075     33031     33034     33025     33038
     33031     33034     33036     33037     33032     33031     33033     33070
     33032     33031     33034     33035     33032     33031     33034     33036
     33033     33031     33034     33035     33033     33031     33034     33036
     33033     33070     33074     33072     33033     33070     33075     33076
     33033     33070     33075     33077     33033     33070     33075     33085
     33034     33025     33038     33039     33034     33025     33038     33040
     33034     33025     33038     33041     33034     33031     33033     33070
     33035     33034     33025     33038     33035     33034     33036     33037
     33036     33034     33025     33038     33042     33046     33044     33045
     33042     33046     33044     33061     33042     33046     33044     33065
     33042     33047     33049     33050     33042     33047     33049     33051
     33042     33047     33057     33058     33042     33047     33057     33059
     33042     33047     33057     33061     33043     33042     33046     33044
     33043     33042     33047     33048     33043     33042     33047     33049
     33043     33042     33047     33057     33044     33046     33042     33047
     33044     33061     33057     33047     33044     33061     33057     33058
     33044     33061     33057     33059     33044     33061     33063     33064
     33044     33065     33068     33069     33045     33044     33061     33057
     33045     33044     33061     33062     33045     33044     33061     33063
     33045     33044     33065     33066     33045     33044     33065     33067
     33045     33044     33065     33068     33046     33042     33047     33048
     33046     33042     33047     33049     33046     33042     33047     33057
     33046     33044     33061     33057     33046     33044     33061     33062
     33046     33044     33061     33063     33046     33044     33065     33066
     33046     33044     33065     33067     33046     33044     33065     33068
     33047     33049     33051     33052     33047     33049     33051     33053
     33047     33057     33059     33060     33047     33057     33061     33062
     33047     33057     33061     33063     33048     33047     33049     33050
     33048     33047     33049     33051     33048     33047     33057     33058
     33048     33047     33057     33059     33048     33047     33057     33061
     33049     33047     33057     33058     33049     33047     33057     33059
     33049     33047     33057     33061     33049     33051     33053     33054
     33049     33051     33053     33055     33049     33051     33053     33056
     33050     33049     33047     33057     33050     33049     33051     33052
     33050     33049     33051     33053     33051     33049     33047     33057
     33052     33051     33053     33054     33052     33051     33053     33055
     33052     33051     33053     33056     33057     33061     33044     33065
     33057     33061     33063     33064     33058     33057     33059     33060
     33058     33057     33061     33062     33058     33057     33061     33063
     33059     33057     33061     33062     33059     33057     33061     33063
     33060     33059     33057     33061     33061     33044     33065     33066
     33061     33044     33065     33067     33061     33044     33065     33068
     33062     33061     33044     33065     33062     33061     33063     33064
     33063     33061     33044     33065     33066     33065     33068     33069
     33067     33065     33068     33069     33070     33074     33072     33073
     33070     33074     33072     33088     33070     33074     33072     33092
     33070     33075     33077     33078     33070     33075     33077     33079
     33070     33075     33085     33086     33070     33075     33085     33087
     33070     33075     33085     33088     33071     33070     33074     33072
     33071     33070     33075     33076     33071     33070     33075     33077
     33071     33070     33075     33085     33072     33074     33070     33075
     33072     33088     33085     33075     33072     33088     33085     33086
     33072     33088     33085     33087     33072     33088     33090     33091
     33072     33092     33095     33096     33073     33072     33088     33085
     33073     33072     33088     33089     33073     33072     33088     33090
     33073     33072     33092     33093     33073     33072     33092     33094
     33073     33072     33092     33095     33074     33070     33075     33076
     33074     33070     33075     33077     33074     33070     33075     33085
     33074     33072     33088     33085     33074     33072     33088     33089
     33074     33072     33088     33090     33074     33072     33092     33093
     33074     33072     33092     33094     33074     33072     33092     33095
     33075     33077     33079     33080     33075     33077     33079     33081
     33075     33085     33087     33097     33075     33085     33088     33089
     33075     33085     33088     33090     33076     33075     33077     33078
     33076     33075     33077     33079     33076     33075     33085     33086
     33076     33075     33085     33087     33076     33075     33085     33088
     33077     33075     33085     33086     33077     33075     33085     33087
     33077     33075     33085     33088     33077     33079     33081     33082
     33077     33079     33081     33083     33077     33079     33081     33084
     33078     33077     33075     33085     33078     33077     33079     33080
     33078     33077     33079     33081     33079     33077     33075     33085
     33080     33079     33081     33082     33080     33079     33081     33083
     33080     33079     33081     33084     33085     33087     33097     33098
     33085     33087     33097     33101     33085     33087     33097     33102
     33085     33088     33072     33092     33085     33088     33090     33091
     33086     33085     33087     33097     33086     33085     33088     33089
     33086     33085     33088     33090     33087     33085     33088     33089
     33087     33085     33088     33090     33087     33097     33101     33099
     33087     33097     33102     33103     33087     33097     33102     33104
     33087     33097     33102     33105     33088     33072     33092     33093
     33088     33072     33092     33094     33088     33072     33092     33095
     33088     33085     33087     33097     33089     33088     33072     33092
     33089     33088     33090     33091     33090     33088     33072     33092
     33093     33092     33095     33096     33094     33092     33095     33096
     33097     33101     33099     33100     33097     33101     33099     33109
     33097     33101     33099     33113     33097     33102     33104     33118
     33097     33102     33105     33106     33097     33102     33105     33107
     33097     33102     33105     33109     33098     33097     33101     33099
     33098     33097     33102     33103     33098     33097     33102     33104
     33098     33097     33102     33105     33099     33101     33097     33102
     33099     33109     33105     33102     33099     33109     33105     33106
     33099     33109     33105     33107     33099     33109     33111     33112
     33099     33113     33116     33117     33100     33099     33109     33105
     33100     33099     33109     33110     33100     33099     33109     33111
     33100     33099     33113     33114     33100     33099     33113     33115
     33100     33099     33113     33116     33101     33097     33102     33103
     33101     33097     33102     33104     33101     33097     33102     33105
     33101     33099     33109     33105     33101     33099     33109     33110
     33101     33099     33109     33111     33101     33099     33113     33114
     33101     33099     33113     33115     33101     33099     33113     33116
     33102     33104     33118     33119     33102     33104     33118     33122
     33102     33104     33118     33123     33102     33105     33107     33108
     33102     33105     33109     33110     33102     33105     33109     33111
     33103     33102     33104     33118     33103     33102     33105     33106
     33103     33102     33105     33107     33103     33102     33105     33109
     33104     33102     33105     33106     33104     33102     33105     33107
     33104     33102     33105     33109     33104     33118     33122     33120
     33104     33118     33123     33124     33104     33118     33123     33125
     33104     33118     33123     33126     33105     33102     33104     33118
     33105     33109     33099     33113     33105     33109     33111     33112
     33106     33105     33107     33108     33106     33105     33109     33110
     33106     33105     33109     33111     33107     33105     33109     33110
     33107     33105     33109     33111     33108     33107     33105     33109
     33109     33099     33113     33114     33109     33099     33113     33115
     33109     33099     33113     33116     33110     33109     33099     33113
     33110     33109     33111     33112     33111     33109     33099     33113
     33114     33113     33116     33117     33115     33113     33116     33117
     33118     33122     33120     33121     33118     33122     33120     33130
     33118     33122     33120     33134     33118     33123     33125     33138
     33118     33123     33126     33127     33118     33123     33126     33128
     33118     33123     33126     33130     33119     33118     33122     33120
     33119     33118     33123     33124     33119     33118     33123     33125
     33119     33118     33123     33126     33120     33122     33118     33123
     33120     33130     33126     33123     33120     33130     33126     33127
     33120     33130     33126     33128     33120     33130     33132     33133
     33121     33120     33130     33126     33121     33120     33130     33131
     33121     33120     33130     33132     33121     33120     33134     33135
     33121     33120     33134     33136     33121     33120     33134     33137
     33122     33118     33123     33124     33122     33118     33123     33125
     33122     33118     33123     33126     33122     33120     33130     33126
     33122     33120     33130     33131     33122     33120     33130     33132
     33122     33120     33134     33135     33122     33120     33134     33136
     33122     33120     33134     33137     33123     33125     33138     33139
     33123     33125     33138     33142     33123     33125     33138     33143
     33123     33126     33128     33129     33123     33126     33130     33131
     33123     33126     33130     33132     33124     33123     33125     33138
     33124     33123     33126     33127     33124     33123     33126     33128
     33124     33123     33126     33130     33125     33123     33126     33127
     33125     33123     33126     33128     33125     33123     33126     33130
     33125     33138     33142     33140     33125     33138     33143     33144
     33125     33138     33143     33145     33125     33138     33143     33146
     33126     33123     33125     33138     33126     33130     33120     33134
     33126     33130     33132     33133     33127     33126     33128     33129
     33127     33126     33130     33131     33127     33126     33130     33132
     33128     33126     33130     33131     33128     33126     33130     33132
     33129     33128     33126     33130     33130     33120     33134     33135
     33130     33120     33134     33136     33130     33120     33134     33137
     33131     33130     33120     33134     33131     33130     33132     33133
     33132     33130     33120     33134     33138     33142     33140     33141
     33138     33142     33140     33149     33138     33142     33140     33153
     33138     33143     33145     33157     33138     33143     33146     33147
     33138     33143     33146     33148     33138     33143     33146     33149
     33139     33138     33142     33140     33139     33138     33143     33144
     33139     33138     33143     33145     33139     33138     33143     33146
     33140     33142     33138     33143     33140     33149     33146     33143
     33140     33149     33146     33147     33140     33149     33146     33148
     33140     33149     33151     33152     33141     33140     33149     33146
     33141     33140     33149     33150     33141     33140     33149     33151
     33141     33140     33153     33154     33141     33140     33153     33155
     33141     33140     33153     33156     33142     33138     33143     33144
     33142     33138     33143     33145     33142     33138     33143     33146
     33142     33140     33149     33146     33142     33140     33149     33150
     33142     33140     33149     33151     33142     33140     33153     33154
     33142     33140     33153     33155     33142     33140     33153     33156
     33143     33145     33157     33158     33143     33145     33157     33161
     33143     33145     33157     33162     33143     33146     33148     33185
     33143     33146     33149     33150     33143     33146     33149     33151
     33144     33143     33145     33157     33144     33143     33146     33147
     33144     33143     33146     33148     33144     33143     33146     33149
     33145     33143     33146     33147     33145     33143     33146     33148
     33145     33143     33146     33149     33145     33157     33161     33159
     33145     33157     33162     33163     33145     33157     33162     33164
     33145     33157     33162     33172     33146     33143     33145     33157
     33146     33148     33185     33186     33146     33148     33185     33189
     33146     33148     33185     33190     33146     33149     33140     33153
     33146     33149     33151     33152     33147     33146     33148     33185
     33147     33146     33149     33150     33147     33146     33149     33151
     33148     33146     33149     33150     33148     33146     33149     33151
     33148     33185     33189     33187     33148     33185     33190     33191
     33148     33185     33190     33192     33148     33185     33190     33200
     33149     33140     33153     33154     33149     33140     33153     33155
     33149     33140     33153     33156     33149     33146     33148     33185
     33150     33149     33140     33153     33150     33149     33151     33152
     33151     33149     33140     33153     33157     33161     33159     33160
     33157     33161     33159     33176     33157     33161     33159     33180
     33157     33162     33164     33165     33157     33162     33164     33166
     33157     33162     33172     33173     33157     33162     33172     33174
     33157     33162     33172     33176     33158     33157     33161     33159
     33158     33157     33162     33163     33158     33157     33162     33164
     33158     33157     33162     33172     33159     33161     33157     33162
     33159     33176     33172     33162     33159     33176     33172     33173
     33159     33176     33172     33174     33159     33176     33178     33179
     33159     33180     33183     33184     33160     33159     33176     33172
     33160     33159     33176     33177     33160     33159     33176     33178
     33160     33159     33180     33181     33160     33159     33180     33182
     33160     33159     33180     33183     33161     33157     33162     33163
     33161     33157     33162     33164     33161     33157     33162     33172
     33161     33159     33176     33172     33161     33159     33176     33177
     33161     33159     33176     33178     33161     33159     33180     33181
     33161     33159     33180     33182     33161     33159     33180     33183
     33162     33164     33166     33167     33162     33164     33166     33168
     33162     33172     33174     33175     33162     33172     33176     33177
     33162     33172     33176     33178     33163     33162     33164     33165
     33163     33162     33164     33166     33163     33162     33172     33173
     33163     33162     33172     33174     33163     33162     33172     33176
     33164     33162     33172     33173     33164     33162     33172     33174
     33164     33162     33172     33176     33164     33166     33168     33169
     33164     33166     33168     33170     33164     33166     33168     33171
     33165     33164     33162     33172     33165     33164     33166     33167
     33165     33164     33166     33168     33166     33164     33162     33172
     33167     33166     33168     33169     33167     33166     33168     33170
     33167     33166     33168     33171     33172     33176     33159     33180
     33172     33176     33178     33179     33173     33172     33174     33175
     33173     33172     33176     33177     33173     33172     33176     33178
     33174     33172     33176     33177     33174     33172     33176     33178
     33175     33174     33172     33176     33176     33159     33180     33181
     33176     33159     33180     33182     33176     33159     33180     33183
     33177     33176     33159     33180     33177     33176     33178     33179
     33178     33176     33159     33180     33181     33180     33183     33184
     33182     33180     33183     33184     33185     33189     33187     33188
     33185     33189     33187     33203     33185     33189     33187     33207
     33185     33190     33192     33193     33185     33190     33192     33194
     33185     33190     33200     33201     33185     33190     33200     33202
     33185     33190     33200     33203     33186     33185     33189     33187
     33186     33185     33190     33191     33186     33185     33190     33192
     33186     33185     33190     33200     33187     33189     33185     33190
     33187     33203     33200     33190     33187     33203     33200     33201
     33187     33203     33200     33202     33187     33203     33205     33206
     33187     33207     33210     33211     33188     33187     33203     33200
     33188     33187     33203     33204     33188     33187     33203     33205
     33188     33187     33207     33208     33188     33187     33207     33209
     33188     33187     33207     33210     33189     33185     33190     33191
     33189     33185     33190     33192     33189     33185     33190     33200
     33189     33187     33203     33200     33189     33187     33203     33204
     33189     33187     33203     33205     33189     33187     33207     33208
     33189     33187     33207     33209     33189     33187     33207     33210
     33190     33192     33194     33195     33190     33192     33194     33196
     33190     33200     33202     33212     33190     33200     33203     33204
     33190     33200     33203     33205     33191     33190     33192     33193
     33191     33190     33192     33194     33191     33190     33200     33201
     33191     33190     33200     33202     33191     33190     33200     33203
     33192     33190     33200     33201     33192     33190     33200     33202
     33192     33190     33200     33203     33192     33194     33196     33197
     33192     33194     33196     33198     33192     33194     33196     33199
     33193     33192     33190     33200     33193     33192     33194     33195
     33193     33192     33194     33196     33194     33192     33190     33200
     33195     33194     33196     33197     33195     33194     33196     33198
     33195     33194     33196     33199     33200     33202     33212     33213
     33200     33202     33212     33216     33200     33202     33212     33217
     33200     33203     33187     33207     33200     33203     33205     33206
     33201     33200     33202     33212     33201     33200     33203     33204
     33201     33200     33203     33205     33202     33200     33203     33204
     33202     33200     33203     33205     33202     33212     33216     33214
     33202     33212     33217     33218     33202     33212     33217     33219
     33202     33212     33217     33220     33203     33187     33207     33208
     33203     33187     33207     33209     33203     33187     33207     33210
     33203     33200     33202     33212     33204     33203     33187     33207
     33204     33203     33205     33206     33205     33203     33187     33207
     33208     33207     33210     33211     33209     33207     33210     33211
     33212     33216     33214     33215     33212     33216     33214     33224
     33212     33216     33214     33228     33212     33217     33219     33233
     33212     33217     33220     33221     33212     33217     33220     33222
     33212     33217     33220     33224     33213     33212     33216     33214
     33213     33212     33217     33218     33213     33212     33217     33219
     33213     33212     33217     33220     33214     33216     33212     33217
     33214     33224     33220     33217     33214     33224     33220     33221
     33214     33224     33220     33222     33214     33224     33226     33227
     33214     33228     33231     33232     33215     33214     33224     33220
     33215     33214     33224     33225     33215     33214     33224     33226
     33215     33214     33228     33229     33215     33214     33228     33230
     33215     33214     33228     33231     33216     33212     33217     33218
     33216     33212     33217     33219     33216     33212     33217     33220
     33216     33214     33224     33220     33216     33214     33224     33225
     33216     33214     33224     33226     33216     33214     33228     33229
     33216     33214     33228     33230     33216     33214     33228     33231
     33217     33219     33233     33234     33217     33219     33233     33237
     33217     33219     33233     33238     33217     33220     33222     33223
     33217     33220     33224     33225     33217     33220     33224     33226
     33218     33217     33219     33233     33218     33217     33220     33221
     33218     33217     33220     33222     33218     33217     33220     33224
     33219     33217     33220     33221     33219     33217     33220     33222
     33219     33217     33220     33224     33219     33233     33237     33235
     33219     33233     33238     33239     33219     33233     33238     33240
     33219     33233     33238     33241     33220     33217     33219     33233
     33220     33224     33214     33228     33220     33224     33226     33227
     33221     33220     33222     33223     33221     33220     33224     33225
     33221     33220     33224     33226     33222     33220     33224     33225
     33222     33220     33224     33226     33223     33222     33220     33224
     33224     33214     33228     33229     33224     33214     33228     33230
     33224     33214     33228     33231     33225     33224     33214     33228
     33225     33224     33226     33227     33226     33224     33214     33228
     33229     33228     33231     33232     33230     33228     33231     33232
     33233     33237     33235     33236     33233     33237     33235     33245
     33233     33237     33235     33249     33233     33238     33240     33253
     33233     33238     33241     33242     33233     33238     33241     33243
     33233     33238     33241     33245     33234     33233     33237     33235
     33234     33233     33238     33239     33234     33233     33238     33240
     33234     33233     33238     33241     33235     33237     33233     33238
     33235     33245     33241     33238     33235     33245     33241     33242
     33235     33245     33241     33243     33235     33245     33247     33248
     33236     33235     33245     33241     33236     33235     33245     33246
     33236     33235     33245     33247     33236     33235     33249     33250
     33236     33235     33249     33251     33236     33235     33249     33252
     33237     33233     33238     33239     33237     33233     33238     33240
     33237     33233     33238     33241     33237     33235     33245     33241
     33237     33235     33245     33246     33237     33235     33245     33247
     33237     33235     33249     33250     33237     33235     33249     33251
     33237     33235     33249     33252     33238     33240     33253     33254
     33238     33240     33253     33257     33238     33240     33253     33258
     33238     33241     33243     33244     33238     33241     33245     33246
     33238     33241     33245     33247     33239     33238     33240     33253
     33239     33238     33241     33242     33239     33238     33241     33243
     33239     33238     33241     33245     33240     33238     33241     33242
     33240     33238     33241     33243     33240     33238     33241     33245
     33240     33253     33257     33255     33240     33253     33258     33259
     33240     33253     33258     33260     33240     33253     33258     33261
     33241     33238     33240     33253     33241     33245     33235     33249
     33241     33245     33247     33248     33242     33241     33243     33244
     33242     33241     33245     33246     33242     33241     33245     33247
     33243     33241     33245     33246     33243     33241     33245     33247
     33244     33243     33241     33245     33245     33235     33249     33250
     33245     33235     33249     33251     33245     33235     33249     33252
     33246     33245     33235     33249     33246     33245     33247     33248
     33247     33245     33235     33249     33253     33257     33255     33256
     33253     33257     33255     33265     33253     33257     33255     33269
     33253     33258     33260     33273     33253     33258     33261     33262
     33253     33258     33261     33263     33253     33258     33261     33265
     33254     33253     33257     33255     33254     33253     33258     33259
     33254     33253     33258     33260     33254     33253     33258     33261
     33255     33257     33253     33258     33255     33265     33261     33258
     33255     33265     33261     33262     33255     33265     33261     33263
     33255     33265     33267     33268     33256     33255     33265     33261
     33256     33255     33265     33266     33256     33255     33265     33267
     33256     33255     33269     33270     33256     33255     33269     33271
     33256     33255     33269     33272     33257     33253     33258     33259
     33257     33253     33258     33260     33257     33253     33258     33261
     33257     33255     33265     33261     33257     33255     33265     33266
     33257     33255     33265     33267     33257     33255     33269     33270
     33257     33255     33269     33271     33257     33255     33269     33272
     33258     33260     33273     33274     33258     33260     33273     33277
     33258     33260     33273     33278     33258     33261     33263     33264
     33258     33261     33265     33266     33258     33261     33265     33267
     33259     33258     33260     33273     33259     33258     33261     33262
     33259     33258     33261     33263     33259     33258     33261     33265
     33260     33258     33261     33262     33260     33258     33261     33263
     33260     33258     33261     33265     33260     33273     33277     33275
     33260     33273     33278     33279     33260     33273     33278     33280
     33260     33273     33278     33288     33261     33258     33260     33273
     33261     33265     33255     33269     33261     33265     33267     33268
     33262     33261     33263     33264     33262     33261     33265     33266
     33262     33261     33265     33267     33263     33261     33265     33266
     33263     33261     33265     33267     33264     33263     33261     33265
     33265     33255     33269     33270     33265     33255     33269     33271
     33265     33255     33269     33272     33266     33265     33255     33269
     33266     33265     33267     33268     33267     33265     33255     33269
     33273     33277     33275     33276     33273     33277     33275     33292
     33273     33277     33275     33296     33273     33278     33280     33281
     33273     33278     33280     33282     33273     33278     33288     33289
     33273     33278     33288     33290     33273     33278     33288     33292
     33274     33273     33277     33275     33274     33273     33278     33279
     33274     33273     33278     33280     33274     33273     33278     33288
     33275     33277     33273     33278     33275     33292     33288     33278
     33275     33292     33288     33289     33275     33292     33288     33290
     33275     33292     33294     33295     33275     33296     33299     33300
     33276     33275     33292     33288     33276     33275     33292     33293
     33276     33275     33292     33294     33276     33275     33296     33297
     33276     33275     33296     33298     33276     33275     33296     33299
     33277     33273     33278     33279     33277     33273     33278     33280
     33277     33273     33278     33288     33277     33275     33292     33288
     33277     33275     33292     33293     33277     33275     33292     33294
     33277     33275     33296     33297     33277     33275     33296     33298
     33277     33275     33296     33299     33278     33280     33282     33283
     33278     33280     33282     33284     33278     33288     33290     33291
     33278     33288     33292     33293     33278     33288     33292     33294
     33279     33278     33280     33281     33279     33278     33280     33282
     33279     33278     33288     33289     33279     33278     33288     33290
     33279     33278     33288     33292     33280     33278     33288     33289
     33280     33278     33288     33290     33280     33278     33288     33292
     33280     33282     33284     33285     33280     33282     33284     33286
     33280     33282     33284     33287     33281     33280     33278     33288
     33281     33280     33282     33283     33281     33280     33282     33284
     33282     33280     33278     33288     33283     33282     33284     33285
     33283     33282     33284     33286     33283     33282     33284     33287
     33288     33292     33275     33296     33288     33292     33294     33295
     33289     33288     33290     33291     33289     33288     33292     33293
     33289     33288     33292     33294     33290     33288     33292     33293
     33290     33288     33292     33294     33291     33290     33288     33292
     33292     33275     33296     33297     33292     33275     33296     33298
     33292     33275     33296     33299     33293     33292     33275     33296
     33293     33292     33294     33295     33294     33292     33275     33296
     33297     33296     33299     33300     33298     33296     33299     33300
     33301     33303     33302     33600     33301     33303     33305     33306
     33301     33303     33305     33307     33301     33303     33305     33314
     33302     33303     33305     33306     33302     33303     33305     33307
     33302     33303     33305     33314     33302     33600     33597     33598
     33302     33600     33597     33599     33302     33600     33603     33601
     33302     33600     33604     33605     33302     33600     33604     33606
     33302     33600     33604     33607     33303     33302     33600     33597
     33303     33302     33600     33603     33303     33302     33600     33604
     33303     33305     33306     33308     33303     33305     33314     33315
     33303     33305     33314     33316     33303     33305     33314     33321
     33304     33303     33302     33600     33304     33303     33305     33306
     33304     33303     33305     33307     33304     33303     33305     33314
     33305     33303     33302     33600     33305     33306     33308     33309
     33305     33306     33308     33310     33305     33306     33308     33329
     33305     33314     33316     33317     33305     33314     33321     33322
     33305     33314     33321     33323     33305     33314     33321     33329
     33306     33305     33314     33315     33306     33305     33314     33316
     33306     33305     33314     33321     33306     33308     33310     33311
     33306     33308     33329     33321     33306     33308     33329     33330
     33306     33308     33329     33331     33307     33305     33306     33308
     33307     33305     33314     33315     33307     33305     33314     33316
     33307     33305     33314     33321     33308     33306     33305     33314
     33308     33310     33311     33312     33308     33310     33311     33313
     33308     33310     33311     33337     33308     33329     33321     33314
     33308     33329     33321     33322     33308     33329     33321     33323
     33308     33329     33331     33332     33308     33329     33331     33438
     33309     33308     33310     33311     33309     33308     33329     33321
     33309     33308     33329     33330     33309     33308     33329     33331
     33310     33308     33329     33321     33310     33308     33329     33330
     33310     33308     33329     33331     33310     33311     33337     33333
     33310     33311     33337     33338     33310     33311     33337     33339
     33311     33310     33308     33329     33311     33337     33333     33334
     33311     33337     33333     33335     33311     33337     33333     33347
     33311     33337     33339     33340     33312     33311     33337     33333
     33312     33311     33337     33338     33312     33311     33337     33339
     33313     33311     33337     33333     33313     33311     33337     33338
     33313     33311     33337     33339     33314     33316     33317     33318
     33314     33316     33317     33319     33314     33316     33317     33320
     33314     33321     33322     33324     33314     33321     33329     33330
     33314     33321     33329     33331     33315     33314     33316     33317
     33315     33314     33321     33322     33315     33314     33321     33323
     33315     33314     33321     33329     33316     33314     33321     33322
     33316     33314     33321     33323     33316     33314     33321     33329
     33317     33316     33314     33321     33321     33322     33324     33325
     33321     33322     33324     33326     33321     33329     33331     33332
     33321     33329     33331     33438     33322     33321     33329     33330
     33322     33321     33329     33331     33322     33324     33326     33327
     33322     33324     33326     33328     33322     33324     33326     33359
     33323     33321     33322     33324     33323     33321     33329     33330
     33323     33321     33329     33331     33324     33322     33321     33329
     33324     33326     33359     33360     33324     33326     33359     33361
     33324     33326     33359     33404     33325     33324     33326     33327
     33325     33324     33326     33328     33325     33324     33326     33359
     33326     33359     33361     33362     33326     33359     33404     33405
     33326     33359     33404     33406     33326     33359     33404     33407
     33327     33326     33359     33360     33327     33326     33359     33361
     33327     33326     33359     33404     33328     33326     33359     33360
     33328     33326     33359     33361     33328     33326     33359     33404
     33329     33331     33438     33439     33329     33331     33438     33440
     33330     33329     33331     33332     33330     33329     33331     33438
     33331     33438     33440     33441     33331     33438     33440     33442
     33331     33438     33440     33443     33332     33331     33438     33439
     33332     33331     33438     33440     33333     33337     33339     33340
     33333     33347     33349     33350     33333     33347     33355     33340
     33333     33347     33355     33356     33333     33347     33355     33357
     33334     33333     33335     33336     33334     33333     33337     33338
     33334     33333     33337     33339     33334     33333     33347     33348
     33334     33333     33347     33349     33334     33333     33347     33355
     33335     33333     33337     33338     33335     33333     33337     33339
     33335     33333     33347     33348     33335     33333     33347     33349
     33335     33333     33347     33355     33336     33335     33333     33337
     33336     33335     33333     33347     33337     33333     33347     33348
     33337     33333     33347     33349     33337     33333     33347     33355
     33337     33339     33340     33341     33337     33339     33340     33342
     33337     33339     33340     33355     33338     33337     33333     33347
     33338     33337     33339     33340     33339     33337     33333     33347
     33339     33340     33342     33346     33339     33340     33355     33347
     33339     33340     33355     33356     33339     33340     33355     33357
     33340     33342     33346     33343     33340     33342     33346     33344
     33340     33342     33346     33345     33340     33355     33347     33348
     33340     33355     33347     33349     33340     33355     33357     33358
     33340     33355     33357     33554     33341     33340     33342     33346
     33341     33340     33355     33347     33341     33340     33355     33356
     33341     33340     33355     33357     33342     33340     33355     33347
     33342     33340     33355     33356     33342     33340     33355     33357
     33346     33342     33340     33355     33347     33349     33350     33351
     33347     33349     33350     33352     33347     33355     33357     33358
     33347     33355     33357     33554     33348     33347     33349     33350
     33348     33347     33355     33356     33348     33347     33355     33357
     33349     33347     33355     33356     33349     33347     33355     33357
     33349     33350     33352     33353     33349     33350     33352     33354
     33349     33350     33352     33516     33350     33349     33347     33355
     33350     33352     33516     33517     33350     33352     33516     33518
     33350     33352     33516     33520     33351     33350     33352     33353
     33351     33350     33352     33354     33351     33350     33352     33516
     33352     33516     33518     33519     33352     33516     33520     33521
     33352     33516     33520     33522     33352     33516     33520     33523
     33353     33352     33516     33517     33353     33352     33516     33518
     33353     33352     33516     33520     33354     33352     33516     33517
     33354     33352     33516     33518     33354     33352     33516     33520
     33355     33357     33554     33555     33355     33357     33554     33556
     33356     33355     33357     33358     33356     33355     33357     33554
     33357     33554     33556     33557     33357     33554     33556     33558
     33357     33554     33556     33559     33358     33357     33554     33555
     33358     33357     33554     33556     33359     33361     33362     33363
     33359     33361     33362     33364     33359     33404     33407     33408
     33359     33404     33407     33409     33359     33404     33407     33410
     33360     33359     33361     33362     33360     33359     33404     33405
     33360     33359     33404     33406     33360     33359     33404     33407
     33361     33359     33404     33405     33361     33359     33404     33406
     33361     33359     33404     33407     33361     33362     33364     33365
     33361     33362     33364     33366     33361     33362     33364     33367
     33362     33361     33359     33404     33362     33364     33367     33368
     33362     33364     33367     33369     33362     33364     33367     33370
     33363     33362     33364     33365     33363     33362     33364     33366
     33363     33362     33364     33367     33364     33367     33370     33371
     33364     33367     33370     33372     33364     33367     33370     33373
     33365     33364     33367     33368     33365     33364     33367     33369
     33365     33364     33367     33370     33366     33364     33367     33368
     33366     33364     33367     33369     33366     33364     33367     33370
     33367     33370     33373     33374     33367     33370     33373     33375
     33367     33370     33373     33376     33368     33367     33370     33371
     33368     33367     33370     33372     33368     33367     33370     33373
     33369     33367     33370     33371     33369     33367     33370     33372
     33369     33367     33370     33373     33370     33373     33376     33377
     33370     33373     33376     33378     33370     33373     33376     33379
     33371     33370     33373     33374     33371     33370     33373     33375
     33371     33370     33373     33376     33372     33370     33373     33374
     33372     33370     33373     33375     33372     33370     33373     33376
     33373     33376     33379     33380     33373     33376     33379     33381
     33373     33376     33379     33382     33374     33373     33376     33377
     33374     33373     33376     33378     33374     33373     33376     33379
     33375     33373     33376     33377     33375     33373     33376     33378
     33375     33373     33376     33379     33376     33379     33382     33383
     33376     33379     33382     33384     33376     33379     33382     33385
     33377     33376     33379     33380     33377     33376     33379     33381
     33377     33376     33379     33382     33378     33376     33379     33380
     33378     33376     33379     33381     33378     33376     33379     33382
     33379     33382     33385     33386     33379     33382     33385     33387
     33379     33382     33385     33388     33380     33379     33382     33383
     33380     33379     33382     33384     33380     33379     33382     33385
     33381     33379     33382     33383     33381     33379     33382     33384
     33381     33379     33382     33385     33382     33385     33388     33389
     33382     33385     33388     33390     33382     33385     33388     33391
     33383     33382     33385     33386     33383     33382     33385     33387
     33383     33382     33385     33388     33384     33382     33385     33386
     33384     33382     33385     33387     33384     33382     33385     33388
     33385     33388     33391     33392     33385     33388     33391     33393
     33385     33388     33391     33394     33386     33385     33388     33389
     33386     33385     33388     33390     33386     33385     33388     33391
     33387     33385     33388     33389     33387     33385     33388     33390
     33387     33385     33388     33391     33388     33391     33394     33395
     33388     33391     33394     33396     33388     33391     33394     33397
     33389     33388     33391     33392     33389     33388     33391     33393
     33389     33388     33391     33394     33390     33388     33391     33392
     33390     33388     33391     33393     33390     33388     33391     33394
     33391     33394     33397     33398     33391     33394     33397     33399
     33391     33394     33397     33400     33392     33391     33394     33395
     33392     33391     33394     33396     33392     33391     33394     33397
     33393     33391     33394     33395     33393     33391     33394     33396
     33393     33391     33394     33397     33394     33397     33400     33401
     33394     33397     33400     33402     33394     33397     33400     33403
     33395     33394     33397     33398     33395     33394     33397     33399
     33395     33394     33397     33400     33396     33394     33397     33398
     33396     33394     33397     33399     33396     33394     33397     33400
     33398     33397     33400     33401     33398     33397     33400     33402
     33398     33397     33400     33403     33399     33397     33400     33401
     33399     33397     33400     33402     33399     33397     33400     33403
     33404     33407     33410     33411     33404     33407     33410     33412
     33404     33407     33410     33413     33405     33404     33407     33408
     33405     33404     33407     33409     33405     33404     33407     33410
     33406     33404     33407     33408     33406     33404     33407     33409
     33406     33404     33407     33410     33407     33410     33413     33414
     33407     33410     33413     33415     33407     33410     33413     33416
     33408     33407     33410     33411     33408     33407     33410     33412
     33408     33407     33410     33413     33409     33407     33410     33411
     33409     33407     33410     33412     33409     33407     33410     33413
     33410     33413     33416     33417     33410     33413     33416     33418
     33410     33413     33416     33419     33411     33410     33413     33414
     33411     33410     33413     33415     33411     33410     33413     33416
     33412     33410     33413     33414     33412     33410     33413     33415
     33412     33410     33413     33416     33413     33416     33419     33420
     33413     33416     33419     33421     33413     33416     33419     33422
     33414     33413     33416     33417     33414     33413     33416     33418
     33414     33413     33416     33419     33415     33413     33416     33417
     33415     33413     33416     33418     33415     33413     33416     33419
     33416     33419     33422     33423     33416     33419     33422     33424
     33416     33419     33422     33425     33417     33416     33419     33420
     33417     33416     33419     33421     33417     33416     33419     33422
     33418     33416     33419     33420     33418     33416     33419     33421
     33418     33416     33419     33422     33419     33422     33425     33426
     33419     33422     33425     33427     33419     33422     33425     33428
     33420     33419     33422     33423     33420     33419     33422     33424
     33420     33419     33422     33425     33421     33419     33422     33423
     33421     33419     33422     33424     33421     33419     33422     33425
     33422     33425     33428     33429     33422     33425     33428     33430
     33422     33425     33428     33431     33423     33422     33425     33426
     33423     33422     33425     33427     33423     33422     33425     33428
     33424     33422     33425     33426     33424     33422     33425     33427
     33424     33422     33425     33428     33425     33428     33431     33432
     33425     33428     33431     33433     33425     33428     33431     33434
     33426     33425     33428     33429     33426     33425     33428     33430
     33426     33425     33428     33431     33427     33425     33428     33429
     33427     33425     33428     33430     33427     33425     33428     33431
     33428     33431     33434     33435     33428     33431     33434     33436
     33428     33431     33434     33437     33429     33428     33431     33432
     33429     33428     33431     33433     33429     33428     33431     33434
     33430     33428     33431     33432     33430     33428     33431     33433
     33430     33428     33431     33434     33432     33431     33434     33435
     33432     33431     33434     33436     33432     33431     33434     33437
     33433     33431     33434     33435     33433     33431     33434     33436
     33433     33431     33434     33437     33438     33440     33443     33444
     33438     33440     33443     33445     33438     33440     33443     33482
     33439     33438     33440     33441     33439     33438     33440     33442
     33439     33438     33440     33443     33440     33443     33445     33446
     33440     33443     33482     33483     33440     33443     33482     33484
     33440     33443     33482     33485     33441     33440     33443     33444
     33441     33440     33443     33445     33441     33440     33443     33482
     33442     33440     33443     33444     33442     33440     33443     33445
     33442     33440     33443     33482     33443     33445     33446     33447
     33443     33445     33446     33448     33443     33482     33485     33486
     33443     33482     33485     33487     33443     33482     33485     33488
     33444     33443     33445     33446     33444     33443     33482     33483
     33444     33443     33482     33484     33444     33443     33482     33485
     33445     33443     33482     33483     33445     33443     33482     33484
     33445     33443     33482     33485     33445     33446     33448     33449
     33445     33446     33448     33450     33445     33446     33448     33451
     33446     33445     33443     33482     33446     33448     33451     33452
     33446     33448     33451     33453     33446     33448     33451     33454
     33447     33446     33448     33449     33447     33446     33448     33450
     33447     33446     33448     33451     33448     33451     33454     33455
     33448     33451     33454     33456     33448     33451     33454     33457
     33449     33448     33451     33452     33449     33448     33451     33453
     33449     33448     33451     33454     33450     33448     33451     33452
     33450     33448     33451     33453     33450     33448     33451     33454
     33451     33454     33457     33458     33451     33454     33457     33459
     33451     33454     33457     33460     33452     33451     33454     33455
     33452     33451     33454     33456     33452     33451     33454     33457
     33453     33451     33454     33455     33453     33451     33454     33456
     33453     33451     33454     33457     33454     33457     33460     33461
     33454     33457     33460     33462     33454     33457     33460     33463
     33455     33454     33457     33458     33455     33454     33457     33459
     33455     33454     33457     33460     33456     33454     33457     33458
     33456     33454     33457     33459     33456     33454     33457     33460
     33457     33460     33463     33464     33457     33460     33463     33465
     33457     33460     33463     33466     33458     33457     33460     33461
     33458     33457     33460     33462     33458     33457     33460     33463
     33459     33457     33460     33461     33459     33457     33460     33462
     33459     33457     33460     33463     33460     33463     33466     33467
     33460     33463     33466     33468     33460     33463     33466     33469
     33461     33460     33463     33464     33461     33460     33463     33465
     33461     33460     33463     33466     33462     33460     33463     33464
     33462     33460     33463     33465     33462     33460     33463     33466
     33463     33466     33469     33470     33463     33466     33469     33471
     33463     33466     33469     33472     33464     33463     33466     33467
     33464     33463     33466     33468     33464     33463     33466     33469
     33465     33463     33466     33467     33465     33463     33466     33468
     33465     33463     33466     33469     33466     33469     33472     33473
     33466     33469     33472     33474     33466     33469     33472     33475
     33467     33466     33469     33470     33467     33466     33469     33471
     33467     33466     33469     33472     33468     33466     33469     33470
     33468     33466     33469     33471     33468     33466     33469     33472
     33469     33472     33475     33476     33469     33472     33475     33477
     33469     33472     33475     33478     33470     33469     33472     33473
     33470     33469     33472     33474     33470     33469     33472     33475
     33471     33469     33472     33473     33471     33469     33472     33474
     33471     33469     33472     33475     33472     33475     33478     33479
     33472     33475     33478     33480     33472     33475     33478     33481
     33473     33472     33475     33476     33473     33472     33475     33477
     33473     33472     33475     33478     33474     33472     33475     33476
     33474     33472     33475     33477     33474     33472     33475     33478
     33476     33475     33478     33479     33476     33475     33478     33480
     33476     33475     33478     33481     33477     33475     33478     33479
     33477     33475     33478     33480     33477     33475     33478     33481
     33482     33485     33488     33489     33482     33485     33488     33490
     33482     33485     33488     33491     33483     33482     33485     33486
     33483     33482     33485     33487     33483     33482     33485     33488
     33484     33482     33485     33486     33484     33482     33485     33487
     33484     33482     33485     33488     33485     33488     33491     33492
     33485     33488     33491     33493     33485     33488     33491     33494
     33486     33485     33488     33489     33486     33485     33488     33490
     33486     33485     33488     33491     33487     33485     33488     33489
     33487     33485     33488     33490     33487     33485     33488     33491
     33488     33491     33494     33495     33488     33491     33494     33496
     33488     33491     33494     33497     33489     33488     33491     33492
     33489     33488     33491     33493     33489     33488     33491     33494
     33490     33488     33491     33492     33490     33488     33491     33493
     33490     33488     33491     33494     33491     33494     33497     33498
     33491     33494     33497     33499     33491     33494     33497     33500
     33492     33491     33494     33495     33492     33491     33494     33496
     33492     33491     33494     33497     33493     33491     33494     33495
     33493     33491     33494     33496     33493     33491     33494     33497
     33494     33497     33500     33501     33494     33497     33500     33502
     33494     33497     33500     33503     33495     33494     33497     33498
     33495     33494     33497     33499     33495     33494     33497     33500
     33496     33494     33497     33498     33496     33494     33497     33499
     33496     33494     33497     33500     33497     33500     33503     33504
     33497     33500     33503     33505     33497     33500     33503     33506
     33498     33497     33500     33501     33498     33497     33500     33502
     33498     33497     33500     33503     33499     33497     33500     33501
     33499     33497     33500     33502     33499     33497     33500     33503
     33500     33503     33506     33507     33500     33503     33506     33508
     33500     33503     33506     33509     33501     33500     33503     33504
     33501     33500     33503     33505     33501     33500     33503     33506
     33502     33500     33503     33504     33502     33500     33503     33505
     33502     33500     33503     33506     33503     33506     33509     33510
     33503     33506     33509     33511     33503     33506     33509     33512
     33504     33503     33506     33507     33504     33503     33506     33508
     33504     33503     33506     33509     33505     33503     33506     33507
     33505     33503     33506     33508     33505     33503     33506     33509
     33506     33509     33512     33513     33506     33509     33512     33514
     33506     33509     33512     33515     33507     33506     33509     33510
     33507     33506     33509     33511     33507     33506     33509     33512
     33508     33506     33509     33510     33508     33506     33509     33511
     33508     33506     33509     33512     33510     33509     33512     33513
     33510     33509     33512     33514     33510     33509     33512     33515
     33511     33509     33512     33513     33511     33509     33512     33514
     33511     33509     33512     33515     33516     33520     33523     33524
     33516     33520     33523     33525     33516     33520     33523     33526
     33517     33516     33518     33519     33517     33516     33520     33521
     33517     33516     33520     33522     33517     33516     33520     33523
     33518     33516     33520     33521     33518     33516     33520     33522
     33518     33516     33520     33523     33519     33518     33516     33520
     33520     33523     33526     33527     33520     33523     33526     33528
     33520     33523     33526     33529     33521     33520     33523     33524
     33521     33520     33523     33525     33521     33520     33523     33526
     33522     33520     33523     33524     33522     33520     33523     33525
     33522     33520     33523     33526     33523     33526     33529     33530
     33523     33526     33529     33531     33523     33526     33529     33532
     33524     33523     33526     33527     33524     33523     33526     33528
     33524     33523     33526     33529     33525     33523     33526     33527
     33525     33523     33526     33528     33525     33523     33526     33529
     33526     33529     33532     33533     33526     33529     33532     33534
     33526     33529     33532     33535     33527     33526     33529     33530
     33527     33526     33529     33531     33527     33526     33529     33532
     33528     33526     33529     33530     33528     33526     33529     33531
     33528     33526     33529     33532     33529     33532     33535     33536
     33529     33532     33535     33537     33529     33532     33535     33538
     33530     33529     33532     33533     33530     33529     33532     33534
     33530     33529     33532     33535     33531     33529     33532     33533
     33531     33529     33532     33534     33531     33529     33532     33535
     33532     33535     33538     33539     33532     33535     33538     33540
     33532     33535     33538     33541     33533     33532     33535     33536
     33533     33532     33535     33537     33533     33532     33535     33538
     33534     33532     33535     33536     33534     33532     33535     33537
     33534     33532     33535     33538     33535     33538     33541     33542
     33535     33538     33541     33543     33535     33538     33541     33544
     33536     33535     33538     33539     33536     33535     33538     33540
     33536     33535     33538     33541     33537     33535     33538     33539
     33537     33535     33538     33540     33537     33535     33538     33541
     33538     33541     33544     33545     33538     33541     33544     33546
     33538     33541     33544     33547     33539     33538     33541     33542
     33539     33538     33541     33543     33539     33538     33541     33544
     33540     33538     33541     33542     33540     33538     33541     33543
     33540     33538     33541     33544     33541     33544     33547     33548
     33541     33544     33547     33549     33541     33544     33547     33550
     33542     33541     33544     33545     33542     33541     33544     33546
     33542     33541     33544     33547     33543     33541     33544     33545
     33543     33541     33544     33546     33543     33541     33544     33547
     33544     33547     33550     33551     33544     33547     33550     33552
     33544     33547     33550     33553     33545     33544     33547     33548
     33545     33544     33547     33549     33545     33544     33547     33550
     33546     33544     33547     33548     33546     33544     33547     33549
     33546     33544     33547     33550     33548     33547     33550     33551
     33548     33547     33550     33552     33548     33547     33550     33553
     33549     33547     33550     33551     33549     33547     33550     33552
     33549     33547     33550     33553     33554     33556     33559     33560
     33554     33556     33559     33561     33554     33556     33559     33563
     33555     33554     33556     33557     33555     33554     33556     33558
     33555     33554     33556     33559     33556     33559     33561     33562
     33556     33559     33563     33564     33556     33559     33563     33565
     33556     33559     33563     33566     33557     33556     33559     33560
     33557     33556     33559     33561     33557     33556     33559     33563
     33558     33556     33559     33560     33558     33556     33559     33561
     33558     33556     33559     33563     33559     33563     33566     33567
     33559     33563     33566     33568     33559     33563     33566     33569
     33560     33559     33561     33562     33560     33559     33563     33564
     33560     33559     33563     33565     33560     33559     33563     33566
     33561     33559     33563     33564     33561     33559     33563     33565
     33561     33559     33563     33566     33562     33561     33559     33563
     33563     33566     33569     33570     33563     33566     33569     33571
     33563     33566     33569     33572     33564     33563     33566     33567
     33564     33563     33566     33568     33564     33563     33566     33569
     33565     33563     33566     33567     33565     33563     33566     33568
     33565     33563     33566     33569     33566     33569     33572     33573
     33566     33569     33572     33574     33566     33569     33572     33575
     33567     33566     33569     33570     33567     33566     33569     33571
     33567     33566     33569     33572     33568     33566     33569     33570
     33568     33566     33569     33571     33568     33566     33569     33572
     33569     33572     33575     33576     33569     33572     33575     33577
     33569     33572     33575     33578     33570     33569     33572     33573
     33570     33569     33572     33574     33570     33569     33572     33575
     33571     33569     33572     33573     33571     33569     33572     33574
     33571     33569     33572     33575     33572     33575     33578     33579
     33572     33575     33578     33580     33572     33575     33578     33581
     33573     33572     33575     33576     33573     33572     33575     33577
     33573     33572     33575     33578     33574     33572     33575     33576
     33574     33572     33575     33577     33574     33572     33575     33578
     33575     33578     33581     33582     33575     33578     33581     33583
     33575     33578     33581     33584     33576     33575     33578     33579
     33576     33575     33578     33580     33576     33575     33578     33581
     33577     33575     33578     33579     33577     33575     33578     33580
     33577     33575     33578     33581     33578     33581     33584     33585
     33578     33581     33584     33586     33578     33581     33584     33587
     33579     33578     33581     33582     33579     33578     33581     33583
     33579     33578     33581     33584     33580     33578     33581     33582
     33580     33578     33581     33583     33580     33578     33581     33584
     33581     33584     33587     33588     33581     33584     33587     33589
     33581     33584     33587     33590     33582     33581     33584     33585
     33582     33581     33584     33586     33582     33581     33584     33587
     33583     33581     33584     33585     33583     33581     33584     33586
     33583     33581     33584     33587     33584     33587     33590     33591
     33584     33587     33590     33592     33584     33587     33590     33593
     33585     33584     33587     33588     33585     33584     33587     33589
     33585     33584     33587     33590     33586     33584     33587     33588
     33586     33584     33587     33589     33586     33584     33587     33590
     33587     33590     33593     33594     33587     33590     33593     33595
     33587     33590     33593     33596     33588     33587     33590     33591
     33588     33587     33590     33592     33588     33587     33590     33593
     33589     33587     33590     33591     33589     33587     33590     33592
     33589     33587     33590     33593     33591     33590     33593     33594
     33591     33590     33593     33595     33591     33590     33593     33596
     33592     33590     33593     33594     33592     33590     33593     33595
     33592     33590     33593     33596     33597     33600     33603     33601
     33597     33600     33604     33605     33597     33600     33604     33606
     33597     33600     33604     33607     33598     33597     33600     33603
     33598     33597     33600     33604     33599     33597     33600     33603
     33599     33597     33600     33604     33600     33603     33601     33602
     33600     33603     33601     33610     33600     33603     33601     33613
     33600     33604     33607     33608     33600     33604     33607     33609
     33600     33604     33607     33610     33601     33603     33600     33604
     33601     33610     33607     33604     33601     33610     33607     33608
     33601     33610     33607     33609     33601     33610     33612     33649
     33601     33613     33615     33616     33601     33613     33617     33618
     33601     33613     33617     33619     33601     33613     33617     33620
     33602     33601     33610     33607     33602     33601     33610     33611
     33602     33601     33610     33612     33602     33601     33613     33614
     33602     33601     33613     33615     33602     33601     33613     33617
     33603     33600     33604     33605     33603     33600     33604     33606
     33603     33600     33604     33607     33603     33601     33610     33607
     33603     33601     33610     33611     33603     33601     33610     33612
     33603     33601     33613     33614     33603     33601     33613     33615
     33603     33601     33613     33617     33604     33607     33609     33625
     33604     33607     33610     33611     33604     33607     33610     33612
     33605     33604     33607     33608     33605     33604     33607     33609
     33605     33604     33607     33610     33606     33604     33607     33608
     33606     33604     33607     33609     33606     33604     33607     33610
     33607     33609     33625     33622     33607     33609     33625     33628
     33607     33609     33625     33629     33607     33610     33601     33613
     33607     33610     33612     33649     33608     33607     33609     33625
     33608     33607     33610     33611     33608     33607     33610     33612
     33609     33607     33610     33611     33609     33607     33610     33612
     33609     33625     33622     33623     33609     33625     33622     33624
     33609     33625     33628     33626     33609     33625     33629     33630
     33609     33625     33629     33631     33609     33625     33629     33632
     33610     33601     33613     33614     33610     33601     33613     33615
     33610     33601     33613     33617     33610     33607     33609     33625
     33610     33612     33649     33650     33610     33612     33649     33653
     33610     33612     33649     33654     33611     33610     33601     33613
     33611     33610     33612     33649     33612     33610     33601     33613
     33612     33649     33653     33651     33612     33649     33654     33655
     33612     33649     33654     33656     33612     33649     33654     33658
     33613     33617     33620     33621     33614     33613     33615     33616
     33614     33613     33617     33618     33614     33613     33617     33619
     33614     33613     33617     33620     33615     33613     33617     33618
     33615     33613     33617     33619     33615     33613     33617     33620
     33616     33615     33613     33617     33618     33617     33620     33621
     33619     33617     33620     33621     33622     33625     33628     33626
     33622     33625     33629     33630     33622     33625     33629     33631
     33622     33625     33629     33632     33623     33622     33625     33628
     33623     33622     33625     33629     33624     33622     33625     33628
     33624     33622     33625     33629     33625     33628     33626     33627
     33625     33628     33626     33636     33625     33628     33626     33640
     33625     33629     33632     33633     33625     33629     33632     33634
     33625     33629     33632     33636     33626     33628     33625     33629
     33626     33636     33632     33629     33626     33636     33632     33633
     33626     33636     33632     33634     33626     33636     33638     33639
     33626     33640     33642     33643     33626     33640     33644     33645
     33626     33640     33644     33646     33626     33640     33644     33647
     33627     33626     33636     33632     33627     33626     33636     33637
     33627     33626     33636     33638     33627     33626     33640     33641
     33627     33626     33640     33642     33627     33626     33640     33644
     33628     33625     33629     33630     33628     33625     33629     33631
     33628     33625     33629     33632     33628     33626     33636     33632
     33628     33626     33636     33637     33628     33626     33636     33638
     33628     33626     33640     33641     33628     33626     33640     33642
     33628     33626     33640     33644     33629     33632     33634     33635
     33629     33632     33636     33637     33629     33632     33636     33638
     33630     33629     33632     33633     33630     33629     33632     33634
     33630     33629     33632     33636     33631     33629     33632     33633
     33631     33629     33632     33634     33631     33629     33632     33636
     33632     33636     33626     33640     33632     33636     33638     33639
     33633     33632     33634     33635     33633     33632     33636     33637
     33633     33632     33636     33638     33634     33632     33636     33637
     33634     33632     33636     33638     33635     33634     33632     33636
     33636     33626     33640     33641     33636     33626     33640     33642
     33636     33626     33640     33644     33637     33636     33626     33640
     33637     33636     33638     33639     33638     33636     33626     33640
     33640     33644     33647     33648     33641     33640     33642     33643
     33641     33640     33644     33645     33641     33640     33644     33646
     33641     33640     33644     33647     33642     33640     33644     33645
     33642     33640     33644     33646     33642     33640     33644     33647
     33643     33642     33640     33644     33645     33644     33647     33648
     33646     33644     33647     33648     33649     33653     33651     33652
     33649     33653     33651     33661     33649     33653     33651     33668
     33649     33654     33656     33657     33649     33654     33658     33659
     33649     33654     33658     33660     33649     33654     33658     33661
     33650     33649     33653     33651     33650     33649     33654     33655
     33650     33649     33654     33656     33650     33649     33654     33658
     33651     33653     33649     33654     33651     33661     33658     33654
     33651     33661     33658     33659     33651     33661     33658     33660
     33651     33661     33663     33664     33651     33668     33670     33671
     33651     33668     33672     33673     33651     33668     33672     33674
     33651     33668     33672     33675     33652     33651     33661     33658
     33652     33651     33661     33662     33652     33651     33661     33663
     33652     33651     33668     33669     33652     33651     33668     33670
     33652     33651     33668     33672     33653     33649     33654     33655
     33653     33649     33654     33656     33653     33649     33654     33658
     33653     33651     33661     33658     33653     33651     33661     33662
     33653     33651     33661     33663     33653     33651     33668     33669
     33653     33651     33668     33670     33653     33651     33668     33672
     33654     33658     33660     33677     33654     33658     33661     33662
     33654     33658     33661     33663     33655     33654     33656     33657
     33655     33654     33658     33659     33655     33654     33658     33660
     33655     33654     33658     33661     33656     33654     33658     33659
     33656     33654     33658     33660     33656     33654     33658     33661
     33657     33656     33654     33658     33658     33660     33677     33678
     33658     33660     33677     33681     33658     33660     33677     33682
     33658     33661     33651     33668     33658     33661     33663     33664
     33659     33658     33660     33677     33659     33658     33661     33662
     33659     33658     33661     33663     33660     33658     33661     33662
     33660     33658     33661     33663     33660     33677     33681     33679
     33660     33677     33682     33683     33660     33677     33682     33684
     33660     33677     33682     33686     33661     33651     33668     33669
     33661     33651     33668     33670     33661     33651     33668     33672
     33661     33658     33660     33677     33661     33663     33664     33665
     33661     33663     33664     33666     33661     33663     33664     33667
     33662     33661     33651     33668     33662     33661     33663     33664
     33663     33661     33651     33668     33668     33672     33675     33676
     33669     33668     33670     33671     33669     33668     33672     33673
     33669     33668     33672     33674     33669     33668     33672     33675
     33670     33668     33672     33673     33670     33668     33672     33674
     33670     33668     33672     33675     33671     33670     33668     33672
     33673     33672     33675     33676     33674     33672     33675     33676
     33677     33681     33679     33680     33677     33681     33679     33689
     33677     33681     33679     33696     33677     33682     33684     33685
     33677     33682     33686     33687     33677     33682     33686     33688
     33677     33682     33686     33689     33678     33677     33681     33679
     33678     33677     33682     33683     33678     33677     33682     33684
     33678     33677     33682     33686     33679     33681     33677     33682
     33679     33689     33686     33682     33679     33689     33686     33687
     33679     33689     33686     33688     33679     33689     33691     33692
     33679     33696     33698     33699     33679     33696     33700     33701
     33679     33696     33700     33702     33679     33696     33700     33703
     33680     33679     33689     33686     33680     33679     33689     33690
     33680     33679     33689     33691     33680     33679     33696     33697
     33680     33679     33696     33698     33680     33679     33696     33700
     33681     33677     33682     33683     33681     33677     33682     33684
     33681     33677     33682     33686     33681     33679     33689     33686
     33681     33679     33689     33690     33681     33679     33689     33691
     33681     33679     33696     33697     33681     33679     33696     33698
     33681     33679     33696     33700     33682     33686     33688     33730
     33682     33686     33689     33690     33682     33686     33689     33691
     33683     33682     33684     33685     33683     33682     33686     33687
     33683     33682     33686     33688     33683     33682     33686     33689
     33684     33682     33686     33687     33684     33682     33686     33688
     33684     33682     33686     33689     33685     33684     33682     33686
     33686     33688     33730     33731     33686     33688     33730     33734
     33686     33688     33730     33735     33686     33689     33679     33696
     33686     33689     33691     33692     33687     33686     33688     33730
     33687     33686     33689     33690     33687     33686     33689     33691
     33688     33686     33689     33690     33688     33686     33689     33691
     33688     33730     33734     33732     33688     33730     33735     33736
     33688     33730     33735     33737     33688     33730     33735     33739
     33689     33679     33696     33697     33689     33679     33696     33698
     33689     33679     33696     33700     33689     33686     33688     33730
     33689     33691     33692     33693     33689     33691     33692     33694
     33689     33691     33692     33695     33690     33689     33679     33696
     33690     33689     33691     33692     33691     33689     33679     33696
     33696     33700     33703     33704     33697     33696     33698     33699
     33697     33696     33700     33701     33697     33696     33700     33702
     33697     33696     33700     33703     33698     33696     33700     33701
     33698     33696     33700     33702     33698     33696     33700     33703
     33699     33698     33696     33700     33700     33703     33704     33705
     33700     33703     33704     33708     33700     33703     33704     33709
     33701     33700     33703     33704     33702     33700     33703     33704
     33703     33704     33708     33706     33703     33704     33709     33710
     33703     33704     33709     33711     33703     33704     33709     33713
     33704     33708     33706     33707     33704     33708     33706     33717
     33704     33708     33706     33721     33704     33709     33711     33712
     33704     33709     33713     33714     33704     33709     33713     33715
     33704     33709     33713     33717     33705     33704     33708     33706
     33705     33704     33709     33710     33705     33704     33709     33711
     33705     33704     33709     33713     33706     33708     33704     33709
     33706     33717     33713     33709     33706     33717     33713     33714
     33706     33717     33713     33715     33706     33717     33719     33720
     33706     33721     33723     33724     33706     33721     33725     33726
     33706     33721     33725     33727     33706     33721     33725     33728
     33707     33706     33717     33713     33707     33706     33717     33718
     33707     33706     33717     33719     33707     33706     33721     33722
     33707     33706     33721     33723     33707     33706     33721     33725
     33708     33704     33709     33710     33708     33704     33709     33711
     33708     33704     33709     33713     33708     33706     33717     33713
     33708     33706     33717     33718     33708     33706     33717     33719
     33708     33706     33721     33722     33708     33706     33721     33723
     33708     33706     33721     33725     33709     33713     33715     33716
     33709     33713     33717     33718     33709     33713     33717     33719
     33710     33709     33711     33712     33710     33709     33713     33714
     33710     33709     33713     33715     33710     33709     33713     33717
     33711     33709     33713     33714     33711     33709     33713     33715
     33711     33709     33713     33717     33712     33711     33709     33713
     33713     33717     33706     33721     33713     33717     33719     33720
     33714     33713     33715     33716     33714     33713     33717     33718
     33714     33713     33717     33719     33715     33713     33717     33718
     33715     33713     33717     33719     33716     33715     33713     33717
     33717     33706     33721     33722     33717     33706     33721     33723
     33717     33706     33721     33725     33718     33717     33706     33721
     33718     33717     33719     33720     33719     33717     33706     33721
     33721     33725     33728     33729     33722     33721     33723     33724
     33722     33721     33725     33726     33722     33721     33725     33727
     33722     33721     33725     33728     33723     33721     33725     33726
     33723     33721     33725     33727     33723     33721     33725     33728
     33724     33723     33721     33725     33726     33725     33728     33729
     33727     33725     33728     33729     33730     33734     33732     33733
     33730     33734     33732     33742     33730     33734     33732     33746
     33730     33735     33737     33738     33730     33735     33739     33740
     33730     33735     33739     33741     33730     33735     33739     33742
     33731     33730     33734     33732     33731     33730     33735     33736
     33731     33730     33735     33737     33731     33730     33735     33739
     33732     33734     33730     33735     33732     33742     33739     33735
     33732     33742     33739     33740     33732     33742     33739     33741
     33732     33742     33744     33745     33732     33746     33749     33750
     33733     33732     33742     33739     33733     33732     33742     33743
     33733     33732     33742     33744     33733     33732     33746     33747
     33733     33732     33746     33748     33733     33732     33746     33749
     33734     33730     33735     33736     33734     33730     33735     33737
     33734     33730     33735     33739     33734     33732     33742     33739
     33734     33732     33742     33743     33734     33732     33742     33744
     33734     33732     33746     33747     33734     33732     33746     33748
     33734     33732     33746     33749     33735     33739     33741     33751
     33735     33739     33742     33743     33735     33739     33742     33744
     33736     33735     33737     33738     33736     33735     33739     33740
     33736     33735     33739     33741     33736     33735     33739     33742
     33737     33735     33739     33740     33737     33735     33739     33741
     33737     33735     33739     33742     33738     33737     33735     33739
     33739     33741     33751     33752     33739     33741     33751     33755
     33739     33741     33751     33756     33739     33742     33732     33746
     33739     33742     33744     33745     33740     33739     33741     33751
     33740     33739     33742     33743     33740     33739     33742     33744
     33741     33739     33742     33743     33741     33739     33742     33744
     33741     33751     33755     33753     33741     33751     33756     33757
     33741     33751     33756     33758     33741     33751     33756     33759
     33742     33732     33746     33747     33742     33732     33746     33748
     33742     33732     33746     33749     33742     33739     33741     33751
     33743     33742     33732     33746     33743     33742     33744     33745
     33744     33742     33732     33746     33747     33746     33749     33750
     33748     33746     33749     33750     33751     33755     33753     33754
     33751     33755     33753     33762     33751     33755     33753     33766
     33751     33756     33758     33771     33751     33756     33759     33760
     33751     33756     33759     33761     33751     33756     33759     33762
     33752     33751     33755     33753     33752     33751     33756     33757
     33752     33751     33756     33758     33752     33751     33756     33759
     33753     33755     33751     33756     33753     33762     33759     33756
     33753     33762     33759     33760     33753     33762     33759     33761
     33753     33762     33764     33765     33753     33766     33769     33770
     33754     33753     33762     33759     33754     33753     33762     33763
     33754     33753     33762     33764     33754     33753     33766     33767
     33754     33753     33766     33768     33754     33753     33766     33769
     33755     33751     33756     33757     33755     33751     33756     33758
     33755     33751     33756     33759     33755     33753     33762     33759
     33755     33753     33762     33763     33755     33753     33762     33764
     33755     33753     33766     33767     33755     33753     33766     33768
     33755     33753     33766     33769     33756     33758     33771     33772
     33756     33758     33771     33775     33756     33758     33771     33776
     33756     33759     33761     33814     33756     33759     33762     33763
     33756     33759     33762     33764     33757     33756     33758     33771
     33757     33756     33759     33760     33757     33756     33759     33761
     33757     33756     33759     33762     33758     33756     33759     33760
     33758     33756     33759     33761     33758     33756     33759     33762
     33758     33771     33775     33773     33758     33771     33776     33777
     33758     33771     33776     33778     33758     33771     33776     33779
     33759     33756     33758     33771     33759     33761     33814     33815
     33759     33761     33814     33818     33759     33761     33814     33819
     33759     33762     33753     33766     33759     33762     33764     33765
     33760     33759     33761     33814     33760     33759     33762     33763
     33760     33759     33762     33764     33761     33759     33762     33763
     33761     33759     33762     33764     33761     33814     33818     33816
     33761     33814     33819     33820     33761     33814     33819     33821
     33761     33814     33819     33823     33762     33753     33766     33767
     33762     33753     33766     33768     33762     33753     33766     33769
     33762     33759     33761     33814     33763     33762     33753     33766
     33763     33762     33764     33765     33764     33762     33753     33766
     33767     33766     33769     33770     33768     33766     33769     33770
     33771     33775     33773     33774     33771     33775     33773     33783
     33771     33775     33773     33787     33771     33776     33778     33792
     33771     33776     33779     33780     33771     33776     33779     33781
     33771     33776     33779     33783     33772     33771     33775     33773
     33772     33771     33776     33777     33772     33771     33776     33778
     33772     33771     33776     33779     33773     33775     33771     33776
     33773     33783     33779     33776     33773     33783     33779     33780
     33773     33783     33779     33781     33773     33783     33785     33786
     33773     33787     33790     33791     33774     33773     33783     33779
     33774     33773     33783     33784     33774     33773     33783     33785
     33774     33773     33787     33788     33774     33773     33787     33789
     33774     33773     33787     33790     33775     33771     33776     33777
     33775     33771     33776     33778     33775     33771     33776     33779
     33775     33773     33783     33779     33775     33773     33783     33784
     33775     33773     33783     33785     33775     33773     33787     33788
     33775     33773     33787     33789     33775     33773     33787     33790
     33776     33778     33792     33793     33776     33778     33792     33796
     33776     33778     33792     33797     33776     33779     33781     33782
     33776     33779     33783     33784     33776     33779     33783     33785
     33777     33776     33778     33792     33777     33776     33779     33780
     33777     33776     33779     33781     33777     33776     33779     33783
     33778     33776     33779     33780     33778     33776     33779     33781
     33778     33776     33779     33783     33778     33792     33796     33794
     33778     33792     33797     33798     33778     33792     33797     33799
     33778     33792     33797     33801     33779     33776     33778     33792
     33779     33783     33773     33787     33779     33783     33785     33786
     33780     33779     33781     33782     33780     33779     33783     33784
     33780     33779     33783     33785     33781     33779     33783     33784
     33781     33779     33783     33785     33782     33781     33779     33783
     33783     33773     33787     33788     33783     33773     33787     33789
     33783     33773     33787     33790     33784     33783     33773     33787
     33784     33783     33785     33786     33785     33783     33773     33787
     33788     33787     33790     33791     33789     33787     33790     33791
     33792     33796     33794     33795     33792     33796     33794     33805
     33792     33796     33794     33809     33792     33797     33799     33800
     33792     33797     33801     33802     33792     33797     33801     33803
     33792     33797     33801     33805     33793     33792     33796     33794
     33793     33792     33797     33798     33793     33792     33797     33799
     33793     33792     33797     33801     33794     33796     33792     33797
     33794     33805     33801     33797     33794     33805     33801     33802
     33794     33805     33801     33803     33794     33805     33807     33808
     33794     33809     33812     33813     33795     33794     33805     33801
     33795     33794     33805     33806     33795     33794     33805     33807
     33795     33794     33809     33810     33795     33794     33809     33811
     33795     33794     33809     33812     33796     33792     33797     33798
     33796     33792     33797     33799     33796     33792     33797     33801
     33796     33794     33805     33801     33796     33794     33805     33806
     33796     33794     33805     33807     33796     33794     33809     33810
     33796     33794     33809     33811     33796     33794     33809     33812
     33797     33801     33803     33804     33797     33801     33805     33806
     33797     33801     33805     33807     33798     33797     33799     33800
     33798     33797     33801     33802     33798     33797     33801     33803
     33798     33797     33801     33805     33799     33797     33801     33802
     33799     33797     33801     33803     33799     33797     33801     33805
     33800     33799     33797     33801     33801     33805     33794     33809
     33801     33805     33807     33808     33802     33801     33803     33804
     33802     33801     33805     33806     33802     33801     33805     33807
     33803     33801     33805     33806     33803     33801     33805     33807
     33804     33803     33801     33805     33805     33794     33809     33810
     33805     33794     33809     33811     33805     33794     33809     33812
     33806     33805     33794     33809     33806     33805     33807     33808
     33807     33805     33794     33809     33810     33809     33812     33813
     33811     33809     33812     33813     33814     33818     33816     33817
     33814     33818     33816     33826     33814     33818     33816     33830
     33814     33819     33821     33822     33814     33819     33823     33824
     33814     33819     33823     33825     33814     33819     33823     33826
     33815     33814     33818     33816     33815     33814     33819     33820
     33815     33814     33819     33821     33815     33814     33819     33823
     33816     33818     33814     33819     33816     33826     33823     33819
     33816     33826     33823     33824     33816     33826     33823     33825
     33816     33826     33828     33829     33816     33830     33833     33834
     33817     33816     33826     33823     33817     33816     33826     33827
     33817     33816     33826     33828     33817     33816     33830     33831
     33817     33816     33830     33832     33817     33816     33830     33833
     33818     33814     33819     33820     33818     33814     33819     33821
     33818     33814     33819     33823     33818     33816     33826     33823
     33818     33816     33826     33827     33818     33816     33826     33828
     33818     33816     33830     33831     33818     33816     33830     33832
     33818     33816     33830     33833     33819     33823     33825     33835
     33819     33823     33826     33827     33819     33823     33826     33828
     33820     33819     33821     33822     33820     33819     33823     33824
     33820     33819     33823     33825     33820     33819     33823     33826
     33821     33819     33823     33824     33821     33819     33823     33825
     33821     33819     33823     33826     33822     33821     33819     33823
     33823     33825     33835     33836     33823     33825     33835     33839
     33823     33825     33835     33840     33823     33826     33816     33830
     33823     33826     33828     33829     33824     33823     33825     33835
     33824     33823     33826     33827     33824     33823     33826     33828
     33825     33823     33826     33827     33825     33823     33826     33828
     33825     33835     33839     33837     33825     33835     33840     33841
     33825     33835     33840     33842     33825     33835     33840     33850
     33826     33816     33830     33831     33826     33816     33830     33832
     33826     33816     33830     33833     33826     33823     33825     33835
     33827     33826     33816     33830     33827     33826     33828     33829
     33828     33826     33816     33830     33831     33830     33833     33834
     33832     33830     33833     33834     33835     33839     33837     33838
     33835     33839     33837     33853     33835     33839     33837     33857
     33835     33840     33842     33843     33835     33840     33842     33844
     33835     33840     33850     33851     33835     33840     33850     33852
     33835     33840     33850     33853     33836     33835     33839     33837
     33836     33835     33840     33841     33836     33835     33840     33842
     33836     33835     33840     33850     33837     33839     33835     33840
     33837     33853     33850     33840     33837     33853     33850     33851
     33837     33853     33850     33852     33837     33853     33855     33856
     33837     33857     33860     33861     33838     33837     33853     33850
     33838     33837     33853     33854     33838     33837     33853     33855
     33838     33837     33857     33858     33838     33837     33857     33859
     33838     33837     33857     33860     33839     33835     33840     33841
     33839     33835     33840     33842     33839     33835     33840     33850
     33839     33837     33853     33850     33839     33837     33853     33854
     33839     33837     33853     33855     33839     33837     33857     33858
     33839     33837     33857     33859     33839     33837     33857     33860
     33840     33842     33844     33845     33840     33842     33844     33846
     33840     33850     33852     33862     33840     33850     33853     33854
     33840     33850     33853     33855     33841     33840     33842     33843
     33841     33840     33842     33844     33841     33840     33850     33851
     33841     33840     33850     33852     33841     33840     33850     33853
     33842     33840     33850     33851     33842     33840     33850     33852
     33842     33840     33850     33853     33842     33844     33846     33847
     33842     33844     33846     33848     33842     33844     33846     33849
     33843     33842     33840     33850     33843     33842     33844     33845
     33843     33842     33844     33846     33844     33842     33840     33850
     33845     33844     33846     33847     33845     33844     33846     33848
     33845     33844     33846     33849     33850     33852     33862     33863
     33850     33852     33862     33866     33850     33852     33862     33867
     33850     33853     33837     33857     33850     33853     33855     33856
     33851     33850     33852     33862     33851     33850     33853     33854
     33851     33850     33853     33855     33852     33850     33853     33854
     33852     33850     33853     33855     33852     33862     33866     33864
     33852     33862     33867     33868     33852     33862     33867     33869
     33852     33862     33867     33870     33853     33837     33857     33858
     33853     33837     33857     33859     33853     33837     33857     33860
     33853     33850     33852     33862     33854     33853     33837     33857
     33854     33853     33855     33856     33855     33853     33837     33857
     33858     33857     33860     33861     33859     33857     33860     33861
     33862     33866     33864     33865     33862     33866     33864     33874
     33862     33866     33864     33878     33862     33867     33869     33883
     33862     33867     33870     33871     33862     33867     33870     33872
     33862     33867     33870     33874     33863     33862     33866     33864
     33863     33862     33867     33868     33863     33862     33867     33869
     33863     33862     33867     33870     33864     33866     33862     33867
     33864     33874     33870     33867     33864     33874     33870     33871
     33864     33874     33870     33872     33864     33874     33876     33877
     33864     33878     33881     33882     33865     33864     33874     33870
     33865     33864     33874     33875     33865     33864     33874     33876
     33865     33864     33878     33879     33865     33864     33878     33880
     33865     33864     33878     33881     33866     33862     33867     33868
     33866     33862     33867     33869     33866     33862     33867     33870
     33866     33864     33874     33870     33866     33864     33874     33875
     33866     33864     33874     33876     33866     33864     33878     33879
     33866     33864     33878     33880     33866     33864     33878     33881
     33867     33869     33883     33884     33867     33869     33883     33887
     33867     33869     33883     33888     33867     33870     33872     33873
     33867     33870     33874     33875     33867     33870     33874     33876
     33868     33867     33869     33883     33868     33867     33870     33871
     33868     33867     33870     33872     33868     33867     33870     33874
     33869     33867     33870     33871     33869     33867     33870     33872
     33869     33867     33870     33874     33869     33883     33887     33885
     33869     33883     33888     33889     33869     33883     33888     33890
     33869     33883     33888     33891     33870     33867     33869     33883
     33870     33874     33864     33878     33870     33874     33876     33877
     33871     33870     33872     33873     33871     33870     33874     33875
     33871     33870     33874     33876     33872     33870     33874     33875
     33872     33870     33874     33876     33873     33872     33870     33874
     33874     33864     33878     33879     33874     33864     33878     33880
     33874     33864     33878     33881     33875     33874     33864     33878
     33875     33874     33876     33877     33876     33874     33864     33878
     33879     33878     33881     33882     33880     33878     33881     33882
     33883     33887     33885     33886     33883     33887     33885     33895
     33883     33887     33885     33899     33883     33888     33890     33903
     33883     33888     33891     33892     33883     33888     33891     33893
     33883     33888     33891     33895     33884     33883     33887     33885
     33884     33883     33888     33889     33884     33883     33888     33890
     33884     33883     33888     33891     33885     33887     33883     33888
     33885     33895     33891     33888     33885     33895     33891     33892
     33885     33895     33891     33893     33885     33895     33897     33898
     33886     33885     33895     33891     33886     33885     33895     33896
     33886     33885     33895     33897     33886     33885     33899     33900
     33886     33885     33899     33901     33886     33885     33899     33902
     33887     33883     33888     33889     33887     33883     33888     33890
     33887     33883     33888     33891     33887     33885     33895     33891
     33887     33885     33895     33896     33887     33885     33895     33897
     33887     33885     33899     33900     33887     33885     33899     33901
     33887     33885     33899     33902     33888     33890     33903     33904
     33888     33890     33903     33907     33888     33890     33903     33908
     33888     33891     33893     33894     33888     33891     33895     33896
     33888     33891     33895     33897     33889     33888     33890     33903
     33889     33888     33891     33892     33889     33888     33891     33893
     33889     33888     33891     33895     33890     33888     33891     33892
     33890     33888     33891     33893     33890     33888     33891     33895
     33890     33903     33907     33905     33890     33903     33908     33909
     33890     33903     33908     33910     33890     33903     33908     33911
     33891     33888     33890     33903     33891     33895     33885     33899
     33891     33895     33897     33898     33892     33891     33893     33894
     33892     33891     33895     33896     33892     33891     33895     33897
     33893     33891     33895     33896     33893     33891     33895     33897
     33894     33893     33891     33895     33895     33885     33899     33900
     33895     33885     33899     33901     33895     33885     33899     33902
     33896     33895     33885     33899     33896     33895     33897     33898
     33897     33895     33885     33899     33903     33907     33905     33906
     33903     33907     33905     33914     33903     33907     33905     33918
     33903     33908     33910     33922     33903     33908     33911     33912
     33903     33908     33911     33913     33903     33908     33911     33914
     33904     33903     33907     33905     33904     33903     33908     33909
     33904     33903     33908     33910     33904     33903     33908     33911
     33905     33907     33903     33908     33905     33914     33911     33908
     33905     33914     33911     33912     33905     33914     33911     33913
     33905     33914     33916     33917     33906     33905     33914     33911
     33906     33905     33914     33915     33906     33905     33914     33916
     33906     33905     33918     33919     33906     33905     33918     33920
     33906     33905     33918     33921     33907     33903     33908     33909
     33907     33903     33908     33910     33907     33903     33908     33911
     33907     33905     33914     33911     33907     33905     33914     33915
     33907     33905     33914     33916     33907     33905     33918     33919
     33907     33905     33918     33920     33907     33905     33918     33921
     33908     33910     33922     33923     33908     33910     33922     33926
     33908     33910     33922     33927     33908     33911     33913     33950
     33908     33911     33914     33915     33908     33911     33914     33916
     33909     33908     33910     33922     33909     33908     33911     33912
     33909     33908     33911     33913     33909     33908     33911     33914
     33910     33908     33911     33912     33910     33908     33911     33913
     33910     33908     33911     33914     33910     33922     33926     33924
     33910     33922     33927     33928     33910     33922     33927     33929
     33910     33922     33927     33937     33911     33908     33910     33922
     33911     33913     33950     33951     33911     33913     33950     33954
     33911     33913     33950     33955     33911     33914     33905     33918
     33911     33914     33916     33917     33912     33911     33913     33950
     33912     33911     33914     33915     33912     33911     33914     33916
     33913     33911     33914     33915     33913     33911     33914     33916
     33913     33950     33954     33952     33913     33950     33955     33956
     33913     33950     33955     33957     33913     33950     33955     33965
     33914     33905     33918     33919     33914     33905     33918     33920
     33914     33905     33918     33921     33914     33911     33913     33950
     33915     33914     33905     33918     33915     33914     33916     33917
     33916     33914     33905     33918     33922     33926     33924     33925
     33922     33926     33924     33941     33922     33926     33924     33945
     33922     33927     33929     33930     33922     33927     33929     33931
     33922     33927     33937     33938     33922     33927     33937     33939
     33922     33927     33937     33941     33923     33922     33926     33924
     33923     33922     33927     33928     33923     33922     33927     33929
     33923     33922     33927     33937     33924     33926     33922     33927
     33924     33941     33937     33927     33924     33941     33937     33938
     33924     33941     33937     33939     33924     33941     33943     33944
     33924     33945     33948     33949     33925     33924     33941     33937
     33925     33924     33941     33942     33925     33924     33941     33943
     33925     33924     33945     33946     33925     33924     33945     33947
     33925     33924     33945     33948     33926     33922     33927     33928
     33926     33922     33927     33929     33926     33922     33927     33937
     33926     33924     33941     33937     33926     33924     33941     33942
     33926     33924     33941     33943     33926     33924     33945     33946
     33926     33924     33945     33947     33926     33924     33945     33948
     33927     33929     33931     33932     33927     33929     33931     33933
     33927     33937     33939     33940     33927     33937     33941     33942
     33927     33937     33941     33943     33928     33927     33929     33930
     33928     33927     33929     33931     33928     33927     33937     33938
     33928     33927     33937     33939     33928     33927     33937     33941
     33929     33927     33937     33938     33929     33927     33937     33939
     33929     33927     33937     33941     33929     33931     33933     33934
     33929     33931     33933     33935     33929     33931     33933     33936
     33930     33929     33927     33937     33930     33929     33931     33932
     33930     33929     33931     33933     33931     33929     33927     33937
     33932     33931     33933     33934     33932     33931     33933     33935
     33932     33931     33933     33936     33937     33941     33924     33945
     33937     33941     33943     33944     33938     33937     33939     33940
     33938     33937     33941     33942     33938     33937     33941     33943
     33939     33937     33941     33942     33939     33937     33941     33943
     33940     33939     33937     33941     33941     33924     33945     33946
     33941     33924     33945     33947     33941     33924     33945     33948
     33942     33941     33924     33945     33942     33941     33943     33944
     33943     33941     33924     33945     33946     33945     33948     33949
     33947     33945     33948     33949     33950     33954     33952     33953
     33950     33954     33952     33968     33950     33954     33952     33972
     33950     33955     33957     33958     33950     33955     33957     33959
     33950     33955     33965     33966     33950     33955     33965     33967
     33950     33955     33965     33968     33951     33950     33954     33952
     33951     33950     33955     33956     33951     33950     33955     33957
     33951     33950     33955     33965     33952     33954     33950     33955
     33952     33968     33965     33955     33952     33968     33965     33966
     33952     33968     33965     33967     33952     33968     33970     33971
     33952     33972     33975     33976     33953     33952     33968     33965
     33953     33952     33968     33969     33953     33952     33968     33970
     33953     33952     33972     33973     33953     33952     33972     33974
     33953     33952     33972     33975     33954     33950     33955     33956
     33954     33950     33955     33957     33954     33950     33955     33965
     33954     33952     33968     33965     33954     33952     33968     33969
     33954     33952     33968     33970     33954     33952     33972     33973
     33954     33952     33972     33974     33954     33952     33972     33975
     33955     33957     33959     33960     33955     33957     33959     33961
     33955     33965     33967     33977     33955     33965     33968     33969
     33955     33965     33968     33970     33956     33955     33957     33958
     33956     33955     33957     33959     33956     33955     33965     33966
     33956     33955     33965     33967     33956     33955     33965     33968
     33957     33955     33965     33966     33957     33955     33965     33967
     33957     33955     33965     33968     33957     33959     33961     33962
     33957     33959     33961     33963     33957     33959     33961     33964
     33958     33957     33955     33965     33958     33957     33959     33960
     33958     33957     33959     33961     33959     33957     33955     33965
     33960     33959     33961     33962     33960     33959     33961     33963
     33960     33959     33961     33964     33965     33967     33977     33978
     33965     33967     33977     33981     33965     33967     33977     33982
     33965     33968     33952     33972     33965     33968     33970     33971
     33966     33965     33967     33977     33966     33965     33968     33969
     33966     33965     33968     33970     33967     33965     33968     33969
     33967     33965     33968     33970     33967     33977     33981     33979
     33967     33977     33982     33983     33967     33977     33982     33984
     33967     33977     33982     33985     33968     33952     33972     33973
     33968     33952     33972     33974     33968     33952     33972     33975
     33968     33965     33967     33977     33969     33968     33952     33972
     33969     33968     33970     33971     33970     33968     33952     33972
     33973     33972     33975     33976     33974     33972     33975     33976
     33977     33981     33979     33980     33977     33981     33979     33989
     33977     33981     33979     33993     33977     33982     33984     33998
     33977     33982     33985     33986     33977     33982     33985     33987
     33977     33982     33985     33989     33978     33977     33981     33979
     33978     33977     33982     33983     33978     33977     33982     33984
     33978     33977     33982     33985     33979     33981     33977     33982
     33979     33989     33985     33982     33979     33989     33985     33986
     33979     33989     33985     33987     33979     33989     33991     33992
     33979     33993     33996     33997     33980     33979     33989     33985
     33980     33979     33989     33990     33980     33979     33989     33991
     33980     33979     33993     33994     33980     33979     33993     33995
     33980     33979     33993     33996     33981     33977     33982     33983
     33981     33977     33982     33984     33981     33977     33982     33985
     33981     33979     33989     33985     33981     33979     33989     33990
     33981     33979     33989     33991     33981     33979     33993     33994
     33981     33979     33993     33995     33981     33979     33993     33996
     33982     33984     33998     33999     33982     33984     33998     34002
     33982     33984     33998     34003     33982     33985     33987     33988
     33982     33985     33989     33990     33982     33985     33989     33991
     33983     33982     33984     33998     33983     33982     33985     33986
     33983     33982     33985     33987     33983     33982     33985     33989
     33984     33982     33985     33986     33984     33982     33985     33987
     33984     33982     33985     33989     33984     33998     34002     34000
     33984     33998     34003     34004     33984     33998     34003     34005
     33984     33998     34003     34006     33985     33982     33984     33998
     33985     33989     33979     33993     33985     33989     33991     33992
     33986     33985     33987     33988     33986     33985     33989     33990
     33986     33985     33989     33991     33987     33985     33989     33990
     33987     33985     33989     33991     33988     33987     33985     33989
     33989     33979     33993     33994     33989     33979     33993     33995
     33989     33979     33993     33996     33990     33989     33979     33993
     33990     33989     33991     33992     33991     33989     33979     33993
     33994     33993     33996     33997     33995     33993     33996     33997
     33998     34002     34000     34001     33998     34002     34000     34010
     33998     34002     34000     34014     33998     34003     34005     34018
     33998     34003     34006     34007     33998     34003     34006     34008
     33998     34003     34006     34010     33999     33998     34002     34000
     33999     33998     34003     34004     33999     33998     34003     34005
     33999     33998     34003     34006     34000     34002     33998     34003
     34000     34010     34006     34003     34000     34010     34006     34007
     34000     34010     34006     34008     34000     34010     34012     34013
     34001     34000     34010     34006     34001     34000     34010     34011
     34001     34000     34010     34012     34001     34000     34014     34015
     34001     34000     34014     34016     34001     34000     34014     34017
     34002     33998     34003     34004     34002     33998     34003     34005
     34002     33998     34003     34006     34002     34000     34010     34006
     34002     34000     34010     34011     34002     34000     34010     34012
     34002     34000     34014     34015     34002     34000     34014     34016
     34002     34000     34014     34017     34003     34005     34018     34019
     34003     34005     34018     34022     34003     34005     34018     34023
     34003     34006     34008     34009     34003     34006     34010     34011
     34003     34006     34010     34012     34004     34003     34005     34018
     34004     34003     34006     34007     34004     34003     34006     34008
     34004     34003     34006     34010     34005     34003     34006     34007
     34005     34003     34006     34008     34005     34003     34006     34010
     34005     34018     34022     34020     34005     34018     34023     34024
     34005     34018     34023     34025     34005     34018     34023     34026
     34006     34003     34005     34018     34006     34010     34000     34014
     34006     34010     34012     34013     34007     34006     34008     34009
     34007     34006     34010     34011     34007     34006     34010     34012
     34008     34006     34010     34011     34008     34006     34010     34012
     34009     34008     34006     34010     34010     34000     34014     34015
     34010     34000     34014     34016     34010     34000     34014     34017
     34011     34010     34000     34014     34011     34010     34012     34013
     34012     34010     34000     34014     34018     34022     34020     34021
     34018     34022     34020     34029     34018     34022     34020     34033
     34018     34023     34025     34037     34018     34023     34026     34027
     34018     34023     34026     34028     34018     34023     34026     34029
     34019     34018     34022     34020     34019     34018     34023     34024
     34019     34018     34023     34025     34019     34018     34023     34026
     34020     34022     34018     34023     34020     34029     34026     34023
     34020     34029     34026     34027     34020     34029     34026     34028
     34020     34029     34031     34032     34021     34020     34029     34026
     34021     34020     34029     34030     34021     34020     34029     34031
     34021     34020     34033     34034     34021     34020     34033     34035
     34021     34020     34033     34036     34022     34018     34023     34024
     34022     34018     34023     34025     34022     34018     34023     34026
     34022     34020     34029     34026     34022     34020     34029     34030
     34022     34020     34029     34031     34022     34020     34033     34034
     34022     34020     34033     34035     34022     34020     34033     34036
     34023     34025     34037     34038     34023     34025     34037     34041
     34023     34025     34037     34042     34023     34026     34028     34065
     34023     34026     34029     34030     34023     34026     34029     34031
     34024     34023     34025     34037     34024     34023     34026     34027
     34024     34023     34026     34028     34024     34023     34026     34029
     34025     34023     34026     34027     34025     34023     34026     34028
     34025     34023     34026     34029     34025     34037     34041     34039
     34025     34037     34042     34043     34025     34037     34042     34044
     34025     34037     34042     34052     34026     34023     34025     34037
     34026     34028     34065     34066     34026     34028     34065     34069
     34026     34028     34065     34070     34026     34029     34020     34033
     34026     34029     34031     34032     34027     34026     34028     34065
     34027     34026     34029     34030     34027     34026     34029     34031
     34028     34026     34029     34030     34028     34026     34029     34031
     34028     34065     34069     34067     34028     34065     34070     34071
     34028     34065     34070     34072     34028     34065     34070     34080
     34029     34020     34033     34034     34029     34020     34033     34035
     34029     34020     34033     34036     34029     34026     34028     34065
     34030     34029     34020     34033     34030     34029     34031     34032
     34031     34029     34020     34033     34037     34041     34039     34040
     34037     34041     34039     34056     34037     34041     34039     34060
     34037     34042     34044     34045     34037     34042     34044     34046
     34037     34042     34052     34053     34037     34042     34052     34054
     34037     34042     34052     34056     34038     34037     34041     34039
     34038     34037     34042     34043     34038     34037     34042     34044
     34038     34037     34042     34052     34039     34041     34037     34042
     34039     34056     34052     34042     34039     34056     34052     34053
     34039     34056     34052     34054     34039     34056     34058     34059
     34039     34060     34063     34064     34040     34039     34056     34052
     34040     34039     34056     34057     34040     34039     34056     34058
     34040     34039     34060     34061     34040     34039     34060     34062
     34040     34039     34060     34063     34041     34037     34042     34043
     34041     34037     34042     34044     34041     34037     34042     34052
     34041     34039     34056     34052     34041     34039     34056     34057
     34041     34039     34056     34058     34041     34039     34060     34061
     34041     34039     34060     34062     34041     34039     34060     34063
     34042     34044     34046     34047     34042     34044     34046     34048
     34042     34052     34054     34055     34042     34052     34056     34057
     34042     34052     34056     34058     34043     34042     34044     34045
     34043     34042     34044     34046     34043     34042     34052     34053
     34043     34042     34052     34054     34043     34042     34052     34056
     34044     34042     34052     34053     34044     34042     34052     34054
     34044     34042     34052     34056     34044     34046     34048     34049
     34044     34046     34048     34050     34044     34046     34048     34051
     34045     34044     34042     34052     34045     34044     34046     34047
     34045     34044     34046     34048     34046     34044     34042     34052
     34047     34046     34048     34049     34047     34046     34048     34050
     34047     34046     34048     34051     34052     34056     34039     34060
     34052     34056     34058     34059     34053     34052     34054     34055
     34053     34052     34056     34057     34053     34052     34056     34058
     34054     34052     34056     34057     34054     34052     34056     34058
     34055     34054     34052     34056     34056     34039     34060     34061
     34056     34039     34060     34062     34056     34039     34060     34063
     34057     34056     34039     34060     34057     34056     34058     34059
     34058     34056     34039     34060     34061     34060     34063     34064
     34062     34060     34063     34064     34065     34069     34067     34068
     34065     34069     34067     34083     34065     34069     34067     34087
     34065     34070     34072     34073     34065     34070     34072     34074
     34065     34070     34080     34081     34065     34070     34080     34082
     34065     34070     34080     34083     34066     34065     34069     34067
     34066     34065     34070     34071     34066     34065     34070     34072
     34066     34065     34070     34080     34067     34069     34065     34070
     34067     34083     34080     34070     34067     34083     34080     34081
     34067     34083     34080     34082     34067     34083     34085     34086
     34067     34087     34090     34091     34068     34067     34083     34080
     34068     34067     34083     34084     34068     34067     34083     34085
     34068     34067     34087     34088     34068     34067     34087     34089
     34068     34067     34087     34090     34069     34065     34070     34071
     34069     34065     34070     34072     34069     34065     34070     34080
     34069     34067     34083     34080     34069     34067     34083     34084
     34069     34067     34083     34085     34069     34067     34087     34088
     34069     34067     34087     34089     34069     34067     34087     34090
     34070     34072     34074     34075     34070     34072     34074     34076
     34070     34080     34082     34092     34070     34080     34083     34084
     34070     34080     34083     34085     34071     34070     34072     34073
     34071     34070     34072     34074     34071     34070     34080     34081
     34071     34070     34080     34082     34071     34070     34080     34083
     34072     34070     34080     34081     34072     34070     34080     34082
     34072     34070     34080     34083     34072     34074     34076     34077
     34072     34074     34076     34078     34072     34074     34076     34079
     34073     34072     34070     34080     34073     34072     34074     34075
     34073     34072     34074     34076     34074     34072     34070     34080
     34075     34074     34076     34077     34075     34074     34076     34078
     34075     34074     34076     34079     34080     34082     34092     34093
     34080     34082     34092     34096     34080     34082     34092     34097
     34080     34083     34067     34087     34080     34083     34085     34086
     34081     34080     34082     34092     34081     34080     34083     34084
     34081     34080     34083     34085     34082     34080     34083     34084
     34082     34080     34083     34085     34082     34092     34096     34094
     34082     34092     34097     34098     34082     34092     34097     34099
     34082     34092     34097     34100     34083     34067     34087     34088
     34083     34067     34087     34089     34083     34067     34087     34090
     34083     34080     34082     34092     34084     34083     34067     34087
     34084     34083     34085     34086     34085     34083     34067     34087
     34088     34087     34090     34091     34089     34087     34090     34091
     34092     34096     34094     34095     34092     34096     34094     34104
     34092     34096     34094     34108     34092     34097     34099     34113
     34092     34097     34100     34101     34092     34097     34100     34102
     34092     34097     34100     34104     34093     34092     34096     34094
     34093     34092     34097     34098     34093     34092     34097     34099
     34093     34092     34097     34100     34094     34096     34092     34097
     34094     34104     34100     34097     34094     34104     34100     34101
     34094     34104     34100     34102     34094     34104     34106     34107
     34094     34108     34111     34112     34095     34094     34104     34100
     34095     34094     34104     34105     34095     34094     34104     34106
     34095     34094     34108     34109     34095     34094     34108     34110
     34095     34094     34108     34111     34096     34092     34097     34098
     34096     34092     34097     34099     34096     34092     34097     34100
     34096     34094     34104     34100     34096     34094     34104     34105
     34096     34094     34104     34106     34096     34094     34108     34109
     34096     34094     34108     34110     34096     34094     34108     34111
     34097     34099     34113     34114     34097     34099     34113     34117
     34097     34099     34113     34118     34097     34100     34102     34103
     34097     34100     34104     34105     34097     34100     34104     34106
     34098     34097     34099     34113     34098     34097     34100     34101
     34098     34097     34100     34102     34098     34097     34100     34104
     34099     34097     34100     34101     34099     34097     34100     34102
     34099     34097     34100     34104     34099     34113     34117     34115
     34099     34113     34118     34119     34099     34113     34118     34120
     34099     34113     34118     34121     34100     34097     34099     34113
     34100     34104     34094     34108     34100     34104     34106     34107
     34101     34100     34102     34103     34101     34100     34104     34105
     34101     34100     34104     34106     34102     34100     34104     34105
     34102     34100     34104     34106     34103     34102     34100     34104
     34104     34094     34108     34109     34104     34094     34108     34110
     34104     34094     34108     34111     34105     34104     34094     34108
     34105     34104     34106     34107     34106     34104     34094     34108
     34109     34108     34111     34112     34110     34108     34111     34112
     34113     34117     34115     34116     34113     34117     34115     34125
     34113     34117     34115     34129     34113     34118     34120     34133
     34113     34118     34121     34122     34113     34118     34121     34123
     34113     34118     34121     34125     34114     34113     34117     34115
     34114     34113     34118     34119     34114     34113     34118     34120
     34114     34113     34118     34121     34115     34117     34113     34118
     34115     34125     34121     34118     34115     34125     34121     34122
     34115     34125     34121     34123     34115     34125     34127     34128
     34116     34115     34125     34121     34116     34115     34125     34126
     34116     34115     34125     34127     34116     34115     34129     34130
     34116     34115     34129     34131     34116     34115     34129     34132
     34117     34113     34118     34119     34117     34113     34118     34120
     34117     34113     34118     34121     34117     34115     34125     34121
     34117     34115     34125     34126     34117     34115     34125     34127
     34117     34115     34129     34130     34117     34115     34129     34131
     34117     34115     34129     34132     34118     34120     34133     34134
     34118     34120     34133     34137     34118     34120     34133     34138
     34118     34121     34123     34124     34118     34121     34125     34126
     34118     34121     34125     34127     34119     34118     34120     34133
     34119     34118     34121     34122     34119     34118     34121     34123
     34119     34118     34121     34125     34120     34118     34121     34122
     34120     34118     34121     34123     34120     34118     34121     34125
     34120     34133     34137     34135     34120     34133     34138     34139
     34120     34133     34138     34140     34120     34133     34138     34141
     34121     34118     34120     34133     34121     34125     34115     34129
     34121     34125     34127     34128     34122     34121     34123     34124
     34122     34121     34125     34126     34122     34121     34125     34127
     34123     34121     34125     34126     34123     34121     34125     34127
     34124     34123     34121     34125     34125     34115     34129     34130
     34125     34115     34129     34131     34125     34115     34129     34132
     34126     34125     34115     34129     34126     34125     34127     34128
     34127     34125     34115     34129     34133     34137     34135     34136
     34133     34137     34135     34144     34133     34137     34135     34148
     34133     34138     34140     34152     34133     34138     34141     34142
     34133     34138     34141     34143     34133     34138     34141     34144
     34134     34133     34137     34135     34134     34133     34138     34139
     34134     34133     34138     34140     34134     34133     34138     34141
     34135     34137     34133     34138     34135     34144     34141     34138
     34135     34144     34141     34142     34135     34144     34141     34143
     34135     34144     34146     34147     34136     34135     34144     34141
     34136     34135     34144     34145     34136     34135     34144     34146
     34136     34135     34148     34149     34136     34135     34148     34150
     34136     34135     34148     34151     34137     34133     34138     34139
     34137     34133     34138     34140     34137     34133     34138     34141
     34137     34135     34144     34141     34137     34135     34144     34145
     34137     34135     34144     34146     34137     34135     34148     34149
     34137     34135     34148     34150     34137     34135     34148     34151
     34138     34140     34152     34153     34138     34140     34152     34156
     34138     34140     34152     34157     34138     34141     34143     34180
     34138     34141     34144     34145     34138     34141     34144     34146
     34139     34138     34140     34152     34139     34138     34141     34142
     34139     34138     34141     34143     34139     34138     34141     34144
     34140     34138     34141     34142     34140     34138     34141     34143
     34140     34138     34141     34144     34140     34152     34156     34154
     34140     34152     34157     34158     34140     34152     34157     34159
     34140     34152     34157     34167     34141     34138     34140     34152
     34141     34143     34180     34181     34141     34143     34180     34184
     34141     34143     34180     34185     34141     34144     34135     34148
     34141     34144     34146     34147     34142     34141     34143     34180
     34142     34141     34144     34145     34142     34141     34144     34146
     34143     34141     34144     34145     34143     34141     34144     34146
     34143     34180     34184     34182     34143     34180     34185     34186
     34143     34180     34185     34187     34143     34180     34185     34195
     34144     34135     34148     34149     34144     34135     34148     34150
     34144     34135     34148     34151     34144     34141     34143     34180
     34145     34144     34135     34148     34145     34144     34146     34147
     34146     34144     34135     34148     34152     34156     34154     34155
     34152     34156     34154     34171     34152     34156     34154     34175
     34152     34157     34159     34160     34152     34157     34159     34161
     34152     34157     34167     34168     34152     34157     34167     34169
     34152     34157     34167     34171     34153     34152     34156     34154
     34153     34152     34157     34158     34153     34152     34157     34159
     34153     34152     34157     34167     34154     34156     34152     34157
     34154     34171     34167     34157     34154     34171     34167     34168
     34154     34171     34167     34169     34154     34171     34173     34174
     34154     34175     34178     34179     34155     34154     34171     34167
     34155     34154     34171     34172     34155     34154     34171     34173
     34155     34154     34175     34176     34155     34154     34175     34177
     34155     34154     34175     34178     34156     34152     34157     34158
     34156     34152     34157     34159     34156     34152     34157     34167
     34156     34154     34171     34167     34156     34154     34171     34172
     34156     34154     34171     34173     34156     34154     34175     34176
     34156     34154     34175     34177     34156     34154     34175     34178
     34157     34159     34161     34162     34157     34159     34161     34163
     34157     34167     34169     34170     34157     34167     34171     34172
     34157     34167     34171     34173     34158     34157     34159     34160
     34158     34157     34159     34161     34158     34157     34167     34168
     34158     34157     34167     34169     34158     34157     34167     34171
     34159     34157     34167     34168     34159     34157     34167     34169
     34159     34157     34167     34171     34159     34161     34163     34164
     34159     34161     34163     34165     34159     34161     34163     34166
     34160     34159     34157     34167     34160     34159     34161     34162
     34160     34159     34161     34163     34161     34159     34157     34167
     34162     34161     34163     34164     34162     34161     34163     34165
     34162     34161     34163     34166     34167     34171     34154     34175
     34167     34171     34173     34174     34168     34167     34169     34170
     34168     34167     34171     34172     34168     34167     34171     34173
     34169     34167     34171     34172     34169     34167     34171     34173
     34170     34169     34167     34171     34171     34154     34175     34176
     34171     34154     34175     34177     34171     34154     34175     34178
     34172     34171     34154     34175     34172     34171     34173     34174
     34173     34171     34154     34175     34176     34175     34178     34179
     34177     34175     34178     34179     34180     34184     34182     34183
     34180     34184     34182     34198     34180     34184     34182     34202
     34180     34185     34187     34188     34180     34185     34187     34189
     34180     34185     34195     34196     34180     34185     34195     34197
     34180     34185     34195     34198     34181     34180     34184     34182
     34181     34180     34185     34186     34181     34180     34185     34187
     34181     34180     34185     34195     34182     34184     34180     34185
     34182     34198     34195     34185     34182     34198     34195     34196
     34182     34198     34195     34197     34182     34198     34200     34201
     34182     34202     34205     34206     34183     34182     34198     34195
     34183     34182     34198     34199     34183     34182     34198     34200
     34183     34182     34202     34203     34183     34182     34202     34204
     34183     34182     34202     34205     34184     34180     34185     34186
     34184     34180     34185     34187     34184     34180     34185     34195
     34184     34182     34198     34195     34184     34182     34198     34199
     34184     34182     34198     34200     34184     34182     34202     34203
     34184     34182     34202     34204     34184     34182     34202     34205
     34185     34187     34189     34190     34185     34187     34189     34191
     34185     34195     34197     34207     34185     34195     34198     34199
     34185     34195     34198     34200     34186     34185     34187     34188
     34186     34185     34187     34189     34186     34185     34195     34196
     34186     34185     34195     34197     34186     34185     34195     34198
     34187     34185     34195     34196     34187     34185     34195     34197
     34187     34185     34195     34198     34187     34189     34191     34192
     34187     34189     34191     34193     34187     34189     34191     34194
     34188     34187     34185     34195     34188     34187     34189     34190
     34188     34187     34189     34191     34189     34187     34185     34195
     34190     34189     34191     34192     34190     34189     34191     34193
     34190     34189     34191     34194     34195     34197     34207     34208
     34195     34197     34207     34211     34195     34197     34207     34212
     34195     34198     34182     34202     34195     34198     34200     34201
     34196     34195     34197     34207     34196     34195     34198     34199
     34196     34195     34198     34200     34197     34195     34198     34199
     34197     34195     34198     34200     34197     34207     34211     34209
     34197     34207     34212     34213     34197     34207     34212     34214
     34197     34207     34212     34215     34198     34182     34202     34203
     34198     34182     34202     34204     34198     34182     34202     34205
     34198     34195     34197     34207     34199     34198     34182     34202
     34199     34198     34200     34201     34200     34198     34182     34202
     34203     34202     34205     34206     34204     34202     34205     34206
     34207     34211     34209     34210     34207     34211     34209     34219
     34207     34211     34209     34223     34207     34212     34214     34228
     34207     34212     34215     34216     34207     34212     34215     34217
     34207     34212     34215     34219     34208     34207     34211     34209
     34208     34207     34212     34213     34208     34207     34212     34214
     34208     34207     34212     34215     34209     34211     34207     34212
     34209     34219     34215     34212     34209     34219     34215     34216
     34209     34219     34215     34217     34209     34219     34221     34222
     34209     34223     34226     34227     34210     34209     34219     34215
     34210     34209     34219     34220     34210     34209     34219     34221
     34210     34209     34223     34224     34210     34209     34223     34225
     34210     34209     34223     34226     34211     34207     34212     34213
     34211     34207     34212     34214     34211     34207     34212     34215
     34211     34209     34219     34215     34211     34209     34219     34220
     34211     34209     34219     34221     34211     34209     34223     34224
     34211     34209     34223     34225     34211     34209     34223     34226
     34212     34214     34228     34229     34212     34214     34228     34232
     34212     34214     34228     34233     34212     34215     34217     34218
     34212     34215     34219     34220     34212     34215     34219     34221
     34213     34212     34214     34228     34213     34212     34215     34216
     34213     34212     34215     34217     34213     34212     34215     34219
     34214     34212     34215     34216     34214     34212     34215     34217
     34214     34212     34215     34219     34214     34228     34232     34230
     34214     34228     34233     34234     34214     34228     34233     34235
     34214     34228     34233     34236     34215     34212     34214     34228
     34215     34219     34209     34223     34215     34219     34221     34222
     34216     34215     34217     34218     34216     34215     34219     34220
     34216     34215     34219     34221     34217     34215     34219     34220
     34217     34215     34219     34221     34218     34217     34215     34219
     34219     34209     34223     34224     34219     34209     34223     34225
     34219     34209     34223     34226     34220     34219     34209     34223
     34220     34219     34221     34222     34221     34219     34209     34223
     34224     34223     34226     34227     34225     34223     34226     34227
     34228     34232     34230     34231     34228     34232     34230     34240
     34228     34232     34230     34244     34228     34233     34235     34248
     34228     34233     34236     34237     34228     34233     34236     34238
     34228     34233     34236     34240     34229     34228     34232     34230
     34229     34228     34233     34234     34229     34228     34233     34235
     34229     34228     34233     34236     34230     34232     34228     34233
     34230     34240     34236     34233     34230     34240     34236     34237
     34230     34240     34236     34238     34230     34240     34242     34243
     34231     34230     34240     34236     34231     34230     34240     34241
     34231     34230     34240     34242     34231     34230     34244     34245
     34231     34230     34244     34246     34231     34230     34244     34247
     34232     34228     34233     34234     34232     34228     34233     34235
     34232     34228     34233     34236     34232     34230     34240     34236
     34232     34230     34240     34241     34232     34230     34240     34242
     34232     34230     34244     34245     34232     34230     34244     34246
     34232     34230     34244     34247     34233     34235     34248     34249
     34233     34235     34248     34252     34233     34235     34248     34253
     34233     34236     34238     34239     34233     34236     34240     34241
     34233     34236     34240     34242     34234     34233     34235     34248
     34234     34233     34236     34237     34234     34233     34236     34238
     34234     34233     34236     34240     34235     34233     34236     34237
     34235     34233     34236     34238     34235     34233     34236     34240
     34235     34248     34252     34250     34235     34248     34253     34254
     34235     34248     34253     34255     34235     34248     34253     34256
     34236     34233     34235     34248     34236     34240     34230     34244
     34236     34240     34242     34243     34237     34236     34238     34239
     34237     34236     34240     34241     34237     34236     34240     34242
     34238     34236     34240     34241     34238     34236     34240     34242
     34239     34238     34236     34240     34240     34230     34244     34245
     34240     34230     34244     34246     34240     34230     34244     34247
     34241     34240     34230     34244     34241     34240     34242     34243
     34242     34240     34230     34244     34248     34252     34250     34251
     34248     34252     34250     34259     34248     34252     34250     34263
     34248     34253     34255     34267     34248     34253     34256     34257
     34248     34253     34256     34258     34248     34253     34256     34259
     34249     34248     34252     34250     34249     34248     34253     34254
     34249     34248     34253     34255     34249     34248     34253     34256
     34250     34252     34248     34253     34250     34259     34256     34253
     34250     34259     34256     34257     34250     34259     34256     34258
     34250     34259     34261     34262     34251     34250     34259     34256
     34251     34250     34259     34260     34251     34250     34259     34261
     34251     34250     34263     34264     34251     34250     34263     34265
     34251     34250     34263     34266     34252     34248     34253     34254
     34252     34248     34253     34255     34252     34248     34253     34256
     34252     34250     34259     34256     34252     34250     34259     34260
     34252     34250     34259     34261     34252     34250     34263     34264
     34252     34250     34263     34265     34252     34250     34263     34266
     34253     34255     34267     34268     34253     34255     34267     34271
     34253     34255     34267     34272     34253     34256     34258     34295
     34253     34256     34259     34260     34253     34256     34259     34261
     34254     34253     34255     34267     34254     34253     34256     34257
     34254     34253     34256     34258     34254     34253     34256     34259
     34255     34253     34256     34257     34255     34253     34256     34258
     34255     34253     34256     34259     34255     34267     34271     34269
     34255     34267     34272     34273     34255     34267     34272     34274
     34255     34267     34272     34282     34256     34253     34255     34267
     34256     34258     34295     34296     34256     34258     34295     34299
     34256     34258     34295     34300     34256     34259     34250     34263
     34256     34259     34261     34262     34257     34256     34258     34295
     34257     34256     34259     34260     34257     34256     34259     34261
     34258     34256     34259     34260     34258     34256     34259     34261
     34258     34295     34299     34297     34258     34295     34300     34301
     34258     34295     34300     34302     34258     34295     34300     34310
     34259     34250     34263     34264     34259     34250     34263     34265
     34259     34250     34263     34266     34259     34256     34258     34295
     34260     34259     34250     34263     34260     34259     34261     34262
     34261     34259     34250     34263     34267     34271     34269     34270
     34267     34271     34269     34286     34267     34271     34269     34290
     34267     34272     34274     34275     34267     34272     34274     34276
     34267     34272     34282     34283     34267     34272     34282     34284
     34267     34272     34282     34286     34268     34267     34271     34269
     34268     34267     34272     34273     34268     34267     34272     34274
     34268     34267     34272     34282     34269     34271     34267     34272
     34269     34286     34282     34272     34269     34286     34282     34283
     34269     34286     34282     34284     34269     34286     34288     34289
     34269     34290     34293     34294     34270     34269     34286     34282
     34270     34269     34286     34287     34270     34269     34286     34288
     34270     34269     34290     34291     34270     34269     34290     34292
     34270     34269     34290     34293     34271     34267     34272     34273
     34271     34267     34272     34274     34271     34267     34272     34282
     34271     34269     34286     34282     34271     34269     34286     34287
     34271     34269     34286     34288     34271     34269     34290     34291
     34271     34269     34290     34292     34271     34269     34290     34293
     34272     34274     34276     34277     34272     34274     34276     34278
     34272     34282     34284     34285     34272     34282     34286     34287
     34272     34282     34286     34288     34273     34272     34274     34275
     34273     34272     34274     34276     34273     34272     34282     34283
     34273     34272     34282     34284     34273     34272     34282     34286
     34274     34272     34282     34283     34274     34272     34282     34284
     34274     34272     34282     34286     34274     34276     34278     34279
     34274     34276     34278     34280     34274     34276     34278     34281
     34275     34274     34272     34282     34275     34274     34276     34277
     34275     34274     34276     34278     34276     34274     34272     34282
     34277     34276     34278     34279     34277     34276     34278     34280
     34277     34276     34278     34281     34282     34286     34269     34290
     34282     34286     34288     34289     34283     34282     34284     34285
     34283     34282     34286     34287     34283     34282     34286     34288
     34284     34282     34286     34287     34284     34282     34286     34288
     34285     34284     34282     34286     34286     34269     34290     34291
     34286     34269     34290     34292     34286     34269     34290     34293
     34287     34286     34269     34290     34287     34286     34288     34289
     34288     34286     34269     34290     34291     34290     34293     34294
     34292     34290     34293     34294     34295     34299     34297     34298
     34295     34299     34297     34313     34295     34299     34297     34317
     34295     34300     34302     34303     34295     34300     34302     34304
     34295     34300     34310     34311     34295     34300     34310     34312
     34295     34300     34310     34313     34296     34295     34299     34297
     34296     34295     34300     34301     34296     34295     34300     34302
     34296     34295     34300     34310     34297     34299     34295     34300
     34297     34313     34310     34300     34297     34313     34310     34311
     34297     34313     34310     34312     34297     34313     34315     34316
     34297     34317     34320     34321     34298     34297     34313     34310
     34298     34297     34313     34314     34298     34297     34313     34315
     34298     34297     34317     34318     34298     34297     34317     34319
     34298     34297     34317     34320     34299     34295     34300     34301
     34299     34295     34300     34302     34299     34295     34300     34310
     34299     34297     34313     34310     34299     34297     34313     34314
     34299     34297     34313     34315     34299     34297     34317     34318
     34299     34297     34317     34319     34299     34297     34317     34320
     34300     34302     34304     34305     34300     34302     34304     34306
     34300     34310     34312     34322     34300     34310     34313     34314
     34300     34310     34313     34315     34301     34300     34302     34303
     34301     34300     34302     34304     34301     34300     34310     34311
     34301     34300     34310     34312     34301     34300     34310     34313
     34302     34300     34310     34311     34302     34300     34310     34312
     34302     34300     34310     34313     34302     34304     34306     34307
     34302     34304     34306     34308     34302     34304     34306     34309
     34303     34302     34300     34310     34303     34302     34304     34305
     34303     34302     34304     34306     34304     34302     34300     34310
     34305     34304     34306     34307     34305     34304     34306     34308
     34305     34304     34306     34309     34310     34312     34322     34323
     34310     34312     34322     34326     34310     34312     34322     34327
     34310     34313     34297     34317     34310     34313     34315     34316
     34311     34310     34312     34322     34311     34310     34313     34314
     34311     34310     34313     34315     34312     34310     34313     34314
     34312     34310     34313     34315     34312     34322     34326     34324
     34312     34322     34327     34328     34312     34322     34327     34329
     34312     34322     34327     34330     34313     34297     34317     34318
     34313     34297     34317     34319     34313     34297     34317     34320
     34313     34310     34312     34322     34314     34313     34297     34317
     34314     34313     34315     34316     34315     34313     34297     34317
     34318     34317     34320     34321     34319     34317     34320     34321
     34322     34326     34324     34325     34322     34326     34324     34334
     34322     34326     34324     34338     34322     34327     34329     34343
     34322     34327     34330     34331     34322     34327     34330     34332
     34322     34327     34330     34334     34323     34322     34326     34324
     34323     34322     34327     34328     34323     34322     34327     34329
     34323     34322     34327     34330     34324     34326     34322     34327
     34324     34334     34330     34327     34324     34334     34330     34331
     34324     34334     34330     34332     34324     34334     34336     34337
     34324     34338     34341     34342     34325     34324     34334     34330
     34325     34324     34334     34335     34325     34324     34334     34336
     34325     34324     34338     34339     34325     34324     34338     34340
     34325     34324     34338     34341     34326     34322     34327     34328
     34326     34322     34327     34329     34326     34322     34327     34330
     34326     34324     34334     34330     34326     34324     34334     34335
     34326     34324     34334     34336     34326     34324     34338     34339
     34326     34324     34338     34340     34326     34324     34338     34341
     34327     34329     34343     34344     34327     34329     34343     34347
     34327     34329     34343     34348     34327     34330     34332     34333
     34327     34330     34334     34335     34327     34330     34334     34336
     34328     34327     34329     34343     34328     34327     34330     34331
     34328     34327     34330     34332     34328     34327     34330     34334
     34329     34327     34330     34331     34329     34327     34330     34332
     34329     34327     34330     34334     34329     34343     34347     34345
     34329     34343     34348     34349     34329     34343     34348     34350
     34329     34343     34348     34351     34330     34327     34329     34343
     34330     34334     34324     34338     34330     34334     34336     34337
     34331     34330     34332     34333     34331     34330     34334     34335
     34331     34330     34334     34336     34332     34330     34334     34335
     34332     34330     34334     34336     34333     34332     34330     34334
     34334     34324     34338     34339     34334     34324     34338     34340
     34334     34324     34338     34341     34335     34334     34324     34338
     34335     34334     34336     34337     34336     34334     34324     34338
     34339     34338     34341     34342     34340     34338     34341     34342
     34343     34347     34345     34346     34343     34347     34345     34355
     34343     34347     34345     34359     34343     34348     34350     34363
     34343     34348     34351     34352     34343     34348     34351     34353
     34343     34348     34351     34355     34344     34343     34347     34345
     34344     34343     34348     34349     34344     34343     34348     34350
     34344     34343     34348     34351     34345     34347     34343     34348
     34345     34355     34351     34348     34345     34355     34351     34352
     34345     34355     34351     34353     34345     34355     34357     34358
     34346     34345     34355     34351     34346     34345     34355     34356
     34346     34345     34355     34357     34346     34345     34359     34360
     34346     34345     34359     34361     34346     34345     34359     34362
     34347     34343     34348     34349     34347     34343     34348     34350
     34347     34343     34348     34351     34347     34345     34355     34351
     34347     34345     34355     34356     34347     34345     34355     34357
     34347     34345     34359     34360     34347     34345     34359     34361
     34347     34345     34359     34362     34348     34350     34363     34364
     34348     34350     34363     34367     34348     34350     34363     34368
     34348     34351     34353     34354     34348     34351     34355     34356
     34348     34351     34355     34357     34349     34348     34350     34363
     34349     34348     34351     34352     34349     34348     34351     34353
     34349     34348     34351     34355     34350     34348     34351     34352
     34350     34348     34351     34353     34350     34348     34351     34355
     34350     34363     34367     34365     34350     34363     34368     34369
     34350     34363     34368     34370     34350     34363     34368     34371
     34351     34348     34350     34363     34351     34355     34345     34359
     34351     34355     34357     34358     34352     34351     34353     34354
     34352     34351     34355     34356     34352     34351     34355     34357
     34353     34351     34355     34356     34353     34351     34355     34357
     34354     34353     34351     34355     34355     34345     34359     34360
     34355     34345     34359     34361     34355     34345     34359     34362
     34356     34355     34345     34359     34356     34355     34357     34358
     34357     34355     34345     34359     34363     34367     34365     34366
     34363     34367     34365     34375     34363     34367     34365     34379
     34363     34368     34370     34383     34363     34368     34371     34372
     34363     34368     34371     34373     34363     34368     34371     34375
     34364     34363     34367     34365     34364     34363     34368     34369
     34364     34363     34368     34370     34364     34363     34368     34371
     34365     34367     34363     34368     34365     34375     34371     34368
     34365     34375     34371     34372     34365     34375     34371     34373
     34365     34375     34377     34378     34366     34365     34375     34371
     34366     34365     34375     34376     34366     34365     34375     34377
     34366     34365     34379     34380     34366     34365     34379     34381
     34366     34365     34379     34382     34367     34363     34368     34369
     34367     34363     34368     34370     34367     34363     34368     34371
     34367     34365     34375     34371     34367     34365     34375     34376
     34367     34365     34375     34377     34367     34365     34379     34380
     34367     34365     34379     34381     34367     34365     34379     34382
     34368     34370     34383     34384     34368     34370     34383     34387
     34368     34370     34383     34388     34368     34371     34373     34374
     34368     34371     34375     34376     34368     34371     34375     34377
     34369     34368     34370     34383     34369     34368     34371     34372
     34369     34368     34371     34373     34369     34368     34371     34375
     34370     34368     34371     34372     34370     34368     34371     34373
     34370     34368     34371     34375     34370     34383     34387     34385
     34370     34383     34388     34389     34370     34383     34388     34390
     34370     34383     34388     34398     34371     34368     34370     34383
     34371     34375     34365     34379     34371     34375     34377     34378
     34372     34371     34373     34374     34372     34371     34375     34376
     34372     34371     34375     34377     34373     34371     34375     34376
     34373     34371     34375     34377     34374     34373     34371     34375
     34375     34365     34379     34380     34375     34365     34379     34381
     34375     34365     34379     34382     34376     34375     34365     34379
     34376     34375     34377     34378     34377     34375     34365     34379
     34383     34387     34385     34386     34383     34387     34385     34402
     34383     34387     34385     34406     34383     34388     34390     34391
     34383     34388     34390     34392     34383     34388     34398     34399
     34383     34388     34398     34400     34383     34388     34398     34402
     34384     34383     34387     34385     34384     34383     34388     34389
     34384     34383     34388     34390     34384     34383     34388     34398
     34385     34387     34383     34388     34385     34402     34398     34388
     34385     34402     34398     34399     34385     34402     34398     34400
     34385     34402     34404     34405     34385     34406     34409     34410
     34386     34385     34402     34398     34386     34385     34402     34403
     34386     34385     34402     34404     34386     34385     34406     34407
     34386     34385     34406     34408     34386     34385     34406     34409
     34387     34383     34388     34389     34387     34383     34388     34390
     34387     34383     34388     34398     34387     34385     34402     34398
     34387     34385     34402     34403     34387     34385     34402     34404
     34387     34385     34406     34407     34387     34385     34406     34408
     34387     34385     34406     34409     34388     34390     34392     34393
     34388     34390     34392     34394     34388     34398     34400     34401
     34388     34398     34402     34403     34388     34398     34402     34404
     34389     34388     34390     34391     34389     34388     34390     34392
     34389     34388     34398     34399     34389     34388     34398     34400
     34389     34388     34398     34402     34390     34388     34398     34399
     34390     34388     34398     34400     34390     34388     34398     34402
     34390     34392     34394     34395     34390     34392     34394     34396
     34390     34392     34394     34397     34391     34390     34388     34398
     34391     34390     34392     34393     34391     34390     34392     34394
     34392     34390     34388     34398     34393     34392     34394     34395
     34393     34392     34394     34396     34393     34392     34394     34397
     34398     34402     34385     34406     34398     34402     34404     34405
     34399     34398     34400     34401     34399     34398     34402     34403
     34399     34398     34402     34404     34400     34398     34402     34403
     34400     34398     34402     34404     34401     34400     34398     34402
     34402     34385     34406     34407     34402     34385     34406     34408
     34402     34385     34406     34409     34403     34402     34385     34406
     34403     34402     34404     34405     34404     34402     34385     34406
     34407     34406     34409     34410     34408     34406     34409     34410
     34411     34413     34412     34710     34411     34413     34415     34416
     34411     34413     34415     34417     34411     34413     34415     34424
     34412     34413     34415     34416     34412     34413     34415     34417
     34412     34413     34415     34424     34412     34710     34707     34708
     34412     34710     34707     34709     34412     34710     34713     34711
     34412     34710     34714     34715     34412     34710     34714     34716
     34412     34710     34714     34717     34413     34412     34710     34707
     34413     34412     34710     34713     34413     34412     34710     34714
     34413     34415     34416     34418     34413     34415     34424     34425
     34413     34415     34424     34426     34413     34415     34424     34431
     34414     34413     34412     34710     34414     34413     34415     34416
     34414     34413     34415     34417     34414     34413     34415     34424
     34415     34413     34412     34710     34415     34416     34418     34419
     34415     34416     34418     34420     34415     34416     34418     34439
     34415     34424     34426     34427     34415     34424     34431     34432
     34415     34424     34431     34433     34415     34424     34431     34439
     34416     34415     34424     34425     34416     34415     34424     34426
     34416     34415     34424     34431     34416     34418     34420     34421
     34416     34418     34439     34431     34416     34418     34439     34440
     34416     34418     34439     34441     34417     34415     34416     34418
     34417     34415     34424     34425     34417     34415     34424     34426
     34417     34415     34424     34431     34418     34416     34415     34424
     34418     34420     34421     34422     34418     34420     34421     34423
     34418     34420     34421     34447     34418     34439     34431     34424
     34418     34439     34431     34432     34418     34439     34431     34433
     34418     34439     34441     34442     34418     34439     34441     34548
     34419     34418     34420     34421     34419     34418     34439     34431
     34419     34418     34439     34440     34419     34418     34439     34441
     34420     34418     34439     34431     34420     34418     34439     34440
     34420     34418     34439     34441     34420     34421     34447     34443
     34420     34421     34447     34448     34420     34421     34447     34449
     34421     34420     34418     34439     34421     34447     34443     34444
     34421     34447     34443     34445     34421     34447     34443     34457
     34421     34447     34449     34450     34422     34421     34447     34443
     34422     34421     34447     34448     34422     34421     34447     34449
     34423     34421     34447     34443     34423     34421     34447     34448
     34423     34421     34447     34449     34424     34426     34427     34428
     34424     34426     34427     34429     34424     34426     34427     34430
     34424     34431     34432     34434     34424     34431     34439     34440
     34424     34431     34439     34441     34425     34424     34426     34427
     34425     34424     34431     34432     34425     34424     34431     34433
     34425     34424     34431     34439     34426     34424     34431     34432
     34426     34424     34431     34433     34426     34424     34431     34439
     34427     34426     34424     34431     34431     34432     34434     34435
     34431     34432     34434     34436     34431     34439     34441     34442
     34431     34439     34441     34548     34432     34431     34439     34440
     34432     34431     34439     34441     34432     34434     34436     34437
     34432     34434     34436     34438     34432     34434     34436     34469
     34433     34431     34432     34434     34433     34431     34439     34440
     34433     34431     34439     34441     34434     34432     34431     34439
     34434     34436     34469     34470     34434     34436     34469     34471
     34434     34436     34469     34514     34435     34434     34436     34437
     34435     34434     34436     34438     34435     34434     34436     34469
     34436     34469     34471     34472     34436     34469     34514     34515
     34436     34469     34514     34516     34436     34469     34514     34517
     34437     34436     34469     34470     34437     34436     34469     34471
     34437     34436     34469     34514     34438     34436     34469     34470
     34438     34436     34469     34471     34438     34436     34469     34514
     34439     34441     34548     34549     34439     34441     34548     34550
     34440     34439     34441     34442     34440     34439     34441     34548
     34441     34548     34550     34551     34441     34548     34550     34552
     34441     34548     34550     34553     34442     34441     34548     34549
     34442     34441     34548     34550     34443     34447     34449     34450
     34443     34457     34459     34460     34443     34457     34465     34450
     34443     34457     34465     34466     34443     34457     34465     34467
     34444     34443     34445     34446     34444     34443     34447     34448
     34444     34443     34447     34449     34444     34443     34457     34458
     34444     34443     34457     34459     34444     34443     34457     34465
     34445     34443     34447     34448     34445     34443     34447     34449
     34445     34443     34457     34458     34445     34443     34457     34459
     34445     34443     34457     34465     34446     34445     34443     34447
     34446     34445     34443     34457     34447     34443     34457     34458
     34447     34443     34457     34459     34447     34443     34457     34465
     34447     34449     34450     34451     34447     34449     34450     34452
     34447     34449     34450     34465     34448     34447     34443     34457
     34448     34447     34449     34450     34449     34447     34443     34457
     34449     34450     34452     34456     34449     34450     34465     34457
     34449     34450     34465     34466     34449     34450     34465     34467
     34450     34452     34456     34453     34450     34452     34456     34454
     34450     34452     34456     34455     34450     34465     34457     34458
     34450     34465     34457     34459     34450     34465     34467     34468
     34450     34465     34467     34664     34451     34450     34452     34456
     34451     34450     34465     34457     34451     34450     34465     34466
     34451     34450     34465     34467     34452     34450     34465     34457
     34452     34450     34465     34466     34452     34450     34465     34467
     34456     34452     34450     34465     34457     34459     34460     34461
     34457     34459     34460     34462     34457     34465     34467     34468
     34457     34465     34467     34664     34458     34457     34459     34460
     34458     34457     34465     34466     34458     34457     34465     34467
     34459     34457     34465     34466     34459     34457     34465     34467
     34459     34460     34462     34463     34459     34460     34462     34464
     34459     34460     34462     34626     34460     34459     34457     34465
     34460     34462     34626     34627     34460     34462     34626     34628
     34460     34462     34626     34630     34461     34460     34462     34463
     34461     34460     34462     34464     34461     34460     34462     34626
     34462     34626     34628     34629     34462     34626     34630     34631
     34462     34626     34630     34632     34462     34626     34630     34633
     34463     34462     34626     34627     34463     34462     34626     34628
     34463     34462     34626     34630     34464     34462     34626     34627
     34464     34462     34626     34628     34464     34462     34626     34630
     34465     34467     34664     34665     34465     34467     34664     34666
     34466     34465     34467     34468     34466     34465     34467     34664
     34467     34664     34666     34667     34467     34664     34666     34668
     34467     34664     34666     34669     34468     34467     34664     34665
     34468     34467     34664     34666     34469     34471     34472     34473
     34469     34471     34472     34474     34469     34514     34517     34518
     34469     34514     34517     34519     34469     34514     34517     34520
     34470     34469     34471     34472     34470     34469     34514     34515
     34470     34469     34514     34516     34470     34469     34514     34517
     34471     34469     34514     34515     34471     34469     34514     34516
     34471     34469     34514     34517     34471     34472     34474     34475
     34471     34472     34474     34476     34471     34472     34474     34477
     34472     34471     34469     34514     34472     34474     34477     34478
     34472     34474     34477     34479     34472     34474     34477     34480
     34473     34472     34474     34475     34473     34472     34474     34476
     34473     34472     34474     34477     34474     34477     34480     34481
     34474     34477     34480     34482     34474     34477     34480     34483
     34475     34474     34477     34478     34475     34474     34477     34479
     34475     34474     34477     34480     34476     34474     34477     34478
     34476     34474     34477     34479     34476     34474     34477     34480
     34477     34480     34483     34484     34477     34480     34483     34485
     34477     34480     34483     34486     34478     34477     34480     34481
     34478     34477     34480     34482     34478     34477     34480     34483
     34479     34477     34480     34481     34479     34477     34480     34482
     34479     34477     34480     34483     34480     34483     34486     34487
     34480     34483     34486     34488     34480     34483     34486     34489
     34481     34480     34483     34484     34481     34480     34483     34485
     34481     34480     34483     34486     34482     34480     34483     34484
     34482     34480     34483     34485     34482     34480     34483     34486
     34483     34486     34489     34490     34483     34486     34489     34491
     34483     34486     34489     34492     34484     34483     34486     34487
     34484     34483     34486     34488     34484     34483     34486     34489
     34485     34483     34486     34487     34485     34483     34486     34488
     34485     34483     34486     34489     34486     34489     34492     34493
     34486     34489     34492     34494     34486     34489     34492     34495
     34487     34486     34489     34490     34487     34486     34489     34491
     34487     34486     34489     34492     34488     34486     34489     34490
     34488     34486     34489     34491     34488     34486     34489     34492
     34489     34492     34495     34496     34489     34492     34495     34497
     34489     34492     34495     34498     34490     34489     34492     34493
     34490     34489     34492     34494     34490     34489     34492     34495
     34491     34489     34492     34493     34491     34489     34492     34494
     34491     34489     34492     34495     34492     34495     34498     34499
     34492     34495     34498     34500     34492     34495     34498     34501
     34493     34492     34495     34496     34493     34492     34495     34497
     34493     34492     34495     34498     34494     34492     34495     34496
     34494     34492     34495     34497     34494     34492     34495     34498
     34495     34498     34501     34502     34495     34498     34501     34503
     34495     34498     34501     34504     34496     34495     34498     34499
     34496     34495     34498     34500     34496     34495     34498     34501
     34497     34495     34498     34499     34497     34495     34498     34500
     34497     34495     34498     34501     34498     34501     34504     34505
     34498     34501     34504     34506     34498     34501     34504     34507
     34499     34498     34501     34502     34499     34498     34501     34503
     34499     34498     34501     34504     34500     34498     34501     34502
     34500     34498     34501     34503     34500     34498     34501     34504
     34501     34504     34507     34508     34501     34504     34507     34509
     34501     34504     34507     34510     34502     34501     34504     34505
     34502     34501     34504     34506     34502     34501     34504     34507
     34503     34501     34504     34505     34503     34501     34504     34506
     34503     34501     34504     34507     34504     34507     34510     34511
     34504     34507     34510     34512     34504     34507     34510     34513
     34505     34504     34507     34508     34505     34504     34507     34509
     34505     34504     34507     34510     34506     34504     34507     34508
     34506     34504     34507     34509     34506     34504     34507     34510
     34508     34507     34510     34511     34508     34507     34510     34512
     34508     34507     34510     34513     34509     34507     34510     34511
     34509     34507     34510     34512     34509     34507     34510     34513
     34514     34517     34520     34521     34514     34517     34520     34522
     34514     34517     34520     34523     34515     34514     34517     34518
     34515     34514     34517     34519     34515     34514     34517     34520
     34516     34514     34517     34518     34516     34514     34517     34519
     34516     34514     34517     34520     34517     34520     34523     34524
     34517     34520     34523     34525     34517     34520     34523     34526
     34518     34517     34520     34521     34518     34517     34520     34522
     34518     34517     34520     34523     34519     34517     34520     34521
     34519     34517     34520     34522     34519     34517     34520     34523
     34520     34523     34526     34527     34520     34523     34526     34528
     34520     34523     34526     34529     34521     34520     34523     34524
     34521     34520     34523     34525     34521     34520     34523     34526
     34522     34520     34523     34524     34522     34520     34523     34525
     34522     34520     34523     34526     34523     34526     34529     34530
     34523     34526     34529     34531     34523     34526     34529     34532
     34524     34523     34526     34527     34524     34523     34526     34528
     34524     34523     34526     34529     34525     34523     34526     34527
     34525     34523     34526     34528     34525     34523     34526     34529
     34526     34529     34532     34533     34526     34529     34532     34534
     34526     34529     34532     34535     34527     34526     34529     34530
     34527     34526     34529     34531     34527     34526     34529     34532
     34528     34526     34529     34530     34528     34526     34529     34531
     34528     34526     34529     34532     34529     34532     34535     34536
     34529     34532     34535     34537     34529     34532     34535     34538
     34530     34529     34532     34533     34530     34529     34532     34534
     34530     34529     34532     34535     34531     34529     34532     34533
     34531     34529     34532     34534     34531     34529     34532     34535
     34532     34535     34538     34539     34532     34535     34538     34540
     34532     34535     34538     34541     34533     34532     34535     34536
     34533     34532     34535     34537     34533     34532     34535     34538
     34534     34532     34535     34536     34534     34532     34535     34537
     34534     34532     34535     34538     34535     34538     34541     34542
     34535     34538     34541     34543     34535     34538     34541     34544
     34536     34535     34538     34539     34536     34535     34538     34540
     34536     34535     34538     34541     34537     34535     34538     34539
     34537     34535     34538     34540     34537     34535     34538     34541
     34538     34541     34544     34545     34538     34541     34544     34546
     34538     34541     34544     34547     34539     34538     34541     34542
     34539     34538     34541     34543     34539     34538     34541     34544
     34540     34538     34541     34542     34540     34538     34541     34543
     34540     34538     34541     34544     34542     34541     34544     34545
     34542     34541     34544     34546     34542     34541     34544     34547
     34543     34541     34544     34545     34543     34541     34544     34546
     34543     34541     34544     34547     34548     34550     34553     34554
     34548     34550     34553     34555     34548     34550     34553     34592
     34549     34548     34550     34551     34549     34548     34550     34552
     34549     34548     34550     34553     34550     34553     34555     34556
     34550     34553     34592     34593     34550     34553     34592     34594
     34550     34553     34592     34595     34551     34550     34553     34554
     34551     34550     34553     34555     34551     34550     34553     34592
     34552     34550     34553     34554     34552     34550     34553     34555
     34552     34550     34553     34592     34553     34555     34556     34557
     34553     34555     34556     34558     34553     34592     34595     34596
     34553     34592     34595     34597     34553     34592     34595     34598
     34554     34553     34555     34556     34554     34553     34592     34593
     34554     34553     34592     34594     34554     34553     34592     34595
     34555     34553     34592     34593     34555     34553     34592     34594
     34555     34553     34592     34595     34555     34556     34558     34559
     34555     34556     34558     34560     34555     34556     34558     34561
     34556     34555     34553     34592     34556     34558     34561     34562
     34556     34558     34561     34563     34556     34558     34561     34564
     34557     34556     34558     34559     34557     34556     34558     34560
     34557     34556     34558     34561     34558     34561     34564     34565
     34558     34561     34564     34566     34558     34561     34564     34567
     34559     34558     34561     34562     34559     34558     34561     34563
     34559     34558     34561     34564     34560     34558     34561     34562
     34560     34558     34561     34563     34560     34558     34561     34564
     34561     34564     34567     34568     34561     34564     34567     34569
     34561     34564     34567     34570     34562     34561     34564     34565
     34562     34561     34564     34566     34562     34561     34564     34567
     34563     34561     34564     34565     34563     34561     34564     34566
     34563     34561     34564     34567     34564     34567     34570     34571
     34564     34567     34570     34572     34564     34567     34570     34573
     34565     34564     34567     34568     34565     34564     34567     34569
     34565     34564     34567     34570     34566     34564     34567     34568
     34566     34564     34567     34569     34566     34564     34567     34570
     34567     34570     34573     34574     34567     34570     34573     34575
     34567     34570     34573     34576     34568     34567     34570     34571
     34568     34567     34570     34572     34568     34567     34570     34573
     34569     34567     34570     34571     34569     34567     34570     34572
     34569     34567     34570     34573     34570     34573     34576     34577
     34570     34573     34576     34578     34570     34573     34576     34579
     34571     34570     34573     34574     34571     34570     34573     34575
     34571     34570     34573     34576     34572     34570     34573     34574
     34572     34570     34573     34575     34572     34570     34573     34576
     34573     34576     34579     34580     34573     34576     34579     34581
     34573     34576     34579     34582     34574     34573     34576     34577
     34574     34573     34576     34578     34574     34573     34576     34579
     34575     34573     34576     34577     34575     34573     34576     34578
     34575     34573     34576     34579     34576     34579     34582     34583
     34576     34579     34582     34584     34576     34579     34582     34585
     34577     34576     34579     34580     34577     34576     34579     34581
     34577     34576     34579     34582     34578     34576     34579     34580
     34578     34576     34579     34581     34578     34576     34579     34582
     34579     34582     34585     34586     34579     34582     34585     34587
     34579     34582     34585     34588     34580     34579     34582     34583
     34580     34579     34582     34584     34580     34579     34582     34585
     34581     34579     34582     34583     34581     34579     34582     34584
     34581     34579     34582     34585     34582     34585     34588     34589
     34582     34585     34588     34590     34582     34585     34588     34591
     34583     34582     34585     34586     34583     34582     34585     34587
     34583     34582     34585     34588     34584     34582     34585     34586
     34584     34582     34585     34587     34584     34582     34585     34588
     34586     34585     34588     34589     34586     34585     34588     34590
     34586     34585     34588     34591     34587     34585     34588     34589
     34587     34585     34588     34590     34587     34585     34588     34591
     34592     34595     34598     34599     34592     34595     34598     34600
     34592     34595     34598     34601     34593     34592     34595     34596
     34593     34592     34595     34597     34593     34592     34595     34598
     34594     34592     34595     34596     34594     34592     34595     34597
     34594     34592     34595     34598     34595     34598     34601     34602
     34595     34598     34601     34603     34595     34598     34601     34604
     34596     34595     34598     34599     34596     34595     34598     34600
     34596     34595     34598     34601     34597     34595     34598     34599
     34597     34595     34598     34600     34597     34595     34598     34601
     34598     34601     34604     34605     34598     34601     34604     34606
     34598     34601     34604     34607     34599     34598     34601     34602
     34599     34598     34601     34603     34599     34598     34601     34604
     34600     34598     34601     34602     34600     34598     34601     34603
     34600     34598     34601     34604     34601     34604     34607     34608
     34601     34604     34607     34609     34601     34604     34607     34610
     34602     34601     34604     34605     34602     34601     34604     34606
     34602     34601     34604     34607     34603     34601     34604     34605
     34603     34601     34604     34606     34603     34601     34604     34607
     34604     34607     34610     34611     34604     34607     34610     34612
     34604     34607     34610     34613     34605     34604     34607     34608
     34605     34604     34607     34609     34605     34604     34607     34610
     34606     34604     34607     34608     34606     34604     34607     34609
     34606     34604     34607     34610     34607     34610     34613     34614
     34607     34610     34613     34615     34607     34610     34613     34616
     34608     34607     34610     34611     34608     34607     34610     34612
     34608     34607     34610     34613     34609     34607     34610     34611
     34609     34607     34610     34612     34609     34607     34610     34613
     34610     34613     34616     34617     34610     34613     34616     34618
     34610     34613     34616     34619     34611     34610     34613     34614
     34611     34610     34613     34615     34611     34610     34613     34616
     34612     34610     34613     34614     34612     34610     34613     34615
     34612     34610     34613     34616     34613     34616     34619     34620
     34613     34616     34619     34621     34613     34616     34619     34622
     34614     34613     34616     34617     34614     34613     34616     34618
     34614     34613     34616     34619     34615     34613     34616     34617
     34615     34613     34616     34618     34615     34613     34616     34619
     34616     34619     34622     34623     34616     34619     34622     34624
     34616     34619     34622     34625     34617     34616     34619     34620
     34617     34616     34619     34621     34617     34616     34619     34622
     34618     34616     34619     34620     34618     34616     34619     34621
     34618     34616     34619     34622     34620     34619     34622     34623
     34620     34619     34622     34624     34620     34619     34622     34625
     34621     34619     34622     34623     34621     34619     34622     34624
     34621     34619     34622     34625     34626     34630     34633     34634
     34626     34630     34633     34635     34626     34630     34633     34636
     34627     34626     34628     34629     34627     34626     34630     34631
     34627     34626     34630     34632     34627     34626     34630     34633
     34628     34626     34630     34631     34628     34626     34630     34632
     34628     34626     34630     34633     34629     34628     34626     34630
     34630     34633     34636     34637     34630     34633     34636     34638
     34630     34633     34636     34639     34631     34630     34633     34634
     34631     34630     34633     34635     34631     34630     34633     34636
     34632     34630     34633     34634     34632     34630     34633     34635
     34632     34630     34633     34636     34633     34636     34639     34640
     34633     34636     34639     34641     34633     34636     34639     34642
     34634     34633     34636     34637     34634     34633     34636     34638
     34634     34633     34636     34639     34635     34633     34636     34637
     34635     34633     34636     34638     34635     34633     34636     34639
     34636     34639     34642     34643     34636     34639     34642     34644
     34636     34639     34642     34645     34637     34636     34639     34640
     34637     34636     34639     34641     34637     34636     34639     34642
     34638     34636     34639     34640     34638     34636     34639     34641
     34638     34636     34639     34642     34639     34642     34645     34646
     34639     34642     34645     34647     34639     34642     34645     34648
     34640     34639     34642     34643     34640     34639     34642     34644
     34640     34639     34642     34645     34641     34639     34642     34643
     34641     34639     34642     34644     34641     34639     34642     34645
     34642     34645     34648     34649     34642     34645     34648     34650
     34642     34645     34648     34651     34643     34642     34645     34646
     34643     34642     34645     34647     34643     34642     34645     34648
     34644     34642     34645     34646     34644     34642     34645     34647
     34644     34642     34645     34648     34645     34648     34651     34652
     34645     34648     34651     34653     34645     34648     34651     34654
     34646     34645     34648     34649     34646     34645     34648     34650
     34646     34645     34648     34651     34647     34645     34648     34649
     34647     34645     34648     34650     34647     34645     34648     34651
     34648     34651     34654     34655     34648     34651     34654     34656
     34648     34651     34654     34657     34649     34648     34651     34652
     34649     34648     34651     34653     34649     34648     34651     34654
     34650     34648     34651     34652     34650     34648     34651     34653
     34650     34648     34651     34654     34651     34654     34657     34658
     34651     34654     34657     34659     34651     34654     34657     34660
     34652     34651     34654     34655     34652     34651     34654     34656
     34652     34651     34654     34657     34653     34651     34654     34655
     34653     34651     34654     34656     34653     34651     34654     34657
     34654     34657     34660     34661     34654     34657     34660     34662
     34654     34657     34660     34663     34655     34654     34657     34658
     34655     34654     34657     34659     34655     34654     34657     34660
     34656     34654     34657     34658     34656     34654     34657     34659
     34656     34654     34657     34660     34658     34657     34660     34661
     34658     34657     34660     34662     34658     34657     34660     34663
     34659     34657     34660     34661     34659     34657     34660     34662
     34659     34657     34660     34663     34664     34666     34669     34670
     34664     34666     34669     34671     34664     34666     34669     34673
     34665     34664     34666     34667     34665     34664     34666     34668
     34665     34664     34666     34669     34666     34669     34671     34672
     34666     34669     34673     34674     34666     34669     34673     34675
     34666     34669     34673     34676     34667     34666     34669     34670
     34667     34666     34669     34671     34667     34666     34669     34673
     34668     34666     34669     34670     34668     34666     34669     34671
     34668     34666     34669     34673     34669     34673     34676     34677
     34669     34673     34676     34678     34669     34673     34676     34679
     34670     34669     34671     34672     34670     34669     34673     34674
     34670     34669     34673     34675     34670     34669     34673     34676
     34671     34669     34673     34674     34671     34669     34673     34675
     34671     34669     34673     34676     34672     34671     34669     34673
     34673     34676     34679     34680     34673     34676     34679     34681
     34673     34676     34679     34682     34674     34673     34676     34677
     34674     34673     34676     34678     34674     34673     34676     34679
     34675     34673     34676     34677     34675     34673     34676     34678
     34675     34673     34676     34679     34676     34679     34682     34683
     34676     34679     34682     34684     34676     34679     34682     34685
     34677     34676     34679     34680     34677     34676     34679     34681
     34677     34676     34679     34682     34678     34676     34679     34680
     34678     34676     34679     34681     34678     34676     34679     34682
     34679     34682     34685     34686     34679     34682     34685     34687
     34679     34682     34685     34688     34680     34679     34682     34683
     34680     34679     34682     34684     34680     34679     34682     34685
     34681     34679     34682     34683     34681     34679     34682     34684
     34681     34679     34682     34685     34682     34685     34688     34689
     34682     34685     34688     34690     34682     34685     34688     34691
     34683     34682     34685     34686     34683     34682     34685     34687
     34683     34682     34685     34688     34684     34682     34685     34686
     34684     34682     34685     34687     34684     34682     34685     34688
     34685     34688     34691     34692     34685     34688     34691     34693
     34685     34688     34691     34694     34686     34685     34688     34689
     34686     34685     34688     34690     34686     34685     34688     34691
     34687     34685     34688     34689     34687     34685     34688     34690
     34687     34685     34688     34691     34688     34691     34694     34695
     34688     34691     34694     34696     34688     34691     34694     34697
     34689     34688     34691     34692     34689     34688     34691     34693
     34689     34688     34691     34694     34690     34688     34691     34692
     34690     34688     34691     34693     34690     34688     34691     34694
     34691     34694     34697     34698     34691     34694     34697     34699
     34691     34694     34697     34700     34692     34691     34694     34695
     34692     34691     34694     34696     34692     34691     34694     34697
     34693     34691     34694     34695     34693     34691     34694     34696
     34693     34691     34694     34697     34694     34697     34700     34701
     34694     34697     34700     34702     34694     34697     34700     34703
     34695     34694     34697     34698     34695     34694     34697     34699
     34695     34694     34697     34700     34696     34694     34697     34698
     34696     34694     34697     34699     34696     34694     34697     34700
     34697     34700     34703     34704     34697     34700     34703     34705
     34697     34700     34703     34706     34698     34697     34700     34701
     34698     34697     34700     34702     34698     34697     34700     34703
     34699     34697     34700     34701     34699     34697     34700     34702
     34699     34697     34700     34703     34701     34700     34703     34704
     34701     34700     34703     34705     34701     34700     34703     34706
     34702     34700     34703     34704     34702     34700     34703     34705
     34702     34700     34703     34706     34707     34710     34713     34711
     34707     34710     34714     34715     34707     34710     34714     34716
     34707     34710     34714     34717     34708     34707     34710     34713
     34708     34707     34710     34714     34709     34707     34710     34713
     34709     34707     34710     34714     34710     34713     34711     34712
     34710     34713     34711     34720     34710     34713     34711     34723
     34710     34714     34717     34718     34710     34714     34717     34719
     34710     34714     34717     34720     34711     34713     34710     34714
     34711     34720     34717     34714     34711     34720     34717     34718
     34711     34720     34717     34719     34711     34720     34722     34759
     34711     34723     34725     34726     34711     34723     34727     34728
     34711     34723     34727     34729     34711     34723     34727     34730
     34712     34711     34720     34717     34712     34711     34720     34721
     34712     34711     34720     34722     34712     34711     34723     34724
     34712     34711     34723     34725     34712     34711     34723     34727
     34713     34710     34714     34715     34713     34710     34714     34716
     34713     34710     34714     34717     34713     34711     34720     34717
     34713     34711     34720     34721     34713     34711     34720     34722
     34713     34711     34723     34724     34713     34711     34723     34725
     34713     34711     34723     34727     34714     34717     34719     34735
     34714     34717     34720     34721     34714     34717     34720     34722
     34715     34714     34717     34718     34715     34714     34717     34719
     34715     34714     34717     34720     34716     34714     34717     34718
     34716     34714     34717     34719     34716     34714     34717     34720
     34717     34719     34735     34732     34717     34719     34735     34738
     34717     34719     34735     34739     34717     34720     34711     34723
     34717     34720     34722     34759     34718     34717     34719     34735
     34718     34717     34720     34721     34718     34717     34720     34722
     34719     34717     34720     34721     34719     34717     34720     34722
     34719     34735     34732     34733     34719     34735     34732     34734
     34719     34735     34738     34736     34719     34735     34739     34740
     34719     34735     34739     34741     34719     34735     34739     34742
     34720     34711     34723     34724     34720     34711     34723     34725
     34720     34711     34723     34727     34720     34717     34719     34735
     34720     34722     34759     34760     34720     34722     34759     34763
     34720     34722     34759     34764     34721     34720     34711     34723
     34721     34720     34722     34759     34722     34720     34711     34723
     34722     34759     34763     34761     34722     34759     34764     34765
     34722     34759     34764     34766     34722     34759     34764     34768
     34723     34727     34730     34731     34724     34723     34725     34726
     34724     34723     34727     34728     34724     34723     34727     34729
     34724     34723     34727     34730     34725     34723     34727     34728
     34725     34723     34727     34729     34725     34723     34727     34730
     34726     34725     34723     34727     34728     34727     34730     34731
     34729     34727     34730     34731     34732     34735     34738     34736
     34732     34735     34739     34740     34732     34735     34739     34741
     34732     34735     34739     34742     34733     34732     34735     34738
     34733     34732     34735     34739     34734     34732     34735     34738
     34734     34732     34735     34739     34735     34738     34736     34737
     34735     34738     34736     34746     34735     34738     34736     34750
     34735     34739     34742     34743     34735     34739     34742     34744
     34735     34739     34742     34746     34736     34738     34735     34739
     34736     34746     34742     34739     34736     34746     34742     34743
     34736     34746     34742     34744     34736     34746     34748     34749
     34736     34750     34752     34753     34736     34750     34754     34755
     34736     34750     34754     34756     34736     34750     34754     34757
     34737     34736     34746     34742     34737     34736     34746     34747
     34737     34736     34746     34748     34737     34736     34750     34751
     34737     34736     34750     34752     34737     34736     34750     34754
     34738     34735     34739     34740     34738     34735     34739     34741
     34738     34735     34739     34742     34738     34736     34746     34742
     34738     34736     34746     34747     34738     34736     34746     34748
     34738     34736     34750     34751     34738     34736     34750     34752
     34738     34736     34750     34754     34739     34742     34744     34745
     34739     34742     34746     34747     34739     34742     34746     34748
     34740     34739     34742     34743     34740     34739     34742     34744
     34740     34739     34742     34746     34741     34739     34742     34743
     34741     34739     34742     34744     34741     34739     34742     34746
     34742     34746     34736     34750     34742     34746     34748     34749
     34743     34742     34744     34745     34743     34742     34746     34747
     34743     34742     34746     34748     34744     34742     34746     34747
     34744     34742     34746     34748     34745     34744     34742     34746
     34746     34736     34750     34751     34746     34736     34750     34752
     34746     34736     34750     34754     34747     34746     34736     34750
     34747     34746     34748     34749     34748     34746     34736     34750
     34750     34754     34757     34758     34751     34750     34752     34753
     34751     34750     34754     34755     34751     34750     34754     34756
     34751     34750     34754     34757     34752     34750     34754     34755
     34752     34750     34754     34756     34752     34750     34754     34757
     34753     34752     34750     34754     34755     34754     34757     34758
     34756     34754     34757     34758     34759     34763     34761     34762
     34759     34763     34761     34771     34759     34763     34761     34778
     34759     34764     34766     34767     34759     34764     34768     34769
     34759     34764     34768     34770     34759     34764     34768     34771
     34760     34759     34763     34761     34760     34759     34764     34765
     34760     34759     34764     34766     34760     34759     34764     34768
     34761     34763     34759     34764     34761     34771     34768     34764
     34761     34771     34768     34769     34761     34771     34768     34770
     34761     34771     34773     34774     34761     34778     34780     34781
     34761     34778     34782     34783     34761     34778     34782     34784
     34761     34778     34782     34785     34762     34761     34771     34768
     34762     34761     34771     34772     34762     34761     34771     34773
     34762     34761     34778     34779     34762     34761     34778     34780
     34762     34761     34778     34782     34763     34759     34764     34765
     34763     34759     34764     34766     34763     34759     34764     34768
     34763     34761     34771     34768     34763     34761     34771     34772
     34763     34761     34771     34773     34763     34761     34778     34779
     34763     34761     34778     34780     34763     34761     34778     34782
     34764     34768     34770     34787     34764     34768     34771     34772
     34764     34768     34771     34773     34765     34764     34766     34767
     34765     34764     34768     34769     34765     34764     34768     34770
     34765     34764     34768     34771     34766     34764     34768     34769
     34766     34764     34768     34770     34766     34764     34768     34771
     34767     34766     34764     34768     34768     34770     34787     34788
     34768     34770     34787     34791     34768     34770     34787     34792
     34768     34771     34761     34778     34768     34771     34773     34774
     34769     34768     34770     34787     34769     34768     34771     34772
     34769     34768     34771     34773     34770     34768     34771     34772
     34770     34768     34771     34773     34770     34787     34791     34789
     34770     34787     34792     34793     34770     34787     34792     34794
     34770     34787     34792     34796     34771     34761     34778     34779
     34771     34761     34778     34780     34771     34761     34778     34782
     34771     34768     34770     34787     34771     34773     34774     34775
     34771     34773     34774     34776     34771     34773     34774     34777
     34772     34771     34761     34778     34772     34771     34773     34774
     34773     34771     34761     34778     34778     34782     34785     34786
     34779     34778     34780     34781     34779     34778     34782     34783
     34779     34778     34782     34784     34779     34778     34782     34785
     34780     34778     34782     34783     34780     34778     34782     34784
     34780     34778     34782     34785     34781     34780     34778     34782
     34783     34782     34785     34786     34784     34782     34785     34786
     34787     34791     34789     34790     34787     34791     34789     34799
     34787     34791     34789     34806     34787     34792     34794     34795
     34787     34792     34796     34797     34787     34792     34796     34798
     34787     34792     34796     34799     34788     34787     34791     34789
     34788     34787     34792     34793     34788     34787     34792     34794
     34788     34787     34792     34796     34789     34791     34787     34792
     34789     34799     34796     34792     34789     34799     34796     34797
     34789     34799     34796     34798     34789     34799     34801     34802
     34789     34806     34808     34809     34789     34806     34810     34811
     34789     34806     34810     34812     34789     34806     34810     34813
     34790     34789     34799     34796     34790     34789     34799     34800
     34790     34789     34799     34801     34790     34789     34806     34807
     34790     34789     34806     34808     34790     34789     34806     34810
     34791     34787     34792     34793     34791     34787     34792     34794
     34791     34787     34792     34796     34791     34789     34799     34796
     34791     34789     34799     34800     34791     34789     34799     34801
     34791     34789     34806     34807     34791     34789     34806     34808
     34791     34789     34806     34810     34792     34796     34798     34840
     34792     34796     34799     34800     34792     34796     34799     34801
     34793     34792     34794     34795     34793     34792     34796     34797
     34793     34792     34796     34798     34793     34792     34796     34799
     34794     34792     34796     34797     34794     34792     34796     34798
     34794     34792     34796     34799     34795     34794     34792     34796
     34796     34798     34840     34841     34796     34798     34840     34844
     34796     34798     34840     34845     34796     34799     34789     34806
     34796     34799     34801     34802     34797     34796     34798     34840
     34797     34796     34799     34800     34797     34796     34799     34801
     34798     34796     34799     34800     34798     34796     34799     34801
     34798     34840     34844     34842     34798     34840     34845     34846
     34798     34840     34845     34847     34798     34840     34845     34849
     34799     34789     34806     34807     34799     34789     34806     34808
     34799     34789     34806     34810     34799     34796     34798     34840
     34799     34801     34802     34803     34799     34801     34802     34804
     34799     34801     34802     34805     34800     34799     34789     34806
     34800     34799     34801     34802     34801     34799     34789     34806
     34806     34810     34813     34814     34807     34806     34808     34809
     34807     34806     34810     34811     34807     34806     34810     34812
     34807     34806     34810     34813     34808     34806     34810     34811
     34808     34806     34810     34812     34808     34806     34810     34813
     34809     34808     34806     34810     34810     34813     34814     34815
     34810     34813     34814     34818     34810     34813     34814     34819
     34811     34810     34813     34814     34812     34810     34813     34814
     34813     34814     34818     34816     34813     34814     34819     34820
     34813     34814     34819     34821     34813     34814     34819     34823
     34814     34818     34816     34817     34814     34818     34816     34827
     34814     34818     34816     34831     34814     34819     34821     34822
     34814     34819     34823     34824     34814     34819     34823     34825
     34814     34819     34823     34827     34815     34814     34818     34816
     34815     34814     34819     34820     34815     34814     34819     34821
     34815     34814     34819     34823     34816     34818     34814     34819
     34816     34827     34823     34819     34816     34827     34823     34824
     34816     34827     34823     34825     34816     34827     34829     34830
     34816     34831     34833     34834     34816     34831     34835     34836
     34816     34831     34835     34837     34816     34831     34835     34838
     34817     34816     34827     34823     34817     34816     34827     34828
     34817     34816     34827     34829     34817     34816     34831     34832
     34817     34816     34831     34833     34817     34816     34831     34835
     34818     34814     34819     34820     34818     34814     34819     34821
     34818     34814     34819     34823     34818     34816     34827     34823
     34818     34816     34827     34828     34818     34816     34827     34829
     34818     34816     34831     34832     34818     34816     34831     34833
     34818     34816     34831     34835     34819     34823     34825     34826
     34819     34823     34827     34828     34819     34823     34827     34829
     34820     34819     34821     34822     34820     34819     34823     34824
     34820     34819     34823     34825     34820     34819     34823     34827
     34821     34819     34823     34824     34821     34819     34823     34825
     34821     34819     34823     34827     34822     34821     34819     34823
     34823     34827     34816     34831     34823     34827     34829     34830
     34824     34823     34825     34826     34824     34823     34827     34828
     34824     34823     34827     34829     34825     34823     34827     34828
     34825     34823     34827     34829     34826     34825     34823     34827
     34827     34816     34831     34832     34827     34816     34831     34833
     34827     34816     34831     34835     34828     34827     34816     34831
     34828     34827     34829     34830     34829     34827     34816     34831
     34831     34835     34838     34839     34832     34831     34833     34834
     34832     34831     34835     34836     34832     34831     34835     34837
     34832     34831     34835     34838     34833     34831     34835     34836
     34833     34831     34835     34837     34833     34831     34835     34838
     34834     34833     34831     34835     34836     34835     34838     34839
     34837     34835     34838     34839     34840     34844     34842     34843
     34840     34844     34842     34852     34840     34844     34842     34856
     34840     34845     34847     34848     34840     34845     34849     34850
     34840     34845     34849     34851     34840     34845     34849     34852
     34841     34840     34844     34842     34841     34840     34845     34846
     34841     34840     34845     34847     34841     34840     34845     34849
     34842     34844     34840     34845     34842     34852     34849     34845
     34842     34852     34849     34850     34842     34852     34849     34851
     34842     34852     34854     34855     34842     34856     34859     34860
     34843     34842     34852     34849     34843     34842     34852     34853
     34843     34842     34852     34854     34843     34842     34856     34857
     34843     34842     34856     34858     34843     34842     34856     34859
     34844     34840     34845     34846     34844     34840     34845     34847
     34844     34840     34845     34849     34844     34842     34852     34849
     34844     34842     34852     34853     34844     34842     34852     34854
     34844     34842     34856     34857     34844     34842     34856     34858
     34844     34842     34856     34859     34845     34849     34851     34861
     34845     34849     34852     34853     34845     34849     34852     34854
     34846     34845     34847     34848     34846     34845     34849     34850
     34846     34845     34849     34851     34846     34845     34849     34852
     34847     34845     34849     34850     34847     34845     34849     34851
     34847     34845     34849     34852     34848     34847     34845     34849
     34849     34851     34861     34862     34849     34851     34861     34865
     34849     34851     34861     34866     34849     34852     34842     34856
     34849     34852     34854     34855     34850     34849     34851     34861
     34850     34849     34852     34853     34850     34849     34852     34854
     34851     34849     34852     34853     34851     34849     34852     34854
     34851     34861     34865     34863     34851     34861     34866     34867
     34851     34861     34866     34868     34851     34861     34866     34869
     34852     34842     34856     34857     34852     34842     34856     34858
     34852     34842     34856     34859     34852     34849     34851     34861
     34853     34852     34842     34856     34853     34852     34854     34855
     34854     34852     34842     34856     34857     34856     34859     34860
     34858     34856     34859     34860     34861     34865     34863     34864
     34861     34865     34863     34872     34861     34865     34863     34876
     34861     34866     34868     34881     34861     34866     34869     34870
     34861     34866     34869     34871     34861     34866     34869     34872
     34862     34861     34865     34863     34862     34861     34866     34867
     34862     34861     34866     34868     34862     34861     34866     34869
     34863     34865     34861     34866     34863     34872     34869     34866
     34863     34872     34869     34870     34863     34872     34869     34871
     34863     34872     34874     34875     34863     34876     34879     34880
     34864     34863     34872     34869     34864     34863     34872     34873
     34864     34863     34872     34874     34864     34863     34876     34877
     34864     34863     34876     34878     34864     34863     34876     34879
     34865     34861     34866     34867     34865     34861     34866     34868
     34865     34861     34866     34869     34865     34863     34872     34869
     34865     34863     34872     34873     34865     34863     34872     34874
     34865     34863     34876     34877     34865     34863     34876     34878
     34865     34863     34876     34879     34866     34868     34881     34882
     34866     34868     34881     34885     34866     34868     34881     34886
     34866     34869     34871     34924     34866     34869     34872     34873
     34866     34869     34872     34874     34867     34866     34868     34881
     34867     34866     34869     34870     34867     34866     34869     34871
     34867     34866     34869     34872     34868     34866     34869     34870
     34868     34866     34869     34871     34868     34866     34869     34872
     34868     34881     34885     34883     34868     34881     34886     34887
     34868     34881     34886     34888     34868     34881     34886     34889
     34869     34866     34868     34881     34869     34871     34924     34925
     34869     34871     34924     34928     34869     34871     34924     34929
     34869     34872     34863     34876     34869     34872     34874     34875
     34870     34869     34871     34924     34870     34869     34872     34873
     34870     34869     34872     34874     34871     34869     34872     34873
     34871     34869     34872     34874     34871     34924     34928     34926
     34871     34924     34929     34930     34871     34924     34929     34931
     34871     34924     34929     34933     34872     34863     34876     34877
     34872     34863     34876     34878     34872     34863     34876     34879
     34872     34869     34871     34924     34873     34872     34863     34876
     34873     34872     34874     34875     34874     34872     34863     34876
     34877     34876     34879     34880     34878     34876     34879     34880
     34881     34885     34883     34884     34881     34885     34883     34893
     34881     34885     34883     34897     34881     34886     34888     34902
     34881     34886     34889     34890     34881     34886     34889     34891
     34881     34886     34889     34893     34882     34881     34885     34883
     34882     34881     34886     34887     34882     34881     34886     34888
     34882     34881     34886     34889     34883     34885     34881     34886
     34883     34893     34889     34886     34883     34893     34889     34890
     34883     34893     34889     34891     34883     34893     34895     34896
     34883     34897     34900     34901     34884     34883     34893     34889
     34884     34883     34893     34894     34884     34883     34893     34895
     34884     34883     34897     34898     34884     34883     34897     34899
     34884     34883     34897     34900     34885     34881     34886     34887
     34885     34881     34886     34888     34885     34881     34886     34889
     34885     34883     34893     34889     34885     34883     34893     34894
     34885     34883     34893     34895     34885     34883     34897     34898
     34885     34883     34897     34899     34885     34883     34897     34900
     34886     34888     34902     34903     34886     34888     34902     34906
     34886     34888     34902     34907     34886     34889     34891     34892
     34886     34889     34893     34894     34886     34889     34893     34895
     34887     34886     34888     34902     34887     34886     34889     34890
     34887     34886     34889     34891     34887     34886     34889     34893
     34888     34886     34889     34890     34888     34886     34889     34891
     34888     34886     34889     34893     34888     34902     34906     34904
     34888     34902     34907     34908     34888     34902     34907     34909
     34888     34902     34907     34911     34889     34886     34888     34902
     34889     34893     34883     34897     34889     34893     34895     34896
     34890     34889     34891     34892     34890     34889     34893     34894
     34890     34889     34893     34895     34891     34889     34893     34894
     34891     34889     34893     34895     34892     34891     34889     34893
     34893     34883     34897     34898     34893     34883     34897     34899
     34893     34883     34897     34900     34894     34893     34883     34897
     34894     34893     34895     34896     34895     34893     34883     34897
     34898     34897     34900     34901     34899     34897     34900     34901
     34902     34906     34904     34905     34902     34906     34904     34915
     34902     34906     34904     34919     34902     34907     34909     34910
     34902     34907     34911     34912     34902     34907     34911     34913
     34902     34907     34911     34915     34903     34902     34906     34904
     34903     34902     34907     34908     34903     34902     34907     34909
     34903     34902     34907     34911     34904     34906     34902     34907
     34904     34915     34911     34907     34904     34915     34911     34912
     34904     34915     34911     34913     34904     34915     34917     34918
     34904     34919     34922     34923     34905     34904     34915     34911
     34905     34904     34915     34916     34905     34904     34915     34917
     34905     34904     34919     34920     34905     34904     34919     34921
     34905     34904     34919     34922     34906     34902     34907     34908
     34906     34902     34907     34909     34906     34902     34907     34911
     34906     34904     34915     34911     34906     34904     34915     34916
     34906     34904     34915     34917     34906     34904     34919     34920
     34906     34904     34919     34921     34906     34904     34919     34922
     34907     34911     34913     34914     34907     34911     34915     34916
     34907     34911     34915     34917     34908     34907     34909     34910
     34908     34907     34911     34912     34908     34907     34911     34913
     34908     34907     34911     34915     34909     34907     34911     34912
     34909     34907     34911     34913     34909     34907     34911     34915
     34910     34909     34907     34911     34911     34915     34904     34919
     34911     34915     34917     34918     34912     34911     34913     34914
     34912     34911     34915     34916     34912     34911     34915     34917
     34913     34911     34915     34916     34913     34911     34915     34917
     34914     34913     34911     34915     34915     34904     34919     34920
     34915     34904     34919     34921     34915     34904     34919     34922
     34916     34915     34904     34919     34916     34915     34917     34918
     34917     34915     34904     34919     34920     34919     34922     34923
     34921     34919     34922     34923     34924     34928     34926     34927
     34924     34928     34926     34936     34924     34928     34926     34940
     34924     34929     34931     34932     34924     34929     34933     34934
     34924     34929     34933     34935     34924     34929     34933     34936
     34925     34924     34928     34926     34925     34924     34929     34930
     34925     34924     34929     34931     34925     34924     34929     34933
     34926     34928     34924     34929     34926     34936     34933     34929
     34926     34936     34933     34934     34926     34936     34933     34935
     34926     34936     34938     34939     34926     34940     34943     34944
     34927     34926     34936     34933     34927     34926     34936     34937
     34927     34926     34936     34938     34927     34926     34940     34941
     34927     34926     34940     34942     34927     34926     34940     34943
     34928     34924     34929     34930     34928     34924     34929     34931
     34928     34924     34929     34933     34928     34926     34936     34933
     34928     34926     34936     34937     34928     34926     34936     34938
     34928     34926     34940     34941     34928     34926     34940     34942
     34928     34926     34940     34943     34929     34933     34935     34945
     34929     34933     34936     34937     34929     34933     34936     34938
     34930     34929     34931     34932     34930     34929     34933     34934
     34930     34929     34933     34935     34930     34929     34933     34936
     34931     34929     34933     34934     34931     34929     34933     34935
     34931     34929     34933     34936     34932     34931     34929     34933
     34933     34935     34945     34946     34933     34935     34945     34949
     34933     34935     34945     34950     34933     34936     34926     34940
     34933     34936     34938     34939     34934     34933     34935     34945
     34934     34933     34936     34937     34934     34933     34936     34938
     34935     34933     34936     34937     34935     34933     34936     34938
     34935     34945     34949     34947     34935     34945     34950     34951
     34935     34945     34950     34952     34935     34945     34950     34960
     34936     34926     34940     34941     34936     34926     34940     34942
     34936     34926     34940     34943     34936     34933     34935     34945
     34937     34936     34926     34940     34937     34936     34938     34939
     34938     34936     34926     34940     34941     34940     34943     34944
     34942     34940     34943     34944     34945     34949     34947     34948
     34945     34949     34947     34963     34945     34949     34947     34967
     34945     34950     34952     34953     34945     34950     34952     34954
     34945     34950     34960     34961     34945     34950     34960     34962
     34945     34950     34960     34963     34946     34945     34949     34947
     34946     34945     34950     34951     34946     34945     34950     34952
     34946     34945     34950     34960     34947     34949     34945     34950
     34947     34963     34960     34950     34947     34963     34960     34961
     34947     34963     34960     34962     34947     34963     34965     34966
     34947     34967     34970     34971     34948     34947     34963     34960
     34948     34947     34963     34964     34948     34947     34963     34965
     34948     34947     34967     34968     34948     34947     34967     34969
     34948     34947     34967     34970     34949     34945     34950     34951
     34949     34945     34950     34952     34949     34945     34950     34960
     34949     34947     34963     34960     34949     34947     34963     34964
     34949     34947     34963     34965     34949     34947     34967     34968
     34949     34947     34967     34969     34949     34947     34967     34970
     34950     34952     34954     34955     34950     34952     34954     34956
     34950     34960     34962     34972     34950     34960     34963     34964
     34950     34960     34963     34965     34951     34950     34952     34953
     34951     34950     34952     34954     34951     34950     34960     34961
     34951     34950     34960     34962     34951     34950     34960     34963
     34952     34950     34960     34961     34952     34950     34960     34962
     34952     34950     34960     34963     34952     34954     34956     34957
     34952     34954     34956     34958     34952     34954     34956     34959
     34953     34952     34950     34960     34953     34952     34954     34955
     34953     34952     34954     34956     34954     34952     34950     34960
     34955     34954     34956     34957     34955     34954     34956     34958
     34955     34954     34956     34959     34960     34962     34972     34973
     34960     34962     34972     34976     34960     34962     34972     34977
     34960     34963     34947     34967     34960     34963     34965     34966
     34961     34960     34962     34972     34961     34960     34963     34964
     34961     34960     34963     34965     34962     34960     34963     34964
     34962     34960     34963     34965     34962     34972     34976     34974
     34962     34972     34977     34978     34962     34972     34977     34979
     34962     34972     34977     34980     34963     34947     34967     34968
     34963     34947     34967     34969     34963     34947     34967     34970
     34963     34960     34962     34972     34964     34963     34947     34967
     34964     34963     34965     34966     34965     34963     34947     34967
     34968     34967     34970     34971     34969     34967     34970     34971
     34972     34976     34974     34975     34972     34976     34974     34984
     34972     34976     34974     34988     34972     34977     34979     34993
     34972     34977     34980     34981     34972     34977     34980     34982
     34972     34977     34980     34984     34973     34972     34976     34974
     34973     34972     34977     34978     34973     34972     34977     34979
     34973     34972     34977     34980     34974     34976     34972     34977
     34974     34984     34980     34977     34974     34984     34980     34981
     34974     34984     34980     34982     34974     34984     34986     34987
     34974     34988     34991     34992     34975     34974     34984     34980
     34975     34974     34984     34985     34975     34974     34984     34986
     34975     34974     34988     34989     34975     34974     34988     34990
     34975     34974     34988     34991     34976     34972     34977     34978
     34976     34972     34977     34979     34976     34972     34977     34980
     34976     34974     34984     34980     34976     34974     34984     34985
     34976     34974     34984     34986     34976     34974     34988     34989
     34976     34974     34988     34990     34976     34974     34988     34991
     34977     34979     34993     34994     34977     34979     34993     34997
     34977     34979     34993     34998     34977     34980     34982     34983
     34977     34980     34984     34985     34977     34980     34984     34986
     34978     34977     34979     34993     34978     34977     34980     34981
     34978     34977     34980     34982     34978     34977     34980     34984
     34979     34977     34980     34981     34979     34977     34980     34982
     34979     34977     34980     34984     34979     34993     34997     34995
     34979     34993     34998     34999     34979     34993     34998     35000
     34979     34993     34998     35001     34980     34977     34979     34993
     34980     34984     34974     34988     34980     34984     34986     34987
     34981     34980     34982     34983     34981     34980     34984     34985
     34981     34980     34984     34986     34982     34980     34984     34985
     34982     34980     34984     34986     34983     34982     34980     34984
     34984     34974     34988     34989     34984     34974     34988     34990
     34984     34974     34988     34991     34985     34984     34974     34988
     34985     34984     34986     34987     34986     34984     34974     34988
     34989     34988     34991     34992     34990     34988     34991     34992
     34993     34997     34995     34996     34993     34997     34995     35005
     34993     34997     34995     35009     34993     34998     35000     35013
     34993     34998     35001     35002     34993     34998     35001     35003
     34993     34998     35001     35005     34994     34993     34997     34995
     34994     34993     34998     34999     34994     34993     34998     35000
     34994     34993     34998     35001     34995     34997     34993     34998
     34995     35005     35001     34998     34995     35005     35001     35002
     34995     35005     35001     35003     34995     35005     35007     35008
     34996     34995     35005     35001     34996     34995     35005     35006
     34996     34995     35005     35007     34996     34995     35009     35010
     34996     34995     35009     35011     34996     34995     35009     35012
     34997     34993     34998     34999     34997     34993     34998     35000
     34997     34993     34998     35001     34997     34995     35005     35001
     34997     34995     35005     35006     34997     34995     35005     35007
     34997     34995     35009     35010     34997     34995     35009     35011
     34997     34995     35009     35012     34998     35000     35013     35014
     34998     35000     35013     35017     34998     35000     35013     35018
     34998     35001     35003     35004     34998     35001     35005     35006
     34998     35001     35005     35007     34999     34998     35000     35013
     34999     34998     35001     35002     34999     34998     35001     35003
     34999     34998     35001     35005     35000     34998     35001     35002
     35000     34998     35001     35003     35000     34998     35001     35005
     35000     35013     35017     35015     35000     35013     35018     35019
     35000     35013     35018     35020     35000     35013     35018     35021
     35001     34998     35000     35013     35001     35005     34995     35009
     35001     35005     35007     35008     35002     35001     35003     35004
     35002     35001     35005     35006     35002     35001     35005     35007
     35003     35001     35005     35006     35003     35001     35005     35007
     35004     35003     35001     35005     35005     34995     35009     35010
     35005     34995     35009     35011     35005     34995     35009     35012
     35006     35005     34995     35009     35006     35005     35007     35008
     35007     35005     34995     35009     35013     35017     35015     35016
     35013     35017     35015     35024     35013     35017     35015     35028
     35013     35018     35020     35032     35013     35018     35021     35022
     35013     35018     35021     35023     35013     35018     35021     35024
     35014     35013     35017     35015     35014     35013     35018     35019
     35014     35013     35018     35020     35014     35013     35018     35021
     35015     35017     35013     35018     35015     35024     35021     35018
     35015     35024     35021     35022     35015     35024     35021     35023
     35015     35024     35026     35027     35016     35015     35024     35021
     35016     35015     35024     35025     35016     35015     35024     35026
     35016     35015     35028     35029     35016     35015     35028     35030
     35016     35015     35028     35031     35017     35013     35018     35019
     35017     35013     35018     35020     35017     35013     35018     35021
     35017     35015     35024     35021     35017     35015     35024     35025
     35017     35015     35024     35026     35017     35015     35028     35029
     35017     35015     35028     35030     35017     35015     35028     35031
     35018     35020     35032     35033     35018     35020     35032     35036
     35018     35020     35032     35037     35018     35021     35023     35060
     35018     35021     35024     35025     35018     35021     35024     35026
     35019     35018     35020     35032     35019     35018     35021     35022
     35019     35018     35021     35023     35019     35018     35021     35024
     35020     35018     35021     35022     35020     35018     35021     35023
     35020     35018     35021     35024     35020     35032     35036     35034
     35020     35032     35037     35038     35020     35032     35037     35039
     35020     35032     35037     35047     35021     35018     35020     35032
     35021     35023     35060     35061     35021     35023     35060     35064
     35021     35023     35060     35065     35021     35024     35015     35028
     35021     35024     35026     35027     35022     35021     35023     35060
     35022     35021     35024     35025     35022     35021     35024     35026
     35023     35021     35024     35025     35023     35021     35024     35026
     35023     35060     35064     35062     35023     35060     35065     35066
     35023     35060     35065     35067     35023     35060     35065     35075
     35024     35015     35028     35029     35024     35015     35028     35030
     35024     35015     35028     35031     35024     35021     35023     35060
     35025     35024     35015     35028     35025     35024     35026     35027
     35026     35024     35015     35028     35032     35036     35034     35035
     35032     35036     35034     35051     35032     35036     35034     35055
     35032     35037     35039     35040     35032     35037     35039     35041
     35032     35037     35047     35048     35032     35037     35047     35049
     35032     35037     35047     35051     35033     35032     35036     35034
     35033     35032     35037     35038     35033     35032     35037     35039
     35033     35032     35037     35047     35034     35036     35032     35037
     35034     35051     35047     35037     35034     35051     35047     35048
     35034     35051     35047     35049     35034     35051     35053     35054
     35034     35055     35058     35059     35035     35034     35051     35047
     35035     35034     35051     35052     35035     35034     35051     35053
     35035     35034     35055     35056     35035     35034     35055     35057
     35035     35034     35055     35058     35036     35032     35037     35038
     35036     35032     35037     35039     35036     35032     35037     35047
     35036     35034     35051     35047     35036     35034     35051     35052
     35036     35034     35051     35053     35036     35034     35055     35056
     35036     35034     35055     35057     35036     35034     35055     35058
     35037     35039     35041     35042     35037     35039     35041     35043
     35037     35047     35049     35050     35037     35047     35051     35052
     35037     35047     35051     35053     35038     35037     35039     35040
     35038     35037     35039     35041     35038     35037     35047     35048
     35038     35037     35047     35049     35038     35037     35047     35051
     35039     35037     35047     35048     35039     35037     35047     35049
     35039     35037     35047     35051     35039     35041     35043     35044
     35039     35041     35043     35045     35039     35041     35043     35046
     35040     35039     35037     35047     35040     35039     35041     35042
     35040     35039     35041     35043     35041     35039     35037     35047
     35042     35041     35043     35044     35042     35041     35043     35045
     35042     35041     35043     35046     35047     35051     35034     35055
     35047     35051     35053     35054     35048     35047     35049     35050
     35048     35047     35051     35052     35048     35047     35051     35053
     35049     35047     35051     35052     35049     35047     35051     35053
     35050     35049     35047     35051     35051     35034     35055     35056
     35051     35034     35055     35057     35051     35034     35055     35058
     35052     35051     35034     35055     35052     35051     35053     35054
     35053     35051     35034     35055     35056     35055     35058     35059
     35057     35055     35058     35059     35060     35064     35062     35063
     35060     35064     35062     35078     35060     35064     35062     35082
     35060     35065     35067     35068     35060     35065     35067     35069
     35060     35065     35075     35076     35060     35065     35075     35077
     35060     35065     35075     35078     35061     35060     35064     35062
     35061     35060     35065     35066     35061     35060     35065     35067
     35061     35060     35065     35075     35062     35064     35060     35065
     35062     35078     35075     35065     35062     35078     35075     35076
     35062     35078     35075     35077     35062     35078     35080     35081
     35062     35082     35085     35086     35063     35062     35078     35075
     35063     35062     35078     35079     35063     35062     35078     35080
     35063     35062     35082     35083     35063     35062     35082     35084
     35063     35062     35082     35085     35064     35060     35065     35066
     35064     35060     35065     35067     35064     35060     35065     35075
     35064     35062     35078     35075     35064     35062     35078     35079
     35064     35062     35078     35080     35064     35062     35082     35083
     35064     35062     35082     35084     35064     35062     35082     35085
     35065     35067     35069     35070     35065     35067     35069     35071
     35065     35075     35077     35087     35065     35075     35078     35079
     35065     35075     35078     35080     35066     35065     35067     35068
     35066     35065     35067     35069     35066     35065     35075     35076
     35066     35065     35075     35077     35066     35065     35075     35078
     35067     35065     35075     35076     35067     35065     35075     35077
     35067     35065     35075     35078     35067     35069     35071     35072
     35067     35069     35071     35073     35067     35069     35071     35074
     35068     35067     35065     35075     35068     35067     35069     35070
     35068     35067     35069     35071     35069     35067     35065     35075
     35070     35069     35071     35072     35070     35069     35071     35073
     35070     35069     35071     35074     35075     35077     35087     35088
     35075     35077     35087     35091     35075     35077     35087     35092
     35075     35078     35062     35082     35075     35078     35080     35081
     35076     35075     35077     35087     35076     35075     35078     35079
     35076     35075     35078     35080     35077     35075     35078     35079
     35077     35075     35078     35080     35077     35087     35091     35089
     35077     35087     35092     35093     35077     35087     35092     35094
     35077     35087     35092     35095     35078     35062     35082     35083
     35078     35062     35082     35084     35078     35062     35082     35085
     35078     35075     35077     35087     35079     35078     35062     35082
     35079     35078     35080     35081     35080     35078     35062     35082
     35083     35082     35085     35086     35084     35082     35085     35086
     35087     35091     35089     35090     35087     35091     35089     35099
     35087     35091     35089     35103     35087     35092     35094     35108
     35087     35092     35095     35096     35087     35092     35095     35097
     35087     35092     35095     35099     35088     35087     35091     35089
     35088     35087     35092     35093     35088     35087     35092     35094
     35088     35087     35092     35095     35089     35091     35087     35092
     35089     35099     35095     35092     35089     35099     35095     35096
     35089     35099     35095     35097     35089     35099     35101     35102
     35089     35103     35106     35107     35090     35089     35099     35095
     35090     35089     35099     35100     35090     35089     35099     35101
     35090     35089     35103     35104     35090     35089     35103     35105
     35090     35089     35103     35106     35091     35087     35092     35093
     35091     35087     35092     35094     35091     35087     35092     35095
     35091     35089     35099     35095     35091     35089     35099     35100
     35091     35089     35099     35101     35091     35089     35103     35104
     35091     35089     35103     35105     35091     35089     35103     35106
     35092     35094     35108     35109     35092     35094     35108     35112
     35092     35094     35108     35113     35092     35095     35097     35098
     35092     35095     35099     35100     35092     35095     35099     35101
     35093     35092     35094     35108     35093     35092     35095     35096
     35093     35092     35095     35097     35093     35092     35095     35099
     35094     35092     35095     35096     35094     35092     35095     35097
     35094     35092     35095     35099     35094     35108     35112     35110
     35094     35108     35113     35114     35094     35108     35113     35115
     35094     35108     35113     35116     35095     35092     35094     35108
     35095     35099     35089     35103     35095     35099     35101     35102
     35096     35095     35097     35098     35096     35095     35099     35100
     35096     35095     35099     35101     35097     35095     35099     35100
     35097     35095     35099     35101     35098     35097     35095     35099
     35099     35089     35103     35104     35099     35089     35103     35105
     35099     35089     35103     35106     35100     35099     35089     35103
     35100     35099     35101     35102     35101     35099     35089     35103
     35104     35103     35106     35107     35105     35103     35106     35107
     35108     35112     35110     35111     35108     35112     35110     35120
     35108     35112     35110     35124     35108     35113     35115     35128
     35108     35113     35116     35117     35108     35113     35116     35118
     35108     35113     35116     35120     35109     35108     35112     35110
     35109     35108     35113     35114     35109     35108     35113     35115
     35109     35108     35113     35116     35110     35112     35108     35113
     35110     35120     35116     35113     35110     35120     35116     35117
     35110     35120     35116     35118     35110     35120     35122     35123
     35111     35110     35120     35116     35111     35110     35120     35121
     35111     35110     35120     35122     35111     35110     35124     35125
     35111     35110     35124     35126     35111     35110     35124     35127
     35112     35108     35113     35114     35112     35108     35113     35115
     35112     35108     35113     35116     35112     35110     35120     35116
     35112     35110     35120     35121     35112     35110     35120     35122
     35112     35110     35124     35125     35112     35110     35124     35126
     35112     35110     35124     35127     35113     35115     35128     35129
     35113     35115     35128     35132     35113     35115     35128     35133
     35113     35116     35118     35119     35113     35116     35120     35121
     35113     35116     35120     35122     35114     35113     35115     35128
     35114     35113     35116     35117     35114     35113     35116     35118
     35114     35113     35116     35120     35115     35113     35116     35117
     35115     35113     35116     35118     35115     35113     35116     35120
     35115     35128     35132     35130     35115     35128     35133     35134
     35115     35128     35133     35135     35115     35128     35133     35136
     35116     35113     35115     35128     35116     35120     35110     35124
     35116     35120     35122     35123     35117     35116     35118     35119
     35117     35116     35120     35121     35117     35116     35120     35122
     35118     35116     35120     35121     35118     35116     35120     35122
     35119     35118     35116     35120     35120     35110     35124     35125
     35120     35110     35124     35126     35120     35110     35124     35127
     35121     35120     35110     35124     35121     35120     35122     35123
     35122     35120     35110     35124     35128     35132     35130     35131
     35128     35132     35130     35139     35128     35132     35130     35143
     35128     35133     35135     35147     35128     35133     35136     35137
     35128     35133     35136     35138     35128     35133     35136     35139
     35129     35128     35132     35130     35129     35128     35133     35134
     35129     35128     35133     35135     35129     35128     35133     35136
     35130     35132     35128     35133     35130     35139     35136     35133
     35130     35139     35136     35137     35130     35139     35136     35138
     35130     35139     35141     35142     35131     35130     35139     35136
     35131     35130     35139     35140     35131     35130     35139     35141
     35131     35130     35143     35144     35131     35130     35143     35145
     35131     35130     35143     35146     35132     35128     35133     35134
     35132     35128     35133     35135     35132     35128     35133     35136
     35132     35130     35139     35136     35132     35130     35139     35140
     35132     35130     35139     35141     35132     35130     35143     35144
     35132     35130     35143     35145     35132     35130     35143     35146
     35133     35135     35147     35148     35133     35135     35147     35151
     35133     35135     35147     35152     35133     35136     35138     35175
     35133     35136     35139     35140     35133     35136     35139     35141
     35134     35133     35135     35147     35134     35133     35136     35137
     35134     35133     35136     35138     35134     35133     35136     35139
     35135     35133     35136     35137     35135     35133     35136     35138
     35135     35133     35136     35139     35135     35147     35151     35149
     35135     35147     35152     35153     35135     35147     35152     35154
     35135     35147     35152     35162     35136     35133     35135     35147
     35136     35138     35175     35176     35136     35138     35175     35179
     35136     35138     35175     35180     35136     35139     35130     35143
     35136     35139     35141     35142     35137     35136     35138     35175
     35137     35136     35139     35140     35137     35136     35139     35141
     35138     35136     35139     35140     35138     35136     35139     35141
     35138     35175     35179     35177     35138     35175     35180     35181
     35138     35175     35180     35182     35138     35175     35180     35190
     35139     35130     35143     35144     35139     35130     35143     35145
     35139     35130     35143     35146     35139     35136     35138     35175
     35140     35139     35130     35143     35140     35139     35141     35142
     35141     35139     35130     35143     35147     35151     35149     35150
     35147     35151     35149     35166     35147     35151     35149     35170
     35147     35152     35154     35155     35147     35152     35154     35156
     35147     35152     35162     35163     35147     35152     35162     35164
     35147     35152     35162     35166     35148     35147     35151     35149
     35148     35147     35152     35153     35148     35147     35152     35154
     35148     35147     35152     35162     35149     35151     35147     35152
     35149     35166     35162     35152     35149     35166     35162     35163
     35149     35166     35162     35164     35149     35166     35168     35169
     35149     35170     35173     35174     35150     35149     35166     35162
     35150     35149     35166     35167     35150     35149     35166     35168
     35150     35149     35170     35171     35150     35149     35170     35172
     35150     35149     35170     35173     35151     35147     35152     35153
     35151     35147     35152     35154     35151     35147     35152     35162
     35151     35149     35166     35162     35151     35149     35166     35167
     35151     35149     35166     35168     35151     35149     35170     35171
     35151     35149     35170     35172     35151     35149     35170     35173
     35152     35154     35156     35157     35152     35154     35156     35158
     35152     35162     35164     35165     35152     35162     35166     35167
     35152     35162     35166     35168     35153     35152     35154     35155
     35153     35152     35154     35156     35153     35152     35162     35163
     35153     35152     35162     35164     35153     35152     35162     35166
     35154     35152     35162     35163     35154     35152     35162     35164
     35154     35152     35162     35166     35154     35156     35158     35159
     35154     35156     35158     35160     35154     35156     35158     35161
     35155     35154     35152     35162     35155     35154     35156     35157
     35155     35154     35156     35158     35156     35154     35152     35162
     35157     35156     35158     35159     35157     35156     35158     35160
     35157     35156     35158     35161     35162     35166     35149     35170
     35162     35166     35168     35169     35163     35162     35164     35165
     35163     35162     35166     35167     35163     35162     35166     35168
     35164     35162     35166     35167     35164     35162     35166     35168
     35165     35164     35162     35166     35166     35149     35170     35171
     35166     35149     35170     35172     35166     35149     35170     35173
     35167     35166     35149     35170     35167     35166     35168     35169
     35168     35166     35149     35170     35171     35170     35173     35174
     35172     35170     35173     35174     35175     35179     35177     35178
     35175     35179     35177     35193     35175     35179     35177     35197
     35175     35180     35182     35183     35175     35180     35182     35184
     35175     35180     35190     35191     35175     35180     35190     35192
     35175     35180     35190     35193     35176     35175     35179     35177
     35176     35175     35180     35181     35176     35175     35180     35182
     35176     35175     35180     35190     35177     35179     35175     35180
     35177     35193     35190     35180     35177     35193     35190     35191
     35177     35193     35190     35192     35177     35193     35195     35196
     35177     35197     35200     35201     35178     35177     35193     35190
     35178     35177     35193     35194     35178     35177     35193     35195
     35178     35177     35197     35198     35178     35177     35197     35199
     35178     35177     35197     35200     35179     35175     35180     35181
     35179     35175     35180     35182     35179     35175     35180     35190
     35179     35177     35193     35190     35179     35177     35193     35194
     35179     35177     35193     35195     35179     35177     35197     35198
     35179     35177     35197     35199     35179     35177     35197     35200
     35180     35182     35184     35185     35180     35182     35184     35186
     35180     35190     35192     35202     35180     35190     35193     35194
     35180     35190     35193     35195     35181     35180     35182     35183
     35181     35180     35182     35184     35181     35180     35190     35191
     35181     35180     35190     35192     35181     35180     35190     35193
     35182     35180     35190     35191     35182     35180     35190     35192
     35182     35180     35190     35193     35182     35184     35186     35187
     35182     35184     35186     35188     35182     35184     35186     35189
     35183     35182     35180     35190     35183     35182     35184     35185
     35183     35182     35184     35186     35184     35182     35180     35190
     35185     35184     35186     35187     35185     35184     35186     35188
     35185     35184     35186     35189     35190     35192     35202     35203
     35190     35192     35202     35206     35190     35192     35202     35207
     35190     35193     35177     35197     35190     35193     35195     35196
     35191     35190     35192     35202     35191     35190     35193     35194
     35191     35190     35193     35195     35192     35190     35193     35194
     35192     35190     35193     35195     35192     35202     35206     35204
     35192     35202     35207     35208     35192     35202     35207     35209
     35192     35202     35207     35210     35193     35177     35197     35198
     35193     35177     35197     35199     35193     35177     35197     35200
     35193     35190     35192     35202     35194     35193     35177     35197
     35194     35193     35195     35196     35195     35193     35177     35197
     35198     35197     35200     35201     35199     35197     35200     35201
     35202     35206     35204     35205     35202     35206     35204     35214
     35202     35206     35204     35218     35202     35207     35209     35223
     35202     35207     35210     35211     35202     35207     35210     35212
     35202     35207     35210     35214     35203     35202     35206     35204
     35203     35202     35207     35208     35203     35202     35207     35209
     35203     35202     35207     35210     35204     35206     35202     35207
     35204     35214     35210     35207     35204     35214     35210     35211
     35204     35214     35210     35212     35204     35214     35216     35217
     35204     35218     35221     35222     35205     35204     35214     35210
     35205     35204     35214     35215     35205     35204     35214     35216
     35205     35204     35218     35219     35205     35204     35218     35220
     35205     35204     35218     35221     35206     35202     35207     35208
     35206     35202     35207     35209     35206     35202     35207     35210
     35206     35204     35214     35210     35206     35204     35214     35215
     35206     35204     35214     35216     35206     35204     35218     35219
     35206     35204     35218     35220     35206     35204     35218     35221
     35207     35209     35223     35224     35207     35209     35223     35227
     35207     35209     35223     35228     35207     35210     35212     35213
     35207     35210     35214     35215     35207     35210     35214     35216
     35208     35207     35209     35223     35208     35207     35210     35211
     35208     35207     35210     35212     35208     35207     35210     35214
     35209     35207     35210     35211     35209     35207     35210     35212
     35209     35207     35210     35214     35209     35223     35227     35225
     35209     35223     35228     35229     35209     35223     35228     35230
     35209     35223     35228     35231     35210     35207     35209     35223
     35210     35214     35204     35218     35210     35214     35216     35217
     35211     35210     35212     35213     35211     35210     35214     35215
     35211     35210     35214     35216     35212     35210     35214     35215
     35212     35210     35214     35216     35213     35212     35210     35214
     35214     35204     35218     35219     35214     35204     35218     35220
     35214     35204     35218     35221     35215     35214     35204     35218
     35215     35214     35216     35217     35216     35214     35204     35218
     35219     35218     35221     35222     35220     35218     35221     35222
     35223     35227     35225     35226     35223     35227     35225     35235
     35223     35227     35225     35239     35223     35228     35230     35243
     35223     35228     35231     35232     35223     35228     35231     35233
     35223     35228     35231     35235     35224     35223     35227     35225
     35224     35223     35228     35229     35224     35223     35228     35230
     35224     35223     35228     35231     35225     35227     35223     35228
     35225     35235     35231     35228     35225     35235     35231     35232
     35225     35235     35231     35233     35225     35235     35237     35238
     35226     35225     35235     35231     35226     35225     35235     35236
     35226     35225     35235     35237     35226     35225     35239     35240
     35226     35225     35239     35241     35226     35225     35239     35242
     35227     35223     35228     35229     35227     35223     35228     35230
     35227     35223     35228     35231     35227     35225     35235     35231
     35227     35225     35235     35236     35227     35225     35235     35237
     35227     35225     35239     35240     35227     35225     35239     35241
     35227     35225     35239     35242     35228     35230     35243     35244
     35228     35230     35243     35247     35228     35230     35243     35248
     35228     35231     35233     35234     35228     35231     35235     35236
     35228     35231     35235     35237     35229     35228     35230     35243
     35229     35228     35231     35232     35229     35228     35231     35233
     35229     35228     35231     35235     35230     35228     35231     35232
     35230     35228     35231     35233     35230     35228     35231     35235
     35230     35243     35247     35245     35230     35243     35248     35249
     35230     35243     35248     35250     35230     35243     35248     35251
     35231     35228     35230     35243     35231     35235     35225     35239
     35231     35235     35237     35238     35232     35231     35233     35234
     35232     35231     35235     35236     35232     35231     35235     35237
     35233     35231     35235     35236     35233     35231     35235     35237
     35234     35233     35231     35235     35235     35225     35239     35240
     35235     35225     35239     35241     35235     35225     35239     35242
     35236     35235     35225     35239     35236     35235     35237     35238
     35237     35235     35225     35239     35243     35247     35245     35246
     35243     35247     35245     35254     35243     35247     35245     35258
     35243     35248     35250     35262     35243     35248     35251     35252
     35243     35248     35251     35253     35243     35248     35251     35254
     35244     35243     35247     35245     35244     35243     35248     35249
     35244     35243     35248     35250     35244     35243     35248     35251
     35245     35247     35243     35248     35245     35254     35251     35248
     35245     35254     35251     35252     35245     35254     35251     35253
     35245     35254     35256     35257     35246     35245     35254     35251
     35246     35245     35254     35255     35246     35245     35254     35256
     35246     35245     35258     35259     35246     35245     35258     35260
     35246     35245     35258     35261     35247     35243     35248     35249
     35247     35243     35248     35250     35247     35243     35248     35251
     35247     35245     35254     35251     35247     35245     35254     35255
     35247     35245     35254     35256     35247     35245     35258     35259
     35247     35245     35258     35260     35247     35245     35258     35261
     35248     35250     35262     35263     35248     35250     35262     35266
     35248     35250     35262     35267     35248     35251     35253     35290
     35248     35251     35254     35255     35248     35251     35254     35256
     35249     35248     35250     35262     35249     35248     35251     35252
     35249     35248     35251     35253     35249     35248     35251     35254
     35250     35248     35251     35252     35250     35248     35251     35253
     35250     35248     35251     35254     35250     35262     35266     35264
     35250     35262     35267     35268     35250     35262     35267     35269
     35250     35262     35267     35277     35251     35248     35250     35262
     35251     35253     35290     35291     35251     35253     35290     35294
     35251     35253     35290     35295     35251     35254     35245     35258
     35251     35254     35256     35257     35252     35251     35253     35290
     35252     35251     35254     35255     35252     35251     35254     35256
     35253     35251     35254     35255     35253     35251     35254     35256
     35253     35290     35294     35292     35253     35290     35295     35296
     35253     35290     35295     35297     35253     35290     35295     35305
     35254     35245     35258     35259     35254     35245     35258     35260
     35254     35245     35258     35261     35254     35251     35253     35290
     35255     35254     35245     35258     35255     35254     35256     35257
     35256     35254     35245     35258     35262     35266     35264     35265
     35262     35266     35264     35281     35262     35266     35264     35285
     35262     35267     35269     35270     35262     35267     35269     35271
     35262     35267     35277     35278     35262     35267     35277     35279
     35262     35267     35277     35281     35263     35262     35266     35264
     35263     35262     35267     35268     35263     35262     35267     35269
     35263     35262     35267     35277     35264     35266     35262     35267
     35264     35281     35277     35267     35264     35281     35277     35278
     35264     35281     35277     35279     35264     35281     35283     35284
     35264     35285     35288     35289     35265     35264     35281     35277
     35265     35264     35281     35282     35265     35264     35281     35283
     35265     35264     35285     35286     35265     35264     35285     35287
     35265     35264     35285     35288     35266     35262     35267     35268
     35266     35262     35267     35269     35266     35262     35267     35277
     35266     35264     35281     35277     35266     35264     35281     35282
     35266     35264     35281     35283     35266     35264     35285     35286
     35266     35264     35285     35287     35266     35264     35285     35288
     35267     35269     35271     35272     35267     35269     35271     35273
     35267     35277     35279     35280     35267     35277     35281     35282
     35267     35277     35281     35283     35268     35267     35269     35270
     35268     35267     35269     35271     35268     35267     35277     35278
     35268     35267     35277     35279     35268     35267     35277     35281
     35269     35267     35277     35278     35269     35267     35277     35279
     35269     35267     35277     35281     35269     35271     35273     35274
     35269     35271     35273     35275     35269     35271     35273     35276
     35270     35269     35267     35277     35270     35269     35271     35272
     35270     35269     35271     35273     35271     35269     35267     35277
     35272     35271     35273     35274     35272     35271     35273     35275
     35272     35271     35273     35276     35277     35281     35264     35285
     35277     35281     35283     35284     35278     35277     35279     35280
     35278     35277     35281     35282     35278     35277     35281     35283
     35279     35277     35281     35282     35279     35277     35281     35283
     35280     35279     35277     35281     35281     35264     35285     35286
     35281     35264     35285     35287     35281     35264     35285     35288
     35282     35281     35264     35285     35282     35281     35283     35284
     35283     35281     35264     35285     35286     35285     35288     35289
     35287     35285     35288     35289     35290     35294     35292     35293
     35290     35294     35292     35308     35290     35294     35292     35312
     35290     35295     35297     35298     35290     35295     35297     35299
     35290     35295     35305     35306     35290     35295     35305     35307
     35290     35295     35305     35308     35291     35290     35294     35292
     35291     35290     35295     35296     35291     35290     35295     35297
     35291     35290     35295     35305     35292     35294     35290     35295
     35292     35308     35305     35295     35292     35308     35305     35306
     35292     35308     35305     35307     35292     35308     35310     35311
     35292     35312     35315     35316     35293     35292     35308     35305
     35293     35292     35308     35309     35293     35292     35308     35310
     35293     35292     35312     35313     35293     35292     35312     35314
     35293     35292     35312     35315     35294     35290     35295     35296
     35294     35290     35295     35297     35294     35290     35295     35305
     35294     35292     35308     35305     35294     35292     35308     35309
     35294     35292     35308     35310     35294     35292     35312     35313
     35294     35292     35312     35314     35294     35292     35312     35315
     35295     35297     35299     35300     35295     35297     35299     35301
     35295     35305     35307     35317     35295     35305     35308     35309
     35295     35305     35308     35310     35296     35295     35297     35298
     35296     35295     35297     35299     35296     35295     35305     35306
     35296     35295     35305     35307     35296     35295     35305     35308
     35297     35295     35305     35306     35297     35295     35305     35307
     35297     35295     35305     35308     35297     35299     35301     35302
     35297     35299     35301     35303     35297     35299     35301     35304
     35298     35297     35295     35305     35298     35297     35299     35300
     35298     35297     35299     35301     35299     35297     35295     35305
     35300     35299     35301     35302     35300     35299     35301     35303
     35300     35299     35301     35304     35305     35307     35317     35318
     35305     35307     35317     35321     35305     35307     35317     35322
     35305     35308     35292     35312     35305     35308     35310     35311
     35306     35305     35307     35317     35306     35305     35308     35309
     35306     35305     35308     35310     35307     35305     35308     35309
     35307     35305     35308     35310     35307     35317     35321     35319
     35307     35317     35322     35323     35307     35317     35322     35324
     35307     35317     35322     35325     35308     35292     35312     35313
     35308     35292     35312     35314     35308     35292     35312     35315
     35308     35305     35307     35317     35309     35308     35292     35312
     35309     35308     35310     35311     35310     35308     35292     35312
     35313     35312     35315     35316     35314     35312     35315     35316
     35317     35321     35319     35320     35317     35321     35319     35329
     35317     35321     35319     35333     35317     35322     35324     35338
     35317     35322     35325     35326     35317     35322     35325     35327
     35317     35322     35325     35329     35318     35317     35321     35319
     35318     35317     35322     35323     35318     35317     35322     35324
     35318     35317     35322     35325     35319     35321     35317     35322
     35319     35329     35325     35322     35319     35329     35325     35326
     35319     35329     35325     35327     35319     35329     35331     35332
     35319     35333     35336     35337     35320     35319     35329     35325
     35320     35319     35329     35330     35320     35319     35329     35331
     35320     35319     35333     35334     35320     35319     35333     35335
     35320     35319     35333     35336     35321     35317     35322     35323
     35321     35317     35322     35324     35321     35317     35322     35325
     35321     35319     35329     35325     35321     35319     35329     35330
     35321     35319     35329     35331     35321     35319     35333     35334
     35321     35319     35333     35335     35321     35319     35333     35336
     35322     35324     35338     35339     35322     35324     35338     35342
     35322     35324     35338     35343     35322     35325     35327     35328
     35322     35325     35329     35330     35322     35325     35329     35331
     35323     35322     35324     35338     35323     35322     35325     35326
     35323     35322     35325     35327     35323     35322     35325     35329
     35324     35322     35325     35326     35324     35322     35325     35327
     35324     35322     35325     35329     35324     35338     35342     35340
     35324     35338     35343     35344     35324     35338     35343     35345
     35324     35338     35343     35346     35325     35322     35324     35338
     35325     35329     35319     35333     35325     35329     35331     35332
     35326     35325     35327     35328     35326     35325     35329     35330
     35326     35325     35329     35331     35327     35325     35329     35330
     35327     35325     35329     35331     35328     35327     35325     35329
     35329     35319     35333     35334     35329     35319     35333     35335
     35329     35319     35333     35336     35330     35329     35319     35333
     35330     35329     35331     35332     35331     35329     35319     35333
     35334     35333     35336     35337     35335     35333     35336     35337
     35338     35342     35340     35341     35338     35342     35340     35350
     35338     35342     35340     35354     35338     35343     35345     35358
     35338     35343     35346     35347     35338     35343     35346     35348
     35338     35343     35346     35350     35339     35338     35342     35340
     35339     35338     35343     35344     35339     35338     35343     35345
     35339     35338     35343     35346     35340     35342     35338     35343
     35340     35350     35346     35343     35340     35350     35346     35347
     35340     35350     35346     35348     35340     35350     35352     35353
     35341     35340     35350     35346     35341     35340     35350     35351
     35341     35340     35350     35352     35341     35340     35354     35355
     35341     35340     35354     35356     35341     35340     35354     35357
     35342     35338     35343     35344     35342     35338     35343     35345
     35342     35338     35343     35346     35342     35340     35350     35346
     35342     35340     35350     35351     35342     35340     35350     35352
     35342     35340     35354     35355     35342     35340     35354     35356
     35342     35340     35354     35357     35343     35345     35358     35359
     35343     35345     35358     35362     35343     35345     35358     35363
     35343     35346     35348     35349     35343     35346     35350     35351
     35343     35346     35350     35352     35344     35343     35345     35358
     35344     35343     35346     35347     35344     35343     35346     35348
     35344     35343     35346     35350     35345     35343     35346     35347
     35345     35343     35346     35348     35345     35343     35346     35350
     35345     35358     35362     35360     35345     35358     35363     35364
     35345     35358     35363     35365     35345     35358     35363     35366
     35346     35343     35345     35358     35346     35350     35340     35354
     35346     35350     35352     35353     35347     35346     35348     35349
     35347     35346     35350     35351     35347     35346     35350     35352
     35348     35346     35350     35351     35348     35346     35350     35352
     35349     35348     35346     35350     35350     35340     35354     35355
     35350     35340     35354     35356     35350     35340     35354     35357
     35351     35350     35340     35354     35351     35350     35352     35353
     35352     35350     35340     35354     35358     35362     35360     35361
     35358     35362     35360     35369     35358     35362     35360     35373
     35358     35363     35365     35377     35358     35363     35366     35367
     35358     35363     35366     35368     35358     35363     35366     35369
     35359     35358     35362     35360     35359     35358     35363     35364
     35359     35358     35363     35365     35359     35358     35363     35366
     35360     35362     35358     35363     35360     35369     35366     35363
     35360     35369     35366     35367     35360     35369     35366     35368
     35360     35369     35371     35372     35361     35360     35369     35366
     35361     35360     35369     35370     35361     35360     35369     35371
     35361     35360     35373     35374     35361     35360     35373     35375
     35361     35360     35373     35376     35362     35358     35363     35364
     35362     35358     35363     35365     35362     35358     35363     35366
     35362     35360     35369     35366     35362     35360     35369     35370
     35362     35360     35369     35371     35362     35360     35373     35374
     35362     35360     35373     35375     35362     35360     35373     35376
     35363     35365     35377     35378     35363     35365     35377     35381
     35363     35365     35377     35382     35363     35366     35368     35405
     35363     35366     35369     35370     35363     35366     35369     35371
     35364     35363     35365     35377     35364     35363     35366     35367
     35364     35363     35366     35368     35364     35363     35366     35369
     35365     35363     35366     35367     35365     35363     35366     35368
     35365     35363     35366     35369     35365     35377     35381     35379
     35365     35377     35382     35383     35365     35377     35382     35384
     35365     35377     35382     35392     35366     35363     35365     35377
     35366     35368     35405     35406     35366     35368     35405     35409
     35366     35368     35405     35410     35366     35369     35360     35373
     35366     35369     35371     35372     35367     35366     35368     35405
     35367     35366     35369     35370     35367     35366     35369     35371
     35368     35366     35369     35370     35368     35366     35369     35371
     35368     35405     35409     35407     35368     35405     35410     35411
     35368     35405     35410     35412     35368     35405     35410     35420
     35369     35360     35373     35374     35369     35360     35373     35375
     35369     35360     35373     35376     35369     35366     35368     35405
     35370     35369     35360     35373     35370     35369     35371     35372
     35371     35369     35360     35373     35377     35381     35379     35380
     35377     35381     35379     35396     35377     35381     35379     35400
     35377     35382     35384     35385     35377     35382     35384     35386
     35377     35382     35392     35393     35377     35382     35392     35394
     35377     35382     35392     35396     35378     35377     35381     35379
     35378     35377     35382     35383     35378     35377     35382     35384
     35378     35377     35382     35392     35379     35381     35377     35382
     35379     35396     35392     35382     35379     35396     35392     35393
     35379     35396     35392     35394     35379     35396     35398     35399
     35379     35400     35403     35404     35380     35379     35396     35392
     35380     35379     35396     35397     35380     35379     35396     35398
     35380     35379     35400     35401     35380     35379     35400     35402
     35380     35379     35400     35403     35381     35377     35382     35383
     35381     35377     35382     35384     35381     35377     35382     35392
     35381     35379     35396     35392     35381     35379     35396     35397
     35381     35379     35396     35398     35381     35379     35400     35401
     35381     35379     35400     35402     35381     35379     35400     35403
     35382     35384     35386     35387     35382     35384     35386     35388
     35382     35392     35394     35395     35382     35392     35396     35397
     35382     35392     35396     35398     35383     35382     35384     35385
     35383     35382     35384     35386     35383     35382     35392     35393
     35383     35382     35392     35394     35383     35382     35392     35396
     35384     35382     35392     35393     35384     35382     35392     35394
     35384     35382     35392     35396     35384     35386     35388     35389
     35384     35386     35388     35390     35384     35386     35388     35391
     35385     35384     35382     35392     35385     35384     35386     35387
     35385     35384     35386     35388     35386     35384     35382     35392
     35387     35386     35388     35389     35387     35386     35388     35390
     35387     35386     35388     35391     35392     35396     35379     35400
     35392     35396     35398     35399     35393     35392     35394     35395
     35393     35392     35396     35397     35393     35392     35396     35398
     35394     35392     35396     35397     35394     35392     35396     35398
     35395     35394     35392     35396     35396     35379     35400     35401
     35396     35379     35400     35402     35396     35379     35400     35403
     35397     35396     35379     35400     35397     35396     35398     35399
     35398     35396     35379     35400     35401     35400     35403     35404
     35402     35400     35403     35404     35405     35409     35407     35408
     35405     35409     35407     35423     35405     35409     35407     35427
     35405     35410     35412     35413     35405     35410     35412     35414
     35405     35410     35420     35421     35405     35410     35420     35422
     35405     35410     35420     35423     35406     35405     35409     35407
     35406     35405     35410     35411     35406     35405     35410     35412
     35406     35405     35410     35420     35407     35409     35405     35410
     35407     35423     35420     35410     35407     35423     35420     35421
     35407     35423     35420     35422     35407     35423     35425     35426
     35407     35427     35430     35431     35408     35407     35423     35420
     35408     35407     35423     35424     35408     35407     35423     35425
     35408     35407     35427     35428     35408     35407     35427     35429
     35408     35407     35427     35430     35409     35405     35410     35411
     35409     35405     35410     35412     35409     35405     35410     35420
     35409     35407     35423     35420     35409     35407     35423     35424
     35409     35407     35423     35425     35409     35407     35427     35428
     35409     35407     35427     35429     35409     35407     35427     35430
     35410     35412     35414     35415     35410     35412     35414     35416
     35410     35420     35422     35432     35410     35420     35423     35424
     35410     35420     35423     35425     35411     35410     35412     35413
     35411     35410     35412     35414     35411     35410     35420     35421
     35411     35410     35420     35422     35411     35410     35420     35423
     35412     35410     35420     35421     35412     35410     35420     35422
     35412     35410     35420     35423     35412     35414     35416     35417
     35412     35414     35416     35418     35412     35414     35416     35419
     35413     35412     35410     35420     35413     35412     35414     35415
     35413     35412     35414     35416     35414     35412     35410     35420
     35415     35414     35416     35417     35415     35414     35416     35418
     35415     35414     35416     35419     35420     35422     35432     35433
     35420     35422     35432     35436     35420     35422     35432     35437
     35420     35423     35407     35427     35420     35423     35425     35426
     35421     35420     35422     35432     35421     35420     35423     35424
     35421     35420     35423     35425     35422     35420     35423     35424
     35422     35420     35423     35425     35422     35432     35436     35434
     35422     35432     35437     35438     35422     35432     35437     35439
     35422     35432     35437     35440     35423     35407     35427     35428
     35423     35407     35427     35429     35423     35407     35427     35430
     35423     35420     35422     35432     35424     35423     35407     35427
     35424     35423     35425     35426     35425     35423     35407     35427
     35428     35427     35430     35431     35429     35427     35430     35431
     35432     35436     35434     35435     35432     35436     35434     35444
     35432     35436     35434     35448     35432     35437     35439     35453
     35432     35437     35440     35441     35432     35437     35440     35442
     35432     35437     35440     35444     35433     35432     35436     35434
     35433     35432     35437     35438     35433     35432     35437     35439
     35433     35432     35437     35440     35434     35436     35432     35437
     35434     35444     35440     35437     35434     35444     35440     35441
     35434     35444     35440     35442     35434     35444     35446     35447
     35434     35448     35451     35452     35435     35434     35444     35440
     35435     35434     35444     35445     35435     35434     35444     35446
     35435     35434     35448     35449     35435     35434     35448     35450
     35435     35434     35448     35451     35436     35432     35437     35438
     35436     35432     35437     35439     35436     35432     35437     35440
     35436     35434     35444     35440     35436     35434     35444     35445
     35436     35434     35444     35446     35436     35434     35448     35449
     35436     35434     35448     35450     35436     35434     35448     35451
     35437     35439     35453     35454     35437     35439     35453     35457
     35437     35439     35453     35458     35437     35440     35442     35443
     35437     35440     35444     35445     35437     35440     35444     35446
     35438     35437     35439     35453     35438     35437     35440     35441
     35438     35437     35440     35442     35438     35437     35440     35444
     35439     35437     35440     35441     35439     35437     35440     35442
     35439     35437     35440     35444     35439     35453     35457     35455
     35439     35453     35458     35459     35439     35453     35458     35460
     35439     35453     35458     35461     35440     35437     35439     35453
     35440     35444     35434     35448     35440     35444     35446     35447
     35441     35440     35442     35443     35441     35440     35444     35445
     35441     35440     35444     35446     35442     35440     35444     35445
     35442     35440     35444     35446     35443     35442     35440     35444
     35444     35434     35448     35449     35444     35434     35448     35450
     35444     35434     35448     35451     35445     35444     35434     35448
     35445     35444     35446     35447     35446     35444     35434     35448
     35449     35448     35451     35452     35450     35448     35451     35452
     35453     35457     35455     35456     35453     35457     35455     35465
     35453     35457     35455     35469     35453     35458     35460     35473
     35453     35458     35461     35462     35453     35458     35461     35463
     35453     35458     35461     35465     35454     35453     35457     35455
     35454     35453     35458     35459     35454     35453     35458     35460
     35454     35453     35458     35461     35455     35457     35453     35458
     35455     35465     35461     35458     35455     35465     35461     35462
     35455     35465     35461     35463     35455     35465     35467     35468
     35456     35455     35465     35461     35456     35455     35465     35466
     35456     35455     35465     35467     35456     35455     35469     35470
     35456     35455     35469     35471     35456     35455     35469     35472
     35457     35453     35458     35459     35457     35453     35458     35460
     35457     35453     35458     35461     35457     35455     35465     35461
     35457     35455     35465     35466     35457     35455     35465     35467
     35457     35455     35469     35470     35457     35455     35469     35471
     35457     35455     35469     35472     35458     35460     35473     35474
     35458     35460     35473     35477     35458     35460     35473     35478
     35458     35461     35463     35464     35458     35461     35465     35466
     35458     35461     35465     35467     35459     35458     35460     35473
     35459     35458     35461     35462     35459     35458     35461     35463
     35459     35458     35461     35465     35460     35458     35461     35462
     35460     35458     35461     35463     35460     35458     35461     35465
     35460     35473     35477     35475     35460     35473     35478     35479
     35460     35473     35478     35480     35460     35473     35478     35481
     35461     35458     35460     35473     35461     35465     35455     35469
     35461     35465     35467     35468     35462     35461     35463     35464
     35462     35461     35465     35466     35462     35461     35465     35467
     35463     35461     35465     35466     35463     35461     35465     35467
     35464     35463     35461     35465     35465     35455     35469     35470
     35465     35455     35469     35471     35465     35455     35469     35472
     35466     35465     35455     35469     35466     35465     35467     35468
     35467     35465     35455     35469     35473     35477     35475     35476
     35473     35477     35475     35485     35473     35477     35475     35489
     35473     35478     35480     35493     35473     35478     35481     35482
     35473     35478     35481     35483     35473     35478     35481     35485
     35474     35473     35477     35475     35474     35473     35478     35479
     35474     35473     35478     35480     35474     35473     35478     35481
     35475     35477     35473     35478     35475     35485     35481     35478
     35475     35485     35481     35482     35475     35485     35481     35483
     35475     35485     35487     35488     35476     35475     35485     35481
     35476     35475     35485     35486     35476     35475     35485     35487
     35476     35475     35489     35490     35476     35475     35489     35491
     35476     35475     35489     35492     35477     35473     35478     35479
     35477     35473     35478     35480     35477     35473     35478     35481
     35477     35475     35485     35481     35477     35475     35485     35486
     35477     35475     35485     35487     35477     35475     35489     35490
     35477     35475     35489     35491     35477     35475     35489     35492
     35478     35480     35493     35494     35478     35480     35493     35497
     35478     35480     35493     35498     35478     35481     35483     35484
     35478     35481     35485     35486     35478     35481     35485     35487
     35479     35478     35480     35493     35479     35478     35481     35482
     35479     35478     35481     35483     35479     35478     35481     35485
     35480     35478     35481     35482     35480     35478     35481     35483
     35480     35478     35481     35485     35480     35493     35497     35495
     35480     35493     35498     35499     35480     35493     35498     35500
     35480     35493     35498     35508     35481     35478     35480     35493
     35481     35485     35475     35489     35481     35485     35487     35488
     35482     35481     35483     35484     35482     35481     35485     35486
     35482     35481     35485     35487     35483     35481     35485     35486
     35483     35481     35485     35487     35484     35483     35481     35485
     35485     35475     35489     35490     35485     35475     35489     35491
     35485     35475     35489     35492     35486     35485     35475     35489
     35486     35485     35487     35488     35487     35485     35475     35489
     35493     35497     35495     35496     35493     35497     35495     35512
     35493     35497     35495     35516     35493     35498     35500     35501
     35493     35498     35500     35502     35493     35498     35508     35509
     35493     35498     35508     35510     35493     35498     35508     35512
     35494     35493     35497     35495     35494     35493     35498     35499
     35494     35493     35498     35500     35494     35493     35498     35508
     35495     35497     35493     35498     35495     35512     35508     35498
     35495     35512     35508     35509     35495     35512     35508     35510
     35495     35512     35514     35515     35495     35516     35519     35520
     35496     35495     35512     35508     35496     35495     35512     35513
     35496     35495     35512     35514     35496     35495     35516     35517
     35496     35495     35516     35518     35496     35495     35516     35519
     35497     35493     35498     35499     35497     35493     35498     35500
     35497     35493     35498     35508     35497     35495     35512     35508
     35497     35495     35512     35513     35497     35495     35512     35514
     35497     35495     35516     35517     35497     35495     35516     35518
     35497     35495     35516     35519     35498     35500     35502     35503
     35498     35500     35502     35504     35498     35508     35510     35511
     35498     35508     35512     35513     35498     35508     35512     35514
     35499     35498     35500     35501     35499     35498     35500     35502
     35499     35498     35508     35509     35499     35498     35508     35510
     35499     35498     35508     35512     35500     35498     35508     35509
     35500     35498     35508     35510     35500     35498     35508     35512
     35500     35502     35504     35505     35500     35502     35504     35506
     35500     35502     35504     35507     35501     35500     35498     35508
     35501     35500     35502     35503     35501     35500     35502     35504
     35502     35500     35498     35508     35503     35502     35504     35505
     35503     35502     35504     35506     35503     35502     35504     35507
     35508     35512     35495     35516     35508     35512     35514     35515
     35509     35508     35510     35511     35509     35508     35512     35513
     35509     35508     35512     35514     35510     35508     35512     35513
     35510     35508     35512     35514     35511     35510     35508     35512
     35512     35495     35516     35517     35512     35495     35516     35518
     35512     35495     35516     35519     35513     35512     35495     35516
     35513     35512     35514     35515     35514     35512     35495     35516
     35517     35516     35519     35520     35518     35516     35519     35520
     35521     35523     35522     35820     35521     35523     35525     35526
     35521     35523     35525     35527     35521     35523     35525     35534
     35522     35523     35525     35526     35522     35523     35525     35527
     35522     35523     35525     35534     35522     35820     35817     35818
     35522     35820     35817     35819     35522     35820     35823     35821
     35522     35820     35824     35825     35522     35820     35824     35826
     35522     35820     35824     35827     35523     35522     35820     35817
     35523     35522     35820     35823     35523     35522     35820     35824
     35523     35525     35526     35528     35523     35525     35534     35535
     35523     35525     35534     35536     35523     35525     35534     35541
     35524     35523     35522     35820     35524     35523     35525     35526
     35524     35523     35525     35527     35524     35523     35525     35534
     35525     35523     35522     35820     35525     35526     35528     35529
     35525     35526     35528     35530     35525     35526     35528     35549
     35525     35534     35536     35537     35525     35534     35541     35542
     35525     35534     35541     35543     35525     35534     35541     35549
     35526     35525     35534     35535     35526     35525     35534     35536
     35526     35525     35534     35541     35526     35528     35530     35531
     35526     35528     35549     35541     35526     35528     35549     35550
     35526     35528     35549     35551     35527     35525     35526     35528
     35527     35525     35534     35535     35527     35525     35534     35536
     35527     35525     35534     35541     35528     35526     35525     35534
     35528     35530     35531     35532     35528     35530     35531     35533
     35528     35530     35531     35557     35528     35549     35541     35534
     35528     35549     35541     35542     35528     35549     35541     35543
     35528     35549     35551     35552     35528     35549     35551     35658
     35529     35528     35530     35531     35529     35528     35549     35541
     35529     35528     35549     35550     35529     35528     35549     35551
     35530     35528     35549     35541     35530     35528     35549     35550
     35530     35528     35549     35551     35530     35531     35557     35553
     35530     35531     35557     35558     35530     35531     35557     35559
     35531     35530     35528     35549     35531     35557     35553     35554
     35531     35557     35553     35555     35531     35557     35553     35567
     35531     35557     35559     35560     35532     35531     35557     35553
     35532     35531     35557     35558     35532     35531     35557     35559
     35533     35531     35557     35553     35533     35531     35557     35558
     35533     35531     35557     35559     35534     35536     35537     35538
     35534     35536     35537     35539     35534     35536     35537     35540
     35534     35541     35542     35544     35534     35541     35549     35550
     35534     35541     35549     35551     35535     35534     35536     35537
     35535     35534     35541     35542     35535     35534     35541     35543
     35535     35534     35541     35549     35536     35534     35541     35542
     35536     35534     35541     35543     35536     35534     35541     35549
     35537     35536     35534     35541     35541     35542     35544     35545
     35541     35542     35544     35546     35541     35549     35551     35552
     35541     35549     35551     35658     35542     35541     35549     35550
     35542     35541     35549     35551     35542     35544     35546     35547
     35542     35544     35546     35548     35542     35544     35546     35579
     35543     35541     35542     35544     35543     35541     35549     35550
     35543     35541     35549     35551     35544     35542     35541     35549
     35544     35546     35579     35580     35544     35546     35579     35581
     35544     35546     35579     35624     35545     35544     35546     35547
     35545     35544     35546     35548     35545     35544     35546     35579
     35546     35579     35581     35582     35546     35579     35624     35625
     35546     35579     35624     35626     35546     35579     35624     35627
     35547     35546     35579     35580     35547     35546     35579     35581
     35547     35546     35579     35624     35548     35546     35579     35580
     35548     35546     35579     35581     35548     35546     35579     35624
     35549     35551     35658     35659     35549     35551     35658     35660
     35550     35549     35551     35552     35550     35549     35551     35658
     35551     35658     35660     35661     35551     35658     35660     35662
     35551     35658     35660     35663     35552     35551     35658     35659
     35552     35551     35658     35660     35553     35557     35559     35560
     35553     35567     35569     35570     35553     35567     35575     35560
     35553     35567     35575     35576     35553     35567     35575     35577
     35554     35553     35555     35556     35554     35553     35557     35558
     35554     35553     35557     35559     35554     35553     35567     35568
     35554     35553     35567     35569     35554     35553     35567     35575
     35555     35553     35557     35558     35555     35553     35557     35559
     35555     35553     35567     35568     35555     35553     35567     35569
     35555     35553     35567     35575     35556     35555     35553     35557
     35556     35555     35553     35567     35557     35553     35567     35568
     35557     35553     35567     35569     35557     35553     35567     35575
     35557     35559     35560     35561     35557     35559     35560     35562
     35557     35559     35560     35575     35558     35557     35553     35567
     35558     35557     35559     35560     35559     35557     35553     35567
     35559     35560     35562     35566     35559     35560     35575     35567
     35559     35560     35575     35576     35559     35560     35575     35577
     35560     35562     35566     35563     35560     35562     35566     35564
     35560     35562     35566     35565     35560     35575     35567     35568
     35560     35575     35567     35569     35560     35575     35577     35578
     35560     35575     35577     35774     35561     35560     35562     35566
     35561     35560     35575     35567     35561     35560     35575     35576
     35561     35560     35575     35577     35562     35560     35575     35567
     35562     35560     35575     35576     35562     35560     35575     35577
     35566     35562     35560     35575     35567     35569     35570     35571
     35567     35569     35570     35572     35567     35575     35577     35578
     35567     35575     35577     35774     35568     35567     35569     35570
     35568     35567     35575     35576     35568     35567     35575     35577
     35569     35567     35575     35576     35569     35567     35575     35577
     35569     35570     35572     35573     35569     35570     35572     35574
     35569     35570     35572     35736     35570     35569     35567     35575
     35570     35572     35736     35737     35570     35572     35736     35738
     35570     35572     35736     35740     35571     35570     35572     35573
     35571     35570     35572     35574     35571     35570     35572     35736
     35572     35736     35738     35739     35572     35736     35740     35741
     35572     35736     35740     35742     35572     35736     35740     35743
     35573     35572     35736     35737     35573     35572     35736     35738
     35573     35572     35736     35740     35574     35572     35736     35737
     35574     35572     35736     35738     35574     35572     35736     35740
     35575     35577     35774     35775     35575     35577     35774     35776
     35576     35575     35577     35578     35576     35575     35577     35774
     35577     35774     35776     35777     35577     35774     35776     35778
     35577     35774     35776     35779     35578     35577     35774     35775
     35578     35577     35774     35776     35579     35581     35582     35583
     35579     35581     35582     35584     35579     35624     35627     35628
     35579     35624     35627     35629     35579     35624     35627     35630
     35580     35579     35581     35582     35580     35579     35624     35625
     35580     35579     35624     35626     35580     35579     35624     35627
     35581     35579     35624     35625     35581     35579     35624     35626
     35581     35579     35624     35627     35581     35582     35584     35585
     35581     35582     35584     35586     35581     35582     35584     35587
     35582     35581     35579     35624     35582     35584     35587     35588
     35582     35584     35587     35589     35582     35584     35587     35590
     35583     35582     35584     35585     35583     35582     35584     35586
     35583     35582     35584     35587     35584     35587     35590     35591
     35584     35587     35590     35592     35584     35587     35590     35593
     35585     35584     35587     35588     35585     35584     35587     35589
     35585     35584     35587     35590     35586     35584     35587     35588
     35586     35584     35587     35589     35586     35584     35587     35590
     35587     35590     35593     35594     35587     35590     35593     35595
     35587     35590     35593     35596     35588     35587     35590     35591
     35588     35587     35590     35592     35588     35587     35590     35593
     35589     35587     35590     35591     35589     35587     35590     35592
     35589     35587     35590     35593     35590     35593     35596     35597
     35590     35593     35596     35598     35590     35593     35596     35599
     35591     35590     35593     35594     35591     35590     35593     35595
     35591     35590     35593     35596     35592     35590     35593     35594
     35592     35590     35593     35595     35592     35590     35593     35596
     35593     35596     35599     35600     35593     35596     35599     35601
     35593     35596     35599     35602     35594     35593     35596     35597
     35594     35593     35596     35598     35594     35593     35596     35599
     35595     35593     35596     35597     35595     35593     35596     35598
     35595     35593     35596     35599     35596     35599     35602     35603
     35596     35599     35602     35604     35596     35599     35602     35605
     35597     35596     35599     35600     35597     35596     35599     35601
     35597     35596     35599     35602     35598     35596     35599     35600
     35598     35596     35599     35601     35598     35596     35599     35602
     35599     35602     35605     35606     35599     35602     35605     35607
     35599     35602     35605     35608     35600     35599     35602     35603
     35600     35599     35602     35604     35600     35599     35602     35605
     35601     35599     35602     35603     35601     35599     35602     35604
     35601     35599     35602     35605     35602     35605     35608     35609
     35602     35605     35608     35610     35602     35605     35608     35611
     35603     35602     35605     35606     35603     35602     35605     35607
     35603     35602     35605     35608     35604     35602     35605     35606
     35604     35602     35605     35607     35604     35602     35605     35608
     35605     35608     35611     35612     35605     35608     35611     35613
     35605     35608     35611     35614     35606     35605     35608     35609
     35606     35605     35608     35610     35606     35605     35608     35611
     35607     35605     35608     35609     35607     35605     35608     35610
     35607     35605     35608     35611     35608     35611     35614     35615
     35608     35611     35614     35616     35608     35611     35614     35617
     35609     35608     35611     35612     35609     35608     35611     35613
     35609     35608     35611     35614     35610     35608     35611     35612
     35610     35608     35611     35613     35610     35608     35611     35614
     35611     35614     35617     35618     35611     35614     35617     35619
     35611     35614     35617     35620     35612     35611     35614     35615
     35612     35611     35614     35616     35612     35611     35614     35617
     35613     35611     35614     35615     35613     35611     35614     35616
     35613     35611     35614     35617     35614     35617     35620     35621
     35614     35617     35620     35622     35614     35617     35620     35623
     35615     35614     35617     35618     35615     35614     35617     35619
     35615     35614     35617     35620     35616     35614     35617     35618
     35616     35614     35617     35619     35616     35614     35617     35620
     35618     35617     35620     35621     35618     35617     35620     35622
     35618     35617     35620     35623     35619     35617     35620     35621
     35619     35617     35620     35622     35619     35617     35620     35623
     35624     35627     35630     35631     35624     35627     35630     35632
     35624     35627     35630     35633     35625     35624     35627     35628
     35625     35624     35627     35629     35625     35624     35627     35630
     35626     35624     35627     35628     35626     35624     35627     35629
     35626     35624     35627     35630     35627     35630     35633     35634
     35627     35630     35633     35635     35627     35630     35633     35636
     35628     35627     35630     35631     35628     35627     35630     35632
     35628     35627     35630     35633     35629     35627     35630     35631
     35629     35627     35630     35632     35629     35627     35630     35633
     35630     35633     35636     35637     35630     35633     35636     35638
     35630     35633     35636     35639     35631     35630     35633     35634
     35631     35630     35633     35635     35631     35630     35633     35636
     35632     35630     35633     35634     35632     35630     35633     35635
     35632     35630     35633     35636     35633     35636     35639     35640
     35633     35636     35639     35641     35633     35636     35639     35642
     35634     35633     35636     35637     35634     35633     35636     35638
     35634     35633     35636     35639     35635     35633     35636     35637
     35635     35633     35636     35638     35635     35633     35636     35639
     35636     35639     35642     35643     35636     35639     35642     35644
     35636     35639     35642     35645     35637     35636     35639     35640
     35637     35636     35639     35641     35637     35636     35639     35642
     35638     35636     35639     35640     35638     35636     35639     35641
     35638     35636     35639     35642     35639     35642     35645     35646
     35639     35642     35645     35647     35639     35642     35645     35648
     35640     35639     35642     35643     35640     35639     35642     35644
     35640     35639     35642     35645     35641     35639     35642     35643
     35641     35639     35642     35644     35641     35639     35642     35645
     35642     35645     35648     35649     35642     35645     35648     35650
     35642     35645     35648     35651     35643     35642     35645     35646
     35643     35642     35645     35647     35643     35642     35645     35648
     35644     35642     35645     35646     35644     35642     35645     35647
     35644     35642     35645     35648     35645     35648     35651     35652
     35645     35648     35651     35653     35645     35648     35651     35654
     35646     35645     35648     35649     35646     35645     35648     35650
     35646     35645     35648     35651     35647     35645     35648     35649
     35647     35645     35648     35650     35647     35645     35648     35651
     35648     35651     35654     35655     35648     35651     35654     35656
     35648     35651     35654     35657     35649     35648     35651     35652
     35649     35648     35651     35653     35649     35648     35651     35654
     35650     35648     35651     35652     35650     35648     35651     35653
     35650     35648     35651     35654     35652     35651     35654     35655
     35652     35651     35654     35656     35652     35651     35654     35657
     35653     35651     35654     35655     35653     35651     35654     35656
     35653     35651     35654     35657     35658     35660     35663     35664
     35658     35660     35663     35665     35658     35660     35663     35702
     35659     35658     35660     35661     35659     35658     35660     35662
     35659     35658     35660     35663     35660     35663     35665     35666
     35660     35663     35702     35703     35660     35663     35702     35704
     35660     35663     35702     35705     35661     35660     35663     35664
     35661     35660     35663     35665     35661     35660     35663     35702
     35662     35660     35663     35664     35662     35660     35663     35665
     35662     35660     35663     35702     35663     35665     35666     35667
     35663     35665     35666     35668     35663     35702     35705     35706
     35663     35702     35705     35707     35663     35702     35705     35708
     35664     35663     35665     35666     35664     35663     35702     35703
     35664     35663     35702     35704     35664     35663     35702     35705
     35665     35663     35702     35703     35665     35663     35702     35704
     35665     35663     35702     35705     35665     35666     35668     35669
     35665     35666     35668     35670     35665     35666     35668     35671
     35666     35665     35663     35702     35666     35668     35671     35672
     35666     35668     35671     35673     35666     35668     35671     35674
     35667     35666     35668     35669     35667     35666     35668     35670
     35667     35666     35668     35671     35668     35671     35674     35675
     35668     35671     35674     35676     35668     35671     35674     35677
     35669     35668     35671     35672     35669     35668     35671     35673
     35669     35668     35671     35674     35670     35668     35671     35672
     35670     35668     35671     35673     35670     35668     35671     35674
     35671     35674     35677     35678     35671     35674     35677     35679
     35671     35674     35677     35680     35672     35671     35674     35675
     35672     35671     35674     35676     35672     35671     35674     35677
     35673     35671     35674     35675     35673     35671     35674     35676
     35673     35671     35674     35677     35674     35677     35680     35681
     35674     35677     35680     35682     35674     35677     35680     35683
     35675     35674     35677     35678     35675     35674     35677     35679
     35675     35674     35677     35680     35676     35674     35677     35678
     35676     35674     35677     35679     35676     35674     35677     35680
     35677     35680     35683     35684     35677     35680     35683     35685
     35677     35680     35683     35686     35678     35677     35680     35681
     35678     35677     35680     35682     35678     35677     35680     35683
     35679     35677     35680     35681     35679     35677     35680     35682
     35679     35677     35680     35683     35680     35683     35686     35687
     35680     35683     35686     35688     35680     35683     35686     35689
     35681     35680     35683     35684     35681     35680     35683     35685
     35681     35680     35683     35686     35682     35680     35683     35684
     35682     35680     35683     35685     35682     35680     35683     35686
     35683     35686     35689     35690     35683     35686     35689     35691
     35683     35686     35689     35692     35684     35683     35686     35687
     35684     35683     35686     35688     35684     35683     35686     35689
     35685     35683     35686     35687     35685     35683     35686     35688
     35685     35683     35686     35689     35686     35689     35692     35693
     35686     35689     35692     35694     35686     35689     35692     35695
     35687     35686     35689     35690     35687     35686     35689     35691
     35687     35686     35689     35692     35688     35686     35689     35690
     35688     35686     35689     35691     35688     35686     35689     35692
     35689     35692     35695     35696     35689     35692     35695     35697
     35689     35692     35695     35698     35690     35689     35692     35693
     35690     35689     35692     35694     35690     35689     35692     35695
     35691     35689     35692     35693     35691     35689     35692     35694
     35691     35689     35692     35695     35692     35695     35698     35699
     35692     35695     35698     35700     35692     35695     35698     35701
     35693     35692     35695     35696     35693     35692     35695     35697
     35693     35692     35695     35698     35694     35692     35695     35696
     35694     35692     35695     35697     35694     35692     35695     35698
     35696     35695     35698     35699     35696     35695     35698     35700
     35696     35695     35698     35701     35697     35695     35698     35699
     35697     35695     35698     35700     35697     35695     35698     35701
     35702     35705     35708     35709     35702     35705     35708     35710
     35702     35705     35708     35711     35703     35702     35705     35706
     35703     35702     35705     35707     35703     35702     35705     35708
     35704     35702     35705     35706     35704     35702     35705     35707
     35704     35702     35705     35708     35705     35708     35711     35712
     35705     35708     35711     35713     35705     35708     35711     35714
     35706     35705     35708     35709     35706     35705     35708     35710
     35706     35705     35708     35711     35707     35705     35708     35709
     35707     35705     35708     35710     35707     35705     35708     35711
     35708     35711     35714     35715     35708     35711     35714     35716
     35708     35711     35714     35717     35709     35708     35711     35712
     35709     35708     35711     35713     35709     35708     35711     35714
     35710     35708     35711     35712     35710     35708     35711     35713
     35710     35708     35711     35714     35711     35714     35717     35718
     35711     35714     35717     35719     35711     35714     35717     35720
     35712     35711     35714     35715     35712     35711     35714     35716
     35712     35711     35714     35717     35713     35711     35714     35715
     35713     35711     35714     35716     35713     35711     35714     35717
     35714     35717     35720     35721     35714     35717     35720     35722
     35714     35717     35720     35723     35715     35714     35717     35718
     35715     35714     35717     35719     35715     35714     35717     35720
     35716     35714     35717     35718     35716     35714     35717     35719
     35716     35714     35717     35720     35717     35720     35723     35724
     35717     35720     35723     35725     35717     35720     35723     35726
     35718     35717     35720     35721     35718     35717     35720     35722
     35718     35717     35720     35723     35719     35717     35720     35721
     35719     35717     35720     35722     35719     35717     35720     35723
     35720     35723     35726     35727     35720     35723     35726     35728
     35720     35723     35726     35729     35721     35720     35723     35724
     35721     35720     35723     35725     35721     35720     35723     35726
     35722     35720     35723     35724     35722     35720     35723     35725
     35722     35720     35723     35726     35723     35726     35729     35730
     35723     35726     35729     35731     35723     35726     35729     35732
     35724     35723     35726     35727     35724     35723     35726     35728
     35724     35723     35726     35729     35725     35723     35726     35727
     35725     35723     35726     35728     35725     35723     35726     35729
     35726     35729     35732     35733     35726     35729     35732     35734
     35726     35729     35732     35735     35727     35726     35729     35730
     35727     35726     35729     35731     35727     35726     35729     35732
     35728     35726     35729     35730     35728     35726     35729     35731
     35728     35726     35729     35732     35730     35729     35732     35733
     35730     35729     35732     35734     35730     35729     35732     35735
     35731     35729     35732     35733     35731     35729     35732     35734
     35731     35729     35732     35735     35736     35740     35743     35744
     35736     35740     35743     35745     35736     35740     35743     35746
     35737     35736     35738     35739     35737     35736     35740     35741
     35737     35736     35740     35742     35737     35736     35740     35743
     35738     35736     35740     35741     35738     35736     35740     35742
     35738     35736     35740     35743     35739     35738     35736     35740
     35740     35743     35746     35747     35740     35743     35746     35748
     35740     35743     35746     35749     35741     35740     35743     35744
     35741     35740     35743     35745     35741     35740     35743     35746
     35742     35740     35743     35744     35742     35740     35743     35745
     35742     35740     35743     35746     35743     35746     35749     35750
     35743     35746     35749     35751     35743     35746     35749     35752
     35744     35743     35746     35747     35744     35743     35746     35748
     35744     35743     35746     35749     35745     35743     35746     35747
     35745     35743     35746     35748     35745     35743     35746     35749
     35746     35749     35752     35753     35746     35749     35752     35754
     35746     35749     35752     35755     35747     35746     35749     35750
     35747     35746     35749     35751     35747     35746     35749     35752
     35748     35746     35749     35750     35748     35746     35749     35751
     35748     35746     35749     35752     35749     35752     35755     35756
     35749     35752     35755     35757     35749     35752     35755     35758
     35750     35749     35752     35753     35750     35749     35752     35754
     35750     35749     35752     35755     35751     35749     35752     35753
     35751     35749     35752     35754     35751     35749     35752     35755
     35752     35755     35758     35759     35752     35755     35758     35760
     35752     35755     35758     35761     35753     35752     35755     35756
     35753     35752     35755     35757     35753     35752     35755     35758
     35754     35752     35755     35756     35754     35752     35755     35757
     35754     35752     35755     35758     35755     35758     35761     35762
     35755     35758     35761     35763     35755     35758     35761     35764
     35756     35755     35758     35759     35756     35755     35758     35760
     35756     35755     35758     35761     35757     35755     35758     35759
     35757     35755     35758     35760     35757     35755     35758     35761
     35758     35761     35764     35765     35758     35761     35764     35766
     35758     35761     35764     35767     35759     35758     35761     35762
     35759     35758     35761     35763     35759     35758     35761     35764
     35760     35758     35761     35762     35760     35758     35761     35763
     35760     35758     35761     35764     35761     35764     35767     35768
     35761     35764     35767     35769     35761     35764     35767     35770
     35762     35761     35764     35765     35762     35761     35764     35766
     35762     35761     35764     35767     35763     35761     35764     35765
     35763     35761     35764     35766     35763     35761     35764     35767
     35764     35767     35770     35771     35764     35767     35770     35772
     35764     35767     35770     35773     35765     35764     35767     35768
     35765     35764     35767     35769     35765     35764     35767     35770
     35766     35764     35767     35768     35766     35764     35767     35769
     35766     35764     35767     35770     35768     35767     35770     35771
     35768     35767     35770     35772     35768     35767     35770     35773
     35769     35767     35770     35771     35769     35767     35770     35772
     35769     35767     35770     35773     35774     35776     35779     35780
     35774     35776     35779     35781     35774     35776     35779     35783
     35775     35774     35776     35777     35775     35774     35776     35778
     35775     35774     35776     35779     35776     35779     35781     35782
     35776     35779     35783     35784     35776     35779     35783     35785
     35776     35779     35783     35786     35777     35776     35779     35780
     35777     35776     35779     35781     35777     35776     35779     35783
     35778     35776     35779     35780     35778     35776     35779     35781
     35778     35776     35779     35783     35779     35783     35786     35787
     35779     35783     35786     35788     35779     35783     35786     35789
     35780     35779     35781     35782     35780     35779     35783     35784
     35780     35779     35783     35785     35780     35779     35783     35786
     35781     35779     35783     35784     35781     35779     35783     35785
     35781     35779     35783     35786     35782     35781     35779     35783
     35783     35786     35789     35790     35783     35786     35789     35791
     35783     35786     35789     35792     35784     35783     35786     35787
     35784     35783     35786     35788     35784     35783     35786     35789
     35785     35783     35786     35787     35785     35783     35786     35788
     35785     35783     35786     35789     35786     35789     35792     35793
     35786     35789     35792     35794     35786     35789     35792     35795
     35787     35786     35789     35790     35787     35786     35789     35791
     35787     35786     35789     35792     35788     35786     35789     35790
     35788     35786     35789     35791     35788     35786     35789     35792
     35789     35792     35795     35796     35789     35792     35795     35797
     35789     35792     35795     35798     35790     35789     35792     35793
     35790     35789     35792     35794     35790     35789     35792     35795
     35791     35789     35792     35793     35791     35789     35792     35794
     35791     35789     35792     35795     35792     35795     35798     35799
     35792     35795     35798     35800     35792     35795     35798     35801
     35793     35792     35795     35796     35793     35792     35795     35797
     35793     35792     35795     35798     35794     35792     35795     35796
     35794     35792     35795     35797     35794     35792     35795     35798
     35795     35798     35801     35802     35795     35798     35801     35803
     35795     35798     35801     35804     35796     35795     35798     35799
     35796     35795     35798     35800     35796     35795     35798     35801
     35797     35795     35798     35799     35797     35795     35798     35800
     35797     35795     35798     35801     35798     35801     35804     35805
     35798     35801     35804     35806     35798     35801     35804     35807
     35799     35798     35801     35802     35799     35798     35801     35803
     35799     35798     35801     35804     35800     35798     35801     35802
     35800     35798     35801     35803     35800     35798     35801     35804
     35801     35804     35807     35808     35801     35804     35807     35809
     35801     35804     35807     35810     35802     35801     35804     35805
     35802     35801     35804     35806     35802     35801     35804     35807
     35803     35801     35804     35805     35803     35801     35804     35806
     35803     35801     35804     35807     35804     35807     35810     35811
     35804     35807     35810     35812     35804     35807     35810     35813
     35805     35804     35807     35808     35805     35804     35807     35809
     35805     35804     35807     35810     35806     35804     35807     35808
     35806     35804     35807     35809     35806     35804     35807     35810
     35807     35810     35813     35814     35807     35810     35813     35815
     35807     35810     35813     35816     35808     35807     35810     35811
     35808     35807     35810     35812     35808     35807     35810     35813
     35809     35807     35810     35811     35809     35807     35810     35812
     35809     35807     35810     35813     35811     35810     35813     35814
     35811     35810     35813     35815     35811     35810     35813     35816
     35812     35810     35813     35814     35812     35810     35813     35815
     35812     35810     35813     35816     35817     35820     35823     35821
     35817     35820     35824     35825     35817     35820     35824     35826
     35817     35820     35824     35827     35818     35817     35820     35823
     35818     35817     35820     35824     35819     35817     35820     35823
     35819     35817     35820     35824     35820     35823     35821     35822
     35820     35823     35821     35830     35820     35823     35821     35833
     35820     35824     35827     35828     35820     35824     35827     35829
     35820     35824     35827     35830     35821     35823     35820     35824
     35821     35830     35827     35824     35821     35830     35827     35828
     35821     35830     35827     35829     35821     35830     35832     35869
     35821     35833     35835     35836     35821     35833     35837     35838
     35821     35833     35837     35839     35821     35833     35837     35840
     35822     35821     35830     35827     35822     35821     35830     35831
     35822     35821     35830     35832     35822     35821     35833     35834
     35822     35821     35833     35835     35822     35821     35833     35837
     35823     35820     35824     35825     35823     35820     35824     35826
     35823     35820     35824     35827     35823     35821     35830     35827
     35823     35821     35830     35831     35823     35821     35830     35832
     35823     35821     35833     35834     35823     35821     35833     35835
     35823     35821     35833     35837     35824     35827     35829     35845
     35824     35827     35830     35831     35824     35827     35830     35832
     35825     35824     35827     35828     35825     35824     35827     35829
     35825     35824     35827     35830     35826     35824     35827     35828
     35826     35824     35827     35829     35826     35824     35827     35830
     35827     35829     35845     35842     35827     35829     35845     35848
     35827     35829     35845     35849     35827     35830     35821     35833
     35827     35830     35832     35869     35828     35827     35829     35845
     35828     35827     35830     35831     35828     35827     35830     35832
     35829     35827     35830     35831     35829     35827     35830     35832
     35829     35845     35842     35843     35829     35845     35842     35844
     35829     35845     35848     35846     35829     35845     35849     35850
     35829     35845     35849     35851     35829     35845     35849     35852
     35830     35821     35833     35834     35830     35821     35833     35835
     35830     35821     35833     35837     35830     35827     35829     35845
     35830     35832     35869     35870     35830     35832     35869     35873
     35830     35832     35869     35874     35831     35830     35821     35833
     35831     35830     35832     35869     35832     35830     35821     35833
     35832     35869     35873     35871     35832     35869     35874     35875
     35832     35869     35874     35876     35832     35869     35874     35878
     35833     35837     35840     35841     35834     35833     35835     35836
     35834     35833     35837     35838     35834     35833     35837     35839
     35834     35833     35837     35840     35835     35833     35837     35838
     35835     35833     35837     35839     35835     35833     35837     35840
     35836     35835     35833     35837     35838     35837     35840     35841
     35839     35837     35840     35841     35842     35845     35848     35846
     35842     35845     35849     35850     35842     35845     35849     35851
     35842     35845     35849     35852     35843     35842     35845     35848
     35843     35842     35845     35849     35844     35842     35845     35848
     35844     35842     35845     35849     35845     35848     35846     35847
     35845     35848     35846     35856     35845     35848     35846     35860
     35845     35849     35852     35853     35845     35849     35852     35854
     35845     35849     35852     35856     35846     35848     35845     35849
     35846     35856     35852     35849     35846     35856     35852     35853
     35846     35856     35852     35854     35846     35856     35858     35859
     35846     35860     35862     35863     35846     35860     35864     35865
     35846     35860     35864     35866     35846     35860     35864     35867
     35847     35846     35856     35852     35847     35846     35856     35857
     35847     35846     35856     35858     35847     35846     35860     35861
     35847     35846     35860     35862     35847     35846     35860     35864
     35848     35845     35849     35850     35848     35845     35849     35851
     35848     35845     35849     35852     35848     35846     35856     35852
     35848     35846     35856     35857     35848     35846     35856     35858
     35848     35846     35860     35861     35848     35846     35860     35862
     35848     35846     35860     35864     35849     35852     35854     35855
     35849     35852     35856     35857     35849     35852     35856     35858
     35850     35849     35852     35853     35850     35849     35852     35854
     35850     35849     35852     35856     35851     35849     35852     35853
     35851     35849     35852     35854     35851     35849     35852     35856
     35852     35856     35846     35860     35852     35856     35858     35859
     35853     35852     35854     35855     35853     35852     35856     35857
     35853     35852     35856     35858     35854     35852     35856     35857
     35854     35852     35856     35858     35855     35854     35852     35856
     35856     35846     35860     35861     35856     35846     35860     35862
     35856     35846     35860     35864     35857     35856     35846     35860
     35857     35856     35858     35859     35858     35856     35846     35860
     35860     35864     35867     35868     35861     35860     35862     35863
     35861     35860     35864     35865     35861     35860     35864     35866
     35861     35860     35864     35867     35862     35860     35864     35865
     35862     35860     35864     35866     35862     35860     35864     35867
     35863     35862     35860     35864     35865     35864     35867     35868
     35866     35864     35867     35868     35869     35873     35871     35872
     35869     35873     35871     35881     35869     35873     35871     35888
     35869     35874     35876     35877     35869     35874     35878     35879
     35869     35874     35878     35880     35869     35874     35878     35881
     35870     35869     35873     35871     35870     35869     35874     35875
     35870     35869     35874     35876     35870     35869     35874     35878
     35871     35873     35869     35874     35871     35881     35878     35874
     35871     35881     35878     35879     35871     35881     35878     35880
     35871     35881     35883     35884     35871     35888     35890     35891
     35871     35888     35892     35893     35871     35888     35892     35894
     35871     35888     35892     35895     35872     35871     35881     35878
     35872     35871     35881     35882     35872     35871     35881     35883
     35872     35871     35888     35889     35872     35871     35888     35890
     35872     35871     35888     35892     35873     35869     35874     35875
     35873     35869     35874     35876     35873     35869     35874     35878
     35873     35871     35881     35878     35873     35871     35881     35882
     35873     35871     35881     35883     35873     35871     35888     35889
     35873     35871     35888     35890     35873     35871     35888     35892
     35874     35878     35880     35897     35874     35878     35881     35882
     35874     35878     35881     35883     35875     35874     35876     35877
     35875     35874     35878     35879     35875     35874     35878     35880
     35875     35874     35878     35881     35876     35874     35878     35879
     35876     35874     35878     35880     35876     35874     35878     35881
     35877     35876     35874     35878     35878     35880     35897     35898
     35878     35880     35897     35901     35878     35880     35897     35902
     35878     35881     35871     35888     35878     35881     35883     35884
     35879     35878     35880     35897     35879     35878     35881     35882
     35879     35878     35881     35883     35880     35878     35881     35882
     35880     35878     35881     35883     35880     35897     35901     35899
     35880     35897     35902     35903     35880     35897     35902     35904
     35880     35897     35902     35906     35881     35871     35888     35889
     35881     35871     35888     35890     35881     35871     35888     35892
     35881     35878     35880     35897     35881     35883     35884     35885
     35881     35883     35884     35886     35881     35883     35884     35887
     35882     35881     35871     35888     35882     35881     35883     35884
     35883     35881     35871     35888     35888     35892     35895     35896
     35889     35888     35890     35891     35889     35888     35892     35893
     35889     35888     35892     35894     35889     35888     35892     35895
     35890     35888     35892     35893     35890     35888     35892     35894
     35890     35888     35892     35895     35891     35890     35888     35892
     35893     35892     35895     35896     35894     35892     35895     35896
     35897     35901     35899     35900     35897     35901     35899     35909
     35897     35901     35899     35916     35897     35902     35904     35905
     35897     35902     35906     35907     35897     35902     35906     35908
     35897     35902     35906     35909     35898     35897     35901     35899
     35898     35897     35902     35903     35898     35897     35902     35904
     35898     35897     35902     35906     35899     35901     35897     35902
     35899     35909     35906     35902     35899     35909     35906     35907
     35899     35909     35906     35908     35899     35909     35911     35912
     35899     35916     35918     35919     35899     35916     35920     35921
     35899     35916     35920     35922     35899     35916     35920     35923
     35900     35899     35909     35906     35900     35899     35909     35910
     35900     35899     35909     35911     35900     35899     35916     35917
     35900     35899     35916     35918     35900     35899     35916     35920
     35901     35897     35902     35903     35901     35897     35902     35904
     35901     35897     35902     35906     35901     35899     35909     35906
     35901     35899     35909     35910     35901     35899     35909     35911
     35901     35899     35916     35917     35901     35899     35916     35918
     35901     35899     35916     35920     35902     35906     35908     35950
     35902     35906     35909     35910     35902     35906     35909     35911
     35903     35902     35904     35905     35903     35902     35906     35907
     35903     35902     35906     35908     35903     35902     35906     35909
     35904     35902     35906     35907     35904     35902     35906     35908
     35904     35902     35906     35909     35905     35904     35902     35906
     35906     35908     35950     35951     35906     35908     35950     35954
     35906     35908     35950     35955     35906     35909     35899     35916
     35906     35909     35911     35912     35907     35906     35908     35950
     35907     35906     35909     35910     35907     35906     35909     35911
     35908     35906     35909     35910     35908     35906     35909     35911
     35908     35950     35954     35952     35908     35950     35955     35956
     35908     35950     35955     35957     35908     35950     35955     35959
     35909     35899     35916     35917     35909     35899     35916     35918
     35909     35899     35916     35920     35909     35906     35908     35950
     35909     35911     35912     35913     35909     35911     35912     35914
     35909     35911     35912     35915     35910     35909     35899     35916
     35910     35909     35911     35912     35911     35909     35899     35916
     35916     35920     35923     35924     35917     35916     35918     35919
     35917     35916     35920     35921     35917     35916     35920     35922
     35917     35916     35920     35923     35918     35916     35920     35921
     35918     35916     35920     35922     35918     35916     35920     35923
     35919     35918     35916     35920     35920     35923     35924     35925
     35920     35923     35924     35928     35920     35923     35924     35929
     35921     35920     35923     35924     35922     35920     35923     35924
     35923     35924     35928     35926     35923     35924     35929     35930
     35923     35924     35929     35931     35923     35924     35929     35933
     35924     35928     35926     35927     35924     35928     35926     35937
     35924     35928     35926     35941     35924     35929     35931     35932
     35924     35929     35933     35934     35924     35929     35933     35935
     35924     35929     35933     35937     35925     35924     35928     35926
     35925     35924     35929     35930     35925     35924     35929     35931
     35925     35924     35929     35933     35926     35928     35924     35929
     35926     35937     35933     35929     35926     35937     35933     35934
     35926     35937     35933     35935     35926     35937     35939     35940
     35926     35941     35943     35944     35926     35941     35945     35946
     35926     35941     35945     35947     35926     35941     35945     35948
     35927     35926     35937     35933     35927     35926     35937     35938
     35927     35926     35937     35939     35927     35926     35941     35942
     35927     35926     35941     35943     35927     35926     35941     35945
     35928     35924     35929     35930     35928     35924     35929     35931
     35928     35924     35929     35933     35928     35926     35937     35933
     35928     35926     35937     35938     35928     35926     35937     35939
     35928     35926     35941     35942     35928     35926     35941     35943
     35928     35926     35941     35945     35929     35933     35935     35936
     35929     35933     35937     35938     35929     35933     35937     35939
     35930     35929     35931     35932     35930     35929     35933     35934
     35930     35929     35933     35935     35930     35929     35933     35937
     35931     35929     35933     35934     35931     35929     35933     35935
     35931     35929     35933     35937     35932     35931     35929     35933
     35933     35937     35926     35941     35933     35937     35939     35940
     35934     35933     35935     35936     35934     35933     35937     35938
     35934     35933     35937     35939     35935     35933     35937     35938
     35935     35933     35937     35939     35936     35935     35933     35937
     35937     35926     35941     35942     35937     35926     35941     35943
     35937     35926     35941     35945     35938     35937     35926     35941
     35938     35937     35939     35940     35939     35937     35926     35941
     35941     35945     35948     35949     35942     35941     35943     35944
     35942     35941     35945     35946     35942     35941     35945     35947
     35942     35941     35945     35948     35943     35941     35945     35946
     35943     35941     35945     35947     35943     35941     35945     35948
     35944     35943     35941     35945     35946     35945     35948     35949
     35947     35945     35948     35949     35950     35954     35952     35953
     35950     35954     35952     35962     35950     35954     35952     35966
     35950     35955     35957     35958     35950     35955     35959     35960
     35950     35955     35959     35961     35950     35955     35959     35962
     35951     35950     35954     35952     35951     35950     35955     35956
     35951     35950     35955     35957     35951     35950     35955     35959
     35952     35954     35950     35955     35952     35962     35959     35955
     35952     35962     35959     35960     35952     35962     35959     35961
     35952     35962     35964     35965     35952     35966     35969     35970
     35953     35952     35962     35959     35953     35952     35962     35963
     35953     35952     35962     35964     35953     35952     35966     35967
     35953     35952     35966     35968     35953     35952     35966     35969
     35954     35950     35955     35956     35954     35950     35955     35957
     35954     35950     35955     35959     35954     35952     35962     35959
     35954     35952     35962     35963     35954     35952     35962     35964
     35954     35952     35966     35967     35954     35952     35966     35968
     35954     35952     35966     35969     35955     35959     35961     35971
     35955     35959     35962     35963     35955     35959     35962     35964
     35956     35955     35957     35958     35956     35955     35959     35960
     35956     35955     35959     35961     35956     35955     35959     35962
     35957     35955     35959     35960     35957     35955     35959     35961
     35957     35955     35959     35962     35958     35957     35955     35959
     35959     35961     35971     35972     35959     35961     35971     35975
     35959     35961     35971     35976     35959     35962     35952     35966
     35959     35962     35964     35965     35960     35959     35961     35971
     35960     35959     35962     35963     35960     35959     35962     35964
     35961     35959     35962     35963     35961     35959     35962     35964
     35961     35971     35975     35973     35961     35971     35976     35977
     35961     35971     35976     35978     35961     35971     35976     35979
     35962     35952     35966     35967     35962     35952     35966     35968
     35962     35952     35966     35969     35962     35959     35961     35971
     35963     35962     35952     35966     35963     35962     35964     35965
     35964     35962     35952     35966     35967     35966     35969     35970
     35968     35966     35969     35970     35971     35975     35973     35974
     35971     35975     35973     35982     35971     35975     35973     35986
     35971     35976     35978     35991     35971     35976     35979     35980
     35971     35976     35979     35981     35971     35976     35979     35982
     35972     35971     35975     35973     35972     35971     35976     35977
     35972     35971     35976     35978     35972     35971     35976     35979
     35973     35975     35971     35976     35973     35982     35979     35976
     35973     35982     35979     35980     35973     35982     35979     35981
     35973     35982     35984     35985     35973     35986     35989     35990
     35974     35973     35982     35979     35974     35973     35982     35983
     35974     35973     35982     35984     35974     35973     35986     35987
     35974     35973     35986     35988     35974     35973     35986     35989
     35975     35971     35976     35977     35975     35971     35976     35978
     35975     35971     35976     35979     35975     35973     35982     35979
     35975     35973     35982     35983     35975     35973     35982     35984
     35975     35973     35986     35987     35975     35973     35986     35988
     35975     35973     35986     35989     35976     35978     35991     35992
     35976     35978     35991     35995     35976     35978     35991     35996
     35976     35979     35981     36034     35976     35979     35982     35983
     35976     35979     35982     35984     35977     35976     35978     35991
     35977     35976     35979     35980     35977     35976     35979     35981
     35977     35976     35979     35982     35978     35976     35979     35980
     35978     35976     35979     35981     35978     35976     35979     35982
     35978     35991     35995     35993     35978     35991     35996     35997
     35978     35991     35996     35998     35978     35991     35996     35999
     35979     35976     35978     35991     35979     35981     36034     36035
     35979     35981     36034     36038     35979     35981     36034     36039
     35979     35982     35973     35986     35979     35982     35984     35985
     35980     35979     35981     36034     35980     35979     35982     35983
     35980     35979     35982     35984     35981     35979     35982     35983
     35981     35979     35982     35984     35981     36034     36038     36036
     35981     36034     36039     36040     35981     36034     36039     36041
     35981     36034     36039     36043     35982     35973     35986     35987
     35982     35973     35986     35988     35982     35973     35986     35989
     35982     35979     35981     36034     35983     35982     35973     35986
     35983     35982     35984     35985     35984     35982     35973     35986
     35987     35986     35989     35990     35988     35986     35989     35990
     35991     35995     35993     35994     35991     35995     35993     36003
     35991     35995     35993     36007     35991     35996     35998     36012
     35991     35996     35999     36000     35991     35996     35999     36001
     35991     35996     35999     36003     35992     35991     35995     35993
     35992     35991     35996     35997     35992     35991     35996     35998
     35992     35991     35996     35999     35993     35995     35991     35996
     35993     36003     35999     35996     35993     36003     35999     36000
     35993     36003     35999     36001     35993     36003     36005     36006
     35993     36007     36010     36011     35994     35993     36003     35999
     35994     35993     36003     36004     35994     35993     36003     36005
     35994     35993     36007     36008     35994     35993     36007     36009
     35994     35993     36007     36010     35995     35991     35996     35997
     35995     35991     35996     35998     35995     35991     35996     35999
     35995     35993     36003     35999     35995     35993     36003     36004
     35995     35993     36003     36005     35995     35993     36007     36008
     35995     35993     36007     36009     35995     35993     36007     36010
     35996     35998     36012     36013     35996     35998     36012     36016
     35996     35998     36012     36017     35996     35999     36001     36002
     35996     35999     36003     36004     35996     35999     36003     36005
     35997     35996     35998     36012     35997     35996     35999     36000
     35997     35996     35999     36001     35997     35996     35999     36003
     35998     35996     35999     36000     35998     35996     35999     36001
     35998     35996     35999     36003     35998     36012     36016     36014
     35998     36012     36017     36018     35998     36012     36017     36019
     35998     36012     36017     36021     35999     35996     35998     36012
     35999     36003     35993     36007     35999     36003     36005     36006
     36000     35999     36001     36002     36000     35999     36003     36004
     36000     35999     36003     36005     36001     35999     36003     36004
     36001     35999     36003     36005     36002     36001     35999     36003
     36003     35993     36007     36008     36003     35993     36007     36009
     36003     35993     36007     36010     36004     36003     35993     36007
     36004     36003     36005     36006     36005     36003     35993     36007
     36008     36007     36010     36011     36009     36007     36010     36011
     36012     36016     36014     36015     36012     36016     36014     36025
     36012     36016     36014     36029     36012     36017     36019     36020
     36012     36017     36021     36022     36012     36017     36021     36023
     36012     36017     36021     36025     36013     36012     36016     36014
     36013     36012     36017     36018     36013     36012     36017     36019
     36013     36012     36017     36021     36014     36016     36012     36017
     36014     36025     36021     36017     36014     36025     36021     36022
     36014     36025     36021     36023     36014     36025     36027     36028
     36014     36029     36032     36033     36015     36014     36025     36021
     36015     36014     36025     36026     36015     36014     36025     36027
     36015     36014     36029     36030     36015     36014     36029     36031
     36015     36014     36029     36032     36016     36012     36017     36018
     36016     36012     36017     36019     36016     36012     36017     36021
     36016     36014     36025     36021     36016     36014     36025     36026
     36016     36014     36025     36027     36016     36014     36029     36030
     36016     36014     36029     36031     36016     36014     36029     36032
     36017     36021     36023     36024     36017     36021     36025     36026
     36017     36021     36025     36027     36018     36017     36019     36020
     36018     36017     36021     36022     36018     36017     36021     36023
     36018     36017     36021     36025     36019     36017     36021     36022
     36019     36017     36021     36023     36019     36017     36021     36025
     36020     36019     36017     36021     36021     36025     36014     36029
     36021     36025     36027     36028     36022     36021     36023     36024
     36022     36021     36025     36026     36022     36021     36025     36027
     36023     36021     36025     36026     36023     36021     36025     36027
     36024     36023     36021     36025     36025     36014     36029     36030
     36025     36014     36029     36031     36025     36014     36029     36032
     36026     36025     36014     36029     36026     36025     36027     36028
     36027     36025     36014     36029     36030     36029     36032     36033
     36031     36029     36032     36033     36034     36038     36036     36037
     36034     36038     36036     36046     36034     36038     36036     36050
     36034     36039     36041     36042     36034     36039     36043     36044
     36034     36039     36043     36045     36034     36039     36043     36046
     36035     36034     36038     36036     36035     36034     36039     36040
     36035     36034     36039     36041     36035     36034     36039     36043
     36036     36038     36034     36039     36036     36046     36043     36039
     36036     36046     36043     36044     36036     36046     36043     36045
     36036     36046     36048     36049     36036     36050     36053     36054
     36037     36036     36046     36043     36037     36036     36046     36047
     36037     36036     36046     36048     36037     36036     36050     36051
     36037     36036     36050     36052     36037     36036     36050     36053
     36038     36034     36039     36040     36038     36034     36039     36041
     36038     36034     36039     36043     36038     36036     36046     36043
     36038     36036     36046     36047     36038     36036     36046     36048
     36038     36036     36050     36051     36038     36036     36050     36052
     36038     36036     36050     36053     36039     36043     36045     36055
     36039     36043     36046     36047     36039     36043     36046     36048
     36040     36039     36041     36042     36040     36039     36043     36044
     36040     36039     36043     36045     36040     36039     36043     36046
     36041     36039     36043     36044     36041     36039     36043     36045
     36041     36039     36043     36046     36042     36041     36039     36043
     36043     36045     36055     36056     36043     36045     36055     36059
     36043     36045     36055     36060     36043     36046     36036     36050
     36043     36046     36048     36049     36044     36043     36045     36055
     36044     36043     36046     36047     36044     36043     36046     36048
     36045     36043     36046     36047     36045     36043     36046     36048
     36045     36055     36059     36057     36045     36055     36060     36061
     36045     36055     36060     36062     36045     36055     36060     36070
     36046     36036     36050     36051     36046     36036     36050     36052
     36046     36036     36050     36053     36046     36043     36045     36055
     36047     36046     36036     36050     36047     36046     36048     36049
     36048     36046     36036     36050     36051     36050     36053     36054
     36052     36050     36053     36054     36055     36059     36057     36058
     36055     36059     36057     36073     36055     36059     36057     36077
     36055     36060     36062     36063     36055     36060     36062     36064
     36055     36060     36070     36071     36055     36060     36070     36072
     36055     36060     36070     36073     36056     36055     36059     36057
     36056     36055     36060     36061     36056     36055     36060     36062
     36056     36055     36060     36070     36057     36059     36055     36060
     36057     36073     36070     36060     36057     36073     36070     36071
     36057     36073     36070     36072     36057     36073     36075     36076
     36057     36077     36080     36081     36058     36057     36073     36070
     36058     36057     36073     36074     36058     36057     36073     36075
     36058     36057     36077     36078     36058     36057     36077     36079
     36058     36057     36077     36080     36059     36055     36060     36061
     36059     36055     36060     36062     36059     36055     36060     36070
     36059     36057     36073     36070     36059     36057     36073     36074
     36059     36057     36073     36075     36059     36057     36077     36078
     36059     36057     36077     36079     36059     36057     36077     36080
     36060     36062     36064     36065     36060     36062     36064     36066
     36060     36070     36072     36082     36060     36070     36073     36074
     36060     36070     36073     36075     36061     36060     36062     36063
     36061     36060     36062     36064     36061     36060     36070     36071
     36061     36060     36070     36072     36061     36060     36070     36073
     36062     36060     36070     36071     36062     36060     36070     36072
     36062     36060     36070     36073     36062     36064     36066     36067
     36062     36064     36066     36068     36062     36064     36066     36069
     36063     36062     36060     36070     36063     36062     36064     36065
     36063     36062     36064     36066     36064     36062     36060     36070
     36065     36064     36066     36067     36065     36064     36066     36068
     36065     36064     36066     36069     36070     36072     36082     36083
     36070     36072     36082     36086     36070     36072     36082     36087
     36070     36073     36057     36077     36070     36073     36075     36076
     36071     36070     36072     36082     36071     36070     36073     36074
     36071     36070     36073     36075     36072     36070     36073     36074
     36072     36070     36073     36075     36072     36082     36086     36084
     36072     36082     36087     36088     36072     36082     36087     36089
     36072     36082     36087     36090     36073     36057     36077     36078
     36073     36057     36077     36079     36073     36057     36077     36080
     36073     36070     36072     36082     36074     36073     36057     36077
     36074     36073     36075     36076     36075     36073     36057     36077
     36078     36077     36080     36081     36079     36077     36080     36081
     36082     36086     36084     36085     36082     36086     36084     36094
     36082     36086     36084     36098     36082     36087     36089     36103
     36082     36087     36090     36091     36082     36087     36090     36092
     36082     36087     36090     36094     36083     36082     36086     36084
     36083     36082     36087     36088     36083     36082     36087     36089
     36083     36082     36087     36090     36084     36086     36082     36087
     36084     36094     36090     36087     36084     36094     36090     36091
     36084     36094     36090     36092     36084     36094     36096     36097
     36084     36098     36101     36102     36085     36084     36094     36090
     36085     36084     36094     36095     36085     36084     36094     36096
     36085     36084     36098     36099     36085     36084     36098     36100
     36085     36084     36098     36101     36086     36082     36087     36088
     36086     36082     36087     36089     36086     36082     36087     36090
     36086     36084     36094     36090     36086     36084     36094     36095
     36086     36084     36094     36096     36086     36084     36098     36099
     36086     36084     36098     36100     36086     36084     36098     36101
     36087     36089     36103     36104     36087     36089     36103     36107
     36087     36089     36103     36108     36087     36090     36092     36093
     36087     36090     36094     36095     36087     36090     36094     36096
     36088     36087     36089     36103     36088     36087     36090     36091
     36088     36087     36090     36092     36088     36087     36090     36094
     36089     36087     36090     36091     36089     36087     36090     36092
     36089     36087     36090     36094     36089     36103     36107     36105
     36089     36103     36108     36109     36089     36103     36108     36110
     36089     36103     36108     36111     36090     36087     36089     36103
     36090     36094     36084     36098     36090     36094     36096     36097
     36091     36090     36092     36093     36091     36090     36094     36095
     36091     36090     36094     36096     36092     36090     36094     36095
     36092     36090     36094     36096     36093     36092     36090     36094
     36094     36084     36098     36099     36094     36084     36098     36100
     36094     36084     36098     36101     36095     36094     36084     36098
     36095     36094     36096     36097     36096     36094     36084     36098
     36099     36098     36101     36102     36100     36098     36101     36102
     36103     36107     36105     36106     36103     36107     36105     36115
     36103     36107     36105     36119     36103     36108     36110     36123
     36103     36108     36111     36112     36103     36108     36111     36113
     36103     36108     36111     36115     36104     36103     36107     36105
     36104     36103     36108     36109     36104     36103     36108     36110
     36104     36103     36108     36111     36105     36107     36103     36108
     36105     36115     36111     36108     36105     36115     36111     36112
     36105     36115     36111     36113     36105     36115     36117     36118
     36106     36105     36115     36111     36106     36105     36115     36116
     36106     36105     36115     36117     36106     36105     36119     36120
     36106     36105     36119     36121     36106     36105     36119     36122
     36107     36103     36108     36109     36107     36103     36108     36110
     36107     36103     36108     36111     36107     36105     36115     36111
     36107     36105     36115     36116     36107     36105     36115     36117
     36107     36105     36119     36120     36107     36105     36119     36121
     36107     36105     36119     36122     36108     36110     36123     36124
     36108     36110     36123     36127     36108     36110     36123     36128
     36108     36111     36113     36114     36108     36111     36115     36116
     36108     36111     36115     36117     36109     36108     36110     36123
     36109     36108     36111     36112     36109     36108     36111     36113
     36109     36108     36111     36115     36110     36108     36111     36112
     36110     36108     36111     36113     36110     36108     36111     36115
     36110     36123     36127     36125     36110     36123     36128     36129
     36110     36123     36128     36130     36110     36123     36128     36131
     36111     36108     36110     36123     36111     36115     36105     36119
     36111     36115     36117     36118     36112     36111     36113     36114
     36112     36111     36115     36116     36112     36111     36115     36117
     36113     36111     36115     36116     36113     36111     36115     36117
     36114     36113     36111     36115     36115     36105     36119     36120
     36115     36105     36119     36121     36115     36105     36119     36122
     36116     36115     36105     36119     36116     36115     36117     36118
     36117     36115     36105     36119     36123     36127     36125     36126
     36123     36127     36125     36134     36123     36127     36125     36138
     36123     36128     36130     36142     36123     36128     36131     36132
     36123     36128     36131     36133     36123     36128     36131     36134
     36124     36123     36127     36125     36124     36123     36128     36129
     36124     36123     36128     36130     36124     36123     36128     36131
     36125     36127     36123     36128     36125     36134     36131     36128
     36125     36134     36131     36132     36125     36134     36131     36133
     36125     36134     36136     36137     36126     36125     36134     36131
     36126     36125     36134     36135     36126     36125     36134     36136
     36126     36125     36138     36139     36126     36125     36138     36140
     36126     36125     36138     36141     36127     36123     36128     36129
     36127     36123     36128     36130     36127     36123     36128     36131
     36127     36125     36134     36131     36127     36125     36134     36135
     36127     36125     36134     36136     36127     36125     36138     36139
     36127     36125     36138     36140     36127     36125     36138     36141
     36128     36130     36142     36143     36128     36130     36142     36146
     36128     36130     36142     36147     36128     36131     36133     36170
     36128     36131     36134     36135     36128     36131     36134     36136
     36129     36128     36130     36142     36129     36128     36131     36132
     36129     36128     36131     36133     36129     36128     36131     36134
     36130     36128     36131     36132     36130     36128     36131     36133
     36130     36128     36131     36134     36130     36142     36146     36144
     36130     36142     36147     36148     36130     36142     36147     36149
     36130     36142     36147     36157     36131     36128     36130     36142
     36131     36133     36170     36171     36131     36133     36170     36174
     36131     36133     36170     36175     36131     36134     36125     36138
     36131     36134     36136     36137     36132     36131     36133     36170
     36132     36131     36134     36135     36132     36131     36134     36136
     36133     36131     36134     36135     36133     36131     36134     36136
     36133     36170     36174     36172     36133     36170     36175     36176
     36133     36170     36175     36177     36133     36170     36175     36185
     36134     36125     36138     36139     36134     36125     36138     36140
     36134     36125     36138     36141     36134     36131     36133     36170
     36135     36134     36125     36138     36135     36134     36136     36137
     36136     36134     36125     36138     36142     36146     36144     36145
     36142     36146     36144     36161     36142     36146     36144     36165
     36142     36147     36149     36150     36142     36147     36149     36151
     36142     36147     36157     36158     36142     36147     36157     36159
     36142     36147     36157     36161     36143     36142     36146     36144
     36143     36142     36147     36148     36143     36142     36147     36149
     36143     36142     36147     36157     36144     36146     36142     36147
     36144     36161     36157     36147     36144     36161     36157     36158
     36144     36161     36157     36159     36144     36161     36163     36164
     36144     36165     36168     36169     36145     36144     36161     36157
     36145     36144     36161     36162     36145     36144     36161     36163
     36145     36144     36165     36166     36145     36144     36165     36167
     36145     36144     36165     36168     36146     36142     36147     36148
     36146     36142     36147     36149     36146     36142     36147     36157
     36146     36144     36161     36157     36146     36144     36161     36162
     36146     36144     36161     36163     36146     36144     36165     36166
     36146     36144     36165     36167     36146     36144     36165     36168
     36147     36149     36151     36152     36147     36149     36151     36153
     36147     36157     36159     36160     36147     36157     36161     36162
     36147     36157     36161     36163     36148     36147     36149     36150
     36148     36147     36149     36151     36148     36147     36157     36158
     36148     36147     36157     36159     36148     36147     36157     36161
     36149     36147     36157     36158     36149     36147     36157     36159
     36149     36147     36157     36161     36149     36151     36153     36154
     36149     36151     36153     36155     36149     36151     36153     36156
     36150     36149     36147     36157     36150     36149     36151     36152
     36150     36149     36151     36153     36151     36149     36147     36157
     36152     36151     36153     36154     36152     36151     36153     36155
     36152     36151     36153     36156     36157     36161     36144     36165
     36157     36161     36163     36164     36158     36157     36159     36160
     36158     36157     36161     36162     36158     36157     36161     36163
     36159     36157     36161     36162     36159     36157     36161     36163
     36160     36159     36157     36161     36161     36144     36165     36166
     36161     36144     36165     36167     36161     36144     36165     36168
     36162     36161     36144     36165     36162     36161     36163     36164
     36163     36161     36144     36165     36166     36165     36168     36169
     36167     36165     36168     36169     36170     36174     36172     36173
     36170     36174     36172     36188     36170     36174     36172     36192
     36170     36175     36177     36178     36170     36175     36177     36179
     36170     36175     36185     36186     36170     36175     36185     36187
     36170     36175     36185     36188     36171     36170     36174     36172
     36171     36170     36175     36176     36171     36170     36175     36177
     36171     36170     36175     36185     36172     36174     36170     36175
     36172     36188     36185     36175     36172     36188     36185     36186
     36172     36188     36185     36187     36172     36188     36190     36191
     36172     36192     36195     36196     36173     36172     36188     36185
     36173     36172     36188     36189     36173     36172     36188     36190
     36173     36172     36192     36193     36173     36172     36192     36194
     36173     36172     36192     36195     36174     36170     36175     36176
     36174     36170     36175     36177     36174     36170     36175     36185
     36174     36172     36188     36185     36174     36172     36188     36189
     36174     36172     36188     36190     36174     36172     36192     36193
     36174     36172     36192     36194     36174     36172     36192     36195
     36175     36177     36179     36180     36175     36177     36179     36181
     36175     36185     36187     36197     36175     36185     36188     36189
     36175     36185     36188     36190     36176     36175     36177     36178
     36176     36175     36177     36179     36176     36175     36185     36186
     36176     36175     36185     36187     36176     36175     36185     36188
     36177     36175     36185     36186     36177     36175     36185     36187
     36177     36175     36185     36188     36177     36179     36181     36182
     36177     36179     36181     36183     36177     36179     36181     36184
     36178     36177     36175     36185     36178     36177     36179     36180
     36178     36177     36179     36181     36179     36177     36175     36185
     36180     36179     36181     36182     36180     36179     36181     36183
     36180     36179     36181     36184     36185     36187     36197     36198
     36185     36187     36197     36201     36185     36187     36197     36202
     36185     36188     36172     36192     36185     36188     36190     36191
     36186     36185     36187     36197     36186     36185     36188     36189
     36186     36185     36188     36190     36187     36185     36188     36189
     36187     36185     36188     36190     36187     36197     36201     36199
     36187     36197     36202     36203     36187     36197     36202     36204
     36187     36197     36202     36205     36188     36172     36192     36193
     36188     36172     36192     36194     36188     36172     36192     36195
     36188     36185     36187     36197     36189     36188     36172     36192
     36189     36188     36190     36191     36190     36188     36172     36192
     36193     36192     36195     36196     36194     36192     36195     36196
     36197     36201     36199     36200     36197     36201     36199     36209
     36197     36201     36199     36213     36197     36202     36204     36218
     36197     36202     36205     36206     36197     36202     36205     36207
     36197     36202     36205     36209     36198     36197     36201     36199
     36198     36197     36202     36203     36198     36197     36202     36204
     36198     36197     36202     36205     36199     36201     36197     36202
     36199     36209     36205     36202     36199     36209     36205     36206
     36199     36209     36205     36207     36199     36209     36211     36212
     36199     36213     36216     36217     36200     36199     36209     36205
     36200     36199     36209     36210     36200     36199     36209     36211
     36200     36199     36213     36214     36200     36199     36213     36215
     36200     36199     36213     36216     36201     36197     36202     36203
     36201     36197     36202     36204     36201     36197     36202     36205
     36201     36199     36209     36205     36201     36199     36209     36210
     36201     36199     36209     36211     36201     36199     36213     36214
     36201     36199     36213     36215     36201     36199     36213     36216
     36202     36204     36218     36219     36202     36204     36218     36222
     36202     36204     36218     36223     36202     36205     36207     36208
     36202     36205     36209     36210     36202     36205     36209     36211
     36203     36202     36204     36218     36203     36202     36205     36206
     36203     36202     36205     36207     36203     36202     36205     36209
     36204     36202     36205     36206     36204     36202     36205     36207
     36204     36202     36205     36209     36204     36218     36222     36220
     36204     36218     36223     36224     36204     36218     36223     36225
     36204     36218     36223     36226     36205     36202     36204     36218
     36205     36209     36199     36213     36205     36209     36211     36212
     36206     36205     36207     36208     36206     36205     36209     36210
     36206     36205     36209     36211     36207     36205     36209     36210
     36207     36205     36209     36211     36208     36207     36205     36209
     36209     36199     36213     36214     36209     36199     36213     36215
     36209     36199     36213     36216     36210     36209     36199     36213
     36210     36209     36211     36212     36211     36209     36199     36213
     36214     36213     36216     36217     36215     36213     36216     36217
     36218     36222     36220     36221     36218     36222     36220     36230
     36218     36222     36220     36234     36218     36223     36225     36238
     36218     36223     36226     36227     36218     36223     36226     36228
     36218     36223     36226     36230     36219     36218     36222     36220
     36219     36218     36223     36224     36219     36218     36223     36225
     36219     36218     36223     36226     36220     36222     36218     36223
     36220     36230     36226     36223     36220     36230     36226     36227
     36220     36230     36226     36228     36220     36230     36232     36233
     36221     36220     36230     36226     36221     36220     36230     36231
     36221     36220     36230     36232     36221     36220     36234     36235
     36221     36220     36234     36236     36221     36220     36234     36237
     36222     36218     36223     36224     36222     36218     36223     36225
     36222     36218     36223     36226     36222     36220     36230     36226
     36222     36220     36230     36231     36222     36220     36230     36232
     36222     36220     36234     36235     36222     36220     36234     36236
     36222     36220     36234     36237     36223     36225     36238     36239
     36223     36225     36238     36242     36223     36225     36238     36243
     36223     36226     36228     36229     36223     36226     36230     36231
     36223     36226     36230     36232     36224     36223     36225     36238
     36224     36223     36226     36227     36224     36223     36226     36228
     36224     36223     36226     36230     36225     36223     36226     36227
     36225     36223     36226     36228     36225     36223     36226     36230
     36225     36238     36242     36240     36225     36238     36243     36244
     36225     36238     36243     36245     36225     36238     36243     36246
     36226     36223     36225     36238     36226     36230     36220     36234
     36226     36230     36232     36233     36227     36226     36228     36229
     36227     36226     36230     36231     36227     36226     36230     36232
     36228     36226     36230     36231     36228     36226     36230     36232
     36229     36228     36226     36230     36230     36220     36234     36235
     36230     36220     36234     36236     36230     36220     36234     36237
     36231     36230     36220     36234     36231     36230     36232     36233
     36232     36230     36220     36234     36238     36242     36240     36241
     36238     36242     36240     36249     36238     36242     36240     36253
     36238     36243     36245     36257     36238     36243     36246     36247
     36238     36243     36246     36248     36238     36243     36246     36249
     36239     36238     36242     36240     36239     36238     36243     36244
     36239     36238     36243     36245     36239     36238     36243     36246
     36240     36242     36238     36243     36240     36249     36246     36243
     36240     36249     36246     36247     36240     36249     36246     36248
     36240     36249     36251     36252     36241     36240     36249     36246
     36241     36240     36249     36250     36241     36240     36249     36251
     36241     36240     36253     36254     36241     36240     36253     36255
     36241     36240     36253     36256     36242     36238     36243     36244
     36242     36238     36243     36245     36242     36238     36243     36246
     36242     36240     36249     36246     36242     36240     36249     36250
     36242     36240     36249     36251     36242     36240     36253     36254
     36242     36240     36253     36255     36242     36240     36253     36256
     36243     36245     36257     36258     36243     36245     36257     36261
     36243     36245     36257     36262     36243     36246     36248     36285
     36243     36246     36249     36250     36243     36246     36249     36251
     36244     36243     36245     36257     36244     36243     36246     36247
     36244     36243     36246     36248     36244     36243     36246     36249
     36245     36243     36246     36247     36245     36243     36246     36248
     36245     36243     36246     36249     36245     36257     36261     36259
     36245     36257     36262     36263     36245     36257     36262     36264
     36245     36257     36262     36272     36246     36243     36245     36257
     36246     36248     36285     36286     36246     36248     36285     36289
     36246     36248     36285     36290     36246     36249     36240     36253
     36246     36249     36251     36252     36247     36246     36248     36285
     36247     36246     36249     36250     36247     36246     36249     36251
     36248     36246     36249     36250     36248     36246     36249     36251
     36248     36285     36289     36287     36248     36285     36290     36291
     36248     36285     36290     36292     36248     36285     36290     36300
     36249     36240     36253     36254     36249     36240     36253     36255
     36249     36240     36253     36256     36249     36246     36248     36285
     36250     36249     36240     36253     36250     36249     36251     36252
     36251     36249     36240     36253     36257     36261     36259     36260
     36257     36261     36259     36276     36257     36261     36259     36280
     36257     36262     36264     36265     36257     36262     36264     36266
     36257     36262     36272     36273     36257     36262     36272     36274
     36257     36262     36272     36276     36258     36257     36261     36259
     36258     36257     36262     36263     36258     36257     36262     36264
     36258     36257     36262     36272     36259     36261     36257     36262
     36259     36276     36272     36262     36259     36276     36272     36273
     36259     36276     36272     36274     36259     36276     36278     36279
     36259     36280     36283     36284     36260     36259     36276     36272
     36260     36259     36276     36277     36260     36259     36276     36278
     36260     36259     36280     36281     36260     36259     36280     36282
     36260     36259     36280     36283     36261     36257     36262     36263
     36261     36257     36262     36264     36261     36257     36262     36272
     36261     36259     36276     36272     36261     36259     36276     36277
     36261     36259     36276     36278     36261     36259     36280     36281
     36261     36259     36280     36282     36261     36259     36280     36283
     36262     36264     36266     36267     36262     36264     36266     36268
     36262     36272     36274     36275     36262     36272     36276     36277
     36262     36272     36276     36278     36263     36262     36264     36265
     36263     36262     36264     36266     36263     36262     36272     36273
     36263     36262     36272     36274     36263     36262     36272     36276
     36264     36262     36272     36273     36264     36262     36272     36274
     36264     36262     36272     36276     36264     36266     36268     36269
     36264     36266     36268     36270     36264     36266     36268     36271
     36265     36264     36262     36272     36265     36264     36266     36267
     36265     36264     36266     36268     36266     36264     36262     36272
     36267     36266     36268     36269     36267     36266     36268     36270
     36267     36266     36268     36271     36272     36276     36259     36280
     36272     36276     36278     36279     36273     36272     36274     36275
     36273     36272     36276     36277     36273     36272     36276     36278
     36274     36272     36276     36277     36274     36272     36276     36278
     36275     36274     36272     36276     36276     36259     36280     36281
     36276     36259     36280     36282     36276     36259     36280     36283
     36277     36276     36259     36280     36277     36276     36278     36279
     36278     36276     36259     36280     36281     36280     36283     36284
     36282     36280     36283     36284     36285     36289     36287     36288
     36285     36289     36287     36303     36285     36289     36287     36307
     36285     36290     36292     36293     36285     36290     36292     36294
     36285     36290     36300     36301     36285     36290     36300     36302
     36285     36290     36300     36303     36286     36285     36289     36287
     36286     36285     36290     36291     36286     36285     36290     36292
     36286     36285     36290     36300     36287     36289     36285     36290
     36287     36303     36300     36290     36287     36303     36300     36301
     36287     36303     36300     36302     36287     36303     36305     36306
     36287     36307     36310     36311     36288     36287     36303     36300
     36288     36287     36303     36304     36288     36287     36303     36305
     36288     36287     36307     36308     36288     36287     36307     36309
     36288     36287     36307     36310     36289     36285     36290     36291
     36289     36285     36290     36292     36289     36285     36290     36300
     36289     36287     36303     36300     36289     36287     36303     36304
     36289     36287     36303     36305     36289     36287     36307     36308
     36289     36287     36307     36309     36289     36287     36307     36310
     36290     36292     36294     36295     36290     36292     36294     36296
     36290     36300     36302     36312     36290     36300     36303     36304
     36290     36300     36303     36305     36291     36290     36292     36293
     36291     36290     36292     36294     36291     36290     36300     36301
     36291     36290     36300     36302     36291     36290     36300     36303
     36292     36290     36300     36301     36292     36290     36300     36302
     36292     36290     36300     36303     36292     36294     36296     36297
     36292     36294     36296     36298     36292     36294     36296     36299
     36293     36292     36290     36300     36293     36292     36294     36295
     36293     36292     36294     36296     36294     36292     36290     36300
     36295     36294     36296     36297     36295     36294     36296     36298
     36295     36294     36296     36299     36300     36302     36312     36313
     36300     36302     36312     36316     36300     36302     36312     36317
     36300     36303     36287     36307     36300     36303     36305     36306
     36301     36300     36302     36312     36301     36300     36303     36304
     36301     36300     36303     36305     36302     36300     36303     36304
     36302     36300     36303     36305     36302     36312     36316     36314
     36302     36312     36317     36318     36302     36312     36317     36319
     36302     36312     36317     36320     36303     36287     36307     36308
     36303     36287     36307     36309     36303     36287     36307     36310
     36303     36300     36302     36312     36304     36303     36287     36307
     36304     36303     36305     36306     36305     36303     36287     36307
     36308     36307     36310     36311     36309     36307     36310     36311
     36312     36316     36314     36315     36312     36316     36314     36324
     36312     36316     36314     36328     36312     36317     36319     36333
     36312     36317     36320     36321     36312     36317     36320     36322
     36312     36317     36320     36324     36313     36312     36316     36314
     36313     36312     36317     36318     36313     36312     36317     36319
     36313     36312     36317     36320     36314     36316     36312     36317
     36314     36324     36320     36317     36314     36324     36320     36321
     36314     36324     36320     36322     36314     36324     36326     36327
     36314     36328     36331     36332     36315     36314     36324     36320
     36315     36314     36324     36325     36315     36314     36324     36326
     36315     36314     36328     36329     36315     36314     36328     36330
     36315     36314     36328     36331     36316     36312     36317     36318
     36316     36312     36317     36319     36316     36312     36317     36320
     36316     36314     36324     36320     36316     36314     36324     36325
     36316     36314     36324     36326     36316     36314     36328     36329
     36316     36314     36328     36330     36316     36314     36328     36331
     36317     36319     36333     36334     36317     36319     36333     36337
     36317     36319     36333     36338     36317     36320     36322     36323
     36317     36320     36324     36325     36317     36320     36324     36326
     36318     36317     36319     36333     36318     36317     36320     36321
     36318     36317     36320     36322     36318     36317     36320     36324
     36319     36317     36320     36321     36319     36317     36320     36322
     36319     36317     36320     36324     36319     36333     36337     36335
     36319     36333     36338     36339     36319     36333     36338     36340
     36319     36333     36338     36341     36320     36317     36319     36333
     36320     36324     36314     36328     36320     36324     36326     36327
     36321     36320     36322     36323     36321     36320     36324     36325
     36321     36320     36324     36326     36322     36320     36324     36325
     36322     36320     36324     36326     36323     36322     36320     36324
     36324     36314     36328     36329     36324     36314     36328     36330
     36324     36314     36328     36331     36325     36324     36314     36328
     36325     36324     36326     36327     36326     36324     36314     36328
     36329     36328     36331     36332     36330     36328     36331     36332
     36333     36337     36335     36336     36333     36337     36335     36345
     36333     36337     36335     36349     36333     36338     36340     36353
     36333     36338     36341     36342     36333     36338     36341     36343
     36333     36338     36341     36345     36334     36333     36337     36335
     36334     36333     36338     36339     36334     36333     36338     36340
     36334     36333     36338     36341     36335     36337     36333     36338
     36335     36345     36341     36338     36335     36345     36341     36342
     36335     36345     36341     36343     36335     36345     36347     36348
     36336     36335     36345     36341     36336     36335     36345     36346
     36336     36335     36345     36347     36336     36335     36349     36350
     36336     36335     36349     36351     36336     36335     36349     36352
     36337     36333     36338     36339     36337     36333     36338     36340
     36337     36333     36338     36341     36337     36335     36345     36341
     36337     36335     36345     36346     36337     36335     36345     36347
     36337     36335     36349     36350     36337     36335     36349     36351
     36337     36335     36349     36352     36338     36340     36353     36354
     36338     36340     36353     36357     36338     36340     36353     36358
     36338     36341     36343     36344     36338     36341     36345     36346
     36338     36341     36345     36347     36339     36338     36340     36353
     36339     36338     36341     36342     36339     36338     36341     36343
     36339     36338     36341     36345     36340     36338     36341     36342
     36340     36338     36341     36343     36340     36338     36341     36345
     36340     36353     36357     36355     36340     36353     36358     36359
     36340     36353     36358     36360     36340     36353     36358     36361
     36341     36338     36340     36353     36341     36345     36335     36349
     36341     36345     36347     36348     36342     36341     36343     36344
     36342     36341     36345     36346     36342     36341     36345     36347
     36343     36341     36345     36346     36343     36341     36345     36347
     36344     36343     36341     36345     36345     36335     36349     36350
     36345     36335     36349     36351     36345     36335     36349     36352
     36346     36345     36335     36349     36346     36345     36347     36348
     36347     36345     36335     36349     36353     36357     36355     36356
     36353     36357     36355     36364     36353     36357     36355     36368
     36353     36358     36360     36372     36353     36358     36361     36362
     36353     36358     36361     36363     36353     36358     36361     36364
     36354     36353     36357     36355     36354     36353     36358     36359
     36354     36353     36358     36360     36354     36353     36358     36361
     36355     36357     36353     36358     36355     36364     36361     36358
     36355     36364     36361     36362     36355     36364     36361     36363
     36355     36364     36366     36367     36356     36355     36364     36361
     36356     36355     36364     36365     36356     36355     36364     36366
     36356     36355     36368     36369     36356     36355     36368     36370
     36356     36355     36368     36371     36357     36353     36358     36359
     36357     36353     36358     36360     36357     36353     36358     36361
     36357     36355     36364     36361     36357     36355     36364     36365
     36357     36355     36364     36366     36357     36355     36368     36369
     36357     36355     36368     36370     36357     36355     36368     36371
     36358     36360     36372     36373     36358     36360     36372     36376
     36358     36360     36372     36377     36358     36361     36363     36400
     36358     36361     36364     36365     36358     36361     36364     36366
     36359     36358     36360     36372     36359     36358     36361     36362
     36359     36358     36361     36363     36359     36358     36361     36364
     36360     36358     36361     36362     36360     36358     36361     36363
     36360     36358     36361     36364     36360     36372     36376     36374
     36360     36372     36377     36378     36360     36372     36377     36379
     36360     36372     36377     36387     36361     36358     36360     36372
     36361     36363     36400     36401     36361     36363     36400     36404
     36361     36363     36400     36405     36361     36364     36355     36368
     36361     36364     36366     36367     36362     36361     36363     36400
     36362     36361     36364     36365     36362     36361     36364     36366
     36363     36361     36364     36365     36363     36361     36364     36366
     36363     36400     36404     36402     36363     36400     36405     36406
     36363     36400     36405     36407     36363     36400     36405     36415
     36364     36355     36368     36369     36364     36355     36368     36370
     36364     36355     36368     36371     36364     36361     36363     36400
     36365     36364     36355     36368     36365     36364     36366     36367
     36366     36364     36355     36368     36372     36376     36374     36375
     36372     36376     36374     36391     36372     36376     36374     36395
     36372     36377     36379     36380     36372     36377     36379     36381
     36372     36377     36387     36388     36372     36377     36387     36389
     36372     36377     36387     36391     36373     36372     36376     36374
     36373     36372     36377     36378     36373     36372     36377     36379
     36373     36372     36377     36387     36374     36376     36372     36377
     36374     36391     36387     36377     36374     36391     36387     36388
     36374     36391     36387     36389     36374     36391     36393     36394
     36374     36395     36398     36399     36375     36374     36391     36387
     36375     36374     36391     36392     36375     36374     36391     36393
     36375     36374     36395     36396     36375     36374     36395     36397
     36375     36374     36395     36398     36376     36372     36377     36378
     36376     36372     36377     36379     36376     36372     36377     36387
     36376     36374     36391     36387     36376     36374     36391     36392
     36376     36374     36391     36393     36376     36374     36395     36396
     36376     36374     36395     36397     36376     36374     36395     36398
     36377     36379     36381     36382     36377     36379     36381     36383
     36377     36387     36389     36390     36377     36387     36391     36392
     36377     36387     36391     36393     36378     36377     36379     36380
     36378     36377     36379     36381     36378     36377     36387     36388
     36378     36377     36387     36389     36378     36377     36387     36391
     36379     36377     36387     36388     36379     36377     36387     36389
     36379     36377     36387     36391     36379     36381     36383     36384
     36379     36381     36383     36385     36379     36381     36383     36386
     36380     36379     36377     36387     36380     36379     36381     36382
     36380     36379     36381     36383     36381     36379     36377     36387
     36382     36381     36383     36384     36382     36381     36383     36385
     36382     36381     36383     36386     36387     36391     36374     36395
     36387     36391     36393     36394     36388     36387     36389     36390
     36388     36387     36391     36392     36388     36387     36391     36393
     36389     36387     36391     36392     36389     36387     36391     36393
     36390     36389     36387     36391     36391     36374     36395     36396
     36391     36374     36395     36397     36391     36374     36395     36398
     36392     36391     36374     36395     36392     36391     36393     36394
     36393     36391     36374     36395     36396     36395     36398     36399
     36397     36395     36398     36399     36400     36404     36402     36403
     36400     36404     36402     36418     36400     36404     36402     36422
     36400     36405     36407     36408     36400     36405     36407     36409
     36400     36405     36415     36416     36400     36405     36415     36417
     36400     36405     36415     36418     36401     36400     36404     36402
     36401     36400     36405     36406     36401     36400     36405     36407
     36401     36400     36405     36415     36402     36404     36400     36405
     36402     36418     36415     36405     36402     36418     36415     36416
     36402     36418     36415     36417     36402     36418     36420     36421
     36402     36422     36425     36426     36403     36402     36418     36415
     36403     36402     36418     36419     36403     36402     36418     36420
     36403     36402     36422     36423     36403     36402     36422     36424
     36403     36402     36422     36425     36404     36400     36405     36406
     36404     36400     36405     36407     36404     36400     36405     36415
     36404     36402     36418     36415     36404     36402     36418     36419
     36404     36402     36418     36420     36404     36402     36422     36423
     36404     36402     36422     36424     36404     36402     36422     36425
     36405     36407     36409     36410     36405     36407     36409     36411
     36405     36415     36417     36427     36405     36415     36418     36419
     36405     36415     36418     36420     36406     36405     36407     36408
     36406     36405     36407     36409     36406     36405     36415     36416
     36406     36405     36415     36417     36406     36405     36415     36418
     36407     36405     36415     36416     36407     36405     36415     36417
     36407     36405     36415     36418     36407     36409     36411     36412
     36407     36409     36411     36413     36407     36409     36411     36414
     36408     36407     36405     36415     36408     36407     36409     36410
     36408     36407     36409     36411     36409     36407     36405     36415
     36410     36409     36411     36412     36410     36409     36411     36413
     36410     36409     36411     36414     36415     36417     36427     36428
     36415     36417     36427     36431     36415     36417     36427     36432
     36415     36418     36402     36422     36415     36418     36420     36421
     36416     36415     36417     36427     36416     36415     36418     36419
     36416     36415     36418     36420     36417     36415     36418     36419
     36417     36415     36418     36420     36417     36427     36431     36429
     36417     36427     36432     36433     36417     36427     36432     36434
     36417     36427     36432     36435     36418     36402     36422     36423
     36418     36402     36422     36424     36418     36402     36422     36425
     36418     36415     36417     36427     36419     36418     36402     36422
     36419     36418     36420     36421     36420     36418     36402     36422
     36423     36422     36425     36426     36424     36422     36425     36426
     36427     36431     36429     36430     36427     36431     36429     36439
     36427     36431     36429     36443     36427     36432     36434     36448
     36427     36432     36435     36436     36427     36432     36435     36437
     36427     36432     36435     36439     36428     36427     36431     36429
     36428     36427     36432     36433     36428     36427     36432     36434
     36428     36427     36432     36435     36429     36431     36427     36432
     36429     36439     36435     36432     36429     36439     36435     36436
     36429     36439     36435     36437     36429     36439     36441     36442
     36429     36443     36446     36447     36430     36429     36439     36435
     36430     36429     36439     36440     36430     36429     36439     36441
     36430     36429     36443     36444     36430     36429     36443     36445
     36430     36429     36443     36446     36431     36427     36432     36433
     36431     36427     36432     36434     36431     36427     36432     36435
     36431     36429     36439     36435     36431     36429     36439     36440
     36431     36429     36439     36441     36431     36429     36443     36444
     36431     36429     36443     36445     36431     36429     36443     36446
     36432     36434     36448     36449     36432     36434     36448     36452
     36432     36434     36448     36453     36432     36435     36437     36438
     36432     36435     36439     36440     36432     36435     36439     36441
     36433     36432     36434     36448     36433     36432     36435     36436
     36433     36432     36435     36437     36433     36432     36435     36439
     36434     36432     36435     36436     36434     36432     36435     36437
     36434     36432     36435     36439     36434     36448     36452     36450
     36434     36448     36453     36454     36434     36448     36453     36455
     36434     36448     36453     36456     36435     36432     36434     36448
     36435     36439     36429     36443     36435     36439     36441     36442
     36436     36435     36437     36438     36436     36435     36439     36440
     36436     36435     36439     36441     36437     36435     36439     36440
     36437     36435     36439     36441     36438     36437     36435     36439
     36439     36429     36443     36444     36439     36429     36443     36445
     36439     36429     36443     36446     36440     36439     36429     36443
     36440     36439     36441     36442     36441     36439     36429     36443
     36444     36443     36446     36447     36445     36443     36446     36447
     36448     36452     36450     36451     36448     36452     36450     36460
     36448     36452     36450     36464     36448     36453     36455     36468
     36448     36453     36456     36457     36448     36453     36456     36458
     36448     36453     36456     36460     36449     36448     36452     36450
     36449     36448     36453     36454     36449     36448     36453     36455
     36449     36448     36453     36456     36450     36452     36448     36453
     36450     36460     36456     36453     36450     36460     36456     36457
     36450     36460     36456     36458     36450     36460     36462     36463
     36451     36450     36460     36456     36451     36450     36460     36461
     36451     36450     36460     36462     36451     36450     36464     36465
     36451     36450     36464     36466     36451     36450     36464     36467
     36452     36448     36453     36454     36452     36448     36453     36455
     36452     36448     36453     36456     36452     36450     36460     36456
     36452     36450     36460     36461     36452     36450     36460     36462
     36452     36450     36464     36465     36452     36450     36464     36466
     36452     36450     36464     36467     36453     36455     36468     36469
     36453     36455     36468     36472     36453     36455     36468     36473
     36453     36456     36458     36459     36453     36456     36460     36461
     36453     36456     36460     36462     36454     36453     36455     36468
     36454     36453     36456     36457     36454     36453     36456     36458
     36454     36453     36456     36460     36455     36453     36456     36457
     36455     36453     36456     36458     36455     36453     36456     36460
     36455     36468     36472     36470     36455     36468     36473     36474
     36455     36468     36473     36475     36455     36468     36473     36476
     36456     36453     36455     36468     36456     36460     36450     36464
     36456     36460     36462     36463     36457     36456     36458     36459
     36457     36456     36460     36461     36457     36456     36460     36462
     36458     36456     36460     36461     36458     36456     36460     36462
     36459     36458     36456     36460     36460     36450     36464     36465
     36460     36450     36464     36466     36460     36450     36464     36467
     36461     36460     36450     36464     36461     36460     36462     36463
     36462     36460     36450     36464     36468     36472     36470     36471
     36468     36472     36470     36479     36468     36472     36470     36483
     36468     36473     36475     36487     36468     36473     36476     36477
     36468     36473     36476     36478     36468     36473     36476     36479
     36469     36468     36472     36470     36469     36468     36473     36474
     36469     36468     36473     36475     36469     36468     36473     36476
     36470     36472     36468     36473     36470     36479     36476     36473
     36470     36479     36476     36477     36470     36479     36476     36478
     36470     36479     36481     36482     36471     36470     36479     36476
     36471     36470     36479     36480     36471     36470     36479     36481
     36471     36470     36483     36484     36471     36470     36483     36485
     36471     36470     36483     36486     36472     36468     36473     36474
     36472     36468     36473     36475     36472     36468     36473     36476
     36472     36470     36479     36476     36472     36470     36479     36480
     36472     36470     36479     36481     36472     36470     36483     36484
     36472     36470     36483     36485     36472     36470     36483     36486
     36473     36475     36487     36488     36473     36475     36487     36491
     36473     36475     36487     36492     36473     36476     36478     36515
     36473     36476     36479     36480     36473     36476     36479     36481
     36474     36473     36475     36487     36474     36473     36476     36477
     36474     36473     36476     36478     36474     36473     36476     36479
     36475     36473     36476     36477     36475     36473     36476     36478
     36475     36473     36476     36479     36475     36487     36491     36489
     36475     36487     36492     36493     36475     36487     36492     36494
     36475     36487     36492     36502     36476     36473     36475     36487
     36476     36478     36515     36516     36476     36478     36515     36519
     36476     36478     36515     36520     36476     36479     36470     36483
     36476     36479     36481     36482     36477     36476     36478     36515
     36477     36476     36479     36480     36477     36476     36479     36481
     36478     36476     36479     36480     36478     36476     36479     36481
     36478     36515     36519     36517     36478     36515     36520     36521
     36478     36515     36520     36522     36478     36515     36520     36530
     36479     36470     36483     36484     36479     36470     36483     36485
     36479     36470     36483     36486     36479     36476     36478     36515
     36480     36479     36470     36483     36480     36479     36481     36482
     36481     36479     36470     36483     36487     36491     36489     36490
     36487     36491     36489     36506     36487     36491     36489     36510
     36487     36492     36494     36495     36487     36492     36494     36496
     36487     36492     36502     36503     36487     36492     36502     36504
     36487     36492     36502     36506     36488     36487     36491     36489
     36488     36487     36492     36493     36488     36487     36492     36494
     36488     36487     36492     36502     36489     36491     36487     36492
     36489     36506     36502     36492     36489     36506     36502     36503
     36489     36506     36502     36504     36489     36506     36508     36509
     36489     36510     36513     36514     36490     36489     36506     36502
     36490     36489     36506     36507     36490     36489     36506     36508
     36490     36489     36510     36511     36490     36489     36510     36512
     36490     36489     36510     36513     36491     36487     36492     36493
     36491     36487     36492     36494     36491     36487     36492     36502
     36491     36489     36506     36502     36491     36489     36506     36507
     36491     36489     36506     36508     36491     36489     36510     36511
     36491     36489     36510     36512     36491     36489     36510     36513
     36492     36494     36496     36497     36492     36494     36496     36498
     36492     36502     36504     36505     36492     36502     36506     36507
     36492     36502     36506     36508     36493     36492     36494     36495
     36493     36492     36494     36496     36493     36492     36502     36503
     36493     36492     36502     36504     36493     36492     36502     36506
     36494     36492     36502     36503     36494     36492     36502     36504
     36494     36492     36502     36506     36494     36496     36498     36499
     36494     36496     36498     36500     36494     36496     36498     36501
     36495     36494     36492     36502     36495     36494     36496     36497
     36495     36494     36496     36498     36496     36494     36492     36502
     36497     36496     36498     36499     36497     36496     36498     36500
     36497     36496     36498     36501     36502     36506     36489     36510
     36502     36506     36508     36509     36503     36502     36504     36505
     36503     36502     36506     36507     36503     36502     36506     36508
     36504     36502     36506     36507     36504     36502     36506     36508
     36505     36504     36502     36506     36506     36489     36510     36511
     36506     36489     36510     36512     36506     36489     36510     36513
     36507     36506     36489     36510     36507     36506     36508     36509
     36508     36506     36489     36510     36511     36510     36513     36514
     36512     36510     36513     36514     36515     36519     36517     36518
     36515     36519     36517     36533     36515     36519     36517     36537
     36515     36520     36522     36523     36515     36520     36522     36524
     36515     36520     36530     36531     36515     36520     36530     36532
     36515     36520     36530     36533     36516     36515     36519     36517
     36516     36515     36520     36521     36516     36515     36520     36522
     36516     36515     36520     36530     36517     36519     36515     36520
     36517     36533     36530     36520     36517     36533     36530     36531
     36517     36533     36530     36532     36517     36533     36535     36536
     36517     36537     36540     36541     36518     36517     36533     36530
     36518     36517     36533     36534     36518     36517     36533     36535
     36518     36517     36537     36538     36518     36517     36537     36539
     36518     36517     36537     36540     36519     36515     36520     36521
     36519     36515     36520     36522     36519     36515     36520     36530
     36519     36517     36533     36530     36519     36517     36533     36534
     36519     36517     36533     36535     36519     36517     36537     36538
     36519     36517     36537     36539     36519     36517     36537     36540
     36520     36522     36524     36525     36520     36522     36524     36526
     36520     36530     36532     36542     36520     36530     36533     36534
     36520     36530     36533     36535     36521     36520     36522     36523
     36521     36520     36522     36524     36521     36520     36530     36531
     36521     36520     36530     36532     36521     36520     36530     36533
     36522     36520     36530     36531     36522     36520     36530     36532
     36522     36520     36530     36533     36522     36524     36526     36527
     36522     36524     36526     36528     36522     36524     36526     36529
     36523     36522     36520     36530     36523     36522     36524     36525
     36523     36522     36524     36526     36524     36522     36520     36530
     36525     36524     36526     36527     36525     36524     36526     36528
     36525     36524     36526     36529     36530     36532     36542     36543
     36530     36532     36542     36546     36530     36532     36542     36547
     36530     36533     36517     36537     36530     36533     36535     36536
     36531     36530     36532     36542     36531     36530     36533     36534
     36531     36530     36533     36535     36532     36530     36533     36534
     36532     36530     36533     36535     36532     36542     36546     36544
     36532     36542     36547     36548     36532     36542     36547     36549
     36532     36542     36547     36550     36533     36517     36537     36538
     36533     36517     36537     36539     36533     36517     36537     36540
     36533     36530     36532     36542     36534     36533     36517     36537
     36534     36533     36535     36536     36535     36533     36517     36537
     36538     36537     36540     36541     36539     36537     36540     36541
     36542     36546     36544     36545     36542     36546     36544     36554
     36542     36546     36544     36558     36542     36547     36549     36563
     36542     36547     36550     36551     36542     36547     36550     36552
     36542     36547     36550     36554     36543     36542     36546     36544
     36543     36542     36547     36548     36543     36542     36547     36549
     36543     36542     36547     36550     36544     36546     36542     36547
     36544     36554     36550     36547     36544     36554     36550     36551
     36544     36554     36550     36552     36544     36554     36556     36557
     36544     36558     36561     36562     36545     36544     36554     36550
     36545     36544     36554     36555     36545     36544     36554     36556
     36545     36544     36558     36559     36545     36544     36558     36560
     36545     36544     36558     36561     36546     36542     36547     36548
     36546     36542     36547     36549     36546     36542     36547     36550
     36546     36544     36554     36550     36546     36544     36554     36555
     36546     36544     36554     36556     36546     36544     36558     36559
     36546     36544     36558     36560     36546     36544     36558     36561
     36547     36549     36563     36564     36547     36549     36563     36567
     36547     36549     36563     36568     36547     36550     36552     36553
     36547     36550     36554     36555     36547     36550     36554     36556
     36548     36547     36549     36563     36548     36547     36550     36551
     36548     36547     36550     36552     36548     36547     36550     36554
     36549     36547     36550     36551     36549     36547     36550     36552
     36549     36547     36550     36554     36549     36563     36567     36565
     36549     36563     36568     36569     36549     36563     36568     36570
     36549     36563     36568     36571     36550     36547     36549     36563
     36550     36554     36544     36558     36550     36554     36556     36557
     36551     36550     36552     36553     36551     36550     36554     36555
     36551     36550     36554     36556     36552     36550     36554     36555
     36552     36550     36554     36556     36553     36552     36550     36554
     36554     36544     36558     36559     36554     36544     36558     36560
     36554     36544     36558     36561     36555     36554     36544     36558
     36555     36554     36556     36557     36556     36554     36544     36558
     36559     36558     36561     36562     36560     36558     36561     36562
     36563     36567     36565     36566     36563     36567     36565     36575
     36563     36567     36565     36579     36563     36568     36570     36583
     36563     36568     36571     36572     36563     36568     36571     36573
     36563     36568     36571     36575     36564     36563     36567     36565
     36564     36563     36568     36569     36564     36563     36568     36570
     36564     36563     36568     36571     36565     36567     36563     36568
     36565     36575     36571     36568     36565     36575     36571     36572
     36565     36575     36571     36573     36565     36575     36577     36578
     36566     36565     36575     36571     36566     36565     36575     36576
     36566     36565     36575     36577     36566     36565     36579     36580
     36566     36565     36579     36581     36566     36565     36579     36582
     36567     36563     36568     36569     36567     36563     36568     36570
     36567     36563     36568     36571     36567     36565     36575     36571
     36567     36565     36575     36576     36567     36565     36575     36577
     36567     36565     36579     36580     36567     36565     36579     36581
     36567     36565     36579     36582     36568     36570     36583     36584
     36568     36570     36583     36587     36568     36570     36583     36588
     36568     36571     36573     36574     36568     36571     36575     36576
     36568     36571     36575     36577     36569     36568     36570     36583
     36569     36568     36571     36572     36569     36568     36571     36573
     36569     36568     36571     36575     36570     36568     36571     36572
     36570     36568     36571     36573     36570     36568     36571     36575
     36570     36583     36587     36585     36570     36583     36588     36589
     36570     36583     36588     36590     36570     36583     36588     36591
     36571     36568     36570     36583     36571     36575     36565     36579
     36571     36575     36577     36578     36572     36571     36573     36574
     36572     36571     36575     36576     36572     36571     36575     36577
     36573     36571     36575     36576     36573     36571     36575     36577
     36574     36573     36571     36575     36575     36565     36579     36580
     36575     36565     36579     36581     36575     36565     36579     36582
     36576     36575     36565     36579     36576     36575     36577     36578
     36577     36575     36565     36579     36583     36587     36585     36586
     36583     36587     36585     36595     36583     36587     36585     36599
     36583     36588     36590     36603     36583     36588     36591     36592
     36583     36588     36591     36593     36583     36588     36591     36595
     36584     36583     36587     36585     36584     36583     36588     36589
     36584     36583     36588     36590     36584     36583     36588     36591
     36585     36587     36583     36588     36585     36595     36591     36588
     36585     36595     36591     36592     36585     36595     36591     36593
     36585     36595     36597     36598     36586     36585     36595     36591
     36586     36585     36595     36596     36586     36585     36595     36597
     36586     36585     36599     36600     36586     36585     36599     36601
     36586     36585     36599     36602     36587     36583     36588     36589
     36587     36583     36588     36590     36587     36583     36588     36591
     36587     36585     36595     36591     36587     36585     36595     36596
     36587     36585     36595     36597     36587     36585     36599     36600
     36587     36585     36599     36601     36587     36585     36599     36602
     36588     36590     36603     36604     36588     36590     36603     36607
     36588     36590     36603     36608     36588     36591     36593     36594
     36588     36591     36595     36596     36588     36591     36595     36597
     36589     36588     36590     36603     36589     36588     36591     36592
     36589     36588     36591     36593     36589     36588     36591     36595
     36590     36588     36591     36592     36590     36588     36591     36593
     36590     36588     36591     36595     36590     36603     36607     36605
     36590     36603     36608     36609     36590     36603     36608     36610
     36590     36603     36608     36618     36591     36588     36590     36603
     36591     36595     36585     36599     36591     36595     36597     36598
     36592     36591     36593     36594     36592     36591     36595     36596
     36592     36591     36595     36597     36593     36591     36595     36596
     36593     36591     36595     36597     36594     36593     36591     36595
     36595     36585     36599     36600     36595     36585     36599     36601
     36595     36585     36599     36602     36596     36595     36585     36599
     36596     36595     36597     36598     36597     36595     36585     36599
     36603     36607     36605     36606     36603     36607     36605     36622
     36603     36607     36605     36626     36603     36608     36610     36611
     36603     36608     36610     36612     36603     36608     36618     36619
     36603     36608     36618     36620     36603     36608     36618     36622
     36604     36603     36607     36605     36604     36603     36608     36609
     36604     36603     36608     36610     36604     36603     36608     36618
     36605     36607     36603     36608     36605     36622     36618     36608
     36605     36622     36618     36619     36605     36622     36618     36620
     36605     36622     36624     36625     36605     36626     36629     36630
     36606     36605     36622     36618     36606     36605     36622     36623
     36606     36605     36622     36624     36606     36605     36626     36627
     36606     36605     36626     36628     36606     36605     36626     36629
     36607     36603     36608     36609     36607     36603     36608     36610
     36607     36603     36608     36618     36607     36605     36622     36618
     36607     36605     36622     36623     36607     36605     36622     36624
     36607     36605     36626     36627     36607     36605     36626     36628
     36607     36605     36626     36629     36608     36610     36612     36613
     36608     36610     36612     36614     36608     36618     36620     36621
     36608     36618     36622     36623     36608     36618     36622     36624
     36609     36608     36610     36611     36609     36608     36610     36612
     36609     36608     36618     36619     36609     36608     36618     36620
     36609     36608     36618     36622     36610     36608     36618     36619
     36610     36608     36618     36620     36610     36608     36618     36622
     36610     36612     36614     36615     36610     36612     36614     36616
     36610     36612     36614     36617     36611     36610     36608     36618
     36611     36610     36612     36613     36611     36610     36612     36614
     36612     36610     36608     36618     36613     36612     36614     36615
     36613     36612     36614     36616     36613     36612     36614     36617
     36618     36622     36605     36626     36618     36622     36624     36625
     36619     36618     36620     36621     36619     36618     36622     36623
     36619     36618     36622     36624     36620     36618     36622     36623
     36620     36618     36622     36624     36621     36620     36618     36622
     36622     36605     36626     36627     36622     36605     36626     36628
     36622     36605     36626     36629     36623     36622     36605     36626
     36623     36622     36624     36625     36624     36622     36605     36626
     36627     36626     36629     36630     36628     36626     36629     36630
     36631     36633     36632     36930     36631     36633     36635     36636
     36631     36633     36635     36637     36631     36633     36635     36644
     36632     36633     36635     36636     36632     36633     36635     36637
     36632     36633     36635     36644     36632     36930     36927     36928
     36632     36930     36927     36929     36632     36930     36933     36931
     36632     36930     36934     36935     36632     36930     36934     36936
     36632     36930     36934     36937     36633     36632     36930     36927
     36633     36632     36930     36933     36633     36632     36930     36934
     36633     36635     36636     36638     36633     36635     36644     36645
     36633     36635     36644     36646     36633     36635     36644     36651
     36634     36633     36632     36930     36634     36633     36635     36636
     36634     36633     36635     36637     36634     36633     36635     36644
     36635     36633     36632     36930     36635     36636     36638     36639
     36635     36636     36638     36640     36635     36636     36638     36659
     36635     36644     36646     36647     36635     36644     36651     36652
     36635     36644     36651     36653     36635     36644     36651     36659
     36636     36635     36644     36645     36636     36635     36644     36646
     36636     36635     36644     36651     36636     36638     36640     36641
     36636     36638     36659     36651     36636     36638     36659     36660
     36636     36638     36659     36661     36637     36635     36636     36638
     36637     36635     36644     36645     36637     36635     36644     36646
     36637     36635     36644     36651     36638     36636     36635     36644
     36638     36640     36641     36642     36638     36640     36641     36643
     36638     36640     36641     36667     36638     36659     36651     36644
     36638     36659     36651     36652     36638     36659     36651     36653
     36638     36659     36661     36662     36638     36659     36661     36768
     36639     36638     36640     36641     36639     36638     36659     36651
     36639     36638     36659     36660     36639     36638     36659     36661
     36640     36638     36659     36651     36640     36638     36659     36660
     36640     36638     36659     36661     36640     36641     36667     36663
     36640     36641     36667     36668     36640     36641     36667     36669
     36641     36640     36638     36659     36641     36667     36663     36664
     36641     36667     36663     36665     36641     36667     36663     36677
     36641     36667     36669     36670     36642     36641     36667     36663
     36642     36641     36667     36668     36642     36641     36667     36669
     36643     36641     36667     36663     36643     36641     36667     36668
     36643     36641     36667     36669     36644     36646     36647     36648
     36644     36646     36647     36649     36644     36646     36647     36650
     36644     36651     36652     36654     36644     36651     36659     36660
     36644     36651     36659     36661     36645     36644     36646     36647
     36645     36644     36651     36652     36645     36644     36651     36653
     36645     36644     36651     36659     36646     36644     36651     36652
     36646     36644     36651     36653     36646     36644     36651     36659
     36647     36646     36644     36651     36651     36652     36654     36655
     36651     36652     36654     36656     36651     36659     36661     36662
     36651     36659     36661     36768     36652     36651     36659     36660
     36652     36651     36659     36661     36652     36654     36656     36657
     36652     36654     36656     36658     36652     36654     36656     36689
     36653     36651     36652     36654     36653     36651     36659     36660
     36653     36651     36659     36661     36654     36652     36651     36659
     36654     36656     36689     36690     36654     36656     36689     36691
     36654     36656     36689     36734     36655     36654     36656     36657
     36655     36654     36656     36658     36655     36654     36656     36689
     36656     36689     36691     36692     36656     36689     36734     36735
     36656     36689     36734     36736     36656     36689     36734     36737
     36657     36656     36689     36690     36657     36656     36689     36691
     36657     36656     36689     36734     36658     36656     36689     36690
     36658     36656     36689     36691     36658     36656     36689     36734
     36659     36661     36768     36769     36659     36661     36768     36770
     36660     36659     36661     36662     36660     36659     36661     36768
     36661     36768     36770     36771     36661     36768     36770     36772
     36661     36768     36770     36773     36662     36661     36768     36769
     36662     36661     36768     36770     36663     36667     36669     36670
     36663     36677     36679     36680     36663     36677     36685     36670
     36663     36677     36685     36686     36663     36677     36685     36687
     36664     36663     36665     36666     36664     36663     36667     36668
     36664     36663     36667     36669     36664     36663     36677     36678
     36664     36663     36677     36679     36664     36663     36677     36685
     36665     36663     36667     36668     36665     36663     36667     36669
     36665     36663     36677     36678     36665     36663     36677     36679
     36665     36663     36677     36685     36666     36665     36663     36667
     36666     36665     36663     36677     36667     36663     36677     36678
     36667     36663     36677     36679     36667     36663     36677     36685
     36667     36669     36670     36671     36667     36669     36670     36672
     36667     36669     36670     36685     36668     36667     36663     36677
     36668     36667     36669     36670     36669     36667     36663     36677
     36669     36670     36672     36676     36669     36670     36685     36677
     36669     36670     36685     36686     36669     36670     36685     36687
     36670     36672     36676     36673     36670     36672     36676     36674
     36670     36672     36676     36675     36670     36685     36677     36678
     36670     36685     36677     36679     36670     36685     36687     36688
     36670     36685     36687     36884     36671     36670     36672     36676
     36671     36670     36685     36677     36671     36670     36685     36686
     36671     36670     36685     36687     36672     36670     36685     36677
     36672     36670     36685     36686     36672     36670     36685     36687
     36676     36672     36670     36685     36677     36679     36680     36681
     36677     36679     36680     36682     36677     36685     36687     36688
     36677     36685     36687     36884     36678     36677     36679     36680
     36678     36677     36685     36686     36678     36677     36685     36687
     36679     36677     36685     36686     36679     36677     36685     36687
     36679     36680     36682     36683     36679     36680     36682     36684
     36679     36680     36682     36846     36680     36679     36677     36685
     36680     36682     36846     36847     36680     36682     36846     36848
     36680     36682     36846     36850     36681     36680     36682     36683
     36681     36680     36682     36684     36681     36680     36682     36846
     36682     36846     36848     36849     36682     36846     36850     36851
     36682     36846     36850     36852     36682     36846     36850     36853
     36683     36682     36846     36847     36683     36682     36846     36848
     36683     36682     36846     36850     36684     36682     36846     36847
     36684     36682     36846     36848     36684     36682     36846     36850
     36685     36687     36884     36885     36685     36687     36884     36886
     36686     36685     36687     36688     36686     36685     36687     36884
     36687     36884     36886     36887     36687     36884     36886     36888
     36687     36884     36886     36889     36688     36687     36884     36885
     36688     36687     36884     36886     36689     36691     36692     36693
     36689     36691     36692     36694     36689     36734     36737     36738
     36689     36734     36737     36739     36689     36734     36737     36740
     36690     36689     36691     36692     36690     36689     36734     36735
     36690     36689     36734     36736     36690     36689     36734     36737
     36691     36689     36734     36735     36691     36689     36734     36736
     36691     36689     36734     36737     36691     36692     36694     36695
     36691     36692     36694     36696     36691     36692     36694     36697
     36692     36691     36689     36734     36692     36694     36697     36698
     36692     36694     36697     36699     36692     36694     36697     36700
     36693     36692     36694     36695     36693     36692     36694     36696
     36693     36692     36694     36697     36694     36697     36700     36701
     36694     36697     36700     36702     36694     36697     36700     36703
     36695     36694     36697     36698     36695     36694     36697     36699
     36695     36694     36697     36700     36696     36694     36697     36698
     36696     36694     36697     36699     36696     36694     36697     36700
     36697     36700     36703     36704     36697     36700     36703     36705
     36697     36700     36703     36706     36698     36697     36700     36701
     36698     36697     36700     36702     36698     36697     36700     36703
     36699     36697     36700     36701     36699     36697     36700     36702
     36699     36697     36700     36703     36700     36703     36706     36707
     36700     36703     36706     36708     36700     36703     36706     36709
     36701     36700     36703     36704     36701     36700     36703     36705
     36701     36700     36703     36706     36702     36700     36703     36704
     36702     36700     36703     36705     36702     36700     36703     36706
     36703     36706     36709     36710     36703     36706     36709     36711
     36703     36706     36709     36712     36704     36703     36706     36707
     36704     36703     36706     36708     36704     36703     36706     36709
     36705     36703     36706     36707     36705     36703     36706     36708
     36705     36703     36706     36709     36706     36709     36712     36713
     36706     36709     36712     36714     36706     36709     36712     36715
     36707     36706     36709     36710     36707     36706     36709     36711
     36707     36706     36709     36712     36708     36706     36709     36710
     36708     36706     36709     36711     36708     36706     36709     36712
     36709     36712     36715     36716     36709     36712     36715     36717
     36709     36712     36715     36718     36710     36709     36712     36713
     36710     36709     36712     36714     36710     36709     36712     36715
     36711     36709     36712     36713     36711     36709     36712     36714
     36711     36709     36712     36715     36712     36715     36718     36719
     36712     36715     36718     36720     36712     36715     36718     36721
     36713     36712     36715     36716     36713     36712     36715     36717
     36713     36712     36715     36718     36714     36712     36715     36716
     36714     36712     36715     36717     36714     36712     36715     36718
     36715     36718     36721     36722     36715     36718     36721     36723
     36715     36718     36721     36724     36716     36715     36718     36719
     36716     36715     36718     36720     36716     36715     36718     36721
     36717     36715     36718     36719     36717     36715     36718     36720
     36717     36715     36718     36721     36718     36721     36724     36725
     36718     36721     36724     36726     36718     36721     36724     36727
     36719     36718     36721     36722     36719     36718     36721     36723
     36719     36718     36721     36724     36720     36718     36721     36722
     36720     36718     36721     36723     36720     36718     36721     36724
     36721     36724     36727     36728     36721     36724     36727     36729
     36721     36724     36727     36730     36722     36721     36724     36725
     36722     36721     36724     36726     36722     36721     36724     36727
     36723     36721     36724     36725     36723     36721     36724     36726
     36723     36721     36724     36727     36724     36727     36730     36731
     36724     36727     36730     36732     36724     36727     36730     36733
     36725     36724     36727     36728     36725     36724     36727     36729
     36725     36724     36727     36730     36726     36724     36727     36728
     36726     36724     36727     36729     36726     36724     36727     36730
     36728     36727     36730     36731     36728     36727     36730     36732
     36728     36727     36730     36733     36729     36727     36730     36731
     36729     36727     36730     36732     36729     36727     36730     36733
     36734     36737     36740     36741     36734     36737     36740     36742
     36734     36737     36740     36743     36735     36734     36737     36738
     36735     36734     36737     36739     36735     36734     36737     36740
     36736     36734     36737     36738     36736     36734     36737     36739
     36736     36734     36737     36740     36737     36740     36743     36744
     36737     36740     36743     36745     36737     36740     36743     36746
     36738     36737     36740     36741     36738     36737     36740     36742
     36738     36737     36740     36743     36739     36737     36740     36741
     36739     36737     36740     36742     36739     36737     36740     36743
     36740     36743     36746     36747     36740     36743     36746     36748
     36740     36743     36746     36749     36741     36740     36743     36744
     36741     36740     36743     36745     36741     36740     36743     36746
     36742     36740     36743     36744     36742     36740     36743     36745
     36742     36740     36743     36746     36743     36746     36749     36750
     36743     36746     36749     36751     36743     36746     36749     36752
     36744     36743     36746     36747     36744     36743     36746     36748
     36744     36743     36746     36749     36745     36743     36746     36747
     36745     36743     36746     36748     36745     36743     36746     36749
     36746     36749     36752     36753     36746     36749     36752     36754
     36746     36749     36752     36755     36747     36746     36749     36750
     36747     36746     36749     36751     36747     36746     36749     36752
     36748     36746     36749     36750     36748     36746     36749     36751
     36748     36746     36749     36752     36749     36752     36755     36756
     36749     36752     36755     36757     36749     36752     36755     36758
     36750     36749     36752     36753     36750     36749     36752     36754
     36750     36749     36752     36755     36751     36749     36752     36753
     36751     36749     36752     36754     36751     36749     36752     36755
     36752     36755     36758     36759     36752     36755     36758     36760
     36752     36755     36758     36761     36753     36752     36755     36756
     36753     36752     36755     36757     36753     36752     36755     36758
     36754     36752     36755     36756     36754     36752     36755     36757
     36754     36752     36755     36758     36755     36758     36761     36762
     36755     36758     36761     36763     36755     36758     36761     36764
     36756     36755     36758     36759     36756     36755     36758     36760
     36756     36755     36758     36761     36757     36755     36758     36759
     36757     36755     36758     36760     36757     36755     36758     36761
     36758     36761     36764     36765     36758     36761     36764     36766
     36758     36761     36764     36767     36759     36758     36761     36762
     36759     36758     36761     36763     36759     36758     36761     36764
     36760     36758     36761     36762     36760     36758     36761     36763
     36760     36758     36761     36764     36762     36761     36764     36765
     36762     36761     36764     36766     36762     36761     36764     36767
     36763     36761     36764     36765     36763     36761     36764     36766
     36763     36761     36764     36767     36768     36770     36773     36774
     36768     36770     36773     36775     36768     36770     36773     36812
     36769     36768     36770     36771     36769     36768     36770     36772
     36769     36768     36770     36773     36770     36773     36775     36776
     36770     36773     36812     36813     36770     36773     36812     36814
     36770     36773     36812     36815     36771     36770     36773     36774
     36771     36770     36773     36775     36771     36770     36773     36812
     36772     36770     36773     36774     36772     36770     36773     36775
     36772     36770     36773     36812     36773     36775     36776     36777
     36773     36775     36776     36778     36773     36812     36815     36816
     36773     36812     36815     36817     36773     36812     36815     36818
     36774     36773     36775     36776     36774     36773     36812     36813
     36774     36773     36812     36814     36774     36773     36812     36815
     36775     36773     36812     36813     36775     36773     36812     36814
     36775     36773     36812     36815     36775     36776     36778     36779
     36775     36776     36778     36780     36775     36776     36778     36781
     36776     36775     36773     36812     36776     36778     36781     36782
     36776     36778     36781     36783     36776     36778     36781     36784
     36777     36776     36778     36779     36777     36776     36778     36780
     36777     36776     36778     36781     36778     36781     36784     36785
     36778     36781     36784     36786     36778     36781     36784     36787
     36779     36778     36781     36782     36779     36778     36781     36783
     36779     36778     36781     36784     36780     36778     36781     36782
     36780     36778     36781     36783     36780     36778     36781     36784
     36781     36784     36787     36788     36781     36784     36787     36789
     36781     36784     36787     36790     36782     36781     36784     36785
     36782     36781     36784     36786     36782     36781     36784     36787
     36783     36781     36784     36785     36783     36781     36784     36786
     36783     36781     36784     36787     36784     36787     36790     36791
     36784     36787     36790     36792     36784     36787     36790     36793
     36785     36784     36787     36788     36785     36784     36787     36789
     36785     36784     36787     36790     36786     36784     36787     36788
     36786     36784     36787     36789     36786     36784     36787     36790
     36787     36790     36793     36794     36787     36790     36793     36795
     36787     36790     36793     36796     36788     36787     36790     36791
     36788     36787     36790     36792     36788     36787     36790     36793
     36789     36787     36790     36791     36789     36787     36790     36792
     36789     36787     36790     36793     36790     36793     36796     36797
     36790     36793     36796     36798     36790     36793     36796     36799
     36791     36790     36793     36794     36791     36790     36793     36795
     36791     36790     36793     36796     36792     36790     36793     36794
     36792     36790     36793     36795     36792     36790     36793     36796
     36793     36796     36799     36800     36793     36796     36799     36801
     36793     36796     36799     36802     36794     36793     36796     36797
     36794     36793     36796     36798     36794     36793     36796     36799
     36795     36793     36796     36797     36795     36793     36796     36798
     36795     36793     36796     36799     36796     36799     36802     36803
     36796     36799     36802     36804     36796     36799     36802     36805
     36797     36796     36799     36800     36797     36796     36799     36801
     36797     36796     36799     36802     36798     36796     36799     36800
     36798     36796     36799     36801     36798     36796     36799     36802
     36799     36802     36805     36806     36799     36802     36805     36807
     36799     36802     36805     36808     36800     36799     36802     36803
     36800     36799     36802     36804     36800     36799     36802     36805
     36801     36799     36802     36803     36801     36799     36802     36804
     36801     36799     36802     36805     36802     36805     36808     36809
     36802     36805     36808     36810     36802     36805     36808     36811
     36803     36802     36805     36806     36803     36802     36805     36807
     36803     36802     36805     36808     36804     36802     36805     36806
     36804     36802     36805     36807     36804     36802     36805     36808
     36806     36805     36808     36809     36806     36805     36808     36810
     36806     36805     36808     36811     36807     36805     36808     36809
     36807     36805     36808     36810     36807     36805     36808     36811
     36812     36815     36818     36819     36812     36815     36818     36820
     36812     36815     36818     36821     36813     36812     36815     36816
     36813     36812     36815     36817     36813     36812     36815     36818
     36814     36812     36815     36816     36814     36812     36815     36817
     36814     36812     36815     36818     36815     36818     36821     36822
     36815     36818     36821     36823     36815     36818     36821     36824
     36816     36815     36818     36819     36816     36815     36818     36820
     36816     36815     36818     36821     36817     36815     36818     36819
     36817     36815     36818     36820     36817     36815     36818     36821
     36818     36821     36824     36825     36818     36821     36824     36826
     36818     36821     36824     36827     36819     36818     36821     36822
     36819     36818     36821     36823     36819     36818     36821     36824
     36820     36818     36821     36822     36820     36818     36821     36823
     36820     36818     36821     36824     36821     36824     36827     36828
     36821     36824     36827     36829     36821     36824     36827     36830
     36822     36821     36824     36825     36822     36821     36824     36826
     36822     36821     36824     36827     36823     36821     36824     36825
     36823     36821     36824     36826     36823     36821     36824     36827
     36824     36827     36830     36831     36824     36827     36830     36832
     36824     36827     36830     36833     36825     36824     36827     36828
     36825     36824     36827     36829     36825     36824     36827     36830
     36826     36824     36827     36828     36826     36824     36827     36829
     36826     36824     36827     36830     36827     36830     36833     36834
     36827     36830     36833     36835     36827     36830     36833     36836
     36828     36827     36830     36831     36828     36827     36830     36832
     36828     36827     36830     36833     36829     36827     36830     36831
     36829     36827     36830     36832     36829     36827     36830     36833
     36830     36833     36836     36837     36830     36833     36836     36838
     36830     36833     36836     36839     36831     36830     36833     36834
     36831     36830     36833     36835     36831     36830     36833     36836
     36832     36830     36833     36834     36832     36830     36833     36835
     36832     36830     36833     36836     36833     36836     36839     36840
     36833     36836     36839     36841     36833     36836     36839     36842
     36834     36833     36836     36837     36834     36833     36836     36838
     36834     36833     36836     36839     36835     36833     36836     36837
     36835     36833     36836     36838     36835     36833     36836     36839
     36836     36839     36842     36843     36836     36839     36842     36844
     36836     36839     36842     36845     36837     36836     36839     36840
     36837     36836     36839     36841     36837     36836     36839     36842
     36838     36836     36839     36840     36838     36836     36839     36841
     36838     36836     36839     36842     36840     36839     36842     36843
     36840     36839     36842     36844     36840     36839     36842     36845
     36841     36839     36842     36843     36841     36839     36842     36844
     36841     36839     36842     36845     36846     36850     36853     36854
     36846     36850     36853     36855     36846     36850     36853     36856
     36847     36846     36848     36849     36847     36846     36850     36851
     36847     36846     36850     36852     36847     36846     36850     36853
     36848     36846     36850     36851     36848     36846     36850     36852
     36848     36846     36850     36853     36849     36848     36846     36850
     36850     36853     36856     36857     36850     36853     36856     36858
     36850     36853     36856     36859     36851     36850     36853     36854
     36851     36850     36853     36855     36851     36850     36853     36856
     36852     36850     36853     36854     36852     36850     36853     36855
     36852     36850     36853     36856     36853     36856     36859     36860
     36853     36856     36859     36861     36853     36856     36859     36862
     36854     36853     36856     36857     36854     36853     36856     36858
     36854     36853     36856     36859     36855     36853     36856     36857
     36855     36853     36856     36858     36855     36853     36856     36859
     36856     36859     36862     36863     36856     36859     36862     36864
     36856     36859     36862     36865     36857     36856     36859     36860
     36857     36856     36859     36861     36857     36856     36859     36862
     36858     36856     36859     36860     36858     36856     36859     36861
     36858     36856     36859     36862     36859     36862     36865     36866
     36859     36862     36865     36867     36859     36862     36865     36868
     36860     36859     36862     36863     36860     36859     36862     36864
     36860     36859     36862     36865     36861     36859     36862     36863
     36861     36859     36862     36864     36861     36859     36862     36865
     36862     36865     36868     36869     36862     36865     36868     36870
     36862     36865     36868     36871     36863     36862     36865     36866
     36863     36862     36865     36867     36863     36862     36865     36868
     36864     36862     36865     36866     36864     36862     36865     36867
     36864     36862     36865     36868     36865     36868     36871     36872
     36865     36868     36871     36873     36865     36868     36871     36874
     36866     36865     36868     36869     36866     36865     36868     36870
     36866     36865     36868     36871     36867     36865     36868     36869
     36867     36865     36868     36870     36867     36865     36868     36871
     36868     36871     36874     36875     36868     36871     36874     36876
     36868     36871     36874     36877     36869     36868     36871     36872
     36869     36868     36871     36873     36869     36868     36871     36874
     36870     36868     36871     36872     36870     36868     36871     36873
     36870     36868     36871     36874     36871     36874     36877     36878
     36871     36874     36877     36879     36871     36874     36877     36880
     36872     36871     36874     36875     36872     36871     36874     36876
     36872     36871     36874     36877     36873     36871     36874     36875
     36873     36871     36874     36876     36873     36871     36874     36877
     36874     36877     36880     36881     36874     36877     36880     36882
     36874     36877     36880     36883     36875     36874     36877     36878
     36875     36874     36877     36879     36875     36874     36877     36880
     36876     36874     36877     36878     36876     36874     36877     36879
     36876     36874     36877     36880     36878     36877     36880     36881
     36878     36877     36880     36882     36878     36877     36880     36883
     36879     36877     36880     36881     36879     36877     36880     36882
     36879     36877     36880     36883     36884     36886     36889     36890
     36884     36886     36889     36891     36884     36886     36889     36893
     36885     36884     36886     36887     36885     36884     36886     36888
     36885     36884     36886     36889     36886     36889     36891     36892
     36886     36889     36893     36894     36886     36889     36893     36895
     36886     36889     36893     36896     36887     36886     36889     36890
     36887     36886     36889     36891     36887     36886     36889     36893
     36888     36886     36889     36890     36888     36886     36889     36891
     36888     36886     36889     36893     36889     36893     36896     36897
     36889     36893     36896     36898     36889     36893     36896     36899
     36890     36889     36891     36892     36890     36889     36893     36894
     36890     36889     36893     36895     36890     36889     36893     36896
     36891     36889     36893     36894     36891     36889     36893     36895
     36891     36889     36893     36896     36892     36891     36889     36893
     36893     36896     36899     36900     36893     36896     36899     36901
     36893     36896     36899     36902     36894     36893     36896     36897
     36894     36893     36896     36898     36894     36893     36896     36899
     36895     36893     36896     36897     36895     36893     36896     36898
     36895     36893     36896     36899     36896     36899     36902     36903
     36896     36899     36902     36904     36896     36899     36902     36905
     36897     36896     36899     36900     36897     36896     36899     36901
     36897     36896     36899     36902     36898     36896     36899     36900
     36898     36896     36899     36901     36898     36896     36899     36902
     36899     36902     36905     36906     36899     36902     36905     36907
     36899     36902     36905     36908     36900     36899     36902     36903
     36900     36899     36902     36904     36900     36899     36902     36905
     36901     36899     36902     36903     36901     36899     36902     36904
     36901     36899     36902     36905     36902     36905     36908     36909
     36902     36905     36908     36910     36902     36905     36908     36911
     36903     36902     36905     36906     36903     36902     36905     36907
     36903     36902     36905     36908     36904     36902     36905     36906
     36904     36902     36905     36907     36904     36902     36905     36908
     36905     36908     36911     36912     36905     36908     36911     36913
     36905     36908     36911     36914     36906     36905     36908     36909
     36906     36905     36908     36910     36906     36905     36908     36911
     36907     36905     36908     36909     36907     36905     36908     36910
     36907     36905     36908     36911     36908     36911     36914     36915
     36908     36911     36914     36916     36908     36911     36914     36917
     36909     36908     36911     36912     36909     36908     36911     36913
     36909     36908     36911     36914     36910     36908     36911     36912
     36910     36908     36911     36913     36910     36908     36911     36914
     36911     36914     36917     36918     36911     36914     36917     36919
     36911     36914     36917     36920     36912     36911     36914     36915
     36912     36911     36914     36916     36912     36911     36914     36917
     36913     36911     36914     36915     36913     36911     36914     36916
     36913     36911     36914     36917     36914     36917     36920     36921
     36914     36917     36920     36922     36914     36917     36920     36923
     36915     36914     36917     36918     36915     36914     36917     36919
     36915     36914     36917     36920     36916     36914     36917     36918
     36916     36914     36917     36919     36916     36914     36917     36920
     36917     36920     36923     36924     36917     36920     36923     36925
     36917     36920     36923     36926     36918     36917     36920     36921
     36918     36917     36920     36922     36918     36917     36920     36923
     36919     36917     36920     36921     36919     36917     36920     36922
     36919     36917     36920     36923     36921     36920     36923     36924
     36921     36920     36923     36925     36921     36920     36923     36926
     36922     36920     36923     36924     36922     36920     36923     36925
     36922     36920     36923     36926     36927     36930     36933     36931
     36927     36930     36934     36935     36927     36930     36934     36936
     36927     36930     36934     36937     36928     36927     36930     36933
     36928     36927     36930     36934     36929     36927     36930     36933
     36929     36927     36930     36934     36930     36933     36931     36932
     36930     36933     36931     36940     36930     36933     36931     36943
     36930     36934     36937     36938     36930     36934     36937     36939
     36930     36934     36937     36940     36931     36933     36930     36934
     36931     36940     36937     36934     36931     36940     36937     36938
     36931     36940     36937     36939     36931     36940     36942     36979
     36931     36943     36945     36946     36931     36943     36947     36948
     36931     36943     36947     36949     36931     36943     36947     36950
     36932     36931     36940     36937     36932     36931     36940     36941
     36932     36931     36940     36942     36932     36931     36943     36944
     36932     36931     36943     36945     36932     36931     36943     36947
     36933     36930     36934     36935     36933     36930     36934     36936
     36933     36930     36934     36937     36933     36931     36940     36937
     36933     36931     36940     36941     36933     36931     36940     36942
     36933     36931     36943     36944     36933     36931     36943     36945
     36933     36931     36943     36947     36934     36937     36939     36955
     36934     36937     36940     36941     36934     36937     36940     36942
     36935     36934     36937     36938     36935     36934     36937     36939
     36935     36934     36937     36940     36936     36934     36937     36938
     36936     36934     36937     36939     36936     36934     36937     36940
     36937     36939     36955     36952     36937     36939     36955     36958
     36937     36939     36955     36959     36937     36940     36931     36943
     36937     36940     36942     36979     36938     36937     36939     36955
     36938     36937     36940     36941     36938     36937     36940     36942
     36939     36937     36940     36941     36939     36937     36940     36942
     36939     36955     36952     36953     36939     36955     36952     36954
     36939     36955     36958     36956     36939     36955     36959     36960
     36939     36955     36959     36961     36939     36955     36959     36962
     36940     36931     36943     36944     36940     36931     36943     36945
     36940     36931     36943     36947     36940     36937     36939     36955
     36940     36942     36979     36980     36940     36942     36979     36983
     36940     36942     36979     36984     36941     36940     36931     36943
     36941     36940     36942     36979     36942     36940     36931     36943
     36942     36979     36983     36981     36942     36979     36984     36985
     36942     36979     36984     36986     36942     36979     36984     36988
     36943     36947     36950     36951     36944     36943     36945     36946
     36944     36943     36947     36948     36944     36943     36947     36949
     36944     36943     36947     36950     36945     36943     36947     36948
     36945     36943     36947     36949     36945     36943     36947     36950
     36946     36945     36943     36947     36948     36947     36950     36951
     36949     36947     36950     36951     36952     36955     36958     36956
     36952     36955     36959     36960     36952     36955     36959     36961
     36952     36955     36959     36962     36953     36952     36955     36958
     36953     36952     36955     36959     36954     36952     36955     36958
     36954     36952     36955     36959     36955     36958     36956     36957
     36955     36958     36956     36966     36955     36958     36956     36970
     36955     36959     36962     36963     36955     36959     36962     36964
     36955     36959     36962     36966     36956     36958     36955     36959
     36956     36966     36962     36959     36956     36966     36962     36963
     36956     36966     36962     36964     36956     36966     36968     36969
     36956     36970     36972     36973     36956     36970     36974     36975
     36956     36970     36974     36976     36956     36970     36974     36977
     36957     36956     36966     36962     36957     36956     36966     36967
     36957     36956     36966     36968     36957     36956     36970     36971
     36957     36956     36970     36972     36957     36956     36970     36974
     36958     36955     36959     36960     36958     36955     36959     36961
     36958     36955     36959     36962     36958     36956     36966     36962
     36958     36956     36966     36967     36958     36956     36966     36968
     36958     36956     36970     36971     36958     36956     36970     36972
     36958     36956     36970     36974     36959     36962     36964     36965
     36959     36962     36966     36967     36959     36962     36966     36968
     36960     36959     36962     36963     36960     36959     36962     36964
     36960     36959     36962     36966     36961     36959     36962     36963
     36961     36959     36962     36964     36961     36959     36962     36966
     36962     36966     36956     36970     36962     36966     36968     36969
     36963     36962     36964     36965     36963     36962     36966     36967
     36963     36962     36966     36968     36964     36962     36966     36967
     36964     36962     36966     36968     36965     36964     36962     36966
     36966     36956     36970     36971     36966     36956     36970     36972
     36966     36956     36970     36974     36967     36966     36956     36970
     36967     36966     36968     36969     36968     36966     36956     36970
     36970     36974     36977     36978     36971     36970     36972     36973
     36971     36970     36974     36975     36971     36970     36974     36976
     36971     36970     36974     36977     36972     36970     36974     36975
     36972     36970     36974     36976     36972     36970     36974     36977
     36973     36972     36970     36974     36975     36974     36977     36978
     36976     36974     36977     36978     36979     36983     36981     36982
     36979     36983     36981     36991     36979     36983     36981     36998
     36979     36984     36986     36987     36979     36984     36988     36989
     36979     36984     36988     36990     36979     36984     36988     36991
     36980     36979     36983     36981     36980     36979     36984     36985
     36980     36979     36984     36986     36980     36979     36984     36988
     36981     36983     36979     36984     36981     36991     36988     36984
     36981     36991     36988     36989     36981     36991     36988     36990
     36981     36991     36993     36994     36981     36998     37000     37001
     36981     36998     37002     37003     36981     36998     37002     37004
     36981     36998     37002     37005     36982     36981     36991     36988
     36982     36981     36991     36992     36982     36981     36991     36993
     36982     36981     36998     36999     36982     36981     36998     37000
     36982     36981     36998     37002     36983     36979     36984     36985
     36983     36979     36984     36986     36983     36979     36984     36988
     36983     36981     36991     36988     36983     36981     36991     36992
     36983     36981     36991     36993     36983     36981     36998     36999
     36983     36981     36998     37000     36983     36981     36998     37002
     36984     36988     36990     37007     36984     36988     36991     36992
     36984     36988     36991     36993     36985     36984     36986     36987
     36985     36984     36988     36989     36985     36984     36988     36990
     36985     36984     36988     36991     36986     36984     36988     36989
     36986     36984     36988     36990     36986     36984     36988     36991
     36987     36986     36984     36988     36988     36990     37007     37008
     36988     36990     37007     37011     36988     36990     37007     37012
     36988     36991     36981     36998     36988     36991     36993     36994
     36989     36988     36990     37007     36989     36988     36991     36992
     36989     36988     36991     36993     36990     36988     36991     36992
     36990     36988     36991     36993     36990     37007     37011     37009
     36990     37007     37012     37013     36990     37007     37012     37014
     36990     37007     37012     37016     36991     36981     36998     36999
     36991     36981     36998     37000     36991     36981     36998     37002
     36991     36988     36990     37007     36991     36993     36994     36995
     36991     36993     36994     36996     36991     36993     36994     36997
     36992     36991     36981     36998     36992     36991     36993     36994
     36993     36991     36981     36998     36998     37002     37005     37006
     36999     36998     37000     37001     36999     36998     37002     37003
     36999     36998     37002     37004     36999     36998     37002     37005
     37000     36998     37002     37003     37000     36998     37002     37004
     37000     36998     37002     37005     37001     37000     36998     37002
     37003     37002     37005     37006     37004     37002     37005     37006
     37007     37011     37009     37010     37007     37011     37009     37019
     37007     37011     37009     37026     37007     37012     37014     37015
     37007     37012     37016     37017     37007     37012     37016     37018
     37007     37012     37016     37019     37008     37007     37011     37009
     37008     37007     37012     37013     37008     37007     37012     37014
     37008     37007     37012     37016     37009     37011     37007     37012
     37009     37019     37016     37012     37009     37019     37016     37017
     37009     37019     37016     37018     37009     37019     37021     37022
     37009     37026     37028     37029     37009     37026     37030     37031
     37009     37026     37030     37032     37009     37026     37030     37033
     37010     37009     37019     37016     37010     37009     37019     37020
     37010     37009     37019     37021     37010     37009     37026     37027
     37010     37009     37026     37028     37010     37009     37026     37030
     37011     37007     37012     37013     37011     37007     37012     37014
     37011     37007     37012     37016     37011     37009     37019     37016
     37011     37009     37019     37020     37011     37009     37019     37021
     37011     37009     37026     37027     37011     37009     37026     37028
     37011     37009     37026     37030     37012     37016     37018     37060
     37012     37016     37019     37020     37012     37016     37019     37021
     37013     37012     37014     37015     37013     37012     37016     37017
     37013     37012     37016     37018     37013     37012     37016     37019
     37014     37012     37016     37017     37014     37012     37016     37018
     37014     37012     37016     37019     37015     37014     37012     37016
     37016     37018     37060     37061     37016     37018     37060     37064
     37016     37018     37060     37065     37016     37019     37009     37026
     37016     37019     37021     37022     37017     37016     37018     37060
     37017     37016     37019     37020     37017     37016     37019     37021
     37018     37016     37019     37020     37018     37016     37019     37021
     37018     37060     37064     37062     37018     37060     37065     37066
     37018     37060     37065     37067     37018     37060     37065     37069
     37019     37009     37026     37027     37019     37009     37026     37028
     37019     37009     37026     37030     37019     37016     37018     37060
     37019     37021     37022     37023     37019     37021     37022     37024
     37019     37021     37022     37025     37020     37019     37009     37026
     37020     37019     37021     37022     37021     37019     37009     37026
     37026     37030     37033     37034     37027     37026     37028     37029
     37027     37026     37030     37031     37027     37026     37030     37032
     37027     37026     37030     37033     37028     37026     37030     37031
     37028     37026     37030     37032     37028     37026     37030     37033
     37029     37028     37026     37030     37030     37033     37034     37035
     37030     37033     37034     37038     37030     37033     37034     37039
     37031     37030     37033     37034     37032     37030     37033     37034
     37033     37034     37038     37036     37033     37034     37039     37040
     37033     37034     37039     37041     37033     37034     37039     37043
     37034     37038     37036     37037     37034     37038     37036     37047
     37034     37038     37036     37051     37034     37039     37041     37042
     37034     37039     37043     37044     37034     37039     37043     37045
     37034     37039     37043     37047     37035     37034     37038     37036
     37035     37034     37039     37040     37035     37034     37039     37041
     37035     37034     37039     37043     37036     37038     37034     37039
     37036     37047     37043     37039     37036     37047     37043     37044
     37036     37047     37043     37045     37036     37047     37049     37050
     37036     37051     37053     37054     37036     37051     37055     37056
     37036     37051     37055     37057     37036     37051     37055     37058
     37037     37036     37047     37043     37037     37036     37047     37048
     37037     37036     37047     37049     37037     37036     37051     37052
     37037     37036     37051     37053     37037     37036     37051     37055
     37038     37034     37039     37040     37038     37034     37039     37041
     37038     37034     37039     37043     37038     37036     37047     37043
     37038     37036     37047     37048     37038     37036     37047     37049
     37038     37036     37051     37052     37038     37036     37051     37053
     37038     37036     37051     37055     37039     37043     37045     37046
     37039     37043     37047     37048     37039     37043     37047     37049
     37040     37039     37041     37042     37040     37039     37043     37044
     37040     37039     37043     37045     37040     37039     37043     37047
     37041     37039     37043     37044     37041     37039     37043     37045
     37041     37039     37043     37047     37042     37041     37039     37043
     37043     37047     37036     37051     37043     37047     37049     37050
     37044     37043     37045     37046     37044     37043     37047     37048
     37044     37043     37047     37049     37045     37043     37047     37048
     37045     37043     37047     37049     37046     37045     37043     37047
     37047     37036     37051     37052     37047     37036     37051     37053
     37047     37036     37051     37055     37048     37047     37036     37051
     37048     37047     37049     37050     37049     37047     37036     37051
     37051     37055     37058     37059     37052     37051     37053     37054
     37052     37051     37055     37056     37052     37051     37055     37057
     37052     37051     37055     37058     37053     37051     37055     37056
     37053     37051     37055     37057     37053     37051     37055     37058
     37054     37053     37051     37055     37056     37055     37058     37059
     37057     37055     37058     37059     37060     37064     37062     37063
     37060     37064     37062     37072     37060     37064     37062     37076
     37060     37065     37067     37068     37060     37065     37069     37070
     37060     37065     37069     37071     37060     37065     37069     37072
     37061     37060     37064     37062     37061     37060     37065     37066
     37061     37060     37065     37067     37061     37060     37065     37069
     37062     37064     37060     37065     37062     37072     37069     37065
     37062     37072     37069     37070     37062     37072     37069     37071
     37062     37072     37074     37075     37062     37076     37079     37080
     37063     37062     37072     37069     37063     37062     37072     37073
     37063     37062     37072     37074     37063     37062     37076     37077
     37063     37062     37076     37078     37063     37062     37076     37079
     37064     37060     37065     37066     37064     37060     37065     37067
     37064     37060     37065     37069     37064     37062     37072     37069
     37064     37062     37072     37073     37064     37062     37072     37074
     37064     37062     37076     37077     37064     37062     37076     37078
     37064     37062     37076     37079     37065     37069     37071     37081
     37065     37069     37072     37073     37065     37069     37072     37074
     37066     37065     37067     37068     37066     37065     37069     37070
     37066     37065     37069     37071     37066     37065     37069     37072
     37067     37065     37069     37070     37067     37065     37069     37071
     37067     37065     37069     37072     37068     37067     37065     37069
     37069     37071     37081     37082     37069     37071     37081     37085
     37069     37071     37081     37086     37069     37072     37062     37076
     37069     37072     37074     37075     37070     37069     37071     37081
     37070     37069     37072     37073     37070     37069     37072     37074
     37071     37069     37072     37073     37071     37069     37072     37074
     37071     37081     37085     37083     37071     37081     37086     37087
     37071     37081     37086     37088     37071     37081     37086     37089
     37072     37062     37076     37077     37072     37062     37076     37078
     37072     37062     37076     37079     37072     37069     37071     37081
     37073     37072     37062     37076     37073     37072     37074     37075
     37074     37072     37062     37076     37077     37076     37079     37080
     37078     37076     37079     37080     37081     37085     37083     37084
     37081     37085     37083     37092     37081     37085     37083     37096
     37081     37086     37088     37101     37081     37086     37089     37090
     37081     37086     37089     37091     37081     37086     37089     37092
     37082     37081     37085     37083     37082     37081     37086     37087
     37082     37081     37086     37088     37082     37081     37086     37089
     37083     37085     37081     37086     37083     37092     37089     37086
     37083     37092     37089     37090     37083     37092     37089     37091
     37083     37092     37094     37095     37083     37096     37099     37100
     37084     37083     37092     37089     37084     37083     37092     37093
     37084     37083     37092     37094     37084     37083     37096     37097
     37084     37083     37096     37098     37084     37083     37096     37099
     37085     37081     37086     37087     37085     37081     37086     37088
     37085     37081     37086     37089     37085     37083     37092     37089
     37085     37083     37092     37093     37085     37083     37092     37094
     37085     37083     37096     37097     37085     37083     37096     37098
     37085     37083     37096     37099     37086     37088     37101     37102
     37086     37088     37101     37105     37086     37088     37101     37106
     37086     37089     37091     37144     37086     37089     37092     37093
     37086     37089     37092     37094     37087     37086     37088     37101
     37087     37086     37089     37090     37087     37086     37089     37091
     37087     37086     37089     37092     37088     37086     37089     37090
     37088     37086     37089     37091     37088     37086     37089     37092
     37088     37101     37105     37103     37088     37101     37106     37107
     37088     37101     37106     37108     37088     37101     37106     37109
     37089     37086     37088     37101     37089     37091     37144     37145
     37089     37091     37144     37148     37089     37091     37144     37149
     37089     37092     37083     37096     37089     37092     37094     37095
     37090     37089     37091     37144     37090     37089     37092     37093
     37090     37089     37092     37094     37091     37089     37092     37093
     37091     37089     37092     37094     37091     37144     37148     37146
     37091     37144     37149     37150     37091     37144     37149     37151
     37091     37144     37149     37153     37092     37083     37096     37097
     37092     37083     37096     37098     37092     37083     37096     37099
     37092     37089     37091     37144     37093     37092     37083     37096
     37093     37092     37094     37095     37094     37092     37083     37096
     37097     37096     37099     37100     37098     37096     37099     37100
     37101     37105     37103     37104     37101     37105     37103     37113
     37101     37105     37103     37117     37101     37106     37108     37122
     37101     37106     37109     37110     37101     37106     37109     37111
     37101     37106     37109     37113     37102     37101     37105     37103
     37102     37101     37106     37107     37102     37101     37106     37108
     37102     37101     37106     37109     37103     37105     37101     37106
     37103     37113     37109     37106     37103     37113     37109     37110
     37103     37113     37109     37111     37103     37113     37115     37116
     37103     37117     37120     37121     37104     37103     37113     37109
     37104     37103     37113     37114     37104     37103     37113     37115
     37104     37103     37117     37118     37104     37103     37117     37119
     37104     37103     37117     37120     37105     37101     37106     37107
     37105     37101     37106     37108     37105     37101     37106     37109
     37105     37103     37113     37109     37105     37103     37113     37114
     37105     37103     37113     37115     37105     37103     37117     37118
     37105     37103     37117     37119     37105     37103     37117     37120
     37106     37108     37122     37123     37106     37108     37122     37126
     37106     37108     37122     37127     37106     37109     37111     37112
     37106     37109     37113     37114     37106     37109     37113     37115
     37107     37106     37108     37122     37107     37106     37109     37110
     37107     37106     37109     37111     37107     37106     37109     37113
     37108     37106     37109     37110     37108     37106     37109     37111
     37108     37106     37109     37113     37108     37122     37126     37124
     37108     37122     37127     37128     37108     37122     37127     37129
     37108     37122     37127     37131     37109     37106     37108     37122
     37109     37113     37103     37117     37109     37113     37115     37116
     37110     37109     37111     37112     37110     37109     37113     37114
     37110     37109     37113     37115     37111     37109     37113     37114
     37111     37109     37113     37115     37112     37111     37109     37113
     37113     37103     37117     37118     37113     37103     37117     37119
     37113     37103     37117     37120     37114     37113     37103     37117
     37114     37113     37115     37116     37115     37113     37103     37117
     37118     37117     37120     37121     37119     37117     37120     37121
     37122     37126     37124     37125     37122     37126     37124     37135
     37122     37126     37124     37139     37122     37127     37129     37130
     37122     37127     37131     37132     37122     37127     37131     37133
     37122     37127     37131     37135     37123     37122     37126     37124
     37123     37122     37127     37128     37123     37122     37127     37129
     37123     37122     37127     37131     37124     37126     37122     37127
     37124     37135     37131     37127     37124     37135     37131     37132
     37124     37135     37131     37133     37124     37135     37137     37138
     37124     37139     37142     37143     37125     37124     37135     37131
     37125     37124     37135     37136     37125     37124     37135     37137
     37125     37124     37139     37140     37125     37124     37139     37141
     37125     37124     37139     37142     37126     37122     37127     37128
     37126     37122     37127     37129     37126     37122     37127     37131
     37126     37124     37135     37131     37126     37124     37135     37136
     37126     37124     37135     37137     37126     37124     37139     37140
     37126     37124     37139     37141     37126     37124     37139     37142
     37127     37131     37133     37134     37127     37131     37135     37136
     37127     37131     37135     37137     37128     37127     37129     37130
     37128     37127     37131     37132     37128     37127     37131     37133
     37128     37127     37131     37135     37129     37127     37131     37132
     37129     37127     37131     37133     37129     37127     37131     37135
     37130     37129     37127     37131     37131     37135     37124     37139
     37131     37135     37137     37138     37132     37131     37133     37134
     37132     37131     37135     37136     37132     37131     37135     37137
     37133     37131     37135     37136     37133     37131     37135     37137
     37134     37133     37131     37135     37135     37124     37139     37140
     37135     37124     37139     37141     37135     37124     37139     37142
     37136     37135     37124     37139     37136     37135     37137     37138
     37137     37135     37124     37139     37140     37139     37142     37143
     37141     37139     37142     37143     37144     37148     37146     37147
     37144     37148     37146     37156     37144     37148     37146     37160
     37144     37149     37151     37152     37144     37149     37153     37154
     37144     37149     37153     37155     37144     37149     37153     37156
     37145     37144     37148     37146     37145     37144     37149     37150
     37145     37144     37149     37151     37145     37144     37149     37153
     37146     37148     37144     37149     37146     37156     37153     37149
     37146     37156     37153     37154     37146     37156     37153     37155
     37146     37156     37158     37159     37146     37160     37163     37164
     37147     37146     37156     37153     37147     37146     37156     37157
     37147     37146     37156     37158     37147     37146     37160     37161
     37147     37146     37160     37162     37147     37146     37160     37163
     37148     37144     37149     37150     37148     37144     37149     37151
     37148     37144     37149     37153     37148     37146     37156     37153
     37148     37146     37156     37157     37148     37146     37156     37158
     37148     37146     37160     37161     37148     37146     37160     37162
     37148     37146     37160     37163     37149     37153     37155     37165
     37149     37153     37156     37157     37149     37153     37156     37158
     37150     37149     37151     37152     37150     37149     37153     37154
     37150     37149     37153     37155     37150     37149     37153     37156
     37151     37149     37153     37154     37151     37149     37153     37155
     37151     37149     37153     37156     37152     37151     37149     37153
     37153     37155     37165     37166     37153     37155     37165     37169
     37153     37155     37165     37170     37153     37156     37146     37160
     37153     37156     37158     37159     37154     37153     37155     37165
     37154     37153     37156     37157     37154     37153     37156     37158
     37155     37153     37156     37157     37155     37153     37156     37158
     37155     37165     37169     37167     37155     37165     37170     37171
     37155     37165     37170     37172     37155     37165     37170     37180
     37156     37146     37160     37161     37156     37146     37160     37162
     37156     37146     37160     37163     37156     37153     37155     37165
     37157     37156     37146     37160     37157     37156     37158     37159
     37158     37156     37146     37160     37161     37160     37163     37164
     37162     37160     37163     37164     37165     37169     37167     37168
     37165     37169     37167     37183     37165     37169     37167     37187
     37165     37170     37172     37173     37165     37170     37172     37174
     37165     37170     37180     37181     37165     37170     37180     37182
     37165     37170     37180     37183     37166     37165     37169     37167
     37166     37165     37170     37171     37166     37165     37170     37172
     37166     37165     37170     37180     37167     37169     37165     37170
     37167     37183     37180     37170     37167     37183     37180     37181
     37167     37183     37180     37182     37167     37183     37185     37186
     37167     37187     37190     37191     37168     37167     37183     37180
     37168     37167     37183     37184     37168     37167     37183     37185
     37168     37167     37187     37188     37168     37167     37187     37189
     37168     37167     37187     37190     37169     37165     37170     37171
     37169     37165     37170     37172     37169     37165     37170     37180
     37169     37167     37183     37180     37169     37167     37183     37184
     37169     37167     37183     37185     37169     37167     37187     37188
     37169     37167     37187     37189     37169     37167     37187     37190
     37170     37172     37174     37175     37170     37172     37174     37176
     37170     37180     37182     37192     37170     37180     37183     37184
     37170     37180     37183     37185     37171     37170     37172     37173
     37171     37170     37172     37174     37171     37170     37180     37181
     37171     37170     37180     37182     37171     37170     37180     37183
     37172     37170     37180     37181     37172     37170     37180     37182
     37172     37170     37180     37183     37172     37174     37176     37177
     37172     37174     37176     37178     37172     37174     37176     37179
     37173     37172     37170     37180     37173     37172     37174     37175
     37173     37172     37174     37176     37174     37172     37170     37180
     37175     37174     37176     37177     37175     37174     37176     37178
     37175     37174     37176     37179     37180     37182     37192     37193
     37180     37182     37192     37196     37180     37182     37192     37197
     37180     37183     37167     37187     37180     37183     37185     37186
     37181     37180     37182     37192     37181     37180     37183     37184
     37181     37180     37183     37185     37182     37180     37183     37184
     37182     37180     37183     37185     37182     37192     37196     37194
     37182     37192     37197     37198     37182     37192     37197     37199
     37182     37192     37197     37200     37183     37167     37187     37188
     37183     37167     37187     37189     37183     37167     37187     37190
     37183     37180     37182     37192     37184     37183     37167     37187
     37184     37183     37185     37186     37185     37183     37167     37187
     37188     37187     37190     37191     37189     37187     37190     37191
     37192     37196     37194     37195     37192     37196     37194     37204
     37192     37196     37194     37208     37192     37197     37199     37213
     37192     37197     37200     37201     37192     37197     37200     37202
     37192     37197     37200     37204     37193     37192     37196     37194
     37193     37192     37197     37198     37193     37192     37197     37199
     37193     37192     37197     37200     37194     37196     37192     37197
     37194     37204     37200     37197     37194     37204     37200     37201
     37194     37204     37200     37202     37194     37204     37206     37207
     37194     37208     37211     37212     37195     37194     37204     37200
     37195     37194     37204     37205     37195     37194     37204     37206
     37195     37194     37208     37209     37195     37194     37208     37210
     37195     37194     37208     37211     37196     37192     37197     37198
     37196     37192     37197     37199     37196     37192     37197     37200
     37196     37194     37204     37200     37196     37194     37204     37205
     37196     37194     37204     37206     37196     37194     37208     37209
     37196     37194     37208     37210     37196     37194     37208     37211
     37197     37199     37213     37214     37197     37199     37213     37217
     37197     37199     37213     37218     37197     37200     37202     37203
     37197     37200     37204     37205     37197     37200     37204     37206
     37198     37197     37199     37213     37198     37197     37200     37201
     37198     37197     37200     37202     37198     37197     37200     37204
     37199     37197     37200     37201     37199     37197     37200     37202
     37199     37197     37200     37204     37199     37213     37217     37215
     37199     37213     37218     37219     37199     37213     37218     37220
     37199     37213     37218     37221     37200     37197     37199     37213
     37200     37204     37194     37208     37200     37204     37206     37207
     37201     37200     37202     37203     37201     37200     37204     37205
     37201     37200     37204     37206     37202     37200     37204     37205
     37202     37200     37204     37206     37203     37202     37200     37204
     37204     37194     37208     37209     37204     37194     37208     37210
     37204     37194     37208     37211     37205     37204     37194     37208
     37205     37204     37206     37207     37206     37204     37194     37208
     37209     37208     37211     37212     37210     37208     37211     37212
     37213     37217     37215     37216     37213     37217     37215     37225
     37213     37217     37215     37229     37213     37218     37220     37233
     37213     37218     37221     37222     37213     37218     37221     37223
     37213     37218     37221     37225     37214     37213     37217     37215
     37214     37213     37218     37219     37214     37213     37218     37220
     37214     37213     37218     37221     37215     37217     37213     37218
     37215     37225     37221     37218     37215     37225     37221     37222
     37215     37225     37221     37223     37215     37225     37227     37228
     37216     37215     37225     37221     37216     37215     37225     37226
     37216     37215     37225     37227     37216     37215     37229     37230
     37216     37215     37229     37231     37216     37215     37229     37232
     37217     37213     37218     37219     37217     37213     37218     37220
     37217     37213     37218     37221     37217     37215     37225     37221
     37217     37215     37225     37226     37217     37215     37225     37227
     37217     37215     37229     37230     37217     37215     37229     37231
     37217     37215     37229     37232     37218     37220     37233     37234
     37218     37220     37233     37237     37218     37220     37233     37238
     37218     37221     37223     37224     37218     37221     37225     37226
     37218     37221     37225     37227     37219     37218     37220     37233
     37219     37218     37221     37222     37219     37218     37221     37223
     37219     37218     37221     37225     37220     37218     37221     37222
     37220     37218     37221     37223     37220     37218     37221     37225
     37220     37233     37237     37235     37220     37233     37238     37239
     37220     37233     37238     37240     37220     37233     37238     37241
     37221     37218     37220     37233     37221     37225     37215     37229
     37221     37225     37227     37228     37222     37221     37223     37224
     37222     37221     37225     37226     37222     37221     37225     37227
     37223     37221     37225     37226     37223     37221     37225     37227
     37224     37223     37221     37225     37225     37215     37229     37230
     37225     37215     37229     37231     37225     37215     37229     37232
     37226     37225     37215     37229     37226     37225     37227     37228
     37227     37225     37215     37229     37233     37237     37235     37236
     37233     37237     37235     37244     37233     37237     37235     37248
     37233     37238     37240     37252     37233     37238     37241     37242
     37233     37238     37241     37243     37233     37238     37241     37244
     37234     37233     37237     37235     37234     37233     37238     37239
     37234     37233     37238     37240     37234     37233     37238     37241
     37235     37237     37233     37238     37235     37244     37241     37238
     37235     37244     37241     37242     37235     37244     37241     37243
     37235     37244     37246     37247     37236     37235     37244     37241
     37236     37235     37244     37245     37236     37235     37244     37246
     37236     37235     37248     37249     37236     37235     37248     37250
     37236     37235     37248     37251     37237     37233     37238     37239
     37237     37233     37238     37240     37237     37233     37238     37241
     37237     37235     37244     37241     37237     37235     37244     37245
     37237     37235     37244     37246     37237     37235     37248     37249
     37237     37235     37248     37250     37237     37235     37248     37251
     37238     37240     37252     37253     37238     37240     37252     37256
     37238     37240     37252     37257     37238     37241     37243     37280
     37238     37241     37244     37245     37238     37241     37244     37246
     37239     37238     37240     37252     37239     37238     37241     37242
     37239     37238     37241     37243     37239     37238     37241     37244
     37240     37238     37241     37242     37240     37238     37241     37243
     37240     37238     37241     37244     37240     37252     37256     37254
     37240     37252     37257     37258     37240     37252     37257     37259
     37240     37252     37257     37267     37241     37238     37240     37252
     37241     37243     37280     37281     37241     37243     37280     37284
     37241     37243     37280     37285     37241     37244     37235     37248
     37241     37244     37246     37247     37242     37241     37243     37280
     37242     37241     37244     37245     37242     37241     37244     37246
     37243     37241     37244     37245     37243     37241     37244     37246
     37243     37280     37284     37282     37243     37280     37285     37286
     37243     37280     37285     37287     37243     37280     37285     37295
     37244     37235     37248     37249     37244     37235     37248     37250
     37244     37235     37248     37251     37244     37241     37243     37280
     37245     37244     37235     37248     37245     37244     37246     37247
     37246     37244     37235     37248     37252     37256     37254     37255
     37252     37256     37254     37271     37252     37256     37254     37275
     37252     37257     37259     37260     37252     37257     37259     37261
     37252     37257     37267     37268     37252     37257     37267     37269
     37252     37257     37267     37271     37253     37252     37256     37254
     37253     37252     37257     37258     37253     37252     37257     37259
     37253     37252     37257     37267     37254     37256     37252     37257
     37254     37271     37267     37257     37254     37271     37267     37268
     37254     37271     37267     37269     37254     37271     37273     37274
     37254     37275     37278     37279     37255     37254     37271     37267
     37255     37254     37271     37272     37255     37254     37271     37273
     37255     37254     37275     37276     37255     37254     37275     37277
     37255     37254     37275     37278     37256     37252     37257     37258
     37256     37252     37257     37259     37256     37252     37257     37267
     37256     37254     37271     37267     37256     37254     37271     37272
     37256     37254     37271     37273     37256     37254     37275     37276
     37256     37254     37275     37277     37256     37254     37275     37278
     37257     37259     37261     37262     37257     37259     37261     37263
     37257     37267     37269     37270     37257     37267     37271     37272
     37257     37267     37271     37273     37258     37257     37259     37260
     37258     37257     37259     37261     37258     37257     37267     37268
     37258     37257     37267     37269     37258     37257     37267     37271
     37259     37257     37267     37268     37259     37257     37267     37269
     37259     37257     37267     37271     37259     37261     37263     37264
     37259     37261     37263     37265     37259     37261     37263     37266
     37260     37259     37257     37267     37260     37259     37261     37262
     37260     37259     37261     37263     37261     37259     37257     37267
     37262     37261     37263     37264     37262     37261     37263     37265
     37262     37261     37263     37266     37267     37271     37254     37275
     37267     37271     37273     37274     37268     37267     37269     37270
     37268     37267     37271     37272     37268     37267     37271     37273
     37269     37267     37271     37272     37269     37267     37271     37273
     37270     37269     37267     37271     37271     37254     37275     37276
     37271     37254     37275     37277     37271     37254     37275     37278
     37272     37271     37254     37275     37272     37271     37273     37274
     37273     37271     37254     37275     37276     37275     37278     37279
     37277     37275     37278     37279     37280     37284     37282     37283
     37280     37284     37282     37298     37280     37284     37282     37302
     37280     37285     37287     37288     37280     37285     37287     37289
     37280     37285     37295     37296     37280     37285     37295     37297
     37280     37285     37295     37298     37281     37280     37284     37282
     37281     37280     37285     37286     37281     37280     37285     37287
     37281     37280     37285     37295     37282     37284     37280     37285
     37282     37298     37295     37285     37282     37298     37295     37296
     37282     37298     37295     37297     37282     37298     37300     37301
     37282     37302     37305     37306     37283     37282     37298     37295
     37283     37282     37298     37299     37283     37282     37298     37300
     37283     37282     37302     37303     37283     37282     37302     37304
     37283     37282     37302     37305     37284     37280     37285     37286
     37284     37280     37285     37287     37284     37280     37285     37295
     37284     37282     37298     37295     37284     37282     37298     37299
     37284     37282     37298     37300     37284     37282     37302     37303
     37284     37282     37302     37304     37284     37282     37302     37305
     37285     37287     37289     37290     37285     37287     37289     37291
     37285     37295     37297     37307     37285     37295     37298     37299
     37285     37295     37298     37300     37286     37285     37287     37288
     37286     37285     37287     37289     37286     37285     37295     37296
     37286     37285     37295     37297     37286     37285     37295     37298
     37287     37285     37295     37296     37287     37285     37295     37297
     37287     37285     37295     37298     37287     37289     37291     37292
     37287     37289     37291     37293     37287     37289     37291     37294
     37288     37287     37285     37295     37288     37287     37289     37290
     37288     37287     37289     37291     37289     37287     37285     37295
     37290     37289     37291     37292     37290     37289     37291     37293
     37290     37289     37291     37294     37295     37297     37307     37308
     37295     37297     37307     37311     37295     37297     37307     37312
     37295     37298     37282     37302     37295     37298     37300     37301
     37296     37295     37297     37307     37296     37295     37298     37299
     37296     37295     37298     37300     37297     37295     37298     37299
     37297     37295     37298     37300     37297     37307     37311     37309
     37297     37307     37312     37313     37297     37307     37312     37314
     37297     37307     37312     37315     37298     37282     37302     37303
     37298     37282     37302     37304     37298     37282     37302     37305
     37298     37295     37297     37307     37299     37298     37282     37302
     37299     37298     37300     37301     37300     37298     37282     37302
     37303     37302     37305     37306     37304     37302     37305     37306
     37307     37311     37309     37310     37307     37311     37309     37319
     37307     37311     37309     37323     37307     37312     37314     37328
     37307     37312     37315     37316     37307     37312     37315     37317
     37307     37312     37315     37319     37308     37307     37311     37309
     37308     37307     37312     37313     37308     37307     37312     37314
     37308     37307     37312     37315     37309     37311     37307     37312
     37309     37319     37315     37312     37309     37319     37315     37316
     37309     37319     37315     37317     37309     37319     37321     37322
     37309     37323     37326     37327     37310     37309     37319     37315
     37310     37309     37319     37320     37310     37309     37319     37321
     37310     37309     37323     37324     37310     37309     37323     37325
     37310     37309     37323     37326     37311     37307     37312     37313
     37311     37307     37312     37314     37311     37307     37312     37315
     37311     37309     37319     37315     37311     37309     37319     37320
     37311     37309     37319     37321     37311     37309     37323     37324
     37311     37309     37323     37325     37311     37309     37323     37326
     37312     37314     37328     37329     37312     37314     37328     37332
     37312     37314     37328     37333     37312     37315     37317     37318
     37312     37315     37319     37320     37312     37315     37319     37321
     37313     37312     37314     37328     37313     37312     37315     37316
     37313     37312     37315     37317     37313     37312     37315     37319
     37314     37312     37315     37316     37314     37312     37315     37317
     37314     37312     37315     37319     37314     37328     37332     37330
     37314     37328     37333     37334     37314     37328     37333     37335
     37314     37328     37333     37336     37315     37312     37314     37328
     37315     37319     37309     37323     37315     37319     37321     37322
     37316     37315     37317     37318     37316     37315     37319     37320
     37316     37315     37319     37321     37317     37315     37319     37320
     37317     37315     37319     37321     37318     37317     37315     37319
     37319     37309     37323     37324     37319     37309     37323     37325
     37319     37309     37323     37326     37320     37319     37309     37323
     37320     37319     37321     37322     37321     37319     37309     37323
     37324     37323     37326     37327     37325     37323     37326     37327
     37328     37332     37330     37331     37328     37332     37330     37340
     37328     37332     37330     37344     37328     37333     37335     37348
     37328     37333     37336     37337     37328     37333     37336     37338
     37328     37333     37336     37340     37329     37328     37332     37330
     37329     37328     37333     37334     37329     37328     37333     37335
     37329     37328     37333     37336     37330     37332     37328     37333
     37330     37340     37336     37333     37330     37340     37336     37337
     37330     37340     37336     37338     37330     37340     37342     37343
     37331     37330     37340     37336     37331     37330     37340     37341
     37331     37330     37340     37342     37331     37330     37344     37345
     37331     37330     37344     37346     37331     37330     37344     37347
     37332     37328     37333     37334     37332     37328     37333     37335
     37332     37328     37333     37336     37332     37330     37340     37336
     37332     37330     37340     37341     37332     37330     37340     37342
     37332     37330     37344     37345     37332     37330     37344     37346
     37332     37330     37344     37347     37333     37335     37348     37349
     37333     37335     37348     37352     37333     37335     37348     37353
     37333     37336     37338     37339     37333     37336     37340     37341
     37333     37336     37340     37342     37334     37333     37335     37348
     37334     37333     37336     37337     37334     37333     37336     37338
     37334     37333     37336     37340     37335     37333     37336     37337
     37335     37333     37336     37338     37335     37333     37336     37340
     37335     37348     37352     37350     37335     37348     37353     37354
     37335     37348     37353     37355     37335     37348     37353     37356
     37336     37333     37335     37348     37336     37340     37330     37344
     37336     37340     37342     37343     37337     37336     37338     37339
     37337     37336     37340     37341     37337     37336     37340     37342
     37338     37336     37340     37341     37338     37336     37340     37342
     37339     37338     37336     37340     37340     37330     37344     37345
     37340     37330     37344     37346     37340     37330     37344     37347
     37341     37340     37330     37344     37341     37340     37342     37343
     37342     37340     37330     37344     37348     37352     37350     37351
     37348     37352     37350     37359     37348     37352     37350     37363
     37348     37353     37355     37367     37348     37353     37356     37357
     37348     37353     37356     37358     37348     37353     37356     37359
     37349     37348     37352     37350     37349     37348     37353     37354
     37349     37348     37353     37355     37349     37348     37353     37356
     37350     37352     37348     37353     37350     37359     37356     37353
     37350     37359     37356     37357     37350     37359     37356     37358
     37350     37359     37361     37362     37351     37350     37359     37356
     37351     37350     37359     37360     37351     37350     37359     37361
     37351     37350     37363     37364     37351     37350     37363     37365
     37351     37350     37363     37366     37352     37348     37353     37354
     37352     37348     37353     37355     37352     37348     37353     37356
     37352     37350     37359     37356     37352     37350     37359     37360
     37352     37350     37359     37361     37352     37350     37363     37364
     37352     37350     37363     37365     37352     37350     37363     37366
     37353     37355     37367     37368     37353     37355     37367     37371
     37353     37355     37367     37372     37353     37356     37358     37395
     37353     37356     37359     37360     37353     37356     37359     37361
     37354     37353     37355     37367     37354     37353     37356     37357
     37354     37353     37356     37358     37354     37353     37356     37359
     37355     37353     37356     37357     37355     37353     37356     37358
     37355     37353     37356     37359     37355     37367     37371     37369
     37355     37367     37372     37373     37355     37367     37372     37374
     37355     37367     37372     37382     37356     37353     37355     37367
     37356     37358     37395     37396     37356     37358     37395     37399
     37356     37358     37395     37400     37356     37359     37350     37363
     37356     37359     37361     37362     37357     37356     37358     37395
     37357     37356     37359     37360     37357     37356     37359     37361
     37358     37356     37359     37360     37358     37356     37359     37361
     37358     37395     37399     37397     37358     37395     37400     37401
     37358     37395     37400     37402     37358     37395     37400     37410
     37359     37350     37363     37364     37359     37350     37363     37365
     37359     37350     37363     37366     37359     37356     37358     37395
     37360     37359     37350     37363     37360     37359     37361     37362
     37361     37359     37350     37363     37367     37371     37369     37370
     37367     37371     37369     37386     37367     37371     37369     37390
     37367     37372     37374     37375     37367     37372     37374     37376
     37367     37372     37382     37383     37367     37372     37382     37384
     37367     37372     37382     37386     37368     37367     37371     37369
     37368     37367     37372     37373     37368     37367     37372     37374
     37368     37367     37372     37382     37369     37371     37367     37372
     37369     37386     37382     37372     37369     37386     37382     37383
     37369     37386     37382     37384     37369     37386     37388     37389
     37369     37390     37393     37394     37370     37369     37386     37382
     37370     37369     37386     37387     37370     37369     37386     37388
     37370     37369     37390     37391     37370     37369     37390     37392
     37370     37369     37390     37393     37371     37367     37372     37373
     37371     37367     37372     37374     37371     37367     37372     37382
     37371     37369     37386     37382     37371     37369     37386     37387
     37371     37369     37386     37388     37371     37369     37390     37391
     37371     37369     37390     37392     37371     37369     37390     37393
     37372     37374     37376     37377     37372     37374     37376     37378
     37372     37382     37384     37385     37372     37382     37386     37387
     37372     37382     37386     37388     37373     37372     37374     37375
     37373     37372     37374     37376     37373     37372     37382     37383
     37373     37372     37382     37384     37373     37372     37382     37386
     37374     37372     37382     37383     37374     37372     37382     37384
     37374     37372     37382     37386     37374     37376     37378     37379
     37374     37376     37378     37380     37374     37376     37378     37381
     37375     37374     37372     37382     37375     37374     37376     37377
     37375     37374     37376     37378     37376     37374     37372     37382
     37377     37376     37378     37379     37377     37376     37378     37380
     37377     37376     37378     37381     37382     37386     37369     37390
     37382     37386     37388     37389     37383     37382     37384     37385
     37383     37382     37386     37387     37383     37382     37386     37388
     37384     37382     37386     37387     37384     37382     37386     37388
     37385     37384     37382     37386     37386     37369     37390     37391
     37386     37369     37390     37392     37386     37369     37390     37393
     37387     37386     37369     37390     37387     37386     37388     37389
     37388     37386     37369     37390     37391     37390     37393     37394
     37392     37390     37393     37394     37395     37399     37397     37398
     37395     37399     37397     37413     37395     37399     37397     37417
     37395     37400     37402     37403     37395     37400     37402     37404
     37395     37400     37410     37411     37395     37400     37410     37412
     37395     37400     37410     37413     37396     37395     37399     37397
     37396     37395     37400     37401     37396     37395     37400     37402
     37396     37395     37400     37410     37397     37399     37395     37400
     37397     37413     37410     37400     37397     37413     37410     37411
     37397     37413     37410     37412     37397     37413     37415     37416
     37397     37417     37420     37421     37398     37397     37413     37410
     37398     37397     37413     37414     37398     37397     37413     37415
     37398     37397     37417     37418     37398     37397     37417     37419
     37398     37397     37417     37420     37399     37395     37400     37401
     37399     37395     37400     37402     37399     37395     37400     37410
     37399     37397     37413     37410     37399     37397     37413     37414
     37399     37397     37413     37415     37399     37397     37417     37418
     37399     37397     37417     37419     37399     37397     37417     37420
     37400     37402     37404     37405     37400     37402     37404     37406
     37400     37410     37412     37422     37400     37410     37413     37414
     37400     37410     37413     37415     37401     37400     37402     37403
     37401     37400     37402     37404     37401     37400     37410     37411
     37401     37400     37410     37412     37401     37400     37410     37413
     37402     37400     37410     37411     37402     37400     37410     37412
     37402     37400     37410     37413     37402     37404     37406     37407
     37402     37404     37406     37408     37402     37404     37406     37409
     37403     37402     37400     37410     37403     37402     37404     37405
     37403     37402     37404     37406     37404     37402     37400     37410
     37405     37404     37406     37407     37405     37404     37406     37408
     37405     37404     37406     37409     37410     37412     37422     37423
     37410     37412     37422     37426     37410     37412     37422     37427
     37410     37413     37397     37417     37410     37413     37415     37416
     37411     37410     37412     37422     37411     37410     37413     37414
     37411     37410     37413     37415     37412     37410     37413     37414
     37412     37410     37413     37415     37412     37422     37426     37424
     37412     37422     37427     37428     37412     37422     37427     37429
     37412     37422     37427     37430     37413     37397     37417     37418
     37413     37397     37417     37419     37413     37397     37417     37420
     37413     37410     37412     37422     37414     37413     37397     37417
     37414     37413     37415     37416     37415     37413     37397     37417
     37418     37417     37420     37421     37419     37417     37420     37421
     37422     37426     37424     37425     37422     37426     37424     37434
     37422     37426     37424     37438     37422     37427     37429     37443
     37422     37427     37430     37431     37422     37427     37430     37432
     37422     37427     37430     37434     37423     37422     37426     37424
     37423     37422     37427     37428     37423     37422     37427     37429
     37423     37422     37427     37430     37424     37426     37422     37427
     37424     37434     37430     37427     37424     37434     37430     37431
     37424     37434     37430     37432     37424     37434     37436     37437
     37424     37438     37441     37442     37425     37424     37434     37430
     37425     37424     37434     37435     37425     37424     37434     37436
     37425     37424     37438     37439     37425     37424     37438     37440
     37425     37424     37438     37441     37426     37422     37427     37428
     37426     37422     37427     37429     37426     37422     37427     37430
     37426     37424     37434     37430     37426     37424     37434     37435
     37426     37424     37434     37436     37426     37424     37438     37439
     37426     37424     37438     37440     37426     37424     37438     37441
     37427     37429     37443     37444     37427     37429     37443     37447
     37427     37429     37443     37448     37427     37430     37432     37433
     37427     37430     37434     37435     37427     37430     37434     37436
     37428     37427     37429     37443     37428     37427     37430     37431
     37428     37427     37430     37432     37428     37427     37430     37434
     37429     37427     37430     37431     37429     37427     37430     37432
     37429     37427     37430     37434     37429     37443     37447     37445
     37429     37443     37448     37449     37429     37443     37448     37450
     37429     37443     37448     37451     37430     37427     37429     37443
     37430     37434     37424     37438     37430     37434     37436     37437
     37431     37430     37432     37433     37431     37430     37434     37435
     37431     37430     37434     37436     37432     37430     37434     37435
     37432     37430     37434     37436     37433     37432     37430     37434
     37434     37424     37438     37439     37434     37424     37438     37440
     37434     37424     37438     37441     37435     37434     37424     37438
     37435     37434     37436     37437     37436     37434     37424     37438
     37439     37438     37441     37442     37440     37438     37441     37442
     37443     37447     37445     37446     37443     37447     37445     37455
     37443     37447     37445     37459     37443     37448     37450     37463
     37443     37448     37451     37452     37443     37448     37451     37453
     37443     37448     37451     37455     37444     37443     37447     37445
     37444     37443     37448     37449     37444     37443     37448     37450
     37444     37443     37448     37451     37445     37447     37443     37448
     37445     37455     37451     37448     37445     37455     37451     37452
     37445     37455     37451     37453     37445     37455     37457     37458
     37446     37445     37455     37451     37446     37445     37455     37456
     37446     37445     37455     37457     37446     37445     37459     37460
     37446     37445     37459     37461     37446     37445     37459     37462
     37447     37443     37448     37449     37447     37443     37448     37450
     37447     37443     37448     37451     37447     37445     37455     37451
     37447     37445     37455     37456     37447     37445     37455     37457
     37447     37445     37459     37460     37447     37445     37459     37461
     37447     37445     37459     37462     37448     37450     37463     37464
     37448     37450     37463     37467     37448     37450     37463     37468
     37448     37451     37453     37454     37448     37451     37455     37456
     37448     37451     37455     37457     37449     37448     37450     37463
     37449     37448     37451     37452     37449     37448     37451     37453
     37449     37448     37451     37455     37450     37448     37451     37452
     37450     37448     37451     37453     37450     37448     37451     37455
     37450     37463     37467     37465     37450     37463     37468     37469
     37450     37463     37468     37470     37450     37463     37468     37471
     37451     37448     37450     37463     37451     37455     37445     37459
     37451     37455     37457     37458     37452     37451     37453     37454
     37452     37451     37455     37456     37452     37451     37455     37457
     37453     37451     37455     37456     37453     37451     37455     37457
     37454     37453     37451     37455     37455     37445     37459     37460
     37455     37445     37459     37461     37455     37445     37459     37462
     37456     37455     37445     37459     37456     37455     37457     37458
     37457     37455     37445     37459     37463     37467     37465     37466
     37463     37467     37465     37474     37463     37467     37465     37478
     37463     37468     37470     37482     37463     37468     37471     37472
     37463     37468     37471     37473     37463     37468     37471     37474
     37464     37463     37467     37465     37464     37463     37468     37469
     37464     37463     37468     37470     37464     37463     37468     37471
     37465     37467     37463     37468     37465     37474     37471     37468
     37465     37474     37471     37472     37465     37474     37471     37473
     37465     37474     37476     37477     37466     37465     37474     37471
     37466     37465     37474     37475     37466     37465     37474     37476
     37466     37465     37478     37479     37466     37465     37478     37480
     37466     37465     37478     37481     37467     37463     37468     37469
     37467     37463     37468     37470     37467     37463     37468     37471
     37467     37465     37474     37471     37467     37465     37474     37475
     37467     37465     37474     37476     37467     37465     37478     37479
     37467     37465     37478     37480     37467     37465     37478     37481
     37468     37470     37482     37483     37468     37470     37482     37486
     37468     37470     37482     37487     37468     37471     37473     37510
     37468     37471     37474     37475     37468     37471     37474     37476
     37469     37468     37470     37482     37469     37468     37471     37472
     37469     37468     37471     37473     37469     37468     37471     37474
     37470     37468     37471     37472     37470     37468     37471     37473
     37470     37468     37471     37474     37470     37482     37486     37484
     37470     37482     37487     37488     37470     37482     37487     37489
     37470     37482     37487     37497     37471     37468     37470     37482
     37471     37473     37510     37511     37471     37473     37510     37514
     37471     37473     37510     37515     37471     37474     37465     37478
     37471     37474     37476     37477     37472     37471     37473     37510
     37472     37471     37474     37475     37472     37471     37474     37476
     37473     37471     37474     37475     37473     37471     37474     37476
     37473     37510     37514     37512     37473     37510     37515     37516
     37473     37510     37515     37517     37473     37510     37515     37525
     37474     37465     37478     37479     37474     37465     37478     37480
     37474     37465     37478     37481     37474     37471     37473     37510
     37475     37474     37465     37478     37475     37474     37476     37477
     37476     37474     37465     37478     37482     37486     37484     37485
     37482     37486     37484     37501     37482     37486     37484     37505
     37482     37487     37489     37490     37482     37487     37489     37491
     37482     37487     37497     37498     37482     37487     37497     37499
     37482     37487     37497     37501     37483     37482     37486     37484
     37483     37482     37487     37488     37483     37482     37487     37489
     37483     37482     37487     37497     37484     37486     37482     37487
     37484     37501     37497     37487     37484     37501     37497     37498
     37484     37501     37497     37499     37484     37501     37503     37504
     37484     37505     37508     37509     37485     37484     37501     37497
     37485     37484     37501     37502     37485     37484     37501     37503
     37485     37484     37505     37506     37485     37484     37505     37507
     37485     37484     37505     37508     37486     37482     37487     37488
     37486     37482     37487     37489     37486     37482     37487     37497
     37486     37484     37501     37497     37486     37484     37501     37502
     37486     37484     37501     37503     37486     37484     37505     37506
     37486     37484     37505     37507     37486     37484     37505     37508
     37487     37489     37491     37492     37487     37489     37491     37493
     37487     37497     37499     37500     37487     37497     37501     37502
     37487     37497     37501     37503     37488     37487     37489     37490
     37488     37487     37489     37491     37488     37487     37497     37498
     37488     37487     37497     37499     37488     37487     37497     37501
     37489     37487     37497     37498     37489     37487     37497     37499
     37489     37487     37497     37501     37489     37491     37493     37494
     37489     37491     37493     37495     37489     37491     37493     37496
     37490     37489     37487     37497     37490     37489     37491     37492
     37490     37489     37491     37493     37491     37489     37487     37497
     37492     37491     37493     37494     37492     37491     37493     37495
     37492     37491     37493     37496     37497     37501     37484     37505
     37497     37501     37503     37504     37498     37497     37499     37500
     37498     37497     37501     37502     37498     37497     37501     37503
     37499     37497     37501     37502     37499     37497     37501     37503
     37500     37499     37497     37501     37501     37484     37505     37506
     37501     37484     37505     37507     37501     37484     37505     37508
     37502     37501     37484     37505     37502     37501     37503     37504
     37503     37501     37484     37505     37506     37505     37508     37509
     37507     37505     37508     37509     37510     37514     37512     37513
     37510     37514     37512     37528     37510     37514     37512     37532
     37510     37515     37517     37518     37510     37515     37517     37519
     37510     37515     37525     37526     37510     37515     37525     37527
     37510     37515     37525     37528     37511     37510     37514     37512
     37511     37510     37515     37516     37511     37510     37515     37517
     37511     37510     37515     37525     37512     37514     37510     37515
     37512     37528     37525     37515     37512     37528     37525     37526
     37512     37528     37525     37527     37512     37528     37530     37531
     37512     37532     37535     37536     37513     37512     37528     37525
     37513     37512     37528     37529     37513     37512     37528     37530
     37513     37512     37532     37533     37513     37512     37532     37534
     37513     37512     37532     37535     37514     37510     37515     37516
     37514     37510     37515     37517     37514     37510     37515     37525
     37514     37512     37528     37525     37514     37512     37528     37529
     37514     37512     37528     37530     37514     37512     37532     37533
     37514     37512     37532     37534     37514     37512     37532     37535
     37515     37517     37519     37520     37515     37517     37519     37521
     37515     37525     37527     37537     37515     37525     37528     37529
     37515     37525     37528     37530     37516     37515     37517     37518
     37516     37515     37517     37519     37516     37515     37525     37526
     37516     37515     37525     37527     37516     37515     37525     37528
     37517     37515     37525     37526     37517     37515     37525     37527
     37517     37515     37525     37528     37517     37519     37521     37522
     37517     37519     37521     37523     37517     37519     37521     37524
     37518     37517     37515     37525     37518     37517     37519     37520
     37518     37517     37519     37521     37519     37517     37515     37525
     37520     37519     37521     37522     37520     37519     37521     37523
     37520     37519     37521     37524     37525     37527     37537     37538
     37525     37527     37537     37541     37525     37527     37537     37542
     37525     37528     37512     37532     37525     37528     37530     37531
     37526     37525     37527     37537     37526     37525     37528     37529
     37526     37525     37528     37530     37527     37525     37528     37529
     37527     37525     37528     37530     37527     37537     37541     37539
     37527     37537     37542     37543     37527     37537     37542     37544
     37527     37537     37542     37545     37528     37512     37532     37533
     37528     37512     37532     37534     37528     37512     37532     37535
     37528     37525     37527     37537     37529     37528     37512     37532
     37529     37528     37530     37531     37530     37528     37512     37532
     37533     37532     37535     37536     37534     37532     37535     37536
     37537     37541     37539     37540     37537     37541     37539     37549
     37537     37541     37539     37553     37537     37542     37544     37558
     37537     37542     37545     37546     37537     37542     37545     37547
     37537     37542     37545     37549     37538     37537     37541     37539
     37538     37537     37542     37543     37538     37537     37542     37544
     37538     37537     37542     37545     37539     37541     37537     37542
     37539     37549     37545     37542     37539     37549     37545     37546
     37539     37549     37545     37547     37539     37549     37551     37552
     37539     37553     37556     37557     37540     37539     37549     37545
     37540     37539     37549     37550     37540     37539     37549     37551
     37540     37539     37553     37554     37540     37539     37553     37555
     37540     37539     37553     37556     37541     37537     37542     37543
     37541     37537     37542     37544     37541     37537     37542     37545
     37541     37539     37549     37545     37541     37539     37549     37550
     37541     37539     37549     37551     37541     37539     37553     37554
     37541     37539     37553     37555     37541     37539     37553     37556
     37542     37544     37558     37559     37542     37544     37558     37562
     37542     37544     37558     37563     37542     37545     37547     37548
     37542     37545     37549     37550     37542     37545     37549     37551
     37543     37542     37544     37558     37543     37542     37545     37546
     37543     37542     37545     37547     37543     37542     37545     37549
     37544     37542     37545     37546     37544     37542     37545     37547
     37544     37542     37545     37549     37544     37558     37562     37560
     37544     37558     37563     37564     37544     37558     37563     37565
     37544     37558     37563     37566     37545     37542     37544     37558
     37545     37549     37539     37553     37545     37549     37551     37552
     37546     37545     37547     37548     37546     37545     37549     37550
     37546     37545     37549     37551     37547     37545     37549     37550
     37547     37545     37549     37551     37548     37547     37545     37549
     37549     37539     37553     37554     37549     37539     37553     37555
     37549     37539     37553     37556     37550     37549     37539     37553
     37550     37549     37551     37552     37551     37549     37539     37553
     37554     37553     37556     37557     37555     37553     37556     37557
     37558     37562     37560     37561     37558     37562     37560     37570
     37558     37562     37560     37574     37558     37563     37565     37578
     37558     37563     37566     37567     37558     37563     37566     37568
     37558     37563     37566     37570     37559     37558     37562     37560
     37559     37558     37563     37564     37559     37558     37563     37565
     37559     37558     37563     37566     37560     37562     37558     37563
     37560     37570     37566     37563     37560     37570     37566     37567
     37560     37570     37566     37568     37560     37570     37572     37573
     37561     37560     37570     37566     37561     37560     37570     37571
     37561     37560     37570     37572     37561     37560     37574     37575
     37561     37560     37574     37576     37561     37560     37574     37577
     37562     37558     37563     37564     37562     37558     37563     37565
     37562     37558     37563     37566     37562     37560     37570     37566
     37562     37560     37570     37571     37562     37560     37570     37572
     37562     37560     37574     37575     37562     37560     37574     37576
     37562     37560     37574     37577     37563     37565     37578     37579
     37563     37565     37578     37582     37563     37565     37578     37583
     37563     37566     37568     37569     37563     37566     37570     37571
     37563     37566     37570     37572     37564     37563     37565     37578
     37564     37563     37566     37567     37564     37563     37566     37568
     37564     37563     37566     37570     37565     37563     37566     37567
     37565     37563     37566     37568     37565     37563     37566     37570
     37565     37578     37582     37580     37565     37578     37583     37584
     37565     37578     37583     37585     37565     37578     37583     37586
     37566     37563     37565     37578     37566     37570     37560     37574
     37566     37570     37572     37573     37567     37566     37568     37569
     37567     37566     37570     37571     37567     37566     37570     37572
     37568     37566     37570     37571     37568     37566     37570     37572
     37569     37568     37566     37570     37570     37560     37574     37575
     37570     37560     37574     37576     37570     37560     37574     37577
     37571     37570     37560     37574     37571     37570     37572     37573
     37572     37570     37560     37574     37578     37582     37580     37581
     37578     37582     37580     37589     37578     37582     37580     37593
     37578     37583     37585     37597     37578     37583     37586     37587
     37578     37583     37586     37588     37578     37583     37586     37589
     37579     37578     37582     37580     37579     37578     37583     37584
     37579     37578     37583     37585     37579     37578     37583     37586
     37580     37582     37578     37583     37580     37589     37586     37583
     37580     37589     37586     37587     37580     37589     37586     37588
     37580     37589     37591     37592     37581     37580     37589     37586
     37581     37580     37589     37590     37581     37580     37589     37591
     37581     37580     37593     37594     37581     37580     37593     37595
     37581     37580     37593     37596     37582     37578     37583     37584
     37582     37578     37583     37585     37582     37578     37583     37586
     37582     37580     37589     37586     37582     37580     37589     37590
     37582     37580     37589     37591     37582     37580     37593     37594
     37582     37580     37593     37595     37582     37580     37593     37596
     37583     37585     37597     37598     37583     37585     37597     37601
     37583     37585     37597     37602     37583     37586     37588     37625
     37583     37586     37589     37590     37583     37586     37589     37591
     37584     37583     37585     37597     37584     37583     37586     37587
     37584     37583     37586     37588     37584     37583     37586     37589
     37585     37583     37586     37587     37585     37583     37586     37588
     37585     37583     37586     37589     37585     37597     37601     37599
     37585     37597     37602     37603     37585     37597     37602     37604
     37585     37597     37602     37612     37586     37583     37585     37597
     37586     37588     37625     37626     37586     37588     37625     37629
     37586     37588     37625     37630     37586     37589     37580     37593
     37586     37589     37591     37592     37587     37586     37588     37625
     37587     37586     37589     37590     37587     37586     37589     37591
     37588     37586     37589     37590     37588     37586     37589     37591
     37588     37625     37629     37627     37588     37625     37630     37631
     37588     37625     37630     37632     37588     37625     37630     37640
     37589     37580     37593     37594     37589     37580     37593     37595
     37589     37580     37593     37596     37589     37586     37588     37625
     37590     37589     37580     37593     37590     37589     37591     37592
     37591     37589     37580     37593     37597     37601     37599     37600
     37597     37601     37599     37616     37597     37601     37599     37620
     37597     37602     37604     37605     37597     37602     37604     37606
     37597     37602     37612     37613     37597     37602     37612     37614
     37597     37602     37612     37616     37598     37597     37601     37599
     37598     37597     37602     37603     37598     37597     37602     37604
     37598     37597     37602     37612     37599     37601     37597     37602
     37599     37616     37612     37602     37599     37616     37612     37613
     37599     37616     37612     37614     37599     37616     37618     37619
     37599     37620     37623     37624     37600     37599     37616     37612
     37600     37599     37616     37617     37600     37599     37616     37618
     37600     37599     37620     37621     37600     37599     37620     37622
     37600     37599     37620     37623     37601     37597     37602     37603
     37601     37597     37602     37604     37601     37597     37602     37612
     37601     37599     37616     37612     37601     37599     37616     37617
     37601     37599     37616     37618     37601     37599     37620     37621
     37601     37599     37620     37622     37601     37599     37620     37623
     37602     37604     37606     37607     37602     37604     37606     37608
     37602     37612     37614     37615     37602     37612     37616     37617
     37602     37612     37616     37618     37603     37602     37604     37605
     37603     37602     37604     37606     37603     37602     37612     37613
     37603     37602     37612     37614     37603     37602     37612     37616
     37604     37602     37612     37613     37604     37602     37612     37614
     37604     37602     37612     37616     37604     37606     37608     37609
     37604     37606     37608     37610     37604     37606     37608     37611
     37605     37604     37602     37612     37605     37604     37606     37607
     37605     37604     37606     37608     37606     37604     37602     37612
     37607     37606     37608     37609     37607     37606     37608     37610
     37607     37606     37608     37611     37612     37616     37599     37620
     37612     37616     37618     37619     37613     37612     37614     37615
     37613     37612     37616     37617     37613     37612     37616     37618
     37614     37612     37616     37617     37614     37612     37616     37618
     37615     37614     37612     37616     37616     37599     37620     37621
     37616     37599     37620     37622     37616     37599     37620     37623
     37617     37616     37599     37620     37617     37616     37618     37619
     37618     37616     37599     37620     37621     37620     37623     37624
     37622     37620     37623     37624     37625     37629     37627     37628
     37625     37629     37627     37643     37625     37629     37627     37647
     37625     37630     37632     37633     37625     37630     37632     37634
     37625     37630     37640     37641     37625     37630     37640     37642
     37625     37630     37640     37643     37626     37625     37629     37627
     37626     37625     37630     37631     37626     37625     37630     37632
     37626     37625     37630     37640     37627     37629     37625     37630
     37627     37643     37640     37630     37627     37643     37640     37641
     37627     37643     37640     37642     37627     37643     37645     37646
     37627     37647     37650     37651     37628     37627     37643     37640
     37628     37627     37643     37644     37628     37627     37643     37645
     37628     37627     37647     37648     37628     37627     37647     37649
     37628     37627     37647     37650     37629     37625     37630     37631
     37629     37625     37630     37632     37629     37625     37630     37640
     37629     37627     37643     37640     37629     37627     37643     37644
     37629     37627     37643     37645     37629     37627     37647     37648
     37629     37627     37647     37649     37629     37627     37647     37650
     37630     37632     37634     37635     37630     37632     37634     37636
     37630     37640     37642     37652     37630     37640     37643     37644
     37630     37640     37643     37645     37631     37630     37632     37633
     37631     37630     37632     37634     37631     37630     37640     37641
     37631     37630     37640     37642     37631     37630     37640     37643
     37632     37630     37640     37641     37632     37630     37640     37642
     37632     37630     37640     37643     37632     37634     37636     37637
     37632     37634     37636     37638     37632     37634     37636     37639
     37633     37632     37630     37640     37633     37632     37634     37635
     37633     37632     37634     37636     37634     37632     37630     37640
     37635     37634     37636     37637     37635     37634     37636     37638
     37635     37634     37636     37639     37640     37642     37652     37653
     37640     37642     37652     37656     37640     37642     37652     37657
     37640     37643     37627     37647     37640     37643     37645     37646
     37641     37640     37642     37652     37641     37640     37643     37644
     37641     37640     37643     37645     37642     37640     37643     37644
     37642     37640     37643     37645     37642     37652     37656     37654
     37642     37652     37657     37658     37642     37652     37657     37659
     37642     37652     37657     37660     37643     37627     37647     37648
     37643     37627     37647     37649     37643     37627     37647     37650
     37643     37640     37642     37652     37644     37643     37627     37647
     37644     37643     37645     37646     37645     37643     37627     37647
     37648     37647     37650     37651     37649     37647     37650     37651
     37652     37656     37654     37655     37652     37656     37654     37664
     37652     37656     37654     37668     37652     37657     37659     37673
     37652     37657     37660     37661     37652     37657     37660     37662
     37652     37657     37660     37664     37653     37652     37656     37654
     37653     37652     37657     37658     37653     37652     37657     37659
     37653     37652     37657     37660     37654     37656     37652     37657
     37654     37664     37660     37657     37654     37664     37660     37661
     37654     37664     37660     37662     37654     37664     37666     37667
     37654     37668     37671     37672     37655     37654     37664     37660
     37655     37654     37664     37665     37655     37654     37664     37666
     37655     37654     37668     37669     37655     37654     37668     37670
     37655     37654     37668     37671     37656     37652     37657     37658
     37656     37652     37657     37659     37656     37652     37657     37660
     37656     37654     37664     37660     37656     37654     37664     37665
     37656     37654     37664     37666     37656     37654     37668     37669
     37656     37654     37668     37670     37656     37654     37668     37671
     37657     37659     37673     37674     37657     37659     37673     37677
     37657     37659     37673     37678     37657     37660     37662     37663
     37657     37660     37664     37665     37657     37660     37664     37666
     37658     37657     37659     37673     37658     37657     37660     37661
     37658     37657     37660     37662     37658     37657     37660     37664
     37659     37657     37660     37661     37659     37657     37660     37662
     37659     37657     37660     37664     37659     37673     37677     37675
     37659     37673     37678     37679     37659     37673     37678     37680
     37659     37673     37678     37681     37660     37657     37659     37673
     37660     37664     37654     37668     37660     37664     37666     37667
     37661     37660     37662     37663     37661     37660     37664     37665
     37661     37660     37664     37666     37662     37660     37664     37665
     37662     37660     37664     37666     37663     37662     37660     37664
     37664     37654     37668     37669     37664     37654     37668     37670
     37664     37654     37668     37671     37665     37664     37654     37668
     37665     37664     37666     37667     37666     37664     37654     37668
     37669     37668     37671     37672     37670     37668     37671     37672
     37673     37677     37675     37676     37673     37677     37675     37685
     37673     37677     37675     37689     37673     37678     37680     37693
     37673     37678     37681     37682     37673     37678     37681     37683
     37673     37678     37681     37685     37674     37673     37677     37675
     37674     37673     37678     37679     37674     37673     37678     37680
     37674     37673     37678     37681     37675     37677     37673     37678
     37675     37685     37681     37678     37675     37685     37681     37682
     37675     37685     37681     37683     37675     37685     37687     37688
     37676     37675     37685     37681     37676     37675     37685     37686
     37676     37675     37685     37687     37676     37675     37689     37690
     37676     37675     37689     37691     37676     37675     37689     37692
     37677     37673     37678     37679     37677     37673     37678     37680
     37677     37673     37678     37681     37677     37675     37685     37681
     37677     37675     37685     37686     37677     37675     37685     37687
     37677     37675     37689     37690     37677     37675     37689     37691
     37677     37675     37689     37692     37678     37680     37693     37694
     37678     37680     37693     37697     37678     37680     37693     37698
     37678     37681     37683     37684     37678     37681     37685     37686
     37678     37681     37685     37687     37679     37678     37680     37693
     37679     37678     37681     37682     37679     37678     37681     37683
     37679     37678     37681     37685     37680     37678     37681     37682
     37680     37678     37681     37683     37680     37678     37681     37685
     37680     37693     37697     37695     37680     37693     37698     37699
     37680     37693     37698     37700     37680     37693     37698     37701
     37681     37678     37680     37693     37681     37685     37675     37689
     37681     37685     37687     37688     37682     37681     37683     37684
     37682     37681     37685     37686     37682     37681     37685     37687
     37683     37681     37685     37686     37683     37681     37685     37687
     37684     37683     37681     37685     37685     37675     37689     37690
     37685     37675     37689     37691     37685     37675     37689     37692
     37686     37685     37675     37689     37686     37685     37687     37688
     37687     37685     37675     37689     37693     37697     37695     37696
     37693     37697     37695     37705     37693     37697     37695     37709
     37693     37698     37700     37713     37693     37698     37701     37702
     37693     37698     37701     37703     37693     37698     37701     37705
     37694     37693     37697     37695     37694     37693     37698     37699
     37694     37693     37698     37700     37694     37693     37698     37701
     37695     37697     37693     37698     37695     37705     37701     37698
     37695     37705     37701     37702     37695     37705     37701     37703
     37695     37705     37707     37708     37696     37695     37705     37701
     37696     37695     37705     37706     37696     37695     37705     37707
     37696     37695     37709     37710     37696     37695     37709     37711
     37696     37695     37709     37712     37697     37693     37698     37699
     37697     37693     37698     37700     37697     37693     37698     37701
     37697     37695     37705     37701     37697     37695     37705     37706
     37697     37695     37705     37707     37697     37695     37709     37710
     37697     37695     37709     37711     37697     37695     37709     37712
     37698     37700     37713     37714     37698     37700     37713     37717
     37698     37700     37713     37718     37698     37701     37703     37704
     37698     37701     37705     37706     37698     37701     37705     37707
     37699     37698     37700     37713     37699     37698     37701     37702
     37699     37698     37701     37703     37699     37698     37701     37705
     37700     37698     37701     37702     37700     37698     37701     37703
     37700     37698     37701     37705     37700     37713     37717     37715
     37700     37713     37718     37719     37700     37713     37718     37720
     37700     37713     37718     37728     37701     37698     37700     37713
     37701     37705     37695     37709     37701     37705     37707     37708
     37702     37701     37703     37704     37702     37701     37705     37706
     37702     37701     37705     37707     37703     37701     37705     37706
     37703     37701     37705     37707     37704     37703     37701     37705
     37705     37695     37709     37710     37705     37695     37709     37711
     37705     37695     37709     37712     37706     37705     37695     37709
     37706     37705     37707     37708     37707     37705     37695     37709
     37713     37717     37715     37716     37713     37717     37715     37732
     37713     37717     37715     37736     37713     37718     37720     37721
     37713     37718     37720     37722     37713     37718     37728     37729
     37713     37718     37728     37730     37713     37718     37728     37732
     37714     37713     37717     37715     37714     37713     37718     37719
     37714     37713     37718     37720     37714     37713     37718     37728
     37715     37717     37713     37718     37715     37732     37728     37718
     37715     37732     37728     37729     37715     37732     37728     37730
     37715     37732     37734     37735     37715     37736     37739     37740
     37716     37715     37732     37728     37716     37715     37732     37733
     37716     37715     37732     37734     37716     37715     37736     37737
     37716     37715     37736     37738     37716     37715     37736     37739
     37717     37713     37718     37719     37717     37713     37718     37720
     37717     37713     37718     37728     37717     37715     37732     37728
     37717     37715     37732     37733     37717     37715     37732     37734
     37717     37715     37736     37737     37717     37715     37736     37738
     37717     37715     37736     37739     37718     37720     37722     37723
     37718     37720     37722     37724     37718     37728     37730     37731
     37718     37728     37732     37733     37718     37728     37732     37734
     37719     37718     37720     37721     37719     37718     37720     37722
     37719     37718     37728     37729     37719     37718     37728     37730
     37719     37718     37728     37732     37720     37718     37728     37729
     37720     37718     37728     37730     37720     37718     37728     37732
     37720     37722     37724     37725     37720     37722     37724     37726
     37720     37722     37724     37727     37721     37720     37718     37728
     37721     37720     37722     37723     37721     37720     37722     37724
     37722     37720     37718     37728     37723     37722     37724     37725
     37723     37722     37724     37726     37723     37722     37724     37727
     37728     37732     37715     37736     37728     37732     37734     37735
     37729     37728     37730     37731     37729     37728     37732     37733
     37729     37728     37732     37734     37730     37728     37732     37733
     37730     37728     37732     37734     37731     37730     37728     37732
     37732     37715     37736     37737     37732     37715     37736     37738
     37732     37715     37736     37739     37733     37732     37715     37736
     37733     37732     37734     37735     37734     37732     37715     37736
     37737     37736     37739     37740     37738     37736     37739     37740
     37741     37743     37742     38040     37741     37743     37745     37746
     37741     37743     37745     37747     37741     37743     37745     37754
     37742     37743     37745     37746     37742     37743     37745     37747
     37742     37743     37745     37754     37742     38040     38037     38038
     37742     38040     38037     38039     37742     38040     38043     38041
     37742     38040     38044     38045     37742     38040     38044     38046
     37742     38040     38044     38047     37743     37742     38040     38037
     37743     37742     38040     38043     37743     37742     38040     38044
     37743     37745     37746     37748     37743     37745     37754     37755
     37743     37745     37754     37756     37743     37745     37754     37761
     37744     37743     37742     38040     37744     37743     37745     37746
     37744     37743     37745     37747     37744     37743     37745     37754
     37745     37743     37742     38040     37745     37746     37748     37749
     37745     37746     37748     37750     37745     37746     37748     37769
     37745     37754     37756     37757     37745     37754     37761     37762
     37745     37754     37761     37763     37745     37754     37761     37769
     37746     37745     37754     37755     37746     37745     37754     37756
     37746     37745     37754     37761     37746     37748     37750     37751
     37746     37748     37769     37761     37746     37748     37769     37770
     37746     37748     37769     37771     37747     37745     37746     37748
     37747     37745     37754     37755     37747     37745     37754     37756
     37747     37745     37754     37761     37748     37746     37745     37754
     37748     37750     37751     37752     37748     37750     37751     37753
     37748     37750     37751     37777     37748     37769     37761     37754
     37748     37769     37761     37762     37748     37769     37761     37763
     37748     37769     37771     37772     37748     37769     37771     37878
     37749     37748     37750     37751     37749     37748     37769     37761
     37749     37748     37769     37770     37749     37748     37769     37771
     37750     37748     37769     37761     37750     37748     37769     37770
     37750     37748     37769     37771     37750     37751     37777     37773
     37750     37751     37777     37778     37750     37751     37777     37779
     37751     37750     37748     37769     37751     37777     37773     37774
     37751     37777     37773     37775     37751     37777     37773     37787
     37751     37777     37779     37780     37752     37751     37777     37773
     37752     37751     37777     37778     37752     37751     37777     37779
     37753     37751     37777     37773     37753     37751     37777     37778
     37753     37751     37777     37779     37754     37756     37757     37758
     37754     37756     37757     37759     37754     37756     37757     37760
     37754     37761     37762     37764     37754     37761     37769     37770
     37754     37761     37769     37771     37755     37754     37756     37757
     37755     37754     37761     37762     37755     37754     37761     37763
     37755     37754     37761     37769     37756     37754     37761     37762
     37756     37754     37761     37763     37756     37754     37761     37769
     37757     37756     37754     37761     37761     37762     37764     37765
     37761     37762     37764     37766     37761     37769     37771     37772
     37761     37769     37771     37878     37762     37761     37769     37770
     37762     37761     37769     37771     37762     37764     37766     37767
     37762     37764     37766     37768     37762     37764     37766     37799
     37763     37761     37762     37764     37763     37761     37769     37770
     37763     37761     37769     37771     37764     37762     37761     37769
     37764     37766     37799     37800     37764     37766     37799     37801
     37764     37766     37799     37844     37765     37764     37766     37767
     37765     37764     37766     37768     37765     37764     37766     37799
     37766     37799     37801     37802     37766     37799     37844     37845
     37766     37799     37844     37846     37766     37799     37844     37847
     37767     37766     37799     37800     37767     37766     37799     37801
     37767     37766     37799     37844     37768     37766     37799     37800
     37768     37766     37799     37801     37768     37766     37799     37844
     37769     37771     37878     37879     37769     37771     37878     37880
     37770     37769     37771     37772     37770     37769     37771     37878
     37771     37878     37880     37881     37771     37878     37880     37882
     37771     37878     37880     37883     37772     37771     37878     37879
     37772     37771     37878     37880     37773     37777     37779     37780
     37773     37787     37789     37790     37773     37787     37795     37780
     37773     37787     37795     37796     37773     37787     37795     37797
     37774     37773     37775     37776     37774     37773     37777     37778
     37774     37773     37777     37779     37774     37773     37787     37788
     37774     37773     37787     37789     37774     37773     37787     37795
     37775     37773     37777     37778     37775     37773     37777     37779
     37775     37773     37787     37788     37775     37773     37787     37789
     37775     37773     37787     37795     37776     37775     37773     37777
     37776     37775     37773     37787     37777     37773     37787     37788
     37777     37773     37787     37789     37777     37773     37787     37795
     37777     37779     37780     37781     37777     37779     37780     37782
     37777     37779     37780     37795     37778     37777     37773     37787
     37778     37777     37779     37780     37779     37777     37773     37787
     37779     37780     37782     37786     37779     37780     37795     37787
     37779     37780     37795     37796     37779     37780     37795     37797
     37780     37782     37786     37783     37780     37782     37786     37784
     37780     37782     37786     37785     37780     37795     37787     37788
     37780     37795     37787     37789     37780     37795     37797     37798
     37780     37795     37797     37994     37781     37780     37782     37786
     37781     37780     37795     37787     37781     37780     37795     37796
     37781     37780     37795     37797     37782     37780     37795     37787
     37782     37780     37795     37796     37782     37780     37795     37797
     37786     37782     37780     37795     37787     37789     37790     37791
     37787     37789     37790     37792     37787     37795     37797     37798
     37787     37795     37797     37994     37788     37787     37789     37790
     37788     37787     37795     37796     37788     37787     37795     37797
     37789     37787     37795     37796     37789     37787     37795     37797
     37789     37790     37792     37793     37789     37790     37792     37794
     37789     37790     37792     37956     37790     37789     37787     37795
     37790     37792     37956     37957     37790     37792     37956     37958
     37790     37792     37956     37960     37791     37790     37792     37793
     37791     37790     37792     37794     37791     37790     37792     37956
     37792     37956     37958     37959     37792     37956     37960     37961
     37792     37956     37960     37962     37792     37956     37960     37963
     37793     37792     37956     37957     37793     37792     37956     37958
     37793     37792     37956     37960     37794     37792     37956     37957
     37794     37792     37956     37958     37794     37792     37956     37960
     37795     37797     37994     37995     37795     37797     37994     37996
     37796     37795     37797     37798     37796     37795     37797     37994
     37797     37994     37996     37997     37797     37994     37996     37998
     37797     37994     37996     37999     37798     37797     37994     37995
     37798     37797     37994     37996     37799     37801     37802     37803
     37799     37801     37802     37804     37799     37844     37847     37848
     37799     37844     37847     37849     37799     37844     37847     37850
     37800     37799     37801     37802     37800     37799     37844     37845
     37800     37799     37844     37846     37800     37799     37844     37847
     37801     37799     37844     37845     37801     37799     37844     37846
     37801     37799     37844     37847     37801     37802     37804     37805
     37801     37802     37804     37806     37801     37802     37804     37807
     37802     37801     37799     37844     37802     37804     37807     37808
     37802     37804     37807     37809     37802     37804     37807     37810
     37803     37802     37804     37805     37803     37802     37804     37806
     37803     37802     37804     37807     37804     37807     37810     37811
     37804     37807     37810     37812     37804     37807     37810     37813
     37805     37804     37807     37808     37805     37804     37807     37809
     37805     37804     37807     37810     37806     37804     37807     37808
     37806     37804     37807     37809     37806     37804     37807     37810
     37807     37810     37813     37814     37807     37810     37813     37815
     37807     37810     37813     37816     37808     37807     37810     37811
     37808     37807     37810     37812     37808     37807     37810     37813
     37809     37807     37810     37811     37809     37807     37810     37812
     37809     37807     37810     37813     37810     37813     37816     37817
     37810     37813     37816     37818     37810     37813     37816     37819
     37811     37810     37813     37814     37811     37810     37813     37815
     37811     37810     37813     37816     37812     37810     37813     37814
     37812     37810     37813     37815     37812     37810     37813     37816
     37813     37816     37819     37820     37813     37816     37819     37821
     37813     37816     37819     37822     37814     37813     37816     37817
     37814     37813     37816     37818     37814     37813     37816     37819
     37815     37813     37816     37817     37815     37813     37816     37818
     37815     37813     37816     37819     37816     37819     37822     37823
     37816     37819     37822     37824     37816     37819     37822     37825
     37817     37816     37819     37820     37817     37816     37819     37821
     37817     37816     37819     37822     37818     37816     37819     37820
     37818     37816     37819     37821     37818     37816     37819     37822
     37819     37822     37825     37826     37819     37822     37825     37827
     37819     37822     37825     37828     37820     37819     37822     37823
     37820     37819     37822     37824     37820     37819     37822     37825
     37821     37819     37822     37823     37821     37819     37822     37824
     37821     37819     37822     37825     37822     37825     37828     37829
     37822     37825     37828     37830     37822     37825     37828     37831
     37823     37822     37825     37826     37823     37822     37825     37827
     37823     37822     37825     37828     37824     37822     37825     37826
     37824     37822     37825     37827     37824     37822     37825     37828
     37825     37828     37831     37832     37825     37828     37831     37833
     37825     37828     37831     37834     37826     37825     37828     37829
     37826     37825     37828     37830     37826     37825     37828     37831
     37827     37825     37828     37829     37827     37825     37828     37830
     37827     37825     37828     37831     37828     37831     37834     37835
     37828     37831     37834     37836     37828     37831     37834     37837
     37829     37828     37831     37832     37829     37828     37831     37833
     37829     37828     37831     37834     37830     37828     37831     37832
     37830     37828     37831     37833     37830     37828     37831     37834
     37831     37834     37837     37838     37831     37834     37837     37839
     37831     37834     37837     37840     37832     37831     37834     37835
     37832     37831     37834     37836     37832     37831     37834     37837
     37833     37831     37834     37835     37833     37831     37834     37836
     37833     37831     37834     37837     37834     37837     37840     37841
     37834     37837     37840     37842     37834     37837     37840     37843
     37835     37834     37837     37838     37835     37834     37837     37839
     37835     37834     37837     37840     37836     37834     37837     37838
     37836     37834     37837     37839     37836     37834     37837     37840
     37838     37837     37840     37841     37838     37837     37840     37842
     37838     37837     37840     37843     37839     37837     37840     37841
     37839     37837     37840     37842     37839     37837     37840     37843
     37844     37847     37850     37851     37844     37847     37850     37852
     37844     37847     37850     37853     37845     37844     37847     37848
     37845     37844     37847     37849     37845     37844     37847     37850
     37846     37844     37847     37848     37846     37844     37847     37849
     37846     37844     37847     37850     37847     37850     37853     37854
     37847     37850     37853     37855     37847     37850     37853     37856
     37848     37847     37850     37851     37848     37847     37850     37852
     37848     37847     37850     37853     37849     37847     37850     37851
     37849     37847     37850     37852     37849     37847     37850     37853
     37850     37853     37856     37857     37850     37853     37856     37858
     37850     37853     37856     37859     37851     37850     37853     37854
     37851     37850     37853     37855     37851     37850     37853     37856
     37852     37850     37853     37854     37852     37850     37853     37855
     37852     37850     37853     37856     37853     37856     37859     37860
     37853     37856     37859     37861     37853     37856     37859     37862
     37854     37853     37856     37857     37854     37853     37856     37858
     37854     37853     37856     37859     37855     37853     37856     37857
     37855     37853     37856     37858     37855     37853     37856     37859
     37856     37859     37862     37863     37856     37859     37862     37864
     37856     37859     37862     37865     37857     37856     37859     37860
     37857     37856     37859     37861     37857     37856     37859     37862
     37858     37856     37859     37860     37858     37856     37859     37861
     37858     37856     37859     37862     37859     37862     37865     37866
     37859     37862     37865     37867     37859     37862     37865     37868
     37860     37859     37862     37863     37860     37859     37862     37864
     37860     37859     37862     37865     37861     37859     37862     37863
     37861     37859     37862     37864     37861     37859     37862     37865
     37862     37865     37868     37869     37862     37865     37868     37870
     37862     37865     37868     37871     37863     37862     37865     37866
     37863     37862     37865     37867     37863     37862     37865     37868
     37864     37862     37865     37866     37864     37862     37865     37867
     37864     37862     37865     37868     37865     37868     37871     37872
     37865     37868     37871     37873     37865     37868     37871     37874
     37866     37865     37868     37869     37866     37865     37868     37870
     37866     37865     37868     37871     37867     37865     37868     37869
     37867     37865     37868     37870     37867     37865     37868     37871
     37868     37871     37874     37875     37868     37871     37874     37876
     37868     37871     37874     37877     37869     37868     37871     37872
     37869     37868     37871     37873     37869     37868     37871     37874
     37870     37868     37871     37872     37870     37868     37871     37873
     37870     37868     37871     37874     37872     37871     37874     37875
     37872     37871     37874     37876     37872     37871     37874     37877
     37873     37871     37874     37875     37873     37871     37874     37876
     37873     37871     37874     37877     37878     37880     37883     37884
     37878     37880     37883     37885     37878     37880     37883     37922
     37879     37878     37880     37881     37879     37878     37880     37882
     37879     37878     37880     37883     37880     37883     37885     37886
     37880     37883     37922     37923     37880     37883     37922     37924
     37880     37883     37922     37925     37881     37880     37883     37884
     37881     37880     37883     37885     37881     37880     37883     37922
     37882     37880     37883     37884     37882     37880     37883     37885
     37882     37880     37883     37922     37883     37885     37886     37887
     37883     37885     37886     37888     37883     37922     37925     37926
     37883     37922     37925     37927     37883     37922     37925     37928
     37884     37883     37885     37886     37884     37883     37922     37923
     37884     37883     37922     37924     37884     37883     37922     37925
     37885     37883     37922     37923     37885     37883     37922     37924
     37885     37883     37922     37925     37885     37886     37888     37889
     37885     37886     37888     37890     37885     37886     37888     37891
     37886     37885     37883     37922     37886     37888     37891     37892
     37886     37888     37891     37893     37886     37888     37891     37894
     37887     37886     37888     37889     37887     37886     37888     37890
     37887     37886     37888     37891     37888     37891     37894     37895
     37888     37891     37894     37896     37888     37891     37894     37897
     37889     37888     37891     37892     37889     37888     37891     37893
     37889     37888     37891     37894     37890     37888     37891     37892
     37890     37888     37891     37893     37890     37888     37891     37894
     37891     37894     37897     37898     37891     37894     37897     37899
     37891     37894     37897     37900     37892     37891     37894     37895
     37892     37891     37894     37896     37892     37891     37894     37897
     37893     37891     37894     37895     37893     37891     37894     37896
     37893     37891     37894     37897     37894     37897     37900     37901
     37894     37897     37900     37902     37894     37897     37900     37903
     37895     37894     37897     37898     37895     37894     37897     37899
     37895     37894     37897     37900     37896     37894     37897     37898
     37896     37894     37897     37899     37896     37894     37897     37900
     37897     37900     37903     37904     37897     37900     37903     37905
     37897     37900     37903     37906     37898     37897     37900     37901
     37898     37897     37900     37902     37898     37897     37900     37903
     37899     37897     37900     37901     37899     37897     37900     37902
     37899     37897     37900     37903     37900     37903     37906     37907
     37900     37903     37906     37908     37900     37903     37906     37909
     37901     37900     37903     37904     37901     37900     37903     37905
     37901     37900     37903     37906     37902     37900     37903     37904
     37902     37900     37903     37905     37902     37900     37903     37906
     37903     37906     37909     37910     37903     37906     37909     37911
     37903     37906     37909     37912     37904     37903     37906     37907
     37904     37903     37906     37908     37904     37903     37906     37909
     37905     37903     37906     37907     37905     37903     37906     37908
     37905     37903     37906     37909     37906     37909     37912     37913
     37906     37909     37912     37914     37906     37909     37912     37915
     37907     37906     37909     37910     37907     37906     37909     37911
     37907     37906     37909     37912     37908     37906     37909     37910
     37908     37906     37909     37911     37908     37906     37909     37912
     37909     37912     37915     37916     37909     37912     37915     37917
     37909     37912     37915     37918     37910     37909     37912     37913
     37910     37909     37912     37914     37910     37909     37912     37915
     37911     37909     37912     37913     37911     37909     37912     37914
     37911     37909     37912     37915     37912     37915     37918     37919
     37912     37915     37918     37920     37912     37915     37918     37921
     37913     37912     37915     37916     37913     37912     37915     37917
     37913     37912     37915     37918     37914     37912     37915     37916
     37914     37912     37915     37917     37914     37912     37915     37918
     37916     37915     37918     37919     37916     37915     37918     37920
     37916     37915     37918     37921     37917     37915     37918     37919
     37917     37915     37918     37920     37917     37915     37918     37921
     37922     37925     37928     37929     37922     37925     37928     37930
     37922     37925     37928     37931     37923     37922     37925     37926
     37923     37922     37925     37927     37923     37922     37925     37928
     37924     37922     37925     37926     37924     37922     37925     37927
     37924     37922     37925     37928     37925     37928     37931     37932
     37925     37928     37931     37933     37925     37928     37931     37934
     37926     37925     37928     37929     37926     37925     37928     37930
     37926     37925     37928     37931     37927     37925     37928     37929
     37927     37925     37928     37930     37927     37925     37928     37931
     37928     37931     37934     37935     37928     37931     37934     37936
     37928     37931     37934     37937     37929     37928     37931     37932
     37929     37928     37931     37933     37929     37928     37931     37934
     37930     37928     37931     37932     37930     37928     37931     37933
     37930     37928     37931     37934     37931     37934     37937     37938
     37931     37934     37937     37939     37931     37934     37937     37940
     37932     37931     37934     37935     37932     37931     37934     37936
     37932     37931     37934     37937     37933     37931     37934     37935
     37933     37931     37934     37936     37933     37931     37934     37937
     37934     37937     37940     37941     37934     37937     37940     37942
     37934     37937     37940     37943     37935     37934     37937     37938
     37935     37934     37937     37939     37935     37934     37937     37940
     37936     37934     37937     37938     37936     37934     37937     37939
     37936     37934     37937     37940     37937     37940     37943     37944
     37937     37940     37943     37945     37937     37940     37943     37946
     37938     37937     37940     37941     37938     37937     37940     37942
     37938     37937     37940     37943     37939     37937     37940     37941
     37939     37937     37940     37942     37939     37937     37940     37943
     37940     37943     37946     37947     37940     37943     37946     37948
     37940     37943     37946     37949     37941     37940     37943     37944
     37941     37940     37943     37945     37941     37940     37943     37946
     37942     37940     37943     37944     37942     37940     37943     37945
     37942     37940     37943     37946     37943     37946     37949     37950
     37943     37946     37949     37951     37943     37946     37949     37952
     37944     37943     37946     37947     37944     37943     37946     37948
     37944     37943     37946     37949     37945     37943     37946     37947
     37945     37943     37946     37948     37945     37943     37946     37949
     37946     37949     37952     37953     37946     37949     37952     37954
     37946     37949     37952     37955     37947     37946     37949     37950
     37947     37946     37949     37951     37947     37946     37949     37952
     37948     37946     37949     37950     37948     37946     37949     37951
     37948     37946     37949     37952     37950     37949     37952     37953
     37950     37949     37952     37954     37950     37949     37952     37955
     37951     37949     37952     37953     37951     37949     37952     37954
     37951     37949     37952     37955     37956     37960     37963     37964
     37956     37960     37963     37965     37956     37960     37963     37966
     37957     37956     37958     37959     37957     37956     37960     37961
     37957     37956     37960     37962     37957     37956     37960     37963
     37958     37956     37960     37961     37958     37956     37960     37962
     37958     37956     37960     37963     37959     37958     37956     37960
     37960     37963     37966     37967     37960     37963     37966     37968
     37960     37963     37966     37969     37961     37960     37963     37964
     37961     37960     37963     37965     37961     37960     37963     37966
     37962     37960     37963     37964     37962     37960     37963     37965
     37962     37960     37963     37966     37963     37966     37969     37970
     37963     37966     37969     37971     37963     37966     37969     37972
     37964     37963     37966     37967     37964     37963     37966     37968
     37964     37963     37966     37969     37965     37963     37966     37967
     37965     37963     37966     37968     37965     37963     37966     37969
     37966     37969     37972     37973     37966     37969     37972     37974
     37966     37969     37972     37975     37967     37966     37969     37970
     37967     37966     37969     37971     37967     37966     37969     37972
     37968     37966     37969     37970     37968     37966     37969     37971
     37968     37966     37969     37972     37969     37972     37975     37976
     37969     37972     37975     37977     37969     37972     37975     37978
     37970     37969     37972     37973     37970     37969     37972     37974
     37970     37969     37972     37975     37971     37969     37972     37973
     37971     37969     37972     37974     37971     37969     37972     37975
     37972     37975     37978     37979     37972     37975     37978     37980
     37972     37975     37978     37981     37973     37972     37975     37976
     37973     37972     37975     37977     37973     37972     37975     37978
     37974     37972     37975     37976     37974     37972     37975     37977
     37974     37972     37975     37978     37975     37978     37981     37982
     37975     37978     37981     37983     37975     37978     37981     37984
     37976     37975     37978     37979     37976     37975     37978     37980
     37976     37975     37978     37981     37977     37975     37978     37979
     37977     37975     37978     37980     37977     37975     37978     37981
     37978     37981     37984     37985     37978     37981     37984     37986
     37978     37981     37984     37987     37979     37978     37981     37982
     37979     37978     37981     37983     37979     37978     37981     37984
     37980     37978     37981     37982     37980     37978     37981     37983
     37980     37978     37981     37984     37981     37984     37987     37988
     37981     37984     37987     37989     37981     37984     37987     37990
     37982     37981     37984     37985     37982     37981     37984     37986
     37982     37981     37984     37987     37983     37981     37984     37985
     37983     37981     37984     37986     37983     37981     37984     37987
     37984     37987     37990     37991     37984     37987     37990     37992
     37984     37987     37990     37993     37985     37984     37987     37988
     37985     37984     37987     37989     37985     37984     37987     37990
     37986     37984     37987     37988     37986     37984     37987     37989
     37986     37984     37987     37990     37988     37987     37990     37991
     37988     37987     37990     37992     37988     37987     37990     37993
     37989     37987     37990     37991     37989     37987     37990     37992
     37989     37987     37990     37993     37994     37996     37999     38000
     37994     37996     37999     38001     37994     37996     37999     38003
     37995     37994     37996     37997     37995     37994     37996     37998
     37995     37994     37996     37999     37996     37999     38001     38002
     37996     37999     38003     38004     37996     37999     38003     38005
     37996     37999     38003     38006     37997     37996     37999     38000
     37997     37996     37999     38001     37997     37996     37999     38003
     37998     37996     37999     38000     37998     37996     37999     38001
     37998     37996     37999     38003     37999     38003     38006     38007
     37999     38003     38006     38008     37999     38003     38006     38009
     38000     37999     38001     38002     38000     37999     38003     38004
     38000     37999     38003     38005     38000     37999     38003     38006
     38001     37999     38003     38004     38001     37999     38003     38005
     38001     37999     38003     38006     38002     38001     37999     38003
     38003     38006     38009     38010     38003     38006     38009     38011
     38003     38006     38009     38012     38004     38003     38006     38007
     38004     38003     38006     38008     38004     38003     38006     38009
     38005     38003     38006     38007     38005     38003     38006     38008
     38005     38003     38006     38009     38006     38009     38012     38013
     38006     38009     38012     38014     38006     38009     38012     38015
     38007     38006     38009     38010     38007     38006     38009     38011
     38007     38006     38009     38012     38008     38006     38009     38010
     38008     38006     38009     38011     38008     38006     38009     38012
     38009     38012     38015     38016     38009     38012     38015     38017
     38009     38012     38015     38018     38010     38009     38012     38013
     38010     38009     38012     38014     38010     38009     38012     38015
     38011     38009     38012     38013     38011     38009     38012     38014
     38011     38009     38012     38015     38012     38015     38018     38019
     38012     38015     38018     38020     38012     38015     38018     38021
     38013     38012     38015     38016     38013     38012     38015     38017
     38013     38012     38015     38018     38014     38012     38015     38016
     38014     38012     38015     38017     38014     38012     38015     38018
     38015     38018     38021     38022     38015     38018     38021     38023
     38015     38018     38021     38024     38016     38015     38018     38019
     38016     38015     38018     38020     38016     38015     38018     38021
     38017     38015     38018     38019     38017     38015     38018     38020
     38017     38015     38018     38021     38018     38021     38024     38025
     38018     38021     38024     38026     38018     38021     38024     38027
     38019     38018     38021     38022     38019     38018     38021     38023
     38019     38018     38021     38024     38020     38018     38021     38022
     38020     38018     38021     38023     38020     38018     38021     38024
     38021     38024     38027     38028     38021     38024     38027     38029
     38021     38024     38027     38030     38022     38021     38024     38025
     38022     38021     38024     38026     38022     38021     38024     38027
     38023     38021     38024     38025     38023     38021     38024     38026
     38023     38021     38024     38027     38024     38027     38030     38031
     38024     38027     38030     38032     38024     38027     38030     38033
     38025     38024     38027     38028     38025     38024     38027     38029
     38025     38024     38027     38030     38026     38024     38027     38028
     38026     38024     38027     38029     38026     38024     38027     38030
     38027     38030     38033     38034     38027     38030     38033     38035
     38027     38030     38033     38036     38028     38027     38030     38031
     38028     38027     38030     38032     38028     38027     38030     38033
     38029     38027     38030     38031     38029     38027     38030     38032
     38029     38027     38030     38033     38031     38030     38033     38034
     38031     38030     38033     38035     38031     38030     38033     38036
     38032     38030     38033     38034     38032     38030     38033     38035
     38032     38030     38033     38036     38037     38040     38043     38041
     38037     38040     38044     38045     38037     38040     38044     38046
     38037     38040     38044     38047     38038     38037     38040     38043
     38038     38037     38040     38044     38039     38037     38040     38043
     38039     38037     38040     38044     38040     38043     38041     38042
     38040     38043     38041     38050     38040     38043     38041     38053
     38040     38044     38047     38048     38040     38044     38047     38049
     38040     38044     38047     38050     38041     38043     38040     38044
     38041     38050     38047     38044     38041     38050     38047     38048
     38041     38050     38047     38049     38041     38050     38052     38089
     38041     38053     38055     38056     38041     38053     38057     38058
     38041     38053     38057     38059     38041     38053     38057     38060
     38042     38041     38050     38047     38042     38041     38050     38051
     38042     38041     38050     38052     38042     38041     38053     38054
     38042     38041     38053     38055     38042     38041     38053     38057
     38043     38040     38044     38045     38043     38040     38044     38046
     38043     38040     38044     38047     38043     38041     38050     38047
     38043     38041     38050     38051     38043     38041     38050     38052
     38043     38041     38053     38054     38043     38041     38053     38055
     38043     38041     38053     38057     38044     38047     38049     38065
     38044     38047     38050     38051     38044     38047     38050     38052
     38045     38044     38047     38048     38045     38044     38047     38049
     38045     38044     38047     38050     38046     38044     38047     38048
     38046     38044     38047     38049     38046     38044     38047     38050
     38047     38049     38065     38062     38047     38049     38065     38068
     38047     38049     38065     38069     38047     38050     38041     38053
     38047     38050     38052     38089     38048     38047     38049     38065
     38048     38047     38050     38051     38048     38047     38050     38052
     38049     38047     38050     38051     38049     38047     38050     38052
     38049     38065     38062     38063     38049     38065     38062     38064
     38049     38065     38068     38066     38049     38065     38069     38070
     38049     38065     38069     38071     38049     38065     38069     38072
     38050     38041     38053     38054     38050     38041     38053     38055
     38050     38041     38053     38057     38050     38047     38049     38065
     38050     38052     38089     38090     38050     38052     38089     38093
     38050     38052     38089     38094     38051     38050     38041     38053
     38051     38050     38052     38089     38052     38050     38041     38053
     38052     38089     38093     38091     38052     38089     38094     38095
     38052     38089     38094     38096     38052     38089     38094     38098
     38053     38057     38060     38061     38054     38053     38055     38056
     38054     38053     38057     38058     38054     38053     38057     38059
     38054     38053     38057     38060     38055     38053     38057     38058
     38055     38053     38057     38059     38055     38053     38057     38060
     38056     38055     38053     38057     38058     38057     38060     38061
     38059     38057     38060     38061     38062     38065     38068     38066
     38062     38065     38069     38070     38062     38065     38069     38071
     38062     38065     38069     38072     38063     38062     38065     38068
     38063     38062     38065     38069     38064     38062     38065     38068
     38064     38062     38065     38069     38065     38068     38066     38067
     38065     38068     38066     38076     38065     38068     38066     38080
     38065     38069     38072     38073     38065     38069     38072     38074
     38065     38069     38072     38076     38066     38068     38065     38069
     38066     38076     38072     38069     38066     38076     38072     38073
     38066     38076     38072     38074     38066     38076     38078     38079
     38066     38080     38082     38083     38066     38080     38084     38085
     38066     38080     38084     38086     38066     38080     38084     38087
     38067     38066     38076     38072     38067     38066     38076     38077
     38067     38066     38076     38078     38067     38066     38080     38081
     38067     38066     38080     38082     38067     38066     38080     38084
     38068     38065     38069     38070     38068     38065     38069     38071
     38068     38065     38069     38072     38068     38066     38076     38072
     38068     38066     38076     38077     38068     38066     38076     38078
     38068     38066     38080     38081     38068     38066     38080     38082
     38068     38066     38080     38084     38069     38072     38074     38075
     38069     38072     38076     38077     38069     38072     38076     38078
     38070     38069     38072     38073     38070     38069     38072     38074
     38070     38069     38072     38076     38071     38069     38072     38073
     38071     38069     38072     38074     38071     38069     38072     38076
     38072     38076     38066     38080     38072     38076     38078     38079
     38073     38072     38074     38075     38073     38072     38076     38077
     38073     38072     38076     38078     38074     38072     38076     38077
     38074     38072     38076     38078     38075     38074     38072     38076
     38076     38066     38080     38081     38076     38066     38080     38082
     38076     38066     38080     38084     38077     38076     38066     38080
     38077     38076     38078     38079     38078     38076     38066     38080
     38080     38084     38087     38088     38081     38080     38082     38083
     38081     38080     38084     38085     38081     38080     38084     38086
     38081     38080     38084     38087     38082     38080     38084     38085
     38082     38080     38084     38086     38082     38080     38084     38087
     38083     38082     38080     38084     38085     38084     38087     38088
     38086     38084     38087     38088     38089     38093     38091     38092
     38089     38093     38091     38101     38089     38093     38091     38108
     38089     38094     38096     38097     38089     38094     38098     38099
     38089     38094     38098     38100     38089     38094     38098     38101
     38090     38089     38093     38091     38090     38089     38094     38095
     38090     38089     38094     38096     38090     38089     38094     38098
     38091     38093     38089     38094     38091     38101     38098     38094
     38091     38101     38098     38099     38091     38101     38098     38100
     38091     38101     38103     38104     38091     38108     38110     38111
     38091     38108     38112     38113     38091     38108     38112     38114
     38091     38108     38112     38115     38092     38091     38101     38098
     38092     38091     38101     38102     38092     38091     38101     38103
     38092     38091     38108     38109     38092     38091     38108     38110
     38092     38091     38108     38112     38093     38089     38094     38095
     38093     38089     38094     38096     38093     38089     38094     38098
     38093     38091     38101     38098     38093     38091     38101     38102
     38093     38091     38101     38103     38093     38091     38108     38109
     38093     38091     38108     38110     38093     38091     38108     38112
     38094     38098     38100     38117     38094     38098     38101     38102
     38094     38098     38101     38103     38095     38094     38096     38097
     38095     38094     38098     38099     38095     38094     38098     38100
     38095     38094     38098     38101     38096     38094     38098     38099
     38096     38094     38098     38100     38096     38094     38098     38101
     38097     38096     38094     38098     38098     38100     38117     38118
     38098     38100     38117     38121     38098     38100     38117     38122
     38098     38101     38091     38108     38098     38101     38103     38104
     38099     38098     38100     38117     38099     38098     38101     38102
     38099     38098     38101     38103     38100     38098     38101     38102
     38100     38098     38101     38103     38100     38117     38121     38119
     38100     38117     38122     38123     38100     38117     38122     38124
     38100     38117     38122     38126     38101     38091     38108     38109
     38101     38091     38108     38110     38101     38091     38108     38112
     38101     38098     38100     38117     38101     38103     38104     38105
     38101     38103     38104     38106     38101     38103     38104     38107
     38102     38101     38091     38108     38102     38101     38103     38104
     38103     38101     38091     38108     38108     38112     38115     38116
     38109     38108     38110     38111     38109     38108     38112     38113
     38109     38108     38112     38114     38109     38108     38112     38115
     38110     38108     38112     38113     38110     38108     38112     38114
     38110     38108     38112     38115     38111     38110     38108     38112
     38113     38112     38115     38116     38114     38112     38115     38116
     38117     38121     38119     38120     38117     38121     38119     38129
     38117     38121     38119     38136     38117     38122     38124     38125
     38117     38122     38126     38127     38117     38122     38126     38128
     38117     38122     38126     38129     38118     38117     38121     38119
     38118     38117     38122     38123     38118     38117     38122     38124
     38118     38117     38122     38126     38119     38121     38117     38122
     38119     38129     38126     38122     38119     38129     38126     38127
     38119     38129     38126     38128     38119     38129     38131     38132
     38119     38136     38138     38139     38119     38136     38140     38141
     38119     38136     38140     38142     38119     38136     38140     38143
     38120     38119     38129     38126     38120     38119     38129     38130
     38120     38119     38129     38131     38120     38119     38136     38137
     38120     38119     38136     38138     38120     38119     38136     38140
     38121     38117     38122     38123     38121     38117     38122     38124
     38121     38117     38122     38126     38121     38119     38129     38126
     38121     38119     38129     38130     38121     38119     38129     38131
     38121     38119     38136     38137     38121     38119     38136     38138
     38121     38119     38136     38140     38122     38126     38128     38170
     38122     38126     38129     38130     38122     38126     38129     38131
     38123     38122     38124     38125     38123     38122     38126     38127
     38123     38122     38126     38128     38123     38122     38126     38129
     38124     38122     38126     38127     38124     38122     38126     38128
     38124     38122     38126     38129     38125     38124     38122     38126
     38126     38128     38170     38171     38126     38128     38170     38174
     38126     38128     38170     38175     38126     38129     38119     38136
     38126     38129     38131     38132     38127     38126     38128     38170
     38127     38126     38129     38130     38127     38126     38129     38131
     38128     38126     38129     38130     38128     38126     38129     38131
     38128     38170     38174     38172     38128     38170     38175     38176
     38128     38170     38175     38177     38128     38170     38175     38179
     38129     38119     38136     38137     38129     38119     38136     38138
     38129     38119     38136     38140     38129     38126     38128     38170
     38129     38131     38132     38133     38129     38131     38132     38134
     38129     38131     38132     38135     38130     38129     38119     38136
     38130     38129     38131     38132     38131     38129     38119     38136
     38136     38140     38143     38144     38137     38136     38138     38139
     38137     38136     38140     38141     38137     38136     38140     38142
     38137     38136     38140     38143     38138     38136     38140     38141
     38138     38136     38140     38142     38138     38136     38140     38143
     38139     38138     38136     38140     38140     38143     38144     38145
     38140     38143     38144     38148     38140     38143     38144     38149
     38141     38140     38143     38144     38142     38140     38143     38144
     38143     38144     38148     38146     38143     38144     38149     38150
     38143     38144     38149     38151     38143     38144     38149     38153
     38144     38148     38146     38147     38144     38148     38146     38157
     38144     38148     38146     38161     38144     38149     38151     38152
     38144     38149     38153     38154     38144     38149     38153     38155
     38144     38149     38153     38157     38145     38144     38148     38146
     38145     38144     38149     38150     38145     38144     38149     38151
     38145     38144     38149     38153     38146     38148     38144     38149
     38146     38157     38153     38149     38146     38157     38153     38154
     38146     38157     38153     38155     38146     38157     38159     38160
     38146     38161     38163     38164     38146     38161     38165     38166
     38146     38161     38165     38167     38146     38161     38165     38168
     38147     38146     38157     38153     38147     38146     38157     38158
     38147     38146     38157     38159     38147     38146     38161     38162
     38147     38146     38161     38163     38147     38146     38161     38165
     38148     38144     38149     38150     38148     38144     38149     38151
     38148     38144     38149     38153     38148     38146     38157     38153
     38148     38146     38157     38158     38148     38146     38157     38159
     38148     38146     38161     38162     38148     38146     38161     38163
     38148     38146     38161     38165     38149     38153     38155     38156
     38149     38153     38157     38158     38149     38153     38157     38159
     38150     38149     38151     38152     38150     38149     38153     38154
     38150     38149     38153     38155     38150     38149     38153     38157
     38151     38149     38153     38154     38151     38149     38153     38155
     38151     38149     38153     38157     38152     38151     38149     38153
     38153     38157     38146     38161     38153     38157     38159     38160
     38154     38153     38155     38156     38154     38153     38157     38158
     38154     38153     38157     38159     38155     38153     38157     38158
     38155     38153     38157     38159     38156     38155     38153     38157
     38157     38146     38161     38162     38157     38146     38161     38163
     38157     38146     38161     38165     38158     38157     38146     38161
     38158     38157     38159     38160     38159     38157     38146     38161
     38161     38165     38168     38169     38162     38161     38163     38164
     38162     38161     38165     38166     38162     38161     38165     38167
     38162     38161     38165     38168     38163     38161     38165     38166
     38163     38161     38165     38167     38163     38161     38165     38168
     38164     38163     38161     38165     38166     38165     38168     38169
     38167     38165     38168     38169     38170     38174     38172     38173
     38170     38174     38172     38182     38170     38174     38172     38186
     38170     38175     38177     38178     38170     38175     38179     38180
     38170     38175     38179     38181     38170     38175     38179     38182
     38171     38170     38174     38172     38171     38170     38175     38176
     38171     38170     38175     38177     38171     38170     38175     38179
     38172     38174     38170     38175     38172     38182     38179     38175
     38172     38182     38179     38180     38172     38182     38179     38181
     38172     38182     38184     38185     38172     38186     38189     38190
     38173     38172     38182     38179     38173     38172     38182     38183
     38173     38172     38182     38184     38173     38172     38186     38187
     38173     38172     38186     38188     38173     38172     38186     38189
     38174     38170     38175     38176     38174     38170     38175     38177
     38174     38170     38175     38179     38174     38172     38182     38179
     38174     38172     38182     38183     38174     38172     38182     38184
     38174     38172     38186     38187     38174     38172     38186     38188
     38174     38172     38186     38189     38175     38179     38181     38191
     38175     38179     38182     38183     38175     38179     38182     38184
     38176     38175     38177     38178     38176     38175     38179     38180
     38176     38175     38179     38181     38176     38175     38179     38182
     38177     38175     38179     38180     38177     38175     38179     38181
     38177     38175     38179     38182     38178     38177     38175     38179
     38179     38181     38191     38192     38179     38181     38191     38195
     38179     38181     38191     38196     38179     38182     38172     38186
     38179     38182     38184     38185     38180     38179     38181     38191
     38180     38179     38182     38183     38180     38179     38182     38184
     38181     38179     38182     38183     38181     38179     38182     38184
     38181     38191     38195     38193     38181     38191     38196     38197
     38181     38191     38196     38198     38181     38191     38196     38199
     38182     38172     38186     38187     38182     38172     38186     38188
     38182     38172     38186     38189     38182     38179     38181     38191
     38183     38182     38172     38186     38183     38182     38184     38185
     38184     38182     38172     38186     38187     38186     38189     38190
     38188     38186     38189     38190     38191     38195     38193     38194
     38191     38195     38193     38202     38191     38195     38193     38206
     38191     38196     38198     38211     38191     38196     38199     38200
     38191     38196     38199     38201     38191     38196     38199     38202
     38192     38191     38195     38193     38192     38191     38196     38197
     38192     38191     38196     38198     38192     38191     38196     38199
     38193     38195     38191     38196     38193     38202     38199     38196
     38193     38202     38199     38200     38193     38202     38199     38201
     38193     38202     38204     38205     38193     38206     38209     38210
     38194     38193     38202     38199     38194     38193     38202     38203
     38194     38193     38202     38204     38194     38193     38206     38207
     38194     38193     38206     38208     38194     38193     38206     38209
     38195     38191     38196     38197     38195     38191     38196     38198
     38195     38191     38196     38199     38195     38193     38202     38199
     38195     38193     38202     38203     38195     38193     38202     38204
     38195     38193     38206     38207     38195     38193     38206     38208
     38195     38193     38206     38209     38196     38198     38211     38212
     38196     38198     38211     38215     38196     38198     38211     38216
     38196     38199     38201     38254     38196     38199     38202     38203
     38196     38199     38202     38204     38197     38196     38198     38211
     38197     38196     38199     38200     38197     38196     38199     38201
     38197     38196     38199     38202     38198     38196     38199     38200
     38198     38196     38199     38201     38198     38196     38199     38202
     38198     38211     38215     38213     38198     38211     38216     38217
     38198     38211     38216     38218     38198     38211     38216     38219
     38199     38196     38198     38211     38199     38201     38254     38255
     38199     38201     38254     38258     38199     38201     38254     38259
     38199     38202     38193     38206     38199     38202     38204     38205
     38200     38199     38201     38254     38200     38199     38202     38203
     38200     38199     38202     38204     38201     38199     38202     38203
     38201     38199     38202     38204     38201     38254     38258     38256
     38201     38254     38259     38260     38201     38254     38259     38261
     38201     38254     38259     38263     38202     38193     38206     38207
     38202     38193     38206     38208     38202     38193     38206     38209
     38202     38199     38201     38254     38203     38202     38193     38206
     38203     38202     38204     38205     38204     38202     38193     38206
     38207     38206     38209     38210     38208     38206     38209     38210
     38211     38215     38213     38214     38211     38215     38213     38223
     38211     38215     38213     38227     38211     38216     38218     38232
     38211     38216     38219     38220     38211     38216     38219     38221
     38211     38216     38219     38223     38212     38211     38215     38213
     38212     38211     38216     38217     38212     38211     38216     38218
     38212     38211     38216     38219     38213     38215     38211     38216
     38213     38223     38219     38216     38213     38223     38219     38220
     38213     38223     38219     38221     38213     38223     38225     38226
     38213     38227     38230     38231     38214     38213     38223     38219
     38214     38213     38223     38224     38214     38213     38223     38225
     38214     38213     38227     38228     38214     38213     38227     38229
     38214     38213     38227     38230     38215     38211     38216     38217
     38215     38211     38216     38218     38215     38211     38216     38219
     38215     38213     38223     38219     38215     38213     38223     38224
     38215     38213     38223     38225     38215     38213     38227     38228
     38215     38213     38227     38229     38215     38213     38227     38230
     38216     38218     38232     38233     38216     38218     38232     38236
     38216     38218     38232     38237     38216     38219     38221     38222
     38216     38219     38223     38224     38216     38219     38223     38225
     38217     38216     38218     38232     38217     38216     38219     38220
     38217     38216     38219     38221     38217     38216     38219     38223
     38218     38216     38219     38220     38218     38216     38219     38221
     38218     38216     38219     38223     38218     38232     38236     38234
     38218     38232     38237     38238     38218     38232     38237     38239
     38218     38232     38237     38241     38219     38216     38218     38232
     38219     38223     38213     38227     38219     38223     38225     38226
     38220     38219     38221     38222     38220     38219     38223     38224
     38220     38219     38223     38225     38221     38219     38223     38224
     38221     38219     38223     38225     38222     38221     38219     38223
     38223     38213     38227     38228     38223     38213     38227     38229
     38223     38213     38227     38230     38224     38223     38213     38227
     38224     38223     38225     38226     38225     38223     38213     38227
     38228     38227     38230     38231     38229     38227     38230     38231
     38232     38236     38234     38235     38232     38236     38234     38245
     38232     38236     38234     38249     38232     38237     38239     38240
     38232     38237     38241     38242     38232     38237     38241     38243
     38232     38237     38241     38245     38233     38232     38236     38234
     38233     38232     38237     38238     38233     38232     38237     38239
     38233     38232     38237     38241     38234     38236     38232     38237
     38234     38245     38241     38237     38234     38245     38241     38242
     38234     38245     38241     38243     38234     38245     38247     38248
     38234     38249     38252     38253     38235     38234     38245     38241
     38235     38234     38245     38246     38235     38234     38245     38247
     38235     38234     38249     38250     38235     38234     38249     38251
     38235     38234     38249     38252     38236     38232     38237     38238
     38236     38232     38237     38239     38236     38232     38237     38241
     38236     38234     38245     38241     38236     38234     38245     38246
     38236     38234     38245     38247     38236     38234     38249     38250
     38236     38234     38249     38251     38236     38234     38249     38252
     38237     38241     38243     38244     38237     38241     38245     38246
     38237     38241     38245     38247     38238     38237     38239     38240
     38238     38237     38241     38242     38238     38237     38241     38243
     38238     38237     38241     38245     38239     38237     38241     38242
     38239     38237     38241     38243     38239     38237     38241     38245
     38240     38239     38237     38241     38241     38245     38234     38249
     38241     38245     38247     38248     38242     38241     38243     38244
     38242     38241     38245     38246     38242     38241     38245     38247
     38243     38241     38245     38246     38243     38241     38245     38247
     38244     38243     38241     38245     38245     38234     38249     38250
     38245     38234     38249     38251     38245     38234     38249     38252
     38246     38245     38234     38249     38246     38245     38247     38248
     38247     38245     38234     38249     38250     38249     38252     38253
     38251     38249     38252     38253     38254     38258     38256     38257
     38254     38258     38256     38266     38254     38258     38256     38270
     38254     38259     38261     38262     38254     38259     38263     38264
     38254     38259     38263     38265     38254     38259     38263     38266
     38255     38254     38258     38256     38255     38254     38259     38260
     38255     38254     38259     38261     38255     38254     38259     38263
     38256     38258     38254     38259     38256     38266     38263     38259
     38256     38266     38263     38264     38256     38266     38263     38265
     38256     38266     38268     38269     38256     38270     38273     38274
     38257     38256     38266     38263     38257     38256     38266     38267
     38257     38256     38266     38268     38257     38256     38270     38271
     38257     38256     38270     38272     38257     38256     38270     38273
     38258     38254     38259     38260     38258     38254     38259     38261
     38258     38254     38259     38263     38258     38256     38266     38263
     38258     38256     38266     38267     38258     38256     38266     38268
     38258     38256     38270     38271     38258     38256     38270     38272
     38258     38256     38270     38273     38259     38263     38265     38275
     38259     38263     38266     38267     38259     38263     38266     38268
     38260     38259     38261     38262     38260     38259     38263     38264
     38260     38259     38263     38265     38260     38259     38263     38266
     38261     38259     38263     38264     38261     38259     38263     38265
     38261     38259     38263     38266     38262     38261     38259     38263
     38263     38265     38275     38276     38263     38265     38275     38279
     38263     38265     38275     38280     38263     38266     38256     38270
     38263     38266     38268     38269     38264     38263     38265     38275
     38264     38263     38266     38267     38264     38263     38266     38268
     38265     38263     38266     38267     38265     38263     38266     38268
     38265     38275     38279     38277     38265     38275     38280     38281
     38265     38275     38280     38282     38265     38275     38280     38290
     38266     38256     38270     38271     38266     38256     38270     38272
     38266     38256     38270     38273     38266     38263     38265     38275
     38267     38266     38256     38270     38267     38266     38268     38269
     38268     38266     38256     38270     38271     38270     38273     38274
     38272     38270     38273     38274     38275     38279     38277     38278
     38275     38279     38277     38293     38275     38279     38277     38297
     38275     38280     38282     38283     38275     38280     38282     38284
     38275     38280     38290     38291     38275     38280     38290     38292
     38275     38280     38290     38293     38276     38275     38279     38277
     38276     38275     38280     38281     38276     38275     38280     38282
     38276     38275     38280     38290     38277     38279     38275     38280
     38277     38293     38290     38280     38277     38293     38290     38291
     38277     38293     38290     38292     38277     38293     38295     38296
     38277     38297     38300     38301     38278     38277     38293     38290
     38278     38277     38293     38294     38278     38277     38293     38295
     38278     38277     38297     38298     38278     38277     38297     38299
     38278     38277     38297     38300     38279     38275     38280     38281
     38279     38275     38280     38282     38279     38275     38280     38290
     38279     38277     38293     38290     38279     38277     38293     38294
     38279     38277     38293     38295     38279     38277     38297     38298
     38279     38277     38297     38299     38279     38277     38297     38300
     38280     38282     38284     38285     38280     38282     38284     38286
     38280     38290     38292     38302     38280     38290     38293     38294
     38280     38290     38293     38295     38281     38280     38282     38283
     38281     38280     38282     38284     38281     38280     38290     38291
     38281     38280     38290     38292     38281     38280     38290     38293
     38282     38280     38290     38291     38282     38280     38290     38292
     38282     38280     38290     38293     38282     38284     38286     38287
     38282     38284     38286     38288     38282     38284     38286     38289
     38283     38282     38280     38290     38283     38282     38284     38285
     38283     38282     38284     38286     38284     38282     38280     38290
     38285     38284     38286     38287     38285     38284     38286     38288
     38285     38284     38286     38289     38290     38292     38302     38303
     38290     38292     38302     38306     38290     38292     38302     38307
     38290     38293     38277     38297     38290     38293     38295     38296
     38291     38290     38292     38302     38291     38290     38293     38294
     38291     38290     38293     38295     38292     38290     38293     38294
     38292     38290     38293     38295     38292     38302     38306     38304
     38292     38302     38307     38308     38292     38302     38307     38309
     38292     38302     38307     38310     38293     38277     38297     38298
     38293     38277     38297     38299     38293     38277     38297     38300
     38293     38290     38292     38302     38294     38293     38277     38297
     38294     38293     38295     38296     38295     38293     38277     38297
     38298     38297     38300     38301     38299     38297     38300     38301
     38302     38306     38304     38305     38302     38306     38304     38314
     38302     38306     38304     38318     38302     38307     38309     38323
     38302     38307     38310     38311     38302     38307     38310     38312
     38302     38307     38310     38314     38303     38302     38306     38304
     38303     38302     38307     38308     38303     38302     38307     38309
     38303     38302     38307     38310     38304     38306     38302     38307
     38304     38314     38310     38307     38304     38314     38310     38311
     38304     38314     38310     38312     38304     38314     38316     38317
     38304     38318     38321     38322     38305     38304     38314     38310
     38305     38304     38314     38315     38305     38304     38314     38316
     38305     38304     38318     38319     38305     38304     38318     38320
     38305     38304     38318     38321     38306     38302     38307     38308
     38306     38302     38307     38309     38306     38302     38307     38310
     38306     38304     38314     38310     38306     38304     38314     38315
     38306     38304     38314     38316     38306     38304     38318     38319
     38306     38304     38318     38320     38306     38304     38318     38321
     38307     38309     38323     38324     38307     38309     38323     38327
     38307     38309     38323     38328     38307     38310     38312     38313
     38307     38310     38314     38315     38307     38310     38314     38316
     38308     38307     38309     38323     38308     38307     38310     38311
     38308     38307     38310     38312     38308     38307     38310     38314
     38309     38307     38310     38311     38309     38307     38310     38312
     38309     38307     38310     38314     38309     38323     38327     38325
     38309     38323     38328     38329     38309     38323     38328     38330
     38309     38323     38328     38331     38310     38307     38309     38323
     38310     38314     38304     38318     38310     38314     38316     38317
     38311     38310     38312     38313     38311     38310     38314     38315
     38311     38310     38314     38316     38312     38310     38314     38315
     38312     38310     38314     38316     38313     38312     38310     38314
     38314     38304     38318     38319     38314     38304     38318     38320
     38314     38304     38318     38321     38315     38314     38304     38318
     38315     38314     38316     38317     38316     38314     38304     38318
     38319     38318     38321     38322     38320     38318     38321     38322
     38323     38327     38325     38326     38323     38327     38325     38335
     38323     38327     38325     38339     38323     38328     38330     38343
     38323     38328     38331     38332     38323     38328     38331     38333
     38323     38328     38331     38335     38324     38323     38327     38325
     38324     38323     38328     38329     38324     38323     38328     38330
     38324     38323     38328     38331     38325     38327     38323     38328
     38325     38335     38331     38328     38325     38335     38331     38332
     38325     38335     38331     38333     38325     38335     38337     38338
     38326     38325     38335     38331     38326     38325     38335     38336
     38326     38325     38335     38337     38326     38325     38339     38340
     38326     38325     38339     38341     38326     38325     38339     38342
     38327     38323     38328     38329     38327     38323     38328     38330
     38327     38323     38328     38331     38327     38325     38335     38331
     38327     38325     38335     38336     38327     38325     38335     38337
     38327     38325     38339     38340     38327     38325     38339     38341
     38327     38325     38339     38342     38328     38330     38343     38344
     38328     38330     38343     38347     38328     38330     38343     38348
     38328     38331     38333     38334     38328     38331     38335     38336
     38328     38331     38335     38337     38329     38328     38330     38343
     38329     38328     38331     38332     38329     38328     38331     38333
     38329     38328     38331     38335     38330     38328     38331     38332
     38330     38328     38331     38333     38330     38328     38331     38335
     38330     38343     38347     38345     38330     38343     38348     38349
     38330     38343     38348     38350     38330     38343     38348     38351
     38331     38328     38330     38343     38331     38335     38325     38339
     38331     38335     38337     38338     38332     38331     38333     38334
     38332     38331     38335     38336     38332     38331     38335     38337
     38333     38331     38335     38336     38333     38331     38335     38337
     38334     38333     38331     38335     38335     38325     38339     38340
     38335     38325     38339     38341     38335     38325     38339     38342
     38336     38335     38325     38339     38336     38335     38337     38338
     38337     38335     38325     38339     38343     38347     38345     38346
     38343     38347     38345     38354     38343     38347     38345     38358
     38343     38348     38350     38362     38343     38348     38351     38352
     38343     38348     38351     38353     38343     38348     38351     38354
     38344     38343     38347     38345     38344     38343     38348     38349
     38344     38343     38348     38350     38344     38343     38348     38351
     38345     38347     38343     38348     38345     38354     38351     38348
     38345     38354     38351     38352     38345     38354     38351     38353
     38345     38354     38356     38357     38346     38345     38354     38351
     38346     38345     38354     38355     38346     38345     38354     38356
     38346     38345     38358     38359     38346     38345     38358     38360
     38346     38345     38358     38361     38347     38343     38348     38349
     38347     38343     38348     38350     38347     38343     38348     38351
     38347     38345     38354     38351     38347     38345     38354     38355
     38347     38345     38354     38356     38347     38345     38358     38359
     38347     38345     38358     38360     38347     38345     38358     38361
     38348     38350     38362     38363     38348     38350     38362     38366
     38348     38350     38362     38367     38348     38351     38353     38390
     38348     38351     38354     38355     38348     38351     38354     38356
     38349     38348     38350     38362     38349     38348     38351     38352
     38349     38348     38351     38353     38349     38348     38351     38354
     38350     38348     38351     38352     38350     38348     38351     38353
     38350     38348     38351     38354     38350     38362     38366     38364
     38350     38362     38367     38368     38350     38362     38367     38369
     38350     38362     38367     38377     38351     38348     38350     38362
     38351     38353     38390     38391     38351     38353     38390     38394
     38351     38353     38390     38395     38351     38354     38345     38358
     38351     38354     38356     38357     38352     38351     38353     38390
     38352     38351     38354     38355     38352     38351     38354     38356
     38353     38351     38354     38355     38353     38351     38354     38356
     38353     38390     38394     38392     38353     38390     38395     38396
     38353     38390     38395     38397     38353     38390     38395     38405
     38354     38345     38358     38359     38354     38345     38358     38360
     38354     38345     38358     38361     38354     38351     38353     38390
     38355     38354     38345     38358     38355     38354     38356     38357
     38356     38354     38345     38358     38362     38366     38364     38365
     38362     38366     38364     38381     38362     38366     38364     38385
     38362     38367     38369     38370     38362     38367     38369     38371
     38362     38367     38377     38378     38362     38367     38377     38379
     38362     38367     38377     38381     38363     38362     38366     38364
     38363     38362     38367     38368     38363     38362     38367     38369
     38363     38362     38367     38377     38364     38366     38362     38367
     38364     38381     38377     38367     38364     38381     38377     38378
     38364     38381     38377     38379     38364     38381     38383     38384
     38364     38385     38388     38389     38365     38364     38381     38377
     38365     38364     38381     38382     38365     38364     38381     38383
     38365     38364     38385     38386     38365     38364     38385     38387
     38365     38364     38385     38388     38366     38362     38367     38368
     38366     38362     38367     38369     38366     38362     38367     38377
     38366     38364     38381     38377     38366     38364     38381     38382
     38366     38364     38381     38383     38366     38364     38385     38386
     38366     38364     38385     38387     38366     38364     38385     38388
     38367     38369     38371     38372     38367     38369     38371     38373
     38367     38377     38379     38380     38367     38377     38381     38382
     38367     38377     38381     38383     38368     38367     38369     38370
     38368     38367     38369     38371     38368     38367     38377     38378
     38368     38367     38377     38379     38368     38367     38377     38381
     38369     38367     38377     38378     38369     38367     38377     38379
     38369     38367     38377     38381     38369     38371     38373     38374
     38369     38371     38373     38375     38369     38371     38373     38376
     38370     38369     38367     38377     38370     38369     38371     38372
     38370     38369     38371     38373     38371     38369     38367     38377
     38372     38371     38373     38374     38372     38371     38373     38375
     38372     38371     38373     38376     38377     38381     38364     38385
     38377     38381     38383     38384     38378     38377     38379     38380
     38378     38377     38381     38382     38378     38377     38381     38383
     38379     38377     38381     38382     38379     38377     38381     38383
     38380     38379     38377     38381     38381     38364     38385     38386
     38381     38364     38385     38387     38381     38364     38385     38388
     38382     38381     38364     38385     38382     38381     38383     38384
     38383     38381     38364     38385     38386     38385     38388     38389
     38387     38385     38388     38389     38390     38394     38392     38393
     38390     38394     38392     38408     38390     38394     38392     38412
     38390     38395     38397     38398     38390     38395     38397     38399
     38390     38395     38405     38406     38390     38395     38405     38407
     38390     38395     38405     38408     38391     38390     38394     38392
     38391     38390     38395     38396     38391     38390     38395     38397
     38391     38390     38395     38405     38392     38394     38390     38395
     38392     38408     38405     38395     38392     38408     38405     38406
     38392     38408     38405     38407     38392     38408     38410     38411
     38392     38412     38415     38416     38393     38392     38408     38405
     38393     38392     38408     38409     38393     38392     38408     38410
     38393     38392     38412     38413     38393     38392     38412     38414
     38393     38392     38412     38415     38394     38390     38395     38396
     38394     38390     38395     38397     38394     38390     38395     38405
     38394     38392     38408     38405     38394     38392     38408     38409
     38394     38392     38408     38410     38394     38392     38412     38413
     38394     38392     38412     38414     38394     38392     38412     38415
     38395     38397     38399     38400     38395     38397     38399     38401
     38395     38405     38407     38417     38395     38405     38408     38409
     38395     38405     38408     38410     38396     38395     38397     38398
     38396     38395     38397     38399     38396     38395     38405     38406
     38396     38395     38405     38407     38396     38395     38405     38408
     38397     38395     38405     38406     38397     38395     38405     38407
     38397     38395     38405     38408     38397     38399     38401     38402
     38397     38399     38401     38403     38397     38399     38401     38404
     38398     38397     38395     38405     38398     38397     38399     38400
     38398     38397     38399     38401     38399     38397     38395     38405
     38400     38399     38401     38402     38400     38399     38401     38403
     38400     38399     38401     38404     38405     38407     38417     38418
     38405     38407     38417     38421     38405     38407     38417     38422
     38405     38408     38392     38412     38405     38408     38410     38411
     38406     38405     38407     38417     38406     38405     38408     38409
     38406     38405     38408     38410     38407     38405     38408     38409
     38407     38405     38408     38410     38407     38417     38421     38419
     38407     38417     38422     38423     38407     38417     38422     38424
     38407     38417     38422     38425     38408     38392     38412     38413
     38408     38392     38412     38414     38408     38392     38412     38415
     38408     38405     38407     38417     38409     38408     38392     38412
     38409     38408     38410     38411     38410     38408     38392     38412
     38413     38412     38415     38416     38414     38412     38415     38416
     38417     38421     38419     38420     38417     38421     38419     38429
     38417     38421     38419     38433     38417     38422     38424     38438
     38417     38422     38425     38426     38417     38422     38425     38427
     38417     38422     38425     38429     38418     38417     38421     38419
     38418     38417     38422     38423     38418     38417     38422     38424
     38418     38417     38422     38425     38419     38421     38417     38422
     38419     38429     38425     38422     38419     38429     38425     38426
     38419     38429     38425     38427     38419     38429     38431     38432
     38419     38433     38436     38437     38420     38419     38429     38425
     38420     38419     38429     38430     38420     38419     38429     38431
     38420     38419     38433     38434     38420     38419     38433     38435
     38420     38419     38433     38436     38421     38417     38422     38423
     38421     38417     38422     38424     38421     38417     38422     38425
     38421     38419     38429     38425     38421     38419     38429     38430
     38421     38419     38429     38431     38421     38419     38433     38434
     38421     38419     38433     38435     38421     38419     38433     38436
     38422     38424     38438     38439     38422     38424     38438     38442
     38422     38424     38438     38443     38422     38425     38427     38428
     38422     38425     38429     38430     38422     38425     38429     38431
     38423     38422     38424     38438     38423     38422     38425     38426
     38423     38422     38425     38427     38423     38422     38425     38429
     38424     38422     38425     38426     38424     38422     38425     38427
     38424     38422     38425     38429     38424     38438     38442     38440
     38424     38438     38443     38444     38424     38438     38443     38445
     38424     38438     38443     38446     38425     38422     38424     38438
     38425     38429     38419     38433     38425     38429     38431     38432
     38426     38425     38427     38428     38426     38425     38429     38430
     38426     38425     38429     38431     38427     38425     38429     38430
     38427     38425     38429     38431     38428     38427     38425     38429
     38429     38419     38433     38434     38429     38419     38433     38435
     38429     38419     38433     38436     38430     38429     38419     38433
     38430     38429     38431     38432     38431     38429     38419     38433
     38434     38433     38436     38437     38435     38433     38436     38437
     38438     38442     38440     38441     38438     38442     38440     38450
     38438     38442     38440     38454     38438     38443     38445     38458
     38438     38443     38446     38447     38438     38443     38446     38448
     38438     38443     38446     38450     38439     38438     38442     38440
     38439     38438     38443     38444     38439     38438     38443     38445
     38439     38438     38443     38446     38440     38442     38438     38443
     38440     38450     38446     38443     38440     38450     38446     38447
     38440     38450     38446     38448     38440     38450     38452     38453
     38441     38440     38450     38446     38441     38440     38450     38451
     38441     38440     38450     38452     38441     38440     38454     38455
     38441     38440     38454     38456     38441     38440     38454     38457
     38442     38438     38443     38444     38442     38438     38443     38445
     38442     38438     38443     38446     38442     38440     38450     38446
     38442     38440     38450     38451     38442     38440     38450     38452
     38442     38440     38454     38455     38442     38440     38454     38456
     38442     38440     38454     38457     38443     38445     38458     38459
     38443     38445     38458     38462     38443     38445     38458     38463
     38443     38446     38448     38449     38443     38446     38450     38451
     38443     38446     38450     38452     38444     38443     38445     38458
     38444     38443     38446     38447     38444     38443     38446     38448
     38444     38443     38446     38450     38445     38443     38446     38447
     38445     38443     38446     38448     38445     38443     38446     38450
     38445     38458     38462     38460     38445     38458     38463     38464
     38445     38458     38463     38465     38445     38458     38463     38466
     38446     38443     38445     38458     38446     38450     38440     38454
     38446     38450     38452     38453     38447     38446     38448     38449
     38447     38446     38450     38451     38447     38446     38450     38452
     38448     38446     38450     38451     38448     38446     38450     38452
     38449     38448     38446     38450     38450     38440     38454     38455
     38450     38440     38454     38456     38450     38440     38454     38457
     38451     38450     38440     38454     38451     38450     38452     38453
     38452     38450     38440     38454     38458     38462     38460     38461
     38458     38462     38460     38469     38458     38462     38460     38473
     38458     38463     38465     38477     38458     38463     38466     38467
     38458     38463     38466     38468     38458     38463     38466     38469
     38459     38458     38462     38460     38459     38458     38463     38464
     38459     38458     38463     38465     38459     38458     38463     38466
     38460     38462     38458     38463     38460     38469     38466     38463
     38460     38469     38466     38467     38460     38469     38466     38468
     38460     38469     38471     38472     38461     38460     38469     38466
     38461     38460     38469     38470     38461     38460     38469     38471
     38461     38460     38473     38474     38461     38460     38473     38475
     38461     38460     38473     38476     38462     38458     38463     38464
     38462     38458     38463     38465     38462     38458     38463     38466
     38462     38460     38469     38466     38462     38460     38469     38470
     38462     38460     38469     38471     38462     38460     38473     38474
     38462     38460     38473     38475     38462     38460     38473     38476
     38463     38465     38477     38478     38463     38465     38477     38481
     38463     38465     38477     38482     38463     38466     38468     38505
     38463     38466     38469     38470     38463     38466     38469     38471
     38464     38463     38465     38477     38464     38463     38466     38467
     38464     38463     38466     38468     38464     38463     38466     38469
     38465     38463     38466     38467     38465     38463     38466     38468
     38465     38463     38466     38469     38465     38477     38481     38479
     38465     38477     38482     38483     38465     38477     38482     38484
     38465     38477     38482     38492     38466     38463     38465     38477
     38466     38468     38505     38506     38466     38468     38505     38509
     38466     38468     38505     38510     38466     38469     38460     38473
     38466     38469     38471     38472     38467     38466     38468     38505
     38467     38466     38469     38470     38467     38466     38469     38471
     38468     38466     38469     38470     38468     38466     38469     38471
     38468     38505     38509     38507     38468     38505     38510     38511
     38468     38505     38510     38512     38468     38505     38510     38520
     38469     38460     38473     38474     38469     38460     38473     38475
     38469     38460     38473     38476     38469     38466     38468     38505
     38470     38469     38460     38473     38470     38469     38471     38472
     38471     38469     38460     38473     38477     38481     38479     38480
     38477     38481     38479     38496     38477     38481     38479     38500
     38477     38482     38484     38485     38477     38482     38484     38486
     38477     38482     38492     38493     38477     38482     38492     38494
     38477     38482     38492     38496     38478     38477     38481     38479
     38478     38477     38482     38483     38478     38477     38482     38484
     38478     38477     38482     38492     38479     38481     38477     38482
     38479     38496     38492     38482     38479     38496     38492     38493
     38479     38496     38492     38494     38479     38496     38498     38499
     38479     38500     38503     38504     38480     38479     38496     38492
     38480     38479     38496     38497     38480     38479     38496     38498
     38480     38479     38500     38501     38480     38479     38500     38502
     38480     38479     38500     38503     38481     38477     38482     38483
     38481     38477     38482     38484     38481     38477     38482     38492
     38481     38479     38496     38492     38481     38479     38496     38497
     38481     38479     38496     38498     38481     38479     38500     38501
     38481     38479     38500     38502     38481     38479     38500     38503
     38482     38484     38486     38487     38482     38484     38486     38488
     38482     38492     38494     38495     38482     38492     38496     38497
     38482     38492     38496     38498     38483     38482     38484     38485
     38483     38482     38484     38486     38483     38482     38492     38493
     38483     38482     38492     38494     38483     38482     38492     38496
     38484     38482     38492     38493     38484     38482     38492     38494
     38484     38482     38492     38496     38484     38486     38488     38489
     38484     38486     38488     38490     38484     38486     38488     38491
     38485     38484     38482     38492     38485     38484     38486     38487
     38485     38484     38486     38488     38486     38484     38482     38492
     38487     38486     38488     38489     38487     38486     38488     38490
     38487     38486     38488     38491     38492     38496     38479     38500
     38492     38496     38498     38499     38493     38492     38494     38495
     38493     38492     38496     38497     38493     38492     38496     38498
     38494     38492     38496     38497     38494     38492     38496     38498
     38495     38494     38492     38496     38496     38479     38500     38501
     38496     38479     38500     38502     38496     38479     38500     38503
     38497     38496     38479     38500     38497     38496     38498     38499
     38498     38496     38479     38500     38501     38500     38503     38504
     38502     38500     38503     38504     38505     38509     38507     38508
     38505     38509     38507     38523     38505     38509     38507     38527
     38505     38510     38512     38513     38505     38510     38512     38514
     38505     38510     38520     38521     38505     38510     38520     38522
     38505     38510     38520     38523     38506     38505     38509     38507
     38506     38505     38510     38511     38506     38505     38510     38512
     38506     38505     38510     38520     38507     38509     38505     38510
     38507     38523     38520     38510     38507     38523     38520     38521
     38507     38523     38520     38522     38507     38523     38525     38526
     38507     38527     38530     38531     38508     38507     38523     38520
     38508     38507     38523     38524     38508     38507     38523     38525
     38508     38507     38527     38528     38508     38507     38527     38529
     38508     38507     38527     38530     38509     38505     38510     38511
     38509     38505     38510     38512     38509     38505     38510     38520
     38509     38507     38523     38520     38509     38507     38523     38524
     38509     38507     38523     38525     38509     38507     38527     38528
     38509     38507     38527     38529     38509     38507     38527     38530
     38510     38512     38514     38515     38510     38512     38514     38516
     38510     38520     38522     38532     38510     38520     38523     38524
     38510     38520     38523     38525     38511     38510     38512     38513
     38511     38510     38512     38514     38511     38510     38520     38521
     38511     38510     38520     38522     38511     38510     38520     38523
     38512     38510     38520     38521     38512     38510     38520     38522
     38512     38510     38520     38523     38512     38514     38516     38517
     38512     38514     38516     38518     38512     38514     38516     38519
     38513     38512     38510     38520     38513     38512     38514     38515
     38513     38512     38514     38516     38514     38512     38510     38520
     38515     38514     38516     38517     38515     38514     38516     38518
     38515     38514     38516     38519     38520     38522     38532     38533
     38520     38522     38532     38536     38520     38522     38532     38537
     38520     38523     38507     38527     38520     38523     38525     38526
     38521     38520     38522     38532     38521     38520     38523     38524
     38521     38520     38523     38525     38522     38520     38523     38524
     38522     38520     38523     38525     38522     38532     38536     38534
     38522     38532     38537     38538     38522     38532     38537     38539
     38522     38532     38537     38540     38523     38507     38527     38528
     38523     38507     38527     38529     38523     38507     38527     38530
     38523     38520     38522     38532     38524     38523     38507     38527
     38524     38523     38525     38526     38525     38523     38507     38527
     38528     38527     38530     38531     38529     38527     38530     38531
     38532     38536     38534     38535     38532     38536     38534     38544
     38532     38536     38534     38548     38532     38537     38539     38553
     38532     38537     38540     38541     38532     38537     38540     38542
     38532     38537     38540     38544     38533     38532     38536     38534
     38533     38532     38537     38538     38533     38532     38537     38539
     38533     38532     38537     38540     38534     38536     38532     38537
     38534     38544     38540     38537     38534     38544     38540     38541
     38534     38544     38540     38542     38534     38544     38546     38547
     38534     38548     38551     38552     38535     38534     38544     38540
     38535     38534     38544     38545     38535     38534     38544     38546
     38535     38534     38548     38549     38535     38534     38548     38550
     38535     38534     38548     38551     38536     38532     38537     38538
     38536     38532     38537     38539     38536     38532     38537     38540
     38536     38534     38544     38540     38536     38534     38544     38545
     38536     38534     38544     38546     38536     38534     38548     38549
     38536     38534     38548     38550     38536     38534     38548     38551
     38537     38539     38553     38554     38537     38539     38553     38557
     38537     38539     38553     38558     38537     38540     38542     38543
     38537     38540     38544     38545     38537     38540     38544     38546
     38538     38537     38539     38553     38538     38537     38540     38541
     38538     38537     38540     38542     38538     38537     38540     38544
     38539     38537     38540     38541     38539     38537     38540     38542
     38539     38537     38540     38544     38539     38553     38557     38555
     38539     38553     38558     38559     38539     38553     38558     38560
     38539     38553     38558     38561     38540     38537     38539     38553
     38540     38544     38534     38548     38540     38544     38546     38547
     38541     38540     38542     38543     38541     38540     38544     38545
     38541     38540     38544     38546     38542     38540     38544     38545
     38542     38540     38544     38546     38543     38542     38540     38544
     38544     38534     38548     38549     38544     38534     38548     38550
     38544     38534     38548     38551     38545     38544     38534     38548
     38545     38544     38546     38547     38546     38544     38534     38548
     38549     38548     38551     38552     38550     38548     38551     38552
     38553     38557     38555     38556     38553     38557     38555     38565
     38553     38557     38555     38569     38553     38558     38560     38573
     38553     38558     38561     38562     38553     38558     38561     38563
     38553     38558     38561     38565     38554     38553     38557     38555
     38554     38553     38558     38559     38554     38553     38558     38560
     38554     38553     38558     38561     38555     38557     38553     38558
     38555     38565     38561     38558     38555     38565     38561     38562
     38555     38565     38561     38563     38555     38565     38567     38568
     38556     38555     38565     38561     38556     38555     38565     38566
     38556     38555     38565     38567     38556     38555     38569     38570
     38556     38555     38569     38571     38556     38555     38569     38572
     38557     38553     38558     38559     38557     38553     38558     38560
     38557     38553     38558     38561     38557     38555     38565     38561
     38557     38555     38565     38566     38557     38555     38565     38567
     38557     38555     38569     38570     38557     38555     38569     38571
     38557     38555     38569     38572     38558     38560     38573     38574
     38558     38560     38573     38577     38558     38560     38573     38578
     38558     38561     38563     38564     38558     38561     38565     38566
     38558     38561     38565     38567     38559     38558     38560     38573
     38559     38558     38561     38562     38559     38558     38561     38563
     38559     38558     38561     38565     38560     38558     38561     38562
     38560     38558     38561     38563     38560     38558     38561     38565
     38560     38573     38577     38575     38560     38573     38578     38579
     38560     38573     38578     38580     38560     38573     38578     38581
     38561     38558     38560     38573     38561     38565     38555     38569
     38561     38565     38567     38568     38562     38561     38563     38564
     38562     38561     38565     38566     38562     38561     38565     38567
     38563     38561     38565     38566     38563     38561     38565     38567
     38564     38563     38561     38565     38565     38555     38569     38570
     38565     38555     38569     38571     38565     38555     38569     38572
     38566     38565     38555     38569     38566     38565     38567     38568
     38567     38565     38555     38569     38573     38577     38575     38576
     38573     38577     38575     38584     38573     38577     38575     38588
     38573     38578     38580     38592     38573     38578     38581     38582
     38573     38578     38581     38583     38573     38578     38581     38584
     38574     38573     38577     38575     38574     38573     38578     38579
     38574     38573     38578     38580     38574     38573     38578     38581
     38575     38577     38573     38578     38575     38584     38581     38578
     38575     38584     38581     38582     38575     38584     38581     38583
     38575     38584     38586     38587     38576     38575     38584     38581
     38576     38575     38584     38585     38576     38575     38584     38586
     38576     38575     38588     38589     38576     38575     38588     38590
     38576     38575     38588     38591     38577     38573     38578     38579
     38577     38573     38578     38580     38577     38573     38578     38581
     38577     38575     38584     38581     38577     38575     38584     38585
     38577     38575     38584     38586     38577     38575     38588     38589
     38577     38575     38588     38590     38577     38575     38588     38591
     38578     38580     38592     38593     38578     38580     38592     38596
     38578     38580     38592     38597     38578     38581     38583     38620
     38578     38581     38584     38585     38578     38581     38584     38586
     38579     38578     38580     38592     38579     38578     38581     38582
     38579     38578     38581     38583     38579     38578     38581     38584
     38580     38578     38581     38582     38580     38578     38581     38583
     38580     38578     38581     38584     38580     38592     38596     38594
     38580     38592     38597     38598     38580     38592     38597     38599
     38580     38592     38597     38607     38581     38578     38580     38592
     38581     38583     38620     38621     38581     38583     38620     38624
     38581     38583     38620     38625     38581     38584     38575     38588
     38581     38584     38586     38587     38582     38581     38583     38620
     38582     38581     38584     38585     38582     38581     38584     38586
     38583     38581     38584     38585     38583     38581     38584     38586
     38583     38620     38624     38622     38583     38620     38625     38626
     38583     38620     38625     38627     38583     38620     38625     38635
     38584     38575     38588     38589     38584     38575     38588     38590
     38584     38575     38588     38591     38584     38581     38583     38620
     38585     38584     38575     38588     38585     38584     38586     38587
     38586     38584     38575     38588     38592     38596     38594     38595
     38592     38596     38594     38611     38592     38596     38594     38615
     38592     38597     38599     38600     38592     38597     38599     38601
     38592     38597     38607     38608     38592     38597     38607     38609
     38592     38597     38607     38611     38593     38592     38596     38594
     38593     38592     38597     38598     38593     38592     38597     38599
     38593     38592     38597     38607     38594     38596     38592     38597
     38594     38611     38607     38597     38594     38611     38607     38608
     38594     38611     38607     38609     38594     38611     38613     38614
     38594     38615     38618     38619     38595     38594     38611     38607
     38595     38594     38611     38612     38595     38594     38611     38613
     38595     38594     38615     38616     38595     38594     38615     38617
     38595     38594     38615     38618     38596     38592     38597     38598
     38596     38592     38597     38599     38596     38592     38597     38607
     38596     38594     38611     38607     38596     38594     38611     38612
     38596     38594     38611     38613     38596     38594     38615     38616
     38596     38594     38615     38617     38596     38594     38615     38618
     38597     38599     38601     38602     38597     38599     38601     38603
     38597     38607     38609     38610     38597     38607     38611     38612
     38597     38607     38611     38613     38598     38597     38599     38600
     38598     38597     38599     38601     38598     38597     38607     38608
     38598     38597     38607     38609     38598     38597     38607     38611
     38599     38597     38607     38608     38599     38597     38607     38609
     38599     38597     38607     38611     38599     38601     38603     38604
     38599     38601     38603     38605     38599     38601     38603     38606
     38600     38599     38597     38607     38600     38599     38601     38602
     38600     38599     38601     38603     38601     38599     38597     38607
     38602     38601     38603     38604     38602     38601     38603     38605
     38602     38601     38603     38606     38607     38611     38594     38615
     38607     38611     38613     38614     38608     38607     38609     38610
     38608     38607     38611     38612     38608     38607     38611     38613
     38609     38607     38611     38612     38609     38607     38611     38613
     38610     38609     38607     38611     38611     38594     38615     38616
     38611     38594     38615     38617     38611     38594     38615     38618
     38612     38611     38594     38615     38612     38611     38613     38614
     38613     38611     38594     38615     38616     38615     38618     38619
     38617     38615     38618     38619     38620     38624     38622     38623
     38620     38624     38622     38638     38620     38624     38622     38642
     38620     38625     38627     38628     38620     38625     38627     38629
     38620     38625     38635     38636     38620     38625     38635     38637
     38620     38625     38635     38638     38621     38620     38624     38622
     38621     38620     38625     38626     38621     38620     38625     38627
     38621     38620     38625     38635     38622     38624     38620     38625
     38622     38638     38635     38625     38622     38638     38635     38636
     38622     38638     38635     38637     38622     38638     38640     38641
     38622     38642     38645     38646     38623     38622     38638     38635
     38623     38622     38638     38639     38623     38622     38638     38640
     38623     38622     38642     38643     38623     38622     38642     38644
     38623     38622     38642     38645     38624     38620     38625     38626
     38624     38620     38625     38627     38624     38620     38625     38635
     38624     38622     38638     38635     38624     38622     38638     38639
     38624     38622     38638     38640     38624     38622     38642     38643
     38624     38622     38642     38644     38624     38622     38642     38645
     38625     38627     38629     38630     38625     38627     38629     38631
     38625     38635     38637     38647     38625     38635     38638     38639
     38625     38635     38638     38640     38626     38625     38627     38628
     38626     38625     38627     38629     38626     38625     38635     38636
     38626     38625     38635     38637     38626     38625     38635     38638
     38627     38625     38635     38636     38627     38625     38635     38637
     38627     38625     38635     38638     38627     38629     38631     38632
     38627     38629     38631     38633     38627     38629     38631     38634
     38628     38627     38625     38635     38628     38627     38629     38630
     38628     38627     38629     38631     38629     38627     38625     38635
     38630     38629     38631     38632     38630     38629     38631     38633
     38630     38629     38631     38634     38635     38637     38647     38648
     38635     38637     38647     38651     38635     38637     38647     38652
     38635     38638     38622     38642     38635     38638     38640     38641
     38636     38635     38637     38647     38636     38635     38638     38639
     38636     38635     38638     38640     38637     38635     38638     38639
     38637     38635     38638     38640     38637     38647     38651     38649
     38637     38647     38652     38653     38637     38647     38652     38654
     38637     38647     38652     38655     38638     38622     38642     38643
     38638     38622     38642     38644     38638     38622     38642     38645
     38638     38635     38637     38647     38639     38638     38622     38642
     38639     38638     38640     38641     38640     38638     38622     38642
     38643     38642     38645     38646     38644     38642     38645     38646
     38647     38651     38649     38650     38647     38651     38649     38659
     38647     38651     38649     38663     38647     38652     38654     38668
     38647     38652     38655     38656     38647     38652     38655     38657
     38647     38652     38655     38659     38648     38647     38651     38649
     38648     38647     38652     38653     38648     38647     38652     38654
     38648     38647     38652     38655     38649     38651     38647     38652
     38649     38659     38655     38652     38649     38659     38655     38656
     38649     38659     38655     38657     38649     38659     38661     38662
     38649     38663     38666     38667     38650     38649     38659     38655
     38650     38649     38659     38660     38650     38649     38659     38661
     38650     38649     38663     38664     38650     38649     38663     38665
     38650     38649     38663     38666     38651     38647     38652     38653
     38651     38647     38652     38654     38651     38647     38652     38655
     38651     38649     38659     38655     38651     38649     38659     38660
     38651     38649     38659     38661     38651     38649     38663     38664
     38651     38649     38663     38665     38651     38649     38663     38666
     38652     38654     38668     38669     38652     38654     38668     38672
     38652     38654     38668     38673     38652     38655     38657     38658
     38652     38655     38659     38660     38652     38655     38659     38661
     38653     38652     38654     38668     38653     38652     38655     38656
     38653     38652     38655     38657     38653     38652     38655     38659
     38654     38652     38655     38656     38654     38652     38655     38657
     38654     38652     38655     38659     38654     38668     38672     38670
     38654     38668     38673     38674     38654     38668     38673     38675
     38654     38668     38673     38676     38655     38652     38654     38668
     38655     38659     38649     38663     38655     38659     38661     38662
     38656     38655     38657     38658     38656     38655     38659     38660
     38656     38655     38659     38661     38657     38655     38659     38660
     38657     38655     38659     38661     38658     38657     38655     38659
     38659     38649     38663     38664     38659     38649     38663     38665
     38659     38649     38663     38666     38660     38659     38649     38663
     38660     38659     38661     38662     38661     38659     38649     38663
     38664     38663     38666     38667     38665     38663     38666     38667
     38668     38672     38670     38671     38668     38672     38670     38680
     38668     38672     38670     38684     38668     38673     38675     38688
     38668     38673     38676     38677     38668     38673     38676     38678
     38668     38673     38676     38680     38669     38668     38672     38670
     38669     38668     38673     38674     38669     38668     38673     38675
     38669     38668     38673     38676     38670     38672     38668     38673
     38670     38680     38676     38673     38670     38680     38676     38677
     38670     38680     38676     38678     38670     38680     38682     38683
     38671     38670     38680     38676     38671     38670     38680     38681
     38671     38670     38680     38682     38671     38670     38684     38685
     38671     38670     38684     38686     38671     38670     38684     38687
     38672     38668     38673     38674     38672     38668     38673     38675
     38672     38668     38673     38676     38672     38670     38680     38676
     38672     38670     38680     38681     38672     38670     38680     38682
     38672     38670     38684     38685     38672     38670     38684     38686
     38672     38670     38684     38687     38673     38675     38688     38689
     38673     38675     38688     38692     38673     38675     38688     38693
     38673     38676     38678     38679     38673     38676     38680     38681
     38673     38676     38680     38682     38674     38673     38675     38688
     38674     38673     38676     38677     38674     38673     38676     38678
     38674     38673     38676     38680     38675     38673     38676     38677
     38675     38673     38676     38678     38675     38673     38676     38680
     38675     38688     38692     38690     38675     38688     38693     38694
     38675     38688     38693     38695     38675     38688     38693     38696
     38676     38673     38675     38688     38676     38680     38670     38684
     38676     38680     38682     38683     38677     38676     38678     38679
     38677     38676     38680     38681     38677     38676     38680     38682
     38678     38676     38680     38681     38678     38676     38680     38682
     38679     38678     38676     38680     38680     38670     38684     38685
     38680     38670     38684     38686     38680     38670     38684     38687
     38681     38680     38670     38684     38681     38680     38682     38683
     38682     38680     38670     38684     38688     38692     38690     38691
     38688     38692     38690     38699     38688     38692     38690     38703
     38688     38693     38695     38707     38688     38693     38696     38697
     38688     38693     38696     38698     38688     38693     38696     38699
     38689     38688     38692     38690     38689     38688     38693     38694
     38689     38688     38693     38695     38689     38688     38693     38696
     38690     38692     38688     38693     38690     38699     38696     38693
     38690     38699     38696     38697     38690     38699     38696     38698
     38690     38699     38701     38702     38691     38690     38699     38696
     38691     38690     38699     38700     38691     38690     38699     38701
     38691     38690     38703     38704     38691     38690     38703     38705
     38691     38690     38703     38706     38692     38688     38693     38694
     38692     38688     38693     38695     38692     38688     38693     38696
     38692     38690     38699     38696     38692     38690     38699     38700
     38692     38690     38699     38701     38692     38690     38703     38704
     38692     38690     38703     38705     38692     38690     38703     38706
     38693     38695     38707     38708     38693     38695     38707     38711
     38693     38695     38707     38712     38693     38696     38698     38735
     38693     38696     38699     38700     38693     38696     38699     38701
     38694     38693     38695     38707     38694     38693     38696     38697
     38694     38693     38696     38698     38694     38693     38696     38699
     38695     38693     38696     38697     38695     38693     38696     38698
     38695     38693     38696     38699     38695     38707     38711     38709
     38695     38707     38712     38713     38695     38707     38712     38714
     38695     38707     38712     38722     38696     38693     38695     38707
     38696     38698     38735     38736     38696     38698     38735     38739
     38696     38698     38735     38740     38696     38699     38690     38703
     38696     38699     38701     38702     38697     38696     38698     38735
     38697     38696     38699     38700     38697     38696     38699     38701
     38698     38696     38699     38700     38698     38696     38699     38701
     38698     38735     38739     38737     38698     38735     38740     38741
     38698     38735     38740     38742     38698     38735     38740     38750
     38699     38690     38703     38704     38699     38690     38703     38705
     38699     38690     38703     38706     38699     38696     38698     38735
     38700     38699     38690     38703     38700     38699     38701     38702
     38701     38699     38690     38703     38707     38711     38709     38710
     38707     38711     38709     38726     38707     38711     38709     38730
     38707     38712     38714     38715     38707     38712     38714     38716
     38707     38712     38722     38723     38707     38712     38722     38724
     38707     38712     38722     38726     38708     38707     38711     38709
     38708     38707     38712     38713     38708     38707     38712     38714
     38708     38707     38712     38722     38709     38711     38707     38712
     38709     38726     38722     38712     38709     38726     38722     38723
     38709     38726     38722     38724     38709     38726     38728     38729
     38709     38730     38733     38734     38710     38709     38726     38722
     38710     38709     38726     38727     38710     38709     38726     38728
     38710     38709     38730     38731     38710     38709     38730     38732
     38710     38709     38730     38733     38711     38707     38712     38713
     38711     38707     38712     38714     38711     38707     38712     38722
     38711     38709     38726     38722     38711     38709     38726     38727
     38711     38709     38726     38728     38711     38709     38730     38731
     38711     38709     38730     38732     38711     38709     38730     38733
     38712     38714     38716     38717     38712     38714     38716     38718
     38712     38722     38724     38725     38712     38722     38726     38727
     38712     38722     38726     38728     38713     38712     38714     38715
     38713     38712     38714     38716     38713     38712     38722     38723
     38713     38712     38722     38724     38713     38712     38722     38726
     38714     38712     38722     38723     38714     38712     38722     38724
     38714     38712     38722     38726     38714     38716     38718     38719
     38714     38716     38718     38720     38714     38716     38718     38721
     38715     38714     38712     38722     38715     38714     38716     38717
     38715     38714     38716     38718     38716     38714     38712     38722
     38717     38716     38718     38719     38717     38716     38718     38720
     38717     38716     38718     38721     38722     38726     38709     38730
     38722     38726     38728     38729     38723     38722     38724     38725
     38723     38722     38726     38727     38723     38722     38726     38728
     38724     38722     38726     38727     38724     38722     38726     38728
     38725     38724     38722     38726     38726     38709     38730     38731
     38726     38709     38730     38732     38726     38709     38730     38733
     38727     38726     38709     38730     38727     38726     38728     38729
     38728     38726     38709     38730     38731     38730     38733     38734
     38732     38730     38733     38734     38735     38739     38737     38738
     38735     38739     38737     38753     38735     38739     38737     38757
     38735     38740     38742     38743     38735     38740     38742     38744
     38735     38740     38750     38751     38735     38740     38750     38752
     38735     38740     38750     38753     38736     38735     38739     38737
     38736     38735     38740     38741     38736     38735     38740     38742
     38736     38735     38740     38750     38737     38739     38735     38740
     38737     38753     38750     38740     38737     38753     38750     38751
     38737     38753     38750     38752     38737     38753     38755     38756
     38737     38757     38760     38761     38738     38737     38753     38750
     38738     38737     38753     38754     38738     38737     38753     38755
     38738     38737     38757     38758     38738     38737     38757     38759
     38738     38737     38757     38760     38739     38735     38740     38741
     38739     38735     38740     38742     38739     38735     38740     38750
     38739     38737     38753     38750     38739     38737     38753     38754
     38739     38737     38753     38755     38739     38737     38757     38758
     38739     38737     38757     38759     38739     38737     38757     38760
     38740     38742     38744     38745     38740     38742     38744     38746
     38740     38750     38752     38762     38740     38750     38753     38754
     38740     38750     38753     38755     38741     38740     38742     38743
     38741     38740     38742     38744     38741     38740     38750     38751
     38741     38740     38750     38752     38741     38740     38750     38753
     38742     38740     38750     38751     38742     38740     38750     38752
     38742     38740     38750     38753     38742     38744     38746     38747
     38742     38744     38746     38748     38742     38744     38746     38749
     38743     38742     38740     38750     38743     38742     38744     38745
     38743     38742     38744     38746     38744     38742     38740     38750
     38745     38744     38746     38747     38745     38744     38746     38748
     38745     38744     38746     38749     38750     38752     38762     38763
     38750     38752     38762     38766     38750     38752     38762     38767
     38750     38753     38737     38757     38750     38753     38755     38756
     38751     38750     38752     38762     38751     38750     38753     38754
     38751     38750     38753     38755     38752     38750     38753     38754
     38752     38750     38753     38755     38752     38762     38766     38764
     38752     38762     38767     38768     38752     38762     38767     38769
     38752     38762     38767     38770     38753     38737     38757     38758
     38753     38737     38757     38759     38753     38737     38757     38760
     38753     38750     38752     38762     38754     38753     38737     38757
     38754     38753     38755     38756     38755     38753     38737     38757
     38758     38757     38760     38761     38759     38757     38760     38761
     38762     38766     38764     38765     38762     38766     38764     38774
     38762     38766     38764     38778     38762     38767     38769     38783
     38762     38767     38770     38771     38762     38767     38770     38772
     38762     38767     38770     38774     38763     38762     38766     38764
     38763     38762     38767     38768     38763     38762     38767     38769
     38763     38762     38767     38770     38764     38766     38762     38767
     38764     38774     38770     38767     38764     38774     38770     38771
     38764     38774     38770     38772     38764     38774     38776     38777
     38764     38778     38781     38782     38765     38764     38774     38770
     38765     38764     38774     38775     38765     38764     38774     38776
     38765     38764     38778     38779     38765     38764     38778     38780
     38765     38764     38778     38781     38766     38762     38767     38768
     38766     38762     38767     38769     38766     38762     38767     38770
     38766     38764     38774     38770     38766     38764     38774     38775
     38766     38764     38774     38776     38766     38764     38778     38779
     38766     38764     38778     38780     38766     38764     38778     38781
     38767     38769     38783     38784     38767     38769     38783     38787
     38767     38769     38783     38788     38767     38770     38772     38773
     38767     38770     38774     38775     38767     38770     38774     38776
     38768     38767     38769     38783     38768     38767     38770     38771
     38768     38767     38770     38772     38768     38767     38770     38774
     38769     38767     38770     38771     38769     38767     38770     38772
     38769     38767     38770     38774     38769     38783     38787     38785
     38769     38783     38788     38789     38769     38783     38788     38790
     38769     38783     38788     38791     38770     38767     38769     38783
     38770     38774     38764     38778     38770     38774     38776     38777
     38771     38770     38772     38773     38771     38770     38774     38775
     38771     38770     38774     38776     38772     38770     38774     38775
     38772     38770     38774     38776     38773     38772     38770     38774
     38774     38764     38778     38779     38774     38764     38778     38780
     38774     38764     38778     38781     38775     38774     38764     38778
     38775     38774     38776     38777     38776     38774     38764     38778
     38779     38778     38781     38782     38780     38778     38781     38782
     38783     38787     38785     38786     38783     38787     38785     38795
     38783     38787     38785     38799     38783     38788     38790     38803
     38783     38788     38791     38792     38783     38788     38791     38793
     38783     38788     38791     38795     38784     38783     38787     38785
     38784     38783     38788     38789     38784     38783     38788     38790
     38784     38783     38788     38791     38785     38787     38783     38788
     38785     38795     38791     38788     38785     38795     38791     38792
     38785     38795     38791     38793     38785     38795     38797     38798
     38786     38785     38795     38791     38786     38785     38795     38796
     38786     38785     38795     38797     38786     38785     38799     38800
     38786     38785     38799     38801     38786     38785     38799     38802
     38787     38783     38788     38789     38787     38783     38788     38790
     38787     38783     38788     38791     38787     38785     38795     38791
     38787     38785     38795     38796     38787     38785     38795     38797
     38787     38785     38799     38800     38787     38785     38799     38801
     38787     38785     38799     38802     38788     38790     38803     38804
     38788     38790     38803     38807     38788     38790     38803     38808
     38788     38791     38793     38794     38788     38791     38795     38796
     38788     38791     38795     38797     38789     38788     38790     38803
     38789     38788     38791     38792     38789     38788     38791     38793
     38789     38788     38791     38795     38790     38788     38791     38792
     38790     38788     38791     38793     38790     38788     38791     38795
     38790     38803     38807     38805     38790     38803     38808     38809
     38790     38803     38808     38810     38790     38803     38808     38811
     38791     38788     38790     38803     38791     38795     38785     38799
     38791     38795     38797     38798     38792     38791     38793     38794
     38792     38791     38795     38796     38792     38791     38795     38797
     38793     38791     38795     38796     38793     38791     38795     38797
     38794     38793     38791     38795     38795     38785     38799     38800
     38795     38785     38799     38801     38795     38785     38799     38802
     38796     38795     38785     38799     38796     38795     38797     38798
     38797     38795     38785     38799     38803     38807     38805     38806
     38803     38807     38805     38815     38803     38807     38805     38819
     38803     38808     38810     38823     38803     38808     38811     38812
     38803     38808     38811     38813     38803     38808     38811     38815
     38804     38803     38807     38805     38804     38803     38808     38809
     38804     38803     38808     38810     38804     38803     38808     38811
     38805     38807     38803     38808     38805     38815     38811     38808
     38805     38815     38811     38812     38805     38815     38811     38813
     38805     38815     38817     38818     38806     38805     38815     38811
     38806     38805     38815     38816     38806     38805     38815     38817
     38806     38805     38819     38820     38806     38805     38819     38821
     38806     38805     38819     38822     38807     38803     38808     38809
     38807     38803     38808     38810     38807     38803     38808     38811
     38807     38805     38815     38811     38807     38805     38815     38816
     38807     38805     38815     38817     38807     38805     38819     38820
     38807     38805     38819     38821     38807     38805     38819     38822
     38808     38810     38823     38824     38808     38810     38823     38827
     38808     38810     38823     38828     38808     38811     38813     38814
     38808     38811     38815     38816     38808     38811     38815     38817
     38809     38808     38810     38823     38809     38808     38811     38812
     38809     38808     38811     38813     38809     38808     38811     38815
     38810     38808     38811     38812     38810     38808     38811     38813
     38810     38808     38811     38815     38810     38823     38827     38825
     38810     38823     38828     38829     38810     38823     38828     38830
     38810     38823     38828     38838     38811     38808     38810     38823
     38811     38815     38805     38819     38811     38815     38817     38818
     38812     38811     38813     38814     38812     38811     38815     38816
     38812     38811     38815     38817     38813     38811     38815     38816
     38813     38811     38815     38817     38814     38813     38811     38815
     38815     38805     38819     38820     38815     38805     38819     38821
     38815     38805     38819     38822     38816     38815     38805     38819
     38816     38815     38817     38818     38817     38815     38805     38819
     38823     38827     38825     38826     38823     38827     38825     38842
     38823     38827     38825     38846     38823     38828     38830     38831
     38823     38828     38830     38832     38823     38828     38838     38839
     38823     38828     38838     38840     38823     38828     38838     38842
     38824     38823     38827     38825     38824     38823     38828     38829
     38824     38823     38828     38830     38824     38823     38828     38838
     38825     38827     38823     38828     38825     38842     38838     38828
     38825     38842     38838     38839     38825     38842     38838     38840
     38825     38842     38844     38845     38825     38846     38849     38850
     38826     38825     38842     38838     38826     38825     38842     38843
     38826     38825     38842     38844     38826     38825     38846     38847
     38826     38825     38846     38848     38826     38825     38846     38849
     38827     38823     38828     38829     38827     38823     38828     38830
     38827     38823     38828     38838     38827     38825     38842     38838
     38827     38825     38842     38843     38827     38825     38842     38844
     38827     38825     38846     38847     38827     38825     38846     38848
     38827     38825     38846     38849     38828     38830     38832     38833
     38828     38830     38832     38834     38828     38838     38840     38841
     38828     38838     38842     38843     38828     38838     38842     38844
     38829     38828     38830     38831     38829     38828     38830     38832
     38829     38828     38838     38839     38829     38828     38838     38840
     38829     38828     38838     38842     38830     38828     38838     38839
     38830     38828     38838     38840     38830     38828     38838     38842
     38830     38832     38834     38835     38830     38832     38834     38836
     38830     38832     38834     38837     38831     38830     38828     38838
     38831     38830     38832     38833     38831     38830     38832     38834
     38832     38830     38828     38838     38833     38832     38834     38835
     38833     38832     38834     38836     38833     38832     38834     38837
     38838     38842     38825     38846     38838     38842     38844     38845
     38839     38838     38840     38841     38839     38838     38842     38843
     38839     38838     38842     38844     38840     38838     38842     38843
     38840     38838     38842     38844     38841     38840     38838     38842
     38842     38825     38846     38847     38842     38825     38846     38848
     38842     38825     38846     38849     38843     38842     38825     38846
     38843     38842     38844     38845     38844     38842     38825     38846
     38847     38846     38849     38850     38848     38846     38849     38850
     38851     38856     38858     38859     38851     38856     38860     38861
     38851     38856     38860     38862     38851     38856     38860     38866
     38852     38851     38854     38855     38852     38851     38856     38857
     38852     38851     38856     38858     38852     38851     38856     38860
     38853     38851     38854     38855     38853     38851     38856     38857
     38853     38851     38856     38858     38853     38851     38856     38860
     38854     38851     38856     38857     38854     38851     38856     38858
     38854     38851     38856     38860     38855     38854     38851     38856
     38856     38860     38866     38863     38857     38856     38858     38859
     38857     38856     38860     38861     38857     38856     38860     38862
     38857     38856     38860     38866     38858     38856     38860     38861
     38858     38856     38860     38862     38858     38856     38860     38866
     38859     38858     38856     38860     38860     38866     38863     38864
     38860     38866     38863     38865     38860     38866     38863     38867
     38861     38860     38866     38863     38862     38860     38866     38863
     38863     38867     38868     38869     38863     38867     38868     38870
     38863     38867     38868     38871     38864     38863     38867     38868
     38865     38863     38867     38868     38866     38863     38867     38868
     38867     38868     38871     38872     38867     38868     38871     38873
     38867     38868     38871     38879     38868     38871     38873     38874
     38868     38871     38879     38880     38868     38871     38879     38881
     38868     38871     38879     38882     38869     38868     38871     38872
     38869     38868     38871     38873     38869     38868     38871     38879
     38870     38868     38871     38872     38870     38868     38871     38873
     38870     38868     38871     38879     38871     38873     38874     38875
     38871     38873     38874     38876     38871     38879     38882     38883
     38872     38871     38873     38874     38872     38871     38879     38880
     38872     38871     38879     38881     38872     38871     38879     38882
     38873     38871     38879     38880     38873     38871     38879     38881
     38873     38871     38879     38882     38873     38874     38876     38877
     38873     38874     38876     38878     38873     38874     38876     38888
     38874     38873     38871     38879     38874     38876     38888     38889
     38874     38876     38888     38890     38874     38876     38888     38891
     38875     38874     38876     38877     38875     38874     38876     38878
     38875     38874     38876     38888     38876     38888     38891     38892
     38876     38888     38891     38893     38876     38888     38891     38894
     38877     38876     38888     38889     38877     38876     38888     38890
     38877     38876     38888     38891     38878     38876     38888     38889
     38878     38876     38888     38890     38878     38876     38888     38891
     38879     38882     38883     38884     38879     38882     38883     38885
     38880     38879     38882     38883     38881     38879     38882     38883
     38882     38883     38885     38886     38882     38883     38885     38887
     38882     38883     38885     38935     38883     38885     38935     38936
     38883     38885     38935     38937     38883     38885     38935     38938
     38884     38883     38885     38886     38884     38883     38885     38887
     38884     38883     38885     38935     38885     38935     38938     38939
     38885     38935     38938     38940     38885     38935     38938     38941
     38886     38885     38935     38936     38886     38885     38935     38937
     38886     38885     38935     38938     38887     38885     38935     38936
     38887     38885     38935     38937     38887     38885     38935     38938
     38888     38891     38894     38895     38888     38891     38894     38896
     38888     38891     38894     38897     38889     38888     38891     38892
     38889     38888     38891     38893     38889     38888     38891     38894
     38890     38888     38891     38892     38890     38888     38891     38893
     38890     38888     38891     38894     38891     38894     38897     38898
     38891     38894     38897     38899     38891     38894     38897     38900
     38892     38891     38894     38895     38892     38891     38894     38896
     38892     38891     38894     38897     38893     38891     38894     38895
     38893     38891     38894     38896     38893     38891     38894     38897
     38894     38897     38900     38901     38894     38897     38900     38902
     38894     38897     38900     38903     38895     38894     38897     38898
     38895     38894     38897     38899     38895     38894     38897     38900
     38896     38894     38897     38898     38896     38894     38897     38899
     38896     38894     38897     38900     38897     38900     38903     38904
     38897     38900     38903     38905     38897     38900     38903     38906
     38898     38897     38900     38901     38898     38897     38900     38902
     38898     38897     38900     38903     38899     38897     38900     38901
     38899     38897     38900     38902     38899     38897     38900     38903
     38900     38903     38906     38907     38900     38903     38906     38908
     38900     38903     38906     38909     38901     38900     38903     38904
     38901     38900     38903     38905     38901     38900     38903     38906
     38902     38900     38903     38904     38902     38900     38903     38905
     38902     38900     38903     38906     38903     38906     38909     38910
     38903     38906     38909     38911     38903     38906     38909     38912
     38904     38903     38906     38907     38904     38903     38906     38908
     38904     38903     38906     38909     38905     38903     38906     38907
     38905     38903     38906     38908     38905     38903     38906     38909
     38906     38909     38912     38913     38906     38909     38912     38914
     38907     38906     38909     38910     38907     38906     38909     38911
     38907     38906     38909     38912     38908     38906     38909     38910
     38908     38906     38909     38911     38908     38906     38909     38912
     38909     38912     38914     38915     38909     38912     38914     38916
     38910     38909     38912     38913     38910     38909     38912     38914
     38911     38909     38912     38913     38911     38909     38912     38914
     38912     38914     38916     38917     38912     38914     38916     38918
     38912     38914     38916     38919     38913     38912     38914     38915
     38913     38912     38914     38916     38914     38916     38919     38920
     38914     38916     38919     38921     38914     38916     38919     38922
     38915     38914     38916     38917     38915     38914     38916     38918
     38915     38914     38916     38919     38916     38919     38922     38923
     38916     38919     38922     38924     38916     38919     38922     38925
     38917     38916     38919     38920     38917     38916     38919     38921
     38917     38916     38919     38922     38918     38916     38919     38920
     38918     38916     38919     38921     38918     38916     38919     38922
     38919     38922     38925     38926     38919     38922     38925     38927
     38919     38922     38925     38928     38920     38919     38922     38923
     38920     38919     38922     38924     38920     38919     38922     38925
     38921     38919     38922     38923     38921     38919     38922     38924
     38921     38919     38922     38925     38922     38925     38928     38929
     38922     38925     38928     38930     38922     38925     38928     38931
     38923     38922     38925     38926     38923     38922     38925     38927
     38923     38922     38925     38928     38924     38922     38925     38926
     38924     38922     38925     38927     38924     38922     38925     38928
     38925     38928     38931     38932     38925     38928     38931     38933
     38925     38928     38931     38934     38926     38925     38928     38929
     38926     38925     38928     38930     38926     38925     38928     38931
     38927     38925     38928     38929     38927     38925     38928     38930
     38927     38925     38928     38931     38929     38928     38931     38932
     38929     38928     38931     38933     38929     38928     38931     38934
     38930     38928     38931     38932     38930     38928     38931     38933
     38930     38928     38931     38934     38935     38938     38941     38942
     38935     38938     38941     38943     38935     38938     38941     38944
     38936     38935     38938     38939     38936     38935     38938     38940
     38936     38935     38938     38941     38937     38935     38938     38939
     38937     38935     38938     38940     38937     38935     38938     38941
     38938     38941     38944     38945     38938     38941     38944     38946
     38938     38941     38944     38947     38939     38938     38941     38942
     38939     38938     38941     38943     38939     38938     38941     38944
     38940     38938     38941     38942     38940     38938     38941     38943
     38940     38938     38941     38944     38941     38944     38947     38948
     38941     38944     38947     38949     38941     38944     38947     38950
     38942     38941     38944     38945     38942     38941     38944     38946
     38942     38941     38944     38947     38943     38941     38944     38945
     38943     38941     38944     38946     38943     38941     38944     38947
     38944     38947     38950     38951     38944     38947     38950     38952
     38944     38947     38950     38953     38945     38944     38947     38948
     38945     38944     38947     38949     38945     38944     38947     38950
     38946     38944     38947     38948     38946     38944     38947     38949
     38946     38944     38947     38950     38947     38950     38953     38954
     38947     38950     38953     38955     38947     38950     38953     38956
     38948     38947     38950     38951     38948     38947     38950     38952
     38948     38947     38950     38953     38949     38947     38950     38951
     38949     38947     38950     38952     38949     38947     38950     38953
     38950     38953     38956     38957     38950     38953     38956     38958
     38950     38953     38956     38959     38951     38950     38953     38954
     38951     38950     38953     38955     38951     38950     38953     38956
     38952     38950     38953     38954     38952     38950     38953     38955
     38952     38950     38953     38956     38953     38956     38959     38960
     38953     38956     38959     38961     38953     38956     38959     38962
     38954     38953     38956     38957     38954     38953     38956     38958
     38954     38953     38956     38959     38955     38953     38956     38957
     38955     38953     38956     38958     38955     38953     38956     38959
     38956     38959     38962     38963     38956     38959     38962     38964
     38956     38959     38962     38965     38957     38956     38959     38960
     38957     38956     38959     38961     38957     38956     38959     38962
     38958     38956     38959     38960     38958     38956     38959     38961
     38958     38956     38959     38962     38959     38962     38965     38966
     38959     38962     38965     38967     38959     38962     38965     38968
     38960     38959     38962     38963     38960     38959     38962     38964
     38960     38959     38962     38965     38961     38959     38962     38963
     38961     38959     38962     38964     38961     38959     38962     38965
     38962     38965     38968     38969     38962     38965     38968     38970
     38962     38965     38968     38971     38963     38962     38965     38966
     38963     38962     38965     38967     38963     38962     38965     38968
     38964     38962     38965     38966     38964     38962     38965     38967
     38964     38962     38965     38968     38965     38968     38971     38972
     38965     38968     38971     38973     38965     38968     38971     38974
     38966     38965     38968     38969     38966     38965     38968     38970
     38966     38965     38968     38971     38967     38965     38968     38969
     38967     38965     38968     38970     38967     38965     38968     38971
     38968     38971     38974     38975     38968     38971     38974     38976
     38968     38971     38974     38977     38969     38968     38971     38972
     38969     38968     38971     38973     38969     38968     38971     38974
     38970     38968     38971     38972     38970     38968     38971     38973
     38970     38968     38971     38974     38972     38971     38974     38975
     38972     38971     38974     38976     38972     38971     38974     38977
     38973     38971     38974     38975     38973     38971     38974     38976
     38973     38971     38974     38977     38978     38982     38985     38986
     38978     38982     38985     38987     38978     38982     38985     38992
     38979     38978     38982     38983     38979     38978     38982     38984
     38979     38978     38982     38985     38980     38978     38982     38983
     38980     38978     38982     38984     38980     38978     38982     38985
     38981     38978     38982     38983     38981     38978     38982     38984
     38981     38978     38982     38985     38982     38985     38992     38988
     38983     38982     38985     38986     38983     38982     38985     38987
     38983     38982     38985     38992     38984     38982     38985     38986
     38984     38982     38985     38987     38984     38982     38985     38992
     38985     38992     38988     38989     38985     38992     38988     38990
     38985     38992     38988     38991     38986     38985     38992     38988
     38987     38985     38992     38988     38988     38991     38993     38994
     38988     38991     38993     38995     38988     38991     38993     38996
     38989     38988     38991     38993     38990     38988     38991     38993
     38991     38993     38996     38997     38991     38993     38996     38998
     38991     38993     38996     39004     38992     38988     38991     38993
     38993     38996     38998     38999     38993     38996     39004     39005
     38993     38996     39004     39006     38993     38996     39004     39007
     38994     38993     38996     38997     38994     38993     38996     38998
     38994     38993     38996     39004     38995     38993     38996     38997
     38995     38993     38996     38998     38995     38993     38996     39004
     38996     38998     38999     39000     38996     38998     38999     39001
     38996     39004     39007     39008     38997     38996     38998     38999
     38997     38996     39004     39005     38997     38996     39004     39006
     38997     38996     39004     39007     38998     38996     39004     39005
     38998     38996     39004     39006     38998     38996     39004     39007
     38998     38999     39001     39002     38998     38999     39001     39003
     38998     38999     39001     39013     38999     38998     38996     39004
     38999     39001     39013     39014     38999     39001     39013     39015
     38999     39001     39013     39016     39000     38999     39001     39002
     39000     38999     39001     39003     39000     38999     39001     39013
     39001     39013     39016     39017     39001     39013     39016     39018
     39001     39013     39016     39019     39002     39001     39013     39014
     39002     39001     39013     39015     39002     39001     39013     39016
     39003     39001     39013     39014     39003     39001     39013     39015
     39003     39001     39013     39016     39004     39007     39008     39009
     39004     39007     39008     39010     39005     39004     39007     39008
     39006     39004     39007     39008     39007     39008     39010     39011
     39007     39008     39010     39012     39007     39008     39010     39054
     39008     39010     39054     39055     39008     39010     39054     39056
     39008     39010     39054     39057     39009     39008     39010     39011
     39009     39008     39010     39012     39009     39008     39010     39054
     39010     39054     39057     39058     39010     39054     39057     39059
     39010     39054     39057     39060     39011     39010     39054     39055
     39011     39010     39054     39056     39011     39010     39054     39057
     39012     39010     39054     39055     39012     39010     39054     39056
     39012     39010     39054     39057     39013     39016     39019     39020
     39013     39016     39019     39021     39013     39016     39019     39022
     39014     39013     39016     39017     39014     39013     39016     39018
     39014     39013     39016     39019     39015     39013     39016     39017
     39015     39013     39016     39018     39015     39013     39016     39019
     39016     39019     39022     39023     39016     39019     39022     39024
     39016     39019     39022     39025     39017     39016     39019     39020
     39017     39016     39019     39021     39017     39016     39019     39022
     39018     39016     39019     39020     39018     39016     39019     39021
     39018     39016     39019     39022     39019     39022     39025     39026
     39019     39022     39025     39027     39019     39022     39025     39028
     39020     39019     39022     39023     39020     39019     39022     39024
     39020     39019     39022     39025     39021     39019     39022     39023
     39021     39019     39022     39024     39021     39019     39022     39025
     39022     39025     39028     39029     39022     39025     39028     39030
     39022     39025     39028     39031     39023     39022     39025     39026
     39023     39022     39025     39027     39023     39022     39025     39028
     39024     39022     39025     39026     39024     39022     39025     39027
     39024     39022     39025     39028     39025     39028     39031     39032
     39025     39028     39031     39033     39026     39025     39028     39029
     39026     39025     39028     39030     39026     39025     39028     39031
     39027     39025     39028     39029     39027     39025     39028     39030
     39027     39025     39028     39031     39028     39031     39033     39034
     39028     39031     39033     39035     39029     39028     39031     39032
     39029     39028     39031     39033     39030     39028     39031     39032
     39030     39028     39031     39033     39031     39033     39035     39036
     39031     39033     39035     39037     39031     39033     39035     39038
     39032     39031     39033     39034     39032     39031     39033     39035
     39033     39035     39038     39039     39033     39035     39038     39040
     39033     39035     39038     39041     39034     39033     39035     39036
     39034     39033     39035     39037     39034     39033     39035     39038
     39035     39038     39041     39042     39035     39038     39041     39043
     39035     39038     39041     39044     39036     39035     39038     39039
     39036     39035     39038     39040     39036     39035     39038     39041
     39037     39035     39038     39039     39037     39035     39038     39040
     39037     39035     39038     39041     39038     39041     39044     39045
     39038     39041     39044     39046     39038     39041     39044     39047
     39039     39038     39041     39042     39039     39038     39041     39043
     39039     39038     39041     39044     39040     39038     39041     39042
     39040     39038     39041     39043     39040     39038     39041     39044
     39041     39044     39047     39048     39041     39044     39047     39049
     39041     39044     39047     39050     39042     39041     39044     39045
     39042     39041     39044     39046     39042     39041     39044     39047
     39043     39041     39044     39045     39043     39041     39044     39046
     39043     39041     39044     39047     39044     39047     39050     39051
     39044     39047     39050     39052     39044     39047     39050     39053
     39045     39044     39047     39048     39045     39044     39047     39049
     39045     39044     39047     39050     39046     39044     39047     39048
     39046     39044     39047     39049     39046     39044     39047     39050
     39048     39047     39050     39051     39048     39047     39050     39052
     39048     39047     39050     39053     39049     39047     39050     39051
     39049     39047     39050     39052     39049     39047     39050     39053
     39054     39057     39060     39061     39054     39057     39060     39062
     39054     39057     39060     39063     39055     39054     39057     39058
     39055     39054     39057     39059     39055     39054     39057     39060
     39056     39054     39057     39058     39056     39054     39057     39059
     39056     39054     39057     39060     39057     39060     39063     39064
     39057     39060     39063     39065     39057     39060     39063     39066
     39058     39057     39060     39061     39058     39057     39060     39062
     39058     39057     39060     39063     39059     39057     39060     39061
     39059     39057     39060     39062     39059     39057     39060     39063
     39060     39063     39066     39067     39060     39063     39066     39068
     39060     39063     39066     39069     39061     39060     39063     39064
     39061     39060     39063     39065     39061     39060     39063     39066
     39062     39060     39063     39064     39062     39060     39063     39065
     39062     39060     39063     39066     39063     39066     39069     39070
     39063     39066     39069     39071     39063     39066     39069     39072
     39064     39063     39066     39067     39064     39063     39066     39068
     39064     39063     39066     39069     39065     39063     39066     39067
     39065     39063     39066     39068     39065     39063     39066     39069
     39066     39069     39072     39073     39066     39069     39072     39074
     39066     39069     39072     39075     39067     39066     39069     39070
     39067     39066     39069     39071     39067     39066     39069     39072
     39068     39066     39069     39070     39068     39066     39069     39071
     39068     39066     39069     39072     39069     39072     39075     39076
     39069     39072     39075     39077     39069     39072     39075     39078
     39070     39069     39072     39073     39070     39069     39072     39074
     39070     39069     39072     39075     39071     39069     39072     39073
     39071     39069     39072     39074     39071     39069     39072     39075
     39072     39075     39078     39079     39072     39075     39078     39080
     39072     39075     39078     39081     39073     39072     39075     39076
     39073     39072     39075     39077     39073     39072     39075     39078
     39074     39072     39075     39076     39074     39072     39075     39077
     39074     39072     39075     39078     39075     39078     39081     39082
     39075     39078     39081     39083     39075     39078     39081     39084
     39076     39075     39078     39079     39076     39075     39078     39080
     39076     39075     39078     39081     39077     39075     39078     39079
     39077     39075     39078     39080     39077     39075     39078     39081
     39078     39081     39084     39085     39078     39081     39084     39086
     39078     39081     39084     39087     39079     39078     39081     39082
     39079     39078     39081     39083     39079     39078     39081     39084
     39080     39078     39081     39082     39080     39078     39081     39083
     39080     39078     39081     39084     39081     39084     39087     39088
     39081     39084     39087     39089     39081     39084     39087     39090
     39082     39081     39084     39085     39082     39081     39084     39086
     39082     39081     39084     39087     39083     39081     39084     39085
     39083     39081     39084     39086     39083     39081     39084     39087
     39084     39087     39090     39091     39084     39087     39090     39092
     39084     39087     39090     39093     39085     39084     39087     39088
     39085     39084     39087     39089     39085     39084     39087     39090
     39086     39084     39087     39088     39086     39084     39087     39089
     39086     39084     39087     39090     39087     39090     39093     39094
     39087     39090     39093     39095     39087     39090     39093     39096
     39088     39087     39090     39091     39088     39087     39090     39092
     39088     39087     39090     39093     39089     39087     39090     39091
     39089     39087     39090     39092     39089     39087     39090     39093
     39091     39090     39093     39094     39091     39090     39093     39095
     39091     39090     39093     39096     39092     39090     39093     39094
     39092     39090     39093     39095     39092     39090     39093     39096
     39097     39101     39104     39105     39097     39101     39104     39106
     39097     39101     39104     39111     39098     39097     39101     39102
     39098     39097     39101     39103     39098     39097     39101     39104
     39099     39097     39101     39102     39099     39097     39101     39103
     39099     39097     39101     39104     39100     39097     39101     39102
     39100     39097     39101     39103     39100     39097     39101     39104
     39101     39104     39111     39107     39102     39101     39104     39105
     39102     39101     39104     39106     39102     39101     39104     39111
     39103     39101     39104     39105     39103     39101     39104     39106
     39103     39101     39104     39111     39104     39111     39107     39108
     39104     39111     39107     39109     39104     39111     39107     39110
     39105     39104     39111     39107     39106     39104     39111     39107
     39107     39110     39112     39113     39107     39110     39112     39114
     39107     39110     39112     39115     39108     39107     39110     39112
     39109     39107     39110     39112     39110     39112     39115     39116
     39110     39112     39115     39117     39110     39112     39115     39123
     39111     39107     39110     39112     39112     39115     39117     39118
     39112     39115     39123     39124     39112     39115     39123     39125
     39112     39115     39123     39126     39113     39112     39115     39116
     39113     39112     39115     39117     39113     39112     39115     39123
     39114     39112     39115     39116     39114     39112     39115     39117
     39114     39112     39115     39123     39115     39117     39118     39119
     39115     39117     39118     39120     39115     39123     39126     39127
     39116     39115     39117     39118     39116     39115     39123     39124
     39116     39115     39123     39125     39116     39115     39123     39126
     39117     39115     39123     39124     39117     39115     39123     39125
     39117     39115     39123     39126     39117     39118     39120     39121
     39117     39118     39120     39122     39117     39118     39120     39132
     39118     39117     39115     39123     39118     39120     39132     39133
     39118     39120     39132     39134     39118     39120     39132     39135
     39119     39118     39120     39121     39119     39118     39120     39122
     39119     39118     39120     39132     39120     39132     39135     39136
     39120     39132     39135     39137     39120     39132     39135     39138
     39121     39120     39132     39133     39121     39120     39132     39134
     39121     39120     39132     39135     39122     39120     39132     39133
     39122     39120     39132     39134     39122     39120     39132     39135
     39123     39126     39127     39128     39123     39126     39127     39129
     39124     39123     39126     39127     39125     39123     39126     39127
     39126     39127     39129     39130     39126     39127     39129     39131
     39126     39127     39129     39173     39127     39129     39173     39174
     39127     39129     39173     39175     39127     39129     39173     39176
     39128     39127     39129     39130     39128     39127     39129     39131
     39128     39127     39129     39173     39129     39173     39176     39177
     39129     39173     39176     39178     39129     39173     39176     39179
     39130     39129     39173     39174     39130     39129     39173     39175
     39130     39129     39173     39176     39131     39129     39173     39174
     39131     39129     39173     39175     39131     39129     39173     39176
     39132     39135     39138     39139     39132     39135     39138     39140
     39132     39135     39138     39141     39133     39132     39135     39136
     39133     39132     39135     39137     39133     39132     39135     39138
     39134     39132     39135     39136     39134     39132     39135     39137
     39134     39132     39135     39138     39135     39138     39141     39142
     39135     39138     39141     39143     39135     39138     39141     39144
     39136     39135     39138     39139     39136     39135     39138     39140
     39136     39135     39138     39141     39137     39135     39138     39139
     39137     39135     39138     39140     39137     39135     39138     39141
     39138     39141     39144     39145     39138     39141     39144     39146
     39138     39141     39144     39147     39139     39138     39141     39142
     39139     39138     39141     39143     39139     39138     39141     39144
     39140     39138     39141     39142     39140     39138     39141     39143
     39140     39138     39141     39144     39141     39144     39147     39148
     39141     39144     39147     39149     39141     39144     39147     39150
     39142     39141     39144     39145     39142     39141     39144     39146
     39142     39141     39144     39147     39143     39141     39144     39145
     39143     39141     39144     39146     39143     39141     39144     39147
     39144     39147     39150     39151     39144     39147     39150     39152
     39145     39144     39147     39148     39145     39144     39147     39149
     39145     39144     39147     39150     39146     39144     39147     39148
     39146     39144     39147     39149     39146     39144     39147     39150
     39147     39150     39152     39153     39147     39150     39152     39154
     39148     39147     39150     39151     39148     39147     39150     39152
     39149     39147     39150     39151     39149     39147     39150     39152
     39150     39152     39154     39155     39150     39152     39154     39156
     39150     39152     39154     39157     39151     39150     39152     39153
     39151     39150     39152     39154     39152     39154     39157     39158
     39152     39154     39157     39159     39152     39154     39157     39160
     39153     39152     39154     39155     39153     39152     39154     39156
     39153     39152     39154     39157     39154     39157     39160     39161
     39154     39157     39160     39162     39154     39157     39160     39163
     39155     39154     39157     39158     39155     39154     39157     39159
     39155     39154     39157     39160     39156     39154     39157     39158
     39156     39154     39157     39159     39156     39154     39157     39160
     39157     39160     39163     39164     39157     39160     39163     39165
     39157     39160     39163     39166     39158     39157     39160     39161
     39158     39157     39160     39162     39158     39157     39160     39163
     39159     39157     39160     39161     39159     39157     39160     39162
     39159     39157     39160     39163     39160     39163     39166     39167
     39160     39163     39166     39168     39160     39163     39166     39169
     39161     39160     39163     39164     39161     39160     39163     39165
     39161     39160     39163     39166     39162     39160     39163     39164
     39162     39160     39163     39165     39162     39160     39163     39166
     39163     39166     39169     39170     39163     39166     39169     39171
     39163     39166     39169     39172     39164     39163     39166     39167
     39164     39163     39166     39168     39164     39163     39166     39169
     39165     39163     39166     39167     39165     39163     39166     39168
     39165     39163     39166     39169     39167     39166     39169     39170
     39167     39166     39169     39171     39167     39166     39169     39172
     39168     39166     39169     39170     39168     39166     39169     39171
     39168     39166     39169     39172     39173     39176     39179     39180
     39173     39176     39179     39181     39173     39176     39179     39182
     39174     39173     39176     39177     39174     39173     39176     39178
     39174     39173     39176     39179     39175     39173     39176     39177
     39175     39173     39176     39178     39175     39173     39176     39179
     39176     39179     39182     39183     39176     39179     39182     39184
     39176     39179     39182     39185     39177     39176     39179     39180
     39177     39176     39179     39181     39177     39176     39179     39182
     39178     39176     39179     39180     39178     39176     39179     39181
     39178     39176     39179     39182     39179     39182     39185     39186
     39179     39182     39185     39187     39179     39182     39185     39188
     39180     39179     39182     39183     39180     39179     39182     39184
     39180     39179     39182     39185     39181     39179     39182     39183
     39181     39179     39182     39184     39181     39179     39182     39185
     39182     39185     39188     39189     39182     39185     39188     39190
     39182     39185     39188     39191     39183     39182     39185     39186
     39183     39182     39185     39187     39183     39182     39185     39188
     39184     39182     39185     39186     39184     39182     39185     39187
     39184     39182     39185     39188     39185     39188     39191     39192
     39185     39188     39191     39193     39185     39188     39191     39194
     39186     39185     39188     39189     39186     39185     39188     39190
     39186     39185     39188     39191     39187     39185     39188     39189
     39187     39185     39188     39190     39187     39185     39188     39191
     39188     39191     39194     39195     39188     39191     39194     39196
     39188     39191     39194     39197     39189     39188     39191     39192
     39189     39188     39191     39193     39189     39188     39191     39194
     39190     39188     39191     39192     39190     39188     39191     39193
     39190     39188     39191     39194     39191     39194     39197     39198
     39191     39194     39197     39199     39191     39194     39197     39200
     39192     39191     39194     39195     39192     39191     39194     39196
     39192     39191     39194     39197     39193     39191     39194     39195
     39193     39191     39194     39196     39193     39191     39194     39197
     39194     39197     39200     39201     39194     39197     39200     39202
     39194     39197     39200     39203     39195     39194     39197     39198
     39195     39194     39197     39199     39195     39194     39197     39200
     39196     39194     39197     39198     39196     39194     39197     39199
     39196     39194     39197     39200     39197     39200     39203     39204
     39197     39200     39203     39205     39197     39200     39203     39206
     39198     39197     39200     39201     39198     39197     39200     39202
     39198     39197     39200     39203     39199     39197     39200     39201
     39199     39197     39200     39202     39199     39197     39200     39203
     39200     39203     39206     39207     39200     39203     39206     39208
     39200     39203     39206     39209     39201     39200     39203     39204
     39201     39200     39203     39205     39201     39200     39203     39206
     39202     39200     39203     39204     39202     39200     39203     39205
     39202     39200     39203     39206     39203     39206     39209     39210
     39203     39206     39209     39211     39203     39206     39209     39212
     39204     39203     39206     39207     39204     39203     39206     39208
     39204     39203     39206     39209     39205     39203     39206     39207
     39205     39203     39206     39208     39205     39203     39206     39209
     39206     39209     39212     39213     39206     39209     39212     39214
     39206     39209     39212     39215     39207     39206     39209     39210
     39207     39206     39209     39211     39207     39206     39209     39212
     39208     39206     39209     39210     39208     39206     39209     39211
     39208     39206     39209     39212     39210     39209     39212     39213
     39210     39209     39212     39214     39210     39209     39212     39215
     39211     39209     39212     39213     39211     39209     39212     39214
     39211     39209     39212     39215     39216     39221     39223     39224
     39216     39221     39225     39226     39216     39221     39225     39227
     39216     39221     39225     39231     39217     39216     39219     39220
     39217     39216     39221     39222     39217     39216     39221     39223
     39217     39216     39221     39225     39218     39216     39219     39220
     39218     39216     39221     39222     39218     39216     39221     39223
     39218     39216     39221     39225     39219     39216     39221     39222
     39219     39216     39221     39223     39219     39216     39221     39225
     39220     39219     39216     39221     39221     39225     39231     39228
     39222     39221     39223     39224     39222     39221     39225     39226
     39222     39221     39225     39227     39222     39221     39225     39231
     39223     39221     39225     39226     39223     39221     39225     39227
     39223     39221     39225     39231     39224     39223     39221     39225
     39225     39231     39228     39229     39225     39231     39228     39230
     39225     39231     39228     39232     39226     39225     39231     39228
     39227     39225     39231     39228     39228     39232     39233     39234
     39228     39232     39233     39235     39228     39232     39233     39236
     39229     39228     39232     39233     39230     39228     39232     39233
     39231     39228     39232     39233     39232     39233     39236     39237
     39232     39233     39236     39238     39232     39233     39236     39244
     39233     39236     39238     39239     39233     39236     39244     39245
     39233     39236     39244     39246     39233     39236     39244     39247
     39234     39233     39236     39237     39234     39233     39236     39238
     39234     39233     39236     39244     39235     39233     39236     39237
     39235     39233     39236     39238     39235     39233     39236     39244
     39236     39238     39239     39240     39236     39238     39239     39241
     39236     39244     39247     39248     39237     39236     39238     39239
     39237     39236     39244     39245     39237     39236     39244     39246
     39237     39236     39244     39247     39238     39236     39244     39245
     39238     39236     39244     39246     39238     39236     39244     39247
     39238     39239     39241     39242     39238     39239     39241     39243
     39238     39239     39241     39253     39239     39238     39236     39244
     39239     39241     39253     39254     39239     39241     39253     39255
     39239     39241     39253     39256     39240     39239     39241     39242
     39240     39239     39241     39243     39240     39239     39241     39253
     39241     39253     39256     39257     39241     39253     39256     39258
     39241     39253     39256     39259     39242     39241     39253     39254
     39242     39241     39253     39255     39242     39241     39253     39256
     39243     39241     39253     39254     39243     39241     39253     39255
     39243     39241     39253     39256     39244     39247     39248     39249
     39244     39247     39248     39250     39245     39244     39247     39248
     39246     39244     39247     39248     39247     39248     39250     39251
     39247     39248     39250     39252     39247     39248     39250     39300
     39248     39250     39300     39301     39248     39250     39300     39302
     39248     39250     39300     39303     39249     39248     39250     39251
     39249     39248     39250     39252     39249     39248     39250     39300
     39250     39300     39303     39304     39250     39300     39303     39305
     39250     39300     39303     39306     39251     39250     39300     39301
     39251     39250     39300     39302     39251     39250     39300     39303
     39252     39250     39300     39301     39252     39250     39300     39302
     39252     39250     39300     39303     39253     39256     39259     39260
     39253     39256     39259     39261     39253     39256     39259     39262
     39254     39253     39256     39257     39254     39253     39256     39258
     39254     39253     39256     39259     39255     39253     39256     39257
     39255     39253     39256     39258     39255     39253     39256     39259
     39256     39259     39262     39263     39256     39259     39262     39264
     39256     39259     39262     39265     39257     39256     39259     39260
     39257     39256     39259     39261     39257     39256     39259     39262
     39258     39256     39259     39260     39258     39256     39259     39261
     39258     39256     39259     39262     39259     39262     39265     39266
     39259     39262     39265     39267     39259     39262     39265     39268
     39260     39259     39262     39263     39260     39259     39262     39264
     39260     39259     39262     39265     39261     39259     39262     39263
     39261     39259     39262     39264     39261     39259     39262     39265
     39262     39265     39268     39269     39262     39265     39268     39270
     39262     39265     39268     39271     39263     39262     39265     39266
     39263     39262     39265     39267     39263     39262     39265     39268
     39264     39262     39265     39266     39264     39262     39265     39267
     39264     39262     39265     39268     39265     39268     39271     39272
     39265     39268     39271     39273     39265     39268     39271     39274
     39266     39265     39268     39269     39266     39265     39268     39270
     39266     39265     39268     39271     39267     39265     39268     39269
     39267     39265     39268     39270     39267     39265     39268     39271
     39268     39271     39274     39275     39268     39271     39274     39276
     39268     39271     39274     39277     39269     39268     39271     39272
     39269     39268     39271     39273     39269     39268     39271     39274
     39270     39268     39271     39272     39270     39268     39271     39273
     39270     39268     39271     39274     39271     39274     39277     39278
     39271     39274     39277     39279     39272     39271     39274     39275
     39272     39271     39274     39276     39272     39271     39274     39277
     39273     39271     39274     39275     39273     39271     39274     39276
     39273     39271     39274     39277     39274     39277     39279     39280
     39274     39277     39279     39281     39275     39274     39277     39278
     39275     39274     39277     39279     39276     39274     39277     39278
     39276     39274     39277     39279     39277     39279     39281     39282
     39277     39279     39281     39283     39277     39279     39281     39284
     39278     39277     39279     39280     39278     39277     39279     39281
     39279     39281     39284     39285     39279     39281     39284     39286
     39279     39281     39284     39287     39280     39279     39281     39282
     39280     39279     39281     39283     39280     39279     39281     39284
     39281     39284     39287     39288     39281     39284     39287     39289
     39281     39284     39287     39290     39282     39281     39284     39285
     39282     39281     39284     39286     39282     39281     39284     39287
     39283     39281     39284     39285     39283     39281     39284     39286
     39283     39281     39284     39287     39284     39287     39290     39291
     39284     39287     39290     39292     39284     39287     39290     39293
     39285     39284     39287     39288     39285     39284     39287     39289
     39285     39284     39287     39290     39286     39284     39287     39288
     39286     39284     39287     39289     39286     39284     39287     39290
     39287     39290     39293     39294     39287     39290     39293     39295
     39287     39290     39293     39296     39288     39287     39290     39291
     39288     39287     39290     39292     39288     39287     39290     39293
     39289     39287     39290     39291     39289     39287     39290     39292
     39289     39287     39290     39293     39290     39293     39296     39297
     39290     39293     39296     39298     39290     39293     39296     39299
     39291     39290     39293     39294     39291     39290     39293     39295
     39291     39290     39293     39296     39292     39290     39293     39294
     39292     39290     39293     39295     39292     39290     39293     39296
     39294     39293     39296     39297     39294     39293     39296     39298
     39294     39293     39296     39299     39295     39293     39296     39297
     39295     39293     39296     39298     39295     39293     39296     39299
     39300     39303     39306     39307     39300     39303     39306     39308
     39300     39303     39306     39309     39301     39300     39303     39304
     39301     39300     39303     39305     39301     39300     39303     39306
     39302     39300     39303     39304     39302     39300     39303     39305
     39302     39300     39303     39306     39303     39306     39309     39310
     39303     39306     39309     39311     39303     39306     39309     39312
     39304     39303     39306     39307     39304     39303     39306     39308
     39304     39303     39306     39309     39305     39303     39306     39307
     39305     39303     39306     39308     39305     39303     39306     39309
     39306     39309     39312     39313     39306     39309     39312     39314
     39306     39309     39312     39315     39307     39306     39309     39310
     39307     39306     39309     39311     39307     39306     39309     39312
     39308     39306     39309     39310     39308     39306     39309     39311
     39308     39306     39309     39312     39309     39312     39315     39316
     39309     39312     39315     39317     39309     39312     39315     39318
     39310     39309     39312     39313     39310     39309     39312     39314
     39310     39309     39312     39315     39311     39309     39312     39313
     39311     39309     39312     39314     39311     39309     39312     39315
     39312     39315     39318     39319     39312     39315     39318     39320
     39312     39315     39318     39321     39313     39312     39315     39316
     39313     39312     39315     39317     39313     39312     39315     39318
     39314     39312     39315     39316     39314     39312     39315     39317
     39314     39312     39315     39318     39315     39318     39321     39322
     39315     39318     39321     39323     39315     39318     39321     39324
     39316     39315     39318     39319     39316     39315     39318     39320
     39316     39315     39318     39321     39317     39315     39318     39319
     39317     39315     39318     39320     39317     39315     39318     39321
     39318     39321     39324     39325     39318     39321     39324     39326
     39318     39321     39324     39327     39319     39318     39321     39322
     39319     39318     39321     39323     39319     39318     39321     39324
     39320     39318     39321     39322     39320     39318     39321     39323
     39320     39318     39321     39324     39321     39324     39327     39328
     39321     39324     39327     39329     39321     39324     39327     39330
     39322     39321     39324     39325     39322     39321     39324     39326
     39322     39321     39324     39327     39323     39321     39324     39325
     39323     39321     39324     39326     39323     39321     39324     39327
     39324     39327     39330     39331     39324     39327     39330     39332
     39324     39327     39330     39333     39325     39324     39327     39328
     39325     39324     39327     39329     39325     39324     39327     39330
     39326     39324     39327     39328     39326     39324     39327     39329
     39326     39324     39327     39330     39327     39330     39333     39334
     39327     39330     39333     39335     39327     39330     39333     39336
     39328     39327     39330     39331     39328     39327     39330     39332
     39328     39327     39330     39333     39329     39327     39330     39331
     39329     39327     39330     39332     39329     39327     39330     39333
     39330     39333     39336     39337     39330     39333     39336     39338
     39330     39333     39336     39339     39331     39330     39333     39334
     39331     39330     39333     39335     39331     39330     39333     39336
     39332     39330     39333     39334     39332     39330     39333     39335
     39332     39330     39333     39336     39333     39336     39339     39340
     39333     39336     39339     39341     39333     39336     39339     39342
     39334     39333     39336     39337     39334     39333     39336     39338
     39334     39333     39336     39339     39335     39333     39336     39337
     39335     39333     39336     39338     39335     39333     39336     39339
     39337     39336     39339     39340     39337     39336     39339     39341
     39337     39336     39339     39342     39338     39336     39339     39340
     39338     39336     39339     39341     39338     39336     39339     39342
     39343     39347     39350     39351     39343     39347     39350     39352
     39343     39347     39350     39357     39344     39343     39347     39348
     39344     39343     39347     39349     39344     39343     39347     39350
     39345     39343     39347     39348     39345     39343     39347     39349
     39345     39343     39347     39350     39346     39343     39347     39348
     39346     39343     39347     39349     39346     39343     39347     39350
     39347     39350     39357     39353     39348     39347     39350     39351
     39348     39347     39350     39352     39348     39347     39350     39357
     39349     39347     39350     39351     39349     39347     39350     39352
     39349     39347     39350     39357     39350     39357     39353     39354
     39350     39357     39353     39355     39350     39357     39353     39356
     39351     39350     39357     39353     39352     39350     39357     39353
     39353     39356     39358     39359     39353     39356     39358     39360
     39353     39356     39358     39361     39354     39353     39356     39358
     39355     39353     39356     39358     39356     39358     39361     39362
     39356     39358     39361     39363     39356     39358     39361     39369
     39357     39353     39356     39358     39358     39361     39363     39364
     39358     39361     39369     39370     39358     39361     39369     39371
     39358     39361     39369     39372     39359     39358     39361     39362
     39359     39358     39361     39363     39359     39358     39361     39369
     39360     39358     39361     39362     39360     39358     39361     39363
     39360     39358     39361     39369     39361     39363     39364     39365
     39361     39363     39364     39366     39361     39369     39372     39373
     39362     39361     39363     39364     39362     39361     39369     39370
     39362     39361     39369     39371     39362     39361     39369     39372
     39363     39361     39369     39370     39363     39361     39369     39371
     39363     39361     39369     39372     39363     39364     39366     39367
     39363     39364     39366     39368     39363     39364     39366     39378
     39364     39363     39361     39369     39364     39366     39378     39379
     39364     39366     39378     39380     39364     39366     39378     39381
     39365     39364     39366     39367     39365     39364     39366     39368
     39365     39364     39366     39378     39366     39378     39381     39382
     39366     39378     39381     39383     39366     39378     39381     39384
     39367     39366     39378     39379     39367     39366     39378     39380
     39367     39366     39378     39381     39368     39366     39378     39379
     39368     39366     39378     39380     39368     39366     39378     39381
     39369     39372     39373     39374     39369     39372     39373     39375
     39370     39369     39372     39373     39371     39369     39372     39373
     39372     39373     39375     39376     39372     39373     39375     39377
     39372     39373     39375     39419     39373     39375     39419     39420
     39373     39375     39419     39421     39373     39375     39419     39422
     39374     39373     39375     39376     39374     39373     39375     39377
     39374     39373     39375     39419     39375     39419     39422     39423
     39375     39419     39422     39424     39375     39419     39422     39425
     39376     39375     39419     39420     39376     39375     39419     39421
     39376     39375     39419     39422     39377     39375     39419     39420
     39377     39375     39419     39421     39377     39375     39419     39422
     39378     39381     39384     39385     39378     39381     39384     39386
     39378     39381     39384     39387     39379     39378     39381     39382
     39379     39378     39381     39383     39379     39378     39381     39384
     39380     39378     39381     39382     39380     39378     39381     39383
     39380     39378     39381     39384     39381     39384     39387     39388
     39381     39384     39387     39389     39381     39384     39387     39390
     39382     39381     39384     39385     39382     39381     39384     39386
     39382     39381     39384     39387     39383     39381     39384     39385
     39383     39381     39384     39386     39383     39381     39384     39387
     39384     39387     39390     39391     39384     39387     39390     39392
     39384     39387     39390     39393     39385     39384     39387     39388
     39385     39384     39387     39389     39385     39384     39387     39390
     39386     39384     39387     39388     39386     39384     39387     39389
     39386     39384     39387     39390     39387     39390     39393     39394
     39387     39390     39393     39395     39387     39390     39393     39396
     39388     39387     39390     39391     39388     39387     39390     39392
     39388     39387     39390     39393     39389     39387     39390     39391
     39389     39387     39390     39392     39389     39387     39390     39393
     39390     39393     39396     39397     39390     39393     39396     39398
     39391     39390     39393     39394     39391     39390     39393     39395
     39391     39390     39393     39396     39392     39390     39393     39394
     39392     39390     39393     39395     39392     39390     39393     39396
     39393     39396     39398     39399     39393     39396     39398     39400
     39394     39393     39396     39397     39394     39393     39396     39398
     39395     39393     39396     39397     39395     39393     39396     39398
     39396     39398     39400     39401     39396     39398     39400     39402
     39396     39398     39400     39403     39397     39396     39398     39399
     39397     39396     39398     39400     39398     39400     39403     39404
     39398     39400     39403     39405     39398     39400     39403     39406
     39399     39398     39400     39401     39399     39398     39400     39402
     39399     39398     39400     39403     39400     39403     39406     39407
     39400     39403     39406     39408     39400     39403     39406     39409
     39401     39400     39403     39404     39401     39400     39403     39405
     39401     39400     39403     39406     39402     39400     39403     39404
     39402     39400     39403     39405     39402     39400     39403     39406
     39403     39406     39409     39410     39403     39406     39409     39411
     39403     39406     39409     39412     39404     39403     39406     39407
     39404     39403     39406     39408     39404     39403     39406     39409
     39405     39403     39406     39407     39405     39403     39406     39408
     39405     39403     39406     39409     39406     39409     39412     39413
     39406     39409     39412     39414     39406     39409     39412     39415
     39407     39406     39409     39410     39407     39406     39409     39411
     39407     39406     39409     39412     39408     39406     39409     39410
     39408     39406     39409     39411     39408     39406     39409     39412
     39409     39412     39415     39416     39409     39412     39415     39417
     39409     39412     39415     39418     39410     39409     39412     39413
     39410     39409     39412     39414     39410     39409     39412     39415
     39411     39409     39412     39413     39411     39409     39412     39414
     39411     39409     39412     39415     39413     39412     39415     39416
     39413     39412     39415     39417     39413     39412     39415     39418
     39414     39412     39415     39416     39414     39412     39415     39417
     39414     39412     39415     39418     39419     39422     39425     39426
     39419     39422     39425     39427     39419     39422     39425     39428
     39420     39419     39422     39423     39420     39419     39422     39424
     39420     39419     39422     39425     39421     39419     39422     39423
     39421     39419     39422     39424     39421     39419     39422     39425
     39422     39425     39428     39429     39422     39425     39428     39430
     39422     39425     39428     39431     39423     39422     39425     39426
     39423     39422     39425     39427     39423     39422     39425     39428
     39424     39422     39425     39426     39424     39422     39425     39427
     39424     39422     39425     39428     39425     39428     39431     39432
     39425     39428     39431     39433     39425     39428     39431     39434
     39426     39425     39428     39429     39426     39425     39428     39430
     39426     39425     39428     39431     39427     39425     39428     39429
     39427     39425     39428     39430     39427     39425     39428     39431
     39428     39431     39434     39435     39428     39431     39434     39436
     39428     39431     39434     39437     39429     39428     39431     39432
     39429     39428     39431     39433     39429     39428     39431     39434
     39430     39428     39431     39432     39430     39428     39431     39433
     39430     39428     39431     39434     39431     39434     39437     39438
     39431     39434     39437     39439     39431     39434     39437     39440
     39432     39431     39434     39435     39432     39431     39434     39436
     39432     39431     39434     39437     39433     39431     39434     39435
     39433     39431     39434     39436     39433     39431     39434     39437
     39434     39437     39440     39441     39434     39437     39440     39442
     39434     39437     39440     39443     39435     39434     39437     39438
     39435     39434     39437     39439     39435     39434     39437     39440
     39436     39434     39437     39438     39436     39434     39437     39439
     39436     39434     39437     39440     39437     39440     39443     39444
     39437     39440     39443     39445     39437     39440     39443     39446
     39438     39437     39440     39441     39438     39437     39440     39442
     39438     39437     39440     39443     39439     39437     39440     39441
     39439     39437     39440     39442     39439     39437     39440     39443
     39440     39443     39446     39447     39440     39443     39446     39448
     39440     39443     39446     39449     39441     39440     39443     39444
     39441     39440     39443     39445     39441     39440     39443     39446
     39442     39440     39443     39444     39442     39440     39443     39445
     39442     39440     39443     39446     39443     39446     39449     39450
     39443     39446     39449     39451     39443     39446     39449     39452
     39444     39443     39446     39447     39444     39443     39446     39448
     39444     39443     39446     39449     39445     39443     39446     39447
     39445     39443     39446     39448     39445     39443     39446     39449
     39446     39449     39452     39453     39446     39449     39452     39454
     39446     39449     39452     39455     39447     39446     39449     39450
     39447     39446     39449     39451     39447     39446     39449     39452
     39448     39446     39449     39450     39448     39446     39449     39451
     39448     39446     39449     39452     39449     39452     39455     39456
     39449     39452     39455     39457     39449     39452     39455     39458
     39450     39449     39452     39453     39450     39449     39452     39454
     39450     39449     39452     39455     39451     39449     39452     39453
     39451     39449     39452     39454     39451     39449     39452     39455
     39452     39455     39458     39459     39452     39455     39458     39460
     39452     39455     39458     39461     39453     39452     39455     39456
     39453     39452     39455     39457     39453     39452     39455     39458
     39454     39452     39455     39456     39454     39452     39455     39457
     39454     39452     39455     39458     39456     39455     39458     39459
     39456     39455     39458     39460     39456     39455     39458     39461
     39457     39455     39458     39459     39457     39455     39458     39460
     39457     39455     39458     39461     39462     39466     39469     39470
     39462     39466     39469     39471     39462     39466     39469     39476
     39463     39462     39466     39467     39463     39462     39466     39468
     39463     39462     39466     39469     39464     39462     39466     39467
     39464     39462     39466     39468     39464     39462     39466     39469
     39465     39462     39466     39467     39465     39462     39466     39468
     39465     39462     39466     39469     39466     39469     39476     39472
     39467     39466     39469     39470     39467     39466     39469     39471
     39467     39466     39469     39476     39468     39466     39469     39470
     39468     39466     39469     39471     39468     39466     39469     39476
     39469     39476     39472     39473     39469     39476     39472     39474
     39469     39476     39472     39475     39470     39469     39476     39472
     39471     39469     39476     39472     39472     39475     39477     39478
     39472     39475     39477     39479     39472     39475     39477     39480
     39473     39472     39475     39477     39474     39472     39475     39477
     39475     39477     39480     39481     39475     39477     39480     39482
     39475     39477     39480     39488     39476     39472     39475     39477
     39477     39480     39482     39483     39477     39480     39488     39489
     39477     39480     39488     39490     39477     39480     39488     39491
     39478     39477     39480     39481     39478     39477     39480     39482
     39478     39477     39480     39488     39479     39477     39480     39481
     39479     39477     39480     39482     39479     39477     39480     39488
     39480     39482     39483     39484     39480     39482     39483     39485
     39480     39488     39491     39492     39481     39480     39482     39483
     39481     39480     39488     39489     39481     39480     39488     39490
     39481     39480     39488     39491     39482     39480     39488     39489
     39482     39480     39488     39490     39482     39480     39488     39491
     39482     39483     39485     39486     39482     39483     39485     39487
     39482     39483     39485     39497     39483     39482     39480     39488
     39483     39485     39497     39498     39483     39485     39497     39499
     39483     39485     39497     39500     39484     39483     39485     39486
     39484     39483     39485     39487     39484     39483     39485     39497
     39485     39497     39500     39501     39485     39497     39500     39502
     39485     39497     39500     39503     39486     39485     39497     39498
     39486     39485     39497     39499     39486     39485     39497     39500
     39487     39485     39497     39498     39487     39485     39497     39499
     39487     39485     39497     39500     39488     39491     39492     39493
     39488     39491     39492     39494     39489     39488     39491     39492
     39490     39488     39491     39492     39491     39492     39494     39495
     39491     39492     39494     39496     39491     39492     39494     39538
     39492     39494     39538     39539     39492     39494     39538     39540
     39492     39494     39538     39541     39493     39492     39494     39495
     39493     39492     39494     39496     39493     39492     39494     39538
     39494     39538     39541     39542     39494     39538     39541     39543
     39494     39538     39541     39544     39495     39494     39538     39539
     39495     39494     39538     39540     39495     39494     39538     39541
     39496     39494     39538     39539     39496     39494     39538     39540
     39496     39494     39538     39541     39497     39500     39503     39504
     39497     39500     39503     39505     39497     39500     39503     39506
     39498     39497     39500     39501     39498     39497     39500     39502
     39498     39497     39500     39503     39499     39497     39500     39501
     39499     39497     39500     39502     39499     39497     39500     39503
     39500     39503     39506     39507     39500     39503     39506     39508
     39500     39503     39506     39509     39501     39500     39503     39504
     39501     39500     39503     39505     39501     39500     39503     39506
     39502     39500     39503     39504     39502     39500     39503     39505
     39502     39500     39503     39506     39503     39506     39509     39510
     39503     39506     39509     39511     39503     39506     39509     39512
     39504     39503     39506     39507     39504     39503     39506     39508
     39504     39503     39506     39509     39505     39503     39506     39507
     39505     39503     39506     39508     39505     39503     39506     39509
     39506     39509     39512     39513     39506     39509     39512     39514
     39506     39509     39512     39515     39507     39506     39509     39510
     39507     39506     39509     39511     39507     39506     39509     39512
     39508     39506     39509     39510     39508     39506     39509     39511
     39508     39506     39509     39512     39509     39512     39515     39516
     39509     39512     39515     39517     39510     39509     39512     39513
     39510     39509     39512     39514     39510     39509     39512     39515
     39511     39509     39512     39513     39511     39509     39512     39514
     39511     39509     39512     39515     39512     39515     39517     39518
     39512     39515     39517     39519     39513     39512     39515     39516
     39513     39512     39515     39517     39514     39512     39515     39516
     39514     39512     39515     39517     39515     39517     39519     39520
     39515     39517     39519     39521     39515     39517     39519     39522
     39516     39515     39517     39518     39516     39515     39517     39519
     39517     39519     39522     39523     39517     39519     39522     39524
     39517     39519     39522     39525     39518     39517     39519     39520
     39518     39517     39519     39521     39518     39517     39519     39522
     39519     39522     39525     39526     39519     39522     39525     39527
     39519     39522     39525     39528     39520     39519     39522     39523
     39520     39519     39522     39524     39520     39519     39522     39525
     39521     39519     39522     39523     39521     39519     39522     39524
     39521     39519     39522     39525     39522     39525     39528     39529
     39522     39525     39528     39530     39522     39525     39528     39531
     39523     39522     39525     39526     39523     39522     39525     39527
     39523     39522     39525     39528     39524     39522     39525     39526
     39524     39522     39525     39527     39524     39522     39525     39528
     39525     39528     39531     39532     39525     39528     39531     39533
     39525     39528     39531     39534     39526     39525     39528     39529
     39526     39525     39528     39530     39526     39525     39528     39531
     39527     39525     39528     39529     39527     39525     39528     39530
     39527     39525     39528     39531     39528     39531     39534     39535
     39528     39531     39534     39536     39528     39531     39534     39537
     39529     39528     39531     39532     39529     39528     39531     39533
     39529     39528     39531     39534     39530     39528     39531     39532
     39530     39528     39531     39533     39530     39528     39531     39534
     39532     39531     39534     39535     39532     39531     39534     39536
     39532     39531     39534     39537     39533     39531     39534     39535
     39533     39531     39534     39536     39533     39531     39534     39537
     39538     39541     39544     39545     39538     39541     39544     39546
     39538     39541     39544     39547     39539     39538     39541     39542
     39539     39538     39541     39543     39539     39538     39541     39544
     39540     39538     39541     39542     39540     39538     39541     39543
     39540     39538     39541     39544     39541     39544     39547     39548
     39541     39544     39547     39549     39541     39544     39547     39550
     39542     39541     39544     39545     39542     39541     39544     39546
     39542     39541     39544     39547     39543     39541     39544     39545
     39543     39541     39544     39546     39543     39541     39544     39547
     39544     39547     39550     39551     39544     39547     39550     39552
     39544     39547     39550     39553     39545     39544     39547     39548
     39545     39544     39547     39549     39545     39544     39547     39550
     39546     39544     39547     39548     39546     39544     39547     39549
     39546     39544     39547     39550     39547     39550     39553     39554
     39547     39550     39553     39555     39547     39550     39553     39556
     39548     39547     39550     39551     39548     39547     39550     39552
     39548     39547     39550     39553     39549     39547     39550     39551
     39549     39547     39550     39552     39549     39547     39550     39553
     39550     39553     39556     39557     39550     39553     39556     39558
     39550     39553     39556     39559     39551     39550     39553     39554
     39551     39550     39553     39555     39551     39550     39553     39556
     39552     39550     39553     39554     39552     39550     39553     39555
     39552     39550     39553     39556     39553     39556     39559     39560
     39553     39556     39559     39561     39553     39556     39559     39562
     39554     39553     39556     39557     39554     39553     39556     39558
     39554     39553     39556     39559     39555     39553     39556     39557
     39555     39553     39556     39558     39555     39553     39556     39559
     39556     39559     39562     39563     39556     39559     39562     39564
     39556     39559     39562     39565     39557     39556     39559     39560
     39557     39556     39559     39561     39557     39556     39559     39562
     39558     39556     39559     39560     39558     39556     39559     39561
     39558     39556     39559     39562     39559     39562     39565     39566
     39559     39562     39565     39567     39559     39562     39565     39568
     39560     39559     39562     39563     39560     39559     39562     39564
     39560     39559     39562     39565     39561     39559     39562     39563
     39561     39559     39562     39564     39561     39559     39562     39565
     39562     39565     39568     39569     39562     39565     39568     39570
     39562     39565     39568     39571     39563     39562     39565     39566
     39563     39562     39565     39567     39563     39562     39565     39568
     39564     39562     39565     39566     39564     39562     39565     39567
     39564     39562     39565     39568     39565     39568     39571     39572
     39565     39568     39571     39573     39565     39568     39571     39574
     39566     39565     39568     39569     39566     39565     39568     39570
     39566     39565     39568     39571     39567     39565     39568     39569
     39567     39565     39568     39570     39567     39565     39568     39571
     39568     39571     39574     39575     39568     39571     39574     39576
     39568     39571     39574     39577     39569     39568     39571     39572
     39569     39568     39571     39573     39569     39568     39571     39574
     39570     39568     39571     39572     39570     39568     39571     39573
     39570     39568     39571     39574     39571     39574     39577     39578
     39571     39574     39577     39579     39571     39574     39577     39580
     39572     39571     39574     39575     39572     39571     39574     39576
     39572     39571     39574     39577     39573     39571     39574     39575
     39573     39571     39574     39576     39573     39571     39574     39577
     39575     39574     39577     39578     39575     39574     39577     39579
     39575     39574     39577     39580     39576     39574     39577     39578
     39576     39574     39577     39579     39576     39574     39577     39580
     39581     39585     39588     39589     39581     39585     39588     39590
     39581     39585     39588     39595     39582     39581     39585     39586
     39582     39581     39585     39587     39582     39581     39585     39588
     39583     39581     39585     39586     39583     39581     39585     39587
     39583     39581     39585     39588     39584     39581     39585     39586
     39584     39581     39585     39587     39584     39581     39585     39588
     39585     39588     39595     39591     39586     39585     39588     39589
     39586     39585     39588     39590     39586     39585     39588     39595
     39587     39585     39588     39589     39587     39585     39588     39590
     39587     39585     39588     39595     39588     39595     39591     39592
     39588     39595     39591     39593     39588     39595     39591     39594
     39589     39588     39595     39591     39590     39588     39595     39591
     39591     39594     39596     39597     39591     39594     39596     39598
     39591     39594     39596     39599     39592     39591     39594     39596
     39593     39591     39594     39596     39594     39596     39599     39600
     39594     39596     39599     39601     39594     39596     39599     39607
     39595     39591     39594     39596     39596     39599     39601     39602
     39596     39599     39607     39608     39596     39599     39607     39609
     39596     39599     39607     39610     39597     39596     39599     39600
     39597     39596     39599     39601     39597     39596     39599     39607
     39598     39596     39599     39600     39598     39596     39599     39601
     39598     39596     39599     39607     39599     39601     39602     39603
     39599     39601     39602     39604     39599     39607     39610     39611
     39600     39599     39601     39602     39600     39599     39607     39608
     39600     39599     39607     39609     39600     39599     39607     39610
     39601     39599     39607     39608     39601     39599     39607     39609
     39601     39599     39607     39610     39601     39602     39604     39605
     39601     39602     39604     39606     39601     39602     39604     39616
     39602     39601     39599     39607     39602     39604     39616     39617
     39602     39604     39616     39618     39602     39604     39616     39619
     39603     39602     39604     39605     39603     39602     39604     39606
     39603     39602     39604     39616     39604     39616     39619     39620
     39604     39616     39619     39621     39604     39616     39619     39622
     39605     39604     39616     39617     39605     39604     39616     39618
     39605     39604     39616     39619     39606     39604     39616     39617
     39606     39604     39616     39618     39606     39604     39616     39619
     39607     39610     39611     39612     39607     39610     39611     39613
     39608     39607     39610     39611     39609     39607     39610     39611
     39610     39611     39613     39614     39610     39611     39613     39615
     39610     39611     39613     39657     39611     39613     39657     39658
     39611     39613     39657     39659     39611     39613     39657     39660
     39612     39611     39613     39614     39612     39611     39613     39615
     39612     39611     39613     39657     39613     39657     39660     39661
     39613     39657     39660     39662     39613     39657     39660     39663
     39614     39613     39657     39658     39614     39613     39657     39659
     39614     39613     39657     39660     39615     39613     39657     39658
     39615     39613     39657     39659     39615     39613     39657     39660
     39616     39619     39622     39623     39616     39619     39622     39624
     39616     39619     39622     39625     39617     39616     39619     39620
     39617     39616     39619     39621     39617     39616     39619     39622
     39618     39616     39619     39620     39618     39616     39619     39621
     39618     39616     39619     39622     39619     39622     39625     39626
     39619     39622     39625     39627     39619     39622     39625     39628
     39620     39619     39622     39623     39620     39619     39622     39624
     39620     39619     39622     39625     39621     39619     39622     39623
     39621     39619     39622     39624     39621     39619     39622     39625
     39622     39625     39628     39629     39622     39625     39628     39630
     39622     39625     39628     39631     39623     39622     39625     39626
     39623     39622     39625     39627     39623     39622     39625     39628
     39624     39622     39625     39626     39624     39622     39625     39627
     39624     39622     39625     39628     39625     39628     39631     39632
     39625     39628     39631     39633     39625     39628     39631     39634
     39626     39625     39628     39629     39626     39625     39628     39630
     39626     39625     39628     39631     39627     39625     39628     39629
     39627     39625     39628     39630     39627     39625     39628     39631
     39628     39631     39634     39635     39628     39631     39634     39636
     39629     39628     39631     39632     39629     39628     39631     39633
     39629     39628     39631     39634     39630     39628     39631     39632
     39630     39628     39631     39633     39630     39628     39631     39634
     39631     39634     39636     39637     39631     39634     39636     39638
     39632     39631     39634     39635     39632     39631     39634     39636
     39633     39631     39634     39635     39633     39631     39634     39636
     39634     39636     39638     39639     39634     39636     39638     39640
     39634     39636     39638     39641     39635     39634     39636     39637
     39635     39634     39636     39638     39636     39638     39641     39642
     39636     39638     39641     39643     39636     39638     39641     39644
     39637     39636     39638     39639     39637     39636     39638     39640
     39637     39636     39638     39641     39638     39641     39644     39645
     39638     39641     39644     39646     39638     39641     39644     39647
     39639     39638     39641     39642     39639     39638     39641     39643
     39639     39638     39641     39644     39640     39638     39641     39642
     39640     39638     39641     39643     39640     39638     39641     39644
     39641     39644     39647     39648     39641     39644     39647     39649
     39641     39644     39647     39650     39642     39641     39644     39645
     39642     39641     39644     39646     39642     39641     39644     39647
     39643     39641     39644     39645     39643     39641     39644     39646
     39643     39641     39644     39647     39644     39647     39650     39651
     39644     39647     39650     39652     39644     39647     39650     39653
     39645     39644     39647     39648     39645     39644     39647     39649
     39645     39644     39647     39650     39646     39644     39647     39648
     39646     39644     39647     39649     39646     39644     39647     39650
     39647     39650     39653     39654     39647     39650     39653     39655
     39647     39650     39653     39656     39648     39647     39650     39651
     39648     39647     39650     39652     39648     39647     39650     39653
     39649     39647     39650     39651     39649     39647     39650     39652
     39649     39647     39650     39653     39651     39650     39653     39654
     39651     39650     39653     39655     39651     39650     39653     39656
     39652     39650     39653     39654     39652     39650     39653     39655
     39652     39650     39653     39656     39657     39660     39663     39664
     39657     39660     39663     39665     39657     39660     39663     39666
     39658     39657     39660     39661     39658     39657     39660     39662
     39658     39657     39660     39663     39659     39657     39660     39661
     39659     39657     39660     39662     39659     39657     39660     39663
     39660     39663     39666     39667     39660     39663     39666     39668
     39660     39663     39666     39669     39661     39660     39663     39664
     39661     39660     39663     39665     39661     39660     39663     39666
     39662     39660     39663     39664     39662     39660     39663     39665
     39662     39660     39663     39666     39663     39666     39669     39670
     39663     39666     39669     39671     39663     39666     39669     39672
     39664     39663     39666     39667     39664     39663     39666     39668
     39664     39663     39666     39669     39665     39663     39666     39667
     39665     39663     39666     39668     39665     39663     39666     39669
     39666     39669     39672     39673     39666     39669     39672     39674
     39666     39669     39672     39675     39667     39666     39669     39670
     39667     39666     39669     39671     39667     39666     39669     39672
     39668     39666     39669     39670     39668     39666     39669     39671
     39668     39666     39669     39672     39669     39672     39675     39676
     39669     39672     39675     39677     39669     39672     39675     39678
     39670     39669     39672     39673     39670     39669     39672     39674
     39670     39669     39672     39675     39671     39669     39672     39673
     39671     39669     39672     39674     39671     39669     39672     39675
     39672     39675     39678     39679     39672     39675     39678     39680
     39672     39675     39678     39681     39673     39672     39675     39676
     39673     39672     39675     39677     39673     39672     39675     39678
     39674     39672     39675     39676     39674     39672     39675     39677
     39674     39672     39675     39678     39675     39678     39681     39682
     39675     39678     39681     39683     39675     39678     39681     39684
     39676     39675     39678     39679     39676     39675     39678     39680
     39676     39675     39678     39681     39677     39675     39678     39679
     39677     39675     39678     39680     39677     39675     39678     39681
     39678     39681     39684     39685     39678     39681     39684     39686
     39678     39681     39684     39687     39679     39678     39681     39682
     39679     39678     39681     39683     39679     39678     39681     39684
     39680     39678     39681     39682     39680     39678     39681     39683
     39680     39678     39681     39684     39681     39684     39687     39688
     39681     39684     39687     39689     39681     39684     39687     39690
     39682     39681     39684     39685     39682     39681     39684     39686
     39682     39681     39684     39687     39683     39681     39684     39685
     39683     39681     39684     39686     39683     39681     39684     39687
     39684     39687     39690     39691     39684     39687     39690     39692
     39684     39687     39690     39693     39685     39684     39687     39688
     39685     39684     39687     39689     39685     39684     39687     39690
     39686     39684     39687     39688     39686     39684     39687     39689
     39686     39684     39687     39690     39687     39690     39693     39694
     39687     39690     39693     39695     39687     39690     39693     39696
     39688     39687     39690     39691     39688     39687     39690     39692
     39688     39687     39690     39693     39689     39687     39690     39691
     39689     39687     39690     39692     39689     39687     39690     39693
     39690     39693     39696     39697     39690     39693     39696     39698
     39690     39693     39696     39699     39691     39690     39693     39694
     39691     39690     39693     39695     39691     39690     39693     39696
     39692     39690     39693     39694     39692     39690     39693     39695
     39692     39690     39693     39696     39694     39693     39696     39697
     39694     39693     39696     39698     39694     39693     39696     39699
     39695     39693     39696     39697     39695     39693     39696     39698
     39695     39693     39696     39699     39700     39704     39707     39708
     39700     39704     39707     39709     39700     39704     39707     39714
     39701     39700     39704     39705     39701     39700     39704     39706
     39701     39700     39704     39707     39702     39700     39704     39705
     39702     39700     39704     39706     39702     39700     39704     39707
     39703     39700     39704     39705     39703     39700     39704     39706
     39703     39700     39704     39707     39704     39707     39714     39710
     39705     39704     39707     39708     39705     39704     39707     39709
     39705     39704     39707     39714     39706     39704     39707     39708
     39706     39704     39707     39709     39706     39704     39707     39714
     39707     39714     39710     39711     39707     39714     39710     39712
     39707     39714     39710     39713     39708     39707     39714     39710
     39709     39707     39714     39710     39710     39713     39715     39716
     39710     39713     39715     39717     39710     39713     39715     39718
     39711     39710     39713     39715     39712     39710     39713     39715
     39713     39715     39718     39719     39713     39715     39718     39720
     39713     39715     39718     39726     39714     39710     39713     39715
     39715     39718     39720     39721     39715     39718     39726     39727
     39715     39718     39726     39728     39715     39718     39726     39729
     39716     39715     39718     39719     39716     39715     39718     39720
     39716     39715     39718     39726     39717     39715     39718     39719
     39717     39715     39718     39720     39717     39715     39718     39726
     39718     39720     39721     39722     39718     39720     39721     39723
     39718     39726     39729     39730     39719     39718     39720     39721
     39719     39718     39726     39727     39719     39718     39726     39728
     39719     39718     39726     39729     39720     39718     39726     39727
     39720     39718     39726     39728     39720     39718     39726     39729
     39720     39721     39723     39724     39720     39721     39723     39725
     39720     39721     39723     39735     39721     39720     39718     39726
     39721     39723     39735     39736     39721     39723     39735     39737
     39721     39723     39735     39738     39722     39721     39723     39724
     39722     39721     39723     39725     39722     39721     39723     39735
     39723     39735     39738     39739     39723     39735     39738     39740
     39723     39735     39738     39741     39724     39723     39735     39736
     39724     39723     39735     39737     39724     39723     39735     39738
     39725     39723     39735     39736     39725     39723     39735     39737
     39725     39723     39735     39738     39726     39729     39730     39731
     39726     39729     39730     39732     39727     39726     39729     39730
     39728     39726     39729     39730     39729     39730     39732     39733
     39729     39730     39732     39734     39729     39730     39732     39776
     39730     39732     39776     39777     39730     39732     39776     39778
     39730     39732     39776     39779     39731     39730     39732     39733
     39731     39730     39732     39734     39731     39730     39732     39776
     39732     39776     39779     39780     39732     39776     39779     39781
     39732     39776     39779     39782     39733     39732     39776     39777
     39733     39732     39776     39778     39733     39732     39776     39779
     39734     39732     39776     39777     39734     39732     39776     39778
     39734     39732     39776     39779     39735     39738     39741     39742
     39735     39738     39741     39743     39735     39738     39741     39744
     39736     39735     39738     39739     39736     39735     39738     39740
     39736     39735     39738     39741     39737     39735     39738     39739
     39737     39735     39738     39740     39737     39735     39738     39741
     39738     39741     39744     39745     39738     39741     39744     39746
     39738     39741     39744     39747     39739     39738     39741     39742
     39739     39738     39741     39743     39739     39738     39741     39744
     39740     39738     39741     39742     39740     39738     39741     39743
     39740     39738     39741     39744     39741     39744     39747     39748
     39741     39744     39747     39749     39741     39744     39747     39750
     39742     39741     39744     39745     39742     39741     39744     39746
     39742     39741     39744     39747     39743     39741     39744     39745
     39743     39741     39744     39746     39743     39741     39744     39747
     39744     39747     39750     39751     39744     39747     39750     39752
     39744     39747     39750     39753     39745     39744     39747     39748
     39745     39744     39747     39749     39745     39744     39747     39750
     39746     39744     39747     39748     39746     39744     39747     39749
     39746     39744     39747     39750     39747     39750     39753     39754
     39747     39750     39753     39755     39748     39747     39750     39751
     39748     39747     39750     39752     39748     39747     39750     39753
     39749     39747     39750     39751     39749     39747     39750     39752
     39749     39747     39750     39753     39750     39753     39755     39756
     39750     39753     39755     39757     39751     39750     39753     39754
     39751     39750     39753     39755     39752     39750     39753     39754
     39752     39750     39753     39755     39753     39755     39757     39758
     39753     39755     39757     39759     39753     39755     39757     39760
     39754     39753     39755     39756     39754     39753     39755     39757
     39755     39757     39760     39761     39755     39757     39760     39762
     39755     39757     39760     39763     39756     39755     39757     39758
     39756     39755     39757     39759     39756     39755     39757     39760
     39757     39760     39763     39764     39757     39760     39763     39765
     39757     39760     39763     39766     39758     39757     39760     39761
     39758     39757     39760     39762     39758     39757     39760     39763
     39759     39757     39760     39761     39759     39757     39760     39762
     39759     39757     39760     39763     39760     39763     39766     39767
     39760     39763     39766     39768     39760     39763     39766     39769
     39761     39760     39763     39764     39761     39760     39763     39765
     39761     39760     39763     39766     39762     39760     39763     39764
     39762     39760     39763     39765     39762     39760     39763     39766
     39763     39766     39769     39770     39763     39766     39769     39771
     39763     39766     39769     39772     39764     39763     39766     39767
     39764     39763     39766     39768     39764     39763     39766     39769
     39765     39763     39766     39767     39765     39763     39766     39768
     39765     39763     39766     39769     39766     39769     39772     39773
     39766     39769     39772     39774     39766     39769     39772     39775
     39767     39766     39769     39770     39767     39766     39769     39771
     39767     39766     39769     39772     39768     39766     39769     39770
     39768     39766     39769     39771     39768     39766     39769     39772
     39770     39769     39772     39773     39770     39769     39772     39774
     39770     39769     39772     39775     39771     39769     39772     39773
     39771     39769     39772     39774     39771     39769     39772     39775
     39776     39779     39782     39783     39776     39779     39782     39784
     39776     39779     39782     39785     39777     39776     39779     39780
     39777     39776     39779     39781     39777     39776     39779     39782
     39778     39776     39779     39780     39778     39776     39779     39781
     39778     39776     39779     39782     39779     39782     39785     39786
     39779     39782     39785     39787     39779     39782     39785     39788
     39780     39779     39782     39783     39780     39779     39782     39784
     39780     39779     39782     39785     39781     39779     39782     39783
     39781     39779     39782     39784     39781     39779     39782     39785
     39782     39785     39788     39789     39782     39785     39788     39790
     39782     39785     39788     39791     39783     39782     39785     39786
     39783     39782     39785     39787     39783     39782     39785     39788
     39784     39782     39785     39786     39784     39782     39785     39787
     39784     39782     39785     39788     39785     39788     39791     39792
     39785     39788     39791     39793     39785     39788     39791     39794
     39786     39785     39788     39789     39786     39785     39788     39790
     39786     39785     39788     39791     39787     39785     39788     39789
     39787     39785     39788     39790     39787     39785     39788     39791
     39788     39791     39794     39795     39788     39791     39794     39796
     39788     39791     39794     39797     39789     39788     39791     39792
     39789     39788     39791     39793     39789     39788     39791     39794
     39790     39788     39791     39792     39790     39788     39791     39793
     39790     39788     39791     39794     39791     39794     39797     39798
     39791     39794     39797     39799     39791     39794     39797     39800
     39792     39791     39794     39795     39792     39791     39794     39796
     39792     39791     39794     39797     39793     39791     39794     39795
     39793     39791     39794     39796     39793     39791     39794     39797
     39794     39797     39800     39801     39794     39797     39800     39802
     39794     39797     39800     39803     39795     39794     39797     39798
     39795     39794     39797     39799     39795     39794     39797     39800
     39796     39794     39797     39798     39796     39794     39797     39799
     39796     39794     39797     39800     39797     39800     39803     39804
     39797     39800     39803     39805     39797     39800     39803     39806
     39798     39797     39800     39801     39798     39797     39800     39802
     39798     39797     39800     39803     39799     39797     39800     39801
     39799     39797     39800     39802     39799     39797     39800     39803
     39800     39803     39806     39807     39800     39803     39806     39808
     39800     39803     39806     39809     39801     39800     39803     39804
     39801     39800     39803     39805     39801     39800     39803     39806
     39802     39800     39803     39804     39802     39800     39803     39805
     39802     39800     39803     39806     39803     39806     39809     39810
     39803     39806     39809     39811     39803     39806     39809     39812
     39804     39803     39806     39807     39804     39803     39806     39808
     39804     39803     39806     39809     39805     39803     39806     39807
     39805     39803     39806     39808     39805     39803     39806     39809
     39806     39809     39812     39813     39806     39809     39812     39814
     39806     39809     39812     39815     39807     39806     39809     39810
     39807     39806     39809     39811     39807     39806     39809     39812
     39808     39806     39809     39810     39808     39806     39809     39811
     39808     39806     39809     39812     39809     39812     39815     39816
     39809     39812     39815     39817     39809     39812     39815     39818
     39810     39809     39812     39813     39810     39809     39812     39814
     39810     39809     39812     39815     39811     39809     39812     39813
     39811     39809     39812     39814     39811     39809     39812     39815
     39813     39812     39815     39816     39813     39812     39815     39817
     39813     39812     39815     39818     39814     39812     39815     39816
     39814     39812     39815     39817     39814     39812     39815     39818
     39819     39823     39826     39827     39819     39823     39826     39828
     39819     39823     39826     39833     39820     39819     39823     39824
     39820     39819     39823     39825     39820     39819     39823     39826
     39821     39819     39823     39824     39821     39819     39823     39825
     39821     39819     39823     39826     39822     39819     39823     39824
     39822     39819     39823     39825     39822     39819     39823     39826
     39823     39826     39833     39829     39824     39823     39826     39827
     39824     39823     39826     39828     39824     39823     39826     39833
     39825     39823     39826     39827     39825     39823     39826     39828
     39825     39823     39826     39833     39826     39833     39829     39830
     39826     39833     39829     39831     39826     39833     39829     39832
     39827     39826     39833     39829     39828     39826     39833     39829
     39829     39832     39834     39835     39829     39832     39834     39836
     39829     39832     39834     39837     39830     39829     39832     39834
     39831     39829     39832     39834     39832     39834     39837     39838
     39832     39834     39837     39839     39832     39834     39837     39845
     39833     39829     39832     39834     39834     39837     39839     39840
     39834     39837     39845     39846     39834     39837     39845     39847
     39834     39837     39845     39848     39835     39834     39837     39838
     39835     39834     39837     39839     39835     39834     39837     39845
     39836     39834     39837     39838     39836     39834     39837     39839
     39836     39834     39837     39845     39837     39839     39840     39841
     39837     39839     39840     39842     39837     39845     39848     39849
     39838     39837     39839     39840     39838     39837     39845     39846
     39838     39837     39845     39847     39838     39837     39845     39848
     39839     39837     39845     39846     39839     39837     39845     39847
     39839     39837     39845     39848     39839     39840     39842     39843
     39839     39840     39842     39844     39839     39840     39842     39854
     39840     39839     39837     39845     39840     39842     39854     39855
     39840     39842     39854     39856     39840     39842     39854     39857
     39841     39840     39842     39843     39841     39840     39842     39844
     39841     39840     39842     39854     39842     39854     39857     39858
     39842     39854     39857     39859     39842     39854     39857     39860
     39843     39842     39854     39855     39843     39842     39854     39856
     39843     39842     39854     39857     39844     39842     39854     39855
     39844     39842     39854     39856     39844     39842     39854     39857
     39845     39848     39849     39850     39845     39848     39849     39851
     39846     39845     39848     39849     39847     39845     39848     39849
     39848     39849     39851     39852     39848     39849     39851     39853
     39848     39849     39851     39895     39849     39851     39895     39896
     39849     39851     39895     39897     39849     39851     39895     39898
     39850     39849     39851     39852     39850     39849     39851     39853
     39850     39849     39851     39895     39851     39895     39898     39899
     39851     39895     39898     39900     39851     39895     39898     39901
     39852     39851     39895     39896     39852     39851     39895     39897
     39852     39851     39895     39898     39853     39851     39895     39896
     39853     39851     39895     39897     39853     39851     39895     39898
     39854     39857     39860     39861     39854     39857     39860     39862
     39854     39857     39860     39863     39855     39854     39857     39858
     39855     39854     39857     39859     39855     39854     39857     39860
     39856     39854     39857     39858     39856     39854     39857     39859
     39856     39854     39857     39860     39857     39860     39863     39864
     39857     39860     39863     39865     39857     39860     39863     39866
     39858     39857     39860     39861     39858     39857     39860     39862
     39858     39857     39860     39863     39859     39857     39860     39861
     39859     39857     39860     39862     39859     39857     39860     39863
     39860     39863     39866     39867     39860     39863     39866     39868
     39860     39863     39866     39869     39861     39860     39863     39864
     39861     39860     39863     39865     39861     39860     39863     39866
     39862     39860     39863     39864     39862     39860     39863     39865
     39862     39860     39863     39866     39863     39866     39869     39870
     39863     39866     39869     39871     39863     39866     39869     39872
     39864     39863     39866     39867     39864     39863     39866     39868
     39864     39863     39866     39869     39865     39863     39866     39867
     39865     39863     39866     39868     39865     39863     39866     39869
     39866     39869     39872     39873     39866     39869     39872     39874
     39867     39866     39869     39870     39867     39866     39869     39871
     39867     39866     39869     39872     39868     39866     39869     39870
     39868     39866     39869     39871     39868     39866     39869     39872
     39869     39872     39874     39875     39869     39872     39874     39876
     39870     39869     39872     39873     39870     39869     39872     39874
     39871     39869     39872     39873     39871     39869     39872     39874
     39872     39874     39876     39877     39872     39874     39876     39878
     39872     39874     39876     39879     39873     39872     39874     39875
     39873     39872     39874     39876     39874     39876     39879     39880
     39874     39876     39879     39881     39874     39876     39879     39882
     39875     39874     39876     39877     39875     39874     39876     39878
     39875     39874     39876     39879     39876     39879     39882     39883
     39876     39879     39882     39884     39876     39879     39882     39885
     39877     39876     39879     39880     39877     39876     39879     39881
     39877     39876     39879     39882     39878     39876     39879     39880
     39878     39876     39879     39881     39878     39876     39879     39882
     39879     39882     39885     39886     39879     39882     39885     39887
     39879     39882     39885     39888     39880     39879     39882     39883
     39880     39879     39882     39884     39880     39879     39882     39885
     39881     39879     39882     39883     39881     39879     39882     39884
     39881     39879     39882     39885     39882     39885     39888     39889
     39882     39885     39888     39890     39882     39885     39888     39891
     39883     39882     39885     39886     39883     39882     39885     39887
     39883     39882     39885     39888     39884     39882     39885     39886
     39884     39882     39885     39887     39884     39882     39885     39888
     39885     39888     39891     39892     39885     39888     39891     39893
     39885     39888     39891     39894     39886     39885     39888     39889
     39886     39885     39888     39890     39886     39885     39888     39891
     39887     39885     39888     39889     39887     39885     39888     39890
     39887     39885     39888     39891     39889     39888     39891     39892
     39889     39888     39891     39893     39889     39888     39891     39894
     39890     39888     39891     39892     39890     39888     39891     39893
     39890     39888     39891     39894     39895     39898     39901     39902
     39895     39898     39901     39903     39895     39898     39901     39904
     39896     39895     39898     39899     39896     39895     39898     39900
     39896     39895     39898     39901     39897     39895     39898     39899
     39897     39895     39898     39900     39897     39895     39898     39901
     39898     39901     39904     39905     39898     39901     39904     39906
     39898     39901     39904     39907     39899     39898     39901     39902
     39899     39898     39901     39903     39899     39898     39901     39904
     39900     39898     39901     39902     39900     39898     39901     39903
     39900     39898     39901     39904     39901     39904     39907     39908
     39901     39904     39907     39909     39901     39904     39907     39910
     39902     39901     39904     39905     39902     39901     39904     39906
     39902     39901     39904     39907     39903     39901     39904     39905
     39903     39901     39904     39906     39903     39901     39904     39907
     39904     39907     39910     39911     39904     39907     39910     39912
     39904     39907     39910     39913     39905     39904     39907     39908
     39905     39904     39907     39909     39905     39904     39907     39910
     39906     39904     39907     39908     39906     39904     39907     39909
     39906     39904     39907     39910     39907     39910     39913     39914
     39907     39910     39913     39915     39907     39910     39913     39916
     39908     39907     39910     39911     39908     39907     39910     39912
     39908     39907     39910     39913     39909     39907     39910     39911
     39909     39907     39910     39912     39909     39907     39910     39913
     39910     39913     39916     39917     39910     39913     39916     39918
     39910     39913     39916     39919     39911     39910     39913     39914
     39911     39910     39913     39915     39911     39910     39913     39916
     39912     39910     39913     39914     39912     39910     39913     39915
     39912     39910     39913     39916     39913     39916     39919     39920
     39913     39916     39919     39921     39913     39916     39919     39922
     39914     39913     39916     39917     39914     39913     39916     39918
     39914     39913     39916     39919     39915     39913     39916     39917
     39915     39913     39916     39918     39915     39913     39916     39919
     39916     39919     39922     39923     39916     39919     39922     39924
     39916     39919     39922     39925     39917     39916     39919     39920
     39917     39916     39919     39921     39917     39916     39919     39922
     39918     39916     39919     39920     39918     39916     39919     39921
     39918     39916     39919     39922     39919     39922     39925     39926
     39919     39922     39925     39927     39919     39922     39925     39928
     39920     39919     39922     39923     39920     39919     39922     39924
     39920     39919     39922     39925     39921     39919     39922     39923
     39921     39919     39922     39924     39921     39919     39922     39925
     39922     39925     39928     39929     39922     39925     39928     39930
     39922     39925     39928     39931     39923     39922     39925     39926
     39923     39922     39925     39927     39923     39922     39925     39928
     39924     39922     39925     39926     39924     39922     39925     39927
     39924     39922     39925     39928     39925     39928     39931     39932
     39925     39928     39931     39933     39925     39928     39931     39934
     39926     39925     39928     39929     39926     39925     39928     39930
     39926     39925     39928     39931     39927     39925     39928     39929
     39927     39925     39928     39930     39927     39925     39928     39931
     39928     39931     39934     39935     39928     39931     39934     39936
     39928     39931     39934     39937     39929     39928     39931     39932
     39929     39928     39931     39933     39929     39928     39931     39934
     39930     39928     39931     39932     39930     39928     39931     39933
     39930     39928     39931     39934     39932     39931     39934     39935
     39932     39931     39934     39936     39932     39931     39934     39937
     39933     39931     39934     39935     39933     39931     39934     39936
     39933     39931     39934     39937     39938     39943     39945     39946
     39938     39943     39947     39948     39938     39943     39947     39949
     39938     39943     39947     39953     39939     39938     39941     39942
     39939     39938     39943     39944     39939     39938     39943     39945
     39939     39938     39943     39947     39940     39938     39941     39942
     39940     39938     39943     39944     39940     39938     39943     39945
     39940     39938     39943     39947     39941     39938     39943     39944
     39941     39938     39943     39945     39941     39938     39943     39947
     39942     39941     39938     39943     39943     39947     39953     39950
     39944     39943     39945     39946     39944     39943     39947     39948
     39944     39943     39947     39949     39944     39943     39947     39953
     39945     39943     39947     39948     39945     39943     39947     39949
     39945     39943     39947     39953     39946     39945     39943     39947
     39947     39953     39950     39951     39947     39953     39950     39952
     39947     39953     39950     39954     39948     39947     39953     39950
     39949     39947     39953     39950     39950     39954     39955     39956
     39950     39954     39955     39957     39950     39954     39955     39958
     39951     39950     39954     39955     39952     39950     39954     39955
     39953     39950     39954     39955     39954     39955     39958     39959
     39954     39955     39958     39960     39954     39955     39958     39966
     39955     39958     39960     39961     39955     39958     39966     39967
     39955     39958     39966     39968     39955     39958     39966     39969
     39956     39955     39958     39959     39956     39955     39958     39960
     39956     39955     39958     39966     39957     39955     39958     39959
     39957     39955     39958     39960     39957     39955     39958     39966
     39958     39960     39961     39962     39958     39960     39961     39963
     39958     39966     39969     39970     39959     39958     39960     39961
     39959     39958     39966     39967     39959     39958     39966     39968
     39959     39958     39966     39969     39960     39958     39966     39967
     39960     39958     39966     39968     39960     39958     39966     39969
     39960     39961     39963     39964     39960     39961     39963     39965
     39960     39961     39963     39975     39961     39960     39958     39966
     39961     39963     39975     39976     39961     39963     39975     39977
     39961     39963     39975     39978     39962     39961     39963     39964
     39962     39961     39963     39965     39962     39961     39963     39975
     39963     39975     39978     39979     39963     39975     39978     39980
     39963     39975     39978     39981     39964     39963     39975     39976
     39964     39963     39975     39977     39964     39963     39975     39978
     39965     39963     39975     39976     39965     39963     39975     39977
     39965     39963     39975     39978     39966     39969     39970     39971
     39966     39969     39970     39972     39967     39966     39969     39970
     39968     39966     39969     39970     39969     39970     39972     39973
     39969     39970     39972     39974     39969     39970     39972     40022
     39970     39972     40022     40023     39970     39972     40022     40024
     39970     39972     40022     40025     39971     39970     39972     39973
     39971     39970     39972     39974     39971     39970     39972     40022
     39972     40022     40025     40026     39972     40022     40025     40027
     39972     40022     40025     40028     39973     39972     40022     40023
     39973     39972     40022     40024     39973     39972     40022     40025
     39974     39972     40022     40023     39974     39972     40022     40024
     39974     39972     40022     40025     39975     39978     39981     39982
     39975     39978     39981     39983     39975     39978     39981     39984
     39976     39975     39978     39979     39976     39975     39978     39980
     39976     39975     39978     39981     39977     39975     39978     39979
     39977     39975     39978     39980     39977     39975     39978     39981
     39978     39981     39984     39985     39978     39981     39984     39986
     39978     39981     39984     39987     39979     39978     39981     39982
     39979     39978     39981     39983     39979     39978     39981     39984
     39980     39978     39981     39982     39980     39978     39981     39983
     39980     39978     39981     39984     39981     39984     39987     39988
     39981     39984     39987     39989     39981     39984     39987     39990
     39982     39981     39984     39985     39982     39981     39984     39986
     39982     39981     39984     39987     39983     39981     39984     39985
     39983     39981     39984     39986     39983     39981     39984     39987
     39984     39987     39990     39991     39984     39987     39990     39992
     39984     39987     39990     39993     39985     39984     39987     39988
     39985     39984     39987     39989     39985     39984     39987     39990
     39986     39984     39987     39988     39986     39984     39987     39989
     39986     39984     39987     39990     39987     39990     39993     39994
     39987     39990     39993     39995     39987     39990     39993     39996
     39988     39987     39990     39991     39988     39987     39990     39992
     39988     39987     39990     39993     39989     39987     39990     39991
     39989     39987     39990     39992     39989     39987     39990     39993
     39990     39993     39996     39997     39990     39993     39996     39998
     39990     39993     39996     39999     39991     39990     39993     39994
     39991     39990     39993     39995     39991     39990     39993     39996
     39992     39990     39993     39994     39992     39990     39993     39995
     39992     39990     39993     39996     39993     39996     39999     40000
     39993     39996     39999     40001     39994     39993     39996     39997
     39994     39993     39996     39998     39994     39993     39996     39999
     39995     39993     39996     39997     39995     39993     39996     39998
     39995     39993     39996     39999     39996     39999     40001     40002
     39996     39999     40001     40003     39997     39996     39999     40000
     39997     39996     39999     40001     39998     39996     39999     40000
     39998     39996     39999     40001     39999     40001     40003     40004
     39999     40001     40003     40005     39999     40001     40003     40006
     40000     39999     40001     40002     40000     39999     40001     40003
     40001     40003     40006     40007     40001     40003     40006     40008
     40001     40003     40006     40009     40002     40001     40003     40004
     40002     40001     40003     40005     40002     40001     40003     40006
     40003     40006     40009     40010     40003     40006     40009     40011
     40003     40006     40009     40012     40004     40003     40006     40007
     40004     40003     40006     40008     40004     40003     40006     40009
     40005     40003     40006     40007     40005     40003     40006     40008
     40005     40003     40006     40009     40006     40009     40012     40013
     40006     40009     40012     40014     40006     40009     40012     40015
     40007     40006     40009     40010     40007     40006     40009     40011
     40007     40006     40009     40012     40008     40006     40009     40010
     40008     40006     40009     40011     40008     40006     40009     40012
     40009     40012     40015     40016     40009     40012     40015     40017
     40009     40012     40015     40018     40010     40009     40012     40013
     40010     40009     40012     40014     40010     40009     40012     40015
     40011     40009     40012     40013     40011     40009     40012     40014
     40011     40009     40012     40015     40012     40015     40018     40019
     40012     40015     40018     40020     40012     40015     40018     40021
     40013     40012     40015     40016     40013     40012     40015     40017
     40013     40012     40015     40018     40014     40012     40015     40016
     40014     40012     40015     40017     40014     40012     40015     40018
     40016     40015     40018     40019     40016     40015     40018     40020
     40016     40015     40018     40021     40017     40015     40018     40019
     40017     40015     40018     40020     40017     40015     40018     40021
     40022     40025     40028     40029     40022     40025     40028     40030
     40022     40025     40028     40031     40023     40022     40025     40026
     40023     40022     40025     40027     40023     40022     40025     40028
     40024     40022     40025     40026     40024     40022     40025     40027
     40024     40022     40025     40028     40025     40028     40031     40032
     40025     40028     40031     40033     40025     40028     40031     40034
     40026     40025     40028     40029     40026     40025     40028     40030
     40026     40025     40028     40031     40027     40025     40028     40029
     40027     40025     40028     40030     40027     40025     40028     40031
     40028     40031     40034     40035     40028     40031     40034     40036
     40028     40031     40034     40037     40029     40028     40031     40032
     40029     40028     40031     40033     40029     40028     40031     40034
     40030     40028     40031     40032     40030     40028     40031     40033
     40030     40028     40031     40034     40031     40034     40037     40038
     40031     40034     40037     40039     40031     40034     40037     40040
     40032     40031     40034     40035     40032     40031     40034     40036
     40032     40031     40034     40037     40033     40031     40034     40035
     40033     40031     40034     40036     40033     40031     40034     40037
     40034     40037     40040     40041     40034     40037     40040     40042
     40034     40037     40040     40043     40035     40034     40037     40038
     40035     40034     40037     40039     40035     40034     40037     40040
     40036     40034     40037     40038     40036     40034     40037     40039
     40036     40034     40037     40040     40037     40040     40043     40044
     40037     40040     40043     40045     40037     40040     40043     40046
     40038     40037     40040     40041     40038     40037     40040     40042
     40038     40037     40040     40043     40039     40037     40040     40041
     40039     40037     40040     40042     40039     40037     40040     40043
     40040     40043     40046     40047     40040     40043     40046     40048
     40040     40043     40046     40049     40041     40040     40043     40044
     40041     40040     40043     40045     40041     40040     40043     40046
     40042     40040     40043     40044     40042     40040     40043     40045
     40042     40040     40043     40046     40043     40046     40049     40050
     40043     40046     40049     40051     40043     40046     40049     40052
     40044     40043     40046     40047     40044     40043     40046     40048
     40044     40043     40046     40049     40045     40043     40046     40047
     40045     40043     40046     40048     40045     40043     40046     40049
     40046     40049     40052     40053     40046     40049     40052     40054
     40046     40049     40052     40055     40047     40046     40049     40050
     40047     40046     40049     40051     40047     40046     40049     40052
     40048     40046     40049     40050     40048     40046     40049     40051
     40048     40046     40049     40052     40049     40052     40055     40056
     40049     40052     40055     40057     40049     40052     40055     40058
     40050     40049     40052     40053     40050     40049     40052     40054
     40050     40049     40052     40055     40051     40049     40052     40053
     40051     40049     40052     40054     40051     40049     40052     40055
     40052     40055     40058     40059     40052     40055     40058     40060
     40052     40055     40058     40061     40053     40052     40055     40056
     40053     40052     40055     40057     40053     40052     40055     40058
     40054     40052     40055     40056     40054     40052     40055     40057
     40054     40052     40055     40058     40055     40058     40061     40062
     40055     40058     40061     40063     40055     40058     40061     40064
     40056     40055     40058     40059     40056     40055     40058     40060
     40056     40055     40058     40061     40057     40055     40058     40059
     40057     40055     40058     40060     40057     40055     40058     40061
     40059     40058     40061     40062     40059     40058     40061     40063
     40059     40058     40061     40064     40060     40058     40061     40062
     40060     40058     40061     40063     40060     40058     40061     40064
     40065     40069     40072     40073     40065     40069     40072     40074
     40065     40069     40072     40079     40066     40065     40069     40070
     40066     40065     40069     40071     40066     40065     40069     40072
     40067     40065     40069     40070     40067     40065     40069     40071
     40067     40065     40069     40072     40068     40065     40069     40070
     40068     40065     40069     40071     40068     40065     40069     40072
     40069     40072     40079     40075     40070     40069     40072     40073
     40070     40069     40072     40074     40070     40069     40072     40079
     40071     40069     40072     40073     40071     40069     40072     40074
     40071     40069     40072     40079     40072     40079     40075     40076
     40072     40079     40075     40077     40072     40079     40075     40078
     40073     40072     40079     40075     40074     40072     40079     40075
     40075     40078     40080     40081     40075     40078     40080     40082
     40075     40078     40080     40083     40076     40075     40078     40080
     40077     40075     40078     40080     40078     40080     40083     40084
     40078     40080     40083     40085     40078     40080     40083     40091
     40079     40075     40078     40080     40080     40083     40085     40086
     40080     40083     40091     40092     40080     40083     40091     40093
     40080     40083     40091     40094     40081     40080     40083     40084
     40081     40080     40083     40085     40081     40080     40083     40091
     40082     40080     40083     40084     40082     40080     40083     40085
     40082     40080     40083     40091     40083     40085     40086     40087
     40083     40085     40086     40088     40083     40091     40094     40095
     40084     40083     40085     40086     40084     40083     40091     40092
     40084     40083     40091     40093     40084     40083     40091     40094
     40085     40083     40091     40092     40085     40083     40091     40093
     40085     40083     40091     40094     40085     40086     40088     40089
     40085     40086     40088     40090     40085     40086     40088     40100
     40086     40085     40083     40091     40086     40088     40100     40101
     40086     40088     40100     40102     40086     40088     40100     40103
     40087     40086     40088     40089     40087     40086     40088     40090
     40087     40086     40088     40100     40088     40100     40103     40104
     40088     40100     40103     40105     40088     40100     40103     40106
     40089     40088     40100     40101     40089     40088     40100     40102
     40089     40088     40100     40103     40090     40088     40100     40101
     40090     40088     40100     40102     40090     40088     40100     40103
     40091     40094     40095     40096     40091     40094     40095     40097
     40092     40091     40094     40095     40093     40091     40094     40095
     40094     40095     40097     40098     40094     40095     40097     40099
     40094     40095     40097     40141     40095     40097     40141     40142
     40095     40097     40141     40143     40095     40097     40141     40144
     40096     40095     40097     40098     40096     40095     40097     40099
     40096     40095     40097     40141     40097     40141     40144     40145
     40097     40141     40144     40146     40097     40141     40144     40147
     40098     40097     40141     40142     40098     40097     40141     40143
     40098     40097     40141     40144     40099     40097     40141     40142
     40099     40097     40141     40143     40099     40097     40141     40144
     40100     40103     40106     40107     40100     40103     40106     40108
     40100     40103     40106     40109     40101     40100     40103     40104
     40101     40100     40103     40105     40101     40100     40103     40106
     40102     40100     40103     40104     40102     40100     40103     40105
     40102     40100     40103     40106     40103     40106     40109     40110
     40103     40106     40109     40111     40103     40106     40109     40112
     40104     40103     40106     40107     40104     40103     40106     40108
     40104     40103     40106     40109     40105     40103     40106     40107
     40105     40103     40106     40108     40105     40103     40106     40109
     40106     40109     40112     40113     40106     40109     40112     40114
     40106     40109     40112     40115     40107     40106     40109     40110
     40107     40106     40109     40111     40107     40106     40109     40112
     40108     40106     40109     40110     40108     40106     40109     40111
     40108     40106     40109     40112     40109     40112     40115     40116
     40109     40112     40115     40117     40109     40112     40115     40118
     40110     40109     40112     40113     40110     40109     40112     40114
     40110     40109     40112     40115     40111     40109     40112     40113
     40111     40109     40112     40114     40111     40109     40112     40115
     40112     40115     40118     40119     40112     40115     40118     40120
     40113     40112     40115     40116     40113     40112     40115     40117
     40113     40112     40115     40118     40114     40112     40115     40116
     40114     40112     40115     40117     40114     40112     40115     40118
     40115     40118     40120     40121     40115     40118     40120     40122
     40116     40115     40118     40119     40116     40115     40118     40120
     40117     40115     40118     40119     40117     40115     40118     40120
     40118     40120     40122     40123     40118     40120     40122     40124
     40118     40120     40122     40125     40119     40118     40120     40121
     40119     40118     40120     40122     40120     40122     40125     40126
     40120     40122     40125     40127     40120     40122     40125     40128
     40121     40120     40122     40123     40121     40120     40122     40124
     40121     40120     40122     40125     40122     40125     40128     40129
     40122     40125     40128     40130     40122     40125     40128     40131
     40123     40122     40125     40126     40123     40122     40125     40127
     40123     40122     40125     40128     40124     40122     40125     40126
     40124     40122     40125     40127     40124     40122     40125     40128
     40125     40128     40131     40132     40125     40128     40131     40133
     40125     40128     40131     40134     40126     40125     40128     40129
     40126     40125     40128     40130     40126     40125     40128     40131
     40127     40125     40128     40129     40127     40125     40128     40130
     40127     40125     40128     40131     40128     40131     40134     40135
     40128     40131     40134     40136     40128     40131     40134     40137
     40129     40128     40131     40132     40129     40128     40131     40133
     40129     40128     40131     40134     40130     40128     40131     40132
     40130     40128     40131     40133     40130     40128     40131     40134
     40131     40134     40137     40138     40131     40134     40137     40139
     40131     40134     40137     40140     40132     40131     40134     40135
     40132     40131     40134     40136     40132     40131     40134     40137
     40133     40131     40134     40135     40133     40131     40134     40136
     40133     40131     40134     40137     40135     40134     40137     40138
     40135     40134     40137     40139     40135     40134     40137     40140
     40136     40134     40137     40138     40136     40134     40137     40139
     40136     40134     40137     40140     40141     40144     40147     40148
     40141     40144     40147     40149     40141     40144     40147     40150
     40142     40141     40144     40145     40142     40141     40144     40146
     40142     40141     40144     40147     40143     40141     40144     40145
     40143     40141     40144     40146     40143     40141     40144     40147
     40144     40147     40150     40151     40144     40147     40150     40152
     40144     40147     40150     40153     40145     40144     40147     40148
     40145     40144     40147     40149     40145     40144     40147     40150
     40146     40144     40147     40148     40146     40144     40147     40149
     40146     40144     40147     40150     40147     40150     40153     40154
     40147     40150     40153     40155     40147     40150     40153     40156
     40148     40147     40150     40151     40148     40147     40150     40152
     40148     40147     40150     40153     40149     40147     40150     40151
     40149     40147     40150     40152     40149     40147     40150     40153
     40150     40153     40156     40157     40150     40153     40156     40158
     40150     40153     40156     40159     40151     40150     40153     40154
     40151     40150     40153     40155     40151     40150     40153     40156
     40152     40150     40153     40154     40152     40150     40153     40155
     40152     40150     40153     40156     40153     40156     40159     40160
     40153     40156     40159     40161     40153     40156     40159     40162
     40154     40153     40156     40157     40154     40153     40156     40158
     40154     40153     40156     40159     40155     40153     40156     40157
     40155     40153     40156     40158     40155     40153     40156     40159
     40156     40159     40162     40163     40156     40159     40162     40164
     40156     40159     40162     40165     40157     40156     40159     40160
     40157     40156     40159     40161     40157     40156     40159     40162
     40158     40156     40159     40160     40158     40156     40159     40161
     40158     40156     40159     40162     40159     40162     40165     40166
     40159     40162     40165     40167     40159     40162     40165     40168
     40160     40159     40162     40163     40160     40159     40162     40164
     40160     40159     40162     40165     40161     40159     40162     40163
     40161     40159     40162     40164     40161     40159     40162     40165
     40162     40165     40168     40169     40162     40165     40168     40170
     40162     40165     40168     40171     40163     40162     40165     40166
     40163     40162     40165     40167     40163     40162     40165     40168
     40164     40162     40165     40166     40164     40162     40165     40167
     40164     40162     40165     40168     40165     40168     40171     40172
     40165     40168     40171     40173     40165     40168     40171     40174
     40166     40165     40168     40169     40166     40165     40168     40170
     40166     40165     40168     40171     40167     40165     40168     40169
     40167     40165     40168     40170     40167     40165     40168     40171
     40168     40171     40174     40175     40168     40171     40174     40176
     40168     40171     40174     40177     40169     40168     40171     40172
     40169     40168     40171     40173     40169     40168     40171     40174
     40170     40168     40171     40172     40170     40168     40171     40173
     40170     40168     40171     40174     40171     40174     40177     40178
     40171     40174     40177     40179     40171     40174     40177     40180
     40172     40171     40174     40175     40172     40171     40174     40176
     40172     40171     40174     40177     40173     40171     40174     40175
     40173     40171     40174     40176     40173     40171     40174     40177
     40174     40177     40180     40181     40174     40177     40180     40182
     40174     40177     40180     40183     40175     40174     40177     40178
     40175     40174     40177     40179     40175     40174     40177     40180
     40176     40174     40177     40178     40176     40174     40177     40179
     40176     40174     40177     40180     40178     40177     40180     40181
     40178     40177     40180     40182     40178     40177     40180     40183
     40179     40177     40180     40181     40179     40177     40180     40182
     40179     40177     40180     40183     40184     40188     40191     40192
     40184     40188     40191     40193     40184     40188     40191     40198
     40185     40184     40188     40189     40185     40184     40188     40190
     40185     40184     40188     40191     40186     40184     40188     40189
     40186     40184     40188     40190     40186     40184     40188     40191
     40187     40184     40188     40189     40187     40184     40188     40190
     40187     40184     40188     40191     40188     40191     40198     40194
     40189     40188     40191     40192     40189     40188     40191     40193
     40189     40188     40191     40198     40190     40188     40191     40192
     40190     40188     40191     40193     40190     40188     40191     40198
     40191     40198     40194     40195     40191     40198     40194     40196
     40191     40198     40194     40197     40192     40191     40198     40194
     40193     40191     40198     40194     40194     40197     40199     40200
     40194     40197     40199     40201     40194     40197     40199     40202
     40195     40194     40197     40199     40196     40194     40197     40199
     40197     40199     40202     40203     40197     40199     40202     40204
     40197     40199     40202     40210     40198     40194     40197     40199
     40199     40202     40204     40205     40199     40202     40210     40211
     40199     40202     40210     40212     40199     40202     40210     40213
     40200     40199     40202     40203     40200     40199     40202     40204
     40200     40199     40202     40210     40201     40199     40202     40203
     40201     40199     40202     40204     40201     40199     40202     40210
     40202     40204     40205     40206     40202     40204     40205     40207
     40202     40210     40213     40214     40203     40202     40204     40205
     40203     40202     40210     40211     40203     40202     40210     40212
     40203     40202     40210     40213     40204     40202     40210     40211
     40204     40202     40210     40212     40204     40202     40210     40213
     40204     40205     40207     40208     40204     40205     40207     40209
     40204     40205     40207     40219     40205     40204     40202     40210
     40205     40207     40219     40220     40205     40207     40219     40221
     40205     40207     40219     40222     40206     40205     40207     40208
     40206     40205     40207     40209     40206     40205     40207     40219
     40207     40219     40222     40223     40207     40219     40222     40224
     40207     40219     40222     40225     40208     40207     40219     40220
     40208     40207     40219     40221     40208     40207     40219     40222
     40209     40207     40219     40220     40209     40207     40219     40221
     40209     40207     40219     40222     40210     40213     40214     40215
     40210     40213     40214     40216     40211     40210     40213     40214
     40212     40210     40213     40214     40213     40214     40216     40217
     40213     40214     40216     40218     40213     40214     40216     40260
     40214     40216     40260     40261     40214     40216     40260     40262
     40214     40216     40260     40263     40215     40214     40216     40217
     40215     40214     40216     40218     40215     40214     40216     40260
     40216     40260     40263     40264     40216     40260     40263     40265
     40216     40260     40263     40266     40217     40216     40260     40261
     40217     40216     40260     40262     40217     40216     40260     40263
     40218     40216     40260     40261     40218     40216     40260     40262
     40218     40216     40260     40263     40219     40222     40225     40226
     40219     40222     40225     40227     40219     40222     40225     40228
     40220     40219     40222     40223     40220     40219     40222     40224
     40220     40219     40222     40225     40221     40219     40222     40223
     40221     40219     40222     40224     40221     40219     40222     40225
     40222     40225     40228     40229     40222     40225     40228     40230
     40222     40225     40228     40231     40223     40222     40225     40226
     40223     40222     40225     40227     40223     40222     40225     40228
     40224     40222     40225     40226     40224     40222     40225     40227
     40224     40222     40225     40228     40225     40228     40231     40232
     40225     40228     40231     40233     40225     40228     40231     40234
     40226     40225     40228     40229     40226     40225     40228     40230
     40226     40225     40228     40231     40227     40225     40228     40229
     40227     40225     40228     40230     40227     40225     40228     40231
     40228     40231     40234     40235     40228     40231     40234     40236
     40228     40231     40234     40237     40229     40228     40231     40232
     40229     40228     40231     40233     40229     40228     40231     40234
     40230     40228     40231     40232     40230     40228     40231     40233
     40230     40228     40231     40234     40231     40234     40237     40238
     40231     40234     40237     40239     40232     40231     40234     40235
     40232     40231     40234     40236     40232     40231     40234     40237
     40233     40231     40234     40235     40233     40231     40234     40236
     40233     40231     40234     40237     40234     40237     40239     40240
     40234     40237     40239     40241     40235     40234     40237     40238
     40235     40234     40237     40239     40236     40234     40237     40238
     40236     40234     40237     40239     40237     40239     40241     40242
     40237     40239     40241     40243     40237     40239     40241     40244
     40238     40237     40239     40240     40238     40237     40239     40241
     40239     40241     40244     40245     40239     40241     40244     40246
     40239     40241     40244     40247     40240     40239     40241     40242
     40240     40239     40241     40243     40240     40239     40241     40244
     40241     40244     40247     40248     40241     40244     40247     40249
     40241     40244     40247     40250     40242     40241     40244     40245
     40242     40241     40244     40246     40242     40241     40244     40247
     40243     40241     40244     40245     40243     40241     40244     40246
     40243     40241     40244     40247     40244     40247     40250     40251
     40244     40247     40250     40252     40244     40247     40250     40253
     40245     40244     40247     40248     40245     40244     40247     40249
     40245     40244     40247     40250     40246     40244     40247     40248
     40246     40244     40247     40249     40246     40244     40247     40250
     40247     40250     40253     40254     40247     40250     40253     40255
     40247     40250     40253     40256     40248     40247     40250     40251
     40248     40247     40250     40252     40248     40247     40250     40253
     40249     40247     40250     40251     40249     40247     40250     40252
     40249     40247     40250     40253     40250     40253     40256     40257
     40250     40253     40256     40258     40250     40253     40256     40259
     40251     40250     40253     40254     40251     40250     40253     40255
     40251     40250     40253     40256     40252     40250     40253     40254
     40252     40250     40253     40255     40252     40250     40253     40256
     40254     40253     40256     40257     40254     40253     40256     40258
     40254     40253     40256     40259     40255     40253     40256     40257
     40255     40253     40256     40258     40255     40253     40256     40259
     40260     40263     40266     40267     40260     40263     40266     40268
     40260     40263     40266     40269     40261     40260     40263     40264
     40261     40260     40263     40265     40261     40260     40263     40266
     40262     40260     40263     40264     40262     40260     40263     40265
     40262     40260     40263     40266     40263     40266     40269     40270
     40263     40266     40269     40271     40263     40266     40269     40272
     40264     40263     40266     40267     40264     40263     40266     40268
     40264     40263     40266     40269     40265     40263     40266     40267
     40265     40263     40266     40268     40265     40263     40266     40269
     40266     40269     40272     40273     40266     40269     40272     40274
     40266     40269     40272     40275     40267     40266     40269     40270
     40267     40266     40269     40271     40267     40266     40269     40272
     40268     40266     40269     40270     40268     40266     40269     40271
     40268     40266     40269     40272     40269     40272     40275     40276
     40269     40272     40275     40277     40269     40272     40275     40278
     40270     40269     40272     40273     40270     40269     40272     40274
     40270     40269     40272     40275     40271     40269     40272     40273
     40271     40269     40272     40274     40271     40269     40272     40275
     40272     40275     40278     40279     40272     40275     40278     40280
     40272     40275     40278     40281     40273     40272     40275     40276
     40273     40272     40275     40277     40273     40272     40275     40278
     40274     40272     40275     40276     40274     40272     40275     40277
     40274     40272     40275     40278     40275     40278     40281     40282
     40275     40278     40281     40283     40275     40278     40281     40284
     40276     40275     40278     40279     40276     40275     40278     40280
     40276     40275     40278     40281     40277     40275     40278     40279
     40277     40275     40278     40280     40277     40275     40278     40281
     40278     40281     40284     40285     40278     40281     40284     40286
     40278     40281     40284     40287     40279     40278     40281     40282
     40279     40278     40281     40283     40279     40278     40281     40284
     40280     40278     40281     40282     40280     40278     40281     40283
     40280     40278     40281     40284     40281     40284     40287     40288
     40281     40284     40287     40289     40281     40284     40287     40290
     40282     40281     40284     40285     40282     40281     40284     40286
     40282     40281     40284     40287     40283     40281     40284     40285
     40283     40281     40284     40286     40283     40281     40284     40287
     40284     40287     40290     40291     40284     40287     40290     40292
     40284     40287     40290     40293     40285     40284     40287     40288
     40285     40284     40287     40289     40285     40284     40287     40290
     40286     40284     40287     40288     40286     40284     40287     40289
     40286     40284     40287     40290     40287     40290     40293     40294
     40287     40290     40293     40295     40287     40290     40293     40296
     40288     40287     40290     40291     40288     40287     40290     40292
     40288     40287     40290     40293     40289     40287     40290     40291
     40289     40287     40290     40292     40289     40287     40290     40293
     40290     40293     40296     40297     40290     40293     40296     40298
     40290     40293     40296     40299     40291     40290     40293     40294
     40291     40290     40293     40295     40291     40290     40293     40296
     40292     40290     40293     40294     40292     40290     40293     40295
     40292     40290     40293     40296     40293     40296     40299     40300
     40293     40296     40299     40301     40293     40296     40299     40302
     40294     40293     40296     40297     40294     40293     40296     40298
     40294     40293     40296     40299     40295     40293     40296     40297
     40295     40293     40296     40298     40295     40293     40296     40299
     40297     40296     40299     40300     40297     40296     40299     40301
     40297     40296     40299     40302     40298     40296     40299     40300
     40298     40296     40299     40301     40298     40296     40299     40302
     40303     40307     40310     40311     40303     40307     40310     40312
     40303     40307     40310     40317     40304     40303     40307     40308
     40304     40303     40307     40309     40304     40303     40307     40310
     40305     40303     40307     40308     40305     40303     40307     40309
     40305     40303     40307     40310     40306     40303     40307     40308
     40306     40303     40307     40309     40306     40303     40307     40310
     40307     40310     40317     40313     40308     40307     40310     40311
     40308     40307     40310     40312     40308     40307     40310     40317
     40309     40307     40310     40311     40309     40307     40310     40312
     40309     40307     40310     40317     40310     40317     40313     40314
     40310     40317     40313     40315     40310     40317     40313     40316
     40311     40310     40317     40313     40312     40310     40317     40313
     40313     40316     40318     40319     40313     40316     40318     40320
     40313     40316     40318     40321     40314     40313     40316     40318
     40315     40313     40316     40318     40316     40318     40321     40322
     40316     40318     40321     40323     40316     40318     40321     40329
     40317     40313     40316     40318     40318     40321     40323     40324
     40318     40321     40329     40330     40318     40321     40329     40331
     40318     40321     40329     40332     40319     40318     40321     40322
     40319     40318     40321     40323     40319     40318     40321     40329
     40320     40318     40321     40322     40320     40318     40321     40323
     40320     40318     40321     40329     40321     40323     40324     40325
     40321     40323     40324     40326     40321     40329     40332     40333
     40322     40321     40323     40324     40322     40321     40329     40330
     40322     40321     40329     40331     40322     40321     40329     40332
     40323     40321     40329     40330     40323     40321     40329     40331
     40323     40321     40329     40332     40323     40324     40326     40327
     40323     40324     40326     40328     40323     40324     40326     40338
     40324     40323     40321     40329     40324     40326     40338     40339
     40324     40326     40338     40340     40324     40326     40338     40341
     40325     40324     40326     40327     40325     40324     40326     40328
     40325     40324     40326     40338     40326     40338     40341     40342
     40326     40338     40341     40343     40326     40338     40341     40344
     40327     40326     40338     40339     40327     40326     40338     40340
     40327     40326     40338     40341     40328     40326     40338     40339
     40328     40326     40338     40340     40328     40326     40338     40341
     40329     40332     40333     40334     40329     40332     40333     40335
     40330     40329     40332     40333     40331     40329     40332     40333
     40332     40333     40335     40336     40332     40333     40335     40337
     40332     40333     40335     40379     40333     40335     40379     40380
     40333     40335     40379     40381     40333     40335     40379     40382
     40334     40333     40335     40336     40334     40333     40335     40337
     40334     40333     40335     40379     40335     40379     40382     40383
     40335     40379     40382     40384     40335     40379     40382     40385
     40336     40335     40379     40380     40336     40335     40379     40381
     40336     40335     40379     40382     40337     40335     40379     40380
     40337     40335     40379     40381     40337     40335     40379     40382
     40338     40341     40344     40345     40338     40341     40344     40346
     40338     40341     40344     40347     40339     40338     40341     40342
     40339     40338     40341     40343     40339     40338     40341     40344
     40340     40338     40341     40342     40340     40338     40341     40343
     40340     40338     40341     40344     40341     40344     40347     40348
     40341     40344     40347     40349     40341     40344     40347     40350
     40342     40341     40344     40345     40342     40341     40344     40346
     40342     40341     40344     40347     40343     40341     40344     40345
     40343     40341     40344     40346     40343     40341     40344     40347
     40344     40347     40350     40351     40344     40347     40350     40352
     40344     40347     40350     40353     40345     40344     40347     40348
     40345     40344     40347     40349     40345     40344     40347     40350
     40346     40344     40347     40348     40346     40344     40347     40349
     40346     40344     40347     40350     40347     40350     40353     40354
     40347     40350     40353     40355     40347     40350     40353     40356
     40348     40347     40350     40351     40348     40347     40350     40352
     40348     40347     40350     40353     40349     40347     40350     40351
     40349     40347     40350     40352     40349     40347     40350     40353
     40350     40353     40356     40357     40350     40353     40356     40358
     40351     40350     40353     40354     40351     40350     40353     40355
     40351     40350     40353     40356     40352     40350     40353     40354
     40352     40350     40353     40355     40352     40350     40353     40356
     40353     40356     40358     40359     40353     40356     40358     40360
     40354     40353     40356     40357     40354     40353     40356     40358
     40355     40353     40356     40357     40355     40353     40356     40358
     40356     40358     40360     40361     40356     40358     40360     40362
     40356     40358     40360     40363     40357     40356     40358     40359
     40357     40356     40358     40360     40358     40360     40363     40364
     40358     40360     40363     40365     40358     40360     40363     40366
     40359     40358     40360     40361     40359     40358     40360     40362
     40359     40358     40360     40363     40360     40363     40366     40367
     40360     40363     40366     40368     40360     40363     40366     40369
     40361     40360     40363     40364     40361     40360     40363     40365
     40361     40360     40363     40366     40362     40360     40363     40364
     40362     40360     40363     40365     40362     40360     40363     40366
     40363     40366     40369     40370     40363     40366     40369     40371
     40363     40366     40369     40372     40364     40363     40366     40367
     40364     40363     40366     40368     40364     40363     40366     40369
     40365     40363     40366     40367     40365     40363     40366     40368
     40365     40363     40366     40369     40366     40369     40372     40373
     40366     40369     40372     40374     40366     40369     40372     40375
     40367     40366     40369     40370     40367     40366     40369     40371
     40367     40366     40369     40372     40368     40366     40369     40370
     40368     40366     40369     40371     40368     40366     40369     40372
     40369     40372     40375     40376     40369     40372     40375     40377
     40369     40372     40375     40378     40370     40369     40372     40373
     40370     40369     40372     40374     40370     40369     40372     40375
     40371     40369     40372     40373     40371     40369     40372     40374
     40371     40369     40372     40375     40373     40372     40375     40376
     40373     40372     40375     40377     40373     40372     40375     40378
     40374     40372     40375     40376     40374     40372     40375     40377
     40374     40372     40375     40378     40379     40382     40385     40386
     40379     40382     40385     40387     40379     40382     40385     40388
     40380     40379     40382     40383     40380     40379     40382     40384
     40380     40379     40382     40385     40381     40379     40382     40383
     40381     40379     40382     40384     40381     40379     40382     40385
     40382     40385     40388     40389     40382     40385     40388     40390
     40382     40385     40388     40391     40383     40382     40385     40386
     40383     40382     40385     40387     40383     40382     40385     40388
     40384     40382     40385     40386     40384     40382     40385     40387
     40384     40382     40385     40388     40385     40388     40391     40392
     40385     40388     40391     40393     40385     40388     40391     40394
     40386     40385     40388     40389     40386     40385     40388     40390
     40386     40385     40388     40391     40387     40385     40388     40389
     40387     40385     40388     40390     40387     40385     40388     40391
     40388     40391     40394     40395     40388     40391     40394     40396
     40388     40391     40394     40397     40389     40388     40391     40392
     40389     40388     40391     40393     40389     40388     40391     40394
     40390     40388     40391     40392     40390     40388     40391     40393
     40390     40388     40391     40394     40391     40394     40397     40398
     40391     40394     40397     40399     40391     40394     40397     40400
     40392     40391     40394     40395     40392     40391     40394     40396
     40392     40391     40394     40397     40393     40391     40394     40395
     40393     40391     40394     40396     40393     40391     40394     40397
     40394     40397     40400     40401     40394     40397     40400     40402
     40394     40397     40400     40403     40395     40394     40397     40398
     40395     40394     40397     40399     40395     40394     40397     40400
     40396     40394     40397     40398     40396     40394     40397     40399
     40396     40394     40397     40400     40397     40400     40403     40404
     40397     40400     40403     40405     40397     40400     40403     40406
     40398     40397     40400     40401     40398     40397     40400     40402
     40398     40397     40400     40403     40399     40397     40400     40401
     40399     40397     40400     40402     40399     40397     40400     40403
     40400     40403     40406     40407     40400     40403     40406     40408
     40400     40403     40406     40409     40401     40400     40403     40404
     40401     40400     40403     40405     40401     40400     40403     40406
     40402     40400     40403     40404     40402     40400     40403     40405
     40402     40400     40403     40406     40403     40406     40409     40410
     40403     40406     40409     40411     40403     40406     40409     40412
     40404     40403     40406     40407     40404     40403     40406     40408
     40404     40403     40406     40409     40405     40403     40406     40407
     40405     40403     40406     40408     40405     40403     40406     40409
     40406     40409     40412     40413     40406     40409     40412     40414
     40406     40409     40412     40415     40407     40406     40409     40410
     40407     40406     40409     40411     40407     40406     40409     40412
     40408     40406     40409     40410     40408     40406     40409     40411
     40408     40406     40409     40412     40409     40412     40415     40416
     40409     40412     40415     40417     40409     40412     40415     40418
     40410     40409     40412     40413     40410     40409     40412     40414
     40410     40409     40412     40415     40411     40409     40412     40413
     40411     40409     40412     40414     40411     40409     40412     40415
     40412     40415     40418     40419     40412     40415     40418     40420
     40412     40415     40418     40421     40413     40412     40415     40416
     40413     40412     40415     40417     40413     40412     40415     40418
     40414     40412     40415     40416     40414     40412     40415     40417
     40414     40412     40415     40418     40416     40415     40418     40419
     40416     40415     40418     40420     40416     40415     40418     40421
     40417     40415     40418     40419     40417     40415     40418     40420
     40417     40415     40418     40421     40422     40426     40429     40430
     40422     40426     40429     40431     40422     40426     40429     40436
     40423     40422     40426     40427     40423     40422     40426     40428
     40423     40422     40426     40429     40424     40422     40426     40427
     40424     40422     40426     40428     40424     40422     40426     40429
     40425     40422     40426     40427     40425     40422     40426     40428
     40425     40422     40426     40429     40426     40429     40436     40432
     40427     40426     40429     40430     40427     40426     40429     40431
     40427     40426     40429     40436     40428     40426     40429     40430
     40428     40426     40429     40431     40428     40426     40429     40436
     40429     40436     40432     40433     40429     40436     40432     40434
     40429     40436     40432     40435     40430     40429     40436     40432
     40431     40429     40436     40432     40432     40435     40437     40438
     40432     40435     40437     40439     40432     40435     40437     40440
     40433     40432     40435     40437     40434     40432     40435     40437
     40435     40437     40440     40441     40435     40437     40440     40442
     40435     40437     40440     40448     40436     40432     40435     40437
     40437     40440     40442     40443     40437     40440     40448     40449
     40437     40440     40448     40450     40437     40440     40448     40451
     40438     40437     40440     40441     40438     40437     40440     40442
     40438     40437     40440     40448     40439     40437     40440     40441
     40439     40437     40440     40442     40439     40437     40440     40448
     40440     40442     40443     40444     40440     40442     40443     40445
     40440     40448     40451     40452     40441     40440     40442     40443
     40441     40440     40448     40449     40441     40440     40448     40450
     40441     40440     40448     40451     40442     40440     40448     40449
     40442     40440     40448     40450     40442     40440     40448     40451
     40442     40443     40445     40446     40442     40443     40445     40447
     40442     40443     40445     40457     40443     40442     40440     40448
     40443     40445     40457     40458     40443     40445     40457     40459
     40443     40445     40457     40460     40444     40443     40445     40446
     40444     40443     40445     40447     40444     40443     40445     40457
     40445     40457     40460     40461     40445     40457     40460     40462
     40445     40457     40460     40463     40446     40445     40457     40458
     40446     40445     40457     40459     40446     40445     40457     40460
     40447     40445     40457     40458     40447     40445     40457     40459
     40447     40445     40457     40460     40448     40451     40452     40453
     40448     40451     40452     40454     40449     40448     40451     40452
     40450     40448     40451     40452     40451     40452     40454     40455
     40451     40452     40454     40456     40451     40452     40454     40498
     40452     40454     40498     40499     40452     40454     40498     40500
     40452     40454     40498     40501     40453     40452     40454     40455
     40453     40452     40454     40456     40453     40452     40454     40498
     40454     40498     40501     40502     40454     40498     40501     40503
     40454     40498     40501     40504     40455     40454     40498     40499
     40455     40454     40498     40500     40455     40454     40498     40501
     40456     40454     40498     40499     40456     40454     40498     40500
     40456     40454     40498     40501     40457     40460     40463     40464
     40457     40460     40463     40465     40457     40460     40463     40466
     40458     40457     40460     40461     40458     40457     40460     40462
     40458     40457     40460     40463     40459     40457     40460     40461
     40459     40457     40460     40462     40459     40457     40460     40463
     40460     40463     40466     40467     40460     40463     40466     40468
     40460     40463     40466     40469     40461     40460     40463     40464
     40461     40460     40463     40465     40461     40460     40463     40466
     40462     40460     40463     40464     40462     40460     40463     40465
     40462     40460     40463     40466     40463     40466     40469     40470
     40463     40466     40469     40471     40463     40466     40469     40472
     40464     40463     40466     40467     40464     40463     40466     40468
     40464     40463     40466     40469     40465     40463     40466     40467
     40465     40463     40466     40468     40465     40463     40466     40469
     40466     40469     40472     40473     40466     40469     40472     40474
     40466     40469     40472     40475     40467     40466     40469     40470
     40467     40466     40469     40471     40467     40466     40469     40472
     40468     40466     40469     40470     40468     40466     40469     40471
     40468     40466     40469     40472     40469     40472     40475     40476
     40469     40472     40475     40477     40470     40469     40472     40473
     40470     40469     40472     40474     40470     40469     40472     40475
     40471     40469     40472     40473     40471     40469     40472     40474
     40471     40469     40472     40475     40472     40475     40477     40478
     40472     40475     40477     40479     40473     40472     40475     40476
     40473     40472     40475     40477     40474     40472     40475     40476
     40474     40472     40475     40477     40475     40477     40479     40480
     40475     40477     40479     40481     40475     40477     40479     40482
     40476     40475     40477     40478     40476     40475     40477     40479
     40477     40479     40482     40483     40477     40479     40482     40484
     40477     40479     40482     40485     40478     40477     40479     40480
     40478     40477     40479     40481     40478     40477     40479     40482
     40479     40482     40485     40486     40479     40482     40485     40487
     40479     40482     40485     40488     40480     40479     40482     40483
     40480     40479     40482     40484     40480     40479     40482     40485
     40481     40479     40482     40483     40481     40479     40482     40484
     40481     40479     40482     40485     40482     40485     40488     40489
     40482     40485     40488     40490     40482     40485     40488     40491
     40483     40482     40485     40486     40483     40482     40485     40487
     40483     40482     40485     40488     40484     40482     40485     40486
     40484     40482     40485     40487     40484     40482     40485     40488
     40485     40488     40491     40492     40485     40488     40491     40493
     40485     40488     40491     40494     40486     40485     40488     40489
     40486     40485     40488     40490     40486     40485     40488     40491
     40487     40485     40488     40489     40487     40485     40488     40490
     40487     40485     40488     40491     40488     40491     40494     40495
     40488     40491     40494     40496     40488     40491     40494     40497
     40489     40488     40491     40492     40489     40488     40491     40493
     40489     40488     40491     40494     40490     40488     40491     40492
     40490     40488     40491     40493     40490     40488     40491     40494
     40492     40491     40494     40495     40492     40491     40494     40496
     40492     40491     40494     40497     40493     40491     40494     40495
     40493     40491     40494     40496     40493     40491     40494     40497
     40498     40501     40504     40505     40498     40501     40504     40506
     40498     40501     40504     40507     40499     40498     40501     40502
     40499     40498     40501     40503     40499     40498     40501     40504
     40500     40498     40501     40502     40500     40498     40501     40503
     40500     40498     40501     40504     40501     40504     40507     40508
     40501     40504     40507     40509     40501     40504     40507     40510
     40502     40501     40504     40505     40502     40501     40504     40506
     40502     40501     40504     40507     40503     40501     40504     40505
     40503     40501     40504     40506     40503     40501     40504     40507
     40504     40507     40510     40511     40504     40507     40510     40512
     40504     40507     40510     40513     40505     40504     40507     40508
     40505     40504     40507     40509     40505     40504     40507     40510
     40506     40504     40507     40508     40506     40504     40507     40509
     40506     40504     40507     40510     40507     40510     40513     40514
     40507     40510     40513     40515     40507     40510     40513     40516
     40508     40507     40510     40511     40508     40507     40510     40512
     40508     40507     40510     40513     40509     40507     40510     40511
     40509     40507     40510     40512     40509     40507     40510     40513
     40510     40513     40516     40517     40510     40513     40516     40518
     40510     40513     40516     40519     40511     40510     40513     40514
     40511     40510     40513     40515     40511     40510     40513     40516
     40512     40510     40513     40514     40512     40510     40513     40515
     40512     40510     40513     40516     40513     40516     40519     40520
     40513     40516     40519     40521     40513     40516     40519     40522
     40514     40513     40516     40517     40514     40513     40516     40518
     40514     40513     40516     40519     40515     40513     40516     40517
     40515     40513     40516     40518     40515     40513     40516     40519
     40516     40519     40522     40523     40516     40519     40522     40524
     40516     40519     40522     40525     40517     40516     40519     40520
     40517     40516     40519     40521     40517     40516     40519     40522
     40518     40516     40519     40520     40518     40516     40519     40521
     40518     40516     40519     40522     40519     40522     40525     40526
     40519     40522     40525     40527     40519     40522     40525     40528
     40520     40519     40522     40523     40520     40519     40522     40524
     40520     40519     40522     40525     40521     40519     40522     40523
     40521     40519     40522     40524     40521     40519     40522     40525
     40522     40525     40528     40529     40522     40525     40528     40530
     40522     40525     40528     40531     40523     40522     40525     40526
     40523     40522     40525     40527     40523     40522     40525     40528
     40524     40522     40525     40526     40524     40522     40525     40527
     40524     40522     40525     40528     40525     40528     40531     40532
     40525     40528     40531     40533     40525     40528     40531     40534
     40526     40525     40528     40529     40526     40525     40528     40530
     40526     40525     40528     40531     40527     40525     40528     40529
     40527     40525     40528     40530     40527     40525     40528     40531
     40528     40531     40534     40535     40528     40531     40534     40536
     40528     40531     40534     40537     40529     40528     40531     40532
     40529     40528     40531     40533     40529     40528     40531     40534
     40530     40528     40531     40532     40530     40528     40531     40533
     40530     40528     40531     40534     40531     40534     40537     40538
     40531     40534     40537     40539     40531     40534     40537     40540
     40532     40531     40534     40535     40532     40531     40534     40536
     40532     40531     40534     40537     40533     40531     40534     40535
     40533     40531     40534     40536     40533     40531     40534     40537
     40535     40534     40537     40538     40535     40534     40537     40539
     40535     40534     40537     40540     40536     40534     40537     40538
     40536     40534     40537     40539     40536     40534     40537     40540
     40541     40545     40548     40549     40541     40545     40548     40550
     40541     40545     40548     40555     40542     40541     40545     40546
     40542     40541     40545     40547     40542     40541     40545     40548
     40543     40541     40545     40546     40543     40541     40545     40547
     40543     40541     40545     40548     40544     40541     40545     40546
     40544     40541     40545     40547     40544     40541     40545     40548
     40545     40548     40555     40551     40546     40545     40548     40549
     40546     40545     40548     40550     40546     40545     40548     40555
     40547     40545     40548     40549     40547     40545     40548     40550
     40547     40545     40548     40555     40548     40555     40551     40552
     40548     40555     40551     40553     40548     40555     40551     40554
     40549     40548     40555     40551     40550     40548     40555     40551
     40551     40554     40556     40557     40551     40554     40556     40558
     40551     40554     40556     40559     40552     40551     40554     40556
     40553     40551     40554     40556     40554     40556     40559     40560
     40554     40556     40559     40561     40554     40556     40559     40567
     40555     40551     40554     40556     40556     40559     40561     40562
     40556     40559     40567     40568     40556     40559     40567     40569
     40556     40559     40567     40570     40557     40556     40559     40560
     40557     40556     40559     40561     40557     40556     40559     40567
     40558     40556     40559     40560     40558     40556     40559     40561
     40558     40556     40559     40567     40559     40561     40562     40563
     40559     40561     40562     40564     40559     40567     40570     40571
     40560     40559     40561     40562     40560     40559     40567     40568
     40560     40559     40567     40569     40560     40559     40567     40570
     40561     40559     40567     40568     40561     40559     40567     40569
     40561     40559     40567     40570     40561     40562     40564     40565
     40561     40562     40564     40566     40561     40562     40564     40576
     40562     40561     40559     40567     40562     40564     40576     40577
     40562     40564     40576     40578     40562     40564     40576     40579
     40563     40562     40564     40565     40563     40562     40564     40566
     40563     40562     40564     40576     40564     40576     40579     40580
     40564     40576     40579     40581     40564     40576     40579     40582
     40565     40564     40576     40577     40565     40564     40576     40578
     40565     40564     40576     40579     40566     40564     40576     40577
     40566     40564     40576     40578     40566     40564     40576     40579
     40567     40570     40571     40572     40567     40570     40571     40573
     40568     40567     40570     40571     40569     40567     40570     40571
     40570     40571     40573     40574     40570     40571     40573     40575
     40570     40571     40573     40617     40571     40573     40617     40618
     40571     40573     40617     40619     40571     40573     40617     40620
     40572     40571     40573     40574     40572     40571     40573     40575
     40572     40571     40573     40617     40573     40617     40620     40621
     40573     40617     40620     40622     40573     40617     40620     40623
     40574     40573     40617     40618     40574     40573     40617     40619
     40574     40573     40617     40620     40575     40573     40617     40618
     40575     40573     40617     40619     40575     40573     40617     40620
     40576     40579     40582     40583     40576     40579     40582     40584
     40576     40579     40582     40585     40577     40576     40579     40580
     40577     40576     40579     40581     40577     40576     40579     40582
     40578     40576     40579     40580     40578     40576     40579     40581
     40578     40576     40579     40582     40579     40582     40585     40586
     40579     40582     40585     40587     40579     40582     40585     40588
     40580     40579     40582     40583     40580     40579     40582     40584
     40580     40579     40582     40585     40581     40579     40582     40583
     40581     40579     40582     40584     40581     40579     40582     40585
     40582     40585     40588     40589     40582     40585     40588     40590
     40582     40585     40588     40591     40583     40582     40585     40586
     40583     40582     40585     40587     40583     40582     40585     40588
     40584     40582     40585     40586     40584     40582     40585     40587
     40584     40582     40585     40588     40585     40588     40591     40592
     40585     40588     40591     40593     40585     40588     40591     40594
     40586     40585     40588     40589     40586     40585     40588     40590
     40586     40585     40588     40591     40587     40585     40588     40589
     40587     40585     40588     40590     40587     40585     40588     40591
     40588     40591     40594     40595     40588     40591     40594     40596
     40589     40588     40591     40592     40589     40588     40591     40593
     40589     40588     40591     40594     40590     40588     40591     40592
     40590     40588     40591     40593     40590     40588     40591     40594
     40591     40594     40596     40597     40591     40594     40596     40598
     40592     40591     40594     40595     40592     40591     40594     40596
     40593     40591     40594     40595     40593     40591     40594     40596
     40594     40596     40598     40599     40594     40596     40598     40600
     40594     40596     40598     40601     40595     40594     40596     40597
     40595     40594     40596     40598     40596     40598     40601     40602
     40596     40598     40601     40603     40596     40598     40601     40604
     40597     40596     40598     40599     40597     40596     40598     40600
     40597     40596     40598     40601     40598     40601     40604     40605
     40598     40601     40604     40606     40598     40601     40604     40607
     40599     40598     40601     40602     40599     40598     40601     40603
     40599     40598     40601     40604     40600     40598     40601     40602
     40600     40598     40601     40603     40600     40598     40601     40604
     40601     40604     40607     40608     40601     40604     40607     40609
     40601     40604     40607     40610     40602     40601     40604     40605
     40602     40601     40604     40606     40602     40601     40604     40607
     40603     40601     40604     40605     40603     40601     40604     40606
     40603     40601     40604     40607     40604     40607     40610     40611
     40604     40607     40610     40612     40604     40607     40610     40613
     40605     40604     40607     40608     40605     40604     40607     40609
     40605     40604     40607     40610     40606     40604     40607     40608
     40606     40604     40607     40609     40606     40604     40607     40610
     40607     40610     40613     40614     40607     40610     40613     40615
     40607     40610     40613     40616     40608     40607     40610     40611
     40608     40607     40610     40612     40608     40607     40610     40613
     40609     40607     40610     40611     40609     40607     40610     40612
     40609     40607     40610     40613     40611     40610     40613     40614
     40611     40610     40613     40615     40611     40610     40613     40616
     40612     40610     40613     40614     40612     40610     40613     40615
     40612     40610     40613     40616     40617     40620     40623     40624
     40617     40620     40623     40625     40617     40620     40623     40626
     40618     40617     40620     40621     40618     40617     40620     40622
     40618     40617     40620     40623     40619     40617     40620     40621
     40619     40617     40620     40622     40619     40617     40620     40623
     40620     40623     40626     40627     40620     40623     40626     40628
     40620     40623     40626     40629     40621     40620     40623     40624
     40621     40620     40623     40625     40621     40620     40623     40626
     40622     40620     40623     40624     40622     40620     40623     40625
     40622     40620     40623     40626     40623     40626     40629     40630
     40623     40626     40629     40631     40623     40626     40629     40632
     40624     40623     40626     40627     40624     40623     40626     40628
     40624     40623     40626     40629     40625     40623     40626     40627
     40625     40623     40626     40628     40625     40623     40626     40629
     40626     40629     40632     40633     40626     40629     40632     40634
     40626     40629     40632     40635     40627     40626     40629     40630
     40627     40626     40629     40631     40627     40626     40629     40632
     40628     40626     40629     40630     40628     40626     40629     40631
     40628     40626     40629     40632     40629     40632     40635     40636
     40629     40632     40635     40637     40629     40632     40635     40638
     40630     40629     40632     40633     40630     40629     40632     40634
     40630     40629     40632     40635     40631     40629     40632     40633
     40631     40629     40632     40634     40631     40629     40632     40635
     40632     40635     40638     40639     40632     40635     40638     40640
     40632     40635     40638     40641     40633     40632     40635     40636
     40633     40632     40635     40637     40633     40632     40635     40638
     40634     40632     40635     40636     40634     40632     40635     40637
     40634     40632     40635     40638     40635     40638     40641     40642
     40635     40638     40641     40643     40635     40638     40641     40644
     40636     40635     40638     40639     40636     40635     40638     40640
     40636     40635     40638     40641     40637     40635     40638     40639
     40637     40635     40638     40640     40637     40635     40638     40641
     40638     40641     40644     40645     40638     40641     40644     40646
     40638     40641     40644     40647     40639     40638     40641     40642
     40639     40638     40641     40643     40639     40638     40641     40644
     40640     40638     40641     40642     40640     40638     40641     40643
     40640     40638     40641     40644     40641     40644     40647     40648
     40641     40644     40647     40649     40641     40644     40647     40650
     40642     40641     40644     40645     40642     40641     40644     40646
     40642     40641     40644     40647     40643     40641     40644     40645
     40643     40641     40644     40646     40643     40641     40644     40647
     40644     40647     40650     40651     40644     40647     40650     40652
     40644     40647     40650     40653     40645     40644     40647     40648
     40645     40644     40647     40649     40645     40644     40647     40650
     40646     40644     40647     40648     40646     40644     40647     40649
     40646     40644     40647     40650     40647     40650     40653     40654
     40647     40650     40653     40655     40647     40650     40653     40656
     40648     40647     40650     40651     40648     40647     40650     40652
     40648     40647     40650     40653     40649     40647     40650     40651
     40649     40647     40650     40652     40649     40647     40650     40653
     40650     40653     40656     40657     40650     40653     40656     40658
     40650     40653     40656     40659     40651     40650     40653     40654
     40651     40650     40653     40655     40651     40650     40653     40656
     40652     40650     40653     40654     40652     40650     40653     40655
     40652     40650     40653     40656     40654     40653     40656     40657
     40654     40653     40656     40658     40654     40653     40656     40659
     40655     40653     40656     40657     40655     40653     40656     40658
     40655     40653     40656     40659     40660     40664     40667     40668
     40660     40664     40667     40669     40660     40664     40667     40674
     40661     40660     40664     40665     40661     40660     40664     40666
     40661     40660     40664     40667     40662     40660     40664     40665
     40662     40660     40664     40666     40662     40660     40664     40667
     40663     40660     40664     40665     40663     40660     40664     40666
     40663     40660     40664     40667     40664     40667     40674     40670
     40665     40664     40667     40668     40665     40664     40667     40669
     40665     40664     40667     40674     40666     40664     40667     40668
     40666     40664     40667     40669     40666     40664     40667     40674
     40667     40674     40670     40671     40667     40674     40670     40672
     40667     40674     40670     40673     40668     40667     40674     40670
     40669     40667     40674     40670     40670     40673     40675     40676
     40670     40673     40675     40677     40670     40673     40675     40678
     40671     40670     40673     40675     40672     40670     40673     40675
     40673     40675     40678     40679     40673     40675     40678     40680
     40673     40675     40678     40686     40674     40670     40673     40675
     40675     40678     40680     40681     40675     40678     40686     40687
     40675     40678     40686     40688     40675     40678     40686     40689
     40676     40675     40678     40679     40676     40675     40678     40680
     40676     40675     40678     40686     40677     40675     40678     40679
     40677     40675     40678     40680     40677     40675     40678     40686
     40678     40680     40681     40682     40678     40680     40681     40683
     40678     40686     40689     40690     40679     40678     40680     40681
     40679     40678     40686     40687     40679     40678     40686     40688
     40679     40678     40686     40689     40680     40678     40686     40687
     40680     40678     40686     40688     40680     40678     40686     40689
     40680     40681     40683     40684     40680     40681     40683     40685
     40680     40681     40683     40695     40681     40680     40678     40686
     40681     40683     40695     40696     40681     40683     40695     40697
     40681     40683     40695     40698     40682     40681     40683     40684
     40682     40681     40683     40685     40682     40681     40683     40695
     40683     40695     40698     40699     40683     40695     40698     40700
     40683     40695     40698     40701     40684     40683     40695     40696
     40684     40683     40695     40697     40684     40683     40695     40698
     40685     40683     40695     40696     40685     40683     40695     40697
     40685     40683     40695     40698     40686     40689     40690     40691
     40686     40689     40690     40692     40687     40686     40689     40690
     40688     40686     40689     40690     40689     40690     40692     40693
     40689     40690     40692     40694     40689     40690     40692     40736
     40690     40692     40736     40737     40690     40692     40736     40738
     40690     40692     40736     40739     40691     40690     40692     40693
     40691     40690     40692     40694     40691     40690     40692     40736
     40692     40736     40739     40740     40692     40736     40739     40741
     40692     40736     40739     40742     40693     40692     40736     40737
     40693     40692     40736     40738     40693     40692     40736     40739
     40694     40692     40736     40737     40694     40692     40736     40738
     40694     40692     40736     40739     40695     40698     40701     40702
     40695     40698     40701     40703     40695     40698     40701     40704
     40696     40695     40698     40699     40696     40695     40698     40700
     40696     40695     40698     40701     40697     40695     40698     40699
     40697     40695     40698     40700     40697     40695     40698     40701
     40698     40701     40704     40705     40698     40701     40704     40706
     40698     40701     40704     40707     40699     40698     40701     40702
     40699     40698     40701     40703     40699     40698     40701     40704
     40700     40698     40701     40702     40700     40698     40701     40703
     40700     40698     40701     40704     40701     40704     40707     40708
     40701     40704     40707     40709     40701     40704     40707     40710
     40702     40701     40704     40705     40702     40701     40704     40706
     40702     40701     40704     40707     40703     40701     40704     40705
     40703     40701     40704     40706     40703     40701     40704     40707
     40704     40707     40710     40711     40704     40707     40710     40712
     40704     40707     40710     40713     40705     40704     40707     40708
     40705     40704     40707     40709     40705     40704     40707     40710
     40706     40704     40707     40708     40706     40704     40707     40709
     40706     40704     40707     40710     40707     40710     40713     40714
     40707     40710     40713     40715     40708     40707     40710     40711
     40708     40707     40710     40712     40708     40707     40710     40713
     40709     40707     40710     40711     40709     40707     40710     40712
     40709     40707     40710     40713     40710     40713     40715     40716
     40710     40713     40715     40717     40711     40710     40713     40714
     40711     40710     40713     40715     40712     40710     40713     40714
     40712     40710     40713     40715     40713     40715     40717     40718
     40713     40715     40717     40719     40713     40715     40717     40720
     40714     40713     40715     40716     40714     40713     40715     40717
     40715     40717     40720     40721     40715     40717     40720     40722
     40715     40717     40720     40723     40716     40715     40717     40718
     40716     40715     40717     40719     40716     40715     40717     40720
     40717     40720     40723     40724     40717     40720     40723     40725
     40717     40720     40723     40726     40718     40717     40720     40721
     40718     40717     40720     40722     40718     40717     40720     40723
     40719     40717     40720     40721     40719     40717     40720     40722
     40719     40717     40720     40723     40720     40723     40726     40727
     40720     40723     40726     40728     40720     40723     40726     40729
     40721     40720     40723     40724     40721     40720     40723     40725
     40721     40720     40723     40726     40722     40720     40723     40724
     40722     40720     40723     40725     40722     40720     40723     40726
     40723     40726     40729     40730     40723     40726     40729     40731
     40723     40726     40729     40732     40724     40723     40726     40727
     40724     40723     40726     40728     40724     40723     40726     40729
     40725     40723     40726     40727     40725     40723     40726     40728
     40725     40723     40726     40729     40726     40729     40732     40733
     40726     40729     40732     40734     40726     40729     40732     40735
     40727     40726     40729     40730     40727     40726     40729     40731
     40727     40726     40729     40732     40728     40726     40729     40730
     40728     40726     40729     40731     40728     40726     40729     40732
     40730     40729     40732     40733     40730     40729     40732     40734
     40730     40729     40732     40735     40731     40729     40732     40733
     40731     40729     40732     40734     40731     40729     40732     40735
     40736     40739     40742     40743     40736     40739     40742     40744
     40736     40739     40742     40745     40737     40736     40739     40740
     40737     40736     40739     40741     40737     40736     40739     40742
     40738     40736     40739     40740     40738     40736     40739     40741
     40738     40736     40739     40742     40739     40742     40745     40746
     40739     40742     40745     40747     40739     40742     40745     40748
     40740     40739     40742     40743     40740     40739     40742     40744
     40740     40739     40742     40745     40741     40739     40742     40743
     40741     40739     40742     40744     40741     40739     40742     40745
     40742     40745     40748     40749     40742     40745     40748     40750
     40742     40745     40748     40751     40743     40742     40745     40746
     40743     40742     40745     40747     40743     40742     40745     40748
     40744     40742     40745     40746     40744     40742     40745     40747
     40744     40742     40745     40748     40745     40748     40751     40752
     40745     40748     40751     40753     40745     40748     40751     40754
     40746     40745     40748     40749     40746     40745     40748     40750
     40746     40745     40748     40751     40747     40745     40748     40749
     40747     40745     40748     40750     40747     40745     40748     40751
     40748     40751     40754     40755     40748     40751     40754     40756
     40748     40751     40754     40757     40749     40748     40751     40752
     40749     40748     40751     40753     40749     40748     40751     40754
     40750     40748     40751     40752     40750     40748     40751     40753
     40750     40748     40751     40754     40751     40754     40757     40758
     40751     40754     40757     40759     40751     40754     40757     40760
     40752     40751     40754     40755     40752     40751     40754     40756
     40752     40751     40754     40757     40753     40751     40754     40755
     40753     40751     40754     40756     40753     40751     40754     40757
     40754     40757     40760     40761     40754     40757     40760     40762
     40754     40757     40760     40763     40755     40754     40757     40758
     40755     40754     40757     40759     40755     40754     40757     40760
     40756     40754     40757     40758     40756     40754     40757     40759
     40756     40754     40757     40760     40757     40760     40763     40764
     40757     40760     40763     40765     40757     40760     40763     40766
     40758     40757     40760     40761     40758     40757     40760     40762
     40758     40757     40760     40763     40759     40757     40760     40761
     40759     40757     40760     40762     40759     40757     40760     40763
     40760     40763     40766     40767     40760     40763     40766     40768
     40760     40763     40766     40769     40761     40760     40763     40764
     40761     40760     40763     40765     40761     40760     40763     40766
     40762     40760     40763     40764     40762     40760     40763     40765
     40762     40760     40763     40766     40763     40766     40769     40770
     40763     40766     40769     40771     40763     40766     40769     40772
     40764     40763     40766     40767     40764     40763     40766     40768
     40764     40763     40766     40769     40765     40763     40766     40767
     40765     40763     40766     40768     40765     40763     40766     40769
     40766     40769     40772     40773     40766     40769     40772     40774
     40766     40769     40772     40775     40767     40766     40769     40770
     40767     40766     40769     40771     40767     40766     40769     40772
     40768     40766     40769     40770     40768     40766     40769     40771
     40768     40766     40769     40772     40769     40772     40775     40776
     40769     40772     40775     40777     40769     40772     40775     40778
     40770     40769     40772     40773     40770     40769     40772     40774
     40770     40769     40772     40775     40771     40769     40772     40773
     40771     40769     40772     40774     40771     40769     40772     40775
     40773     40772     40775     40776     40773     40772     40775     40777
     40773     40772     40775     40778     40774     40772     40775     40776
     40774     40772     40775     40777     40774     40772     40775     40778
     40779     40784     40786     40787     40779     40784     40788     40789
     40779     40784     40788     40790     40779     40784     40788     40794
     40780     40779     40782     40783     40780     40779     40784     40785
     40780     40779     40784     40786     40780     40779     40784     40788
     40781     40779     40782     40783     40781     40779     40784     40785
     40781     40779     40784     40786     40781     40779     40784     40788
     40782     40779     40784     40785     40782     40779     40784     40786
     40782     40779     40784     40788     40783     40782     40779     40784
     40784     40788     40794     40791     40785     40784     40786     40787
     40785     40784     40788     40789     40785     40784     40788     40790
     40785     40784     40788     40794     40786     40784     40788     40789
     40786     40784     40788     40790     40786     40784     40788     40794
     40787     40786     40784     40788     40788     40794     40791     40792
     40788     40794     40791     40793     40788     40794     40791     40795
     40789     40788     40794     40791     40790     40788     40794     40791
     40791     40795     40796     40797     40791     40795     40796     40798
     40791     40795     40796     40799     40792     40791     40795     40796
     40793     40791     40795     40796     40794     40791     40795     40796
     40795     40796     40799     40800     40795     40796     40799     40801
     40795     40796     40799     40807     40796     40799     40801     40802
     40796     40799     40807     40808     40796     40799     40807     40809
     40796     40799     40807     40810     40797     40796     40799     40800
     40797     40796     40799     40801     40797     40796     40799     40807
     40798     40796     40799     40800     40798     40796     40799     40801
     40798     40796     40799     40807     40799     40801     40802     40803
     40799     40801     40802     40804     40799     40807     40810     40811
     40800     40799     40801     40802     40800     40799     40807     40808
     40800     40799     40807     40809     40800     40799     40807     40810
     40801     40799     40807     40808     40801     40799     40807     40809
     40801     40799     40807     40810     40801     40802     40804     40805
     40801     40802     40804     40806     40801     40802     40804     40816
     40802     40801     40799     40807     40802     40804     40816     40817
     40802     40804     40816     40818     40802     40804     40816     40819
     40803     40802     40804     40805     40803     40802     40804     40806
     40803     40802     40804     40816     40804     40816     40819     40820
     40804     40816     40819     40821     40804     40816     40819     40822
     40805     40804     40816     40817     40805     40804     40816     40818
     40805     40804     40816     40819     40806     40804     40816     40817
     40806     40804     40816     40818     40806     40804     40816     40819
     40807     40810     40811     40812     40807     40810     40811     40813
     40808     40807     40810     40811     40809     40807     40810     40811
     40810     40811     40813     40814     40810     40811     40813     40815
     40810     40811     40813     40863     40811     40813     40863     40864
     40811     40813     40863     40865     40811     40813     40863     40866
     40812     40811     40813     40814     40812     40811     40813     40815
     40812     40811     40813     40863     40813     40863     40866     40867
     40813     40863     40866     40868     40813     40863     40866     40869
     40814     40813     40863     40864     40814     40813     40863     40865
     40814     40813     40863     40866     40815     40813     40863     40864
     40815     40813     40863     40865     40815     40813     40863     40866
     40816     40819     40822     40823     40816     40819     40822     40824
     40816     40819     40822     40825     40817     40816     40819     40820
     40817     40816     40819     40821     40817     40816     40819     40822
     40818     40816     40819     40820     40818     40816     40819     40821
     40818     40816     40819     40822     40819     40822     40825     40826
     40819     40822     40825     40827     40819     40822     40825     40828
     40820     40819     40822     40823     40820     40819     40822     40824
     40820     40819     40822     40825     40821     40819     40822     40823
     40821     40819     40822     40824     40821     40819     40822     40825
     40822     40825     40828     40829     40822     40825     40828     40830
     40822     40825     40828     40831     40823     40822     40825     40826
     40823     40822     40825     40827     40823     40822     40825     40828
     40824     40822     40825     40826     40824     40822     40825     40827
     40824     40822     40825     40828     40825     40828     40831     40832
     40825     40828     40831     40833     40825     40828     40831     40834
     40826     40825     40828     40829     40826     40825     40828     40830
     40826     40825     40828     40831     40827     40825     40828     40829
     40827     40825     40828     40830     40827     40825     40828     40831
     40828     40831     40834     40835     40828     40831     40834     40836
     40828     40831     40834     40837     40829     40828     40831     40832
     40829     40828     40831     40833     40829     40828     40831     40834
     40830     40828     40831     40832     40830     40828     40831     40833
     40830     40828     40831     40834     40831     40834     40837     40838
     40831     40834     40837     40839     40831     40834     40837     40840
     40832     40831     40834     40835     40832     40831     40834     40836
     40832     40831     40834     40837     40833     40831     40834     40835
     40833     40831     40834     40836     40833     40831     40834     40837
     40834     40837     40840     40841     40834     40837     40840     40842
     40835     40834     40837     40838     40835     40834     40837     40839
     40835     40834     40837     40840     40836     40834     40837     40838
     40836     40834     40837     40839     40836     40834     40837     40840
     40837     40840     40842     40843     40837     40840     40842     40844
     40838     40837     40840     40841     40838     40837     40840     40842
     40839     40837     40840     40841     40839     40837     40840     40842
     40840     40842     40844     40845     40840     40842     40844     40846
     40840     40842     40844     40847     40841     40840     40842     40843
     40841     40840     40842     40844     40842     40844     40847     40848
     40842     40844     40847     40849     40842     40844     40847     40850
     40843     40842     40844     40845     40843     40842     40844     40846
     40843     40842     40844     40847     40844     40847     40850     40851
     40844     40847     40850     40852     40844     40847     40850     40853
     40845     40844     40847     40848     40845     40844     40847     40849
     40845     40844     40847     40850     40846     40844     40847     40848
     40846     40844     40847     40849     40846     40844     40847     40850
     40847     40850     40853     40854     40847     40850     40853     40855
     40847     40850     40853     40856     40848     40847     40850     40851
     40848     40847     40850     40852     40848     40847     40850     40853
     40849     40847     40850     40851     40849     40847     40850     40852
     40849     40847     40850     40853     40850     40853     40856     40857
     40850     40853     40856     40858     40850     40853     40856     40859
     40851     40850     40853     40854     40851     40850     40853     40855
     40851     40850     40853     40856     40852     40850     40853     40854
     40852     40850     40853     40855     40852     40850     40853     40856
     40853     40856     40859     40860     40853     40856     40859     40861
     40853     40856     40859     40862     40854     40853     40856     40857
     40854     40853     40856     40858     40854     40853     40856     40859
     40855     40853     40856     40857     40855     40853     40856     40858
     40855     40853     40856     40859     40857     40856     40859     40860
     40857     40856     40859     40861     40857     40856     40859     40862
     40858     40856     40859     40860     40858     40856     40859     40861
     40858     40856     40859     40862     40863     40866     40869     40870
     40863     40866     40869     40871     40863     40866     40869     40872
     40864     40863     40866     40867     40864     40863     40866     40868
     40864     40863     40866     40869     40865     40863     40866     40867
     40865     40863     40866     40868     40865     40863     40866     40869
     40866     40869     40872     40873     40866     40869     40872     40874
     40866     40869     40872     40875     40867     40866     40869     40870
     40867     40866     40869     40871     40867     40866     40869     40872
     40868     40866     40869     40870     40868     40866     40869     40871
     40868     40866     40869     40872     40869     40872     40875     40876
     40869     40872     40875     40877     40869     40872     40875     40878
     40870     40869     40872     40873     40870     40869     40872     40874
     40870     40869     40872     40875     40871     40869     40872     40873
     40871     40869     40872     40874     40871     40869     40872     40875
     40872     40875     40878     40879     40872     40875     40878     40880
     40872     40875     40878     40881     40873     40872     40875     40876
     40873     40872     40875     40877     40873     40872     40875     40878
     40874     40872     40875     40876     40874     40872     40875     40877
     40874     40872     40875     40878     40875     40878     40881     40882
     40875     40878     40881     40883     40875     40878     40881     40884
     40876     40875     40878     40879     40876     40875     40878     40880
     40876     40875     40878     40881     40877     40875     40878     40879
     40877     40875     40878     40880     40877     40875     40878     40881
     40878     40881     40884     40885     40878     40881     40884     40886
     40878     40881     40884     40887     40879     40878     40881     40882
     40879     40878     40881     40883     40879     40878     40881     40884
     40880     40878     40881     40882     40880     40878     40881     40883
     40880     40878     40881     40884     40881     40884     40887     40888
     40881     40884     40887     40889     40881     40884     40887     40890
     40882     40881     40884     40885     40882     40881     40884     40886
     40882     40881     40884     40887     40883     40881     40884     40885
     40883     40881     40884     40886     40883     40881     40884     40887
     40884     40887     40890     40891     40884     40887     40890     40892
     40884     40887     40890     40893     40885     40884     40887     40888
     40885     40884     40887     40889     40885     40884     40887     40890
     40886     40884     40887     40888     40886     40884     40887     40889
     40886     40884     40887     40890     40887     40890     40893     40894
     40887     40890     40893     40895     40887     40890     40893     40896
     40888     40887     40890     40891     40888     40887     40890     40892
     40888     40887     40890     40893     40889     40887     40890     40891
     40889     40887     40890     40892     40889     40887     40890     40893
     40890     40893     40896     40897     40890     40893     40896     40898
     40890     40893     40896     40899     40891     40890     40893     40894
     40891     40890     40893     40895     40891     40890     40893     40896
     40892     40890     40893     40894     40892     40890     40893     40895
     40892     40890     40893     40896     40893     40896     40899     40900
     40893     40896     40899     40901     40893     40896     40899     40902
     40894     40893     40896     40897     40894     40893     40896     40898
     40894     40893     40896     40899     40895     40893     40896     40897
     40895     40893     40896     40898     40895     40893     40896     40899
     40896     40899     40902     40903     40896     40899     40902     40904
     40896     40899     40902     40905     40897     40896     40899     40900
     40897     40896     40899     40901     40897     40896     40899     40902
     40898     40896     40899     40900     40898     40896     40899     40901
     40898     40896     40899     40902     40900     40899     40902     40903
     40900     40899     40902     40904     40900     40899     40902     40905
     40901     40899     40902     40903     40901     40899     40902     40904
     40901     40899     40902     40905     40906     40911     40913     40914
     40906     40911     40915     40916     40906     40911     40915     40917
     40906     40911     40915     40921     40907     40906     40909     40910
     40907     40906     40911     40912     40907     40906     40911     40913
     40907     40906     40911     40915     40908     40906     40909     40910
     40908     40906     40911     40912     40908     40906     40911     40913
     40908     40906     40911     40915     40909     40906     40911     40912
     40909     40906     40911     40913     40909     40906     40911     40915
     40910     40909     40906     40911     40911     40915     40921     40918
     40912     40911     40913     40914     40912     40911     40915     40916
     40912     40911     40915     40917     40912     40911     40915     40921
     40913     40911     40915     40916     40913     40911     40915     40917
     40913     40911     40915     40921     40914     40913     40911     40915
     40915     40921     40918     40919     40915     40921     40918     40920
     40915     40921     40918     40922     40916     40915     40921     40918
     40917     40915     40921     40918     40918     40922     40923     40924
     40918     40922     40923     40925     40918     40922     40923     40926
     40919     40918     40922     40923     40920     40918     40922     40923
     40921     40918     40922     40923     40922     40923     40926     40927
     40922     40923     40926     40928     40922     40923     40926     40934
     40923     40926     40928     40929     40923     40926     40934     40935
     40923     40926     40934     40936     40923     40926     40934     40937
     40924     40923     40926     40927     40924     40923     40926     40928
     40924     40923     40926     40934     40925     40923     40926     40927
     40925     40923     40926     40928     40925     40923     40926     40934
     40926     40928     40929     40930     40926     40928     40929     40931
     40926     40934     40937     40938     40927     40926     40928     40929
     40927     40926     40934     40935     40927     40926     40934     40936
     40927     40926     40934     40937     40928     40926     40934     40935
     40928     40926     40934     40936     40928     40926     40934     40937
     40928     40929     40931     40932     40928     40929     40931     40933
     40928     40929     40931     40943     40929     40928     40926     40934
     40929     40931     40943     40944     40929     40931     40943     40945
     40929     40931     40943     40946     40930     40929     40931     40932
     40930     40929     40931     40933     40930     40929     40931     40943
     40931     40943     40946     40947     40931     40943     40946     40948
     40931     40943     40946     40949     40932     40931     40943     40944
     40932     40931     40943     40945     40932     40931     40943     40946
     40933     40931     40943     40944     40933     40931     40943     40945
     40933     40931     40943     40946     40934     40937     40938     40939
     40934     40937     40938     40940     40935     40934     40937     40938
     40936     40934     40937     40938     40937     40938     40940     40941
     40937     40938     40940     40942     40937     40938     40940     40990
     40938     40940     40990     40991     40938     40940     40990     40992
     40938     40940     40990     40993     40939     40938     40940     40941
     40939     40938     40940     40942     40939     40938     40940     40990
     40940     40990     40993     40994     40940     40990     40993     40995
     40940     40990     40993     40996     40941     40940     40990     40991
     40941     40940     40990     40992     40941     40940     40990     40993
     40942     40940     40990     40991     40942     40940     40990     40992
     40942     40940     40990     40993     40943     40946     40949     40950
     40943     40946     40949     40951     40943     40946     40949     40952
     40944     40943     40946     40947     40944     40943     40946     40948
     40944     40943     40946     40949     40945     40943     40946     40947
     40945     40943     40946     40948     40945     40943     40946     40949
     40946     40949     40952     40953     40946     40949     40952     40954
     40946     40949     40952     40955     40947     40946     40949     40950
     40947     40946     40949     40951     40947     40946     40949     40952
     40948     40946     40949     40950     40948     40946     40949     40951
     40948     40946     40949     40952     40949     40952     40955     40956
     40949     40952     40955     40957     40949     40952     40955     40958
     40950     40949     40952     40953     40950     40949     40952     40954
     40950     40949     40952     40955     40951     40949     40952     40953
     40951     40949     40952     40954     40951     40949     40952     40955
     40952     40955     40958     40959     40952     40955     40958     40960
     40952     40955     40958     40961     40953     40952     40955     40956
     40953     40952     40955     40957     40953     40952     40955     40958
     40954     40952     40955     40956     40954     40952     40955     40957
     40954     40952     40955     40958     40955     40958     40961     40962
     40955     40958     40961     40963     40955     40958     40961     40964
     40956     40955     40958     40959     40956     40955     40958     40960
     40956     40955     40958     40961     40957     40955     40958     40959
     40957     40955     40958     40960     40957     40955     40958     40961
     40958     40961     40964     40965     40958     40961     40964     40966
     40958     40961     40964     40967     40959     40958     40961     40962
     40959     40958     40961     40963     40959     40958     40961     40964
     40960     40958     40961     40962     40960     40958     40961     40963
     40960     40958     40961     40964     40961     40964     40967     40968
     40961     40964     40967     40969     40962     40961     40964     40965
     40962     40961     40964     40966     40962     40961     40964     40967
     40963     40961     40964     40965     40963     40961     40964     40966
     40963     40961     40964     40967     40964     40967     40969     40970
     40964     40967     40969     40971     40965     40964     40967     40968
     40965     40964     40967     40969     40966     40964     40967     40968
     40966     40964     40967     40969     40967     40969     40971     40972
     40967     40969     40971     40973     40967     40969     40971     40974
     40968     40967     40969     40970     40968     40967     40969     40971
     40969     40971     40974     40975     40969     40971     40974     40976
     40969     40971     40974     40977     40970     40969     40971     40972
     40970     40969     40971     40973     40970     40969     40971     40974
     40971     40974     40977     40978     40971     40974     40977     40979
     40971     40974     40977     40980     40972     40971     40974     40975
     40972     40971     40974     40976     40972     40971     40974     40977
     40973     40971     40974     40975     40973     40971     40974     40976
     40973     40971     40974     40977     40974     40977     40980     40981
     40974     40977     40980     40982     40974     40977     40980     40983
     40975     40974     40977     40978     40975     40974     40977     40979
     40975     40974     40977     40980     40976     40974     40977     40978
     40976     40974     40977     40979     40976     40974     40977     40980
     40977     40980     40983     40984     40977     40980     40983     40985
     40977     40980     40983     40986     40978     40977     40980     40981
     40978     40977     40980     40982     40978     40977     40980     40983
     40979     40977     40980     40981     40979     40977     40980     40982
     40979     40977     40980     40983     40980     40983     40986     40987
     40980     40983     40986     40988     40980     40983     40986     40989
     40981     40980     40983     40984     40981     40980     40983     40985
     40981     40980     40983     40986     40982     40980     40983     40984
     40982     40980     40983     40985     40982     40980     40983     40986
     40984     40983     40986     40987     40984     40983     40986     40988
     40984     40983     40986     40989     40985     40983     40986     40987
     40985     40983     40986     40988     40985     40983     40986     40989
     40990     40993     40996     40997     40990     40993     40996     40998
     40990     40993     40996     40999     40991     40990     40993     40994
     40991     40990     40993     40995     40991     40990     40993     40996
     40992     40990     40993     40994     40992     40990     40993     40995
     40992     40990     40993     40996     40993     40996     40999     41000
     40993     40996     40999     41001     40993     40996     40999     41002
     40994     40993     40996     40997     40994     40993     40996     40998
     40994     40993     40996     40999     40995     40993     40996     40997
     40995     40993     40996     40998     40995     40993     40996     40999
     40996     40999     41002     41003     40996     40999     41002     41004
     40996     40999     41002     41005     40997     40996     40999     41000
     40997     40996     40999     41001     40997     40996     40999     41002
     40998     40996     40999     41000     40998     40996     40999     41001
     40998     40996     40999     41002     40999     41002     41005     41006
     40999     41002     41005     41007     40999     41002     41005     41008
     41000     40999     41002     41003     41000     40999     41002     41004
     41000     40999     41002     41005     41001     40999     41002     41003
     41001     40999     41002     41004     41001     40999     41002     41005
     41002     41005     41008     41009     41002     41005     41008     41010
     41002     41005     41008     41011     41003     41002     41005     41006
     41003     41002     41005     41007     41003     41002     41005     41008
     41004     41002     41005     41006     41004     41002     41005     41007
     41004     41002     41005     41008     41005     41008     41011     41012
     41005     41008     41011     41013     41005     41008     41011     41014
     41006     41005     41008     41009     41006     41005     41008     41010
     41006     41005     41008     41011     41007     41005     41008     41009
     41007     41005     41008     41010     41007     41005     41008     41011
     41008     41011     41014     41015     41008     41011     41014     41016
     41008     41011     41014     41017     41009     41008     41011     41012
     41009     41008     41011     41013     41009     41008     41011     41014
     41010     41008     41011     41012     41010     41008     41011     41013
     41010     41008     41011     41014     41011     41014     41017     41018
     41011     41014     41017     41019     41011     41014     41017     41020
     41012     41011     41014     41015     41012     41011     41014     41016
     41012     41011     41014     41017     41013     41011     41014     41015
     41013     41011     41014     41016     41013     41011     41014     41017
     41014     41017     41020     41021     41014     41017     41020     41022
     41014     41017     41020     41023     41015     41014     41017     41018
     41015     41014     41017     41019     41015     41014     41017     41020
     41016     41014     41017     41018     41016     41014     41017     41019
     41016     41014     41017     41020     41017     41020     41023     41024
     41017     41020     41023     41025     41017     41020     41023     41026
     41018     41017     41020     41021     41018     41017     41020     41022
     41018     41017     41020     41023     41019     41017     41020     41021
     41019     41017     41020     41022     41019     41017     41020     41023
     41020     41023     41026     41027     41020     41023     41026     41028
     41020     41023     41026     41029     41021     41020     41023     41024
     41021     41020     41023     41025     41021     41020     41023     41026
     41022     41020     41023     41024     41022     41020     41023     41025
     41022     41020     41023     41026     41023     41026     41029     41030
     41023     41026     41029     41031     41023     41026     41029     41032
     41024     41023     41026     41027     41024     41023     41026     41028
     41024     41023     41026     41029     41025     41023     41026     41027
     41025     41023     41026     41028     41025     41023     41026     41029
     41027     41026     41029     41030     41027     41026     41029     41031
     41027     41026     41029     41032     41028     41026     41029     41030
     41028     41026     41029     41031     41028     41026     41029     41032
     41033     41037     41040     41041     41033     41037     41040     41042
     41033     41037     41040     41047     41034     41033     41037     41038
     41034     41033     41037     41039     41034     41033     41037     41040
     41035     41033     41037     41038     41035     41033     41037     41039
     41035     41033     41037     41040     41036     41033     41037     41038
     41036     41033     41037     41039     41036     41033     41037     41040
     41037     41040     41047     41043     41038     41037     41040     41041
     41038     41037     41040     41042     41038     41037     41040     41047
     41039     41037     41040     41041     41039     41037     41040     41042
     41039     41037     41040     41047     41040     41047     41043     41044
     41040     41047     41043     41045     41040     41047     41043     41046
     41041     41040     41047     41043     41042     41040     41047     41043
     41043     41046     41048     41049     41043     41046     41048     41050
     41043     41046     41048     41051     41044     41043     41046     41048
     41045     41043     41046     41048     41046     41048     41051     41052
     41046     41048     41051     41053     41046     41048     41051     41059
     41047     41043     41046     41048     41048     41051     41053     41054
     41048     41051     41059     41060     41048     41051     41059     41061
     41048     41051     41059     41062     41049     41048     41051     41052
     41049     41048     41051     41053     41049     41048     41051     41059
     41050     41048     41051     41052     41050     41048     41051     41053
     41050     41048     41051     41059     41051     41053     41054     41055
     41051     41053     41054     41056     41051     41059     41062     41063
     41052     41051     41053     41054     41052     41051     41059     41060
     41052     41051     41059     41061     41052     41051     41059     41062
     41053     41051     41059     41060     41053     41051     41059     41061
     41053     41051     41059     41062     41053     41054     41056     41057
     41053     41054     41056     41058     41053     41054     41056     41068
     41054     41053     41051     41059     41054     41056     41068     41069
     41054     41056     41068     41070     41054     41056     41068     41071
     41055     41054     41056     41057     41055     41054     41056     41058
     41055     41054     41056     41068     41056     41068     41071     41072
     41056     41068     41071     41073     41056     41068     41071     41074
     41057     41056     41068     41069     41057     41056     41068     41070
     41057     41056     41068     41071     41058     41056     41068     41069
     41058     41056     41068     41070     41058     41056     41068     41071
     41059     41062     41063     41064     41059     41062     41063     41065
     41060     41059     41062     41063     41061     41059     41062     41063
     41062     41063     41065     41066     41062     41063     41065     41067
     41062     41063     41065     41109     41063     41065     41109     41110
     41063     41065     41109     41111     41063     41065     41109     41112
     41064     41063     41065     41066     41064     41063     41065     41067
     41064     41063     41065     41109     41065     41109     41112     41113
     41065     41109     41112     41114     41065     41109     41112     41115
     41066     41065     41109     41110     41066     41065     41109     41111
     41066     41065     41109     41112     41067     41065     41109     41110
     41067     41065     41109     41111     41067     41065     41109     41112
     41068     41071     41074     41075     41068     41071     41074     41076
     41068     41071     41074     41077     41069     41068     41071     41072
     41069     41068     41071     41073     41069     41068     41071     41074
     41070     41068     41071     41072     41070     41068     41071     41073
     41070     41068     41071     41074     41071     41074     41077     41078
     41071     41074     41077     41079     41071     41074     41077     41080
     41072     41071     41074     41075     41072     41071     41074     41076
     41072     41071     41074     41077     41073     41071     41074     41075
     41073     41071     41074     41076     41073     41071     41074     41077
     41074     41077     41080     41081     41074     41077     41080     41082
     41074     41077     41080     41083     41075     41074     41077     41078
     41075     41074     41077     41079     41075     41074     41077     41080
     41076     41074     41077     41078     41076     41074     41077     41079
     41076     41074     41077     41080     41077     41080     41083     41084
     41077     41080     41083     41085     41077     41080     41083     41086
     41078     41077     41080     41081     41078     41077     41080     41082
     41078     41077     41080     41083     41079     41077     41080     41081
     41079     41077     41080     41082     41079     41077     41080     41083
     41080     41083     41086     41087     41080     41083     41086     41088
     41081     41080     41083     41084     41081     41080     41083     41085
     41081     41080     41083     41086     41082     41080     41083     41084
     41082     41080     41083     41085     41082     41080     41083     41086
     41083     41086     41088     41089     41083     41086     41088     41090
     41084     41083     41086     41087     41084     41083     41086     41088
     41085     41083     41086     41087     41085     41083     41086     41088
     41086     41088     41090     41091     41086     41088     41090     41092
     41086     41088     41090     41093     41087     41086     41088     41089
     41087     41086     41088     41090     41088     41090     41093     41094
     41088     41090     41093     41095     41088     41090     41093     41096
     41089     41088     41090     41091     41089     41088     41090     41092
     41089     41088     41090     41093     41090     41093     41096     41097
     41090     41093     41096     41098     41090     41093     41096     41099
     41091     41090     41093     41094     41091     41090     41093     41095
     41091     41090     41093     41096     41092     41090     41093     41094
     41092     41090     41093     41095     41092     41090     41093     41096
     41093     41096     41099     41100     41093     41096     41099     41101
     41093     41096     41099     41102     41094     41093     41096     41097
     41094     41093     41096     41098     41094     41093     41096     41099
     41095     41093     41096     41097     41095     41093     41096     41098
     41095     41093     41096     41099     41096     41099     41102     41103
     41096     41099     41102     41104     41096     41099     41102     41105
     41097     41096     41099     41100     41097     41096     41099     41101
     41097     41096     41099     41102     41098     41096     41099     41100
     41098     41096     41099     41101     41098     41096     41099     41102
     41099     41102     41105     41106     41099     41102     41105     41107
     41099     41102     41105     41108     41100     41099     41102     41103
     41100     41099     41102     41104     41100     41099     41102     41105
     41101     41099     41102     41103     41101     41099     41102     41104
     41101     41099     41102     41105     41103     41102     41105     41106
     41103     41102     41105     41107     41103     41102     41105     41108
     41104     41102     41105     41106     41104     41102     41105     41107
     41104     41102     41105     41108     41109     41112     41115     41116
     41109     41112     41115     41117     41109     41112     41115     41118
     41110     41109     41112     41113     41110     41109     41112     41114
     41110     41109     41112     41115     41111     41109     41112     41113
     41111     41109     41112     41114     41111     41109     41112     41115
     41112     41115     41118     41119     41112     41115     41118     41120
     41112     41115     41118     41121     41113     41112     41115     41116
     41113     41112     41115     41117     41113     41112     41115     41118
     41114     41112     41115     41116     41114     41112     41115     41117
     41114     41112     41115     41118     41115     41118     41121     41122
     41115     41118     41121     41123     41115     41118     41121     41124
     41116     41115     41118     41119     41116     41115     41118     41120
     41116     41115     41118     41121     41117     41115     41118     41119
     41117     41115     41118     41120     41117     41115     41118     41121
     41118     41121     41124     41125     41118     41121     41124     41126
     41118     41121     41124     41127     41119     41118     41121     41122
     41119     41118     41121     41123     41119     41118     41121     41124
     41120     41118     41121     41122     41120     41118     41121     41123
     41120     41118     41121     41124     41121     41124     41127     41128
     41121     41124     41127     41129     41121     41124     41127     41130
     41122     41121     41124     41125     41122     41121     41124     41126
     41122     41121     41124     41127     41123     41121     41124     41125
     41123     41121     41124     41126     41123     41121     41124     41127
     41124     41127     41130     41131     41124     41127     41130     41132
     41124     41127     41130     41133     41125     41124     41127     41128
     41125     41124     41127     41129     41125     41124     41127     41130
     41126     41124     41127     41128     41126     41124     41127     41129
     41126     41124     41127     41130     41127     41130     41133     41134
     41127     41130     41133     41135     41127     41130     41133     41136
     41128     41127     41130     41131     41128     41127     41130     41132
     41128     41127     41130     41133     41129     41127     41130     41131
     41129     41127     41130     41132     41129     41127     41130     41133
     41130     41133     41136     41137     41130     41133     41136     41138
     41130     41133     41136     41139     41131     41130     41133     41134
     41131     41130     41133     41135     41131     41130     41133     41136
     41132     41130     41133     41134     41132     41130     41133     41135
     41132     41130     41133     41136     41133     41136     41139     41140
     41133     41136     41139     41141     41133     41136     41139     41142
     41134     41133     41136     41137     41134     41133     41136     41138
     41134     41133     41136     41139     41135     41133     41136     41137
     41135     41133     41136     41138     41135     41133     41136     41139
     41136     41139     41142     41143     41136     41139     41142     41144
     41136     41139     41142     41145     41137     41136     41139     41140
     41137     41136     41139     41141     41137     41136     41139     41142
     41138     41136     41139     41140     41138     41136     41139     41141
     41138     41136     41139     41142     41139     41142     41145     41146
     41139     41142     41145     41147     41139     41142     41145     41148
     41140     41139     41142     41143     41140     41139     41142     41144
     41140     41139     41142     41145     41141     41139     41142     41143
     41141     41139     41142     41144     41141     41139     41142     41145
     41142     41145     41148     41149     41142     41145     41148     41150
     41142     41145     41148     41151     41143     41142     41145     41146
     41143     41142     41145     41147     41143     41142     41145     41148
     41144     41142     41145     41146     41144     41142     41145     41147
     41144     41142     41145     41148     41146     41145     41148     41149
     41146     41145     41148     41150     41146     41145     41148     41151
     41147     41145     41148     41149     41147     41145     41148     41150
     41147     41145     41148     41151     41152     41156     41159     41160
     41152     41156     41159     41161     41152     41156     41159     41166
     41153     41152     41156     41157     41153     41152     41156     41158
     41153     41152     41156     41159     41154     41152     41156     41157
     41154     41152     41156     41158     41154     41152     41156     41159
     41155     41152     41156     41157     41155     41152     41156     41158
     41155     41152     41156     41159     41156     41159     41166     41162
     41157     41156     41159     41160     41157     41156     41159     41161
     41157     41156     41159     41166     41158     41156     41159     41160
     41158     41156     41159     41161     41158     41156     41159     41166
     41159     41166     41162     41163     41159     41166     41162     41164
     41159     41166     41162     41165     41160     41159     41166     41162
     41161     41159     41166     41162     41162     41165     41167     41168
     41162     41165     41167     41169     41162     41165     41167     41170
     41163     41162     41165     41167     41164     41162     41165     41167
     41165     41167     41170     41171     41165     41167     41170     41172
     41165     41167     41170     41178     41166     41162     41165     41167
     41167     41170     41172     41173     41167     41170     41178     41179
     41167     41170     41178     41180     41167     41170     41178     41181
     41168     41167     41170     41171     41168     41167     41170     41172
     41168     41167     41170     41178     41169     41167     41170     41171
     41169     41167     41170     41172     41169     41167     41170     41178
     41170     41172     41173     41174     41170     41172     41173     41175
     41170     41178     41181     41182     41171     41170     41172     41173
     41171     41170     41178     41179     41171     41170     41178     41180
     41171     41170     41178     41181     41172     41170     41178     41179
     41172     41170     41178     41180     41172     41170     41178     41181
     41172     41173     41175     41176     41172     41173     41175     41177
     41172     41173     41175     41187     41173     41172     41170     41178
     41173     41175     41187     41188     41173     41175     41187     41189
     41173     41175     41187     41190     41174     41173     41175     41176
     41174     41173     41175     41177     41174     41173     41175     41187
     41175     41187     41190     41191     41175     41187     41190     41192
     41175     41187     41190     41193     41176     41175     41187     41188
     41176     41175     41187     41189     41176     41175     41187     41190
     41177     41175     41187     41188     41177     41175     41187     41189
     41177     41175     41187     41190     41178     41181     41182     41183
     41178     41181     41182     41184     41179     41178     41181     41182
     41180     41178     41181     41182     41181     41182     41184     41185
     41181     41182     41184     41186     41181     41182     41184     41228
     41182     41184     41228     41229     41182     41184     41228     41230
     41182     41184     41228     41231     41183     41182     41184     41185
     41183     41182     41184     41186     41183     41182     41184     41228
     41184     41228     41231     41232     41184     41228     41231     41233
     41184     41228     41231     41234     41185     41184     41228     41229
     41185     41184     41228     41230     41185     41184     41228     41231
     41186     41184     41228     41229     41186     41184     41228     41230
     41186     41184     41228     41231     41187     41190     41193     41194
     41187     41190     41193     41195     41187     41190     41193     41196
     41188     41187     41190     41191     41188     41187     41190     41192
     41188     41187     41190     41193     41189     41187     41190     41191
     41189     41187     41190     41192     41189     41187     41190     41193
     41190     41193     41196     41197     41190     41193     41196     41198
     41190     41193     41196     41199     41191     41190     41193     41194
     41191     41190     41193     41195     41191     41190     41193     41196
     41192     41190     41193     41194     41192     41190     41193     41195
     41192     41190     41193     41196     41193     41196     41199     41200
     41193     41196     41199     41201     41193     41196     41199     41202
     41194     41193     41196     41197     41194     41193     41196     41198
     41194     41193     41196     41199     41195     41193     41196     41197
     41195     41193     41196     41198     41195     41193     41196     41199
     41196     41199     41202     41203     41196     41199     41202     41204
     41196     41199     41202     41205     41197     41196     41199     41200
     41197     41196     41199     41201     41197     41196     41199     41202
     41198     41196     41199     41200     41198     41196     41199     41201
     41198     41196     41199     41202     41199     41202     41205     41206
     41199     41202     41205     41207     41200     41199     41202     41203
     41200     41199     41202     41204     41200     41199     41202     41205
     41201     41199     41202     41203     41201     41199     41202     41204
     41201     41199     41202     41205     41202     41205     41207     41208
     41202     41205     41207     41209     41203     41202     41205     41206
     41203     41202     41205     41207     41204     41202     41205     41206
     41204     41202     41205     41207     41205     41207     41209     41210
     41205     41207     41209     41211     41205     41207     41209     41212
     41206     41205     41207     41208     41206     41205     41207     41209
     41207     41209     41212     41213     41207     41209     41212     41214
     41207     41209     41212     41215     41208     41207     41209     41210
     41208     41207     41209     41211     41208     41207     41209     41212
     41209     41212     41215     41216     41209     41212     41215     41217
     41209     41212     41215     41218     41210     41209     41212     41213
     41210     41209     41212     41214     41210     41209     41212     41215
     41211     41209     41212     41213     41211     41209     41212     41214
     41211     41209     41212     41215     41212     41215     41218     41219
     41212     41215     41218     41220     41212     41215     41218     41221
     41213     41212     41215     41216     41213     41212     41215     41217
     41213     41212     41215     41218     41214     41212     41215     41216
     41214     41212     41215     41217     41214     41212     41215     41218
     41215     41218     41221     41222     41215     41218     41221     41223
     41215     41218     41221     41224     41216     41215     41218     41219
     41216     41215     41218     41220     41216     41215     41218     41221
     41217     41215     41218     41219     41217     41215     41218     41220
     41217     41215     41218     41221     41218     41221     41224     41225
     41218     41221     41224     41226     41218     41221     41224     41227
     41219     41218     41221     41222     41219     41218     41221     41223
     41219     41218     41221     41224     41220     41218     41221     41222
     41220     41218     41221     41223     41220     41218     41221     41224
     41222     41221     41224     41225     41222     41221     41224     41226
     41222     41221     41224     41227     41223     41221     41224     41225
     41223     41221     41224     41226     41223     41221     41224     41227
     41228     41231     41234     41235     41228     41231     41234     41236
     41228     41231     41234     41237     41229     41228     41231     41232
     41229     41228     41231     41233     41229     41228     41231     41234
     41230     41228     41231     41232     41230     41228     41231     41233
     41230     41228     41231     41234     41231     41234     41237     41238
     41231     41234     41237     41239     41231     41234     41237     41240
     41232     41231     41234     41235     41232     41231     41234     41236
     41232     41231     41234     41237     41233     41231     41234     41235
     41233     41231     41234     41236     41233     41231     41234     41237
     41234     41237     41240     41241     41234     41237     41240     41242
     41234     41237     41240     41243     41235     41234     41237     41238
     41235     41234     41237     41239     41235     41234     41237     41240
     41236     41234     41237     41238     41236     41234     41237     41239
     41236     41234     41237     41240     41237     41240     41243     41244
     41237     41240     41243     41245     41237     41240     41243     41246
     41238     41237     41240     41241     41238     41237     41240     41242
     41238     41237     41240     41243     41239     41237     41240     41241
     41239     41237     41240     41242     41239     41237     41240     41243
     41240     41243     41246     41247     41240     41243     41246     41248
     41240     41243     41246     41249     41241     41240     41243     41244
     41241     41240     41243     41245     41241     41240     41243     41246
     41242     41240     41243     41244     41242     41240     41243     41245
     41242     41240     41243     41246     41243     41246     41249     41250
     41243     41246     41249     41251     41243     41246     41249     41252
     41244     41243     41246     41247     41244     41243     41246     41248
     41244     41243     41246     41249     41245     41243     41246     41247
     41245     41243     41246     41248     41245     41243     41246     41249
     41246     41249     41252     41253     41246     41249     41252     41254
     41246     41249     41252     41255     41247     41246     41249     41250
     41247     41246     41249     41251     41247     41246     41249     41252
     41248     41246     41249     41250     41248     41246     41249     41251
     41248     41246     41249     41252     41249     41252     41255     41256
     41249     41252     41255     41257     41249     41252     41255     41258
     41250     41249     41252     41253     41250     41249     41252     41254
     41250     41249     41252     41255     41251     41249     41252     41253
     41251     41249     41252     41254     41251     41249     41252     41255
     41252     41255     41258     41259     41252     41255     41258     41260
     41252     41255     41258     41261     41253     41252     41255     41256
     41253     41252     41255     41257     41253     41252     41255     41258
     41254     41252     41255     41256     41254     41252     41255     41257
     41254     41252     41255     41258     41255     41258     41261     41262
     41255     41258     41261     41263     41255     41258     41261     41264
     41256     41255     41258     41259     41256     41255     41258     41260
     41256     41255     41258     41261     41257     41255     41258     41259
     41257     41255     41258     41260     41257     41255     41258     41261
     41258     41261     41264     41265     41258     41261     41264     41266
     41258     41261     41264     41267     41259     41258     41261     41262
     41259     41258     41261     41263     41259     41258     41261     41264
     41260     41258     41261     41262     41260     41258     41261     41263
     41260     41258     41261     41264     41261     41264     41267     41268
     41261     41264     41267     41269     41261     41264     41267     41270
     41262     41261     41264     41265     41262     41261     41264     41266
     41262     41261     41264     41267     41263     41261     41264     41265
     41263     41261     41264     41266     41263     41261     41264     41267
     41265     41264     41267     41268     41265     41264     41267     41269
     41265     41264     41267     41270     41266     41264     41267     41268
     41266     41264     41267     41269     41266     41264     41267     41270
     41271     41277     41274     41275     41271     41277     41274     41276
     41271     41277     41274     41278     41271     41282     41284     41285
     41271     41282     41286     41287     41271     41282     41286     41288
     41271     41282     41286     41292     41272     41271     41277     41274
     41272     41271     41282     41283     41272     41271     41282     41284
     41272     41271     41282     41286     41273     41271     41277     41274
     41273     41271     41282     41283     41273     41271     41282     41284
     41273     41271     41282     41286     41274     41277     41271     41282
     41274     41278     41279     41280     41274     41278     41279     41281
     41274     41278     41279     41314     41275     41274     41278     41279
     41276     41274     41278     41279     41277     41271     41282     41283
     41277     41271     41282     41284     41277     41271     41282     41286
     41277     41274     41278     41279     41278     41279     41314     41315
     41278     41279     41314     41316     41278     41279     41314     41322
     41279     41314     41316     41317     41279     41314     41322     41323
     41279     41314     41322     41324     41279     41314     41322     41325
     41280     41279     41314     41315     41280     41279     41314     41316
     41280     41279     41314     41322     41281     41279     41314     41315
     41281     41279     41314     41316     41281     41279     41314     41322
     41282     41286     41292     41289     41283     41282     41284     41285
     41283     41282     41286     41287     41283     41282     41286     41288
     41283     41282     41286     41292     41284     41282     41286     41287
     41284     41282     41286     41288     41284     41282     41286     41292
     41285     41284     41282     41286     41286     41292     41289     41290
     41286     41292     41289     41291     41286     41292     41289     41293
     41287     41286     41292     41289     41288     41286     41292     41289
     41289     41293     41294     41295     41289     41293     41294     41296
     41289     41293     41294     41297     41290     41289     41293     41294
     41291     41289     41293     41294     41292     41289     41293     41294
     41293     41294     41297     41298     41293     41294     41297     41299
     41293     41294     41297     41305     41294     41297     41299     41300
     41294     41297     41305     41306     41294     41297     41305     41307
     41294     41297     41305     41308     41295     41294     41297     41298
     41295     41294     41297     41299     41295     41294     41297     41305
     41296     41294     41297     41298     41296     41294     41297     41299
     41296     41294     41297     41305     41297     41299     41300     41301
     41297     41299     41300     41302     41297     41305     41308     41309
     41298     41297     41299     41300     41298     41297     41305     41306
     41298     41297     41305     41307     41298     41297     41305     41308
     41299     41297     41305     41306     41299     41297     41305     41307
     41299     41297     41305     41308     41299     41300     41302     41303
     41299     41300     41302     41304     41299     41300     41302     41331
     41300     41299     41297     41305     41300     41302     41331     41332
     41300     41302     41331     41333     41300     41302     41331     41334
     41301     41300     41302     41303     41301     41300     41302     41304
     41301     41300     41302     41331     41302     41331     41334     41335
     41302     41331     41334     41336     41302     41331     41334     41337
     41303     41302     41331     41332     41303     41302     41331     41333
     41303     41302     41331     41334     41304     41302     41331     41332
     41304     41302     41331     41333     41304     41302     41331     41334
     41305     41308     41309     41310     41305     41308     41309     41311
     41306     41305     41308     41309     41307     41305     41308     41309
     41308     41309     41311     41312     41308     41309     41311     41313
     41308     41309     41311     41378     41309     41311     41378     41379
     41309     41311     41378     41380     41309     41311     41378     41381
     41310     41309     41311     41312     41310     41309     41311     41313
     41310     41309     41311     41378     41311     41378     41381     41382
     41311     41378     41381     41383     41311     41378     41381     41384
     41312     41311     41378     41379     41312     41311     41378     41380
     41312     41311     41378     41381     41313     41311     41378     41379
     41313     41311     41378     41380     41313     41311     41378     41381
     41314     41316     41317     41318     41314     41316     41317     41319
     41314     41322     41325     41326     41315     41314     41316     41317
     41315     41314     41322     41323     41315     41314     41322     41324
     41315     41314     41322     41325     41316     41314     41322     41323
     41316     41314     41322     41324     41316     41314     41322     41325
     41316     41317     41319     41320     41316     41317     41319     41321
     41316     41317     41319     41421     41317     41316     41314     41322
     41317     41319     41421     41422     41317     41319     41421     41423
     41317     41319     41421     41424     41318     41317     41319     41320
     41318     41317     41319     41321     41318     41317     41319     41421
     41319     41421     41424     41425     41319     41421     41424     41426
     41319     41421     41424     41427     41320     41319     41421     41422
     41320     41319     41421     41423     41320     41319     41421     41424
     41321     41319     41421     41422     41321     41319     41421     41423
     41321     41319     41421     41424     41322     41325     41326     41327
     41322     41325     41326     41328     41323     41322     41325     41326
     41324     41322     41325     41326     41325     41326     41328     41329
     41325     41326     41328     41330     41325     41326     41328     41468
     41326     41328     41468     41469     41326     41328     41468     41470
     41326     41328     41468     41471     41327     41326     41328     41329
     41327     41326     41328     41330     41327     41326     41328     41468
     41328     41468     41471     41472     41328     41468     41471     41473
     41328     41468     41471     41474     41329     41328     41468     41469
     41329     41328     41468     41470     41329     41328     41468     41471
     41330     41328     41468     41469     41330     41328     41468     41470
     41330     41328     41468     41471     41331     41334     41337     41338
     41331     41334     41337     41339     41331     41334     41337     41340
     41332     41331     41334     41335     41332     41331     41334     41336
     41332     41331     41334     41337     41333     41331     41334     41335
     41333     41331     41334     41336     41333     41331     41334     41337
     41334     41337     41340     41341     41334     41337     41340     41342
     41334     41337     41340     41343     41335     41334     41337     41338
     41335     41334     41337     41339     41335     41334     41337     41340
     41336     41334     41337     41338     41336     41334     41337     41339
     41336     41334     41337     41340     41337     41340     41343     41344
     41337     41340     41343     41345     41337     41340     41343     41346
     41338     41337     41340     41341     41338     41337     41340     41342
     41338     41337     41340     41343     41339     41337     41340     41341
     41339     41337     41340     41342     41339     41337     41340     41343
     41340     41343     41346     41347     41340     41343     41346     41348
     41340     41343     41346     41349     41341     41340     41343     41344
     41341     41340     41343     41345     41341     41340     41343     41346
     41342     41340     41343     41344     41342     41340     41343     41345
     41342     41340     41343     41346     41343     41346     41349     41350
     41343     41346     41349     41351     41343     41346     41349     41352
     41344     41343     41346     41347     41344     41343     41346     41348
     41344     41343     41346     41349     41345     41343     41346     41347
     41345     41343     41346     41348     41345     41343     41346     41349
     41346     41349     41352     41353     41346     41349     41352     41354
     41346     41349     41352     41355     41347     41346     41349     41350
     41347     41346     41349     41351     41347     41346     41349     41352
     41348     41346     41349     41350     41348     41346     41349     41351
     41348     41346     41349     41352     41349     41352     41355     41356
     41349     41352     41355     41357     41350     41349     41352     41353
     41350     41349     41352     41354     41350     41349     41352     41355
     41351     41349     41352     41353     41351     41349     41352     41354
     41351     41349     41352     41355     41352     41355     41357     41358
     41352     41355     41357     41359     41353     41352     41355     41356
     41353     41352     41355     41357     41354     41352     41355     41356
     41354     41352     41355     41357     41355     41357     41359     41360
     41355     41357     41359     41361     41355     41357     41359     41362
     41356     41355     41357     41358     41356     41355     41357     41359
     41357     41359     41362     41363     41357     41359     41362     41364
     41357     41359     41362     41365     41358     41357     41359     41360
     41358     41357     41359     41361     41358     41357     41359     41362
     41359     41362     41365     41366     41359     41362     41365     41367
     41359     41362     41365     41368     41360     41359     41362     41363
     41360     41359     41362     41364     41360     41359     41362     41365
     41361     41359     41362     41363     41361     41359     41362     41364
     41361     41359     41362     41365     41362     41365     41368     41369
     41362     41365     41368     41370     41362     41365     41368     41371
     41363     41362     41365     41366     41363     41362     41365     41367
     41363     41362     41365     41368     41364     41362     41365     41366
     41364     41362     41365     41367     41364     41362     41365     41368
     41365     41368     41371     41372     41365     41368     41371     41373
     41365     41368     41371     41374     41366     41365     41368     41369
     41366     41365     41368     41370     41366     41365     41368     41371
     41367     41365     41368     41369     41367     41365     41368     41370
     41367     41365     41368     41371     41368     41371     41374     41375
     41368     41371     41374     41376     41368     41371     41374     41377
     41369     41368     41371     41372     41369     41368     41371     41373
     41369     41368     41371     41374     41370     41368     41371     41372
     41370     41368     41371     41373     41370     41368     41371     41374
     41372     41371     41374     41375     41372     41371     41374     41376
     41372     41371     41374     41377     41373     41371     41374     41375
     41373     41371     41374     41376     41373     41371     41374     41377
     41378     41381     41384     41385     41378     41381     41384     41386
     41378     41381     41384     41387     41379     41378     41381     41382
     41379     41378     41381     41383     41379     41378     41381     41384
     41380     41378     41381     41382     41380     41378     41381     41383
     41380     41378     41381     41384     41381     41384     41387     41388
     41381     41384     41387     41389     41381     41384     41387     41390
     41382     41381     41384     41385     41382     41381     41384     41386
     41382     41381     41384     41387     41383     41381     41384     41385
     41383     41381     41384     41386     41383     41381     41384     41387
     41384     41387     41390     41391     41384     41387     41390     41392
     41384     41387     41390     41393     41385     41384     41387     41388
     41385     41384     41387     41389     41385     41384     41387     41390
     41386     41384     41387     41388     41386     41384     41387     41389
     41386     41384     41387     41390     41387     41390     41393     41394
     41387     41390     41393     41395     41387     41390     41393     41396
     41388     41387     41390     41391     41388     41387     41390     41392
     41388     41387     41390     41393     41389     41387     41390     41391
     41389     41387     41390     41392     41389     41387     41390     41393
     41390     41393     41396     41397     41390     41393     41396     41398
     41390     41393     41396     41399     41391     41390     41393     41394
     41391     41390     41393     41395     41391     41390     41393     41396
     41392     41390     41393     41394     41392     41390     41393     41395
     41392     41390     41393     41396     41393     41396     41399     41400
     41393     41396     41399     41401     41393     41396     41399     41402
     41394     41393     41396     41397     41394     41393     41396     41398
     41394     41393     41396     41399     41395     41393     41396     41397
     41395     41393     41396     41398     41395     41393     41396     41399
     41396     41399     41402     41403     41396     41399     41402     41404
     41396     41399     41402     41405     41397     41396     41399     41400
     41397     41396     41399     41401     41397     41396     41399     41402
     41398     41396     41399     41400     41398     41396     41399     41401
     41398     41396     41399     41402     41399     41402     41405     41406
     41399     41402     41405     41407     41399     41402     41405     41408
     41400     41399     41402     41403     41400     41399     41402     41404
     41400     41399     41402     41405     41401     41399     41402     41403
     41401     41399     41402     41404     41401     41399     41402     41405
     41402     41405     41408     41409     41402     41405     41408     41410
     41402     41405     41408     41411     41403     41402     41405     41406
     41403     41402     41405     41407     41403     41402     41405     41408
     41404     41402     41405     41406     41404     41402     41405     41407
     41404     41402     41405     41408     41405     41408     41411     41412
     41405     41408     41411     41413     41405     41408     41411     41414
     41406     41405     41408     41409     41406     41405     41408     41410
     41406     41405     41408     41411     41407     41405     41408     41409
     41407     41405     41408     41410     41407     41405     41408     41411
     41408     41411     41414     41415     41408     41411     41414     41416
     41408     41411     41414     41417     41409     41408     41411     41412
     41409     41408     41411     41413     41409     41408     41411     41414
     41410     41408     41411     41412     41410     41408     41411     41413
     41410     41408     41411     41414     41411     41414     41417     41418
     41411     41414     41417     41419     41411     41414     41417     41420
     41412     41411     41414     41415     41412     41411     41414     41416
     41412     41411     41414     41417     41413     41411     41414     41415
     41413     41411     41414     41416     41413     41411     41414     41417
     41415     41414     41417     41418     41415     41414     41417     41419
     41415     41414     41417     41420     41416     41414     41417     41418
     41416     41414     41417     41419     41416     41414     41417     41420
     41421     41424     41427     41428     41421     41424     41427     41429
     41421     41424     41427     41430     41422     41421     41424     41425
     41422     41421     41424     41426     41422     41421     41424     41427
     41423     41421     41424     41425     41423     41421     41424     41426
     41423     41421     41424     41427     41424     41427     41430     41431
     41424     41427     41430     41432     41424     41427     41430     41433
     41425     41424     41427     41428     41425     41424     41427     41429
     41425     41424     41427     41430     41426     41424     41427     41428
     41426     41424     41427     41429     41426     41424     41427     41430
     41427     41430     41433     41434     41427     41430     41433     41435
     41427     41430     41433     41436     41428     41427     41430     41431
     41428     41427     41430     41432     41428     41427     41430     41433
     41429     41427     41430     41431     41429     41427     41430     41432
     41429     41427     41430     41433     41430     41433     41436     41437
     41430     41433     41436     41438     41430     41433     41436     41439
     41431     41430     41433     41434     41431     41430     41433     41435
     41431     41430     41433     41436     41432     41430     41433     41434
     41432     41430     41433     41435     41432     41430     41433     41436
     41433     41436     41439     41440     41433     41436     41439     41441
     41433     41436     41439     41442     41434     41433     41436     41437
     41434     41433     41436     41438     41434     41433     41436     41439
     41435     41433     41436     41437     41435     41433     41436     41438
     41435     41433     41436     41439     41436     41439     41442     41443
     41436     41439     41442     41444     41436     41439     41442     41445
     41437     41436     41439     41440     41437     41436     41439     41441
     41437     41436     41439     41442     41438     41436     41439     41440
     41438     41436     41439     41441     41438     41436     41439     41442
     41439     41442     41445     41446     41439     41442     41445     41447
     41440     41439     41442     41443     41440     41439     41442     41444
     41440     41439     41442     41445     41441     41439     41442     41443
     41441     41439     41442     41444     41441     41439     41442     41445
     41442     41445     41447     41448     41442     41445     41447     41449
     41443     41442     41445     41446     41443     41442     41445     41447
     41444     41442     41445     41446     41444     41442     41445     41447
     41445     41447     41449     41450     41445     41447     41449     41451
     41445     41447     41449     41452     41446     41445     41447     41448
     41446     41445     41447     41449     41447     41449     41452     41453
     41447     41449     41452     41454     41447     41449     41452     41455
     41448     41447     41449     41450     41448     41447     41449     41451
     41448     41447     41449     41452     41449     41452     41455     41456
     41449     41452     41455     41457     41449     41452     41455     41458
     41450     41449     41452     41453     41450     41449     41452     41454
     41450     41449     41452     41455     41451     41449     41452     41453
     41451     41449     41452     41454     41451     41449     41452     41455
     41452     41455     41458     41459     41452     41455     41458     41460
     41452     41455     41458     41461     41453     41452     41455     41456
     41453     41452     41455     41457     41453     41452     41455     41458
     41454     41452     41455     41456     41454     41452     41455     41457
     41454     41452     41455     41458     41455     41458     41461     41462
     41455     41458     41461     41463     41455     41458     41461     41464
     41456     41455     41458     41459     41456     41455     41458     41460
     41456     41455     41458     41461     41457     41455     41458     41459
     41457     41455     41458     41460     41457     41455     41458     41461
     41458     41461     41464     41465     41458     41461     41464     41466
     41458     41461     41464     41467     41459     41458     41461     41462
     41459     41458     41461     41463     41459     41458     41461     41464
     41460     41458     41461     41462     41460     41458     41461     41463
     41460     41458     41461     41464     41462     41461     41464     41465
     41462     41461     41464     41466     41462     41461     41464     41467
     41463     41461     41464     41465     41463     41461     41464     41466
     41463     41461     41464     41467     41468     41471     41474     41475
     41468     41471     41474     41476     41468     41471     41474     41477
     41469     41468     41471     41472     41469     41468     41471     41473
     41469     41468     41471     41474     41470     41468     41471     41472
     41470     41468     41471     41473     41470     41468     41471     41474
     41471     41474     41477     41478     41471     41474     41477     41479
     41471     41474     41477     41480     41472     41471     41474     41475
     41472     41471     41474     41476     41472     41471     41474     41477
     41473     41471     41474     41475     41473     41471     41474     41476
     41473     41471     41474     41477     41474     41477     41480     41481
     41474     41477     41480     41482     41474     41477     41480     41483
     41475     41474     41477     41478     41475     41474     41477     41479
     41475     41474     41477     41480     41476     41474     41477     41478
     41476     41474     41477     41479     41476     41474     41477     41480
     41477     41480     41483     41484     41477     41480     41483     41485
     41477     41480     41483     41486     41478     41477     41480     41481
     41478     41477     41480     41482     41478     41477     41480     41483
     41479     41477     41480     41481     41479     41477     41480     41482
     41479     41477     41480     41483     41480     41483     41486     41487
     41480     41483     41486     41488     41480     41483     41486     41489
     41481     41480     41483     41484     41481     41480     41483     41485
     41481     41480     41483     41486     41482     41480     41483     41484
     41482     41480     41483     41485     41482     41480     41483     41486
     41483     41486     41489     41490     41483     41486     41489     41491
     41483     41486     41489     41492     41484     41483     41486     41487
     41484     41483     41486     41488     41484     41483     41486     41489
     41485     41483     41486     41487     41485     41483     41486     41488
     41485     41483     41486     41489     41486     41489     41492     41493
     41486     41489     41492     41494     41486     41489     41492     41495
     41487     41486     41489     41490     41487     41486     41489     41491
     41487     41486     41489     41492     41488     41486     41489     41490
     41488     41486     41489     41491     41488     41486     41489     41492
     41489     41492     41495     41496     41489     41492     41495     41497
     41489     41492     41495     41498     41490     41489     41492     41493
     41490     41489     41492     41494     41490     41489     41492     41495
     41491     41489     41492     41493     41491     41489     41492     41494
     41491     41489     41492     41495     41492     41495     41498     41499
     41492     41495     41498     41500     41492     41495     41498     41501
     41493     41492     41495     41496     41493     41492     41495     41497
     41493     41492     41495     41498     41494     41492     41495     41496
     41494     41492     41495     41497     41494     41492     41495     41498
     41495     41498     41501     41502     41495     41498     41501     41503
     41495     41498     41501     41504     41496     41495     41498     41499
     41496     41495     41498     41500     41496     41495     41498     41501
     41497     41495     41498     41499     41497     41495     41498     41500
     41497     41495     41498     41501     41498     41501     41504     41505
     41498     41501     41504     41506     41498     41501     41504     41507
     41499     41498     41501     41502     41499     41498     41501     41503
     41499     41498     41501     41504     41500     41498     41501     41502
     41500     41498     41501     41503     41500     41498     41501     41504
     41501     41504     41507     41508     41501     41504     41507     41509
     41501     41504     41507     41510     41502     41501     41504     41505
     41502     41501     41504     41506     41502     41501     41504     41507
     41503     41501     41504     41505     41503     41501     41504     41506
     41503     41501     41504     41507     41505     41504     41507     41508
     41505     41504     41507     41509     41505     41504     41507     41510
     41506     41504     41507     41508     41506     41504     41507     41509
     41506     41504     41507     41510     41511     41515     41518     41519
     41511     41515     41518     41520     41511     41515     41518     41525
     41512     41511     41515     41516     41512     41511     41515     41517
     41512     41511     41515     41518     41513     41511     41515     41516
     41513     41511     41515     41517     41513     41511     41515     41518
     41514     41511     41515     41516     41514     41511     41515     41517
     41514     41511     41515     41518     41515     41518     41525     41521
     41516     41515     41518     41519     41516     41515     41518     41520
     41516     41515     41518     41525     41517     41515     41518     41519
     41517     41515     41518     41520     41517     41515     41518     41525
     41518     41525     41521     41522     41518     41525     41521     41523
     41518     41525     41521     41524     41519     41518     41525     41521
     41520     41518     41525     41521     41521     41524     41526     41527
     41521     41524     41526     41528     41521     41524     41526     41529
     41522     41521     41524     41526     41523     41521     41524     41526
     41524     41526     41529     41530     41524     41526     41529     41531
     41524     41526     41529     41537     41525     41521     41524     41526
     41526     41529     41531     41532     41526     41529     41537     41538
     41526     41529     41537     41539     41526     41529     41537     41540
     41527     41526     41529     41530     41527     41526     41529     41531
     41527     41526     41529     41537     41528     41526     41529     41530
     41528     41526     41529     41531     41528     41526     41529     41537
     41529     41531     41532     41533     41529     41531     41532     41534
     41529     41537     41540     41541     41530     41529     41531     41532
     41530     41529     41537     41538     41530     41529     41537     41539
     41530     41529     41537     41540     41531     41529     41537     41538
     41531     41529     41537     41539     41531     41529     41537     41540
     41531     41532     41534     41535     41531     41532     41534     41536
     41531     41532     41534     41546     41532     41531     41529     41537
     41532     41534     41546     41547     41532     41534     41546     41548
     41532     41534     41546     41549     41533     41532     41534     41535
     41533     41532     41534     41536     41533     41532     41534     41546
     41534     41546     41549     41550     41534     41546     41549     41551
     41534     41546     41549     41552     41535     41534     41546     41547
     41535     41534     41546     41548     41535     41534     41546     41549
     41536     41534     41546     41547     41536     41534     41546     41548
     41536     41534     41546     41549     41537     41540     41541     41542
     41537     41540     41541     41543     41538     41537     41540     41541
     41539     41537     41540     41541     41540     41541     41543     41544
     41540     41541     41543     41545     41540     41541     41543     41587
     41541     41543     41587     41588     41541     41543     41587     41589
     41541     41543     41587     41590     41542     41541     41543     41544
     41542     41541     41543     41545     41542     41541     41543     41587
     41543     41587     41590     41591     41543     41587     41590     41592
     41543     41587     41590     41593     41544     41543     41587     41588
     41544     41543     41587     41589     41544     41543     41587     41590
     41545     41543     41587     41588     41545     41543     41587     41589
     41545     41543     41587     41590     41546     41549     41552     41553
     41546     41549     41552     41554     41546     41549     41552     41555
     41547     41546     41549     41550     41547     41546     41549     41551
     41547     41546     41549     41552     41548     41546     41549     41550
     41548     41546     41549     41551     41548     41546     41549     41552
     41549     41552     41555     41556     41549     41552     41555     41557
     41549     41552     41555     41558     41550     41549     41552     41553
     41550     41549     41552     41554     41550     41549     41552     41555
     41551     41549     41552     41553     41551     41549     41552     41554
     41551     41549     41552     41555     41552     41555     41558     41559
     41552     41555     41558     41560     41552     41555     41558     41561
     41553     41552     41555     41556     41553     41552     41555     41557
     41553     41552     41555     41558     41554     41552     41555     41556
     41554     41552     41555     41557     41554     41552     41555     41558
     41555     41558     41561     41562     41555     41558     41561     41563
     41555     41558     41561     41564     41556     41555     41558     41559
     41556     41555     41558     41560     41556     41555     41558     41561
     41557     41555     41558     41559     41557     41555     41558     41560
     41557     41555     41558     41561     41558     41561     41564     41565
     41558     41561     41564     41566     41559     41558     41561     41562
     41559     41558     41561     41563     41559     41558     41561     41564
     41560     41558     41561     41562     41560     41558     41561     41563
     41560     41558     41561     41564     41561     41564     41566     41567
     41561     41564     41566     41568     41562     41561     41564     41565
     41562     41561     41564     41566     41563     41561     41564     41565
     41563     41561     41564     41566     41564     41566     41568     41569
     41564     41566     41568     41570     41564     41566     41568     41571
     41565     41564     41566     41567     41565     41564     41566     41568
     41566     41568     41571     41572     41566     41568     41571     41573
     41566     41568     41571     41574     41567     41566     41568     41569
     41567     41566     41568     41570     41567     41566     41568     41571
     41568     41571     41574     41575     41568     41571     41574     41576
     41568     41571     41574     41577     41569     41568     41571     41572
     41569     41568     41571     41573     41569     41568     41571     41574
     41570     41568     41571     41572     41570     41568     41571     41573
     41570     41568     41571     41574     41571     41574     41577     41578
     41571     41574     41577     41579     41571     41574     41577     41580
     41572     41571     41574     41575     41572     41571     41574     41576
     41572     41571     41574     41577     41573     41571     41574     41575
     41573     41571     41574     41576     41573     41571     41574     41577
     41574     41577     41580     41581     41574     41577     41580     41582
     41574     41577     41580     41583     41575     41574     41577     41578
     41575     41574     41577     41579     41575     41574     41577     41580
     41576     41574     41577     41578     41576     41574     41577     41579
     41576     41574     41577     41580     41577     41580     41583     41584
     41577     41580     41583     41585     41577     41580     41583     41586
     41578     41577     41580     41581     41578     41577     41580     41582
     41578     41577     41580     41583     41579     41577     41580     41581
     41579     41577     41580     41582     41579     41577     41580     41583
     41581     41580     41583     41584     41581     41580     41583     41585
     41581     41580     41583     41586     41582     41580     41583     41584
     41582     41580     41583     41585     41582     41580     41583     41586
     41587     41590     41593     41594     41587     41590     41593     41595
     41587     41590     41593     41596     41588     41587     41590     41591
     41588     41587     41590     41592     41588     41587     41590     41593
     41589     41587     41590     41591     41589     41587     41590     41592
     41589     41587     41590     41593     41590     41593     41596     41597
     41590     41593     41596     41598     41590     41593     41596     41599
     41591     41590     41593     41594     41591     41590     41593     41595
     41591     41590     41593     41596     41592     41590     41593     41594
     41592     41590     41593     41595     41592     41590     41593     41596
     41593     41596     41599     41600     41593     41596     41599     41601
     41593     41596     41599     41602     41594     41593     41596     41597
     41594     41593     41596     41598     41594     41593     41596     41599
     41595     41593     41596     41597     41595     41593     41596     41598
     41595     41593     41596     41599     41596     41599     41602     41603
     41596     41599     41602     41604     41596     41599     41602     41605
     41597     41596     41599     41600     41597     41596     41599     41601
     41597     41596     41599     41602     41598     41596     41599     41600
     41598     41596     41599     41601     41598     41596     41599     41602
     41599     41602     41605     41606     41599     41602     41605     41607
     41599     41602     41605     41608     41600     41599     41602     41603
     41600     41599     41602     41604     41600     41599     41602     41605
     41601     41599     41602     41603     41601     41599     41602     41604
     41601     41599     41602     41605     41602     41605     41608     41609
     41602     41605     41608     41610     41602     41605     41608     41611
     41603     41602     41605     41606     41603     41602     41605     41607
     41603     41602     41605     41608     41604     41602     41605     41606
     41604     41602     41605     41607     41604     41602     41605     41608
     41605     41608     41611     41612     41605     41608     41611     41613
     41605     41608     41611     41614     41606     41605     41608     41609
     41606     41605     41608     41610     41606     41605     41608     41611
     41607     41605     41608     41609     41607     41605     41608     41610
     41607     41605     41608     41611     41608     41611     41614     41615
     41608     41611     41614     41616     41608     41611     41614     41617
     41609     41608     41611     41612     41609     41608     41611     41613
     41609     41608     41611     41614     41610     41608     41611     41612
     41610     41608     41611     41613     41610     41608     41611     41614
     41611     41614     41617     41618     41611     41614     41617     41619
     41611     41614     41617     41620     41612     41611     41614     41615
     41612     41611     41614     41616     41612     41611     41614     41617
     41613     41611     41614     41615     41613     41611     41614     41616
     41613     41611     41614     41617     41614     41617     41620     41621
     41614     41617     41620     41622     41614     41617     41620     41623
     41615     41614     41617     41618     41615     41614     41617     41619
     41615     41614     41617     41620     41616     41614     41617     41618
     41616     41614     41617     41619     41616     41614     41617     41620
     41617     41620     41623     41624     41617     41620     41623     41625
     41617     41620     41623     41626     41618     41617     41620     41621
     41618     41617     41620     41622     41618     41617     41620     41623
     41619     41617     41620     41621     41619     41617     41620     41622
     41619     41617     41620     41623     41620     41623     41626     41627
     41620     41623     41626     41628     41620     41623     41626     41629
     41621     41620     41623     41624     41621     41620     41623     41625
     41621     41620     41623     41626     41622     41620     41623     41624
     41622     41620     41623     41625     41622     41620     41623     41626
     41624     41623     41626     41627     41624     41623     41626     41628
     41624     41623     41626     41629     41625     41623     41626     41627
     41625     41623     41626     41628     41625     41623     41626     41629
     41630     41635     41637     41638     41630     41635     41639     41640
     41630     41635     41639     41641     41630     41635     41639     41645
     41631     41630     41633     41634     41631     41630     41635     41636
     41631     41630     41635     41637     41631     41630     41635     41639
     41632     41630     41633     41634     41632     41630     41635     41636
     41632     41630     41635     41637     41632     41630     41635     41639
     41633     41630     41635     41636     41633     41630     41635     41637
     41633     41630     41635     41639     41634     41633     41630     41635
     41635     41639     41645     41642     41636     41635     41637     41638
     41636     41635     41639     41640     41636     41635     41639     41641
     41636     41635     41639     41645     41637     41635     41639     41640
     41637     41635     41639     41641     41637     41635     41639     41645
     41638     41637     41635     41639     41639     41645     41642     41643
     41639     41645     41642     41644     41639     41645     41642     41646
     41640     41639     41645     41642     41641     41639     41645     41642
     41642     41646     41647     41648     41642     41646     41647     41649
     41642     41646     41647     41650     41643     41642     41646     41647
     41644     41642     41646     41647     41645     41642     41646     41647
     41646     41647     41650     41651     41646     41647     41650     41652
     41646     41647     41650     41658     41647     41650     41652     41653
     41647     41650     41658     41659     41647     41650     41658     41660
     41647     41650     41658     41661     41648     41647     41650     41651
     41648     41647     41650     41652     41648     41647     41650     41658
     41649     41647     41650     41651     41649     41647     41650     41652
     41649     41647     41650     41658     41650     41652     41653     41654
     41650     41652     41653     41655     41650     41658     41661     41662
     41651     41650     41652     41653     41651     41650     41658     41659
     41651     41650     41658     41660     41651     41650     41658     41661
     41652     41650     41658     41659     41652     41650     41658     41660
     41652     41650     41658     41661     41652     41653     41655     41656
     41652     41653     41655     41657     41652     41653     41655     41667
     41653     41652     41650     41658     41653     41655     41667     41668
     41653     41655     41667     41669     41653     41655     41667     41670
     41654     41653     41655     41656     41654     41653     41655     41657
     41654     41653     41655     41667     41655     41667     41670     41671
     41655     41667     41670     41672     41655     41667     41670     41673
     41656     41655     41667     41668     41656     41655     41667     41669
     41656     41655     41667     41670     41657     41655     41667     41668
     41657     41655     41667     41669     41657     41655     41667     41670
     41658     41661     41662     41663     41658     41661     41662     41664
     41659     41658     41661     41662     41660     41658     41661     41662
     41661     41662     41664     41665     41661     41662     41664     41666
     41661     41662     41664     41714     41662     41664     41714     41715
     41662     41664     41714     41716     41662     41664     41714     41717
     41663     41662     41664     41665     41663     41662     41664     41666
     41663     41662     41664     41714     41664     41714     41717     41718
     41664     41714     41717     41719     41664     41714     41717     41720
     41665     41664     41714     41715     41665     41664     41714     41716
     41665     41664     41714     41717     41666     41664     41714     41715
     41666     41664     41714     41716     41666     41664     41714     41717
     41667     41670     41673     41674     41667     41670     41673     41675
     41667     41670     41673     41676     41668     41667     41670     41671
     41668     41667     41670     41672     41668     41667     41670     41673
     41669     41667     41670     41671     41669     41667     41670     41672
     41669     41667     41670     41673     41670     41673     41676     41677
     41670     41673     41676     41678     41670     41673     41676     41679
     41671     41670     41673     41674     41671     41670     41673     41675
     41671     41670     41673     41676     41672     41670     41673     41674
     41672     41670     41673     41675     41672     41670     41673     41676
     41673     41676     41679     41680     41673     41676     41679     41681
     41673     41676     41679     41682     41674     41673     41676     41677
     41674     41673     41676     41678     41674     41673     41676     41679
     41675     41673     41676     41677     41675     41673     41676     41678
     41675     41673     41676     41679     41676     41679     41682     41683
     41676     41679     41682     41684     41676     41679     41682     41685
     41677     41676     41679     41680     41677     41676     41679     41681
     41677     41676     41679     41682     41678     41676     41679     41680
     41678     41676     41679     41681     41678     41676     41679     41682
     41679     41682     41685     41686     41679     41682     41685     41687
     41679     41682     41685     41688     41680     41679     41682     41683
     41680     41679     41682     41684     41680     41679     41682     41685
     41681     41679     41682     41683     41681     41679     41682     41684
     41681     41679     41682     41685     41682     41685     41688     41689
     41682     41685     41688     41690     41682     41685     41688     41691
     41683     41682     41685     41686     41683     41682     41685     41687
     41683     41682     41685     41688     41684     41682     41685     41686
     41684     41682     41685     41687     41684     41682     41685     41688
     41685     41688     41691     41692     41685     41688     41691     41693
     41686     41685     41688     41689     41686     41685     41688     41690
     41686     41685     41688     41691     41687     41685     41688     41689
     41687     41685     41688     41690     41687     41685     41688     41691
     41688     41691     41693     41694     41688     41691     41693     41695
     41689     41688     41691     41692     41689     41688     41691     41693
     41690     41688     41691     41692     41690     41688     41691     41693
     41691     41693     41695     41696     41691     41693     41695     41697
     41691     41693     41695     41698     41692     41691     41693     41694
     41692     41691     41693     41695     41693     41695     41698     41699
     41693     41695     41698     41700     41693     41695     41698     41701
     41694     41693     41695     41696     41694     41693     41695     41697
     41694     41693     41695     41698     41695     41698     41701     41702
     41695     41698     41701     41703     41695     41698     41701     41704
     41696     41695     41698     41699     41696     41695     41698     41700
     41696     41695     41698     41701     41697     41695     41698     41699
     41697     41695     41698     41700     41697     41695     41698     41701
     41698     41701     41704     41705     41698     41701     41704     41706
     41698     41701     41704     41707     41699     41698     41701     41702
     41699     41698     41701     41703     41699     41698     41701     41704
     41700     41698     41701     41702     41700     41698     41701     41703
     41700     41698     41701     41704     41701     41704     41707     41708
     41701     41704     41707     41709     41701     41704     41707     41710
     41702     41701     41704     41705     41702     41701     41704     41706
     41702     41701     41704     41707     41703     41701     41704     41705
     41703     41701     41704     41706     41703     41701     41704     41707
     41704     41707     41710     41711     41704     41707     41710     41712
     41704     41707     41710     41713     41705     41704     41707     41708
     41705     41704     41707     41709     41705     41704     41707     41710
     41706     41704     41707     41708     41706     41704     41707     41709
     41706     41704     41707     41710     41708     41707     41710     41711
     41708     41707     41710     41712     41708     41707     41710     41713
     41709     41707     41710     41711     41709     41707     41710     41712
     41709     41707     41710     41713     41714     41717     41720     41721
     41714     41717     41720     41722     41714     41717     41720     41723
     41715     41714     41717     41718     41715     41714     41717     41719
     41715     41714     41717     41720     41716     41714     41717     41718
     41716     41714     41717     41719     41716     41714     41717     41720
     41717     41720     41723     41724     41717     41720     41723     41725
     41717     41720     41723     41726     41718     41717     41720     41721
     41718     41717     41720     41722     41718     41717     41720     41723
     41719     41717     41720     41721     41719     41717     41720     41722
     41719     41717     41720     41723     41720     41723     41726     41727
     41720     41723     41726     41728     41720     41723     41726     41729
     41721     41720     41723     41724     41721     41720     41723     41725
     41721     41720     41723     41726     41722     41720     41723     41724
     41722     41720     41723     41725     41722     41720     41723     41726
     41723     41726     41729     41730     41723     41726     41729     41731
     41723     41726     41729     41732     41724     41723     41726     41727
     41724     41723     41726     41728     41724     41723     41726     41729
     41725     41723     41726     41727     41725     41723     41726     41728
     41725     41723     41726     41729     41726     41729     41732     41733
     41726     41729     41732     41734     41726     41729     41732     41735
     41727     41726     41729     41730     41727     41726     41729     41731
     41727     41726     41729     41732     41728     41726     41729     41730
     41728     41726     41729     41731     41728     41726     41729     41732
     41729     41732     41735     41736     41729     41732     41735     41737
     41729     41732     41735     41738     41730     41729     41732     41733
     41730     41729     41732     41734     41730     41729     41732     41735
     41731     41729     41732     41733     41731     41729     41732     41734
     41731     41729     41732     41735     41732     41735     41738     41739
     41732     41735     41738     41740     41732     41735     41738     41741
     41733     41732     41735     41736     41733     41732     41735     41737
     41733     41732     41735     41738     41734     41732     41735     41736
     41734     41732     41735     41737     41734     41732     41735     41738
     41735     41738     41741     41742     41735     41738     41741     41743
     41735     41738     41741     41744     41736     41735     41738     41739
     41736     41735     41738     41740     41736     41735     41738     41741
     41737     41735     41738     41739     41737     41735     41738     41740
     41737     41735     41738     41741     41738     41741     41744     41745
     41738     41741     41744     41746     41738     41741     41744     41747
     41739     41738     41741     41742     41739     41738     41741     41743
     41739     41738     41741     41744     41740     41738     41741     41742
     41740     41738     41741     41743     41740     41738     41741     41744
     41741     41744     41747     41748     41741     41744     41747     41749
     41741     41744     41747     41750     41742     41741     41744     41745
     41742     41741     41744     41746     41742     41741     41744     41747
     41743     41741     41744     41745     41743     41741     41744     41746
     41743     41741     41744     41747     41744     41747     41750     41751
     41744     41747     41750     41752     41744     41747     41750     41753
     41745     41744     41747     41748     41745     41744     41747     41749
     41745     41744     41747     41750     41746     41744     41747     41748
     41746     41744     41747     41749     41746     41744     41747     41750
     41747     41750     41753     41754     41747     41750     41753     41755
     41747     41750     41753     41756     41748     41747     41750     41751
     41748     41747     41750     41752     41748     41747     41750     41753
     41749     41747     41750     41751     41749     41747     41750     41752
     41749     41747     41750     41753     41751     41750     41753     41754
     41751     41750     41753     41755     41751     41750     41753     41756
     41752     41750     41753     41754     41752     41750     41753     41755
     41752     41750     41753     41756     41757     41761     41764     41765
     41757     41761     41764     41766     41757     41761     41764     41771
     41758     41757     41761     41762     41758     41757     41761     41763
     41758     41757     41761     41764     41759     41757     41761     41762
     41759     41757     41761     41763     41759     41757     41761     41764
     41760     41757     41761     41762     41760     41757     41761     41763
     41760     41757     41761     41764     41761     41764     41771     41767
     41762     41761     41764     41765     41762     41761     41764     41766
     41762     41761     41764     41771     41763     41761     41764     41765
     41763     41761     41764     41766     41763     41761     41764     41771
     41764     41771     41767     41768     41764     41771     41767     41769
     41764     41771     41767     41770     41765     41764     41771     41767
     41766     41764     41771     41767     41767     41770     41772     41773
     41767     41770     41772     41774     41767     41770     41772     41775
     41768     41767     41770     41772     41769     41767     41770     41772
     41770     41772     41775     41776     41770     41772     41775     41777
     41770     41772     41775     41783     41771     41767     41770     41772
     41772     41775     41777     41778     41772     41775     41783     41784
     41772     41775     41783     41785     41772     41775     41783     41786
     41773     41772     41775     41776     41773     41772     41775     41777
     41773     41772     41775     41783     41774     41772     41775     41776
     41774     41772     41775     41777     41774     41772     41775     41783
     41775     41777     41778     41779     41775     41777     41778     41780
     41775     41783     41786     41787     41776     41775     41777     41778
     41776     41775     41783     41784     41776     41775     41783     41785
     41776     41775     41783     41786     41777     41775     41783     41784
     41777     41775     41783     41785     41777     41775     41783     41786
     41777     41778     41780     41781     41777     41778     41780     41782
     41777     41778     41780     41792     41778     41777     41775     41783
     41778     41780     41792     41793     41778     41780     41792     41794
     41778     41780     41792     41795     41779     41778     41780     41781
     41779     41778     41780     41782     41779     41778     41780     41792
     41780     41792     41795     41796     41780     41792     41795     41797
     41780     41792     41795     41798     41781     41780     41792     41793
     41781     41780     41792     41794     41781     41780     41792     41795
     41782     41780     41792     41793     41782     41780     41792     41794
     41782     41780     41792     41795     41783     41786     41787     41788
     41783     41786     41787     41789     41784     41783     41786     41787
     41785     41783     41786     41787     41786     41787     41789     41790
     41786     41787     41789     41791     41786     41787     41789     41833
     41787     41789     41833     41834     41787     41789     41833     41835
     41787     41789     41833     41836     41788     41787     41789     41790
     41788     41787     41789     41791     41788     41787     41789     41833
     41789     41833     41836     41837     41789     41833     41836     41838
     41789     41833     41836     41839     41790     41789     41833     41834
     41790     41789     41833     41835     41790     41789     41833     41836
     41791     41789     41833     41834     41791     41789     41833     41835
     41791     41789     41833     41836     41792     41795     41798     41799
     41792     41795     41798     41800     41792     41795     41798     41801
     41793     41792     41795     41796     41793     41792     41795     41797
     41793     41792     41795     41798     41794     41792     41795     41796
     41794     41792     41795     41797     41794     41792     41795     41798
     41795     41798     41801     41802     41795     41798     41801     41803
     41795     41798     41801     41804     41796     41795     41798     41799
     41796     41795     41798     41800     41796     41795     41798     41801
     41797     41795     41798     41799     41797     41795     41798     41800
     41797     41795     41798     41801     41798     41801     41804     41805
     41798     41801     41804     41806     41798     41801     41804     41807
     41799     41798     41801     41802     41799     41798     41801     41803
     41799     41798     41801     41804     41800     41798     41801     41802
     41800     41798     41801     41803     41800     41798     41801     41804
     41801     41804     41807     41808     41801     41804     41807     41809
     41801     41804     41807     41810     41802     41801     41804     41805
     41802     41801     41804     41806     41802     41801     41804     41807
     41803     41801     41804     41805     41803     41801     41804     41806
     41803     41801     41804     41807     41804     41807     41810     41811
     41804     41807     41810     41812     41805     41804     41807     41808
     41805     41804     41807     41809     41805     41804     41807     41810
     41806     41804     41807     41808     41806     41804     41807     41809
     41806     41804     41807     41810     41807     41810     41812     41813
     41807     41810     41812     41814     41808     41807     41810     41811
     41808     41807     41810     41812     41809     41807     41810     41811
     41809     41807     41810     41812     41810     41812     41814     41815
     41810     41812     41814     41816     41810     41812     41814     41817
     41811     41810     41812     41813     41811     41810     41812     41814
     41812     41814     41817     41818     41812     41814     41817     41819
     41812     41814     41817     41820     41813     41812     41814     41815
     41813     41812     41814     41816     41813     41812     41814     41817
     41814     41817     41820     41821     41814     41817     41820     41822
     41814     41817     41820     41823     41815     41814     41817     41818
     41815     41814     41817     41819     41815     41814     41817     41820
     41816     41814     41817     41818     41816     41814     41817     41819
     41816     41814     41817     41820     41817     41820     41823     41824
     41817     41820     41823     41825     41817     41820     41823     41826
     41818     41817     41820     41821     41818     41817     41820     41822
     41818     41817     41820     41823     41819     41817     41820     41821
     41819     41817     41820     41822     41819     41817     41820     41823
     41820     41823     41826     41827     41820     41823     41826     41828
     41820     41823     41826     41829     41821     41820     41823     41824
     41821     41820     41823     41825     41821     41820     41823     41826
     41822     41820     41823     41824     41822     41820     41823     41825
     41822     41820     41823     41826     41823     41826     41829     41830
     41823     41826     41829     41831     41823     41826     41829     41832
     41824     41823     41826     41827     41824     41823     41826     41828
     41824     41823     41826     41829     41825     41823     41826     41827
     41825     41823     41826     41828     41825     41823     41826     41829
     41827     41826     41829     41830     41827     41826     41829     41831
     41827     41826     41829     41832     41828     41826     41829     41830
     41828     41826     41829     41831     41828     41826     41829     41832
     41833     41836     41839     41840     41833     41836     41839     41841
     41833     41836     41839     41842     41834     41833     41836     41837
     41834     41833     41836     41838     41834     41833     41836     41839
     41835     41833     41836     41837     41835     41833     41836     41838
     41835     41833     41836     41839     41836     41839     41842     41843
     41836     41839     41842     41844     41836     41839     41842     41845
     41837     41836     41839     41840     41837     41836     41839     41841
     41837     41836     41839     41842     41838     41836     41839     41840
     41838     41836     41839     41841     41838     41836     41839     41842
     41839     41842     41845     41846     41839     41842     41845     41847
     41839     41842     41845     41848     41840     41839     41842     41843
     41840     41839     41842     41844     41840     41839     41842     41845
     41841     41839     41842     41843     41841     41839     41842     41844
     41841     41839     41842     41845     41842     41845     41848     41849
     41842     41845     41848     41850     41842     41845     41848     41851
     41843     41842     41845     41846     41843     41842     41845     41847
     41843     41842     41845     41848     41844     41842     41845     41846
     41844     41842     41845     41847     41844     41842     41845     41848
     41845     41848     41851     41852     41845     41848     41851     41853
     41845     41848     41851     41854     41846     41845     41848     41849
     41846     41845     41848     41850     41846     41845     41848     41851
     41847     41845     41848     41849     41847     41845     41848     41850
     41847     41845     41848     41851     41848     41851     41854     41855
     41848     41851     41854     41856     41848     41851     41854     41857
     41849     41848     41851     41852     41849     41848     41851     41853
     41849     41848     41851     41854     41850     41848     41851     41852
     41850     41848     41851     41853     41850     41848     41851     41854
     41851     41854     41857     41858     41851     41854     41857     41859
     41851     41854     41857     41860     41852     41851     41854     41855
     41852     41851     41854     41856     41852     41851     41854     41857
     41853     41851     41854     41855     41853     41851     41854     41856
     41853     41851     41854     41857     41854     41857     41860     41861
     41854     41857     41860     41862     41854     41857     41860     41863
     41855     41854     41857     41858     41855     41854     41857     41859
     41855     41854     41857     41860     41856     41854     41857     41858
     41856     41854     41857     41859     41856     41854     41857     41860
     41857     41860     41863     41864     41857     41860     41863     41865
     41857     41860     41863     41866     41858     41857     41860     41861
     41858     41857     41860     41862     41858     41857     41860     41863
     41859     41857     41860     41861     41859     41857     41860     41862
     41859     41857     41860     41863     41860     41863     41866     41867
     41860     41863     41866     41868     41860     41863     41866     41869
     41861     41860     41863     41864     41861     41860     41863     41865
     41861     41860     41863     41866     41862     41860     41863     41864
     41862     41860     41863     41865     41862     41860     41863     41866
     41863     41866     41869     41870     41863     41866     41869     41871
     41863     41866     41869     41872     41864     41863     41866     41867
     41864     41863     41866     41868     41864     41863     41866     41869
     41865     41863     41866     41867     41865     41863     41866     41868
     41865     41863     41866     41869     41866     41869     41872     41873
     41866     41869     41872     41874     41866     41869     41872     41875
     41867     41866     41869     41870     41867     41866     41869     41871
     41867     41866     41869     41872     41868     41866     41869     41870
     41868     41866     41869     41871     41868     41866     41869     41872
     41870     41869     41872     41873     41870     41869     41872     41874
     41870     41869     41872     41875     41871     41869     41872     41873
     41871     41869     41872     41874     41871     41869     41872     41875
     41876     41880     41883     41884     41876     41880     41883     41885
     41876     41880     41883     41890     41877     41876     41880     41881
     41877     41876     41880     41882     41877     41876     41880     41883
     41878     41876     41880     41881     41878     41876     41880     41882
     41878     41876     41880     41883     41879     41876     41880     41881
     41879     41876     41880     41882     41879     41876     41880     41883
     41880     41883     41890     41886     41881     41880     41883     41884
     41881     41880     41883     41885     41881     41880     41883     41890
     41882     41880     41883     41884     41882     41880     41883     41885
     41882     41880     41883     41890     41883     41890     41886     41887
     41883     41890     41886     41888     41883     41890     41886     41889
     41884     41883     41890     41886     41885     41883     41890     41886
     41886     41889     41891     41892     41886     41889     41891     41893
     41886     41889     41891     41894     41887     41886     41889     41891
     41888     41886     41889     41891     41889     41891     41894     41895
     41889     41891     41894     41896     41889     41891     41894     41902
     41890     41886     41889     41891     41891     41894     41896     41897
     41891     41894     41902     41903     41891     41894     41902     41904
     41891     41894     41902     41905     41892     41891     41894     41895
     41892     41891     41894     41896     41892     41891     41894     41902
     41893     41891     41894     41895     41893     41891     41894     41896
     41893     41891     41894     41902     41894     41896     41897     41898
     41894     41896     41897     41899     41894     41902     41905     41906
     41895     41894     41896     41897     41895     41894     41902     41903
     41895     41894     41902     41904     41895     41894     41902     41905
     41896     41894     41902     41903     41896     41894     41902     41904
     41896     41894     41902     41905     41896     41897     41899     41900
     41896     41897     41899     41901     41896     41897     41899     41911
     41897     41896     41894     41902     41897     41899     41911     41912
     41897     41899     41911     41913     41897     41899     41911     41914
     41898     41897     41899     41900     41898     41897     41899     41901
     41898     41897     41899     41911     41899     41911     41914     41915
     41899     41911     41914     41916     41899     41911     41914     41917
     41900     41899     41911     41912     41900     41899     41911     41913
     41900     41899     41911     41914     41901     41899     41911     41912
     41901     41899     41911     41913     41901     41899     41911     41914
     41902     41905     41906     41907     41902     41905     41906     41908
     41903     41902     41905     41906     41904     41902     41905     41906
     41905     41906     41908     41909     41905     41906     41908     41910
     41905     41906     41908     41952     41906     41908     41952     41953
     41906     41908     41952     41954     41906     41908     41952     41955
     41907     41906     41908     41909     41907     41906     41908     41910
     41907     41906     41908     41952     41908     41952     41955     41956
     41908     41952     41955     41957     41908     41952     41955     41958
     41909     41908     41952     41953     41909     41908     41952     41954
     41909     41908     41952     41955     41910     41908     41952     41953
     41910     41908     41952     41954     41910     41908     41952     41955
     41911     41914     41917     41918     41911     41914     41917     41919
     41911     41914     41917     41920     41912     41911     41914     41915
     41912     41911     41914     41916     41912     41911     41914     41917
     41913     41911     41914     41915     41913     41911     41914     41916
     41913     41911     41914     41917     41914     41917     41920     41921
     41914     41917     41920     41922     41914     41917     41920     41923
     41915     41914     41917     41918     41915     41914     41917     41919
     41915     41914     41917     41920     41916     41914     41917     41918
     41916     41914     41917     41919     41916     41914     41917     41920
     41917     41920     41923     41924     41917     41920     41923     41925
     41917     41920     41923     41926     41918     41917     41920     41921
     41918     41917     41920     41922     41918     41917     41920     41923
     41919     41917     41920     41921     41919     41917     41920     41922
     41919     41917     41920     41923     41920     41923     41926     41927
     41920     41923     41926     41928     41920     41923     41926     41929
     41921     41920     41923     41924     41921     41920     41923     41925
     41921     41920     41923     41926     41922     41920     41923     41924
     41922     41920     41923     41925     41922     41920     41923     41926
     41923     41926     41929     41930     41923     41926     41929     41931
     41924     41923     41926     41927     41924     41923     41926     41928
     41924     41923     41926     41929     41925     41923     41926     41927
     41925     41923     41926     41928     41925     41923     41926     41929
     41926     41929     41931     41932     41926     41929     41931     41933
     41927     41926     41929     41930     41927     41926     41929     41931
     41928     41926     41929     41930     41928     41926     41929     41931
     41929     41931     41933     41934     41929     41931     41933     41935
     41929     41931     41933     41936     41930     41929     41931     41932
     41930     41929     41931     41933     41931     41933     41936     41937
     41931     41933     41936     41938     41931     41933     41936     41939
     41932     41931     41933     41934     41932     41931     41933     41935
     41932     41931     41933     41936     41933     41936     41939     41940
     41933     41936     41939     41941     41933     41936     41939     41942
     41934     41933     41936     41937     41934     41933     41936     41938
     41934     41933     41936     41939     41935     41933     41936     41937
     41935     41933     41936     41938     41935     41933     41936     41939
     41936     41939     41942     41943     41936     41939     41942     41944
     41936     41939     41942     41945     41937     41936     41939     41940
     41937     41936     41939     41941     41937     41936     41939     41942
     41938     41936     41939     41940     41938     41936     41939     41941
     41938     41936     41939     41942     41939     41942     41945     41946
     41939     41942     41945     41947     41939     41942     41945     41948
     41940     41939     41942     41943     41940     41939     41942     41944
     41940     41939     41942     41945     41941     41939     41942     41943
     41941     41939     41942     41944     41941     41939     41942     41945
     41942     41945     41948     41949     41942     41945     41948     41950
     41942     41945     41948     41951     41943     41942     41945     41946
     41943     41942     41945     41947     41943     41942     41945     41948
     41944     41942     41945     41946     41944     41942     41945     41947
     41944     41942     41945     41948     41946     41945     41948     41949
     41946     41945     41948     41950     41946     41945     41948     41951
     41947     41945     41948     41949     41947     41945     41948     41950
     41947     41945     41948     41951     41952     41955     41958     41959
     41952     41955     41958     41960     41952     41955     41958     41961
     41953     41952     41955     41956     41953     41952     41955     41957
     41953     41952     41955     41958     41954     41952     41955     41956
     41954     41952     41955     41957     41954     41952     41955     41958
     41955     41958     41961     41962     41955     41958     41961     41963
     41955     41958     41961     41964     41956     41955     41958     41959
     41956     41955     41958     41960     41956     41955     41958     41961
     41957     41955     41958     41959     41957     41955     41958     41960
     41957     41955     41958     41961     41958     41961     41964     41965
     41958     41961     41964     41966     41958     41961     41964     41967
     41959     41958     41961     41962     41959     41958     41961     41963
     41959     41958     41961     41964     41960     41958     41961     41962
     41960     41958     41961     41963     41960     41958     41961     41964
     41961     41964     41967     41968     41961     41964     41967     41969
     41961     41964     41967     41970     41962     41961     41964     41965
     41962     41961     41964     41966     41962     41961     41964     41967
     41963     41961     41964     41965     41963     41961     41964     41966
     41963     41961     41964     41967     41964     41967     41970     41971
     41964     41967     41970     41972     41964     41967     41970     41973
     41965     41964     41967     41968     41965     41964     41967     41969
     41965     41964     41967     41970     41966     41964     41967     41968
     41966     41964     41967     41969     41966     41964     41967     41970
     41967     41970     41973     41974     41967     41970     41973     41975
     41967     41970     41973     41976     41968     41967     41970     41971
     41968     41967     41970     41972     41968     41967     41970     41973
     41969     41967     41970     41971     41969     41967     41970     41972
     41969     41967     41970     41973     41970     41973     41976     41977
     41970     41973     41976     41978     41970     41973     41976     41979
     41971     41970     41973     41974     41971     41970     41973     41975
     41971     41970     41973     41976     41972     41970     41973     41974
     41972     41970     41973     41975     41972     41970     41973     41976
     41973     41976     41979     41980     41973     41976     41979     41981
     41973     41976     41979     41982     41974     41973     41976     41977
     41974     41973     41976     41978     41974     41973     41976     41979
     41975     41973     41976     41977     41975     41973     41976     41978
     41975     41973     41976     41979     41976     41979     41982     41983
     41976     41979     41982     41984     41976     41979     41982     41985
     41977     41976     41979     41980     41977     41976     41979     41981
     41977     41976     41979     41982     41978     41976     41979     41980
     41978     41976     41979     41981     41978     41976     41979     41982
     41979     41982     41985     41986     41979     41982     41985     41987
     41979     41982     41985     41988     41980     41979     41982     41983
     41980     41979     41982     41984     41980     41979     41982     41985
     41981     41979     41982     41983     41981     41979     41982     41984
     41981     41979     41982     41985     41982     41985     41988     41989
     41982     41985     41988     41990     41982     41985     41988     41991
     41983     41982     41985     41986     41983     41982     41985     41987
     41983     41982     41985     41988     41984     41982     41985     41986
     41984     41982     41985     41987     41984     41982     41985     41988
     41985     41988     41991     41992     41985     41988     41991     41993
     41985     41988     41991     41994     41986     41985     41988     41989
     41986     41985     41988     41990     41986     41985     41988     41991
     41987     41985     41988     41989     41987     41985     41988     41990
     41987     41985     41988     41991     41989     41988     41991     41992
     41989     41988     41991     41993     41989     41988     41991     41994
     41990     41988     41991     41992     41990     41988     41991     41993
     41990     41988     41991     41994     41995     41999     42002     42003
     41995     41999     42002     42004     41995     41999     42002     42009
     41996     41995     41999     42000     41996     41995     41999     42001
     41996     41995     41999     42002     41997     41995     41999     42000
     41997     41995     41999     42001     41997     41995     41999     42002
     41998     41995     41999     42000     41998     41995     41999     42001
     41998     41995     41999     42002     41999     42002     42009     42005
     42000     41999     42002     42003     42000     41999     42002     42004
     42000     41999     42002     42009     42001     41999     42002     42003
     42001     41999     42002     42004     42001     41999     42002     42009
     42002     42009     42005     42006     42002     42009     42005     42007
     42002     42009     42005     42008     42003     42002     42009     42005
     42004     42002     42009     42005     42005     42008     42010     42011
     42005     42008     42010     42012     42005     42008     42010     42013
     42006     42005     42008     42010     42007     42005     42008     42010
     42008     42010     42013     42014     42008     42010     42013     42015
     42008     42010     42013     42021     42009     42005     42008     42010
     42010     42013     42015     42016     42010     42013     42021     42022
     42010     42013     42021     42023     42010     42013     42021     42024
     42011     42010     42013     42014     42011     42010     42013     42015
     42011     42010     42013     42021     42012     42010     42013     42014
     42012     42010     42013     42015     42012     42010     42013     42021
     42013     42015     42016     42017     42013     42015     42016     42018
     42013     42021     42024     42025     42014     42013     42015     42016
     42014     42013     42021     42022     42014     42013     42021     42023
     42014     42013     42021     42024     42015     42013     42021     42022
     42015     42013     42021     42023     42015     42013     42021     42024
     42015     42016     42018     42019     42015     42016     42018     42020
     42015     42016     42018     42030     42016     42015     42013     42021
     42016     42018     42030     42031     42016     42018     42030     42032
     42016     42018     42030     42033     42017     42016     42018     42019
     42017     42016     42018     42020     42017     42016     42018     42030
     42018     42030     42033     42034     42018     42030     42033     42035
     42018     42030     42033     42036     42019     42018     42030     42031
     42019     42018     42030     42032     42019     42018     42030     42033
     42020     42018     42030     42031     42020     42018     42030     42032
     42020     42018     42030     42033     42021     42024     42025     42026
     42021     42024     42025     42027     42022     42021     42024     42025
     42023     42021     42024     42025     42024     42025     42027     42028
     42024     42025     42027     42029     42024     42025     42027     42071
     42025     42027     42071     42072     42025     42027     42071     42073
     42025     42027     42071     42074     42026     42025     42027     42028
     42026     42025     42027     42029     42026     42025     42027     42071
     42027     42071     42074     42075     42027     42071     42074     42076
     42027     42071     42074     42077     42028     42027     42071     42072
     42028     42027     42071     42073     42028     42027     42071     42074
     42029     42027     42071     42072     42029     42027     42071     42073
     42029     42027     42071     42074     42030     42033     42036     42037
     42030     42033     42036     42038     42030     42033     42036     42039
     42031     42030     42033     42034     42031     42030     42033     42035
     42031     42030     42033     42036     42032     42030     42033     42034
     42032     42030     42033     42035     42032     42030     42033     42036
     42033     42036     42039     42040     42033     42036     42039     42041
     42033     42036     42039     42042     42034     42033     42036     42037
     42034     42033     42036     42038     42034     42033     42036     42039
     42035     42033     42036     42037     42035     42033     42036     42038
     42035     42033     42036     42039     42036     42039     42042     42043
     42036     42039     42042     42044     42036     42039     42042     42045
     42037     42036     42039     42040     42037     42036     42039     42041
     42037     42036     42039     42042     42038     42036     42039     42040
     42038     42036     42039     42041     42038     42036     42039     42042
     42039     42042     42045     42046     42039     42042     42045     42047
     42039     42042     42045     42048     42040     42039     42042     42043
     42040     42039     42042     42044     42040     42039     42042     42045
     42041     42039     42042     42043     42041     42039     42042     42044
     42041     42039     42042     42045     42042     42045     42048     42049
     42042     42045     42048     42050     42043     42042     42045     42046
     42043     42042     42045     42047     42043     42042     42045     42048
     42044     42042     42045     42046     42044     42042     42045     42047
     42044     42042     42045     42048     42045     42048     42050     42051
     42045     42048     42050     42052     42046     42045     42048     42049
     42046     42045     42048     42050     42047     42045     42048     42049
     42047     42045     42048     42050     42048     42050     42052     42053
     42048     42050     42052     42054     42048     42050     42052     42055
     42049     42048     42050     42051     42049     42048     42050     42052
     42050     42052     42055     42056     42050     42052     42055     42057
     42050     42052     42055     42058     42051     42050     42052     42053
     42051     42050     42052     42054     42051     42050     42052     42055
     42052     42055     42058     42059     42052     42055     42058     42060
     42052     42055     42058     42061     42053     42052     42055     42056
     42053     42052     42055     42057     42053     42052     42055     42058
     42054     42052     42055     42056     42054     42052     42055     42057
     42054     42052     42055     42058     42055     42058     42061     42062
     42055     42058     42061     42063     42055     42058     42061     42064
     42056     42055     42058     42059     42056     42055     42058     42060
     42056     42055     42058     42061     42057     42055     42058     42059
     42057     42055     42058     42060     42057     42055     42058     42061
     42058     42061     42064     42065     42058     42061     42064     42066
     42058     42061     42064     42067     42059     42058     42061     42062
     42059     42058     42061     42063     42059     42058     42061     42064
     42060     42058     42061     42062     42060     42058     42061     42063
     42060     42058     42061     42064     42061     42064     42067     42068
     42061     42064     42067     42069     42061     42064     42067     42070
     42062     42061     42064     42065     42062     42061     42064     42066
     42062     42061     42064     42067     42063     42061     42064     42065
     42063     42061     42064     42066     42063     42061     42064     42067
     42065     42064     42067     42068     42065     42064     42067     42069
     42065     42064     42067     42070     42066     42064     42067     42068
     42066     42064     42067     42069     42066     42064     42067     42070
     42071     42074     42077     42078     42071     42074     42077     42079
     42071     42074     42077     42080     42072     42071     42074     42075
     42072     42071     42074     42076     42072     42071     42074     42077
     42073     42071     42074     42075     42073     42071     42074     42076
     42073     42071     42074     42077     42074     42077     42080     42081
     42074     42077     42080     42082     42074     42077     42080     42083
     42075     42074     42077     42078     42075     42074     42077     42079
     42075     42074     42077     42080     42076     42074     42077     42078
     42076     42074     42077     42079     42076     42074     42077     42080
     42077     42080     42083     42084     42077     42080     42083     42085
     42077     42080     42083     42086     42078     42077     42080     42081
     42078     42077     42080     42082     42078     42077     42080     42083
     42079     42077     42080     42081     42079     42077     42080     42082
     42079     42077     42080     42083     42080     42083     42086     42087
     42080     42083     42086     42088     42080     42083     42086     42089
     42081     42080     42083     42084     42081     42080     42083     42085
     42081     42080     42083     42086     42082     42080     42083     42084
     42082     42080     42083     42085     42082     42080     42083     42086
     42083     42086     42089     42090     42083     42086     42089     42091
     42083     42086     42089     42092     42084     42083     42086     42087
     42084     42083     42086     42088     42084     42083     42086     42089
     42085     42083     42086     42087     42085     42083     42086     42088
     42085     42083     42086     42089     42086     42089     42092     42093
     42086     42089     42092     42094     42086     42089     42092     42095
     42087     42086     42089     42090     42087     42086     42089     42091
     42087     42086     42089     42092     42088     42086     42089     42090
     42088     42086     42089     42091     42088     42086     42089     42092
     42089     42092     42095     42096     42089     42092     42095     42097
     42089     42092     42095     42098     42090     42089     42092     42093
     42090     42089     42092     42094     42090     42089     42092     42095
     42091     42089     42092     42093     42091     42089     42092     42094
     42091     42089     42092     42095     42092     42095     42098     42099
     42092     42095     42098     42100     42092     42095     42098     42101
     42093     42092     42095     42096     42093     42092     42095     42097
     42093     42092     42095     42098     42094     42092     42095     42096
     42094     42092     42095     42097     42094     42092     42095     42098
     42095     42098     42101     42102     42095     42098     42101     42103
     42095     42098     42101     42104     42096     42095     42098     42099
     42096     42095     42098     42100     42096     42095     42098     42101
     42097     42095     42098     42099     42097     42095     42098     42100
     42097     42095     42098     42101     42098     42101     42104     42105
     42098     42101     42104     42106     42098     42101     42104     42107
     42099     42098     42101     42102     42099     42098     42101     42103
     42099     42098     42101     42104     42100     42098     42101     42102
     42100     42098     42101     42103     42100     42098     42101     42104
     42101     42104     42107     42108     42101     42104     42107     42109
     42101     42104     42107     42110     42102     42101     42104     42105
     42102     42101     42104     42106     42102     42101     42104     42107
     42103     42101     42104     42105     42103     42101     42104     42106
     42103     42101     42104     42107     42104     42107     42110     42111
     42104     42107     42110     42112     42104     42107     42110     42113
     42105     42104     42107     42108     42105     42104     42107     42109
     42105     42104     42107     42110     42106     42104     42107     42108
     42106     42104     42107     42109     42106     42104     42107     42110
     42108     42107     42110     42111     42108     42107     42110     42112
     42108     42107     42110     42113     42109     42107     42110     42111
     42109     42107     42110     42112     42109     42107     42110     42113
     42114     42118     42121     42122     42114     42118     42121     42123
     42114     42118     42121     42128     42115     42114     42118     42119
     42115     42114     42118     42120     42115     42114     42118     42121
     42116     42114     42118     42119     42116     42114     42118     42120
     42116     42114     42118     42121     42117     42114     42118     42119
     42117     42114     42118     42120     42117     42114     42118     42121
     42118     42121     42128     42124     42119     42118     42121     42122
     42119     42118     42121     42123     42119     42118     42121     42128
     42120     42118     42121     42122     42120     42118     42121     42123
     42120     42118     42121     42128     42121     42128     42124     42125
     42121     42128     42124     42126     42121     42128     42124     42127
     42122     42121     42128     42124     42123     42121     42128     42124
     42124     42127     42129     42130     42124     42127     42129     42131
     42124     42127     42129     42132     42125     42124     42127     42129
     42126     42124     42127     42129     42127     42129     42132     42133
     42127     42129     42132     42134     42127     42129     42132     42140
     42128     42124     42127     42129     42129     42132     42134     42135
     42129     42132     42140     42141     42129     42132     42140     42142
     42129     42132     42140     42143     42130     42129     42132     42133
     42130     42129     42132     42134     42130     42129     42132     42140
     42131     42129     42132     42133     42131     42129     42132     42134
     42131     42129     42132     42140     42132     42134     42135     42136
     42132     42134     42135     42137     42132     42140     42143     42144
     42133     42132     42134     42135     42133     42132     42140     42141
     42133     42132     42140     42142     42133     42132     42140     42143
     42134     42132     42140     42141     42134     42132     42140     42142
     42134     42132     42140     42143     42134     42135     42137     42138
     42134     42135     42137     42139     42134     42135     42137     42149
     42135     42134     42132     42140     42135     42137     42149     42150
     42135     42137     42149     42151     42135     42137     42149     42152
     42136     42135     42137     42138     42136     42135     42137     42139
     42136     42135     42137     42149     42137     42149     42152     42153
     42137     42149     42152     42154     42137     42149     42152     42155
     42138     42137     42149     42150     42138     42137     42149     42151
     42138     42137     42149     42152     42139     42137     42149     42150
     42139     42137     42149     42151     42139     42137     42149     42152
     42140     42143     42144     42145     42140     42143     42144     42146
     42141     42140     42143     42144     42142     42140     42143     42144
     42143     42144     42146     42147     42143     42144     42146     42148
     42143     42144     42146     42190     42144     42146     42190     42191
     42144     42146     42190     42192     42144     42146     42190     42193
     42145     42144     42146     42147     42145     42144     42146     42148
     42145     42144     42146     42190     42146     42190     42193     42194
     42146     42190     42193     42195     42146     42190     42193     42196
     42147     42146     42190     42191     42147     42146     42190     42192
     42147     42146     42190     42193     42148     42146     42190     42191
     42148     42146     42190     42192     42148     42146     42190     42193
     42149     42152     42155     42156     42149     42152     42155     42157
     42149     42152     42155     42158     42150     42149     42152     42153
     42150     42149     42152     42154     42150     42149     42152     42155
     42151     42149     42152     42153     42151     42149     42152     42154
     42151     42149     42152     42155     42152     42155     42158     42159
     42152     42155     42158     42160     42152     42155     42158     42161
     42153     42152     42155     42156     42153     42152     42155     42157
     42153     42152     42155     42158     42154     42152     42155     42156
     42154     42152     42155     42157     42154     42152     42155     42158
     42155     42158     42161     42162     42155     42158     42161     42163
     42155     42158     42161     42164     42156     42155     42158     42159
     42156     42155     42158     42160     42156     42155     42158     42161
     42157     42155     42158     42159     42157     42155     42158     42160
     42157     42155     42158     42161     42158     42161     42164     42165
     42158     42161     42164     42166     42158     42161     42164     42167
     42159     42158     42161     42162     42159     42158     42161     42163
     42159     42158     42161     42164     42160     42158     42161     42162
     42160     42158     42161     42163     42160     42158     42161     42164
     42161     42164     42167     42168     42161     42164     42167     42169
     42162     42161     42164     42165     42162     42161     42164     42166
     42162     42161     42164     42167     42163     42161     42164     42165
     42163     42161     42164     42166     42163     42161     42164     42167
     42164     42167     42169     42170     42164     42167     42169     42171
     42165     42164     42167     42168     42165     42164     42167     42169
     42166     42164     42167     42168     42166     42164     42167     42169
     42167     42169     42171     42172     42167     42169     42171     42173
     42167     42169     42171     42174     42168     42167     42169     42170
     42168     42167     42169     42171     42169     42171     42174     42175
     42169     42171     42174     42176     42169     42171     42174     42177
     42170     42169     42171     42172     42170     42169     42171     42173
     42170     42169     42171     42174     42171     42174     42177     42178
     42171     42174     42177     42179     42171     42174     42177     42180
     42172     42171     42174     42175     42172     42171     42174     42176
     42172     42171     42174     42177     42173     42171     42174     42175
     42173     42171     42174     42176     42173     42171     42174     42177
     42174     42177     42180     42181     42174     42177     42180     42182
     42174     42177     42180     42183     42175     42174     42177     42178
     42175     42174     42177     42179     42175     42174     42177     42180
     42176     42174     42177     42178     42176     42174     42177     42179
     42176     42174     42177     42180     42177     42180     42183     42184
     42177     42180     42183     42185     42177     42180     42183     42186
     42178     42177     42180     42181     42178     42177     42180     42182
     42178     42177     42180     42183     42179     42177     42180     42181
     42179     42177     42180     42182     42179     42177     42180     42183
     42180     42183     42186     42187     42180     42183     42186     42188
     42180     42183     42186     42189     42181     42180     42183     42184
     42181     42180     42183     42185     42181     42180     42183     42186
     42182     42180     42183     42184     42182     42180     42183     42185
     42182     42180     42183     42186     42184     42183     42186     42187
     42184     42183     42186     42188     42184     42183     42186     42189
     42185     42183     42186     42187     42185     42183     42186     42188
     42185     42183     42186     42189     42190     42193     42196     42197
     42190     42193     42196     42198     42190     42193     42196     42199
     42191     42190     42193     42194     42191     42190     42193     42195
     42191     42190     42193     42196     42192     42190     42193     42194
     42192     42190     42193     42195     42192     42190     42193     42196
     42193     42196     42199     42200     42193     42196     42199     42201
     42193     42196     42199     42202     42194     42193     42196     42197
     42194     42193     42196     42198     42194     42193     42196     42199
     42195     42193     42196     42197     42195     42193     42196     42198
     42195     42193     42196     42199     42196     42199     42202     42203
     42196     42199     42202     42204     42196     42199     42202     42205
     42197     42196     42199     42200     42197     42196     42199     42201
     42197     42196     42199     42202     42198     42196     42199     42200
     42198     42196     42199     42201     42198     42196     42199     42202
     42199     42202     42205     42206     42199     42202     42205     42207
     42199     42202     42205     42208     42200     42199     42202     42203
     42200     42199     42202     42204     42200     42199     42202     42205
     42201     42199     42202     42203     42201     42199     42202     42204
     42201     42199     42202     42205     42202     42205     42208     42209
     42202     42205     42208     42210     42202     42205     42208     42211
     42203     42202     42205     42206     42203     42202     42205     42207
     42203     42202     42205     42208     42204     42202     42205     42206
     42204     42202     42205     42207     42204     42202     42205     42208
     42205     42208     42211     42212     42205     42208     42211     42213
     42205     42208     42211     42214     42206     42205     42208     42209
     42206     42205     42208     42210     42206     42205     42208     42211
     42207     42205     42208     42209     42207     42205     42208     42210
     42207     42205     42208     42211     42208     42211     42214     42215
     42208     42211     42214     42216     42208     42211     42214     42217
     42209     42208     42211     42212     42209     42208     42211     42213
     42209     42208     42211     42214     42210     42208     42211     42212
     42210     42208     42211     42213     42210     42208     42211     42214
     42211     42214     42217     42218     42211     42214     42217     42219
     42211     42214     42217     42220     42212     42211     42214     42215
     42212     42211     42214     42216     42212     42211     42214     42217
     42213     42211     42214     42215     42213     42211     42214     42216
     42213     42211     42214     42217     42214     42217     42220     42221
     42214     42217     42220     42222     42214     42217     42220     42223
     42215     42214     42217     42218     42215     42214     42217     42219
     42215     42214     42217     42220     42216     42214     42217     42218
     42216     42214     42217     42219     42216     42214     42217     42220
     42217     42220     42223     42224     42217     42220     42223     42225
     42217     42220     42223     42226     42218     42217     42220     42221
     42218     42217     42220     42222     42218     42217     42220     42223
     42219     42217     42220     42221     42219     42217     42220     42222
     42219     42217     42220     42223     42220     42223     42226     42227
     42220     42223     42226     42228     42220     42223     42226     42229
     42221     42220     42223     42224     42221     42220     42223     42225
     42221     42220     42223     42226     42222     42220     42223     42224
     42222     42220     42223     42225     42222     42220     42223     42226
     42223     42226     42229     42230     42223     42226     42229     42231
     42223     42226     42229     42232     42224     42223     42226     42227
     42224     42223     42226     42228     42224     42223     42226     42229
     42225     42223     42226     42227     42225     42223     42226     42228
     42225     42223     42226     42229     42227     42226     42229     42230
     42227     42226     42229     42231     42227     42226     42229     42232
     42228     42226     42229     42230     42228     42226     42229     42231
     42228     42226     42229     42232     42233     42237     42240     42241
     42233     42237     42240     42242     42233     42237     42240     42247
     42234     42233     42237     42238     42234     42233     42237     42239
     42234     42233     42237     42240     42235     42233     42237     42238
     42235     42233     42237     42239     42235     42233     42237     42240
     42236     42233     42237     42238     42236     42233     42237     42239
     42236     42233     42237     42240     42237     42240     42247     42243
     42238     42237     42240     42241     42238     42237     42240     42242
     42238     42237     42240     42247     42239     42237     42240     42241
     42239     42237     42240     42242     42239     42237     42240     42247
     42240     42247     42243     42244     42240     42247     42243     42245
     42240     42247     42243     42246     42241     42240     42247     42243
     42242     42240     42247     42243     42243     42246     42248     42249
     42243     42246     42248     42250     42243     42246     42248     42251
     42244     42243     42246     42248     42245     42243     42246     42248
     42246     42248     42251     42252     42246     42248     42251     42253
     42246     42248     42251     42259     42247     42243     42246     42248
     42248     42251     42253     42254     42248     42251     42259     42260
     42248     42251     42259     42261     42248     42251     42259     42262
     42249     42248     42251     42252     42249     42248     42251     42253
     42249     42248     42251     42259     42250     42248     42251     42252
     42250     42248     42251     42253     42250     42248     42251     42259
     42251     42253     42254     42255     42251     42253     42254     42256
     42251     42259     42262     42263     42252     42251     42253     42254
     42252     42251     42259     42260     42252     42251     42259     42261
     42252     42251     42259     42262     42253     42251     42259     42260
     42253     42251     42259     42261     42253     42251     42259     42262
     42253     42254     42256     42257     42253     42254     42256     42258
     42253     42254     42256     42268     42254     42253     42251     42259
     42254     42256     42268     42269     42254     42256     42268     42270
     42254     42256     42268     42271     42255     42254     42256     42257
     42255     42254     42256     42258     42255     42254     42256     42268
     42256     42268     42271     42272     42256     42268     42271     42273
     42256     42268     42271     42274     42257     42256     42268     42269
     42257     42256     42268     42270     42257     42256     42268     42271
     42258     42256     42268     42269     42258     42256     42268     42270
     42258     42256     42268     42271     42259     42262     42263     42264
     42259     42262     42263     42265     42260     42259     42262     42263
     42261     42259     42262     42263     42262     42263     42265     42266
     42262     42263     42265     42267     42262     42263     42265     42309
     42263     42265     42309     42310     42263     42265     42309     42311
     42263     42265     42309     42312     42264     42263     42265     42266
     42264     42263     42265     42267     42264     42263     42265     42309
     42265     42309     42312     42313     42265     42309     42312     42314
     42265     42309     42312     42315     42266     42265     42309     42310
     42266     42265     42309     42311     42266     42265     42309     42312
     42267     42265     42309     42310     42267     42265     42309     42311
     42267     42265     42309     42312     42268     42271     42274     42275
     42268     42271     42274     42276     42268     42271     42274     42277
     42269     42268     42271     42272     42269     42268     42271     42273
     42269     42268     42271     42274     42270     42268     42271     42272
     42270     42268     42271     42273     42270     42268     42271     42274
     42271     42274     42277     42278     42271     42274     42277     42279
     42271     42274     42277     42280     42272     42271     42274     42275
     42272     42271     42274     42276     42272     42271     42274     42277
     42273     42271     42274     42275     42273     42271     42274     42276
     42273     42271     42274     42277     42274     42277     42280     42281
     42274     42277     42280     42282     42274     42277     42280     42283
     42275     42274     42277     42278     42275     42274     42277     42279
     42275     42274     42277     42280     42276     42274     42277     42278
     42276     42274     42277     42279     42276     42274     42277     42280
     42277     42280     42283     42284     42277     42280     42283     42285
     42277     42280     42283     42286     42278     42277     42280     42281
     42278     42277     42280     42282     42278     42277     42280     42283
     42279     42277     42280     42281     42279     42277     42280     42282
     42279     42277     42280     42283     42280     42283     42286     42287
     42280     42283     42286     42288     42281     42280     42283     42284
     42281     42280     42283     42285     42281     42280     42283     42286
     42282     42280     42283     42284     42282     42280     42283     42285
     42282     42280     42283     42286     42283     42286     42288     42289
     42283     42286     42288     42290     42284     42283     42286     42287
     42284     42283     42286     42288     42285     42283     42286     42287
     42285     42283     42286     42288     42286     42288     42290     42291
     42286     42288     42290     42292     42286     42288     42290     42293
     42287     42286     42288     42289     42287     42286     42288     42290
     42288     42290     42293     42294     42288     42290     42293     42295
     42288     42290     42293     42296     42289     42288     42290     42291
     42289     42288     42290     42292     42289     42288     42290     42293
     42290     42293     42296     42297     42290     42293     42296     42298
     42290     42293     42296     42299     42291     42290     42293     42294
     42291     42290     42293     42295     42291     42290     42293     42296
     42292     42290     42293     42294     42292     42290     42293     42295
     42292     42290     42293     42296     42293     42296     42299     42300
     42293     42296     42299     42301     42293     42296     42299     42302
     42294     42293     42296     42297     42294     42293     42296     42298
     42294     42293     42296     42299     42295     42293     42296     42297
     42295     42293     42296     42298     42295     42293     42296     42299
     42296     42299     42302     42303     42296     42299     42302     42304
     42296     42299     42302     42305     42297     42296     42299     42300
     42297     42296     42299     42301     42297     42296     42299     42302
     42298     42296     42299     42300     42298     42296     42299     42301
     42298     42296     42299     42302     42299     42302     42305     42306
     42299     42302     42305     42307     42299     42302     42305     42308
     42300     42299     42302     42303     42300     42299     42302     42304
     42300     42299     42302     42305     42301     42299     42302     42303
     42301     42299     42302     42304     42301     42299     42302     42305
     42303     42302     42305     42306     42303     42302     42305     42307
     42303     42302     42305     42308     42304     42302     42305     42306
     42304     42302     42305     42307     42304     42302     42305     42308
     42309     42312     42315     42316     42309     42312     42315     42317
     42309     42312     42315     42318     42310     42309     42312     42313
     42310     42309     42312     42314     42310     42309     42312     42315
     42311     42309     42312     42313     42311     42309     42312     42314
     42311     42309     42312     42315     42312     42315     42318     42319
     42312     42315     42318     42320     42312     42315     42318     42321
     42313     42312     42315     42316     42313     42312     42315     42317
     42313     42312     42315     42318     42314     42312     42315     42316
     42314     42312     42315     42317     42314     42312     42315     42318
     42315     42318     42321     42322     42315     42318     42321     42323
     42315     42318     42321     42324     42316     42315     42318     42319
     42316     42315     42318     42320     42316     42315     42318     42321
     42317     42315     42318     42319     42317     42315     42318     42320
     42317     42315     42318     42321     42318     42321     42324     42325
     42318     42321     42324     42326     42318     42321     42324     42327
     42319     42318     42321     42322     42319     42318     42321     42323
     42319     42318     42321     42324     42320     42318     42321     42322
     42320     42318     42321     42323     42320     42318     42321     42324
     42321     42324     42327     42328     42321     42324     42327     42329
     42321     42324     42327     42330     42322     42321     42324     42325
     42322     42321     42324     42326     42322     42321     42324     42327
     42323     42321     42324     42325     42323     42321     42324     42326
     42323     42321     42324     42327     42324     42327     42330     42331
     42324     42327     42330     42332     42324     42327     42330     42333
     42325     42324     42327     42328     42325     42324     42327     42329
     42325     42324     42327     42330     42326     42324     42327     42328
     42326     42324     42327     42329     42326     42324     42327     42330
     42327     42330     42333     42334     42327     42330     42333     42335
     42327     42330     42333     42336     42328     42327     42330     42331
     42328     42327     42330     42332     42328     42327     42330     42333
     42329     42327     42330     42331     42329     42327     42330     42332
     42329     42327     42330     42333     42330     42333     42336     42337
     42330     42333     42336     42338     42330     42333     42336     42339
     42331     42330     42333     42334     42331     42330     42333     42335
     42331     42330     42333     42336     42332     42330     42333     42334
     42332     42330     42333     42335     42332     42330     42333     42336
     42333     42336     42339     42340     42333     42336     42339     42341
     42333     42336     42339     42342     42334     42333     42336     42337
     42334     42333     42336     42338     42334     42333     42336     42339
     42335     42333     42336     42337     42335     42333     42336     42338
     42335     42333     42336     42339     42336     42339     42342     42343
     42336     42339     42342     42344     42336     42339     42342     42345
     42337     42336     42339     42340     42337     42336     42339     42341
     42337     42336     42339     42342     42338     42336     42339     42340
     42338     42336     42339     42341     42338     42336     42339     42342
     42339     42342     42345     42346     42339     42342     42345     42347
     42339     42342     42345     42348     42340     42339     42342     42343
     42340     42339     42342     42344     42340     42339     42342     42345
     42341     42339     42342     42343     42341     42339     42342     42344
     42341     42339     42342     42345     42342     42345     42348     42349
     42342     42345     42348     42350     42342     42345     42348     42351
     42343     42342     42345     42346     42343     42342     42345     42347
     42343     42342     42345     42348     42344     42342     42345     42346
     42344     42342     42345     42347     42344     42342     42345     42348
     42346     42345     42348     42349     42346     42345     42348     42350
     42346     42345     42348     42351     42347     42345     42348     42349
     42347     42345     42348     42350     42347     42345     42348     42351
     42352     42356     42359     42360     42352     42356     42359     42361
     42352     42356     42359     42366     42353     42352     42356     42357
     42353     42352     42356     42358     42353     42352     42356     42359
     42354     42352     42356     42357     42354     42352     42356     42358
     42354     42352     42356     42359     42355     42352     42356     42357
     42355     42352     42356     42358     42355     42352     42356     42359
     42356     42359     42366     42362     42357     42356     42359     42360
     42357     42356     42359     42361     42357     42356     42359     42366
     42358     42356     42359     42360     42358     42356     42359     42361
     42358     42356     42359     42366     42359     42366     42362     42363
     42359     42366     42362     42364     42359     42366     42362     42365
     42360     42359     42366     42362     42361     42359     42366     42362
     42362     42365     42367     42368     42362     42365     42367     42369
     42362     42365     42367     42370     42363     42362     42365     42367
     42364     42362     42365     42367     42365     42367     42370     42371
     42365     42367     42370     42372     42365     42367     42370     42378
     42366     42362     42365     42367     42367     42370     42372     42373
     42367     42370     42378     42379     42367     42370     42378     42380
     42367     42370     42378     42381     42368     42367     42370     42371
     42368     42367     42370     42372     42368     42367     42370     42378
     42369     42367     42370     42371     42369     42367     42370     42372
     42369     42367     42370     42378     42370     42372     42373     42374
     42370     42372     42373     42375     42370     42378     42381     42382
     42371     42370     42372     42373     42371     42370     42378     42379
     42371     42370     42378     42380     42371     42370     42378     42381
     42372     42370     42378     42379     42372     42370     42378     42380
     42372     42370     42378     42381     42372     42373     42375     42376
     42372     42373     42375     42377     42372     42373     42375     42387
     42373     42372     42370     42378     42373     42375     42387     42388
     42373     42375     42387     42389     42373     42375     42387     42390
     42374     42373     42375     42376     42374     42373     42375     42377
     42374     42373     42375     42387     42375     42387     42390     42391
     42375     42387     42390     42392     42375     42387     42390     42393
     42376     42375     42387     42388     42376     42375     42387     42389
     42376     42375     42387     42390     42377     42375     42387     42388
     42377     42375     42387     42389     42377     42375     42387     42390
     42378     42381     42382     42383     42378     42381     42382     42384
     42379     42378     42381     42382     42380     42378     42381     42382
     42381     42382     42384     42385     42381     42382     42384     42386
     42381     42382     42384     42428     42382     42384     42428     42429
     42382     42384     42428     42430     42382     42384     42428     42431
     42383     42382     42384     42385     42383     42382     42384     42386
     42383     42382     42384     42428     42384     42428     42431     42432
     42384     42428     42431     42433     42384     42428     42431     42434
     42385     42384     42428     42429     42385     42384     42428     42430
     42385     42384     42428     42431     42386     42384     42428     42429
     42386     42384     42428     42430     42386     42384     42428     42431
     42387     42390     42393     42394     42387     42390     42393     42395
     42387     42390     42393     42396     42388     42387     42390     42391
     42388     42387     42390     42392     42388     42387     42390     42393
     42389     42387     42390     42391     42389     42387     42390     42392
     42389     42387     42390     42393     42390     42393     42396     42397
     42390     42393     42396     42398     42390     42393     42396     42399
     42391     42390     42393     42394     42391     42390     42393     42395
     42391     42390     42393     42396     42392     42390     42393     42394
     42392     42390     42393     42395     42392     42390     42393     42396
     42393     42396     42399     42400     42393     42396     42399     42401
     42393     42396     42399     42402     42394     42393     42396     42397
     42394     42393     42396     42398     42394     42393     42396     42399
     42395     42393     42396     42397     42395     42393     42396     42398
     42395     42393     42396     42399     42396     42399     42402     42403
     42396     42399     42402     42404     42396     42399     42402     42405
     42397     42396     42399     42400     42397     42396     42399     42401
     42397     42396     42399     42402     42398     42396     42399     42400
     42398     42396     42399     42401     42398     42396     42399     42402
     42399     42402     42405     42406     42399     42402     42405     42407
     42400     42399     42402     42403     42400     42399     42402     42404
     42400     42399     42402     42405     42401     42399     42402     42403
     42401     42399     42402     42404     42401     42399     42402     42405
     42402     42405     42407     42408     42402     42405     42407     42409
     42403     42402     42405     42406     42403     42402     42405     42407
     42404     42402     42405     42406     42404     42402     42405     42407
     42405     42407     42409     42410     42405     42407     42409     42411
     42405     42407     42409     42412     42406     42405     42407     42408
     42406     42405     42407     42409     42407     42409     42412     42413
     42407     42409     42412     42414     42407     42409     42412     42415
     42408     42407     42409     42410     42408     42407     42409     42411
     42408     42407     42409     42412     42409     42412     42415     42416
     42409     42412     42415     42417     42409     42412     42415     42418
     42410     42409     42412     42413     42410     42409     42412     42414
     42410     42409     42412     42415     42411     42409     42412     42413
     42411     42409     42412     42414     42411     42409     42412     42415
     42412     42415     42418     42419     42412     42415     42418     42420
     42412     42415     42418     42421     42413     42412     42415     42416
     42413     42412     42415     42417     42413     42412     42415     42418
     42414     42412     42415     42416     42414     42412     42415     42417
     42414     42412     42415     42418     42415     42418     42421     42422
     42415     42418     42421     42423     42415     42418     42421     42424
     42416     42415     42418     42419     42416     42415     42418     42420
     42416     42415     42418     42421     42417     42415     42418     42419
     42417     42415     42418     42420     42417     42415     42418     42421
     42418     42421     42424     42425     42418     42421     42424     42426
     42418     42421     42424     42427     42419     42418     42421     42422
     42419     42418     42421     42423     42419     42418     42421     42424
     42420     42418     42421     42422     42420     42418     42421     42423
     42420     42418     42421     42424     42422     42421     42424     42425
     42422     42421     42424     42426     42422     42421     42424     42427
     42423     42421     42424     42425     42423     42421     42424     42426
     42423     42421     42424     42427     42428     42431     42434     42435
     42428     42431     42434     42436     42428     42431     42434     42437
     42429     42428     42431     42432     42429     42428     42431     42433
     42429     42428     42431     42434     42430     42428     42431     42432
     42430     42428     42431     42433     42430     42428     42431     42434
     42431     42434     42437     42438     42431     42434     42437     42439
     42431     42434     42437     42440     42432     42431     42434     42435
     42432     42431     42434     42436     42432     42431     42434     42437
     42433     42431     42434     42435     42433     42431     42434     42436
     42433     42431     42434     42437     42434     42437     42440     42441
     42434     42437     42440     42442     42434     42437     42440     42443
     42435     42434     42437     42438     42435     42434     42437     42439
     42435     42434     42437     42440     42436     42434     42437     42438
     42436     42434     42437     42439     42436     42434     42437     42440
     42437     42440     42443     42444     42437     42440     42443     42445
     42437     42440     42443     42446     42438     42437     42440     42441
     42438     42437     42440     42442     42438     42437     42440     42443
     42439     42437     42440     42441     42439     42437     42440     42442
     42439     42437     42440     42443     42440     42443     42446     42447
     42440     42443     42446     42448     42440     42443     42446     42449
     42441     42440     42443     42444     42441     42440     42443     42445
     42441     42440     42443     42446     42442     42440     42443     42444
     42442     42440     42443     42445     42442     42440     42443     42446
     42443     42446     42449     42450     42443     42446     42449     42451
     42443     42446     42449     42452     42444     42443     42446     42447
     42444     42443     42446     42448     42444     42443     42446     42449
     42445     42443     42446     42447     42445     42443     42446     42448
     42445     42443     42446     42449     42446     42449     42452     42453
     42446     42449     42452     42454     42446     42449     42452     42455
     42447     42446     42449     42450     42447     42446     42449     42451
     42447     42446     42449     42452     42448     42446     42449     42450
     42448     42446     42449     42451     42448     42446     42449     42452
     42449     42452     42455     42456     42449     42452     42455     42457
     42449     42452     42455     42458     42450     42449     42452     42453
     42450     42449     42452     42454     42450     42449     42452     42455
     42451     42449     42452     42453     42451     42449     42452     42454
     42451     42449     42452     42455     42452     42455     42458     42459
     42452     42455     42458     42460     42452     42455     42458     42461
     42453     42452     42455     42456     42453     42452     42455     42457
     42453     42452     42455     42458     42454     42452     42455     42456
     42454     42452     42455     42457     42454     42452     42455     42458
     42455     42458     42461     42462     42455     42458     42461     42463
     42455     42458     42461     42464     42456     42455     42458     42459
     42456     42455     42458     42460     42456     42455     42458     42461
     42457     42455     42458     42459     42457     42455     42458     42460
     42457     42455     42458     42461     42458     42461     42464     42465
     42458     42461     42464     42466     42458     42461     42464     42467
     42459     42458     42461     42462     42459     42458     42461     42463
     42459     42458     42461     42464     42460     42458     42461     42462
     42460     42458     42461     42463     42460     42458     42461     42464
     42461     42464     42467     42468     42461     42464     42467     42469
     42461     42464     42467     42470     42462     42461     42464     42465
     42462     42461     42464     42466     42462     42461     42464     42467
     42463     42461     42464     42465     42463     42461     42464     42466
     42463     42461     42464     42467     42465     42464     42467     42468
     42465     42464     42467     42469     42465     42464     42467     42470
     42466     42464     42467     42468     42466     42464     42467     42469
     42466     42464     42467     42470     42471     42476     42478     42479
     42471     42476     42480     42481     42471     42476     42480     42482
     42471     42476     42480     42486     42472     42471     42474     42475
     42472     42471     42476     42477     42472     42471     42476     42478
     42472     42471     42476     42480     42473     42471     42474     42475
     42473     42471     42476     42477     42473     42471     42476     42478
     42473     42471     42476     42480     42474     42471     42476     42477
     42474     42471     42476     42478     42474     42471     42476     42480
     42475     42474     42471     42476     42476     42480     42486     42483
     42477     42476     42478     42479     42477     42476     42480     42481
     42477     42476     42480     42482     42477     42476     42480     42486
     42478     42476     42480     42481     42478     42476     42480     42482
     42478     42476     42480     42486     42479     42478     42476     42480
     42480     42486     42483     42484     42480     42486     42483     42485
     42480     42486     42483     42487     42481     42480     42486     42483
     42482     42480     42486     42483     42483     42487     42488     42489
     42483     42487     42488     42490     42483     42487     42488     42491
     42484     42483     42487     42488     42485     42483     42487     42488
     42486     42483     42487     42488     42487     42488     42491     42492
     42487     42488     42491     42493     42487     42488     42491     42499
     42488     42491     42493     42494     42488     42491     42499     42500
     42488     42491     42499     42501     42488     42491     42499     42502
     42489     42488     42491     42492     42489     42488     42491     42493
     42489     42488     42491     42499     42490     42488     42491     42492
     42490     42488     42491     42493     42490     42488     42491     42499
     42491     42493     42494     42495     42491     42493     42494     42496
     42491     42499     42502     42503     42492     42491     42493     42494
     42492     42491     42499     42500     42492     42491     42499     42501
     42492     42491     42499     42502     42493     42491     42499     42500
     42493     42491     42499     42501     42493     42491     42499     42502
     42493     42494     42496     42497     42493     42494     42496     42498
     42493     42494     42496     42508     42494     42493     42491     42499
     42494     42496     42508     42509     42494     42496     42508     42510
     42494     42496     42508     42511     42495     42494     42496     42497
     42495     42494     42496     42498     42495     42494     42496     42508
     42496     42508     42511     42512     42496     42508     42511     42513
     42496     42508     42511     42514     42497     42496     42508     42509
     42497     42496     42508     42510     42497     42496     42508     42511
     42498     42496     42508     42509     42498     42496     42508     42510
     42498     42496     42508     42511     42499     42502     42503     42504
     42499     42502     42503     42505     42500     42499     42502     42503
     42501     42499     42502     42503     42502     42503     42505     42506
     42502     42503     42505     42507     42502     42503     42505     42555
     42503     42505     42555     42556     42503     42505     42555     42557
     42503     42505     42555     42558     42504     42503     42505     42506
     42504     42503     42505     42507     42504     42503     42505     42555
     42505     42555     42558     42559     42505     42555     42558     42560
     42505     42555     42558     42561     42506     42505     42555     42556
     42506     42505     42555     42557     42506     42505     42555     42558
     42507     42505     42555     42556     42507     42505     42555     42557
     42507     42505     42555     42558     42508     42511     42514     42515
     42508     42511     42514     42516     42508     42511     42514     42517
     42509     42508     42511     42512     42509     42508     42511     42513
     42509     42508     42511     42514     42510     42508     42511     42512
     42510     42508     42511     42513     42510     42508     42511     42514
     42511     42514     42517     42518     42511     42514     42517     42519
     42511     42514     42517     42520     42512     42511     42514     42515
     42512     42511     42514     42516     42512     42511     42514     42517
     42513     42511     42514     42515     42513     42511     42514     42516
     42513     42511     42514     42517     42514     42517     42520     42521
     42514     42517     42520     42522     42514     42517     42520     42523
     42515     42514     42517     42518     42515     42514     42517     42519
     42515     42514     42517     42520     42516     42514     42517     42518
     42516     42514     42517     42519     42516     42514     42517     42520
     42517     42520     42523     42524     42517     42520     42523     42525
     42517     42520     42523     42526     42518     42517     42520     42521
     42518     42517     42520     42522     42518     42517     42520     42523
     42519     42517     42520     42521     42519     42517     42520     42522
     42519     42517     42520     42523     42520     42523     42526     42527
     42520     42523     42526     42528     42520     42523     42526     42529
     42521     42520     42523     42524     42521     42520     42523     42525
     42521     42520     42523     42526     42522     42520     42523     42524
     42522     42520     42523     42525     42522     42520     42523     42526
     42523     42526     42529     42530     42523     42526     42529     42531
     42523     42526     42529     42532     42524     42523     42526     42527
     42524     42523     42526     42528     42524     42523     42526     42529
     42525     42523     42526     42527     42525     42523     42526     42528
     42525     42523     42526     42529     42526     42529     42532     42533
     42526     42529     42532     42534     42527     42526     42529     42530
     42527     42526     42529     42531     42527     42526     42529     42532
     42528     42526     42529     42530     42528     42526     42529     42531
     42528     42526     42529     42532     42529     42532     42534     42535
     42529     42532     42534     42536     42530     42529     42532     42533
     42530     42529     42532     42534     42531     42529     42532     42533
     42531     42529     42532     42534     42532     42534     42536     42537
     42532     42534     42536     42538     42532     42534     42536     42539
     42533     42532     42534     42535     42533     42532     42534     42536
     42534     42536     42539     42540     42534     42536     42539     42541
     42534     42536     42539     42542     42535     42534     42536     42537
     42535     42534     42536     42538     42535     42534     42536     42539
     42536     42539     42542     42543     42536     42539     42542     42544
     42536     42539     42542     42545     42537     42536     42539     42540
     42537     42536     42539     42541     42537     42536     42539     42542
     42538     42536     42539     42540     42538     42536     42539     42541
     42538     42536     42539     42542     42539     42542     42545     42546
     42539     42542     42545     42547     42539     42542     42545     42548
     42540     42539     42542     42543     42540     42539     42542     42544
     42540     42539     42542     42545     42541     42539     42542     42543
     42541     42539     42542     42544     42541     42539     42542     42545
     42542     42545     42548     42549     42542     42545     42548     42550
     42542     42545     42548     42551     42543     42542     42545     42546
     42543     42542     42545     42547     42543     42542     42545     42548
     42544     42542     42545     42546     42544     42542     42545     42547
     42544     42542     42545     42548     42545     42548     42551     42552
     42545     42548     42551     42553     42545     42548     42551     42554
     42546     42545     42548     42549     42546     42545     42548     42550
     42546     42545     42548     42551     42547     42545     42548     42549
     42547     42545     42548     42550     42547     42545     42548     42551
     42549     42548     42551     42552     42549     42548     42551     42553
     42549     42548     42551     42554     42550     42548     42551     42552
     42550     42548     42551     42553     42550     42548     42551     42554
     42555     42558     42561     42562     42555     42558     42561     42563
     42555     42558     42561     42564     42556     42555     42558     42559
     42556     42555     42558     42560     42556     42555     42558     42561
     42557     42555     42558     42559     42557     42555     42558     42560
     42557     42555     42558     42561     42558     42561     42564     42565
     42558     42561     42564     42566     42558     42561     42564     42567
     42559     42558     42561     42562     42559     42558     42561     42563
     42559     42558     42561     42564     42560     42558     42561     42562
     42560     42558     42561     42563     42560     42558     42561     42564
     42561     42564     42567     42568     42561     42564     42567     42569
     42561     42564     42567     42570     42562     42561     42564     42565
     42562     42561     42564     42566     42562     42561     42564     42567
     42563     42561     42564     42565     42563     42561     42564     42566
     42563     42561     42564     42567     42564     42567     42570     42571
     42564     42567     42570     42572     42564     42567     42570     42573
     42565     42564     42567     42568     42565     42564     42567     42569
     42565     42564     42567     42570     42566     42564     42567     42568
     42566     42564     42567     42569     42566     42564     42567     42570
     42567     42570     42573     42574     42567     42570     42573     42575
     42567     42570     42573     42576     42568     42567     42570     42571
     42568     42567     42570     42572     42568     42567     42570     42573
     42569     42567     42570     42571     42569     42567     42570     42572
     42569     42567     42570     42573     42570     42573     42576     42577
     42570     42573     42576     42578     42570     42573     42576     42579
     42571     42570     42573     42574     42571     42570     42573     42575
     42571     42570     42573     42576     42572     42570     42573     42574
     42572     42570     42573     42575     42572     42570     42573     42576
     42573     42576     42579     42580     42573     42576     42579     42581
     42573     42576     42579     42582     42574     42573     42576     42577
     42574     42573     42576     42578     42574     42573     42576     42579
     42575     42573     42576     42577     42575     42573     42576     42578
     42575     42573     42576     42579     42576     42579     42582     42583
     42576     42579     42582     42584     42576     42579     42582     42585
     42577     42576     42579     42580     42577     42576     42579     42581
     42577     42576     42579     42582     42578     42576     42579     42580
     42578     42576     42579     42581     42578     42576     42579     42582
     42579     42582     42585     42586     42579     42582     42585     42587
     42579     42582     42585     42588     42580     42579     42582     42583
     42580     42579     42582     42584     42580     42579     42582     42585
     42581     42579     42582     42583     42581     42579     42582     42584
     42581     42579     42582     42585     42582     42585     42588     42589
     42582     42585     42588     42590     42582     42585     42588     42591
     42583     42582     42585     42586     42583     42582     42585     42587
     42583     42582     42585     42588     42584     42582     42585     42586
     42584     42582     42585     42587     42584     42582     42585     42588
     42585     42588     42591     42592     42585     42588     42591     42593
     42585     42588     42591     42594     42586     42585     42588     42589
     42586     42585     42588     42590     42586     42585     42588     42591
     42587     42585     42588     42589     42587     42585     42588     42590
     42587     42585     42588     42591     42588     42591     42594     42595
     42588     42591     42594     42596     42588     42591     42594     42597
     42589     42588     42591     42592     42589     42588     42591     42593
     42589     42588     42591     42594     42590     42588     42591     42592
     42590     42588     42591     42593     42590     42588     42591     42594
     42592     42591     42594     42595     42592     42591     42594     42596
     42592     42591     42594     42597     42593     42591     42594     42595
     42593     42591     42594     42596     42593     42591     42594     42597
     42598     42602     42605     42606     42598     42602     42605     42607
     42598     42602     42605     42612     42599     42598     42602     42603
     42599     42598     42602     42604     42599     42598     42602     42605
     42600     42598     42602     42603     42600     42598     42602     42604
     42600     42598     42602     42605     42601     42598     42602     42603
     42601     42598     42602     42604     42601     42598     42602     42605
     42602     42605     42612     42608     42603     42602     42605     42606
     42603     42602     42605     42607     42603     42602     42605     42612
     42604     42602     42605     42606     42604     42602     42605     42607
     42604     42602     42605     42612     42605     42612     42608     42609
     42605     42612     42608     42610     42605     42612     42608     42611
     42606     42605     42612     42608     42607     42605     42612     42608
     42608     42611     42613     42614     42608     42611     42613     42615
     42608     42611     42613     42616     42609     42608     42611     42613
     42610     42608     42611     42613     42611     42613     42616     42617
     42611     42613     42616     42618     42611     42613     42616     42624
     42612     42608     42611     42613     42613     42616     42618     42619
     42613     42616     42624     42625     42613     42616     42624     42626
     42613     42616     42624     42627     42614     42613     42616     42617
     42614     42613     42616     42618     42614     42613     42616     42624
     42615     42613     42616     42617     42615     42613     42616     42618
     42615     42613     42616     42624     42616     42618     42619     42620
     42616     42618     42619     42621     42616     42624     42627     42628
     42617     42616     42618     42619     42617     42616     42624     42625
     42617     42616     42624     42626     42617     42616     42624     42627
     42618     42616     42624     42625     42618     42616     42624     42626
     42618     42616     42624     42627     42618     42619     42621     42622
     42618     42619     42621     42623     42618     42619     42621     42633
     42619     42618     42616     42624     42619     42621     42633     42634
     42619     42621     42633     42635     42619     42621     42633     42636
     42620     42619     42621     42622     42620     42619     42621     42623
     42620     42619     42621     42633     42621     42633     42636     42637
     42621     42633     42636     42638     42621     42633     42636     42639
     42622     42621     42633     42634     42622     42621     42633     42635
     42622     42621     42633     42636     42623     42621     42633     42634
     42623     42621     42633     42635     42623     42621     42633     42636
     42624     42627     42628     42629     42624     42627     42628     42630
     42625     42624     42627     42628     42626     42624     42627     42628
     42627     42628     42630     42631     42627     42628     42630     42632
     42627     42628     42630     42674     42628     42630     42674     42675
     42628     42630     42674     42676     42628     42630     42674     42677
     42629     42628     42630     42631     42629     42628     42630     42632
     42629     42628     42630     42674     42630     42674     42677     42678
     42630     42674     42677     42679     42630     42674     42677     42680
     42631     42630     42674     42675     42631     42630     42674     42676
     42631     42630     42674     42677     42632     42630     42674     42675
     42632     42630     42674     42676     42632     42630     42674     42677
     42633     42636     42639     42640     42633     42636     42639     42641
     42633     42636     42639     42642     42634     42633     42636     42637
     42634     42633     42636     42638     42634     42633     42636     42639
     42635     42633     42636     42637     42635     42633     42636     42638
     42635     42633     42636     42639     42636     42639     42642     42643
     42636     42639     42642     42644     42636     42639     42642     42645
     42637     42636     42639     42640     42637     42636     42639     42641
     42637     42636     42639     42642     42638     42636     42639     42640
     42638     42636     42639     42641     42638     42636     42639     42642
     42639     42642     42645     42646     42639     42642     42645     42647
     42639     42642     42645     42648     42640     42639     42642     42643
     42640     42639     42642     42644     42640     42639     42642     42645
     42641     42639     42642     42643     42641     42639     42642     42644
     42641     42639     42642     42645     42642     42645     42648     42649
     42642     42645     42648     42650     42642     42645     42648     42651
     42643     42642     42645     42646     42643     42642     42645     42647
     42643     42642     42645     42648     42644     42642     42645     42646
     42644     42642     42645     42647     42644     42642     42645     42648
     42645     42648     42651     42652     42645     42648     42651     42653
     42646     42645     42648     42649     42646     42645     42648     42650
     42646     42645     42648     42651     42647     42645     42648     42649
     42647     42645     42648     42650     42647     42645     42648     42651
     42648     42651     42653     42654     42648     42651     42653     42655
     42649     42648     42651     42652     42649     42648     42651     42653
     42650     42648     42651     42652     42650     42648     42651     42653
     42651     42653     42655     42656     42651     42653     42655     42657
     42651     42653     42655     42658     42652     42651     42653     42654
     42652     42651     42653     42655     42653     42655     42658     42659
     42653     42655     42658     42660     42653     42655     42658     42661
     42654     42653     42655     42656     42654     42653     42655     42657
     42654     42653     42655     42658     42655     42658     42661     42662
     42655     42658     42661     42663     42655     42658     42661     42664
     42656     42655     42658     42659     42656     42655     42658     42660
     42656     42655     42658     42661     42657     42655     42658     42659
     42657     42655     42658     42660     42657     42655     42658     42661
     42658     42661     42664     42665     42658     42661     42664     42666
     42658     42661     42664     42667     42659     42658     42661     42662
     42659     42658     42661     42663     42659     42658     42661     42664
     42660     42658     42661     42662     42660     42658     42661     42663
     42660     42658     42661     42664     42661     42664     42667     42668
     42661     42664     42667     42669     42661     42664     42667     42670
     42662     42661     42664     42665     42662     42661     42664     42666
     42662     42661     42664     42667     42663     42661     42664     42665
     42663     42661     42664     42666     42663     42661     42664     42667
     42664     42667     42670     42671     42664     42667     42670     42672
     42664     42667     42670     42673     42665     42664     42667     42668
     42665     42664     42667     42669     42665     42664     42667     42670
     42666     42664     42667     42668     42666     42664     42667     42669
     42666     42664     42667     42670     42668     42667     42670     42671
     42668     42667     42670     42672     42668     42667     42670     42673
     42669     42667     42670     42671     42669     42667     42670     42672
     42669     42667     42670     42673     42674     42677     42680     42681
     42674     42677     42680     42682     42674     42677     42680     42683
     42675     42674     42677     42678     42675     42674     42677     42679
     42675     42674     42677     42680     42676     42674     42677     42678
     42676     42674     42677     42679     42676     42674     42677     42680
     42677     42680     42683     42684     42677     42680     42683     42685
     42677     42680     42683     42686     42678     42677     42680     42681
     42678     42677     42680     42682     42678     42677     42680     42683
     42679     42677     42680     42681     42679     42677     42680     42682
     42679     42677     42680     42683     42680     42683     42686     42687
     42680     42683     42686     42688     42680     42683     42686     42689
     42681     42680     42683     42684     42681     42680     42683     42685
     42681     42680     42683     42686     42682     42680     42683     42684
     42682     42680     42683     42685     42682     42680     42683     42686
     42683     42686     42689     42690     42683     42686     42689     42691
     42683     42686     42689     42692     42684     42683     42686     42687
     42684     42683     42686     42688     42684     42683     42686     42689
     42685     42683     42686     42687     42685     42683     42686     42688
     42685     42683     42686     42689     42686     42689     42692     42693
     42686     42689     42692     42694     42686     42689     42692     42695
     42687     42686     42689     42690     42687     42686     42689     42691
     42687     42686     42689     42692     42688     42686     42689     42690
     42688     42686     42689     42691     42688     42686     42689     42692
     42689     42692     42695     42696     42689     42692     42695     42697
     42689     42692     42695     42698     42690     42689     42692     42693
     42690     42689     42692     42694     42690     42689     42692     42695
     42691     42689     42692     42693     42691     42689     42692     42694
     42691     42689     42692     42695     42692     42695     42698     42699
     42692     42695     42698     42700     42692     42695     42698     42701
     42693     42692     42695     42696     42693     42692     42695     42697
     42693     42692     42695     42698     42694     42692     42695     42696
     42694     42692     42695     42697     42694     42692     42695     42698
     42695     42698     42701     42702     42695     42698     42701     42703
     42695     42698     42701     42704     42696     42695     42698     42699
     42696     42695     42698     42700     42696     42695     42698     42701
     42697     42695     42698     42699     42697     42695     42698     42700
     42697     42695     42698     42701     42698     42701     42704     42705
     42698     42701     42704     42706     42698     42701     42704     42707
     42699     42698     42701     42702     42699     42698     42701     42703
     42699     42698     42701     42704     42700     42698     42701     42702
     42700     42698     42701     42703     42700     42698     42701     42704
     42701     42704     42707     42708     42701     42704     42707     42709
     42701     42704     42707     42710     42702     42701     42704     42705
     42702     42701     42704     42706     42702     42701     42704     42707
     42703     42701     42704     42705     42703     42701     42704     42706
     42703     42701     42704     42707     42704     42707     42710     42711
     42704     42707     42710     42712     42704     42707     42710     42713
     42705     42704     42707     42708     42705     42704     42707     42709
     42705     42704     42707     42710     42706     42704     42707     42708
     42706     42704     42707     42709     42706     42704     42707     42710
     42707     42710     42713     42714     42707     42710     42713     42715
     42707     42710     42713     42716     42708     42707     42710     42711
     42708     42707     42710     42712     42708     42707     42710     42713
     42709     42707     42710     42711     42709     42707     42710     42712
     42709     42707     42710     42713     42711     42710     42713     42714
     42711     42710     42713     42715     42711     42710     42713     42716
     42712     42710     42713     42714     42712     42710     42713     42715
     42712     42710     42713     42716     42717     42721     42724     42725
     42717     42721     42724     42726     42717     42721     42724     42731
     42718     42717     42721     42722     42718     42717     42721     42723
     42718     42717     42721     42724     42719     42717     42721     42722
     42719     42717     42721     42723     42719     42717     42721     42724
     42720     42717     42721     42722     42720     42717     42721     42723
     42720     42717     42721     42724     42721     42724     42731     42727
     42722     42721     42724     42725     42722     42721     42724     42726
     42722     42721     42724     42731     42723     42721     42724     42725
     42723     42721     42724     42726     42723     42721     42724     42731
     42724     42731     42727     42728     42724     42731     42727     42729
     42724     42731     42727     42730     42725     42724     42731     42727
     42726     42724     42731     42727     42727     42730     42732     42733
     42727     42730     42732     42734     42727     42730     42732     42735
     42728     42727     42730     42732     42729     42727     42730     42732
     42730     42732     42735     42736     42730     42732     42735     42737
     42730     42732     42735     42743     42731     42727     42730     42732
     42732     42735     42737     42738     42732     42735     42743     42744
     42732     42735     42743     42745     42732     42735     42743     42746
     42733     42732     42735     42736     42733     42732     42735     42737
     42733     42732     42735     42743     42734     42732     42735     42736
     42734     42732     42735     42737     42734     42732     42735     42743
     42735     42737     42738     42739     42735     42737     42738     42740
     42735     42743     42746     42747     42736     42735     42737     42738
     42736     42735     42743     42744     42736     42735     42743     42745
     42736     42735     42743     42746     42737     42735     42743     42744
     42737     42735     42743     42745     42737     42735     42743     42746
     42737     42738     42740     42741     42737     42738     42740     42742
     42737     42738     42740     42752     42738     42737     42735     42743
     42738     42740     42752     42753     42738     42740     42752     42754
     42738     42740     42752     42755     42739     42738     42740     42741
     42739     42738     42740     42742     42739     42738     42740     42752
     42740     42752     42755     42756     42740     42752     42755     42757
     42740     42752     42755     42758     42741     42740     42752     42753
     42741     42740     42752     42754     42741     42740     42752     42755
     42742     42740     42752     42753     42742     42740     42752     42754
     42742     42740     42752     42755     42743     42746     42747     42748
     42743     42746     42747     42749     42744     42743     42746     42747
     42745     42743     42746     42747     42746     42747     42749     42750
     42746     42747     42749     42751     42746     42747     42749     42793
     42747     42749     42793     42794     42747     42749     42793     42795
     42747     42749     42793     42796     42748     42747     42749     42750
     42748     42747     42749     42751     42748     42747     42749     42793
     42749     42793     42796     42797     42749     42793     42796     42798
     42749     42793     42796     42799     42750     42749     42793     42794
     42750     42749     42793     42795     42750     42749     42793     42796
     42751     42749     42793     42794     42751     42749     42793     42795
     42751     42749     42793     42796     42752     42755     42758     42759
     42752     42755     42758     42760     42752     42755     42758     42761
     42753     42752     42755     42756     42753     42752     42755     42757
     42753     42752     42755     42758     42754     42752     42755     42756
     42754     42752     42755     42757     42754     42752     42755     42758
     42755     42758     42761     42762     42755     42758     42761     42763
     42755     42758     42761     42764     42756     42755     42758     42759
     42756     42755     42758     42760     42756     42755     42758     42761
     42757     42755     42758     42759     42757     42755     42758     42760
     42757     42755     42758     42761     42758     42761     42764     42765
     42758     42761     42764     42766     42758     42761     42764     42767
     42759     42758     42761     42762     42759     42758     42761     42763
     42759     42758     42761     42764     42760     42758     42761     42762
     42760     42758     42761     42763     42760     42758     42761     42764
     42761     42764     42767     42768     42761     42764     42767     42769
     42761     42764     42767     42770     42762     42761     42764     42765
     42762     42761     42764     42766     42762     42761     42764     42767
     42763     42761     42764     42765     42763     42761     42764     42766
     42763     42761     42764     42767     42764     42767     42770     42771
     42764     42767     42770     42772     42765     42764     42767     42768
     42765     42764     42767     42769     42765     42764     42767     42770
     42766     42764     42767     42768     42766     42764     42767     42769
     42766     42764     42767     42770     42767     42770     42772     42773
     42767     42770     42772     42774     42768     42767     42770     42771
     42768     42767     42770     42772     42769     42767     42770     42771
     42769     42767     42770     42772     42770     42772     42774     42775
     42770     42772     42774     42776     42770     42772     42774     42777
     42771     42770     42772     42773     42771     42770     42772     42774
     42772     42774     42777     42778     42772     42774     42777     42779
     42772     42774     42777     42780     42773     42772     42774     42775
     42773     42772     42774     42776     42773     42772     42774     42777
     42774     42777     42780     42781     42774     42777     42780     42782
     42774     42777     42780     42783     42775     42774     42777     42778
     42775     42774     42777     42779     42775     42774     42777     42780
     42776     42774     42777     42778     42776     42774     42777     42779
     42776     42774     42777     42780     42777     42780     42783     42784
     42777     42780     42783     42785     42777     42780     42783     42786
     42778     42777     42780     42781     42778     42777     42780     42782
     42778     42777     42780     42783     42779     42777     42780     42781
     42779     42777     42780     42782     42779     42777     42780     42783
     42780     42783     42786     42787     42780     42783     42786     42788
     42780     42783     42786     42789     42781     42780     42783     42784
     42781     42780     42783     42785     42781     42780     42783     42786
     42782     42780     42783     42784     42782     42780     42783     42785
     42782     42780     42783     42786     42783     42786     42789     42790
     42783     42786     42789     42791     42783     42786     42789     42792
     42784     42783     42786     42787     42784     42783     42786     42788
     42784     42783     42786     42789     42785     42783     42786     42787
     42785     42783     42786     42788     42785     42783     42786     42789
     42787     42786     42789     42790     42787     42786     42789     42791
     42787     42786     42789     42792     42788     42786     42789     42790
     42788     42786     42789     42791     42788     42786     42789     42792
     42793     42796     42799     42800     42793     42796     42799     42801
     42793     42796     42799     42802     42794     42793     42796     42797
     42794     42793     42796     42798     42794     42793     42796     42799
     42795     42793     42796     42797     42795     42793     42796     42798
     42795     42793     42796     42799     42796     42799     42802     42803
     42796     42799     42802     42804     42796     42799     42802     42805
     42797     42796     42799     42800     42797     42796     42799     42801
     42797     42796     42799     42802     42798     42796     42799     42800
     42798     42796     42799     42801     42798     42796     42799     42802
     42799     42802     42805     42806     42799     42802     42805     42807
     42799     42802     42805     42808     42800     42799     42802     42803
     42800     42799     42802     42804     42800     42799     42802     42805
     42801     42799     42802     42803     42801     42799     42802     42804
     42801     42799     42802     42805     42802     42805     42808     42809
     42802     42805     42808     42810     42802     42805     42808     42811
     42803     42802     42805     42806     42803     42802     42805     42807
     42803     42802     42805     42808     42804     42802     42805     42806
     42804     42802     42805     42807     42804     42802     42805     42808
     42805     42808     42811     42812     42805     42808     42811     42813
     42805     42808     42811     42814     42806     42805     42808     42809
     42806     42805     42808     42810     42806     42805     42808     42811
     42807     42805     42808     42809     42807     42805     42808     42810
     42807     42805     42808     42811     42808     42811     42814     42815
     42808     42811     42814     42816     42808     42811     42814     42817
     42809     42808     42811     42812     42809     42808     42811     42813
     42809     42808     42811     42814     42810     42808     42811     42812
     42810     42808     42811     42813     42810     42808     42811     42814
     42811     42814     42817     42818     42811     42814     42817     42819
     42811     42814     42817     42820     42812     42811     42814     42815
     42812     42811     42814     42816     42812     42811     42814     42817
     42813     42811     42814     42815     42813     42811     42814     42816
     42813     42811     42814     42817     42814     42817     42820     42821
     42814     42817     42820     42822     42814     42817     42820     42823
     42815     42814     42817     42818     42815     42814     42817     42819
     42815     42814     42817     42820     42816     42814     42817     42818
     42816     42814     42817     42819     42816     42814     42817     42820
     42817     42820     42823     42824     42817     42820     42823     42825
     42817     42820     42823     42826     42818     42817     42820     42821
     42818     42817     42820     42822     42818     42817     42820     42823
     42819     42817     42820     42821     42819     42817     42820     42822
     42819     42817     42820     42823     42820     42823     42826     42827
     42820     42823     42826     42828     42820     42823     42826     42829
     42821     42820     42823     42824     42821     42820     42823     42825
     42821     42820     42823     42826     42822     42820     42823     42824
     42822     42820     42823     42825     42822     42820     42823     42826
     42823     42826     42829     42830     42823     42826     42829     42831
     42823     42826     42829     42832     42824     42823     42826     42827
     42824     42823     42826     42828     42824     42823     42826     42829
     42825     42823     42826     42827     42825     42823     42826     42828
     42825     42823     42826     42829     42826     42829     42832     42833
     42826     42829     42832     42834     42826     42829     42832     42835
     42827     42826     42829     42830     42827     42826     42829     42831
     42827     42826     42829     42832     42828     42826     42829     42830
     42828     42826     42829     42831     42828     42826     42829     42832
     42830     42829     42832     42833     42830     42829     42832     42834
     42830     42829     42832     42835     42831     42829     42832     42833
     42831     42829     42832     42834     42831     42829     42832     42835
     42836     42840     42843     42844     42836     42840     42843     42845
     42836     42840     42843     42850     42837     42836     42840     42841
     42837     42836     42840     42842     42837     42836     42840     42843
     42838     42836     42840     42841     42838     42836     42840     42842
     42838     42836     42840     42843     42839     42836     42840     42841
     42839     42836     42840     42842     42839     42836     42840     42843
     42840     42843     42850     42846     42841     42840     42843     42844
     42841     42840     42843     42845     42841     42840     42843     42850
     42842     42840     42843     42844     42842     42840     42843     42845
     42842     42840     42843     42850     42843     42850     42846     42847
     42843     42850     42846     42848     42843     42850     42846     42849
     42844     42843     42850     42846     42845     42843     42850     42846
     42846     42849     42851     42852     42846     42849     42851     42853
     42846     42849     42851     42854     42847     42846     42849     42851
     42848     42846     42849     42851     42849     42851     42854     42855
     42849     42851     42854     42856     42849     42851     42854     42862
     42850     42846     42849     42851     42851     42854     42856     42857
     42851     42854     42862     42863     42851     42854     42862     42864
     42851     42854     42862     42865     42852     42851     42854     42855
     42852     42851     42854     42856     42852     42851     42854     42862
     42853     42851     42854     42855     42853     42851     42854     42856
     42853     42851     42854     42862     42854     42856     42857     42858
     42854     42856     42857     42859     42854     42862     42865     42866
     42855     42854     42856     42857     42855     42854     42862     42863
     42855     42854     42862     42864     42855     42854     42862     42865
     42856     42854     42862     42863     42856     42854     42862     42864
     42856     42854     42862     42865     42856     42857     42859     42860
     42856     42857     42859     42861     42856     42857     42859     42871
     42857     42856     42854     42862     42857     42859     42871     42872
     42857     42859     42871     42873     42857     42859     42871     42874
     42858     42857     42859     42860     42858     42857     42859     42861
     42858     42857     42859     42871     42859     42871     42874     42875
     42859     42871     42874     42876     42859     42871     42874     42877
     42860     42859     42871     42872     42860     42859     42871     42873
     42860     42859     42871     42874     42861     42859     42871     42872
     42861     42859     42871     42873     42861     42859     42871     42874
     42862     42865     42866     42867     42862     42865     42866     42868
     42863     42862     42865     42866     42864     42862     42865     42866
     42865     42866     42868     42869     42865     42866     42868     42870
     42865     42866     42868     42912     42866     42868     42912     42913
     42866     42868     42912     42914     42866     42868     42912     42915
     42867     42866     42868     42869     42867     42866     42868     42870
     42867     42866     42868     42912     42868     42912     42915     42916
     42868     42912     42915     42917     42868     42912     42915     42918
     42869     42868     42912     42913     42869     42868     42912     42914
     42869     42868     42912     42915     42870     42868     42912     42913
     42870     42868     42912     42914     42870     42868     42912     42915
     42871     42874     42877     42878     42871     42874     42877     42879
     42871     42874     42877     42880     42872     42871     42874     42875
     42872     42871     42874     42876     42872     42871     42874     42877
     42873     42871     42874     42875     42873     42871     42874     42876
     42873     42871     42874     42877     42874     42877     42880     42881
     42874     42877     42880     42882     42874     42877     42880     42883
     42875     42874     42877     42878     42875     42874     42877     42879
     42875     42874     42877     42880     42876     42874     42877     42878
     42876     42874     42877     42879     42876     42874     42877     42880
     42877     42880     42883     42884     42877     42880     42883     42885
     42877     42880     42883     42886     42878     42877     42880     42881
     42878     42877     42880     42882     42878     42877     42880     42883
     42879     42877     42880     42881     42879     42877     42880     42882
     42879     42877     42880     42883     42880     42883     42886     42887
     42880     42883     42886     42888     42880     42883     42886     42889
     42881     42880     42883     42884     42881     42880     42883     42885
     42881     42880     42883     42886     42882     42880     42883     42884
     42882     42880     42883     42885     42882     42880     42883     42886
     42883     42886     42889     42890     42883     42886     42889     42891
     42884     42883     42886     42887     42884     42883     42886     42888
     42884     42883     42886     42889     42885     42883     42886     42887
     42885     42883     42886     42888     42885     42883     42886     42889
     42886     42889     42891     42892     42886     42889     42891     42893
     42887     42886     42889     42890     42887     42886     42889     42891
     42888     42886     42889     42890     42888     42886     42889     42891
     42889     42891     42893     42894     42889     42891     42893     42895
     42889     42891     42893     42896     42890     42889     42891     42892
     42890     42889     42891     42893     42891     42893     42896     42897
     42891     42893     42896     42898     42891     42893     42896     42899
     42892     42891     42893     42894     42892     42891     42893     42895
     42892     42891     42893     42896     42893     42896     42899     42900
     42893     42896     42899     42901     42893     42896     42899     42902
     42894     42893     42896     42897     42894     42893     42896     42898
     42894     42893     42896     42899     42895     42893     42896     42897
     42895     42893     42896     42898     42895     42893     42896     42899
     42896     42899     42902     42903     42896     42899     42902     42904
     42896     42899     42902     42905     42897     42896     42899     42900
     42897     42896     42899     42901     42897     42896     42899     42902
     42898     42896     42899     42900     42898     42896     42899     42901
     42898     42896     42899     42902     42899     42902     42905     42906
     42899     42902     42905     42907     42899     42902     42905     42908
     42900     42899     42902     42903     42900     42899     42902     42904
     42900     42899     42902     42905     42901     42899     42902     42903
     42901     42899     42902     42904     42901     42899     42902     42905
     42902     42905     42908     42909     42902     42905     42908     42910
     42902     42905     42908     42911     42903     42902     42905     42906
     42903     42902     42905     42907     42903     42902     42905     42908
     42904     42902     42905     42906     42904     42902     42905     42907
     42904     42902     42905     42908     42906     42905     42908     42909
     42906     42905     42908     42910     42906     42905     42908     42911
     42907     42905     42908     42909     42907     42905     42908     42910
     42907     42905     42908     42911     42912     42915     42918     42919
     42912     42915     42918     42920     42912     42915     42918     42921
     42913     42912     42915     42916     42913     42912     42915     42917
     42913     42912     42915     42918     42914     42912     42915     42916
     42914     42912     42915     42917     42914     42912     42915     42918
     42915     42918     42921     42922     42915     42918     42921     42923
     42915     42918     42921     42924     42916     42915     42918     42919
     42916     42915     42918     42920     42916     42915     42918     42921
     42917     42915     42918     42919     42917     42915     42918     42920
     42917     42915     42918     42921     42918     42921     42924     42925
     42918     42921     42924     42926     42918     42921     42924     42927
     42919     42918     42921     42922     42919     42918     42921     42923
     42919     42918     42921     42924     42920     42918     42921     42922
     42920     42918     42921     42923     42920     42918     42921     42924
     42921     42924     42927     42928     42921     42924     42927     42929
     42921     42924     42927     42930     42922     42921     42924     42925
     42922     42921     42924     42926     42922     42921     42924     42927
     42923     42921     42924     42925     42923     42921     42924     42926
     42923     42921     42924     42927     42924     42927     42930     42931
     42924     42927     42930     42932     42924     42927     42930     42933
     42925     42924     42927     42928     42925     42924     42927     42929
     42925     42924     42927     42930     42926     42924     42927     42928
     42926     42924     42927     42929     42926     42924     42927     42930
     42927     42930     42933     42934     42927     42930     42933     42935
     42927     42930     42933     42936     42928     42927     42930     42931
     42928     42927     42930     42932     42928     42927     42930     42933
     42929     42927     42930     42931     42929     42927     42930     42932
     42929     42927     42930     42933     42930     42933     42936     42937
     42930     42933     42936     42938     42930     42933     42936     42939
     42931     42930     42933     42934     42931     42930     42933     42935
     42931     42930     42933     42936     42932     42930     42933     42934
     42932     42930     42933     42935     42932     42930     42933     42936
     42933     42936     42939     42940     42933     42936     42939     42941
     42933     42936     42939     42942     42934     42933     42936     42937
     42934     42933     42936     42938     42934     42933     42936     42939
     42935     42933     42936     42937     42935     42933     42936     42938
     42935     42933     42936     42939     42936     42939     42942     42943
     42936     42939     42942     42944     42936     42939     42942     42945
     42937     42936     42939     42940     42937     42936     42939     42941
     42937     42936     42939     42942     42938     42936     42939     42940
     42938     42936     42939     42941     42938     42936     42939     42942
     42939     42942     42945     42946     42939     42942     42945     42947
     42939     42942     42945     42948     42940     42939     42942     42943
     42940     42939     42942     42944     42940     42939     42942     42945
     42941     42939     42942     42943     42941     42939     42942     42944
     42941     42939     42942     42945     42942     42945     42948     42949
     42942     42945     42948     42950     42942     42945     42948     42951
     42943     42942     42945     42946     42943     42942     42945     42947
     42943     42942     42945     42948     42944     42942     42945     42946
     42944     42942     42945     42947     42944     42942     42945     42948
     42945     42948     42951     42952     42945     42948     42951     42953
     42945     42948     42951     42954     42946     42945     42948     42949
     42946     42945     42948     42950     42946     42945     42948     42951
     42947     42945     42948     42949     42947     42945     42948     42950
     42947     42945     42948     42951     42949     42948     42951     42952
     42949     42948     42951     42953     42949     42948     42951     42954
     42950     42948     42951     42952     42950     42948     42951     42953
     42950     42948     42951     42954     42955     42959     42962     42963
     42955     42959     42962     42964     42955     42959     42962     42969
     42956     42955     42959     42960     42956     42955     42959     42961
     42956     42955     42959     42962     42957     42955     42959     42960
     42957     42955     42959     42961     42957     42955     42959     42962
     42958     42955     42959     42960     42958     42955     42959     42961
     42958     42955     42959     42962     42959     42962     42969     42965
     42960     42959     42962     42963     42960     42959     42962     42964
     42960     42959     42962     42969     42961     42959     42962     42963
     42961     42959     42962     42964     42961     42959     42962     42969
     42962     42969     42965     42966     42962     42969     42965     42967
     42962     42969     42965     42968     42963     42962     42969     42965
     42964     42962     42969     42965     42965     42968     42970     42971
     42965     42968     42970     42972     42965     42968     42970     42973
     42966     42965     42968     42970     42967     42965     42968     42970
     42968     42970     42973     42974     42968     42970     42973     42975
     42968     42970     42973     42981     42969     42965     42968     42970
     42970     42973     42975     42976     42970     42973     42981     42982
     42970     42973     42981     42983     42970     42973     42981     42984
     42971     42970     42973     42974     42971     42970     42973     42975
     42971     42970     42973     42981     42972     42970     42973     42974
     42972     42970     42973     42975     42972     42970     42973     42981
     42973     42975     42976     42977     42973     42975     42976     42978
     42973     42981     42984     42985     42974     42973     42975     42976
     42974     42973     42981     42982     42974     42973     42981     42983
     42974     42973     42981     42984     42975     42973     42981     42982
     42975     42973     42981     42983     42975     42973     42981     42984
     42975     42976     42978     42979     42975     42976     42978     42980
     42975     42976     42978     42990     42976     42975     42973     42981
     42976     42978     42990     42991     42976     42978     42990     42992
     42976     42978     42990     42993     42977     42976     42978     42979
     42977     42976     42978     42980     42977     42976     42978     42990
     42978     42990     42993     42994     42978     42990     42993     42995
     42978     42990     42993     42996     42979     42978     42990     42991
     42979     42978     42990     42992     42979     42978     42990     42993
     42980     42978     42990     42991     42980     42978     42990     42992
     42980     42978     42990     42993     42981     42984     42985     42986
     42981     42984     42985     42987     42982     42981     42984     42985
     42983     42981     42984     42985     42984     42985     42987     42988
     42984     42985     42987     42989     42984     42985     42987     43031
     42985     42987     43031     43032     42985     42987     43031     43033
     42985     42987     43031     43034     42986     42985     42987     42988
     42986     42985     42987     42989     42986     42985     42987     43031
     42987     43031     43034     43035     42987     43031     43034     43036
     42987     43031     43034     43037     42988     42987     43031     43032
     42988     42987     43031     43033     42988     42987     43031     43034
     42989     42987     43031     43032     42989     42987     43031     43033
     42989     42987     43031     43034     42990     42993     42996     42997
     42990     42993     42996     42998     42990     42993     42996     42999
     42991     42990     42993     42994     42991     42990     42993     42995
     42991     42990     42993     42996     42992     42990     42993     42994
     42992     42990     42993     42995     42992     42990     42993     42996
     42993     42996     42999     43000     42993     42996     42999     43001
     42993     42996     42999     43002     42994     42993     42996     42997
     42994     42993     42996     42998     42994     42993     42996     42999
     42995     42993     42996     42997     42995     42993     42996     42998
     42995     42993     42996     42999     42996     42999     43002     43003
     42996     42999     43002     43004     42996     42999     43002     43005
     42997     42996     42999     43000     42997     42996     42999     43001
     42997     42996     42999     43002     42998     42996     42999     43000
     42998     42996     42999     43001     42998     42996     42999     43002
     42999     43002     43005     43006     42999     43002     43005     43007
     42999     43002     43005     43008     43000     42999     43002     43003
     43000     42999     43002     43004     43000     42999     43002     43005
     43001     42999     43002     43003     43001     42999     43002     43004
     43001     42999     43002     43005     43002     43005     43008     43009
     43002     43005     43008     43010     43003     43002     43005     43006
     43003     43002     43005     43007     43003     43002     43005     43008
     43004     43002     43005     43006     43004     43002     43005     43007
     43004     43002     43005     43008     43005     43008     43010     43011
     43005     43008     43010     43012     43006     43005     43008     43009
     43006     43005     43008     43010     43007     43005     43008     43009
     43007     43005     43008     43010     43008     43010     43012     43013
     43008     43010     43012     43014     43008     43010     43012     43015
     43009     43008     43010     43011     43009     43008     43010     43012
     43010     43012     43015     43016     43010     43012     43015     43017
     43010     43012     43015     43018     43011     43010     43012     43013
     43011     43010     43012     43014     43011     43010     43012     43015
     43012     43015     43018     43019     43012     43015     43018     43020
     43012     43015     43018     43021     43013     43012     43015     43016
     43013     43012     43015     43017     43013     43012     43015     43018
     43014     43012     43015     43016     43014     43012     43015     43017
     43014     43012     43015     43018     43015     43018     43021     43022
     43015     43018     43021     43023     43015     43018     43021     43024
     43016     43015     43018     43019     43016     43015     43018     43020
     43016     43015     43018     43021     43017     43015     43018     43019
     43017     43015     43018     43020     43017     43015     43018     43021
     43018     43021     43024     43025     43018     43021     43024     43026
     43018     43021     43024     43027     43019     43018     43021     43022
     43019     43018     43021     43023     43019     43018     43021     43024
     43020     43018     43021     43022     43020     43018     43021     43023
     43020     43018     43021     43024     43021     43024     43027     43028
     43021     43024     43027     43029     43021     43024     43027     43030
     43022     43021     43024     43025     43022     43021     43024     43026
     43022     43021     43024     43027     43023     43021     43024     43025
     43023     43021     43024     43026     43023     43021     43024     43027
     43025     43024     43027     43028     43025     43024     43027     43029
     43025     43024     43027     43030     43026     43024     43027     43028
     43026     43024     43027     43029     43026     43024     43027     43030
     43031     43034     43037     43038     43031     43034     43037     43039
     43031     43034     43037     43040     43032     43031     43034     43035
     43032     43031     43034     43036     43032     43031     43034     43037
     43033     43031     43034     43035     43033     43031     43034     43036
     43033     43031     43034     43037     43034     43037     43040     43041
     43034     43037     43040     43042     43034     43037     43040     43043
     43035     43034     43037     43038     43035     43034     43037     43039
     43035     43034     43037     43040     43036     43034     43037     43038
     43036     43034     43037     43039     43036     43034     43037     43040
     43037     43040     43043     43044     43037     43040     43043     43045
     43037     43040     43043     43046     43038     43037     43040     43041
     43038     43037     43040     43042     43038     43037     43040     43043
     43039     43037     43040     43041     43039     43037     43040     43042
     43039     43037     43040     43043     43040     43043     43046     43047
     43040     43043     43046     43048     43040     43043     43046     43049
     43041     43040     43043     43044     43041     43040     43043     43045
     43041     43040     43043     43046     43042     43040     43043     43044
     43042     43040     43043     43045     43042     43040     43043     43046
     43043     43046     43049     43050     43043     43046     43049     43051
     43043     43046     43049     43052     43044     43043     43046     43047
     43044     43043     43046     43048     43044     43043     43046     43049
     43045     43043     43046     43047     43045     43043     43046     43048
     43045     43043     43046     43049     43046     43049     43052     43053
     43046     43049     43052     43054     43046     43049     43052     43055
     43047     43046     43049     43050     43047     43046     43049     43051
     43047     43046     43049     43052     43048     43046     43049     43050
     43048     43046     43049     43051     43048     43046     43049     43052
     43049     43052     43055     43056     43049     43052     43055     43057
     43049     43052     43055     43058     43050     43049     43052     43053
     43050     43049     43052     43054     43050     43049     43052     43055
     43051     43049     43052     43053     43051     43049     43052     43054
     43051     43049     43052     43055     43052     43055     43058     43059
     43052     43055     43058     43060     43052     43055     43058     43061
     43053     43052     43055     43056     43053     43052     43055     43057
     43053     43052     43055     43058     43054     43052     43055     43056
     43054     43052     43055     43057     43054     43052     43055     43058
     43055     43058     43061     43062     43055     43058     43061     43063
     43055     43058     43061     43064     43056     43055     43058     43059
     43056     43055     43058     43060     43056     43055     43058     43061
     43057     43055     43058     43059     43057     43055     43058     43060
     43057     43055     43058     43061     43058     43061     43064     43065
     43058     43061     43064     43066     43058     43061     43064     43067
     43059     43058     43061     43062     43059     43058     43061     43063
     43059     43058     43061     43064     43060     43058     43061     43062
     43060     43058     43061     43063     43060     43058     43061     43064
     43061     43064     43067     43068     43061     43064     43067     43069
     43061     43064     43067     43070     43062     43061     43064     43065
     43062     43061     43064     43066     43062     43061     43064     43067
     43063     43061     43064     43065     43063     43061     43064     43066
     43063     43061     43064     43067     43064     43067     43070     43071
     43064     43067     43070     43072     43064     43067     43070     43073
     43065     43064     43067     43068     43065     43064     43067     43069
     43065     43064     43067     43070     43066     43064     43067     43068
     43066     43064     43067     43069     43066     43064     43067     43070
     43068     43067     43070     43071     43068     43067     43070     43072
     43068     43067     43070     43073     43069     43067     43070     43071
     43069     43067     43070     43072     43069     43067     43070     43073
     43074     43078     43081     43082     43074     43078     43081     43083
     43074     43078     43081     43088     43075     43074     43078     43079
     43075     43074     43078     43080     43075     43074     43078     43081
     43076     43074     43078     43079     43076     43074     43078     43080
     43076     43074     43078     43081     43077     43074     43078     43079
     43077     43074     43078     43080     43077     43074     43078     43081
     43078     43081     43088     43084     43079     43078     43081     43082
     43079     43078     43081     43083     43079     43078     43081     43088
     43080     43078     43081     43082     43080     43078     43081     43083
     43080     43078     43081     43088     43081     43088     43084     43085
     43081     43088     43084     43086     43081     43088     43084     43087
     43082     43081     43088     43084     43083     43081     43088     43084
     43084     43087     43089     43090     43084     43087     43089     43091
     43084     43087     43089     43092     43085     43084     43087     43089
     43086     43084     43087     43089     43087     43089     43092     43093
     43087     43089     43092     43094     43087     43089     43092     43100
     43088     43084     43087     43089     43089     43092     43094     43095
     43089     43092     43100     43101     43089     43092     43100     43102
     43089     43092     43100     43103     43090     43089     43092     43093
     43090     43089     43092     43094     43090     43089     43092     43100
     43091     43089     43092     43093     43091     43089     43092     43094
     43091     43089     43092     43100     43092     43094     43095     43096
     43092     43094     43095     43097     43092     43100     43103     43104
     43093     43092     43094     43095     43093     43092     43100     43101
     43093     43092     43100     43102     43093     43092     43100     43103
     43094     43092     43100     43101     43094     43092     43100     43102
     43094     43092     43100     43103     43094     43095     43097     43098
     43094     43095     43097     43099     43094     43095     43097     43109
     43095     43094     43092     43100     43095     43097     43109     43110
     43095     43097     43109     43111     43095     43097     43109     43112
     43096     43095     43097     43098     43096     43095     43097     43099
     43096     43095     43097     43109     43097     43109     43112     43113
     43097     43109     43112     43114     43097     43109     43112     43115
     43098     43097     43109     43110     43098     43097     43109     43111
     43098     43097     43109     43112     43099     43097     43109     43110
     43099     43097     43109     43111     43099     43097     43109     43112
     43100     43103     43104     43105     43100     43103     43104     43106
     43101     43100     43103     43104     43102     43100     43103     43104
     43103     43104     43106     43107     43103     43104     43106     43108
     43103     43104     43106     43150     43104     43106     43150     43151
     43104     43106     43150     43152     43104     43106     43150     43153
     43105     43104     43106     43107     43105     43104     43106     43108
     43105     43104     43106     43150     43106     43150     43153     43154
     43106     43150     43153     43155     43106     43150     43153     43156
     43107     43106     43150     43151     43107     43106     43150     43152
     43107     43106     43150     43153     43108     43106     43150     43151
     43108     43106     43150     43152     43108     43106     43150     43153
     43109     43112     43115     43116     43109     43112     43115     43117
     43109     43112     43115     43118     43110     43109     43112     43113
     43110     43109     43112     43114     43110     43109     43112     43115
     43111     43109     43112     43113     43111     43109     43112     43114
     43111     43109     43112     43115     43112     43115     43118     43119
     43112     43115     43118     43120     43112     43115     43118     43121
     43113     43112     43115     43116     43113     43112     43115     43117
     43113     43112     43115     43118     43114     43112     43115     43116
     43114     43112     43115     43117     43114     43112     43115     43118
     43115     43118     43121     43122     43115     43118     43121     43123
     43115     43118     43121     43124     43116     43115     43118     43119
     43116     43115     43118     43120     43116     43115     43118     43121
     43117     43115     43118     43119     43117     43115     43118     43120
     43117     43115     43118     43121     43118     43121     43124     43125
     43118     43121     43124     43126     43118     43121     43124     43127
     43119     43118     43121     43122     43119     43118     43121     43123
     43119     43118     43121     43124     43120     43118     43121     43122
     43120     43118     43121     43123     43120     43118     43121     43124
     43121     43124     43127     43128     43121     43124     43127     43129
     43122     43121     43124     43125     43122     43121     43124     43126
     43122     43121     43124     43127     43123     43121     43124     43125
     43123     43121     43124     43126     43123     43121     43124     43127
     43124     43127     43129     43130     43124     43127     43129     43131
     43125     43124     43127     43128     43125     43124     43127     43129
     43126     43124     43127     43128     43126     43124     43127     43129
     43127     43129     43131     43132     43127     43129     43131     43133
     43127     43129     43131     43134     43128     43127     43129     43130
     43128     43127     43129     43131     43129     43131     43134     43135
     43129     43131     43134     43136     43129     43131     43134     43137
     43130     43129     43131     43132     43130     43129     43131     43133
     43130     43129     43131     43134     43131     43134     43137     43138
     43131     43134     43137     43139     43131     43134     43137     43140
     43132     43131     43134     43135     43132     43131     43134     43136
     43132     43131     43134     43137     43133     43131     43134     43135
     43133     43131     43134     43136     43133     43131     43134     43137
     43134     43137     43140     43141     43134     43137     43140     43142
     43134     43137     43140     43143     43135     43134     43137     43138
     43135     43134     43137     43139     43135     43134     43137     43140
     43136     43134     43137     43138     43136     43134     43137     43139
     43136     43134     43137     43140     43137     43140     43143     43144
     43137     43140     43143     43145     43137     43140     43143     43146
     43138     43137     43140     43141     43138     43137     43140     43142
     43138     43137     43140     43143     43139     43137     43140     43141
     43139     43137     43140     43142     43139     43137     43140     43143
     43140     43143     43146     43147     43140     43143     43146     43148
     43140     43143     43146     43149     43141     43140     43143     43144
     43141     43140     43143     43145     43141     43140     43143     43146
     43142     43140     43143     43144     43142     43140     43143     43145
     43142     43140     43143     43146     43144     43143     43146     43147
     43144     43143     43146     43148     43144     43143     43146     43149
     43145     43143     43146     43147     43145     43143     43146     43148
     43145     43143     43146     43149     43150     43153     43156     43157
     43150     43153     43156     43158     43150     43153     43156     43159
     43151     43150     43153     43154     43151     43150     43153     43155
     43151     43150     43153     43156     43152     43150     43153     43154
     43152     43150     43153     43155     43152     43150     43153     43156
     43153     43156     43159     43160     43153     43156     43159     43161
     43153     43156     43159     43162     43154     43153     43156     43157
     43154     43153     43156     43158     43154     43153     43156     43159
     43155     43153     43156     43157     43155     43153     43156     43158
     43155     43153     43156     43159     43156     43159     43162     43163
     43156     43159     43162     43164     43156     43159     43162     43165
     43157     43156     43159     43160     43157     43156     43159     43161
     43157     43156     43159     43162     43158     43156     43159     43160
     43158     43156     43159     43161     43158     43156     43159     43162
     43159     43162     43165     43166     43159     43162     43165     43167
     43159     43162     43165     43168     43160     43159     43162     43163
     43160     43159     43162     43164     43160     43159     43162     43165
     43161     43159     43162     43163     43161     43159     43162     43164
     43161     43159     43162     43165     43162     43165     43168     43169
     43162     43165     43168     43170     43162     43165     43168     43171
     43163     43162     43165     43166     43163     43162     43165     43167
     43163     43162     43165     43168     43164     43162     43165     43166
     43164     43162     43165     43167     43164     43162     43165     43168
     43165     43168     43171     43172     43165     43168     43171     43173
     43165     43168     43171     43174     43166     43165     43168     43169
     43166     43165     43168     43170     43166     43165     43168     43171
     43167     43165     43168     43169     43167     43165     43168     43170
     43167     43165     43168     43171     43168     43171     43174     43175
     43168     43171     43174     43176     43168     43171     43174     43177
     43169     43168     43171     43172     43169     43168     43171     43173
     43169     43168     43171     43174     43170     43168     43171     43172
     43170     43168     43171     43173     43170     43168     43171     43174
     43171     43174     43177     43178     43171     43174     43177     43179
     43171     43174     43177     43180     43172     43171     43174     43175
     43172     43171     43174     43176     43172     43171     43174     43177
     43173     43171     43174     43175     43173     43171     43174     43176
     43173     43171     43174     43177     43174     43177     43180     43181
     43174     43177     43180     43182     43174     43177     43180     43183
     43175     43174     43177     43178     43175     43174     43177     43179
     43175     43174     43177     43180     43176     43174     43177     43178
     43176     43174     43177     43179     43176     43174     43177     43180
     43177     43180     43183     43184     43177     43180     43183     43185
     43177     43180     43183     43186     43178     43177     43180     43181
     43178     43177     43180     43182     43178     43177     43180     43183
     43179     43177     43180     43181     43179     43177     43180     43182
     43179     43177     43180     43183     43180     43183     43186     43187
     43180     43183     43186     43188     43180     43183     43186     43189
     43181     43180     43183     43184     43181     43180     43183     43185
     43181     43180     43183     43186     43182     43180     43183     43184
     43182     43180     43183     43185     43182     43180     43183     43186
     43183     43186     43189     43190     43183     43186     43189     43191
     43183     43186     43189     43192     43184     43183     43186     43187
     43184     43183     43186     43188     43184     43183     43186     43189
     43185     43183     43186     43187     43185     43183     43186     43188
     43185     43183     43186     43189     43187     43186     43189     43190
     43187     43186     43189     43191     43187     43186     43189     43192
     43188     43186     43189     43190     43188     43186     43189     43191
     43188     43186     43189     43192     43193     43198     43200     43201
     43193     43198     43202     43203     43193     43198     43202     43204
     43193     43198     43202     43208     43194     43193     43196     43197
     43194     43193     43198     43199     43194     43193     43198     43200
     43194     43193     43198     43202     43195     43193     43196     43197
     43195     43193     43198     43199     43195     43193     43198     43200
     43195     43193     43198     43202     43196     43193     43198     43199
     43196     43193     43198     43200     43196     43193     43198     43202
     43197     43196     43193     43198     43198     43202     43208     43205
     43199     43198     43200     43201     43199     43198     43202     43203
     43199     43198     43202     43204     43199     43198     43202     43208
     43200     43198     43202     43203     43200     43198     43202     43204
     43200     43198     43202     43208     43201     43200     43198     43202
     43202     43208     43205     43206     43202     43208     43205     43207
     43202     43208     43205     43209     43203     43202     43208     43205
     43204     43202     43208     43205     43205     43209     43210     43211
     43205     43209     43210     43212     43205     43209     43210     43213
     43206     43205     43209     43210     43207     43205     43209     43210
     43208     43205     43209     43210     43209     43210     43213     43214
     43209     43210     43213     43215     43209     43210     43213     43221
     43210     43213     43215     43216     43210     43213     43221     43222
     43210     43213     43221     43223     43210     43213     43221     43224
     43211     43210     43213     43214     43211     43210     43213     43215
     43211     43210     43213     43221     43212     43210     43213     43214
     43212     43210     43213     43215     43212     43210     43213     43221
     43213     43215     43216     43217     43213     43215     43216     43218
     43213     43221     43224     43225     43214     43213     43215     43216
     43214     43213     43221     43222     43214     43213     43221     43223
     43214     43213     43221     43224     43215     43213     43221     43222
     43215     43213     43221     43223     43215     43213     43221     43224
     43215     43216     43218     43219     43215     43216     43218     43220
     43215     43216     43218     43230     43216     43215     43213     43221
     43216     43218     43230     43231     43216     43218     43230     43232
     43216     43218     43230     43233     43217     43216     43218     43219
     43217     43216     43218     43220     43217     43216     43218     43230
     43218     43230     43233     43234     43218     43230     43233     43235
     43218     43230     43233     43236     43219     43218     43230     43231
     43219     43218     43230     43232     43219     43218     43230     43233
     43220     43218     43230     43231     43220     43218     43230     43232
     43220     43218     43230     43233     43221     43224     43225     43226
     43221     43224     43225     43227     43222     43221     43224     43225
     43223     43221     43224     43225     43224     43225     43227     43228
     43224     43225     43227     43229     43224     43225     43227     43277
     43225     43227     43277     43278     43225     43227     43277     43279
     43225     43227     43277     43280     43226     43225     43227     43228
     43226     43225     43227     43229     43226     43225     43227     43277
     43227     43277     43280     43281     43227     43277     43280     43282
     43227     43277     43280     43283     43228     43227     43277     43278
     43228     43227     43277     43279     43228     43227     43277     43280
     43229     43227     43277     43278     43229     43227     43277     43279
     43229     43227     43277     43280     43230     43233     43236     43237
     43230     43233     43236     43238     43230     43233     43236     43239
     43231     43230     43233     43234     43231     43230     43233     43235
     43231     43230     43233     43236     43232     43230     43233     43234
     43232     43230     43233     43235     43232     43230     43233     43236
     43233     43236     43239     43240     43233     43236     43239     43241
     43233     43236     43239     43242     43234     43233     43236     43237
     43234     43233     43236     43238     43234     43233     43236     43239
     43235     43233     43236     43237     43235     43233     43236     43238
     43235     43233     43236     43239     43236     43239     43242     43243
     43236     43239     43242     43244     43236     43239     43242     43245
     43237     43236     43239     43240     43237     43236     43239     43241
     43237     43236     43239     43242     43238     43236     43239     43240
     43238     43236     43239     43241     43238     43236     43239     43242
     43239     43242     43245     43246     43239     43242     43245     43247
     43239     43242     43245     43248     43240     43239     43242     43243
     43240     43239     43242     43244     43240     43239     43242     43245
     43241     43239     43242     43243     43241     43239     43242     43244
     43241     43239     43242     43245     43242     43245     43248     43249
     43242     43245     43248     43250     43242     43245     43248     43251
     43243     43242     43245     43246     43243     43242     43245     43247
     43243     43242     43245     43248     43244     43242     43245     43246
     43244     43242     43245     43247     43244     43242     43245     43248
     43245     43248     43251     43252     43245     43248     43251     43253
     43245     43248     43251     43254     43246     43245     43248     43249
     43246     43245     43248     43250     43246     43245     43248     43251
     43247     43245     43248     43249     43247     43245     43248     43250
     43247     43245     43248     43251     43248     43251     43254     43255
     43248     43251     43254     43256     43249     43248     43251     43252
     43249     43248     43251     43253     43249     43248     43251     43254
     43250     43248     43251     43252     43250     43248     43251     43253
     43250     43248     43251     43254     43251     43254     43256     43257
     43251     43254     43256     43258     43252     43251     43254     43255
     43252     43251     43254     43256     43253     43251     43254     43255
     43253     43251     43254     43256     43254     43256     43258     43259
     43254     43256     43258     43260     43254     43256     43258     43261
     43255     43254     43256     43257     43255     43254     43256     43258
     43256     43258     43261     43262     43256     43258     43261     43263
     43256     43258     43261     43264     43257     43256     43258     43259
     43257     43256     43258     43260     43257     43256     43258     43261
     43258     43261     43264     43265     43258     43261     43264     43266
     43258     43261     43264     43267     43259     43258     43261     43262
     43259     43258     43261     43263     43259     43258     43261     43264
     43260     43258     43261     43262     43260     43258     43261     43263
     43260     43258     43261     43264     43261     43264     43267     43268
     43261     43264     43267     43269     43261     43264     43267     43270
     43262     43261     43264     43265     43262     43261     43264     43266
     43262     43261     43264     43267     43263     43261     43264     43265
     43263     43261     43264     43266     43263     43261     43264     43267
     43264     43267     43270     43271     43264     43267     43270     43272
     43264     43267     43270     43273     43265     43264     43267     43268
     43265     43264     43267     43269     43265     43264     43267     43270
     43266     43264     43267     43268     43266     43264     43267     43269
     43266     43264     43267     43270     43267     43270     43273     43274
     43267     43270     43273     43275     43267     43270     43273     43276
     43268     43267     43270     43271     43268     43267     43270     43272
     43268     43267     43270     43273     43269     43267     43270     43271
     43269     43267     43270     43272     43269     43267     43270     43273
     43271     43270     43273     43274     43271     43270     43273     43275
     43271     43270     43273     43276     43272     43270     43273     43274
     43272     43270     43273     43275     43272     43270     43273     43276
     43277     43280     43283     43284     43277     43280     43283     43285
     43277     43280     43283     43286     43278     43277     43280     43281
     43278     43277     43280     43282     43278     43277     43280     43283
     43279     43277     43280     43281     43279     43277     43280     43282
     43279     43277     43280     43283     43280     43283     43286     43287
     43280     43283     43286     43288     43280     43283     43286     43289
     43281     43280     43283     43284     43281     43280     43283     43285
     43281     43280     43283     43286     43282     43280     43283     43284
     43282     43280     43283     43285     43282     43280     43283     43286
     43283     43286     43289     43290     43283     43286     43289     43291
     43283     43286     43289     43292     43284     43283     43286     43287
     43284     43283     43286     43288     43284     43283     43286     43289
     43285     43283     43286     43287     43285     43283     43286     43288
     43285     43283     43286     43289     43286     43289     43292     43293
     43286     43289     43292     43294     43286     43289     43292     43295
     43287     43286     43289     43290     43287     43286     43289     43291
     43287     43286     43289     43292     43288     43286     43289     43290
     43288     43286     43289     43291     43288     43286     43289     43292
     43289     43292     43295     43296     43289     43292     43295     43297
     43289     43292     43295     43298     43290     43289     43292     43293
     43290     43289     43292     43294     43290     43289     43292     43295
     43291     43289     43292     43293     43291     43289     43292     43294
     43291     43289     43292     43295     43292     43295     43298     43299
     43292     43295     43298     43300     43292     43295     43298     43301
     43293     43292     43295     43296     43293     43292     43295     43297
     43293     43292     43295     43298     43294     43292     43295     43296
     43294     43292     43295     43297     43294     43292     43295     43298
     43295     43298     43301     43302     43295     43298     43301     43303
     43295     43298     43301     43304     43296     43295     43298     43299
     43296     43295     43298     43300     43296     43295     43298     43301
     43297     43295     43298     43299     43297     43295     43298     43300
     43297     43295     43298     43301     43298     43301     43304     43305
     43298     43301     43304     43306     43298     43301     43304     43307
     43299     43298     43301     43302     43299     43298     43301     43303
     43299     43298     43301     43304     43300     43298     43301     43302
     43300     43298     43301     43303     43300     43298     43301     43304
     43301     43304     43307     43308     43301     43304     43307     43309
     43301     43304     43307     43310     43302     43301     43304     43305
     43302     43301     43304     43306     43302     43301     43304     43307
     43303     43301     43304     43305     43303     43301     43304     43306
     43303     43301     43304     43307     43304     43307     43310     43311
     43304     43307     43310     43312     43304     43307     43310     43313
     43305     43304     43307     43308     43305     43304     43307     43309
     43305     43304     43307     43310     43306     43304     43307     43308
     43306     43304     43307     43309     43306     43304     43307     43310
     43307     43310     43313     43314     43307     43310     43313     43315
     43307     43310     43313     43316     43308     43307     43310     43311
     43308     43307     43310     43312     43308     43307     43310     43313
     43309     43307     43310     43311     43309     43307     43310     43312
     43309     43307     43310     43313     43310     43313     43316     43317
     43310     43313     43316     43318     43310     43313     43316     43319
     43311     43310     43313     43314     43311     43310     43313     43315
     43311     43310     43313     43316     43312     43310     43313     43314
     43312     43310     43313     43315     43312     43310     43313     43316
     43314     43313     43316     43317     43314     43313     43316     43318
     43314     43313     43316     43319     43315     43313     43316     43317
     43315     43313     43316     43318     43315     43313     43316     43319
     43320     43325     43327     43328     43320     43325     43329     43330
     43320     43325     43329     43331     43320     43325     43329     43335
     43321     43320     43323     43324     43321     43320     43325     43326
     43321     43320     43325     43327     43321     43320     43325     43329
     43322     43320     43323     43324     43322     43320     43325     43326
     43322     43320     43325     43327     43322     43320     43325     43329
     43323     43320     43325     43326     43323     43320     43325     43327
     43323     43320     43325     43329     43324     43323     43320     43325
     43325     43329     43335     43332     43326     43325     43327     43328
     43326     43325     43329     43330     43326     43325     43329     43331
     43326     43325     43329     43335     43327     43325     43329     43330
     43327     43325     43329     43331     43327     43325     43329     43335
     43328     43327     43325     43329     43329     43335     43332     43333
     43329     43335     43332     43334     43329     43335     43332     43336
     43330     43329     43335     43332     43331     43329     43335     43332
     43332     43336     43337     43338     43332     43336     43337     43339
     43332     43336     43337     43340     43333     43332     43336     43337
     43334     43332     43336     43337     43335     43332     43336     43337
     43336     43337     43340     43341     43336     43337     43340     43342
     43336     43337     43340     43348     43337     43340     43342     43343
     43337     43340     43348     43349     43337     43340     43348     43350
     43337     43340     43348     43351     43338     43337     43340     43341
     43338     43337     43340     43342     43338     43337     43340     43348
     43339     43337     43340     43341     43339     43337     43340     43342
     43339     43337     43340     43348     43340     43342     43343     43344
     43340     43342     43343     43345     43340     43348     43351     43352
     43341     43340     43342     43343     43341     43340     43348     43349
     43341     43340     43348     43350     43341     43340     43348     43351
     43342     43340     43348     43349     43342     43340     43348     43350
     43342     43340     43348     43351     43342     43343     43345     43346
     43342     43343     43345     43347     43342     43343     43345     43357
     43343     43342     43340     43348     43343     43345     43357     43358
     43343     43345     43357     43359     43343     43345     43357     43360
     43344     43343     43345     43346     43344     43343     43345     43347
     43344     43343     43345     43357     43345     43357     43360     43361
     43345     43357     43360     43362     43345     43357     43360     43363
     43346     43345     43357     43358     43346     43345     43357     43359
     43346     43345     43357     43360     43347     43345     43357     43358
     43347     43345     43357     43359     43347     43345     43357     43360
     43348     43351     43352     43353     43348     43351     43352     43354
     43349     43348     43351     43352     43350     43348     43351     43352
     43351     43352     43354     43355     43351     43352     43354     43356
     43351     43352     43354     43404     43352     43354     43404     43405
     43352     43354     43404     43406     43352     43354     43404     43407
     43353     43352     43354     43355     43353     43352     43354     43356
     43353     43352     43354     43404     43354     43404     43407     43408
     43354     43404     43407     43409     43354     43404     43407     43410
     43355     43354     43404     43405     43355     43354     43404     43406
     43355     43354     43404     43407     43356     43354     43404     43405
     43356     43354     43404     43406     43356     43354     43404     43407
     43357     43360     43363     43364     43357     43360     43363     43365
     43357     43360     43363     43366     43358     43357     43360     43361
     43358     43357     43360     43362     43358     43357     43360     43363
     43359     43357     43360     43361     43359     43357     43360     43362
     43359     43357     43360     43363     43360     43363     43366     43367
     43360     43363     43366     43368     43360     43363     43366     43369
     43361     43360     43363     43364     43361     43360     43363     43365
     43361     43360     43363     43366     43362     43360     43363     43364
     43362     43360     43363     43365     43362     43360     43363     43366
     43363     43366     43369     43370     43363     43366     43369     43371
     43363     43366     43369     43372     43364     43363     43366     43367
     43364     43363     43366     43368     43364     43363     43366     43369
     43365     43363     43366     43367     43365     43363     43366     43368
     43365     43363     43366     43369     43366     43369     43372     43373
     43366     43369     43372     43374     43366     43369     43372     43375
     43367     43366     43369     43370     43367     43366     43369     43371
     43367     43366     43369     43372     43368     43366     43369     43370
     43368     43366     43369     43371     43368     43366     43369     43372
     43369     43372     43375     43376     43369     43372     43375     43377
     43369     43372     43375     43378     43370     43369     43372     43373
     43370     43369     43372     43374     43370     43369     43372     43375
     43371     43369     43372     43373     43371     43369     43372     43374
     43371     43369     43372     43375     43372     43375     43378     43379
     43372     43375     43378     43380     43372     43375     43378     43381
     43373     43372     43375     43376     43373     43372     43375     43377
     43373     43372     43375     43378     43374     43372     43375     43376
     43374     43372     43375     43377     43374     43372     43375     43378
     43375     43378     43381     43382     43375     43378     43381     43383
     43376     43375     43378     43379     43376     43375     43378     43380
     43376     43375     43378     43381     43377     43375     43378     43379
     43377     43375     43378     43380     43377     43375     43378     43381
     43378     43381     43383     43384     43378     43381     43383     43385
     43379     43378     43381     43382     43379     43378     43381     43383
     43380     43378     43381     43382     43380     43378     43381     43383
     43381     43383     43385     43386     43381     43383     43385     43387
     43381     43383     43385     43388     43382     43381     43383     43384
     43382     43381     43383     43385     43383     43385     43388     43389
     43383     43385     43388     43390     43383     43385     43388     43391
     43384     43383     43385     43386     43384     43383     43385     43387
     43384     43383     43385     43388     43385     43388     43391     43392
     43385     43388     43391     43393     43385     43388     43391     43394
     43386     43385     43388     43389     43386     43385     43388     43390
     43386     43385     43388     43391     43387     43385     43388     43389
     43387     43385     43388     43390     43387     43385     43388     43391
     43388     43391     43394     43395     43388     43391     43394     43396
     43388     43391     43394     43397     43389     43388     43391     43392
     43389     43388     43391     43393     43389     43388     43391     43394
     43390     43388     43391     43392     43390     43388     43391     43393
     43390     43388     43391     43394     43391     43394     43397     43398
     43391     43394     43397     43399     43391     43394     43397     43400
     43392     43391     43394     43395     43392     43391     43394     43396
     43392     43391     43394     43397     43393     43391     43394     43395
     43393     43391     43394     43396     43393     43391     43394     43397
     43394     43397     43400     43401     43394     43397     43400     43402
     43394     43397     43400     43403     43395     43394     43397     43398
     43395     43394     43397     43399     43395     43394     43397     43400
     43396     43394     43397     43398     43396     43394     43397     43399
     43396     43394     43397     43400     43398     43397     43400     43401
     43398     43397     43400     43402     43398     43397     43400     43403
     43399     43397     43400     43401     43399     43397     43400     43402
     43399     43397     43400     43403     43404     43407     43410     43411
     43404     43407     43410     43412     43404     43407     43410     43413
     43405     43404     43407     43408     43405     43404     43407     43409
     43405     43404     43407     43410     43406     43404     43407     43408
     43406     43404     43407     43409     43406     43404     43407     43410
     43407     43410     43413     43414     43407     43410     43413     43415
     43407     43410     43413     43416     43408     43407     43410     43411
     43408     43407     43410     43412     43408     43407     43410     43413
     43409     43407     43410     43411     43409     43407     43410     43412
     43409     43407     43410     43413     43410     43413     43416     43417
     43410     43413     43416     43418     43410     43413     43416     43419
     43411     43410     43413     43414     43411     43410     43413     43415
     43411     43410     43413     43416     43412     43410     43413     43414
     43412     43410     43413     43415     43412     43410     43413     43416
     43413     43416     43419     43420     43413     43416     43419     43421
     43413     43416     43419     43422     43414     43413     43416     43417
     43414     43413     43416     43418     43414     43413     43416     43419
     43415     43413     43416     43417     43415     43413     43416     43418
     43415     43413     43416     43419     43416     43419     43422     43423
     43416     43419     43422     43424     43416     43419     43422     43425
     43417     43416     43419     43420     43417     43416     43419     43421
     43417     43416     43419     43422     43418     43416     43419     43420
     43418     43416     43419     43421     43418     43416     43419     43422
     43419     43422     43425     43426     43419     43422     43425     43427
     43419     43422     43425     43428     43420     43419     43422     43423
     43420     43419     43422     43424     43420     43419     43422     43425
     43421     43419     43422     43423     43421     43419     43422     43424
     43421     43419     43422     43425     43422     43425     43428     43429
     43422     43425     43428     43430     43422     43425     43428     43431
     43423     43422     43425     43426     43423     43422     43425     43427
     43423     43422     43425     43428     43424     43422     43425     43426
     43424     43422     43425     43427     43424     43422     43425     43428
     43425     43428     43431     43432     43425     43428     43431     43433
     43425     43428     43431     43434     43426     43425     43428     43429
     43426     43425     43428     43430     43426     43425     43428     43431
     43427     43425     43428     43429     43427     43425     43428     43430
     43427     43425     43428     43431     43428     43431     43434     43435
     43428     43431     43434     43436     43428     43431     43434     43437
     43429     43428     43431     43432     43429     43428     43431     43433
     43429     43428     43431     43434     43430     43428     43431     43432
     43430     43428     43431     43433     43430     43428     43431     43434
     43431     43434     43437     43438     43431     43434     43437     43439
     43431     43434     43437     43440     43432     43431     43434     43435
     43432     43431     43434     43436     43432     43431     43434     43437
     43433     43431     43434     43435     43433     43431     43434     43436
     43433     43431     43434     43437     43434     43437     43440     43441
     43434     43437     43440     43442     43434     43437     43440     43443
     43435     43434     43437     43438     43435     43434     43437     43439
     43435     43434     43437     43440     43436     43434     43437     43438
     43436     43434     43437     43439     43436     43434     43437     43440
     43437     43440     43443     43444     43437     43440     43443     43445
     43437     43440     43443     43446     43438     43437     43440     43441
     43438     43437     43440     43442     43438     43437     43440     43443
     43439     43437     43440     43441     43439     43437     43440     43442
     43439     43437     43440     43443     43441     43440     43443     43444
     43441     43440     43443     43445     43441     43440     43443     43446
     43442     43440     43443     43444     43442     43440     43443     43445
     43442     43440     43443     43446     43447     43451     43454     43455
     43447     43451     43454     43456     43447     43451     43454     43461
     43448     43447     43451     43452     43448     43447     43451     43453
     43448     43447     43451     43454     43449     43447     43451     43452
     43449     43447     43451     43453     43449     43447     43451     43454
     43450     43447     43451     43452     43450     43447     43451     43453
     43450     43447     43451     43454     43451     43454     43461     43457
     43452     43451     43454     43455     43452     43451     43454     43456
     43452     43451     43454     43461     43453     43451     43454     43455
     43453     43451     43454     43456     43453     43451     43454     43461
     43454     43461     43457     43458     43454     43461     43457     43459
     43454     43461     43457     43460     43455     43454     43461     43457
     43456     43454     43461     43457     43457     43460     43462     43463
     43457     43460     43462     43464     43457     43460     43462     43465
     43458     43457     43460     43462     43459     43457     43460     43462
     43460     43462     43465     43466     43460     43462     43465     43467
     43460     43462     43465     43473     43461     43457     43460     43462
     43462     43465     43467     43468     43462     43465     43473     43474
     43462     43465     43473     43475     43462     43465     43473     43476
     43463     43462     43465     43466     43463     43462     43465     43467
     43463     43462     43465     43473     43464     43462     43465     43466
     43464     43462     43465     43467     43464     43462     43465     43473
     43465     43467     43468     43469     43465     43467     43468     43470
     43465     43473     43476     43477     43466     43465     43467     43468
     43466     43465     43473     43474     43466     43465     43473     43475
     43466     43465     43473     43476     43467     43465     43473     43474
     43467     43465     43473     43475     43467     43465     43473     43476
     43467     43468     43470     43471     43467     43468     43470     43472
     43467     43468     43470     43482     43468     43467     43465     43473
     43468     43470     43482     43483     43468     43470     43482     43484
     43468     43470     43482     43485     43469     43468     43470     43471
     43469     43468     43470     43472     43469     43468     43470     43482
     43470     43482     43485     43486     43470     43482     43485     43487
     43470     43482     43485     43488     43471     43470     43482     43483
     43471     43470     43482     43484     43471     43470     43482     43485
     43472     43470     43482     43483     43472     43470     43482     43484
     43472     43470     43482     43485     43473     43476     43477     43478
     43473     43476     43477     43479     43474     43473     43476     43477
     43475     43473     43476     43477     43476     43477     43479     43480
     43476     43477     43479     43481     43476     43477     43479     43523
     43477     43479     43523     43524     43477     43479     43523     43525
     43477     43479     43523     43526     43478     43477     43479     43480
     43478     43477     43479     43481     43478     43477     43479     43523
     43479     43523     43526     43527     43479     43523     43526     43528
     43479     43523     43526     43529     43480     43479     43523     43524
     43480     43479     43523     43525     43480     43479     43523     43526
     43481     43479     43523     43524     43481     43479     43523     43525
     43481     43479     43523     43526     43482     43485     43488     43489
     43482     43485     43488     43490     43482     43485     43488     43491
     43483     43482     43485     43486     43483     43482     43485     43487
     43483     43482     43485     43488     43484     43482     43485     43486
     43484     43482     43485     43487     43484     43482     43485     43488
     43485     43488     43491     43492     43485     43488     43491     43493
     43485     43488     43491     43494     43486     43485     43488     43489
     43486     43485     43488     43490     43486     43485     43488     43491
     43487     43485     43488     43489     43487     43485     43488     43490
     43487     43485     43488     43491     43488     43491     43494     43495
     43488     43491     43494     43496     43488     43491     43494     43497
     43489     43488     43491     43492     43489     43488     43491     43493
     43489     43488     43491     43494     43490     43488     43491     43492
     43490     43488     43491     43493     43490     43488     43491     43494
     43491     43494     43497     43498     43491     43494     43497     43499
     43491     43494     43497     43500     43492     43491     43494     43495
     43492     43491     43494     43496     43492     43491     43494     43497
     43493     43491     43494     43495     43493     43491     43494     43496
     43493     43491     43494     43497     43494     43497     43500     43501
     43494     43497     43500     43502     43495     43494     43497     43498
     43495     43494     43497     43499     43495     43494     43497     43500
     43496     43494     43497     43498     43496     43494     43497     43499
     43496     43494     43497     43500     43497     43500     43502     43503
     43497     43500     43502     43504     43498     43497     43500     43501
     43498     43497     43500     43502     43499     43497     43500     43501
     43499     43497     43500     43502     43500     43502     43504     43505
     43500     43502     43504     43506     43500     43502     43504     43507
     43501     43500     43502     43503     43501     43500     43502     43504
     43502     43504     43507     43508     43502     43504     43507     43509
     43502     43504     43507     43510     43503     43502     43504     43505
     43503     43502     43504     43506     43503     43502     43504     43507
     43504     43507     43510     43511     43504     43507     43510     43512
     43504     43507     43510     43513     43505     43504     43507     43508
     43505     43504     43507     43509     43505     43504     43507     43510
     43506     43504     43507     43508     43506     43504     43507     43509
     43506     43504     43507     43510     43507     43510     43513     43514
     43507     43510     43513     43515     43507     43510     43513     43516
     43508     43507     43510     43511     43508     43507     43510     43512
     43508     43507     43510     43513     43509     43507     43510     43511
     43509     43507     43510     43512     43509     43507     43510     43513
     43510     43513     43516     43517     43510     43513     43516     43518
     43510     43513     43516     43519     43511     43510     43513     43514
     43511     43510     43513     43515     43511     43510     43513     43516
     43512     43510     43513     43514     43512     43510     43513     43515
     43512     43510     43513     43516     43513     43516     43519     43520
     43513     43516     43519     43521     43513     43516     43519     43522
     43514     43513     43516     43517     43514     43513     43516     43518
     43514     43513     43516     43519     43515     43513     43516     43517
     43515     43513     43516     43518     43515     43513     43516     43519
     43517     43516     43519     43520     43517     43516     43519     43521
     43517     43516     43519     43522     43518     43516     43519     43520
     43518     43516     43519     43521     43518     43516     43519     43522
     43523     43526     43529     43530     43523     43526     43529     43531
     43523     43526     43529     43532     43524     43523     43526     43527
     43524     43523     43526     43528     43524     43523     43526     43529
     43525     43523     43526     43527     43525     43523     43526     43528
     43525     43523     43526     43529     43526     43529     43532     43533
     43526     43529     43532     43534     43526     43529     43532     43535
     43527     43526     43529     43530     43527     43526     43529     43531
     43527     43526     43529     43532     43528     43526     43529     43530
     43528     43526     43529     43531     43528     43526     43529     43532
     43529     43532     43535     43536     43529     43532     43535     43537
     43529     43532     43535     43538     43530     43529     43532     43533
     43530     43529     43532     43534     43530     43529     43532     43535
     43531     43529     43532     43533     43531     43529     43532     43534
     43531     43529     43532     43535     43532     43535     43538     43539
     43532     43535     43538     43540     43532     43535     43538     43541
     43533     43532     43535     43536     43533     43532     43535     43537
     43533     43532     43535     43538     43534     43532     43535     43536
     43534     43532     43535     43537     43534     43532     43535     43538
     43535     43538     43541     43542     43535     43538     43541     43543
     43535     43538     43541     43544     43536     43535     43538     43539
     43536     43535     43538     43540     43536     43535     43538     43541
     43537     43535     43538     43539     43537     43535     43538     43540
     43537     43535     43538     43541     43538     43541     43544     43545
     43538     43541     43544     43546     43538     43541     43544     43547
     43539     43538     43541     43542     43539     43538     43541     43543
     43539     43538     43541     43544     43540     43538     43541     43542
     43540     43538     43541     43543     43540     43538     43541     43544
     43541     43544     43547     43548     43541     43544     43547     43549
     43541     43544     43547     43550     43542     43541     43544     43545
     43542     43541     43544     43546     43542     43541     43544     43547
     43543     43541     43544     43545     43543     43541     43544     43546
     43543     43541     43544     43547     43544     43547     43550     43551
     43544     43547     43550     43552     43544     43547     43550     43553
     43545     43544     43547     43548     43545     43544     43547     43549
     43545     43544     43547     43550     43546     43544     43547     43548
     43546     43544     43547     43549     43546     43544     43547     43550
     43547     43550     43553     43554     43547     43550     43553     43555
     43547     43550     43553     43556     43548     43547     43550     43551
     43548     43547     43550     43552     43548     43547     43550     43553
     43549     43547     43550     43551     43549     43547     43550     43552
     43549     43547     43550     43553     43550     43553     43556     43557
     43550     43553     43556     43558     43550     43553     43556     43559
     43551     43550     43553     43554     43551     43550     43553     43555
     43551     43550     43553     43556     43552     43550     43553     43554
     43552     43550     43553     43555     43552     43550     43553     43556
     43553     43556     43559     43560     43553     43556     43559     43561
     43553     43556     43559     43562     43554     43553     43556     43557
     43554     43553     43556     43558     43554     43553     43556     43559
     43555     43553     43556     43557     43555     43553     43556     43558
     43555     43553     43556     43559     43556     43559     43562     43563
     43556     43559     43562     43564     43556     43559     43562     43565
     43557     43556     43559     43560     43557     43556     43559     43561
     43557     43556     43559     43562     43558     43556     43559     43560
     43558     43556     43559     43561     43558     43556     43559     43562
     43560     43559     43562     43563     43560     43559     43562     43564
     43560     43559     43562     43565     43561     43559     43562     43563
     43561     43559     43562     43564     43561     43559     43562     43565
     43566     43571     43573     43574     43566     43571     43575     43576
     43566     43571     43575     43577     43566     43571     43575     43581
     43567     43566     43569     43570     43567     43566     43571     43572
     43567     43566     43571     43573     43567     43566     43571     43575
     43568     43566     43569     43570     43568     43566     43571     43572
     43568     43566     43571     43573     43568     43566     43571     43575
     43569     43566     43571     43572     43569     43566     43571     43573
     43569     43566     43571     43575     43570     43569     43566     43571
     43571     43575     43581     43578     43572     43571     43573     43574
     43572     43571     43575     43576     43572     43571     43575     43577
     43572     43571     43575     43581     43573     43571     43575     43576
     43573     43571     43575     43577     43573     43571     43575     43581
     43574     43573     43571     43575     43575     43581     43578     43579
     43575     43581     43578     43580     43575     43581     43578     43582
     43576     43575     43581     43578     43577     43575     43581     43578
     43578     43582     43583     43584     43578     43582     43583     43585
     43578     43582     43583     43586     43579     43578     43582     43583
     43580     43578     43582     43583     43581     43578     43582     43583
     43582     43583     43586     43587     43582     43583     43586     43588
     43582     43583     43586     43594     43583     43586     43588     43589
     43583     43586     43594     43595     43583     43586     43594     43596
     43583     43586     43594     43597     43584     43583     43586     43587
     43584     43583     43586     43588     43584     43583     43586     43594
     43585     43583     43586     43587     43585     43583     43586     43588
     43585     43583     43586     43594     43586     43588     43589     43590
     43586     43588     43589     43591     43586     43594     43597     43598
     43587     43586     43588     43589     43587     43586     43594     43595
     43587     43586     43594     43596     43587     43586     43594     43597
     43588     43586     43594     43595     43588     43586     43594     43596
     43588     43586     43594     43597     43588     43589     43591     43592
     43588     43589     43591     43593     43588     43589     43591     43603
     43589     43588     43586     43594     43589     43591     43603     43604
     43589     43591     43603     43605     43589     43591     43603     43606
     43590     43589     43591     43592     43590     43589     43591     43593
     43590     43589     43591     43603     43591     43603     43606     43607
     43591     43603     43606     43608     43591     43603     43606     43609
     43592     43591     43603     43604     43592     43591     43603     43605
     43592     43591     43603     43606     43593     43591     43603     43604
     43593     43591     43603     43605     43593     43591     43603     43606
     43594     43597     43598     43599     43594     43597     43598     43600
     43595     43594     43597     43598     43596     43594     43597     43598
     43597     43598     43600     43601     43597     43598     43600     43602
     43597     43598     43600     43650     43598     43600     43650     43651
     43598     43600     43650     43652     43598     43600     43650     43653
     43599     43598     43600     43601     43599     43598     43600     43602
     43599     43598     43600     43650     43600     43650     43653     43654
     43600     43650     43653     43655     43600     43650     43653     43656
     43601     43600     43650     43651     43601     43600     43650     43652
     43601     43600     43650     43653     43602     43600     43650     43651
     43602     43600     43650     43652     43602     43600     43650     43653
     43603     43606     43609     43610     43603     43606     43609     43611
     43603     43606     43609     43612     43604     43603     43606     43607
     43604     43603     43606     43608     43604     43603     43606     43609
     43605     43603     43606     43607     43605     43603     43606     43608
     43605     43603     43606     43609     43606     43609     43612     43613
     43606     43609     43612     43614     43606     43609     43612     43615
     43607     43606     43609     43610     43607     43606     43609     43611
     43607     43606     43609     43612     43608     43606     43609     43610
     43608     43606     43609     43611     43608     43606     43609     43612
     43609     43612     43615     43616     43609     43612     43615     43617
     43609     43612     43615     43618     43610     43609     43612     43613
     43610     43609     43612     43614     43610     43609     43612     43615
     43611     43609     43612     43613     43611     43609     43612     43614
     43611     43609     43612     43615     43612     43615     43618     43619
     43612     43615     43618     43620     43612     43615     43618     43621
     43613     43612     43615     43616     43613     43612     43615     43617
     43613     43612     43615     43618     43614     43612     43615     43616
     43614     43612     43615     43617     43614     43612     43615     43618
     43615     43618     43621     43622     43615     43618     43621     43623
     43615     43618     43621     43624     43616     43615     43618     43619
     43616     43615     43618     43620     43616     43615     43618     43621
     43617     43615     43618     43619     43617     43615     43618     43620
     43617     43615     43618     43621     43618     43621     43624     43625
     43618     43621     43624     43626     43618     43621     43624     43627
     43619     43618     43621     43622     43619     43618     43621     43623
     43619     43618     43621     43624     43620     43618     43621     43622
     43620     43618     43621     43623     43620     43618     43621     43624
     43621     43624     43627     43628     43621     43624     43627     43629
     43622     43621     43624     43625     43622     43621     43624     43626
     43622     43621     43624     43627     43623     43621     43624     43625
     43623     43621     43624     43626     43623     43621     43624     43627
     43624     43627     43629     43630     43624     43627     43629     43631
     43625     43624     43627     43628     43625     43624     43627     43629
     43626     43624     43627     43628     43626     43624     43627     43629
     43627     43629     43631     43632     43627     43629     43631     43633
     43627     43629     43631     43634     43628     43627     43629     43630
     43628     43627     43629     43631     43629     43631     43634     43635
     43629     43631     43634     43636     43629     43631     43634     43637
     43630     43629     43631     43632     43630     43629     43631     43633
     43630     43629     43631     43634     43631     43634     43637     43638
     43631     43634     43637     43639     43631     43634     43637     43640
     43632     43631     43634     43635     43632     43631     43634     43636
     43632     43631     43634     43637     43633     43631     43634     43635
     43633     43631     43634     43636     43633     43631     43634     43637
     43634     43637     43640     43641     43634     43637     43640     43642
     43634     43637     43640     43643     43635     43634     43637     43638
     43635     43634     43637     43639     43635     43634     43637     43640
     43636     43634     43637     43638     43636     43634     43637     43639
     43636     43634     43637     43640     43637     43640     43643     43644
     43637     43640     43643     43645     43637     43640     43643     43646
     43638     43637     43640     43641     43638     43637     43640     43642
     43638     43637     43640     43643     43639     43637     43640     43641
     43639     43637     43640     43642     43639     43637     43640     43643
     43640     43643     43646     43647     43640     43643     43646     43648
     43640     43643     43646     43649     43641     43640     43643     43644
     43641     43640     43643     43645     43641     43640     43643     43646
     43642     43640     43643     43644     43642     43640     43643     43645
     43642     43640     43643     43646     43644     43643     43646     43647
     43644     43643     43646     43648     43644     43643     43646     43649
     43645     43643     43646     43647     43645     43643     43646     43648
     43645     43643     43646     43649     43650     43653     43656     43657
     43650     43653     43656     43658     43650     43653     43656     43659
     43651     43650     43653     43654     43651     43650     43653     43655
     43651     43650     43653     43656     43652     43650     43653     43654
     43652     43650     43653     43655     43652     43650     43653     43656
     43653     43656     43659     43660     43653     43656     43659     43661
     43653     43656     43659     43662     43654     43653     43656     43657
     43654     43653     43656     43658     43654     43653     43656     43659
     43655     43653     43656     43657     43655     43653     43656     43658
     43655     43653     43656     43659     43656     43659     43662     43663
     43656     43659     43662     43664     43656     43659     43662     43665
     43657     43656     43659     43660     43657     43656     43659     43661
     43657     43656     43659     43662     43658     43656     43659     43660
     43658     43656     43659     43661     43658     43656     43659     43662
     43659     43662     43665     43666     43659     43662     43665     43667
     43659     43662     43665     43668     43660     43659     43662     43663
     43660     43659     43662     43664     43660     43659     43662     43665
     43661     43659     43662     43663     43661     43659     43662     43664
     43661     43659     43662     43665     43662     43665     43668     43669
     43662     43665     43668     43670     43662     43665     43668     43671
     43663     43662     43665     43666     43663     43662     43665     43667
     43663     43662     43665     43668     43664     43662     43665     43666
     43664     43662     43665     43667     43664     43662     43665     43668
     43665     43668     43671     43672     43665     43668     43671     43673
     43665     43668     43671     43674     43666     43665     43668     43669
     43666     43665     43668     43670     43666     43665     43668     43671
     43667     43665     43668     43669     43667     43665     43668     43670
     43667     43665     43668     43671     43668     43671     43674     43675
     43668     43671     43674     43676     43668     43671     43674     43677
     43669     43668     43671     43672     43669     43668     43671     43673
     43669     43668     43671     43674     43670     43668     43671     43672
     43670     43668     43671     43673     43670     43668     43671     43674
     43671     43674     43677     43678     43671     43674     43677     43679
     43671     43674     43677     43680     43672     43671     43674     43675
     43672     43671     43674     43676     43672     43671     43674     43677
     43673     43671     43674     43675     43673     43671     43674     43676
     43673     43671     43674     43677     43674     43677     43680     43681
     43674     43677     43680     43682     43674     43677     43680     43683
     43675     43674     43677     43678     43675     43674     43677     43679
     43675     43674     43677     43680     43676     43674     43677     43678
     43676     43674     43677     43679     43676     43674     43677     43680
     43677     43680     43683     43684     43677     43680     43683     43685
     43677     43680     43683     43686     43678     43677     43680     43681
     43678     43677     43680     43682     43678     43677     43680     43683
     43679     43677     43680     43681     43679     43677     43680     43682
     43679     43677     43680     43683     43680     43683     43686     43687
     43680     43683     43686     43688     43680     43683     43686     43689
     43681     43680     43683     43684     43681     43680     43683     43685
     43681     43680     43683     43686     43682     43680     43683     43684
     43682     43680     43683     43685     43682     43680     43683     43686
     43683     43686     43689     43690     43683     43686     43689     43691
     43683     43686     43689     43692     43684     43683     43686     43687
     43684     43683     43686     43688     43684     43683     43686     43689
     43685     43683     43686     43687     43685     43683     43686     43688
     43685     43683     43686     43689     43687     43686     43689     43690
     43687     43686     43689     43691     43687     43686     43689     43692
     43688     43686     43689     43690     43688     43686     43689     43691
     43688     43686     43689     43692     43693     43697     43700     43701
     43693     43697     43700     43702     43693     43697     43700     43707
     43694     43693     43697     43698     43694     43693     43697     43699
     43694     43693     43697     43700     43695     43693     43697     43698
     43695     43693     43697     43699     43695     43693     43697     43700
     43696     43693     43697     43698     43696     43693     43697     43699
     43696     43693     43697     43700     43697     43700     43707     43703
     43698     43697     43700     43701     43698     43697     43700     43702
     43698     43697     43700     43707     43699     43697     43700     43701
     43699     43697     43700     43702     43699     43697     43700     43707
     43700     43707     43703     43704     43700     43707     43703     43705
     43700     43707     43703     43706     43701     43700     43707     43703
     43702     43700     43707     43703     43703     43706     43708     43709
     43703     43706     43708     43710     43703     43706     43708     43711
     43704     43703     43706     43708     43705     43703     43706     43708
     43706     43708     43711     43712     43706     43708     43711     43713
     43706     43708     43711     43719     43707     43703     43706     43708
     43708     43711     43713     43714     43708     43711     43719     43720
     43708     43711     43719     43721     43708     43711     43719     43722
     43709     43708     43711     43712     43709     43708     43711     43713
     43709     43708     43711     43719     43710     43708     43711     43712
     43710     43708     43711     43713     43710     43708     43711     43719
     43711     43713     43714     43715     43711     43713     43714     43716
     43711     43719     43722     43723     43712     43711     43713     43714
     43712     43711     43719     43720     43712     43711     43719     43721
     43712     43711     43719     43722     43713     43711     43719     43720
     43713     43711     43719     43721     43713     43711     43719     43722
     43713     43714     43716     43717     43713     43714     43716     43718
     43713     43714     43716     43728     43714     43713     43711     43719
     43714     43716     43728     43729     43714     43716     43728     43730
     43714     43716     43728     43731     43715     43714     43716     43717
     43715     43714     43716     43718     43715     43714     43716     43728
     43716     43728     43731     43732     43716     43728     43731     43733
     43716     43728     43731     43734     43717     43716     43728     43729
     43717     43716     43728     43730     43717     43716     43728     43731
     43718     43716     43728     43729     43718     43716     43728     43730
     43718     43716     43728     43731     43719     43722     43723     43724
     43719     43722     43723     43725     43720     43719     43722     43723
     43721     43719     43722     43723     43722     43723     43725     43726
     43722     43723     43725     43727     43722     43723     43725     43769
     43723     43725     43769     43770     43723     43725     43769     43771
     43723     43725     43769     43772     43724     43723     43725     43726
     43724     43723     43725     43727     43724     43723     43725     43769
     43725     43769     43772     43773     43725     43769     43772     43774
     43725     43769     43772     43775     43726     43725     43769     43770
     43726     43725     43769     43771     43726     43725     43769     43772
     43727     43725     43769     43770     43727     43725     43769     43771
     43727     43725     43769     43772     43728     43731     43734     43735
     43728     43731     43734     43736     43728     43731     43734     43737
     43729     43728     43731     43732     43729     43728     43731     43733
     43729     43728     43731     43734     43730     43728     43731     43732
     43730     43728     43731     43733     43730     43728     43731     43734
     43731     43734     43737     43738     43731     43734     43737     43739
     43731     43734     43737     43740     43732     43731     43734     43735
     43732     43731     43734     43736     43732     43731     43734     43737
     43733     43731     43734     43735     43733     43731     43734     43736
     43733     43731     43734     43737     43734     43737     43740     43741
     43734     43737     43740     43742     43734     43737     43740     43743
     43735     43734     43737     43738     43735     43734     43737     43739
     43735     43734     43737     43740     43736     43734     43737     43738
     43736     43734     43737     43739     43736     43734     43737     43740
     43737     43740     43743     43744     43737     43740     43743     43745
     43737     43740     43743     43746     43738     43737     43740     43741
     43738     43737     43740     43742     43738     43737     43740     43743
     43739     43737     43740     43741     43739     43737     43740     43742
     43739     43737     43740     43743     43740     43743     43746     43747
     43740     43743     43746     43748     43741     43740     43743     43744
     43741     43740     43743     43745     43741     43740     43743     43746
     43742     43740     43743     43744     43742     43740     43743     43745
     43742     43740     43743     43746     43743     43746     43748     43749
     43743     43746     43748     43750     43744     43743     43746     43747
     43744     43743     43746     43748     43745     43743     43746     43747
     43745     43743     43746     43748     43746     43748     43750     43751
     43746     43748     43750     43752     43746     43748     43750     43753
     43747     43746     43748     43749     43747     43746     43748     43750
     43748     43750     43753     43754     43748     43750     43753     43755
     43748     43750     43753     43756     43749     43748     43750     43751
     43749     43748     43750     43752     43749     43748     43750     43753
     43750     43753     43756     43757     43750     43753     43756     43758
     43750     43753     43756     43759     43751     43750     43753     43754
     43751     43750     43753     43755     43751     43750     43753     43756
     43752     43750     43753     43754     43752     43750     43753     43755
     43752     43750     43753     43756     43753     43756     43759     43760
     43753     43756     43759     43761     43753     43756     43759     43762
     43754     43753     43756     43757     43754     43753     43756     43758
     43754     43753     43756     43759     43755     43753     43756     43757
     43755     43753     43756     43758     43755     43753     43756     43759
     43756     43759     43762     43763     43756     43759     43762     43764
     43756     43759     43762     43765     43757     43756     43759     43760
     43757     43756     43759     43761     43757     43756     43759     43762
     43758     43756     43759     43760     43758     43756     43759     43761
     43758     43756     43759     43762     43759     43762     43765     43766
     43759     43762     43765     43767     43759     43762     43765     43768
     43760     43759     43762     43763     43760     43759     43762     43764
     43760     43759     43762     43765     43761     43759     43762     43763
     43761     43759     43762     43764     43761     43759     43762     43765
     43763     43762     43765     43766     43763     43762     43765     43767
     43763     43762     43765     43768     43764     43762     43765     43766
     43764     43762     43765     43767     43764     43762     43765     43768
     43769     43772     43775     43776     43769     43772     43775     43777
     43769     43772     43775     43778     43770     43769     43772     43773
     43770     43769     43772     43774     43770     43769     43772     43775
     43771     43769     43772     43773     43771     43769     43772     43774
     43771     43769     43772     43775     43772     43775     43778     43779
     43772     43775     43778     43780     43772     43775     43778     43781
     43773     43772     43775     43776     43773     43772     43775     43777
     43773     43772     43775     43778     43774     43772     43775     43776
     43774     43772     43775     43777     43774     43772     43775     43778
     43775     43778     43781     43782     43775     43778     43781     43783
     43775     43778     43781     43784     43776     43775     43778     43779
     43776     43775     43778     43780     43776     43775     43778     43781
     43777     43775     43778     43779     43777     43775     43778     43780
     43777     43775     43778     43781     43778     43781     43784     43785
     43778     43781     43784     43786     43778     43781     43784     43787
     43779     43778     43781     43782     43779     43778     43781     43783
     43779     43778     43781     43784     43780     43778     43781     43782
     43780     43778     43781     43783     43780     43778     43781     43784
     43781     43784     43787     43788     43781     43784     43787     43789
     43781     43784     43787     43790     43782     43781     43784     43785
     43782     43781     43784     43786     43782     43781     43784     43787
     43783     43781     43784     43785     43783     43781     43784     43786
     43783     43781     43784     43787     43784     43787     43790     43791
     43784     43787     43790     43792     43784     43787     43790     43793
     43785     43784     43787     43788     43785     43784     43787     43789
     43785     43784     43787     43790     43786     43784     43787     43788
     43786     43784     43787     43789     43786     43784     43787     43790
     43787     43790     43793     43794     43787     43790     43793     43795
     43787     43790     43793     43796     43788     43787     43790     43791
     43788     43787     43790     43792     43788     43787     43790     43793
     43789     43787     43790     43791     43789     43787     43790     43792
     43789     43787     43790     43793     43790     43793     43796     43797
     43790     43793     43796     43798     43790     43793     43796     43799
     43791     43790     43793     43794     43791     43790     43793     43795
     43791     43790     43793     43796     43792     43790     43793     43794
     43792     43790     43793     43795     43792     43790     43793     43796
     43793     43796     43799     43800     43793     43796     43799     43801
     43793     43796     43799     43802     43794     43793     43796     43797
     43794     43793     43796     43798     43794     43793     43796     43799
     43795     43793     43796     43797     43795     43793     43796     43798
     43795     43793     43796     43799     43796     43799     43802     43803
     43796     43799     43802     43804     43796     43799     43802     43805
     43797     43796     43799     43800     43797     43796     43799     43801
     43797     43796     43799     43802     43798     43796     43799     43800
     43798     43796     43799     43801     43798     43796     43799     43802
     43799     43802     43805     43806     43799     43802     43805     43807
     43799     43802     43805     43808     43800     43799     43802     43803
     43800     43799     43802     43804     43800     43799     43802     43805
     43801     43799     43802     43803     43801     43799     43802     43804
     43801     43799     43802     43805     43802     43805     43808     43809
     43802     43805     43808     43810     43802     43805     43808     43811
     43803     43802     43805     43806     43803     43802     43805     43807
     43803     43802     43805     43808     43804     43802     43805     43806
     43804     43802     43805     43807     43804     43802     43805     43808
     43806     43805     43808     43809     43806     43805     43808     43810
     43806     43805     43808     43811     43807     43805     43808     43809
     43807     43805     43808     43810     43807     43805     43808     43811
     43812     43816     43819     43820     43812     43816     43819     43821
     43812     43816     43819     43826     43813     43812     43816     43817
     43813     43812     43816     43818     43813     43812     43816     43819
     43814     43812     43816     43817     43814     43812     43816     43818
     43814     43812     43816     43819     43815     43812     43816     43817
     43815     43812     43816     43818     43815     43812     43816     43819
     43816     43819     43826     43822     43817     43816     43819     43820
     43817     43816     43819     43821     43817     43816     43819     43826
     43818     43816     43819     43820     43818     43816     43819     43821
     43818     43816     43819     43826     43819     43826     43822     43823
     43819     43826     43822     43824     43819     43826     43822     43825
     43820     43819     43826     43822     43821     43819     43826     43822
     43822     43825     43827     43828     43822     43825     43827     43829
     43822     43825     43827     43830     43823     43822     43825     43827
     43824     43822     43825     43827     43825     43827     43830     43831
     43825     43827     43830     43832     43825     43827     43830     43838
     43826     43822     43825     43827     43827     43830     43832     43833
     43827     43830     43838     43839     43827     43830     43838     43840
     43827     43830     43838     43841     43828     43827     43830     43831
     43828     43827     43830     43832     43828     43827     43830     43838
     43829     43827     43830     43831     43829     43827     43830     43832
     43829     43827     43830     43838     43830     43832     43833     43834
     43830     43832     43833     43835     43830     43838     43841     43842
     43831     43830     43832     43833     43831     43830     43838     43839
     43831     43830     43838     43840     43831     43830     43838     43841
     43832     43830     43838     43839     43832     43830     43838     43840
     43832     43830     43838     43841     43832     43833     43835     43836
     43832     43833     43835     43837     43832     43833     43835     43847
     43833     43832     43830     43838     43833     43835     43847     43848
     43833     43835     43847     43849     43833     43835     43847     43850
     43834     43833     43835     43836     43834     43833     43835     43837
     43834     43833     43835     43847     43835     43847     43850     43851
     43835     43847     43850     43852     43835     43847     43850     43853
     43836     43835     43847     43848     43836     43835     43847     43849
     43836     43835     43847     43850     43837     43835     43847     43848
     43837     43835     43847     43849     43837     43835     43847     43850
     43838     43841     43842     43843     43838     43841     43842     43844
     43839     43838     43841     43842     43840     43838     43841     43842
     43841     43842     43844     43845     43841     43842     43844     43846
     43841     43842     43844     43888     43842     43844     43888     43889
     43842     43844     43888     43890     43842     43844     43888     43891
     43843     43842     43844     43845     43843     43842     43844     43846
     43843     43842     43844     43888     43844     43888     43891     43892
     43844     43888     43891     43893     43844     43888     43891     43894
     43845     43844     43888     43889     43845     43844     43888     43890
     43845     43844     43888     43891     43846     43844     43888     43889
     43846     43844     43888     43890     43846     43844     43888     43891
     43847     43850     43853     43854     43847     43850     43853     43855
     43847     43850     43853     43856     43848     43847     43850     43851
     43848     43847     43850     43852     43848     43847     43850     43853
     43849     43847     43850     43851     43849     43847     43850     43852
     43849     43847     43850     43853     43850     43853     43856     43857
     43850     43853     43856     43858     43850     43853     43856     43859
     43851     43850     43853     43854     43851     43850     43853     43855
     43851     43850     43853     43856     43852     43850     43853     43854
     43852     43850     43853     43855     43852     43850     43853     43856
     43853     43856     43859     43860     43853     43856     43859     43861
     43853     43856     43859     43862     43854     43853     43856     43857
     43854     43853     43856     43858     43854     43853     43856     43859
     43855     43853     43856     43857     43855     43853     43856     43858
     43855     43853     43856     43859     43856     43859     43862     43863
     43856     43859     43862     43864     43856     43859     43862     43865
     43857     43856     43859     43860     43857     43856     43859     43861
     43857     43856     43859     43862     43858     43856     43859     43860
     43858     43856     43859     43861     43858     43856     43859     43862
     43859     43862     43865     43866     43859     43862     43865     43867
     43860     43859     43862     43863     43860     43859     43862     43864
     43860     43859     43862     43865     43861     43859     43862     43863
     43861     43859     43862     43864     43861     43859     43862     43865
     43862     43865     43867     43868     43862     43865     43867     43869
     43863     43862     43865     43866     43863     43862     43865     43867
     43864     43862     43865     43866     43864     43862     43865     43867
     43865     43867     43869     43870     43865     43867     43869     43871
     43865     43867     43869     43872     43866     43865     43867     43868
     43866     43865     43867     43869     43867     43869     43872     43873
     43867     43869     43872     43874     43867     43869     43872     43875
     43868     43867     43869     43870     43868     43867     43869     43871
     43868     43867     43869     43872     43869     43872     43875     43876
     43869     43872     43875     43877     43869     43872     43875     43878
     43870     43869     43872     43873     43870     43869     43872     43874
     43870     43869     43872     43875     43871     43869     43872     43873
     43871     43869     43872     43874     43871     43869     43872     43875
     43872     43875     43878     43879     43872     43875     43878     43880
     43872     43875     43878     43881     43873     43872     43875     43876
     43873     43872     43875     43877     43873     43872     43875     43878
     43874     43872     43875     43876     43874     43872     43875     43877
     43874     43872     43875     43878     43875     43878     43881     43882
     43875     43878     43881     43883     43875     43878     43881     43884
     43876     43875     43878     43879     43876     43875     43878     43880
     43876     43875     43878     43881     43877     43875     43878     43879
     43877     43875     43878     43880     43877     43875     43878     43881
     43878     43881     43884     43885     43878     43881     43884     43886
     43878     43881     43884     43887     43879     43878     43881     43882
     43879     43878     43881     43883     43879     43878     43881     43884
     43880     43878     43881     43882     43880     43878     43881     43883
     43880     43878     43881     43884     43882     43881     43884     43885
     43882     43881     43884     43886     43882     43881     43884     43887
     43883     43881     43884     43885     43883     43881     43884     43886
     43883     43881     43884     43887     43888     43891     43894     43895
     43888     43891     43894     43896     43888     43891     43894     43897
     43889     43888     43891     43892     43889     43888     43891     43893
     43889     43888     43891     43894     43890     43888     43891     43892
     43890     43888     43891     43893     43890     43888     43891     43894
     43891     43894     43897     43898     43891     43894     43897     43899
     43891     43894     43897     43900     43892     43891     43894     43895
     43892     43891     43894     43896     43892     43891     43894     43897
     43893     43891     43894     43895     43893     43891     43894     43896
     43893     43891     43894     43897     43894     43897     43900     43901
     43894     43897     43900     43902     43894     43897     43900     43903
     43895     43894     43897     43898     43895     43894     43897     43899
     43895     43894     43897     43900     43896     43894     43897     43898
     43896     43894     43897     43899     43896     43894     43897     43900
     43897     43900     43903     43904     43897     43900     43903     43905
     43897     43900     43903     43906     43898     43897     43900     43901
     43898     43897     43900     43902     43898     43897     43900     43903
     43899     43897     43900     43901     43899     43897     43900     43902
     43899     43897     43900     43903     43900     43903     43906     43907
     43900     43903     43906     43908     43900     43903     43906     43909
     43901     43900     43903     43904     43901     43900     43903     43905
     43901     43900     43903     43906     43902     43900     43903     43904
     43902     43900     43903     43905     43902     43900     43903     43906
     43903     43906     43909     43910     43903     43906     43909     43911
     43903     43906     43909     43912     43904     43903     43906     43907
     43904     43903     43906     43908     43904     43903     43906     43909
     43905     43903     43906     43907     43905     43903     43906     43908
     43905     43903     43906     43909     43906     43909     43912     43913
     43906     43909     43912     43914     43906     43909     43912     43915
     43907     43906     43909     43910     43907     43906     43909     43911
     43907     43906     43909     43912     43908     43906     43909     43910
     43908     43906     43909     43911     43908     43906     43909     43912
     43909     43912     43915     43916     43909     43912     43915     43917
     43909     43912     43915     43918     43910     43909     43912     43913
     43910     43909     43912     43914     43910     43909     43912     43915
     43911     43909     43912     43913     43911     43909     43912     43914
     43911     43909     43912     43915     43912     43915     43918     43919
     43912     43915     43918     43920     43912     43915     43918     43921
     43913     43912     43915     43916     43913     43912     43915     43917
     43913     43912     43915     43918     43914     43912     43915     43916
     43914     43912     43915     43917     43914     43912     43915     43918
     43915     43918     43921     43922     43915     43918     43921     43923
     43915     43918     43921     43924     43916     43915     43918     43919
     43916     43915     43918     43920     43916     43915     43918     43921
     43917     43915     43918     43919     43917     43915     43918     43920
     43917     43915     43918     43921     43918     43921     43924     43925
     43918     43921     43924     43926     43918     43921     43924     43927
     43919     43918     43921     43922     43919     43918     43921     43923
     43919     43918     43921     43924     43920     43918     43921     43922
     43920     43918     43921     43923     43920     43918     43921     43924
     43921     43924     43927     43928     43921     43924     43927     43929
     43921     43924     43927     43930     43922     43921     43924     43925
     43922     43921     43924     43926     43922     43921     43924     43927
     43923     43921     43924     43925     43923     43921     43924     43926
     43923     43921     43924     43927     43925     43924     43927     43928
     43925     43924     43927     43929     43925     43924     43927     43930
     43926     43924     43927     43928     43926     43924     43927     43929
     43926     43924     43927     43930     43931     43937     43934     43935
     43931     43937     43934     43936     43931     43937     43934     43938
     43931     43942     43944     43945     43931     43942     43946     43947
     43931     43942     43946     43948     43931     43942     43946     43952
     43932     43931     43937     43934     43932     43931     43942     43943
     43932     43931     43942     43944     43932     43931     43942     43946
     43933     43931     43937     43934     43933     43931     43942     43943
     43933     43931     43942     43944     43933     43931     43942     43946
     43934     43937     43931     43942     43934     43938     43939     43940
     43934     43938     43939     43941     43934     43938     43939     43974
     43935     43934     43938     43939     43936     43934     43938     43939
     43937     43931     43942     43943     43937     43931     43942     43944
     43937     43931     43942     43946     43937     43934     43938     43939
     43938     43939     43974     43975     43938     43939     43974     43976
     43938     43939     43974     43982     43939     43974     43976     43977
     43939     43974     43982     43983     43939     43974     43982     43984
     43939     43974     43982     43985     43940     43939     43974     43975
     43940     43939     43974     43976     43940     43939     43974     43982
     43941     43939     43974     43975     43941     43939     43974     43976
     43941     43939     43974     43982     43942     43946     43952     43949
     43943     43942     43944     43945     43943     43942     43946     43947
     43943     43942     43946     43948     43943     43942     43946     43952
     43944     43942     43946     43947     43944     43942     43946     43948
     43944     43942     43946     43952     43945     43944     43942     43946
     43946     43952     43949     43950     43946     43952     43949     43951
     43946     43952     43949     43953     43947     43946     43952     43949
     43948     43946     43952     43949     43949     43953     43954     43955
     43949     43953     43954     43956     43949     43953     43954     43957
     43950     43949     43953     43954     43951     43949     43953     43954
     43952     43949     43953     43954     43953     43954     43957     43958
     43953     43954     43957     43959     43953     43954     43957     43965
     43954     43957     43959     43960     43954     43957     43965     43966
     43954     43957     43965     43967     43954     43957     43965     43968
     43955     43954     43957     43958     43955     43954     43957     43959
     43955     43954     43957     43965     43956     43954     43957     43958
     43956     43954     43957     43959     43956     43954     43957     43965
     43957     43959     43960     43961     43957     43959     43960     43962
     43957     43965     43968     43969     43958     43957     43959     43960
     43958     43957     43965     43966     43958     43957     43965     43967
     43958     43957     43965     43968     43959     43957     43965     43966
     43959     43957     43965     43967     43959     43957     43965     43968
     43959     43960     43962     43963     43959     43960     43962     43964
     43959     43960     43962     43991     43960     43959     43957     43965
     43960     43962     43991     43992     43960     43962     43991     43993
     43960     43962     43991     43994     43961     43960     43962     43963
     43961     43960     43962     43964     43961     43960     43962     43991
     43962     43991     43994     43995     43962     43991     43994     43996
     43962     43991     43994     43997     43963     43962     43991     43992
     43963     43962     43991     43993     43963     43962     43991     43994
     43964     43962     43991     43992     43964     43962     43991     43993
     43964     43962     43991     43994     43965     43968     43969     43970
     43965     43968     43969     43971     43966     43965     43968     43969
     43967     43965     43968     43969     43968     43969     43971     43972
     43968     43969     43971     43973     43968     43969     43971     44038
     43969     43971     44038     44039     43969     43971     44038     44040
     43969     43971     44038     44041     43970     43969     43971     43972
     43970     43969     43971     43973     43970     43969     43971     44038
     43971     44038     44041     44042     43971     44038     44041     44043
     43971     44038     44041     44044     43972     43971     44038     44039
     43972     43971     44038     44040     43972     43971     44038     44041
     43973     43971     44038     44039     43973     43971     44038     44040
     43973     43971     44038     44041     43974     43976     43977     43978
     43974     43976     43977     43979     43974     43982     43985     43986
     43975     43974     43976     43977     43975     43974     43982     43983
     43975     43974     43982     43984     43975     43974     43982     43985
     43976     43974     43982     43983     43976     43974     43982     43984
     43976     43974     43982     43985     43976     43977     43979     43980
     43976     43977     43979     43981     43976     43977     43979     44081
     43977     43976     43974     43982     43977     43979     44081     44082
     43977     43979     44081     44083     43977     43979     44081     44084
     43978     43977     43979     43980     43978     43977     43979     43981
     43978     43977     43979     44081     43979     44081     44084     44085
     43979     44081     44084     44086     43979     44081     44084     44087
     43980     43979     44081     44082     43980     43979     44081     44083
     43980     43979     44081     44084     43981     43979     44081     44082
     43981     43979     44081     44083     43981     43979     44081     44084
     43982     43985     43986     43987     43982     43985     43986     43988
     43983     43982     43985     43986     43984     43982     43985     43986
     43985     43986     43988     43989     43985     43986     43988     43990
     43985     43986     43988     44128     43986     43988     44128     44129
     43986     43988     44128     44130     43986     43988     44128     44131
     43987     43986     43988     43989     43987     43986     43988     43990
     43987     43986     43988     44128     43988     44128     44131     44132
     43988     44128     44131     44133     43988     44128     44131     44134
     43989     43988     44128     44129     43989     43988     44128     44130
     43989     43988     44128     44131     43990     43988     44128     44129
     43990     43988     44128     44130     43990     43988     44128     44131
     43991     43994     43997     43998     43991     43994     43997     43999
     43991     43994     43997     44000     43992     43991     43994     43995
     43992     43991     43994     43996     43992     43991     43994     43997
     43993     43991     43994     43995     43993     43991     43994     43996
     43993     43991     43994     43997     43994     43997     44000     44001
     43994     43997     44000     44002     43994     43997     44000     44003
     43995     43994     43997     43998     43995     43994     43997     43999
     43995     43994     43997     44000     43996     43994     43997     43998
     43996     43994     43997     43999     43996     43994     43997     44000
     43997     44000     44003     44004     43997     44000     44003     44005
     43997     44000     44003     44006     43998     43997     44000     44001
     43998     43997     44000     44002     43998     43997     44000     44003
     43999     43997     44000     44001     43999     43997     44000     44002
     43999     43997     44000     44003     44000     44003     44006     44007
     44000     44003     44006     44008     44000     44003     44006     44009
     44001     44000     44003     44004     44001     44000     44003     44005
     44001     44000     44003     44006     44002     44000     44003     44004
     44002     44000     44003     44005     44002     44000     44003     44006
     44003     44006     44009     44010     44003     44006     44009     44011
     44003     44006     44009     44012     44004     44003     44006     44007
     44004     44003     44006     44008     44004     44003     44006     44009
     44005     44003     44006     44007     44005     44003     44006     44008
     44005     44003     44006     44009     44006     44009     44012     44013
     44006     44009     44012     44014     44006     44009     44012     44015
     44007     44006     44009     44010     44007     44006     44009     44011
     44007     44006     44009     44012     44008     44006     44009     44010
     44008     44006     44009     44011     44008     44006     44009     44012
     44009     44012     44015     44016     44009     44012     44015     44017
     44010     44009     44012     44013     44010     44009     44012     44014
     44010     44009     44012     44015     44011     44009     44012     44013
     44011     44009     44012     44014     44011     44009     44012     44015
     44012     44015     44017     44018     44012     44015     44017     44019
     44013     44012     44015     44016     44013     44012     44015     44017
     44014     44012     44015     44016     44014     44012     44015     44017
     44015     44017     44019     44020     44015     44017     44019     44021
     44015     44017     44019     44022     44016     44015     44017     44018
     44016     44015     44017     44019     44017     44019     44022     44023
     44017     44019     44022     44024     44017     44019     44022     44025
     44018     44017     44019     44020     44018     44017     44019     44021
     44018     44017     44019     44022     44019     44022     44025     44026
     44019     44022     44025     44027     44019     44022     44025     44028
     44020     44019     44022     44023     44020     44019     44022     44024
     44020     44019     44022     44025     44021     44019     44022     44023
     44021     44019     44022     44024     44021     44019     44022     44025
     44022     44025     44028     44029     44022     44025     44028     44030
     44022     44025     44028     44031     44023     44022     44025     44026
     44023     44022     44025     44027     44023     44022     44025     44028
     44024     44022     44025     44026     44024     44022     44025     44027
     44024     44022     44025     44028     44025     44028     44031     44032
     44025     44028     44031     44033     44025     44028     44031     44034
     44026     44025     44028     44029     44026     44025     44028     44030
     44026     44025     44028     44031     44027     44025     44028     44029
     44027     44025     44028     44030     44027     44025     44028     44031
     44028     44031     44034     44035     44028     44031     44034     44036
     44028     44031     44034     44037     44029     44028     44031     44032
     44029     44028     44031     44033     44029     44028     44031     44034
     44030     44028     44031     44032     44030     44028     44031     44033
     44030     44028     44031     44034     44032     44031     44034     44035
     44032     44031     44034     44036     44032     44031     44034     44037
     44033     44031     44034     44035     44033     44031     44034     44036
     44033     44031     44034     44037     44038     44041     44044     44045
     44038     44041     44044     44046     44038     44041     44044     44047
     44039     44038     44041     44042     44039     44038     44041     44043
     44039     44038     44041     44044     44040     44038     44041     44042
     44040     44038     44041     44043     44040     44038     44041     44044
     44041     44044     44047     44048     44041     44044     44047     44049
     44041     44044     44047     44050     44042     44041     44044     44045
     44042     44041     44044     44046     44042     44041     44044     44047
     44043     44041     44044     44045     44043     44041     44044     44046
     44043     44041     44044     44047     44044     44047     44050     44051
     44044     44047     44050     44052     44044     44047     44050     44053
     44045     44044     44047     44048     44045     44044     44047     44049
     44045     44044     44047     44050     44046     44044     44047     44048
     44046     44044     44047     44049     44046     44044     44047     44050
     44047     44050     44053     44054     44047     44050     44053     44055
     44047     44050     44053     44056     44048     44047     44050     44051
     44048     44047     44050     44052     44048     44047     44050     44053
     44049     44047     44050     44051     44049     44047     44050     44052
     44049     44047     44050     44053     44050     44053     44056     44057
     44050     44053     44056     44058     44050     44053     44056     44059
     44051     44050     44053     44054     44051     44050     44053     44055
     44051     44050     44053     44056     44052     44050     44053     44054
     44052     44050     44053     44055     44052     44050     44053     44056
     44053     44056     44059     44060     44053     44056     44059     44061
     44053     44056     44059     44062     44054     44053     44056     44057
     44054     44053     44056     44058     44054     44053     44056     44059
     44055     44053     44056     44057     44055     44053     44056     44058
     44055     44053     44056     44059     44056     44059     44062     44063
     44056     44059     44062     44064     44056     44059     44062     44065
     44057     44056     44059     44060     44057     44056     44059     44061
     44057     44056     44059     44062     44058     44056     44059     44060
     44058     44056     44059     44061     44058     44056     44059     44062
     44059     44062     44065     44066     44059     44062     44065     44067
     44059     44062     44065     44068     44060     44059     44062     44063
     44060     44059     44062     44064     44060     44059     44062     44065
     44061     44059     44062     44063     44061     44059     44062     44064
     44061     44059     44062     44065     44062     44065     44068     44069
     44062     44065     44068     44070     44062     44065     44068     44071
     44063     44062     44065     44066     44063     44062     44065     44067
     44063     44062     44065     44068     44064     44062     44065     44066
     44064     44062     44065     44067     44064     44062     44065     44068
     44065     44068     44071     44072     44065     44068     44071     44073
     44065     44068     44071     44074     44066     44065     44068     44069
     44066     44065     44068     44070     44066     44065     44068     44071
     44067     44065     44068     44069     44067     44065     44068     44070
     44067     44065     44068     44071     44068     44071     44074     44075
     44068     44071     44074     44076     44068     44071     44074     44077
     44069     44068     44071     44072     44069     44068     44071     44073
     44069     44068     44071     44074     44070     44068     44071     44072
     44070     44068     44071     44073     44070     44068     44071     44074
     44071     44074     44077     44078     44071     44074     44077     44079
     44071     44074     44077     44080     44072     44071     44074     44075
     44072     44071     44074     44076     44072     44071     44074     44077
     44073     44071     44074     44075     44073     44071     44074     44076
     44073     44071     44074     44077     44075     44074     44077     44078
     44075     44074     44077     44079     44075     44074     44077     44080
     44076     44074     44077     44078     44076     44074     44077     44079
     44076     44074     44077     44080     44081     44084     44087     44088
     44081     44084     44087     44089     44081     44084     44087     44090
     44082     44081     44084     44085     44082     44081     44084     44086
     44082     44081     44084     44087     44083     44081     44084     44085
     44083     44081     44084     44086     44083     44081     44084     44087
     44084     44087     44090     44091     44084     44087     44090     44092
     44084     44087     44090     44093     44085     44084     44087     44088
     44085     44084     44087     44089     44085     44084     44087     44090
     44086     44084     44087     44088     44086     44084     44087     44089
     44086     44084     44087     44090     44087     44090     44093     44094
     44087     44090     44093     44095     44087     44090     44093     44096
     44088     44087     44090     44091     44088     44087     44090     44092
     44088     44087     44090     44093     44089     44087     44090     44091
     44089     44087     44090     44092     44089     44087     44090     44093
     44090     44093     44096     44097     44090     44093     44096     44098
     44090     44093     44096     44099     44091     44090     44093     44094
     44091     44090     44093     44095     44091     44090     44093     44096
     44092     44090     44093     44094     44092     44090     44093     44095
     44092     44090     44093     44096     44093     44096     44099     44100
     44093     44096     44099     44101     44093     44096     44099     44102
     44094     44093     44096     44097     44094     44093     44096     44098
     44094     44093     44096     44099     44095     44093     44096     44097
     44095     44093     44096     44098     44095     44093     44096     44099
     44096     44099     44102     44103     44096     44099     44102     44104
     44096     44099     44102     44105     44097     44096     44099     44100
     44097     44096     44099     44101     44097     44096     44099     44102
     44098     44096     44099     44100     44098     44096     44099     44101
     44098     44096     44099     44102     44099     44102     44105     44106
     44099     44102     44105     44107     44100     44099     44102     44103
     44100     44099     44102     44104     44100     44099     44102     44105
     44101     44099     44102     44103     44101     44099     44102     44104
     44101     44099     44102     44105     44102     44105     44107     44108
     44102     44105     44107     44109     44103     44102     44105     44106
     44103     44102     44105     44107     44104     44102     44105     44106
     44104     44102     44105     44107     44105     44107     44109     44110
     44105     44107     44109     44111     44105     44107     44109     44112
     44106     44105     44107     44108     44106     44105     44107     44109
     44107     44109     44112     44113     44107     44109     44112     44114
     44107     44109     44112     44115     44108     44107     44109     44110
     44108     44107     44109     44111     44108     44107     44109     44112
     44109     44112     44115     44116     44109     44112     44115     44117
     44109     44112     44115     44118     44110     44109     44112     44113
     44110     44109     44112     44114     44110     44109     44112     44115
     44111     44109     44112     44113     44111     44109     44112     44114
     44111     44109     44112     44115     44112     44115     44118     44119
     44112     44115     44118     44120     44112     44115     44118     44121
     44113     44112     44115     44116     44113     44112     44115     44117
     44113     44112     44115     44118     44114     44112     44115     44116
     44114     44112     44115     44117     44114     44112     44115     44118
     44115     44118     44121     44122     44115     44118     44121     44123
     44115     44118     44121     44124     44116     44115     44118     44119
     44116     44115     44118     44120     44116     44115     44118     44121
     44117     44115     44118     44119     44117     44115     44118     44120
     44117     44115     44118     44121     44118     44121     44124     44125
     44118     44121     44124     44126     44118     44121     44124     44127
     44119     44118     44121     44122     44119     44118     44121     44123
     44119     44118     44121     44124     44120     44118     44121     44122
     44120     44118     44121     44123     44120     44118     44121     44124
     44122     44121     44124     44125     44122     44121     44124     44126
     44122     44121     44124     44127     44123     44121     44124     44125
     44123     44121     44124     44126     44123     44121     44124     44127
     44128     44131     44134     44135     44128     44131     44134     44136
     44128     44131     44134     44137     44129     44128     44131     44132
     44129     44128     44131     44133     44129     44128     44131     44134
     44130     44128     44131     44132     44130     44128     44131     44133
     44130     44128     44131     44134     44131     44134     44137     44138
     44131     44134     44137     44139     44131     44134     44137     44140
     44132     44131     44134     44135     44132     44131     44134     44136
     44132     44131     44134     44137     44133     44131     44134     44135
     44133     44131     44134     44136     44133     44131     44134     44137
     44134     44137     44140     44141     44134     44137     44140     44142
     44134     44137     44140     44143     44135     44134     44137     44138
     44135     44134     44137     44139     44135     44134     44137     44140
     44136     44134     44137     44138     44136     44134     44137     44139
     44136     44134     44137     44140     44137     44140     44143     44144
     44137     44140     44143     44145     44137     44140     44143     44146
     44138     44137     44140     44141     44138     44137     44140     44142
     44138     44137     44140     44143     44139     44137     44140     44141
     44139     44137     44140     44142     44139     44137     44140     44143
     44140     44143     44146     44147     44140     44143     44146     44148
     44140     44143     44146     44149     44141     44140     44143     44144
     44141     44140     44143     44145     44141     44140     44143     44146
     44142     44140     44143     44144     44142     44140     44143     44145
     44142     44140     44143     44146     44143     44146     44149     44150
     44143     44146     44149     44151     44143     44146     44149     44152
     44144     44143     44146     44147     44144     44143     44146     44148
     44144     44143     44146     44149     44145     44143     44146     44147
     44145     44143     44146     44148     44145     44143     44146     44149
     44146     44149     44152     44153     44146     44149     44152     44154
     44146     44149     44152     44155     44147     44146     44149     44150
     44147     44146     44149     44151     44147     44146     44149     44152
     44148     44146     44149     44150     44148     44146     44149     44151
     44148     44146     44149     44152     44149     44152     44155     44156
     44149     44152     44155     44157     44149     44152     44155     44158
     44150     44149     44152     44153     44150     44149     44152     44154
     44150     44149     44152     44155     44151     44149     44152     44153
     44151     44149     44152     44154     44151     44149     44152     44155
     44152     44155     44158     44159     44152     44155     44158     44160
     44152     44155     44158     44161     44153     44152     44155     44156
     44153     44152     44155     44157     44153     44152     44155     44158
     44154     44152     44155     44156     44154     44152     44155     44157
     44154     44152     44155     44158     44155     44158     44161     44162
     44155     44158     44161     44163     44155     44158     44161     44164
     44156     44155     44158     44159     44156     44155     44158     44160
     44156     44155     44158     44161     44157     44155     44158     44159
     44157     44155     44158     44160     44157     44155     44158     44161
     44158     44161     44164     44165     44158     44161     44164     44166
     44158     44161     44164     44167     44159     44158     44161     44162
     44159     44158     44161     44163     44159     44158     44161     44164
     44160     44158     44161     44162     44160     44158     44161     44163
     44160     44158     44161     44164     44161     44164     44167     44168
     44161     44164     44167     44169     44161     44164     44167     44170
     44162     44161     44164     44165     44162     44161     44164     44166
     44162     44161     44164     44167     44163     44161     44164     44165
     44163     44161     44164     44166     44163     44161     44164     44167
     44165     44164     44167     44168     44165     44164     44167     44169
     44165     44164     44167     44170     44166     44164     44167     44168
     44166     44164     44167     44169     44166     44164     44167     44170
     44171     44175     44178     44179     44171     44175     44178     44180
     44171     44175     44178     44185     44172     44171     44175     44176
     44172     44171     44175     44177     44172     44171     44175     44178
     44173     44171     44175     44176     44173     44171     44175     44177
     44173     44171     44175     44178     44174     44171     44175     44176
     44174     44171     44175     44177     44174     44171     44175     44178
     44175     44178     44185     44181     44176     44175     44178     44179
     44176     44175     44178     44180     44176     44175     44178     44185
     44177     44175     44178     44179     44177     44175     44178     44180
     44177     44175     44178     44185     44178     44185     44181     44182
     44178     44185     44181     44183     44178     44185     44181     44184
     44179     44178     44185     44181     44180     44178     44185     44181
     44181     44184     44186     44187     44181     44184     44186     44188
     44181     44184     44186     44189     44182     44181     44184     44186
     44183     44181     44184     44186     44184     44186     44189     44190
     44184     44186     44189     44191     44184     44186     44189     44197
     44185     44181     44184     44186     44186     44189     44191     44192
     44186     44189     44197     44198     44186     44189     44197     44199
     44186     44189     44197     44200     44187     44186     44189     44190
     44187     44186     44189     44191     44187     44186     44189     44197
     44188     44186     44189     44190     44188     44186     44189     44191
     44188     44186     44189     44197     44189     44191     44192     44193
     44189     44191     44192     44194     44189     44197     44200     44201
     44190     44189     44191     44192     44190     44189     44197     44198
     44190     44189     44197     44199     44190     44189     44197     44200
     44191     44189     44197     44198     44191     44189     44197     44199
     44191     44189     44197     44200     44191     44192     44194     44195
     44191     44192     44194     44196     44191     44192     44194     44206
     44192     44191     44189     44197     44192     44194     44206     44207
     44192     44194     44206     44208     44192     44194     44206     44209
     44193     44192     44194     44195     44193     44192     44194     44196
     44193     44192     44194     44206     44194     44206     44209     44210
     44194     44206     44209     44211     44194     44206     44209     44212
     44195     44194     44206     44207     44195     44194     44206     44208
     44195     44194     44206     44209     44196     44194     44206     44207
     44196     44194     44206     44208     44196     44194     44206     44209
     44197     44200     44201     44202     44197     44200     44201     44203
     44198     44197     44200     44201     44199     44197     44200     44201
     44200     44201     44203     44204     44200     44201     44203     44205
     44200     44201     44203     44247     44201     44203     44247     44248
     44201     44203     44247     44249     44201     44203     44247     44250
     44202     44201     44203     44204     44202     44201     44203     44205
     44202     44201     44203     44247     44203     44247     44250     44251
     44203     44247     44250     44252     44203     44247     44250     44253
     44204     44203     44247     44248     44204     44203     44247     44249
     44204     44203     44247     44250     44205     44203     44247     44248
     44205     44203     44247     44249     44205     44203     44247     44250
     44206     44209     44212     44213     44206     44209     44212     44214
     44206     44209     44212     44215     44207     44206     44209     44210
     44207     44206     44209     44211     44207     44206     44209     44212
     44208     44206     44209     44210     44208     44206     44209     44211
     44208     44206     44209     44212     44209     44212     44215     44216
     44209     44212     44215     44217     44209     44212     44215     44218
     44210     44209     44212     44213     44210     44209     44212     44214
     44210     44209     44212     44215     44211     44209     44212     44213
     44211     44209     44212     44214     44211     44209     44212     44215
     44212     44215     44218     44219     44212     44215     44218     44220
     44212     44215     44218     44221     44213     44212     44215     44216
     44213     44212     44215     44217     44213     44212     44215     44218
     44214     44212     44215     44216     44214     44212     44215     44217
     44214     44212     44215     44218     44215     44218     44221     44222
     44215     44218     44221     44223     44215     44218     44221     44224
     44216     44215     44218     44219     44216     44215     44218     44220
     44216     44215     44218     44221     44217     44215     44218     44219
     44217     44215     44218     44220     44217     44215     44218     44221
     44218     44221     44224     44225     44218     44221     44224     44226
     44219     44218     44221     44222     44219     44218     44221     44223
     44219     44218     44221     44224     44220     44218     44221     44222
     44220     44218     44221     44223     44220     44218     44221     44224
     44221     44224     44226     44227     44221     44224     44226     44228
     44222     44221     44224     44225     44222     44221     44224     44226
     44223     44221     44224     44225     44223     44221     44224     44226
     44224     44226     44228     44229     44224     44226     44228     44230
     44224     44226     44228     44231     44225     44224     44226     44227
     44225     44224     44226     44228     44226     44228     44231     44232
     44226     44228     44231     44233     44226     44228     44231     44234
     44227     44226     44228     44229     44227     44226     44228     44230
     44227     44226     44228     44231     44228     44231     44234     44235
     44228     44231     44234     44236     44228     44231     44234     44237
     44229     44228     44231     44232     44229     44228     44231     44233
     44229     44228     44231     44234     44230     44228     44231     44232
     44230     44228     44231     44233     44230     44228     44231     44234
     44231     44234     44237     44238     44231     44234     44237     44239
     44231     44234     44237     44240     44232     44231     44234     44235
     44232     44231     44234     44236     44232     44231     44234     44237
     44233     44231     44234     44235     44233     44231     44234     44236
     44233     44231     44234     44237     44234     44237     44240     44241
     44234     44237     44240     44242     44234     44237     44240     44243
     44235     44234     44237     44238     44235     44234     44237     44239
     44235     44234     44237     44240     44236     44234     44237     44238
     44236     44234     44237     44239     44236     44234     44237     44240
     44237     44240     44243     44244     44237     44240     44243     44245
     44237     44240     44243     44246     44238     44237     44240     44241
     44238     44237     44240     44242     44238     44237     44240     44243
     44239     44237     44240     44241     44239     44237     44240     44242
     44239     44237     44240     44243     44241     44240     44243     44244
     44241     44240     44243     44245     44241     44240     44243     44246
     44242     44240     44243     44244     44242     44240     44243     44245
     44242     44240     44243     44246     44247     44250     44253     44254
     44247     44250     44253     44255     44247     44250     44253     44256
     44248     44247     44250     44251     44248     44247     44250     44252
     44248     44247     44250     44253     44249     44247     44250     44251
     44249     44247     44250     44252     44249     44247     44250     44253
     44250     44253     44256     44257     44250     44253     44256     44258
     44250     44253     44256     44259     44251     44250     44253     44254
     44251     44250     44253     44255     44251     44250     44253     44256
     44252     44250     44253     44254     44252     44250     44253     44255
     44252     44250     44253     44256     44253     44256     44259     44260
     44253     44256     44259     44261     44253     44256     44259     44262
     44254     44253     44256     44257     44254     44253     44256     44258
     44254     44253     44256     44259     44255     44253     44256     44257
     44255     44253     44256     44258     44255     44253     44256     44259
     44256     44259     44262     44263     44256     44259     44262     44264
     44256     44259     44262     44265     44257     44256     44259     44260
     44257     44256     44259     44261     44257     44256     44259     44262
     44258     44256     44259     44260     44258     44256     44259     44261
     44258     44256     44259     44262     44259     44262     44265     44266
     44259     44262     44265     44267     44259     44262     44265     44268
     44260     44259     44262     44263     44260     44259     44262     44264
     44260     44259     44262     44265     44261     44259     44262     44263
     44261     44259     44262     44264     44261     44259     44262     44265
     44262     44265     44268     44269     44262     44265     44268     44270
     44262     44265     44268     44271     44263     44262     44265     44266
     44263     44262     44265     44267     44263     44262     44265     44268
     44264     44262     44265     44266     44264     44262     44265     44267
     44264     44262     44265     44268     44265     44268     44271     44272
     44265     44268     44271     44273     44265     44268     44271     44274
     44266     44265     44268     44269     44266     44265     44268     44270
     44266     44265     44268     44271     44267     44265     44268     44269
     44267     44265     44268     44270     44267     44265     44268     44271
     44268     44271     44274     44275     44268     44271     44274     44276
     44268     44271     44274     44277     44269     44268     44271     44272
     44269     44268     44271     44273     44269     44268     44271     44274
     44270     44268     44271     44272     44270     44268     44271     44273
     44270     44268     44271     44274     44271     44274     44277     44278
     44271     44274     44277     44279     44271     44274     44277     44280
     44272     44271     44274     44275     44272     44271     44274     44276
     44272     44271     44274     44277     44273     44271     44274     44275
     44273     44271     44274     44276     44273     44271     44274     44277
     44274     44277     44280     44281     44274     44277     44280     44282
     44274     44277     44280     44283     44275     44274     44277     44278
     44275     44274     44277     44279     44275     44274     44277     44280
     44276     44274     44277     44278     44276     44274     44277     44279
     44276     44274     44277     44280     44277     44280     44283     44284
     44277     44280     44283     44285     44277     44280     44283     44286
     44278     44277     44280     44281     44278     44277     44280     44282
     44278     44277     44280     44283     44279     44277     44280     44281
     44279     44277     44280     44282     44279     44277     44280     44283
     44280     44283     44286     44287     44280     44283     44286     44288
     44280     44283     44286     44289     44281     44280     44283     44284
     44281     44280     44283     44285     44281     44280     44283     44286
     44282     44280     44283     44284     44282     44280     44283     44285
     44282     44280     44283     44286     44284     44283     44286     44287
     44284     44283     44286     44288     44284     44283     44286     44289
     44285     44283     44286     44287     44285     44283     44286     44288
     44285     44283     44286     44289     44290     44294     44297     44298
     44290     44294     44297     44299     44290     44294     44297     44304
     44291     44290     44294     44295     44291     44290     44294     44296
     44291     44290     44294     44297     44292     44290     44294     44295
     44292     44290     44294     44296     44292     44290     44294     44297
     44293     44290     44294     44295     44293     44290     44294     44296
     44293     44290     44294     44297     44294     44297     44304     44300
     44295     44294     44297     44298     44295     44294     44297     44299
     44295     44294     44297     44304     44296     44294     44297     44298
     44296     44294     44297     44299     44296     44294     44297     44304
     44297     44304     44300     44301     44297     44304     44300     44302
     44297     44304     44300     44303     44298     44297     44304     44300
     44299     44297     44304     44300     44300     44303     44305     44306
     44300     44303     44305     44307     44300     44303     44305     44308
     44301     44300     44303     44305     44302     44300     44303     44305
     44303     44305     44308     44309     44303     44305     44308     44310
     44303     44305     44308     44316     44304     44300     44303     44305
     44305     44308     44310     44311     44305     44308     44316     44317
     44305     44308     44316     44318     44305     44308     44316     44319
     44306     44305     44308     44309     44306     44305     44308     44310
     44306     44305     44308     44316     44307     44305     44308     44309
     44307     44305     44308     44310     44307     44305     44308     44316
     44308     44310     44311     44312     44308     44310     44311     44313
     44308     44316     44319     44320     44309     44308     44310     44311
     44309     44308     44316     44317     44309     44308     44316     44318
     44309     44308     44316     44319     44310     44308     44316     44317
     44310     44308     44316     44318     44310     44308     44316     44319
     44310     44311     44313     44314     44310     44311     44313     44315
     44310     44311     44313     44325     44311     44310     44308     44316
     44311     44313     44325     44326     44311     44313     44325     44327
     44311     44313     44325     44328     44312     44311     44313     44314
     44312     44311     44313     44315     44312     44311     44313     44325
     44313     44325     44328     44329     44313     44325     44328     44330
     44313     44325     44328     44331     44314     44313     44325     44326
     44314     44313     44325     44327     44314     44313     44325     44328
     44315     44313     44325     44326     44315     44313     44325     44327
     44315     44313     44325     44328     44316     44319     44320     44321
     44316     44319     44320     44322     44317     44316     44319     44320
     44318     44316     44319     44320     44319     44320     44322     44323
     44319     44320     44322     44324     44319     44320     44322     44366
     44320     44322     44366     44367     44320     44322     44366     44368
     44320     44322     44366     44369     44321     44320     44322     44323
     44321     44320     44322     44324     44321     44320     44322     44366
     44322     44366     44369     44370     44322     44366     44369     44371
     44322     44366     44369     44372     44323     44322     44366     44367
     44323     44322     44366     44368     44323     44322     44366     44369
     44324     44322     44366     44367     44324     44322     44366     44368
     44324     44322     44366     44369     44325     44328     44331     44332
     44325     44328     44331     44333     44325     44328     44331     44334
     44326     44325     44328     44329     44326     44325     44328     44330
     44326     44325     44328     44331     44327     44325     44328     44329
     44327     44325     44328     44330     44327     44325     44328     44331
     44328     44331     44334     44335     44328     44331     44334     44336
     44328     44331     44334     44337     44329     44328     44331     44332
     44329     44328     44331     44333     44329     44328     44331     44334
     44330     44328     44331     44332     44330     44328     44331     44333
     44330     44328     44331     44334     44331     44334     44337     44338
     44331     44334     44337     44339     44331     44334     44337     44340
     44332     44331     44334     44335     44332     44331     44334     44336
     44332     44331     44334     44337     44333     44331     44334     44335
     44333     44331     44334     44336     44333     44331     44334     44337
     44334     44337     44340     44341     44334     44337     44340     44342
     44334     44337     44340     44343     44335     44334     44337     44338
     44335     44334     44337     44339     44335     44334     44337     44340
     44336     44334     44337     44338     44336     44334     44337     44339
     44336     44334     44337     44340     44337     44340     44343     44344
     44337     44340     44343     44345     44338     44337     44340     44341
     44338     44337     44340     44342     44338     44337     44340     44343
     44339     44337     44340     44341     44339     44337     44340     44342
     44339     44337     44340     44343     44340     44343     44345     44346
     44340     44343     44345     44347     44341     44340     44343     44344
     44341     44340     44343     44345     44342     44340     44343     44344
     44342     44340     44343     44345     44343     44345     44347     44348
     44343     44345     44347     44349     44343     44345     44347     44350
     44344     44343     44345     44346     44344     44343     44345     44347
     44345     44347     44350     44351     44345     44347     44350     44352
     44345     44347     44350     44353     44346     44345     44347     44348
     44346     44345     44347     44349     44346     44345     44347     44350
     44347     44350     44353     44354     44347     44350     44353     44355
     44347     44350     44353     44356     44348     44347     44350     44351
     44348     44347     44350     44352     44348     44347     44350     44353
     44349     44347     44350     44351     44349     44347     44350     44352
     44349     44347     44350     44353     44350     44353     44356     44357
     44350     44353     44356     44358     44350     44353     44356     44359
     44351     44350     44353     44354     44351     44350     44353     44355
     44351     44350     44353     44356     44352     44350     44353     44354
     44352     44350     44353     44355     44352     44350     44353     44356
     44353     44356     44359     44360     44353     44356     44359     44361
     44353     44356     44359     44362     44354     44353     44356     44357
     44354     44353     44356     44358     44354     44353     44356     44359
     44355     44353     44356     44357     44355     44353     44356     44358
     44355     44353     44356     44359     44356     44359     44362     44363
     44356     44359     44362     44364     44356     44359     44362     44365
     44357     44356     44359     44360     44357     44356     44359     44361
     44357     44356     44359     44362     44358     44356     44359     44360
     44358     44356     44359     44361     44358     44356     44359     44362
     44360     44359     44362     44363     44360     44359     44362     44364
     44360     44359     44362     44365     44361     44359     44362     44363
     44361     44359     44362     44364     44361     44359     44362     44365
     44366     44369     44372     44373     44366     44369     44372     44374
     44366     44369     44372     44375     44367     44366     44369     44370
     44367     44366     44369     44371     44367     44366     44369     44372
     44368     44366     44369     44370     44368     44366     44369     44371
     44368     44366     44369     44372     44369     44372     44375     44376
     44369     44372     44375     44377     44369     44372     44375     44378
     44370     44369     44372     44373     44370     44369     44372     44374
     44370     44369     44372     44375     44371     44369     44372     44373
     44371     44369     44372     44374     44371     44369     44372     44375
     44372     44375     44378     44379     44372     44375     44378     44380
     44372     44375     44378     44381     44373     44372     44375     44376
     44373     44372     44375     44377     44373     44372     44375     44378
     44374     44372     44375     44376     44374     44372     44375     44377
     44374     44372     44375     44378     44375     44378     44381     44382
     44375     44378     44381     44383     44375     44378     44381     44384
     44376     44375     44378     44379     44376     44375     44378     44380
     44376     44375     44378     44381     44377     44375     44378     44379
     44377     44375     44378     44380     44377     44375     44378     44381
     44378     44381     44384     44385     44378     44381     44384     44386
     44378     44381     44384     44387     44379     44378     44381     44382
     44379     44378     44381     44383     44379     44378     44381     44384
     44380     44378     44381     44382     44380     44378     44381     44383
     44380     44378     44381     44384     44381     44384     44387     44388
     44381     44384     44387     44389     44381     44384     44387     44390
     44382     44381     44384     44385     44382     44381     44384     44386
     44382     44381     44384     44387     44383     44381     44384     44385
     44383     44381     44384     44386     44383     44381     44384     44387
     44384     44387     44390     44391     44384     44387     44390     44392
     44384     44387     44390     44393     44385     44384     44387     44388
     44385     44384     44387     44389     44385     44384     44387     44390
     44386     44384     44387     44388     44386     44384     44387     44389
     44386     44384     44387     44390     44387     44390     44393     44394
     44387     44390     44393     44395     44387     44390     44393     44396
     44388     44387     44390     44391     44388     44387     44390     44392
     44388     44387     44390     44393     44389     44387     44390     44391
     44389     44387     44390     44392     44389     44387     44390     44393
     44390     44393     44396     44397     44390     44393     44396     44398
     44390     44393     44396     44399     44391     44390     44393     44394
     44391     44390     44393     44395     44391     44390     44393     44396
     44392     44390     44393     44394     44392     44390     44393     44395
     44392     44390     44393     44396     44393     44396     44399     44400
     44393     44396     44399     44401     44393     44396     44399     44402
     44394     44393     44396     44397     44394     44393     44396     44398
     44394     44393     44396     44399     44395     44393     44396     44397
     44395     44393     44396     44398     44395     44393     44396     44399
     44396     44399     44402     44403     44396     44399     44402     44404
     44396     44399     44402     44405     44397     44396     44399     44400
     44397     44396     44399     44401     44397     44396     44399     44402
     44398     44396     44399     44400     44398     44396     44399     44401
     44398     44396     44399     44402     44399     44402     44405     44406
     44399     44402     44405     44407     44399     44402     44405     44408
     44400     44399     44402     44403     44400     44399     44402     44404
     44400     44399     44402     44405     44401     44399     44402     44403
     44401     44399     44402     44404     44401     44399     44402     44405
     44403     44402     44405     44406     44403     44402     44405     44407
     44403     44402     44405     44408     44404     44402     44405     44406
     44404     44402     44405     44407     44404     44402     44405     44408
     44409     44413     44416     44417     44409     44413     44416     44418
     44409     44413     44416     44423     44410     44409     44413     44414
     44410     44409     44413     44415     44410     44409     44413     44416
     44411     44409     44413     44414     44411     44409     44413     44415
     44411     44409     44413     44416     44412     44409     44413     44414
     44412     44409     44413     44415     44412     44409     44413     44416
     44413     44416     44423     44419     44414     44413     44416     44417
     44414     44413     44416     44418     44414     44413     44416     44423
     44415     44413     44416     44417     44415     44413     44416     44418
     44415     44413     44416     44423     44416     44423     44419     44420
     44416     44423     44419     44421     44416     44423     44419     44422
     44417     44416     44423     44419     44418     44416     44423     44419
     44419     44422     44424     44425     44419     44422     44424     44426
     44419     44422     44424     44427     44420     44419     44422     44424
     44421     44419     44422     44424     44422     44424     44427     44428
     44422     44424     44427     44429     44422     44424     44427     44435
     44423     44419     44422     44424     44424     44427     44429     44430
     44424     44427     44435     44436     44424     44427     44435     44437
     44424     44427     44435     44438     44425     44424     44427     44428
     44425     44424     44427     44429     44425     44424     44427     44435
     44426     44424     44427     44428     44426     44424     44427     44429
     44426     44424     44427     44435     44427     44429     44430     44431
     44427     44429     44430     44432     44427     44435     44438     44439
     44428     44427     44429     44430     44428     44427     44435     44436
     44428     44427     44435     44437     44428     44427     44435     44438
     44429     44427     44435     44436     44429     44427     44435     44437
     44429     44427     44435     44438     44429     44430     44432     44433
     44429     44430     44432     44434     44429     44430     44432     44444
     44430     44429     44427     44435     44430     44432     44444     44445
     44430     44432     44444     44446     44430     44432     44444     44447
     44431     44430     44432     44433     44431     44430     44432     44434
     44431     44430     44432     44444     44432     44444     44447     44448
     44432     44444     44447     44449     44432     44444     44447     44450
     44433     44432     44444     44445     44433     44432     44444     44446
     44433     44432     44444     44447     44434     44432     44444     44445
     44434     44432     44444     44446     44434     44432     44444     44447
     44435     44438     44439     44440     44435     44438     44439     44441
     44436     44435     44438     44439     44437     44435     44438     44439
     44438     44439     44441     44442     44438     44439     44441     44443
     44438     44439     44441     44485     44439     44441     44485     44486
     44439     44441     44485     44487     44439     44441     44485     44488
     44440     44439     44441     44442     44440     44439     44441     44443
     44440     44439     44441     44485     44441     44485     44488     44489
     44441     44485     44488     44490     44441     44485     44488     44491
     44442     44441     44485     44486     44442     44441     44485     44487
     44442     44441     44485     44488     44443     44441     44485     44486
     44443     44441     44485     44487     44443     44441     44485     44488
     44444     44447     44450     44451     44444     44447     44450     44452
     44444     44447     44450     44453     44445     44444     44447     44448
     44445     44444     44447     44449     44445     44444     44447     44450
     44446     44444     44447     44448     44446     44444     44447     44449
     44446     44444     44447     44450     44447     44450     44453     44454
     44447     44450     44453     44455     44447     44450     44453     44456
     44448     44447     44450     44451     44448     44447     44450     44452
     44448     44447     44450     44453     44449     44447     44450     44451
     44449     44447     44450     44452     44449     44447     44450     44453
     44450     44453     44456     44457     44450     44453     44456     44458
     44450     44453     44456     44459     44451     44450     44453     44454
     44451     44450     44453     44455     44451     44450     44453     44456
     44452     44450     44453     44454     44452     44450     44453     44455
     44452     44450     44453     44456     44453     44456     44459     44460
     44453     44456     44459     44461     44453     44456     44459     44462
     44454     44453     44456     44457     44454     44453     44456     44458
     44454     44453     44456     44459     44455     44453     44456     44457
     44455     44453     44456     44458     44455     44453     44456     44459
     44456     44459     44462     44463     44456     44459     44462     44464
     44457     44456     44459     44460     44457     44456     44459     44461
     44457     44456     44459     44462     44458     44456     44459     44460
     44458     44456     44459     44461     44458     44456     44459     44462
     44459     44462     44464     44465     44459     44462     44464     44466
     44460     44459     44462     44463     44460     44459     44462     44464
     44461     44459     44462     44463     44461     44459     44462     44464
     44462     44464     44466     44467     44462     44464     44466     44468
     44462     44464     44466     44469     44463     44462     44464     44465
     44463     44462     44464     44466     44464     44466     44469     44470
     44464     44466     44469     44471     44464     44466     44469     44472
     44465     44464     44466     44467     44465     44464     44466     44468
     44465     44464     44466     44469     44466     44469     44472     44473
     44466     44469     44472     44474     44466     44469     44472     44475
     44467     44466     44469     44470     44467     44466     44469     44471
     44467     44466     44469     44472     44468     44466     44469     44470
     44468     44466     44469     44471     44468     44466     44469     44472
     44469     44472     44475     44476     44469     44472     44475     44477
     44469     44472     44475     44478     44470     44469     44472     44473
     44470     44469     44472     44474     44470     44469     44472     44475
     44471     44469     44472     44473     44471     44469     44472     44474
     44471     44469     44472     44475     44472     44475     44478     44479
     44472     44475     44478     44480     44472     44475     44478     44481
     44473     44472     44475     44476     44473     44472     44475     44477
     44473     44472     44475     44478     44474     44472     44475     44476
     44474     44472     44475     44477     44474     44472     44475     44478
     44475     44478     44481     44482     44475     44478     44481     44483
     44475     44478     44481     44484     44476     44475     44478     44479
     44476     44475     44478     44480     44476     44475     44478     44481
     44477     44475     44478     44479     44477     44475     44478     44480
     44477     44475     44478     44481     44479     44478     44481     44482
     44479     44478     44481     44483     44479     44478     44481     44484
     44480     44478     44481     44482     44480     44478     44481     44483
     44480     44478     44481     44484     44485     44488     44491     44492
     44485     44488     44491     44493     44485     44488     44491     44494
     44486     44485     44488     44489     44486     44485     44488     44490
     44486     44485     44488     44491     44487     44485     44488     44489
     44487     44485     44488     44490     44487     44485     44488     44491
     44488     44491     44494     44495     44488     44491     44494     44496
     44488     44491     44494     44497     44489     44488     44491     44492
     44489     44488     44491     44493     44489     44488     44491     44494
     44490     44488     44491     44492     44490     44488     44491     44493
     44490     44488     44491     44494     44491     44494     44497     44498
     44491     44494     44497     44499     44491     44494     44497     44500
     44492     44491     44494     44495     44492     44491     44494     44496
     44492     44491     44494     44497     44493     44491     44494     44495
     44493     44491     44494     44496     44493     44491     44494     44497
     44494     44497     44500     44501     44494     44497     44500     44502
     44494     44497     44500     44503     44495     44494     44497     44498
     44495     44494     44497     44499     44495     44494     44497     44500
     44496     44494     44497     44498     44496     44494     44497     44499
     44496     44494     44497     44500     44497     44500     44503     44504
     44497     44500     44503     44505     44497     44500     44503     44506
     44498     44497     44500     44501     44498     44497     44500     44502
     44498     44497     44500     44503     44499     44497     44500     44501
     44499     44497     44500     44502     44499     44497     44500     44503
     44500     44503     44506     44507     44500     44503     44506     44508
     44500     44503     44506     44509     44501     44500     44503     44504
     44501     44500     44503     44505     44501     44500     44503     44506
     44502     44500     44503     44504     44502     44500     44503     44505
     44502     44500     44503     44506     44503     44506     44509     44510
     44503     44506     44509     44511     44503     44506     44509     44512
     44504     44503     44506     44507     44504     44503     44506     44508
     44504     44503     44506     44509     44505     44503     44506     44507
     44505     44503     44506     44508     44505     44503     44506     44509
     44506     44509     44512     44513     44506     44509     44512     44514
     44506     44509     44512     44515     44507     44506     44509     44510
     44507     44506     44509     44511     44507     44506     44509     44512
     44508     44506     44509     44510     44508     44506     44509     44511
     44508     44506     44509     44512     44509     44512     44515     44516
     44509     44512     44515     44517     44509     44512     44515     44518
     44510     44509     44512     44513     44510     44509     44512     44514
     44510     44509     44512     44515     44511     44509     44512     44513
     44511     44509     44512     44514     44511     44509     44512     44515
     44512     44515     44518     44519     44512     44515     44518     44520
     44512     44515     44518     44521     44513     44512     44515     44516
     44513     44512     44515     44517     44513     44512     44515     44518
     44514     44512     44515     44516     44514     44512     44515     44517
     44514     44512     44515     44518     44515     44518     44521     44522
     44515     44518     44521     44523     44515     44518     44521     44524
     44516     44515     44518     44519     44516     44515     44518     44520
     44516     44515     44518     44521     44517     44515     44518     44519
     44517     44515     44518     44520     44517     44515     44518     44521
     44518     44521     44524     44525     44518     44521     44524     44526
     44518     44521     44524     44527     44519     44518     44521     44522
     44519     44518     44521     44523     44519     44518     44521     44524
     44520     44518     44521     44522     44520     44518     44521     44523
     44520     44518     44521     44524     44522     44521     44524     44525
     44522     44521     44524     44526     44522     44521     44524     44527
     44523     44521     44524     44525     44523     44521     44524     44526
     44523     44521     44524     44527     44528     44532     44535     44536
     44528     44532     44535     44537     44528     44532     44535     44542
     44529     44528     44532     44533     44529     44528     44532     44534
     44529     44528     44532     44535     44530     44528     44532     44533
     44530     44528     44532     44534     44530     44528     44532     44535
     44531     44528     44532     44533     44531     44528     44532     44534
     44531     44528     44532     44535     44532     44535     44542     44538
     44533     44532     44535     44536     44533     44532     44535     44537
     44533     44532     44535     44542     44534     44532     44535     44536
     44534     44532     44535     44537     44534     44532     44535     44542
     44535     44542     44538     44539     44535     44542     44538     44540
     44535     44542     44538     44541     44536     44535     44542     44538
     44537     44535     44542     44538     44538     44541     44543     44544
     44538     44541     44543     44545     44538     44541     44543     44546
     44539     44538     44541     44543     44540     44538     44541     44543
     44541     44543     44546     44547     44541     44543     44546     44548
     44541     44543     44546     44554     44542     44538     44541     44543
     44543     44546     44548     44549     44543     44546     44554     44555
     44543     44546     44554     44556     44543     44546     44554     44557
     44544     44543     44546     44547     44544     44543     44546     44548
     44544     44543     44546     44554     44545     44543     44546     44547
     44545     44543     44546     44548     44545     44543     44546     44554
     44546     44548     44549     44550     44546     44548     44549     44551
     44546     44554     44557     44558     44547     44546     44548     44549
     44547     44546     44554     44555     44547     44546     44554     44556
     44547     44546     44554     44557     44548     44546     44554     44555
     44548     44546     44554     44556     44548     44546     44554     44557
     44548     44549     44551     44552     44548     44549     44551     44553
     44548     44549     44551     44563     44549     44548     44546     44554
     44549     44551     44563     44564     44549     44551     44563     44565
     44549     44551     44563     44566     44550     44549     44551     44552
     44550     44549     44551     44553     44550     44549     44551     44563
     44551     44563     44566     44567     44551     44563     44566     44568
     44551     44563     44566     44569     44552     44551     44563     44564
     44552     44551     44563     44565     44552     44551     44563     44566
     44553     44551     44563     44564     44553     44551     44563     44565
     44553     44551     44563     44566     44554     44557     44558     44559
     44554     44557     44558     44560     44555     44554     44557     44558
     44556     44554     44557     44558     44557     44558     44560     44561
     44557     44558     44560     44562     44557     44558     44560     44604
     44558     44560     44604     44605     44558     44560     44604     44606
     44558     44560     44604     44607     44559     44558     44560     44561
     44559     44558     44560     44562     44559     44558     44560     44604
     44560     44604     44607     44608     44560     44604     44607     44609
     44560     44604     44607     44610     44561     44560     44604     44605
     44561     44560     44604     44606     44561     44560     44604     44607
     44562     44560     44604     44605     44562     44560     44604     44606
     44562     44560     44604     44607     44563     44566     44569     44570
     44563     44566     44569     44571     44563     44566     44569     44572
     44564     44563     44566     44567     44564     44563     44566     44568
     44564     44563     44566     44569     44565     44563     44566     44567
     44565     44563     44566     44568     44565     44563     44566     44569
     44566     44569     44572     44573     44566     44569     44572     44574
     44566     44569     44572     44575     44567     44566     44569     44570
     44567     44566     44569     44571     44567     44566     44569     44572
     44568     44566     44569     44570     44568     44566     44569     44571
     44568     44566     44569     44572     44569     44572     44575     44576
     44569     44572     44575     44577     44569     44572     44575     44578
     44570     44569     44572     44573     44570     44569     44572     44574
     44570     44569     44572     44575     44571     44569     44572     44573
     44571     44569     44572     44574     44571     44569     44572     44575
     44572     44575     44578     44579     44572     44575     44578     44580
     44572     44575     44578     44581     44573     44572     44575     44576
     44573     44572     44575     44577     44573     44572     44575     44578
     44574     44572     44575     44576     44574     44572     44575     44577
     44574     44572     44575     44578     44575     44578     44581     44582
     44575     44578     44581     44583     44576     44575     44578     44579
     44576     44575     44578     44580     44576     44575     44578     44581
     44577     44575     44578     44579     44577     44575     44578     44580
     44577     44575     44578     44581     44578     44581     44583     44584
     44578     44581     44583     44585     44579     44578     44581     44582
     44579     44578     44581     44583     44580     44578     44581     44582
     44580     44578     44581     44583     44581     44583     44585     44586
     44581     44583     44585     44587     44581     44583     44585     44588
     44582     44581     44583     44584     44582     44581     44583     44585
     44583     44585     44588     44589     44583     44585     44588     44590
     44583     44585     44588     44591     44584     44583     44585     44586
     44584     44583     44585     44587     44584     44583     44585     44588
     44585     44588     44591     44592     44585     44588     44591     44593
     44585     44588     44591     44594     44586     44585     44588     44589
     44586     44585     44588     44590     44586     44585     44588     44591
     44587     44585     44588     44589     44587     44585     44588     44590
     44587     44585     44588     44591     44588     44591     44594     44595
     44588     44591     44594     44596     44588     44591     44594     44597
     44589     44588     44591     44592     44589     44588     44591     44593
     44589     44588     44591     44594     44590     44588     44591     44592
     44590     44588     44591     44593     44590     44588     44591     44594
     44591     44594     44597     44598     44591     44594     44597     44599
     44591     44594     44597     44600     44592     44591     44594     44595
     44592     44591     44594     44596     44592     44591     44594     44597
     44593     44591     44594     44595     44593     44591     44594     44596
     44593     44591     44594     44597     44594     44597     44600     44601
     44594     44597     44600     44602     44594     44597     44600     44603
     44595     44594     44597     44598     44595     44594     44597     44599
     44595     44594     44597     44600     44596     44594     44597     44598
     44596     44594     44597     44599     44596     44594     44597     44600
     44598     44597     44600     44601     44598     44597     44600     44602
     44598     44597     44600     44603     44599     44597     44600     44601
     44599     44597     44600     44602     44599     44597     44600     44603
     44604     44607     44610     44611     44604     44607     44610     44612
     44604     44607     44610     44613     44605     44604     44607     44608
     44605     44604     44607     44609     44605     44604     44607     44610
     44606     44604     44607     44608     44606     44604     44607     44609
     44606     44604     44607     44610     44607     44610     44613     44614
     44607     44610     44613     44615     44607     44610     44613     44616
     44608     44607     44610     44611     44608     44607     44610     44612
     44608     44607     44610     44613     44609     44607     44610     44611
     44609     44607     44610     44612     44609     44607     44610     44613
     44610     44613     44616     44617     44610     44613     44616     44618
     44610     44613     44616     44619     44611     44610     44613     44614
     44611     44610     44613     44615     44611     44610     44613     44616
     44612     44610     44613     44614     44612     44610     44613     44615
     44612     44610     44613     44616     44613     44616     44619     44620
     44613     44616     44619     44621     44613     44616     44619     44622
     44614     44613     44616     44617     44614     44613     44616     44618
     44614     44613     44616     44619     44615     44613     44616     44617
     44615     44613     44616     44618     44615     44613     44616     44619
     44616     44619     44622     44623     44616     44619     44622     44624
     44616     44619     44622     44625     44617     44616     44619     44620
     44617     44616     44619     44621     44617     44616     44619     44622
     44618     44616     44619     44620     44618     44616     44619     44621
     44618     44616     44619     44622     44619     44622     44625     44626
     44619     44622     44625     44627     44619     44622     44625     44628
     44620     44619     44622     44623     44620     44619     44622     44624
     44620     44619     44622     44625     44621     44619     44622     44623
     44621     44619     44622     44624     44621     44619     44622     44625
     44622     44625     44628     44629     44622     44625     44628     44630
     44622     44625     44628     44631     44623     44622     44625     44626
     44623     44622     44625     44627     44623     44622     44625     44628
     44624     44622     44625     44626     44624     44622     44625     44627
     44624     44622     44625     44628     44625     44628     44631     44632
     44625     44628     44631     44633     44625     44628     44631     44634
     44626     44625     44628     44629     44626     44625     44628     44630
     44626     44625     44628     44631     44627     44625     44628     44629
     44627     44625     44628     44630     44627     44625     44628     44631
     44628     44631     44634     44635     44628     44631     44634     44636
     44628     44631     44634     44637     44629     44628     44631     44632
     44629     44628     44631     44633     44629     44628     44631     44634
     44630     44628     44631     44632     44630     44628     44631     44633
     44630     44628     44631     44634     44631     44634     44637     44638
     44631     44634     44637     44639     44631     44634     44637     44640
     44632     44631     44634     44635     44632     44631     44634     44636
     44632     44631     44634     44637     44633     44631     44634     44635
     44633     44631     44634     44636     44633     44631     44634     44637
     44634     44637     44640     44641     44634     44637     44640     44642
     44634     44637     44640     44643     44635     44634     44637     44638
     44635     44634     44637     44639     44635     44634     44637     44640
     44636     44634     44637     44638     44636     44634     44637     44639
     44636     44634     44637     44640     44637     44640     44643     44644
     44637     44640     44643     44645     44637     44640     44643     44646
     44638     44637     44640     44641     44638     44637     44640     44642
     44638     44637     44640     44643     44639     44637     44640     44641
     44639     44637     44640     44642     44639     44637     44640     44643
     44641     44640     44643     44644     44641     44640     44643     44645
     44641     44640     44643     44646     44642     44640     44643     44644
     44642     44640     44643     44645     44642     44640     44643     44646
     44647     44651     44654     44655     44647     44651     44654     44656
     44647     44651     44654     44661     44648     44647     44651     44652
     44648     44647     44651     44653     44648     44647     44651     44654
     44649     44647     44651     44652     44649     44647     44651     44653
     44649     44647     44651     44654     44650     44647     44651     44652
     44650     44647     44651     44653     44650     44647     44651     44654
     44651     44654     44661     44657     44652     44651     44654     44655
     44652     44651     44654     44656     44652     44651     44654     44661
     44653     44651     44654     44655     44653     44651     44654     44656
     44653     44651     44654     44661     44654     44661     44657     44658
     44654     44661     44657     44659     44654     44661     44657     44660
     44655     44654     44661     44657     44656     44654     44661     44657
     44657     44660     44662     44663     44657     44660     44662     44664
     44657     44660     44662     44665     44658     44657     44660     44662
     44659     44657     44660     44662     44660     44662     44665     44666
     44660     44662     44665     44667     44660     44662     44665     44673
     44661     44657     44660     44662     44662     44665     44667     44668
     44662     44665     44673     44674     44662     44665     44673     44675
     44662     44665     44673     44676     44663     44662     44665     44666
     44663     44662     44665     44667     44663     44662     44665     44673
     44664     44662     44665     44666     44664     44662     44665     44667
     44664     44662     44665     44673     44665     44667     44668     44669
     44665     44667     44668     44670     44665     44673     44676     44677
     44666     44665     44667     44668     44666     44665     44673     44674
     44666     44665     44673     44675     44666     44665     44673     44676
     44667     44665     44673     44674     44667     44665     44673     44675
     44667     44665     44673     44676     44667     44668     44670     44671
     44667     44668     44670     44672     44667     44668     44670     44682
     44668     44667     44665     44673     44668     44670     44682     44683
     44668     44670     44682     44684     44668     44670     44682     44685
     44669     44668     44670     44671     44669     44668     44670     44672
     44669     44668     44670     44682     44670     44682     44685     44686
     44670     44682     44685     44687     44670     44682     44685     44688
     44671     44670     44682     44683     44671     44670     44682     44684
     44671     44670     44682     44685     44672     44670     44682     44683
     44672     44670     44682     44684     44672     44670     44682     44685
     44673     44676     44677     44678     44673     44676     44677     44679
     44674     44673     44676     44677     44675     44673     44676     44677
     44676     44677     44679     44680     44676     44677     44679     44681
     44676     44677     44679     44723     44677     44679     44723     44724
     44677     44679     44723     44725     44677     44679     44723     44726
     44678     44677     44679     44680     44678     44677     44679     44681
     44678     44677     44679     44723     44679     44723     44726     44727
     44679     44723     44726     44728     44679     44723     44726     44729
     44680     44679     44723     44724     44680     44679     44723     44725
     44680     44679     44723     44726     44681     44679     44723     44724
     44681     44679     44723     44725     44681     44679     44723     44726
     44682     44685     44688     44689     44682     44685     44688     44690
     44682     44685     44688     44691     44683     44682     44685     44686
     44683     44682     44685     44687     44683     44682     44685     44688
     44684     44682     44685     44686     44684     44682     44685     44687
     44684     44682     44685     44688     44685     44688     44691     44692
     44685     44688     44691     44693     44685     44688     44691     44694
     44686     44685     44688     44689     44686     44685     44688     44690
     44686     44685     44688     44691     44687     44685     44688     44689
     44687     44685     44688     44690     44687     44685     44688     44691
     44688     44691     44694     44695     44688     44691     44694     44696
     44688     44691     44694     44697     44689     44688     44691     44692
     44689     44688     44691     44693     44689     44688     44691     44694
     44690     44688     44691     44692     44690     44688     44691     44693
     44690     44688     44691     44694     44691     44694     44697     44698
     44691     44694     44697     44699     44691     44694     44697     44700
     44692     44691     44694     44695     44692     44691     44694     44696
     44692     44691     44694     44697     44693     44691     44694     44695
     44693     44691     44694     44696     44693     44691     44694     44697
     44694     44697     44700     44701     44694     44697     44700     44702
     44695     44694     44697     44698     44695     44694     44697     44699
     44695     44694     44697     44700     44696     44694     44697     44698
     44696     44694     44697     44699     44696     44694     44697     44700
     44697     44700     44702     44703     44697     44700     44702     44704
     44698     44697     44700     44701     44698     44697     44700     44702
     44699     44697     44700     44701     44699     44697     44700     44702
     44700     44702     44704     44705     44700     44702     44704     44706
     44700     44702     44704     44707     44701     44700     44702     44703
     44701     44700     44702     44704     44702     44704     44707     44708
     44702     44704     44707     44709     44702     44704     44707     44710
     44703     44702     44704     44705     44703     44702     44704     44706
     44703     44702     44704     44707     44704     44707     44710     44711
     44704     44707     44710     44712     44704     44707     44710     44713
     44705     44704     44707     44708     44705     44704     44707     44709
     44705     44704     44707     44710     44706     44704     44707     44708
     44706     44704     44707     44709     44706     44704     44707     44710
     44707     44710     44713     44714     44707     44710     44713     44715
     44707     44710     44713     44716     44708     44707     44710     44711
     44708     44707     44710     44712     44708     44707     44710     44713
     44709     44707     44710     44711     44709     44707     44710     44712
     44709     44707     44710     44713     44710     44713     44716     44717
     44710     44713     44716     44718     44710     44713     44716     44719
     44711     44710     44713     44714     44711     44710     44713     44715
     44711     44710     44713     44716     44712     44710     44713     44714
     44712     44710     44713     44715     44712     44710     44713     44716
     44713     44716     44719     44720     44713     44716     44719     44721
     44713     44716     44719     44722     44714     44713     44716     44717
     44714     44713     44716     44718     44714     44713     44716     44719
     44715     44713     44716     44717     44715     44713     44716     44718
     44715     44713     44716     44719     44717     44716     44719     44720
     44717     44716     44719     44721     44717     44716     44719     44722
     44718     44716     44719     44720     44718     44716     44719     44721
     44718     44716     44719     44722     44723     44726     44729     44730
     44723     44726     44729     44731     44723     44726     44729     44732
     44724     44723     44726     44727     44724     44723     44726     44728
     44724     44723     44726     44729     44725     44723     44726     44727
     44725     44723     44726     44728     44725     44723     44726     44729
     44726     44729     44732     44733     44726     44729     44732     44734
     44726     44729     44732     44735     44727     44726     44729     44730
     44727     44726     44729     44731     44727     44726     44729     44732
     44728     44726     44729     44730     44728     44726     44729     44731
     44728     44726     44729     44732     44729     44732     44735     44736
     44729     44732     44735     44737     44729     44732     44735     44738
     44730     44729     44732     44733     44730     44729     44732     44734
     44730     44729     44732     44735     44731     44729     44732     44733
     44731     44729     44732     44734     44731     44729     44732     44735
     44732     44735     44738     44739     44732     44735     44738     44740
     44732     44735     44738     44741     44733     44732     44735     44736
     44733     44732     44735     44737     44733     44732     44735     44738
     44734     44732     44735     44736     44734     44732     44735     44737
     44734     44732     44735     44738     44735     44738     44741     44742
     44735     44738     44741     44743     44735     44738     44741     44744
     44736     44735     44738     44739     44736     44735     44738     44740
     44736     44735     44738     44741     44737     44735     44738     44739
     44737     44735     44738     44740     44737     44735     44738     44741
     44738     44741     44744     44745     44738     44741     44744     44746
     44738     44741     44744     44747     44739     44738     44741     44742
     44739     44738     44741     44743     44739     44738     44741     44744
     44740     44738     44741     44742     44740     44738     44741     44743
     44740     44738     44741     44744     44741     44744     44747     44748
     44741     44744     44747     44749     44741     44744     44747     44750
     44742     44741     44744     44745     44742     44741     44744     44746
     44742     44741     44744     44747     44743     44741     44744     44745
     44743     44741     44744     44746     44743     44741     44744     44747
     44744     44747     44750     44751     44744     44747     44750     44752
     44744     44747     44750     44753     44745     44744     44747     44748
     44745     44744     44747     44749     44745     44744     44747     44750
     44746     44744     44747     44748     44746     44744     44747     44749
     44746     44744     44747     44750     44747     44750     44753     44754
     44747     44750     44753     44755     44747     44750     44753     44756
     44748     44747     44750     44751     44748     44747     44750     44752
     44748     44747     44750     44753     44749     44747     44750     44751
     44749     44747     44750     44752     44749     44747     44750     44753
     44750     44753     44756     44757     44750     44753     44756     44758
     44750     44753     44756     44759     44751     44750     44753     44754
     44751     44750     44753     44755     44751     44750     44753     44756
     44752     44750     44753     44754     44752     44750     44753     44755
     44752     44750     44753     44756     44753     44756     44759     44760
     44753     44756     44759     44761     44753     44756     44759     44762
     44754     44753     44756     44757     44754     44753     44756     44758
     44754     44753     44756     44759     44755     44753     44756     44757
     44755     44753     44756     44758     44755     44753     44756     44759
     44756     44759     44762     44763     44756     44759     44762     44764
     44756     44759     44762     44765     44757     44756     44759     44760
     44757     44756     44759     44761     44757     44756     44759     44762
     44758     44756     44759     44760     44758     44756     44759     44761
     44758     44756     44759     44762     44760     44759     44762     44763
     44760     44759     44762     44764     44760     44759     44762     44765
     44761     44759     44762     44763     44761     44759     44762     44764
     44761     44759     44762     44765     44766     44772     44769     44770
     44766     44772     44769     44771     44766     44772     44769     44773
     44766     44777     44779     44780     44766     44777     44781     44782
     44766     44777     44781     44783     44766     44777     44781     44787
     44767     44766     44772     44769     44767     44766     44777     44778
     44767     44766     44777     44779     44767     44766     44777     44781
     44768     44766     44772     44769     44768     44766     44777     44778
     44768     44766     44777     44779     44768     44766     44777     44781
     44769     44772     44766     44777     44769     44773     44774     44775
     44769     44773     44774     44776     44769     44773     44774     44809
     44770     44769     44773     44774     44771     44769     44773     44774
     44772     44766     44777     44778     44772     44766     44777     44779
     44772     44766     44777     44781     44772     44769     44773     44774
     44773     44774     44809     44810     44773     44774     44809     44811
     44773     44774     44809     44817     44774     44809     44811     44812
     44774     44809     44817     44818     44774     44809     44817     44819
     44774     44809     44817     44820     44775     44774     44809     44810
     44775     44774     44809     44811     44775     44774     44809     44817
     44776     44774     44809     44810     44776     44774     44809     44811
     44776     44774     44809     44817     44777     44781     44787     44784
     44778     44777     44779     44780     44778     44777     44781     44782
     44778     44777     44781     44783     44778     44777     44781     44787
     44779     44777     44781     44782     44779     44777     44781     44783
     44779     44777     44781     44787     44780     44779     44777     44781
     44781     44787     44784     44785     44781     44787     44784     44786
     44781     44787     44784     44788     44782     44781     44787     44784
     44783     44781     44787     44784     44784     44788     44789     44790
     44784     44788     44789     44791     44784     44788     44789     44792
     44785     44784     44788     44789     44786     44784     44788     44789
     44787     44784     44788     44789     44788     44789     44792     44793
     44788     44789     44792     44794     44788     44789     44792     44800
     44789     44792     44794     44795     44789     44792     44800     44801
     44789     44792     44800     44802     44789     44792     44800     44803
     44790     44789     44792     44793     44790     44789     44792     44794
     44790     44789     44792     44800     44791     44789     44792     44793
     44791     44789     44792     44794     44791     44789     44792     44800
     44792     44794     44795     44796     44792     44794     44795     44797
     44792     44800     44803     44804     44793     44792     44794     44795
     44793     44792     44800     44801     44793     44792     44800     44802
     44793     44792     44800     44803     44794     44792     44800     44801
     44794     44792     44800     44802     44794     44792     44800     44803
     44794     44795     44797     44798     44794     44795     44797     44799
     44794     44795     44797     44826     44795     44794     44792     44800
     44795     44797     44826     44827     44795     44797     44826     44828
     44795     44797     44826     44829     44796     44795     44797     44798
     44796     44795     44797     44799     44796     44795     44797     44826
     44797     44826     44829     44830     44797     44826     44829     44831
     44797     44826     44829     44832     44798     44797     44826     44827
     44798     44797     44826     44828     44798     44797     44826     44829
     44799     44797     44826     44827     44799     44797     44826     44828
     44799     44797     44826     44829     44800     44803     44804     44805
     44800     44803     44804     44806     44801     44800     44803     44804
     44802     44800     44803     44804     44803     44804     44806     44807
     44803     44804     44806     44808     44803     44804     44806     44873
     44804     44806     44873     44874     44804     44806     44873     44875
     44804     44806     44873     44876     44805     44804     44806     44807
     44805     44804     44806     44808     44805     44804     44806     44873
     44806     44873     44876     44877     44806     44873     44876     44878
     44806     44873     44876     44879     44807     44806     44873     44874
     44807     44806     44873     44875     44807     44806     44873     44876
     44808     44806     44873     44874     44808     44806     44873     44875
     44808     44806     44873     44876     44809     44811     44812     44813
     44809     44811     44812     44814     44809     44817     44820     44821
     44810     44809     44811     44812     44810     44809     44817     44818
     44810     44809     44817     44819     44810     44809     44817     44820
     44811     44809     44817     44818     44811     44809     44817     44819
     44811     44809     44817     44820     44811     44812     44814     44815
     44811     44812     44814     44816     44811     44812     44814     44916
     44812     44811     44809     44817     44812     44814     44916     44917
     44812     44814     44916     44918     44812     44814     44916     44919
     44813     44812     44814     44815     44813     44812     44814     44816
     44813     44812     44814     44916     44814     44916     44919     44920
     44814     44916     44919     44921     44814     44916     44919     44922
     44815     44814     44916     44917     44815     44814     44916     44918
     44815     44814     44916     44919     44816     44814     44916     44917
     44816     44814     44916     44918     44816     44814     44916     44919
     44817     44820     44821     44822     44817     44820     44821     44823
     44818     44817     44820     44821     44819     44817     44820     44821
     44820     44821     44823     44824     44820     44821     44823     44825
     44820     44821     44823     44963     44821     44823     44963     44964
     44821     44823     44963     44965     44821     44823     44963     44966
     44822     44821     44823     44824     44822     44821     44823     44825
     44822     44821     44823     44963     44823     44963     44966     44967
     44823     44963     44966     44968     44823     44963     44966     44969
     44824     44823     44963     44964     44824     44823     44963     44965
     44824     44823     44963     44966     44825     44823     44963     44964
     44825     44823     44963     44965     44825     44823     44963     44966
     44826     44829     44832     44833     44826     44829     44832     44834
     44826     44829     44832     44835     44827     44826     44829     44830
     44827     44826     44829     44831     44827     44826     44829     44832
     44828     44826     44829     44830     44828     44826     44829     44831
     44828     44826     44829     44832     44829     44832     44835     44836
     44829     44832     44835     44837     44829     44832     44835     44838
     44830     44829     44832     44833     44830     44829     44832     44834
     44830     44829     44832     44835     44831     44829     44832     44833
     44831     44829     44832     44834     44831     44829     44832     44835
     44832     44835     44838     44839     44832     44835     44838     44840
     44832     44835     44838     44841     44833     44832     44835     44836
     44833     44832     44835     44837     44833     44832     44835     44838
     44834     44832     44835     44836     44834     44832     44835     44837
     44834     44832     44835     44838     44835     44838     44841     44842
     44835     44838     44841     44843     44835     44838     44841     44844
     44836     44835     44838     44839     44836     44835     44838     44840
     44836     44835     44838     44841     44837     44835     44838     44839
     44837     44835     44838     44840     44837     44835     44838     44841
     44838     44841     44844     44845     44838     44841     44844     44846
     44838     44841     44844     44847     44839     44838     44841     44842
     44839     44838     44841     44843     44839     44838     44841     44844
     44840     44838     44841     44842     44840     44838     44841     44843
     44840     44838     44841     44844     44841     44844     44847     44848
     44841     44844     44847     44849     44841     44844     44847     44850
     44842     44841     44844     44845     44842     44841     44844     44846
     44842     44841     44844     44847     44843     44841     44844     44845
     44843     44841     44844     44846     44843     44841     44844     44847
     44844     44847     44850     44851     44844     44847     44850     44852
     44845     44844     44847     44848     44845     44844     44847     44849
     44845     44844     44847     44850     44846     44844     44847     44848
     44846     44844     44847     44849     44846     44844     44847     44850
     44847     44850     44852     44853     44847     44850     44852     44854
     44848     44847     44850     44851     44848     44847     44850     44852
     44849     44847     44850     44851     44849     44847     44850     44852
     44850     44852     44854     44855     44850     44852     44854     44856
     44850     44852     44854     44857     44851     44850     44852     44853
     44851     44850     44852     44854     44852     44854     44857     44858
     44852     44854     44857     44859     44852     44854     44857     44860
     44853     44852     44854     44855     44853     44852     44854     44856
     44853     44852     44854     44857     44854     44857     44860     44861
     44854     44857     44860     44862     44854     44857     44860     44863
     44855     44854     44857     44858     44855     44854     44857     44859
     44855     44854     44857     44860     44856     44854     44857     44858
     44856     44854     44857     44859     44856     44854     44857     44860
     44857     44860     44863     44864     44857     44860     44863     44865
     44857     44860     44863     44866     44858     44857     44860     44861
     44858     44857     44860     44862     44858     44857     44860     44863
     44859     44857     44860     44861     44859     44857     44860     44862
     44859     44857     44860     44863     44860     44863     44866     44867
     44860     44863     44866     44868     44860     44863     44866     44869
     44861     44860     44863     44864     44861     44860     44863     44865
     44861     44860     44863     44866     44862     44860     44863     44864
     44862     44860     44863     44865     44862     44860     44863     44866
     44863     44866     44869     44870     44863     44866     44869     44871
     44863     44866     44869     44872     44864     44863     44866     44867
     44864     44863     44866     44868     44864     44863     44866     44869
     44865     44863     44866     44867     44865     44863     44866     44868
     44865     44863     44866     44869     44867     44866     44869     44870
     44867     44866     44869     44871     44867     44866     44869     44872
     44868     44866     44869     44870     44868     44866     44869     44871
     44868     44866     44869     44872     44873     44876     44879     44880
     44873     44876     44879     44881     44873     44876     44879     44882
     44874     44873     44876     44877     44874     44873     44876     44878
     44874     44873     44876     44879     44875     44873     44876     44877
     44875     44873     44876     44878     44875     44873     44876     44879
     44876     44879     44882     44883     44876     44879     44882     44884
     44876     44879     44882     44885     44877     44876     44879     44880
     44877     44876     44879     44881     44877     44876     44879     44882
     44878     44876     44879     44880     44878     44876     44879     44881
     44878     44876     44879     44882     44879     44882     44885     44886
     44879     44882     44885     44887     44879     44882     44885     44888
     44880     44879     44882     44883     44880     44879     44882     44884
     44880     44879     44882     44885     44881     44879     44882     44883
     44881     44879     44882     44884     44881     44879     44882     44885
     44882     44885     44888     44889     44882     44885     44888     44890
     44882     44885     44888     44891     44883     44882     44885     44886
     44883     44882     44885     44887     44883     44882     44885     44888
     44884     44882     44885     44886     44884     44882     44885     44887
     44884     44882     44885     44888     44885     44888     44891     44892
     44885     44888     44891     44893     44885     44888     44891     44894
     44886     44885     44888     44889     44886     44885     44888     44890
     44886     44885     44888     44891     44887     44885     44888     44889
     44887     44885     44888     44890     44887     44885     44888     44891
     44888     44891     44894     44895     44888     44891     44894     44896
     44888     44891     44894     44897     44889     44888     44891     44892
     44889     44888     44891     44893     44889     44888     44891     44894
     44890     44888     44891     44892     44890     44888     44891     44893
     44890     44888     44891     44894     44891     44894     44897     44898
     44891     44894     44897     44899     44891     44894     44897     44900
     44892     44891     44894     44895     44892     44891     44894     44896
     44892     44891     44894     44897     44893     44891     44894     44895
     44893     44891     44894     44896     44893     44891     44894     44897
     44894     44897     44900     44901     44894     44897     44900     44902
     44894     44897     44900     44903     44895     44894     44897     44898
     44895     44894     44897     44899     44895     44894     44897     44900
     44896     44894     44897     44898     44896     44894     44897     44899
     44896     44894     44897     44900     44897     44900     44903     44904
     44897     44900     44903     44905     44897     44900     44903     44906
     44898     44897     44900     44901     44898     44897     44900     44902
     44898     44897     44900     44903     44899     44897     44900     44901
     44899     44897     44900     44902     44899     44897     44900     44903
     44900     44903     44906     44907     44900     44903     44906     44908
     44900     44903     44906     44909     44901     44900     44903     44904
     44901     44900     44903     44905     44901     44900     44903     44906
     44902     44900     44903     44904     44902     44900     44903     44905
     44902     44900     44903     44906     44903     44906     44909     44910
     44903     44906     44909     44911     44903     44906     44909     44912
     44904     44903     44906     44907     44904     44903     44906     44908
     44904     44903     44906     44909     44905     44903     44906     44907
     44905     44903     44906     44908     44905     44903     44906     44909
     44906     44909     44912     44913     44906     44909     44912     44914
     44906     44909     44912     44915     44907     44906     44909     44910
     44907     44906     44909     44911     44907     44906     44909     44912
     44908     44906     44909     44910     44908     44906     44909     44911
     44908     44906     44909     44912     44910     44909     44912     44913
     44910     44909     44912     44914     44910     44909     44912     44915
     44911     44909     44912     44913     44911     44909     44912     44914
     44911     44909     44912     44915     44916     44919     44922     44923
     44916     44919     44922     44924     44916     44919     44922     44925
     44917     44916     44919     44920     44917     44916     44919     44921
     44917     44916     44919     44922     44918     44916     44919     44920
     44918     44916     44919     44921     44918     44916     44919     44922
     44919     44922     44925     44926     44919     44922     44925     44927
     44919     44922     44925     44928     44920     44919     44922     44923
     44920     44919     44922     44924     44920     44919     44922     44925
     44921     44919     44922     44923     44921     44919     44922     44924
     44921     44919     44922     44925     44922     44925     44928     44929
     44922     44925     44928     44930     44922     44925     44928     44931
     44923     44922     44925     44926     44923     44922     44925     44927
     44923     44922     44925     44928     44924     44922     44925     44926
     44924     44922     44925     44927     44924     44922     44925     44928
     44925     44928     44931     44932     44925     44928     44931     44933
     44925     44928     44931     44934     44926     44925     44928     44929
     44926     44925     44928     44930     44926     44925     44928     44931
     44927     44925     44928     44929     44927     44925     44928     44930
     44927     44925     44928     44931     44928     44931     44934     44935
     44928     44931     44934     44936     44928     44931     44934     44937
     44929     44928     44931     44932     44929     44928     44931     44933
     44929     44928     44931     44934     44930     44928     44931     44932
     44930     44928     44931     44933     44930     44928     44931     44934
     44931     44934     44937     44938     44931     44934     44937     44939
     44931     44934     44937     44940     44932     44931     44934     44935
     44932     44931     44934     44936     44932     44931     44934     44937
     44933     44931     44934     44935     44933     44931     44934     44936
     44933     44931     44934     44937     44934     44937     44940     44941
     44934     44937     44940     44942     44935     44934     44937     44938
     44935     44934     44937     44939     44935     44934     44937     44940
     44936     44934     44937     44938     44936     44934     44937     44939
     44936     44934     44937     44940     44937     44940     44942     44943
     44937     44940     44942     44944     44938     44937     44940     44941
     44938     44937     44940     44942     44939     44937     44940     44941
     44939     44937     44940     44942     44940     44942     44944     44945
     44940     44942     44944     44946     44940     44942     44944     44947
     44941     44940     44942     44943     44941     44940     44942     44944
     44942     44944     44947     44948     44942     44944     44947     44949
     44942     44944     44947     44950     44943     44942     44944     44945
     44943     44942     44944     44946     44943     44942     44944     44947
     44944     44947     44950     44951     44944     44947     44950     44952
     44944     44947     44950     44953     44945     44944     44947     44948
     44945     44944     44947     44949     44945     44944     44947     44950
     44946     44944     44947     44948     44946     44944     44947     44949
     44946     44944     44947     44950     44947     44950     44953     44954
     44947     44950     44953     44955     44947     44950     44953     44956
     44948     44947     44950     44951     44948     44947     44950     44952
     44948     44947     44950     44953     44949     44947     44950     44951
     44949     44947     44950     44952     44949     44947     44950     44953
     44950     44953     44956     44957     44950     44953     44956     44958
     44950     44953     44956     44959     44951     44950     44953     44954
     44951     44950     44953     44955     44951     44950     44953     44956
     44952     44950     44953     44954     44952     44950     44953     44955
     44952     44950     44953     44956     44953     44956     44959     44960
     44953     44956     44959     44961     44953     44956     44959     44962
     44954     44953     44956     44957     44954     44953     44956     44958
     44954     44953     44956     44959     44955     44953     44956     44957
     44955     44953     44956     44958     44955     44953     44956     44959
     44957     44956     44959     44960     44957     44956     44959     44961
     44957     44956     44959     44962     44958     44956     44959     44960
     44958     44956     44959     44961     44958     44956     44959     44962
     44963     44966     44969     44970     44963     44966     44969     44971
     44963     44966     44969     44972     44964     44963     44966     44967
     44964     44963     44966     44968     44964     44963     44966     44969
     44965     44963     44966     44967     44965     44963     44966     44968
     44965     44963     44966     44969     44966     44969     44972     44973
     44966     44969     44972     44974     44966     44969     44972     44975
     44967     44966     44969     44970     44967     44966     44969     44971
     44967     44966     44969     44972     44968     44966     44969     44970
     44968     44966     44969     44971     44968     44966     44969     44972
     44969     44972     44975     44976     44969     44972     44975     44977
     44969     44972     44975     44978     44970     44969     44972     44973
     44970     44969     44972     44974     44970     44969     44972     44975
     44971     44969     44972     44973     44971     44969     44972     44974
     44971     44969     44972     44975     44972     44975     44978     44979
     44972     44975     44978     44980     44972     44975     44978     44981
     44973     44972     44975     44976     44973     44972     44975     44977
     44973     44972     44975     44978     44974     44972     44975     44976
     44974     44972     44975     44977     44974     44972     44975     44978
     44975     44978     44981     44982     44975     44978     44981     44983
     44975     44978     44981     44984     44976     44975     44978     44979
     44976     44975     44978     44980     44976     44975     44978     44981
     44977     44975     44978     44979     44977     44975     44978     44980
     44977     44975     44978     44981     44978     44981     44984     44985
     44978     44981     44984     44986     44978     44981     44984     44987
     44979     44978     44981     44982     44979     44978     44981     44983
     44979     44978     44981     44984     44980     44978     44981     44982
     44980     44978     44981     44983     44980     44978     44981     44984
     44981     44984     44987     44988     44981     44984     44987     44989
     44981     44984     44987     44990     44982     44981     44984     44985
     44982     44981     44984     44986     44982     44981     44984     44987
     44983     44981     44984     44985     44983     44981     44984     44986
     44983     44981     44984     44987     44984     44987     44990     44991
     44984     44987     44990     44992     44984     44987     44990     44993
     44985     44984     44987     44988     44985     44984     44987     44989
     44985     44984     44987     44990     44986     44984     44987     44988
     44986     44984     44987     44989     44986     44984     44987     44990
     44987     44990     44993     44994     44987     44990     44993     44995
     44987     44990     44993     44996     44988     44987     44990     44991
     44988     44987     44990     44992     44988     44987     44990     44993
     44989     44987     44990     44991     44989     44987     44990     44992
     44989     44987     44990     44993     44990     44993     44996     44997
     44990     44993     44996     44998     44990     44993     44996     44999
     44991     44990     44993     44994     44991     44990     44993     44995
     44991     44990     44993     44996     44992     44990     44993     44994
     44992     44990     44993     44995     44992     44990     44993     44996
     44993     44996     44999     45000     44993     44996     44999     45001
     44993     44996     44999     45002     44994     44993     44996     44997
     44994     44993     44996     44998     44994     44993     44996     44999
     44995     44993     44996     44997     44995     44993     44996     44998
     44995     44993     44996     44999     44996     44999     45002     45003
     44996     44999     45002     45004     44996     44999     45002     45005
     44997     44996     44999     45000     44997     44996     44999     45001
     44997     44996     44999     45002     44998     44996     44999     45000
     44998     44996     44999     45001     44998     44996     44999     45002
     45000     44999     45002     45003     45000     44999     45002     45004
     45000     44999     45002     45005     45001     44999     45002     45003
     45001     44999     45002     45004     45001     44999     45002     45005
     45006     45010     45013     45014     45006     45010     45013     45015
     45006     45010     45013     45020     45007     45006     45010     45011
     45007     45006     45010     45012     45007     45006     45010     45013
     45008     45006     45010     45011     45008     45006     45010     45012
     45008     45006     45010     45013     45009     45006     45010     45011
     45009     45006     45010     45012     45009     45006     45010     45013
     45010     45013     45020     45016     45011     45010     45013     45014
     45011     45010     45013     45015     45011     45010     45013     45020
     45012     45010     45013     45014     45012     45010     45013     45015
     45012     45010     45013     45020     45013     45020     45016     45017
     45013     45020     45016     45018     45013     45020     45016     45019
     45014     45013     45020     45016     45015     45013     45020     45016
     45016     45019     45021     45022     45016     45019     45021     45023
     45016     45019     45021     45024     45017     45016     45019     45021
     45018     45016     45019     45021     45019     45021     45024     45025
     45019     45021     45024     45026     45019     45021     45024     45032
     45020     45016     45019     45021     45021     45024     45026     45027
     45021     45024     45032     45033     45021     45024     45032     45034
     45021     45024     45032     45035     45022     45021     45024     45025
     45022     45021     45024     45026     45022     45021     45024     45032
     45023     45021     45024     45025     45023     45021     45024     45026
     45023     45021     45024     45032     45024     45026     45027     45028
     45024     45026     45027     45029     45024     45032     45035     45036
     45025     45024     45026     45027     45025     45024     45032     45033
     45025     45024     45032     45034     45025     45024     45032     45035
     45026     45024     45032     45033     45026     45024     45032     45034
     45026     45024     45032     45035     45026     45027     45029     45030
     45026     45027     45029     45031     45026     45027     45029     45041
     45027     45026     45024     45032     45027     45029     45041     45042
     45027     45029     45041     45043     45027     45029     45041     45044
     45028     45027     45029     45030     45028     45027     45029     45031
     45028     45027     45029     45041     45029     45041     45044     45045
     45029     45041     45044     45046     45029     45041     45044     45047
     45030     45029     45041     45042     45030     45029     45041     45043
     45030     45029     45041     45044     45031     45029     45041     45042
     45031     45029     45041     45043     45031     45029     45041     45044
     45032     45035     45036     45037     45032     45035     45036     45038
     45033     45032     45035     45036     45034     45032     45035     45036
     45035     45036     45038     45039     45035     45036     45038     45040
     45035     45036     45038     45082     45036     45038     45082     45083
     45036     45038     45082     45084     45036     45038     45082     45085
     45037     45036     45038     45039     45037     45036     45038     45040
     45037     45036     45038     45082     45038     45082     45085     45086
     45038     45082     45085     45087     45038     45082     45085     45088
     45039     45038     45082     45083     45039     45038     45082     45084
     45039     45038     45082     45085     45040     45038     45082     45083
     45040     45038     45082     45084     45040     45038     45082     45085
     45041     45044     45047     45048     45041     45044     45047     45049
     45041     45044     45047     45050     45042     45041     45044     45045
     45042     45041     45044     45046     45042     45041     45044     45047
     45043     45041     45044     45045     45043     45041     45044     45046
     45043     45041     45044     45047     45044     45047     45050     45051
     45044     45047     45050     45052     45044     45047     45050     45053
     45045     45044     45047     45048     45045     45044     45047     45049
     45045     45044     45047     45050     45046     45044     45047     45048
     45046     45044     45047     45049     45046     45044     45047     45050
     45047     45050     45053     45054     45047     45050     45053     45055
     45047     45050     45053     45056     45048     45047     45050     45051
     45048     45047     45050     45052     45048     45047     45050     45053
     45049     45047     45050     45051     45049     45047     45050     45052
     45049     45047     45050     45053     45050     45053     45056     45057
     45050     45053     45056     45058     45050     45053     45056     45059
     45051     45050     45053     45054     45051     45050     45053     45055
     45051     45050     45053     45056     45052     45050     45053     45054
     45052     45050     45053     45055     45052     45050     45053     45056
     45053     45056     45059     45060     45053     45056     45059     45061
     45054     45053     45056     45057     45054     45053     45056     45058
     45054     45053     45056     45059     45055     45053     45056     45057
     45055     45053     45056     45058     45055     45053     45056     45059
     45056     45059     45061     45062     45056     45059     45061     45063
     45057     45056     45059     45060     45057     45056     45059     45061
     45058     45056     45059     45060     45058     45056     45059     45061
     45059     45061     45063     45064     45059     45061     45063     45065
     45059     45061     45063     45066     45060     45059     45061     45062
     45060     45059     45061     45063     45061     45063     45066     45067
     45061     45063     45066     45068     45061     45063     45066     45069
     45062     45061     45063     45064     45062     45061     45063     45065
     45062     45061     45063     45066     45063     45066     45069     45070
     45063     45066     45069     45071     45063     45066     45069     45072
     45064     45063     45066     45067     45064     45063     45066     45068
     45064     45063     45066     45069     45065     45063     45066     45067
     45065     45063     45066     45068     45065     45063     45066     45069
     45066     45069     45072     45073     45066     45069     45072     45074
     45066     45069     45072     45075     45067     45066     45069     45070
     45067     45066     45069     45071     45067     45066     45069     45072
     45068     45066     45069     45070     45068     45066     45069     45071
     45068     45066     45069     45072     45069     45072     45075     45076
     45069     45072     45075     45077     45069     45072     45075     45078
     45070     45069     45072     45073     45070     45069     45072     45074
     45070     45069     45072     45075     45071     45069     45072     45073
     45071     45069     45072     45074     45071     45069     45072     45075
     45072     45075     45078     45079     45072     45075     45078     45080
     45072     45075     45078     45081     45073     45072     45075     45076
     45073     45072     45075     45077     45073     45072     45075     45078
     45074     45072     45075     45076     45074     45072     45075     45077
     45074     45072     45075     45078     45076     45075     45078     45079
     45076     45075     45078     45080     45076     45075     45078     45081
     45077     45075     45078     45079     45077     45075     45078     45080
     45077     45075     45078     45081     45082     45085     45088     45089
     45082     45085     45088     45090     45082     45085     45088     45091
     45083     45082     45085     45086     45083     45082     45085     45087
     45083     45082     45085     45088     45084     45082     45085     45086
     45084     45082     45085     45087     45084     45082     45085     45088
     45085     45088     45091     45092     45085     45088     45091     45093
     45085     45088     45091     45094     45086     45085     45088     45089
     45086     45085     45088     45090     45086     45085     45088     45091
     45087     45085     45088     45089     45087     45085     45088     45090
     45087     45085     45088     45091     45088     45091     45094     45095
     45088     45091     45094     45096     45088     45091     45094     45097
     45089     45088     45091     45092     45089     45088     45091     45093
     45089     45088     45091     45094     45090     45088     45091     45092
     45090     45088     45091     45093     45090     45088     45091     45094
     45091     45094     45097     45098     45091     45094     45097     45099
     45091     45094     45097     45100     45092     45091     45094     45095
     45092     45091     45094     45096     45092     45091     45094     45097
     45093     45091     45094     45095     45093     45091     45094     45096
     45093     45091     45094     45097     45094     45097     45100     45101
     45094     45097     45100     45102     45094     45097     45100     45103
     45095     45094     45097     45098     45095     45094     45097     45099
     45095     45094     45097     45100     45096     45094     45097     45098
     45096     45094     45097     45099     45096     45094     45097     45100
     45097     45100     45103     45104     45097     45100     45103     45105
     45097     45100     45103     45106     45098     45097     45100     45101
     45098     45097     45100     45102     45098     45097     45100     45103
     45099     45097     45100     45101     45099     45097     45100     45102
     45099     45097     45100     45103     45100     45103     45106     45107
     45100     45103     45106     45108     45100     45103     45106     45109
     45101     45100     45103     45104     45101     45100     45103     45105
     45101     45100     45103     45106     45102     45100     45103     45104
     45102     45100     45103     45105     45102     45100     45103     45106
     45103     45106     45109     45110     45103     45106     45109     45111
     45103     45106     45109     45112     45104     45103     45106     45107
     45104     45103     45106     45108     45104     45103     45106     45109
     45105     45103     45106     45107     45105     45103     45106     45108
     45105     45103     45106     45109     45106     45109     45112     45113
     45106     45109     45112     45114     45106     45109     45112     45115
     45107     45106     45109     45110     45107     45106     45109     45111
     45107     45106     45109     45112     45108     45106     45109     45110
     45108     45106     45109     45111     45108     45106     45109     45112
     45109     45112     45115     45116     45109     45112     45115     45117
     45109     45112     45115     45118     45110     45109     45112     45113
     45110     45109     45112     45114     45110     45109     45112     45115
     45111     45109     45112     45113     45111     45109     45112     45114
     45111     45109     45112     45115     45112     45115     45118     45119
     45112     45115     45118     45120     45112     45115     45118     45121
     45113     45112     45115     45116     45113     45112     45115     45117
     45113     45112     45115     45118     45114     45112     45115     45116
     45114     45112     45115     45117     45114     45112     45115     45118
     45115     45118     45121     45122     45115     45118     45121     45123
     45115     45118     45121     45124     45116     45115     45118     45119
     45116     45115     45118     45120     45116     45115     45118     45121
     45117     45115     45118     45119     45117     45115     45118     45120
     45117     45115     45118     45121     45119     45118     45121     45122
     45119     45118     45121     45123     45119     45118     45121     45124
     45120     45118     45121     45122     45120     45118     45121     45123
     45120     45118     45121     45124     45125     45129     45132     45133
     45125     45129     45132     45134     45125     45129     45132     45139
     45126     45125     45129     45130     45126     45125     45129     45131
     45126     45125     45129     45132     45127     45125     45129     45130
     45127     45125     45129     45131     45127     45125     45129     45132
     45128     45125     45129     45130     45128     45125     45129     45131
     45128     45125     45129     45132     45129     45132     45139     45135
     45130     45129     45132     45133     45130     45129     45132     45134
     45130     45129     45132     45139     45131     45129     45132     45133
     45131     45129     45132     45134     45131     45129     45132     45139
     45132     45139     45135     45136     45132     45139     45135     45137
     45132     45139     45135     45138     45133     45132     45139     45135
     45134     45132     45139     45135     45135     45138     45140     45141
     45135     45138     45140     45142     45135     45138     45140     45143
     45136     45135     45138     45140     45137     45135     45138     45140
     45138     45140     45143     45144     45138     45140     45143     45145
     45138     45140     45143     45151     45139     45135     45138     45140
     45140     45143     45145     45146     45140     45143     45151     45152
     45140     45143     45151     45153     45140     45143     45151     45154
     45141     45140     45143     45144     45141     45140     45143     45145
     45141     45140     45143     45151     45142     45140     45143     45144
     45142     45140     45143     45145     45142     45140     45143     45151
     45143     45145     45146     45147     45143     45145     45146     45148
     45143     45151     45154     45155     45144     45143     45145     45146
     45144     45143     45151     45152     45144     45143     45151     45153
     45144     45143     45151     45154     45145     45143     45151     45152
     45145     45143     45151     45153     45145     45143     45151     45154
     45145     45146     45148     45149     45145     45146     45148     45150
     45145     45146     45148     45160     45146     45145     45143     45151
     45146     45148     45160     45161     45146     45148     45160     45162
     45146     45148     45160     45163     45147     45146     45148     45149
     45147     45146     45148     45150     45147     45146     45148     45160
     45148     45160     45163     45164     45148     45160     45163     45165
     45148     45160     45163     45166     45149     45148     45160     45161
     45149     45148     45160     45162     45149     45148     45160     45163
     45150     45148     45160     45161     45150     45148     45160     45162
     45150     45148     45160     45163     45151     45154     45155     45156
     45151     45154     45155     45157     45152     45151     45154     45155
     45153     45151     45154     45155     45154     45155     45157     45158
     45154     45155     45157     45159     45154     45155     45157     45201
     45155     45157     45201     45202     45155     45157     45201     45203
     45155     45157     45201     45204     45156     45155     45157     45158
     45156     45155     45157     45159     45156     45155     45157     45201
     45157     45201     45204     45205     45157     45201     45204     45206
     45157     45201     45204     45207     45158     45157     45201     45202
     45158     45157     45201     45203     45158     45157     45201     45204
     45159     45157     45201     45202     45159     45157     45201     45203
     45159     45157     45201     45204     45160     45163     45166     45167
     45160     45163     45166     45168     45160     45163     45166     45169
     45161     45160     45163     45164     45161     45160     45163     45165
     45161     45160     45163     45166     45162     45160     45163     45164
     45162     45160     45163     45165     45162     45160     45163     45166
     45163     45166     45169     45170     45163     45166     45169     45171
     45163     45166     45169     45172     45164     45163     45166     45167
     45164     45163     45166     45168     45164     45163     45166     45169
     45165     45163     45166     45167     45165     45163     45166     45168
     45165     45163     45166     45169     45166     45169     45172     45173
     45166     45169     45172     45174     45166     45169     45172     45175
     45167     45166     45169     45170     45167     45166     45169     45171
     45167     45166     45169     45172     45168     45166     45169     45170
     45168     45166     45169     45171     45168     45166     45169     45172
     45169     45172     45175     45176     45169     45172     45175     45177
     45169     45172     45175     45178     45170     45169     45172     45173
     45170     45169     45172     45174     45170     45169     45172     45175
     45171     45169     45172     45173     45171     45169     45172     45174
     45171     45169     45172     45175     45172     45175     45178     45179
     45172     45175     45178     45180     45173     45172     45175     45176
     45173     45172     45175     45177     45173     45172     45175     45178
     45174     45172     45175     45176     45174     45172     45175     45177
     45174     45172     45175     45178     45175     45178     45180     45181
     45175     45178     45180     45182     45176     45175     45178     45179
     45176     45175     45178     45180     45177     45175     45178     45179
     45177     45175     45178     45180     45178     45180     45182     45183
     45178     45180     45182     45184     45178     45180     45182     45185
     45179     45178     45180     45181     45179     45178     45180     45182
     45180     45182     45185     45186     45180     45182     45185     45187
     45180     45182     45185     45188     45181     45180     45182     45183
     45181     45180     45182     45184     45181     45180     45182     45185
     45182     45185     45188     45189     45182     45185     45188     45190
     45182     45185     45188     45191     45183     45182     45185     45186
     45183     45182     45185     45187     45183     45182     45185     45188
     45184     45182     45185     45186     45184     45182     45185     45187
     45184     45182     45185     45188     45185     45188     45191     45192
     45185     45188     45191     45193     45185     45188     45191     45194
     45186     45185     45188     45189     45186     45185     45188     45190
     45186     45185     45188     45191     45187     45185     45188     45189
     45187     45185     45188     45190     45187     45185     45188     45191
     45188     45191     45194     45195     45188     45191     45194     45196
     45188     45191     45194     45197     45189     45188     45191     45192
     45189     45188     45191     45193     45189     45188     45191     45194
     45190     45188     45191     45192     45190     45188     45191     45193
     45190     45188     45191     45194     45191     45194     45197     45198
     45191     45194     45197     45199     45191     45194     45197     45200
     45192     45191     45194     45195     45192     45191     45194     45196
     45192     45191     45194     45197     45193     45191     45194     45195
     45193     45191     45194     45196     45193     45191     45194     45197
     45195     45194     45197     45198     45195     45194     45197     45199
     45195     45194     45197     45200     45196     45194     45197     45198
     45196     45194     45197     45199     45196     45194     45197     45200
     45201     45204     45207     45208     45201     45204     45207     45209
     45201     45204     45207     45210     45202     45201     45204     45205
     45202     45201     45204     45206     45202     45201     45204     45207
     45203     45201     45204     45205     45203     45201     45204     45206
     45203     45201     45204     45207     45204     45207     45210     45211
     45204     45207     45210     45212     45204     45207     45210     45213
     45205     45204     45207     45208     45205     45204     45207     45209
     45205     45204     45207     45210     45206     45204     45207     45208
     45206     45204     45207     45209     45206     45204     45207     45210
     45207     45210     45213     45214     45207     45210     45213     45215
     45207     45210     45213     45216     45208     45207     45210     45211
     45208     45207     45210     45212     45208     45207     45210     45213
     45209     45207     45210     45211     45209     45207     45210     45212
     45209     45207     45210     45213     45210     45213     45216     45217
     45210     45213     45216     45218     45210     45213     45216     45219
     45211     45210     45213     45214     45211     45210     45213     45215
     45211     45210     45213     45216     45212     45210     45213     45214
     45212     45210     45213     45215     45212     45210     45213     45216
     45213     45216     45219     45220     45213     45216     45219     45221
     45213     45216     45219     45222     45214     45213     45216     45217
     45214     45213     45216     45218     45214     45213     45216     45219
     45215     45213     45216     45217     45215     45213     45216     45218
     45215     45213     45216     45219     45216     45219     45222     45223
     45216     45219     45222     45224     45216     45219     45222     45225
     45217     45216     45219     45220     45217     45216     45219     45221
     45217     45216     45219     45222     45218     45216     45219     45220
     45218     45216     45219     45221     45218     45216     45219     45222
     45219     45222     45225     45226     45219     45222     45225     45227
     45219     45222     45225     45228     45220     45219     45222     45223
     45220     45219     45222     45224     45220     45219     45222     45225
     45221     45219     45222     45223     45221     45219     45222     45224
     45221     45219     45222     45225     45222     45225     45228     45229
     45222     45225     45228     45230     45222     45225     45228     45231
     45223     45222     45225     45226     45223     45222     45225     45227
     45223     45222     45225     45228     45224     45222     45225     45226
     45224     45222     45225     45227     45224     45222     45225     45228
     45225     45228     45231     45232     45225     45228     45231     45233
     45225     45228     45231     45234     45226     45225     45228     45229
     45226     45225     45228     45230     45226     45225     45228     45231
     45227     45225     45228     45229     45227     45225     45228     45230
     45227     45225     45228     45231     45228     45231     45234     45235
     45228     45231     45234     45236     45228     45231     45234     45237
     45229     45228     45231     45232     45229     45228     45231     45233
     45229     45228     45231     45234     45230     45228     45231     45232
     45230     45228     45231     45233     45230     45228     45231     45234
     45231     45234     45237     45238     45231     45234     45237     45239
     45231     45234     45237     45240     45232     45231     45234     45235
     45232     45231     45234     45236     45232     45231     45234     45237
     45233     45231     45234     45235     45233     45231     45234     45236
     45233     45231     45234     45237     45234     45237     45240     45241
     45234     45237     45240     45242     45234     45237     45240     45243
     45235     45234     45237     45238     45235     45234     45237     45239
     45235     45234     45237     45240     45236     45234     45237     45238
     45236     45234     45237     45239     45236     45234     45237     45240
     45238     45237     45240     45241     45238     45237     45240     45242
     45238     45237     45240     45243     45239     45237     45240     45241
     45239     45237     45240     45242     45239     45237     45240     45243
     45244     45248     45251     45252     45244     45248     45251     45253
     45244     45248     45251     45258     45245     45244     45248     45249
     45245     45244     45248     45250     45245     45244     45248     45251
     45246     45244     45248     45249     45246     45244     45248     45250
     45246     45244     45248     45251     45247     45244     45248     45249
     45247     45244     45248     45250     45247     45244     45248     45251
     45248     45251     45258     45254     45249     45248     45251     45252
     45249     45248     45251     45253     45249     45248     45251     45258
     45250     45248     45251     45252     45250     45248     45251     45253
     45250     45248     45251     45258     45251     45258     45254     45255
     45251     45258     45254     45256     45251     45258     45254     45257
     45252     45251     45258     45254     45253     45251     45258     45254
     45254     45257     45259     45260     45254     45257     45259     45261
     45254     45257     45259     45262     45255     45254     45257     45259
     45256     45254     45257     45259     45257     45259     45262     45263
     45257     45259     45262     45264     45257     45259     45262     45270
     45258     45254     45257     45259     45259     45262     45264     45265
     45259     45262     45270     45271     45259     45262     45270     45272
     45259     45262     45270     45273     45260     45259     45262     45263
     45260     45259     45262     45264     45260     45259     45262     45270
     45261     45259     45262     45263     45261     45259     45262     45264
     45261     45259     45262     45270     45262     45264     45265     45266
     45262     45264     45265     45267     45262     45270     45273     45274
     45263     45262     45264     45265     45263     45262     45270     45271
     45263     45262     45270     45272     45263     45262     45270     45273
     45264     45262     45270     45271     45264     45262     45270     45272
     45264     45262     45270     45273     45264     45265     45267     45268
     45264     45265     45267     45269     45264     45265     45267     45279
     45265     45264     45262     45270     45265     45267     45279     45280
     45265     45267     45279     45281     45265     45267     45279     45282
     45266     45265     45267     45268     45266     45265     45267     45269
     45266     45265     45267     45279     45267     45279     45282     45283
     45267     45279     45282     45284     45267     45279     45282     45285
     45268     45267     45279     45280     45268     45267     45279     45281
     45268     45267     45279     45282     45269     45267     45279     45280
     45269     45267     45279     45281     45269     45267     45279     45282
     45270     45273     45274     45275     45270     45273     45274     45276
     45271     45270     45273     45274     45272     45270     45273     45274
     45273     45274     45276     45277     45273     45274     45276     45278
     45273     45274     45276     45320     45274     45276     45320     45321
     45274     45276     45320     45322     45274     45276     45320     45323
     45275     45274     45276     45277     45275     45274     45276     45278
     45275     45274     45276     45320     45276     45320     45323     45324
     45276     45320     45323     45325     45276     45320     45323     45326
     45277     45276     45320     45321     45277     45276     45320     45322
     45277     45276     45320     45323     45278     45276     45320     45321
     45278     45276     45320     45322     45278     45276     45320     45323
     45279     45282     45285     45286     45279     45282     45285     45287
     45279     45282     45285     45288     45280     45279     45282     45283
     45280     45279     45282     45284     45280     45279     45282     45285
     45281     45279     45282     45283     45281     45279     45282     45284
     45281     45279     45282     45285     45282     45285     45288     45289
     45282     45285     45288     45290     45282     45285     45288     45291
     45283     45282     45285     45286     45283     45282     45285     45287
     45283     45282     45285     45288     45284     45282     45285     45286
     45284     45282     45285     45287     45284     45282     45285     45288
     45285     45288     45291     45292     45285     45288     45291     45293
     45285     45288     45291     45294     45286     45285     45288     45289
     45286     45285     45288     45290     45286     45285     45288     45291
     45287     45285     45288     45289     45287     45285     45288     45290
     45287     45285     45288     45291     45288     45291     45294     45295
     45288     45291     45294     45296     45288     45291     45294     45297
     45289     45288     45291     45292     45289     45288     45291     45293
     45289     45288     45291     45294     45290     45288     45291     45292
     45290     45288     45291     45293     45290     45288     45291     45294
     45291     45294     45297     45298     45291     45294     45297     45299
     45292     45291     45294     45295     45292     45291     45294     45296
     45292     45291     45294     45297     45293     45291     45294     45295
     45293     45291     45294     45296     45293     45291     45294     45297
     45294     45297     45299     45300     45294     45297     45299     45301
     45295     45294     45297     45298     45295     45294     45297     45299
     45296     45294     45297     45298     45296     45294     45297     45299
     45297     45299     45301     45302     45297     45299     45301     45303
     45297     45299     45301     45304     45298     45297     45299     45300
     45298     45297     45299     45301     45299     45301     45304     45305
     45299     45301     45304     45306     45299     45301     45304     45307
     45300     45299     45301     45302     45300     45299     45301     45303
     45300     45299     45301     45304     45301     45304     45307     45308
     45301     45304     45307     45309     45301     45304     45307     45310
     45302     45301     45304     45305     45302     45301     45304     45306
     45302     45301     45304     45307     45303     45301     45304     45305
     45303     45301     45304     45306     45303     45301     45304     45307
     45304     45307     45310     45311     45304     45307     45310     45312
     45304     45307     45310     45313     45305     45304     45307     45308
     45305     45304     45307     45309     45305     45304     45307     45310
     45306     45304     45307     45308     45306     45304     45307     45309
     45306     45304     45307     45310     45307     45310     45313     45314
     45307     45310     45313     45315     45307     45310     45313     45316
     45308     45307     45310     45311     45308     45307     45310     45312
     45308     45307     45310     45313     45309     45307     45310     45311
     45309     45307     45310     45312     45309     45307     45310     45313
     45310     45313     45316     45317     45310     45313     45316     45318
     45310     45313     45316     45319     45311     45310     45313     45314
     45311     45310     45313     45315     45311     45310     45313     45316
     45312     45310     45313     45314     45312     45310     45313     45315
     45312     45310     45313     45316     45314     45313     45316     45317
     45314     45313     45316     45318     45314     45313     45316     45319
     45315     45313     45316     45317     45315     45313     45316     45318
     45315     45313     45316     45319     45320     45323     45326     45327
     45320     45323     45326     45328     45320     45323     45326     45329
     45321     45320     45323     45324     45321     45320     45323     45325
     45321     45320     45323     45326     45322     45320     45323     45324
     45322     45320     45323     45325     45322     45320     45323     45326
     45323     45326     45329     45330     45323     45326     45329     45331
     45323     45326     45329     45332     45324     45323     45326     45327
     45324     45323     45326     45328     45324     45323     45326     45329
     45325     45323     45326     45327     45325     45323     45326     45328
     45325     45323     45326     45329     45326     45329     45332     45333
     45326     45329     45332     45334     45326     45329     45332     45335
     45327     45326     45329     45330     45327     45326     45329     45331
     45327     45326     45329     45332     45328     45326     45329     45330
     45328     45326     45329     45331     45328     45326     45329     45332
     45329     45332     45335     45336     45329     45332     45335     45337
     45329     45332     45335     45338     45330     45329     45332     45333
     45330     45329     45332     45334     45330     45329     45332     45335
     45331     45329     45332     45333     45331     45329     45332     45334
     45331     45329     45332     45335     45332     45335     45338     45339
     45332     45335     45338     45340     45332     45335     45338     45341
     45333     45332     45335     45336     45333     45332     45335     45337
     45333     45332     45335     45338     45334     45332     45335     45336
     45334     45332     45335     45337     45334     45332     45335     45338
     45335     45338     45341     45342     45335     45338     45341     45343
     45335     45338     45341     45344     45336     45335     45338     45339
     45336     45335     45338     45340     45336     45335     45338     45341
     45337     45335     45338     45339     45337     45335     45338     45340
     45337     45335     45338     45341     45338     45341     45344     45345
     45338     45341     45344     45346     45338     45341     45344     45347
     45339     45338     45341     45342     45339     45338     45341     45343
     45339     45338     45341     45344     45340     45338     45341     45342
     45340     45338     45341     45343     45340     45338     45341     45344
     45341     45344     45347     45348     45341     45344     45347     45349
     45341     45344     45347     45350     45342     45341     45344     45345
     45342     45341     45344     45346     45342     45341     45344     45347
     45343     45341     45344     45345     45343     45341     45344     45346
     45343     45341     45344     45347     45344     45347     45350     45351
     45344     45347     45350     45352     45344     45347     45350     45353
     45345     45344     45347     45348     45345     45344     45347     45349
     45345     45344     45347     45350     45346     45344     45347     45348
     45346     45344     45347     45349     45346     45344     45347     45350
     45347     45350     45353     45354     45347     45350     45353     45355
     45347     45350     45353     45356     45348     45347     45350     45351
     45348     45347     45350     45352     45348     45347     45350     45353
     45349     45347     45350     45351     45349     45347     45350     45352
     45349     45347     45350     45353     45350     45353     45356     45357
     45350     45353     45356     45358     45350     45353     45356     45359
     45351     45350     45353     45354     45351     45350     45353     45355
     45351     45350     45353     45356     45352     45350     45353     45354
     45352     45350     45353     45355     45352     45350     45353     45356
     45353     45356     45359     45360     45353     45356     45359     45361
     45353     45356     45359     45362     45354     45353     45356     45357
     45354     45353     45356     45358     45354     45353     45356     45359
     45355     45353     45356     45357     45355     45353     45356     45358
     45355     45353     45356     45359     45357     45356     45359     45360
     45357     45356     45359     45361     45357     45356     45359     45362
     45358     45356     45359     45360     45358     45356     45359     45361
     45358     45356     45359     45362     45363     45367     45370     45371
     45363     45367     45370     45372     45363     45367     45370     45377
     45364     45363     45367     45368     45364     45363     45367     45369
     45364     45363     45367     45370     45365     45363     45367     45368
     45365     45363     45367     45369     45365     45363     45367     45370
     45366     45363     45367     45368     45366     45363     45367     45369
     45366     45363     45367     45370     45367     45370     45377     45373
     45368     45367     45370     45371     45368     45367     45370     45372
     45368     45367     45370     45377     45369     45367     45370     45371
     45369     45367     45370     45372     45369     45367     45370     45377
     45370     45377     45373     45374     45370     45377     45373     45375
     45370     45377     45373     45376     45371     45370     45377     45373
     45372     45370     45377     45373     45373     45376     45378     45379
     45373     45376     45378     45380     45373     45376     45378     45381
     45374     45373     45376     45378     45375     45373     45376     45378
     45376     45378     45381     45382     45376     45378     45381     45383
     45376     45378     45381     45389     45377     45373     45376     45378
     45378     45381     45383     45384     45378     45381     45389     45390
     45378     45381     45389     45391     45378     45381     45389     45392
     45379     45378     45381     45382     45379     45378     45381     45383
     45379     45378     45381     45389     45380     45378     45381     45382
     45380     45378     45381     45383     45380     45378     45381     45389
     45381     45383     45384     45385     45381     45383     45384     45386
     45381     45389     45392     45393     45382     45381     45383     45384
     45382     45381     45389     45390     45382     45381     45389     45391
     45382     45381     45389     45392     45383     45381     45389     45390
     45383     45381     45389     45391     45383     45381     45389     45392
     45383     45384     45386     45387     45383     45384     45386     45388
     45383     45384     45386     45398     45384     45383     45381     45389
     45384     45386     45398     45399     45384     45386     45398     45400
     45384     45386     45398     45401     45385     45384     45386     45387
     45385     45384     45386     45388     45385     45384     45386     45398
     45386     45398     45401     45402     45386     45398     45401     45403
     45386     45398     45401     45404     45387     45386     45398     45399
     45387     45386     45398     45400     45387     45386     45398     45401
     45388     45386     45398     45399     45388     45386     45398     45400
     45388     45386     45398     45401     45389     45392     45393     45394
     45389     45392     45393     45395     45390     45389     45392     45393
     45391     45389     45392     45393     45392     45393     45395     45396
     45392     45393     45395     45397     45392     45393     45395     45439
     45393     45395     45439     45440     45393     45395     45439     45441
     45393     45395     45439     45442     45394     45393     45395     45396
     45394     45393     45395     45397     45394     45393     45395     45439
     45395     45439     45442     45443     45395     45439     45442     45444
     45395     45439     45442     45445     45396     45395     45439     45440
     45396     45395     45439     45441     45396     45395     45439     45442
     45397     45395     45439     45440     45397     45395     45439     45441
     45397     45395     45439     45442     45398     45401     45404     45405
     45398     45401     45404     45406     45398     45401     45404     45407
     45399     45398     45401     45402     45399     45398     45401     45403
     45399     45398     45401     45404     45400     45398     45401     45402
     45400     45398     45401     45403     45400     45398     45401     45404
     45401     45404     45407     45408     45401     45404     45407     45409
     45401     45404     45407     45410     45402     45401     45404     45405
     45402     45401     45404     45406     45402     45401     45404     45407
     45403     45401     45404     45405     45403     45401     45404     45406
     45403     45401     45404     45407     45404     45407     45410     45411
     45404     45407     45410     45412     45404     45407     45410     45413
     45405     45404     45407     45408     45405     45404     45407     45409
     45405     45404     45407     45410     45406     45404     45407     45408
     45406     45404     45407     45409     45406     45404     45407     45410
     45407     45410     45413     45414     45407     45410     45413     45415
     45407     45410     45413     45416     45408     45407     45410     45411
     45408     45407     45410     45412     45408     45407     45410     45413
     45409     45407     45410     45411     45409     45407     45410     45412
     45409     45407     45410     45413     45410     45413     45416     45417
     45410     45413     45416     45418     45411     45410     45413     45414
     45411     45410     45413     45415     45411     45410     45413     45416
     45412     45410     45413     45414     45412     45410     45413     45415
     45412     45410     45413     45416     45413     45416     45418     45419
     45413     45416     45418     45420     45414     45413     45416     45417
     45414     45413     45416     45418     45415     45413     45416     45417
     45415     45413     45416     45418     45416     45418     45420     45421
     45416     45418     45420     45422     45416     45418     45420     45423
     45417     45416     45418     45419     45417     45416     45418     45420
     45418     45420     45423     45424     45418     45420     45423     45425
     45418     45420     45423     45426     45419     45418     45420     45421
     45419     45418     45420     45422     45419     45418     45420     45423
     45420     45423     45426     45427     45420     45423     45426     45428
     45420     45423     45426     45429     45421     45420     45423     45424
     45421     45420     45423     45425     45421     45420     45423     45426
     45422     45420     45423     45424     45422     45420     45423     45425
     45422     45420     45423     45426     45423     45426     45429     45430
     45423     45426     45429     45431     45423     45426     45429     45432
     45424     45423     45426     45427     45424     45423     45426     45428
     45424     45423     45426     45429     45425     45423     45426     45427
     45425     45423     45426     45428     45425     45423     45426     45429
     45426     45429     45432     45433     45426     45429     45432     45434
     45426     45429     45432     45435     45427     45426     45429     45430
     45427     45426     45429     45431     45427     45426     45429     45432
     45428     45426     45429     45430     45428     45426     45429     45431
     45428     45426     45429     45432     45429     45432     45435     45436
     45429     45432     45435     45437     45429     45432     45435     45438
     45430     45429     45432     45433     45430     45429     45432     45434
     45430     45429     45432     45435     45431     45429     45432     45433
     45431     45429     45432     45434     45431     45429     45432     45435
     45433     45432     45435     45436     45433     45432     45435     45437
     45433     45432     45435     45438     45434     45432     45435     45436
     45434     45432     45435     45437     45434     45432     45435     45438
     45439     45442     45445     45446     45439     45442     45445     45447
     45439     45442     45445     45448     45440     45439     45442     45443
     45440     45439     45442     45444     45440     45439     45442     45445
     45441     45439     45442     45443     45441     45439     45442     45444
     45441     45439     45442     45445     45442     45445     45448     45449
     45442     45445     45448     45450     45442     45445     45448     45451
     45443     45442     45445     45446     45443     45442     45445     45447
     45443     45442     45445     45448     45444     45442     45445     45446
     45444     45442     45445     45447     45444     45442     45445     45448
     45445     45448     45451     45452     45445     45448     45451     45453
     45445     45448     45451     45454     45446     45445     45448     45449
     45446     45445     45448     45450     45446     45445     45448     45451
     45447     45445     45448     45449     45447     45445     45448     45450
     45447     45445     45448     45451     45448     45451     45454     45455
     45448     45451     45454     45456     45448     45451     45454     45457
     45449     45448     45451     45452     45449     45448     45451     45453
     45449     45448     45451     45454     45450     45448     45451     45452
     45450     45448     45451     45453     45450     45448     45451     45454
     45451     45454     45457     45458     45451     45454     45457     45459
     45451     45454     45457     45460     45452     45451     45454     45455
     45452     45451     45454     45456     45452     45451     45454     45457
     45453     45451     45454     45455     45453     45451     45454     45456
     45453     45451     45454     45457     45454     45457     45460     45461
     45454     45457     45460     45462     45454     45457     45460     45463
     45455     45454     45457     45458     45455     45454     45457     45459
     45455     45454     45457     45460     45456     45454     45457     45458
     45456     45454     45457     45459     45456     45454     45457     45460
     45457     45460     45463     45464     45457     45460     45463     45465
     45457     45460     45463     45466     45458     45457     45460     45461
     45458     45457     45460     45462     45458     45457     45460     45463
     45459     45457     45460     45461     45459     45457     45460     45462
     45459     45457     45460     45463     45460     45463     45466     45467
     45460     45463     45466     45468     45460     45463     45466     45469
     45461     45460     45463     45464     45461     45460     45463     45465
     45461     45460     45463     45466     45462     45460     45463     45464
     45462     45460     45463     45465     45462     45460     45463     45466
     45463     45466     45469     45470     45463     45466     45469     45471
     45463     45466     45469     45472     45464     45463     45466     45467
     45464     45463     45466     45468     45464     45463     45466     45469
     45465     45463     45466     45467     45465     45463     45466     45468
     45465     45463     45466     45469     45466     45469     45472     45473
     45466     45469     45472     45474     45466     45469     45472     45475
     45467     45466     45469     45470     45467     45466     45469     45471
     45467     45466     45469     45472     45468     45466     45469     45470
     45468     45466     45469     45471     45468     45466     45469     45472
     45469     45472     45475     45476     45469     45472     45475     45477
     45469     45472     45475     45478     45470     45469     45472     45473
     45470     45469     45472     45474     45470     45469     45472     45475
     45471     45469     45472     45473     45471     45469     45472     45474
     45471     45469     45472     45475     45472     45475     45478     45479
     45472     45475     45478     45480     45472     45475     45478     45481
     45473     45472     45475     45476     45473     45472     45475     45477
     45473     45472     45475     45478     45474     45472     45475     45476
     45474     45472     45475     45477     45474     45472     45475     45478
     45476     45475     45478     45479     45476     45475     45478     45480
     45476     45475     45478     45481     45477     45475     45478     45479
     45477     45475     45478     45480     45477     45475     45478     45481
     45482     45486     45489     45490     45482     45486     45489     45491
     45482     45486     45489     45496     45483     45482     45486     45487
     45483     45482     45486     45488     45483     45482     45486     45489
     45484     45482     45486     45487     45484     45482     45486     45488
     45484     45482     45486     45489     45485     45482     45486     45487
     45485     45482     45486     45488     45485     45482     45486     45489
     45486     45489     45496     45492     45487     45486     45489     45490
     45487     45486     45489     45491     45487     45486     45489     45496
     45488     45486     45489     45490     45488     45486     45489     45491
     45488     45486     45489     45496     45489     45496     45492     45493
     45489     45496     45492     45494     45489     45496     45492     45495
     45490     45489     45496     45492     45491     45489     45496     45492
     45492     45495     45497     45498     45492     45495     45497     45499
     45492     45495     45497     45500     45493     45492     45495     45497
     45494     45492     45495     45497     45495     45497     45500     45501
     45495     45497     45500     45502     45495     45497     45500     45508
     45496     45492     45495     45497     45497     45500     45502     45503
     45497     45500     45508     45509     45497     45500     45508     45510
     45497     45500     45508     45511     45498     45497     45500     45501
     45498     45497     45500     45502     45498     45497     45500     45508
     45499     45497     45500     45501     45499     45497     45500     45502
     45499     45497     45500     45508     45500     45502     45503     45504
     45500     45502     45503     45505     45500     45508     45511     45512
     45501     45500     45502     45503     45501     45500     45508     45509
     45501     45500     45508     45510     45501     45500     45508     45511
     45502     45500     45508     45509     45502     45500     45508     45510
     45502     45500     45508     45511     45502     45503     45505     45506
     45502     45503     45505     45507     45502     45503     45505     45517
     45503     45502     45500     45508     45503     45505     45517     45518
     45503     45505     45517     45519     45503     45505     45517     45520
     45504     45503     45505     45506     45504     45503     45505     45507
     45504     45503     45505     45517     45505     45517     45520     45521
     45505     45517     45520     45522     45505     45517     45520     45523
     45506     45505     45517     45518     45506     45505     45517     45519
     45506     45505     45517     45520     45507     45505     45517     45518
     45507     45505     45517     45519     45507     45505     45517     45520
     45508     45511     45512     45513     45508     45511     45512     45514
     45509     45508     45511     45512     45510     45508     45511     45512
     45511     45512     45514     45515     45511     45512     45514     45516
     45511     45512     45514     45558     45512     45514     45558     45559
     45512     45514     45558     45560     45512     45514     45558     45561
     45513     45512     45514     45515     45513     45512     45514     45516
     45513     45512     45514     45558     45514     45558     45561     45562
     45514     45558     45561     45563     45514     45558     45561     45564
     45515     45514     45558     45559     45515     45514     45558     45560
     45515     45514     45558     45561     45516     45514     45558     45559
     45516     45514     45558     45560     45516     45514     45558     45561
     45517     45520     45523     45524     45517     45520     45523     45525
     45517     45520     45523     45526     45518     45517     45520     45521
     45518     45517     45520     45522     45518     45517     45520     45523
     45519     45517     45520     45521     45519     45517     45520     45522
     45519     45517     45520     45523     45520     45523     45526     45527
     45520     45523     45526     45528     45520     45523     45526     45529
     45521     45520     45523     45524     45521     45520     45523     45525
     45521     45520     45523     45526     45522     45520     45523     45524
     45522     45520     45523     45525     45522     45520     45523     45526
     45523     45526     45529     45530     45523     45526     45529     45531
     45523     45526     45529     45532     45524     45523     45526     45527
     45524     45523     45526     45528     45524     45523     45526     45529
     45525     45523     45526     45527     45525     45523     45526     45528
     45525     45523     45526     45529     45526     45529     45532     45533
     45526     45529     45532     45534     45526     45529     45532     45535
     45527     45526     45529     45530     45527     45526     45529     45531
     45527     45526     45529     45532     45528     45526     45529     45530
     45528     45526     45529     45531     45528     45526     45529     45532
     45529     45532     45535     45536     45529     45532     45535     45537
     45530     45529     45532     45533     45530     45529     45532     45534
     45530     45529     45532     45535     45531     45529     45532     45533
     45531     45529     45532     45534     45531     45529     45532     45535
     45532     45535     45537     45538     45532     45535     45537     45539
     45533     45532     45535     45536     45533     45532     45535     45537
     45534     45532     45535     45536     45534     45532     45535     45537
     45535     45537     45539     45540     45535     45537     45539     45541
     45535     45537     45539     45542     45536     45535     45537     45538
     45536     45535     45537     45539     45537     45539     45542     45543
     45537     45539     45542     45544     45537     45539     45542     45545
     45538     45537     45539     45540     45538     45537     45539     45541
     45538     45537     45539     45542     45539     45542     45545     45546
     45539     45542     45545     45547     45539     45542     45545     45548
     45540     45539     45542     45543     45540     45539     45542     45544
     45540     45539     45542     45545     45541     45539     45542     45543
     45541     45539     45542     45544     45541     45539     45542     45545
     45542     45545     45548     45549     45542     45545     45548     45550
     45542     45545     45548     45551     45543     45542     45545     45546
     45543     45542     45545     45547     45543     45542     45545     45548
     45544     45542     45545     45546     45544     45542     45545     45547
     45544     45542     45545     45548     45545     45548     45551     45552
     45545     45548     45551     45553     45545     45548     45551     45554
     45546     45545     45548     45549     45546     45545     45548     45550
     45546     45545     45548     45551     45547     45545     45548     45549
     45547     45545     45548     45550     45547     45545     45548     45551
     45548     45551     45554     45555     45548     45551     45554     45556
     45548     45551     45554     45557     45549     45548     45551     45552
     45549     45548     45551     45553     45549     45548     45551     45554
     45550     45548     45551     45552     45550     45548     45551     45553
     45550     45548     45551     45554     45552     45551     45554     45555
     45552     45551     45554     45556     45552     45551     45554     45557
     45553     45551     45554     45555     45553     45551     45554     45556
     45553     45551     45554     45557     45558     45561     45564     45565
     45558     45561     45564     45566     45558     45561     45564     45567
     45559     45558     45561     45562     45559     45558     45561     45563
     45559     45558     45561     45564     45560     45558     45561     45562
     45560     45558     45561     45563     45560     45558     45561     45564
     45561     45564     45567     45568     45561     45564     45567     45569
     45561     45564     45567     45570     45562     45561     45564     45565
     45562     45561     45564     45566     45562     45561     45564     45567
     45563     45561     45564     45565     45563     45561     45564     45566
     45563     45561     45564     45567     45564     45567     45570     45571
     45564     45567     45570     45572     45564     45567     45570     45573
     45565     45564     45567     45568     45565     45564     45567     45569
     45565     45564     45567     45570     45566     45564     45567     45568
     45566     45564     45567     45569     45566     45564     45567     45570
     45567     45570     45573     45574     45567     45570     45573     45575
     45567     45570     45573     45576     45568     45567     45570     45571
     45568     45567     45570     45572     45568     45567     45570     45573
     45569     45567     45570     45571     45569     45567     45570     45572
     45569     45567     45570     45573     45570     45573     45576     45577
     45570     45573     45576     45578     45570     45573     45576     45579
     45571     45570     45573     45574     45571     45570     45573     45575
     45571     45570     45573     45576     45572     45570     45573     45574
     45572     45570     45573     45575     45572     45570     45573     45576
     45573     45576     45579     45580     45573     45576     45579     45581
     45573     45576     45579     45582     45574     45573     45576     45577
     45574     45573     45576     45578     45574     45573     45576     45579
     45575     45573     45576     45577     45575     45573     45576     45578
     45575     45573     45576     45579     45576     45579     45582     45583
     45576     45579     45582     45584     45576     45579     45582     45585
     45577     45576     45579     45580     45577     45576     45579     45581
     45577     45576     45579     45582     45578     45576     45579     45580
     45578     45576     45579     45581     45578     45576     45579     45582
     45579     45582     45585     45586     45579     45582     45585     45587
     45579     45582     45585     45588     45580     45579     45582     45583
     45580     45579     45582     45584     45580     45579     45582     45585
     45581     45579     45582     45583     45581     45579     45582     45584
     45581     45579     45582     45585     45582     45585     45588     45589
     45582     45585     45588     45590     45582     45585     45588     45591
     45583     45582     45585     45586     45583     45582     45585     45587
     45583     45582     45585     45588     45584     45582     45585     45586
     45584     45582     45585     45587     45584     45582     45585     45588
     45585     45588     45591     45592     45585     45588     45591     45593
     45585     45588     45591     45594     45586     45585     45588     45589
     45586     45585     45588     45590     45586     45585     45588     45591
     45587     45585     45588     45589     45587     45585     45588     45590
     45587     45585     45588     45591     45588     45591     45594     45595
     45588     45591     45594     45596     45588     45591     45594     45597
     45589     45588     45591     45592     45589     45588     45591     45593
     45589     45588     45591     45594     45590     45588     45591     45592
     45590     45588     45591     45593     45590     45588     45591     45594
     45591     45594     45597     45598     45591     45594     45597     45599
     45591     45594     45597     45600     45592     45591     45594     45595
     45592     45591     45594     45596     45592     45591     45594     45597
     45593     45591     45594     45595     45593     45591     45594     45596
     45593     45591     45594     45597     45595     45594     45597     45598
     45595     45594     45597     45599     45595     45594     45597     45600
     45596     45594     45597     45598     45596     45594     45597     45599
     45596     45594     45597     45600     45601     45605     45608     45609
     45601     45605     45608     45610     45601     45605     45608     45615
     45602     45601     45605     45606     45602     45601     45605     45607
     45602     45601     45605     45608     45603     45601     45605     45606
     45603     45601     45605     45607     45603     45601     45605     45608
     45604     45601     45605     45606     45604     45601     45605     45607
     45604     45601     45605     45608     45605     45608     45615     45611
     45606     45605     45608     45609     45606     45605     45608     45610
     45606     45605     45608     45615     45607     45605     45608     45609
     45607     45605     45608     45610     45607     45605     45608     45615
     45608     45615     45611     45612     45608     45615     45611     45613
     45608     45615     45611     45614     45609     45608     45615     45611
     45610     45608     45615     45611     45611     45614     45616     45617
     45611     45614     45616     45618     45611     45614     45616     45619
     45612     45611     45614     45616     45613     45611     45614     45616
     45614     45616     45619     45620     45614     45616     45619     45621
     45614     45616     45619     45627     45615     45611     45614     45616
     45616     45619     45621     45622     45616     45619     45627     45628
     45616     45619     45627     45629     45616     45619     45627     45630
     45617     45616     45619     45620     45617     45616     45619     45621
     45617     45616     45619     45627     45618     45616     45619     45620
     45618     45616     45619     45621     45618     45616     45619     45627
     45619     45621     45622     45623     45619     45621     45622     45624
     45619     45627     45630     45631     45620     45619     45621     45622
     45620     45619     45627     45628     45620     45619     45627     45629
     45620     45619     45627     45630     45621     45619     45627     45628
     45621     45619     45627     45629     45621     45619     45627     45630
     45621     45622     45624     45625     45621     45622     45624     45626
     45621     45622     45624     45636     45622     45621     45619     45627
     45622     45624     45636     45637     45622     45624     45636     45638
     45622     45624     45636     45639     45623     45622     45624     45625
     45623     45622     45624     45626     45623     45622     45624     45636
     45624     45636     45639     45640     45624     45636     45639     45641
     45624     45636     45639     45642     45625     45624     45636     45637
     45625     45624     45636     45638     45625     45624     45636     45639
     45626     45624     45636     45637     45626     45624     45636     45638
     45626     45624     45636     45639     45627     45630     45631     45632
     45627     45630     45631     45633     45628     45627     45630     45631
     45629     45627     45630     45631     45630     45631     45633     45634
     45630     45631     45633     45635     45630     45631     45633     45677
     45631     45633     45677     45678     45631     45633     45677     45679
     45631     45633     45677     45680     45632     45631     45633     45634
     45632     45631     45633     45635     45632     45631     45633     45677
     45633     45677     45680     45681     45633     45677     45680     45682
     45633     45677     45680     45683     45634     45633     45677     45678
     45634     45633     45677     45679     45634     45633     45677     45680
     45635     45633     45677     45678     45635     45633     45677     45679
     45635     45633     45677     45680     45636     45639     45642     45643
     45636     45639     45642     45644     45636     45639     45642     45645
     45637     45636     45639     45640     45637     45636     45639     45641
     45637     45636     45639     45642     45638     45636     45639     45640
     45638     45636     45639     45641     45638     45636     45639     45642
     45639     45642     45645     45646     45639     45642     45645     45647
     45639     45642     45645     45648     45640     45639     45642     45643
     45640     45639     45642     45644     45640     45639     45642     45645
     45641     45639     45642     45643     45641     45639     45642     45644
     45641     45639     45642     45645     45642     45645     45648     45649
     45642     45645     45648     45650     45642     45645     45648     45651
     45643     45642     45645     45646     45643     45642     45645     45647
     45643     45642     45645     45648     45644     45642     45645     45646
     45644     45642     45645     45647     45644     45642     45645     45648
     45645     45648     45651     45652     45645     45648     45651     45653
     45645     45648     45651     45654     45646     45645     45648     45649
     45646     45645     45648     45650     45646     45645     45648     45651
     45647     45645     45648     45649     45647     45645     45648     45650
     45647     45645     45648     45651     45648     45651     45654     45655
     45648     45651     45654     45656     45649     45648     45651     45652
     45649     45648     45651     45653     45649     45648     45651     45654
     45650     45648     45651     45652     45650     45648     45651     45653
     45650     45648     45651     45654     45651     45654     45656     45657
     45651     45654     45656     45658     45652     45651     45654     45655
     45652     45651     45654     45656     45653     45651     45654     45655
     45653     45651     45654     45656     45654     45656     45658     45659
     45654     45656     45658     45660     45654     45656     45658     45661
     45655     45654     45656     45657     45655     45654     45656     45658
     45656     45658     45661     45662     45656     45658     45661     45663
     45656     45658     45661     45664     45657     45656     45658     45659
     45657     45656     45658     45660     45657     45656     45658     45661
     45658     45661     45664     45665     45658     45661     45664     45666
     45658     45661     45664     45667     45659     45658     45661     45662
     45659     45658     45661     45663     45659     45658     45661     45664
     45660     45658     45661     45662     45660     45658     45661     45663
     45660     45658     45661     45664     45661     45664     45667     45668
     45661     45664     45667     45669     45661     45664     45667     45670
     45662     45661     45664     45665     45662     45661     45664     45666
     45662     45661     45664     45667     45663     45661     45664     45665
     45663     45661     45664     45666     45663     45661     45664     45667
     45664     45667     45670     45671     45664     45667     45670     45672
     45664     45667     45670     45673     45665     45664     45667     45668
     45665     45664     45667     45669     45665     45664     45667     45670
     45666     45664     45667     45668     45666     45664     45667     45669
     45666     45664     45667     45670     45667     45670     45673     45674
     45667     45670     45673     45675     45667     45670     45673     45676
     45668     45667     45670     45671     45668     45667     45670     45672
     45668     45667     45670     45673     45669     45667     45670     45671
     45669     45667     45670     45672     45669     45667     45670     45673
     45671     45670     45673     45674     45671     45670     45673     45675
     45671     45670     45673     45676     45672     45670     45673     45674
     45672     45670     45673     45675     45672     45670     45673     45676
     45677     45680     45683     45684     45677     45680     45683     45685
     45677     45680     45683     45686     45678     45677     45680     45681
     45678     45677     45680     45682     45678     45677     45680     45683
     45679     45677     45680     45681     45679     45677     45680     45682
     45679     45677     45680     45683     45680     45683     45686     45687
     45680     45683     45686     45688     45680     45683     45686     45689
     45681     45680     45683     45684     45681     45680     45683     45685
     45681     45680     45683     45686     45682     45680     45683     45684
     45682     45680     45683     45685     45682     45680     45683     45686
     45683     45686     45689     45690     45683     45686     45689     45691
     45683     45686     45689     45692     45684     45683     45686     45687
     45684     45683     45686     45688     45684     45683     45686     45689
     45685     45683     45686     45687     45685     45683     45686     45688
     45685     45683     45686     45689     45686     45689     45692     45693
     45686     45689     45692     45694     45686     45689     45692     45695
     45687     45686     45689     45690     45687     45686     45689     45691
     45687     45686     45689     45692     45688     45686     45689     45690
     45688     45686     45689     45691     45688     45686     45689     45692
     45689     45692     45695     45696     45689     45692     45695     45697
     45689     45692     45695     45698     45690     45689     45692     45693
     45690     45689     45692     45694     45690     45689     45692     45695
     45691     45689     45692     45693     45691     45689     45692     45694
     45691     45689     45692     45695     45692     45695     45698     45699
     45692     45695     45698     45700     45692     45695     45698     45701
     45693     45692     45695     45696     45693     45692     45695     45697
     45693     45692     45695     45698     45694     45692     45695     45696
     45694     45692     45695     45697     45694     45692     45695     45698
     45695     45698     45701     45702     45695     45698     45701     45703
     45695     45698     45701     45704     45696     45695     45698     45699
     45696     45695     45698     45700     45696     45695     45698     45701
     45697     45695     45698     45699     45697     45695     45698     45700
     45697     45695     45698     45701     45698     45701     45704     45705
     45698     45701     45704     45706     45698     45701     45704     45707
     45699     45698     45701     45702     45699     45698     45701     45703
     45699     45698     45701     45704     45700     45698     45701     45702
     45700     45698     45701     45703     45700     45698     45701     45704
     45701     45704     45707     45708     45701     45704     45707     45709
     45701     45704     45707     45710     45702     45701     45704     45705
     45702     45701     45704     45706     45702     45701     45704     45707
     45703     45701     45704     45705     45703     45701     45704     45706
     45703     45701     45704     45707     45704     45707     45710     45711
     45704     45707     45710     45712     45704     45707     45710     45713
     45705     45704     45707     45708     45705     45704     45707     45709
     45705     45704     45707     45710     45706     45704     45707     45708
     45706     45704     45707     45709     45706     45704     45707     45710
     45707     45710     45713     45714     45707     45710     45713     45715
     45707     45710     45713     45716     45708     45707     45710     45711
     45708     45707     45710     45712     45708     45707     45710     45713
     45709     45707     45710     45711     45709     45707     45710     45712
     45709     45707     45710     45713     45710     45713     45716     45717
     45710     45713     45716     45718     45710     45713     45716     45719
     45711     45710     45713     45714     45711     45710     45713     45715
     45711     45710     45713     45716     45712     45710     45713     45714
     45712     45710     45713     45715     45712     45710     45713     45716
     45714     45713     45716     45717     45714     45713     45716     45718
     45714     45713     45716     45719     45715     45713     45716     45717
     45715     45713     45716     45718     45715     45713     45716     45719
     45720     45724     45727     45728     45720     45724     45727     45729
     45720     45724     45727     45734     45721     45720     45724     45725
     45721     45720     45724     45726     45721     45720     45724     45727
     45722     45720     45724     45725     45722     45720     45724     45726
     45722     45720     45724     45727     45723     45720     45724     45725
     45723     45720     45724     45726     45723     45720     45724     45727
     45724     45727     45734     45730     45725     45724     45727     45728
     45725     45724     45727     45729     45725     45724     45727     45734
     45726     45724     45727     45728     45726     45724     45727     45729
     45726     45724     45727     45734     45727     45734     45730     45731
     45727     45734     45730     45732     45727     45734     45730     45733
     45728     45727     45734     45730     45729     45727     45734     45730
     45730     45733     45735     45736     45730     45733     45735     45737
     45730     45733     45735     45738     45731     45730     45733     45735
     45732     45730     45733     45735     45733     45735     45738     45739
     45733     45735     45738     45740     45733     45735     45738     45746
     45734     45730     45733     45735     45735     45738     45740     45741
     45735     45738     45746     45747     45735     45738     45746     45748
     45735     45738     45746     45749     45736     45735     45738     45739
     45736     45735     45738     45740     45736     45735     45738     45746
     45737     45735     45738     45739     45737     45735     45738     45740
     45737     45735     45738     45746     45738     45740     45741     45742
     45738     45740     45741     45743     45738     45746     45749     45750
     45739     45738     45740     45741     45739     45738     45746     45747
     45739     45738     45746     45748     45739     45738     45746     45749
     45740     45738     45746     45747     45740     45738     45746     45748
     45740     45738     45746     45749     45740     45741     45743     45744
     45740     45741     45743     45745     45740     45741     45743     45755
     45741     45740     45738     45746     45741     45743     45755     45756
     45741     45743     45755     45757     45741     45743     45755     45758
     45742     45741     45743     45744     45742     45741     45743     45745
     45742     45741     45743     45755     45743     45755     45758     45759
     45743     45755     45758     45760     45743     45755     45758     45761
     45744     45743     45755     45756     45744     45743     45755     45757
     45744     45743     45755     45758     45745     45743     45755     45756
     45745     45743     45755     45757     45745     45743     45755     45758
     45746     45749     45750     45751     45746     45749     45750     45752
     45747     45746     45749     45750     45748     45746     45749     45750
     45749     45750     45752     45753     45749     45750     45752     45754
     45749     45750     45752     45796     45750     45752     45796     45797
     45750     45752     45796     45798     45750     45752     45796     45799
     45751     45750     45752     45753     45751     45750     45752     45754
     45751     45750     45752     45796     45752     45796     45799     45800
     45752     45796     45799     45801     45752     45796     45799     45802
     45753     45752     45796     45797     45753     45752     45796     45798
     45753     45752     45796     45799     45754     45752     45796     45797
     45754     45752     45796     45798     45754     45752     45796     45799
     45755     45758     45761     45762     45755     45758     45761     45763
     45755     45758     45761     45764     45756     45755     45758     45759
     45756     45755     45758     45760     45756     45755     45758     45761
     45757     45755     45758     45759     45757     45755     45758     45760
     45757     45755     45758     45761     45758     45761     45764     45765
     45758     45761     45764     45766     45758     45761     45764     45767
     45759     45758     45761     45762     45759     45758     45761     45763
     45759     45758     45761     45764     45760     45758     45761     45762
     45760     45758     45761     45763     45760     45758     45761     45764
     45761     45764     45767     45768     45761     45764     45767     45769
     45761     45764     45767     45770     45762     45761     45764     45765
     45762     45761     45764     45766     45762     45761     45764     45767
     45763     45761     45764     45765     45763     45761     45764     45766
     45763     45761     45764     45767     45764     45767     45770     45771
     45764     45767     45770     45772     45764     45767     45770     45773
     45765     45764     45767     45768     45765     45764     45767     45769
     45765     45764     45767     45770     45766     45764     45767     45768
     45766     45764     45767     45769     45766     45764     45767     45770
     45767     45770     45773     45774     45767     45770     45773     45775
     45768     45767     45770     45771     45768     45767     45770     45772
     45768     45767     45770     45773     45769     45767     45770     45771
     45769     45767     45770     45772     45769     45767     45770     45773
     45770     45773     45775     45776     45770     45773     45775     45777
     45771     45770     45773     45774     45771     45770     45773     45775
     45772     45770     45773     45774     45772     45770     45773     45775
     45773     45775     45777     45778     45773     45775     45777     45779
     45773     45775     45777     45780     45774     45773     45775     45776
     45774     45773     45775     45777     45775     45777     45780     45781
     45775     45777     45780     45782     45775     45777     45780     45783
     45776     45775     45777     45778     45776     45775     45777     45779
     45776     45775     45777     45780     45777     45780     45783     45784
     45777     45780     45783     45785     45777     45780     45783     45786
     45778     45777     45780     45781     45778     45777     45780     45782
     45778     45777     45780     45783     45779     45777     45780     45781
     45779     45777     45780     45782     45779     45777     45780     45783
     45780     45783     45786     45787     45780     45783     45786     45788
     45780     45783     45786     45789     45781     45780     45783     45784
     45781     45780     45783     45785     45781     45780     45783     45786
     45782     45780     45783     45784     45782     45780     45783     45785
     45782     45780     45783     45786     45783     45786     45789     45790
     45783     45786     45789     45791     45783     45786     45789     45792
     45784     45783     45786     45787     45784     45783     45786     45788
     45784     45783     45786     45789     45785     45783     45786     45787
     45785     45783     45786     45788     45785     45783     45786     45789
     45786     45789     45792     45793     45786     45789     45792     45794
     45786     45789     45792     45795     45787     45786     45789     45790
     45787     45786     45789     45791     45787     45786     45789     45792
     45788     45786     45789     45790     45788     45786     45789     45791
     45788     45786     45789     45792     45790     45789     45792     45793
     45790     45789     45792     45794     45790     45789     45792     45795
     45791     45789     45792     45793     45791     45789     45792     45794
     45791     45789     45792     45795     45796     45799     45802     45803
     45796     45799     45802     45804     45796     45799     45802     45805
     45797     45796     45799     45800     45797     45796     45799     45801
     45797     45796     45799     45802     45798     45796     45799     45800
     45798     45796     45799     45801     45798     45796     45799     45802
     45799     45802     45805     45806     45799     45802     45805     45807
     45799     45802     45805     45808     45800     45799     45802     45803
     45800     45799     45802     45804     45800     45799     45802     45805
     45801     45799     45802     45803     45801     45799     45802     45804
     45801     45799     45802     45805     45802     45805     45808     45809
     45802     45805     45808     45810     45802     45805     45808     45811
     45803     45802     45805     45806     45803     45802     45805     45807
     45803     45802     45805     45808     45804     45802     45805     45806
     45804     45802     45805     45807     45804     45802     45805     45808
     45805     45808     45811     45812     45805     45808     45811     45813
     45805     45808     45811     45814     45806     45805     45808     45809
     45806     45805     45808     45810     45806     45805     45808     45811
     45807     45805     45808     45809     45807     45805     45808     45810
     45807     45805     45808     45811     45808     45811     45814     45815
     45808     45811     45814     45816     45808     45811     45814     45817
     45809     45808     45811     45812     45809     45808     45811     45813
     45809     45808     45811     45814     45810     45808     45811     45812
     45810     45808     45811     45813     45810     45808     45811     45814
     45811     45814     45817     45818     45811     45814     45817     45819
     45811     45814     45817     45820     45812     45811     45814     45815
     45812     45811     45814     45816     45812     45811     45814     45817
     45813     45811     45814     45815     45813     45811     45814     45816
     45813     45811     45814     45817     45814     45817     45820     45821
     45814     45817     45820     45822     45814     45817     45820     45823
     45815     45814     45817     45818     45815     45814     45817     45819
     45815     45814     45817     45820     45816     45814     45817     45818
     45816     45814     45817     45819     45816     45814     45817     45820
     45817     45820     45823     45824     45817     45820     45823     45825
     45817     45820     45823     45826     45818     45817     45820     45821
     45818     45817     45820     45822     45818     45817     45820     45823
     45819     45817     45820     45821     45819     45817     45820     45822
     45819     45817     45820     45823     45820     45823     45826     45827
     45820     45823     45826     45828     45820     45823     45826     45829
     45821     45820     45823     45824     45821     45820     45823     45825
     45821     45820     45823     45826     45822     45820     45823     45824
     45822     45820     45823     45825     45822     45820     45823     45826
     45823     45826     45829     45830     45823     45826     45829     45831
     45823     45826     45829     45832     45824     45823     45826     45827
     45824     45823     45826     45828     45824     45823     45826     45829
     45825     45823     45826     45827     45825     45823     45826     45828
     45825     45823     45826     45829     45826     45829     45832     45833
     45826     45829     45832     45834     45826     45829     45832     45835
     45827     45826     45829     45830     45827     45826     45829     45831
     45827     45826     45829     45832     45828     45826     45829     45830
     45828     45826     45829     45831     45828     45826     45829     45832
     45829     45832     45835     45836     45829     45832     45835     45837
     45829     45832     45835     45838     45830     45829     45832     45833
     45830     45829     45832     45834     45830     45829     45832     45835
     45831     45829     45832     45833     45831     45829     45832     45834
     45831     45829     45832     45835     45833     45832     45835     45836
     45833     45832     45835     45837     45833     45832     45835     45838
     45834     45832     45835     45836     45834     45832     45835     45837
     45834     45832     45835     45838     45839     45843     45846     45847
     45839     45843     45846     45848     45839     45843     45846     45853
     45840     45839     45843     45844     45840     45839     45843     45845
     45840     45839     45843     45846     45841     45839     45843     45844
     45841     45839     45843     45845     45841     45839     45843     45846
     45842     45839     45843     45844     45842     45839     45843     45845
     45842     45839     45843     45846     45843     45846     45853     45849
     45844     45843     45846     45847     45844     45843     45846     45848
     45844     45843     45846     45853     45845     45843     45846     45847
     45845     45843     45846     45848     45845     45843     45846     45853
     45846     45853     45849     45850     45846     45853     45849     45851
     45846     45853     45849     45852     45847     45846     45853     45849
     45848     45846     45853     45849     45849     45852     45854     45855
     45849     45852     45854     45856     45849     45852     45854     45857
     45850     45849     45852     45854     45851     45849     45852     45854
     45852     45854     45857     45858     45852     45854     45857     45859
     45852     45854     45857     45865     45853     45849     45852     45854
     45854     45857     45859     45860     45854     45857     45865     45866
     45854     45857     45865     45867     45854     45857     45865     45868
     45855     45854     45857     45858     45855     45854     45857     45859
     45855     45854     45857     45865     45856     45854     45857     45858
     45856     45854     45857     45859     45856     45854     45857     45865
     45857     45859     45860     45861     45857     45859     45860     45862
     45857     45865     45868     45869     45858     45857     45859     45860
     45858     45857     45865     45866     45858     45857     45865     45867
     45858     45857     45865     45868     45859     45857     45865     45866
     45859     45857     45865     45867     45859     45857     45865     45868
     45859     45860     45862     45863     45859     45860     45862     45864
     45859     45860     45862     45874     45860     45859     45857     45865
     45860     45862     45874     45875     45860     45862     45874     45876
     45860     45862     45874     45877     45861     45860     45862     45863
     45861     45860     45862     45864     45861     45860     45862     45874
     45862     45874     45877     45878     45862     45874     45877     45879
     45862     45874     45877     45880     45863     45862     45874     45875
     45863     45862     45874     45876     45863     45862     45874     45877
     45864     45862     45874     45875     45864     45862     45874     45876
     45864     45862     45874     45877     45865     45868     45869     45870
     45865     45868     45869     45871     45866     45865     45868     45869
     45867     45865     45868     45869     45868     45869     45871     45872
     45868     45869     45871     45873     45868     45869     45871     45915
     45869     45871     45915     45916     45869     45871     45915     45917
     45869     45871     45915     45918     45870     45869     45871     45872
     45870     45869     45871     45873     45870     45869     45871     45915
     45871     45915     45918     45919     45871     45915     45918     45920
     45871     45915     45918     45921     45872     45871     45915     45916
     45872     45871     45915     45917     45872     45871     45915     45918
     45873     45871     45915     45916     45873     45871     45915     45917
     45873     45871     45915     45918     45874     45877     45880     45881
     45874     45877     45880     45882     45874     45877     45880     45883
     45875     45874     45877     45878     45875     45874     45877     45879
     45875     45874     45877     45880     45876     45874     45877     45878
     45876     45874     45877     45879     45876     45874     45877     45880
     45877     45880     45883     45884     45877     45880     45883     45885
     45877     45880     45883     45886     45878     45877     45880     45881
     45878     45877     45880     45882     45878     45877     45880     45883
     45879     45877     45880     45881     45879     45877     45880     45882
     45879     45877     45880     45883     45880     45883     45886     45887
     45880     45883     45886     45888     45880     45883     45886     45889
     45881     45880     45883     45884     45881     45880     45883     45885
     45881     45880     45883     45886     45882     45880     45883     45884
     45882     45880     45883     45885     45882     45880     45883     45886
     45883     45886     45889     45890     45883     45886     45889     45891
     45883     45886     45889     45892     45884     45883     45886     45887
     45884     45883     45886     45888     45884     45883     45886     45889
     45885     45883     45886     45887     45885     45883     45886     45888
     45885     45883     45886     45889     45886     45889     45892     45893
     45886     45889     45892     45894     45887     45886     45889     45890
     45887     45886     45889     45891     45887     45886     45889     45892
     45888     45886     45889     45890     45888     45886     45889     45891
     45888     45886     45889     45892     45889     45892     45894     45895
     45889     45892     45894     45896     45890     45889     45892     45893
     45890     45889     45892     45894     45891     45889     45892     45893
     45891     45889     45892     45894     45892     45894     45896     45897
     45892     45894     45896     45898     45892     45894     45896     45899
     45893     45892     45894     45895     45893     45892     45894     45896
     45894     45896     45899     45900     45894     45896     45899     45901
     45894     45896     45899     45902     45895     45894     45896     45897
     45895     45894     45896     45898     45895     45894     45896     45899
     45896     45899     45902     45903     45896     45899     45902     45904
     45896     45899     45902     45905     45897     45896     45899     45900
     45897     45896     45899     45901     45897     45896     45899     45902
     45898     45896     45899     45900     45898     45896     45899     45901
     45898     45896     45899     45902     45899     45902     45905     45906
     45899     45902     45905     45907     45899     45902     45905     45908
     45900     45899     45902     45903     45900     45899     45902     45904
     45900     45899     45902     45905     45901     45899     45902     45903
     45901     45899     45902     45904     45901     45899     45902     45905
     45902     45905     45908     45909     45902     45905     45908     45910
     45902     45905     45908     45911     45903     45902     45905     45906
     45903     45902     45905     45907     45903     45902     45905     45908
     45904     45902     45905     45906     45904     45902     45905     45907
     45904     45902     45905     45908     45905     45908     45911     45912
     45905     45908     45911     45913     45905     45908     45911     45914
     45906     45905     45908     45909     45906     45905     45908     45910
     45906     45905     45908     45911     45907     45905     45908     45909
     45907     45905     45908     45910     45907     45905     45908     45911
     45909     45908     45911     45912     45909     45908     45911     45913
     45909     45908     45911     45914     45910     45908     45911     45912
     45910     45908     45911     45913     45910     45908     45911     45914
     45915     45918     45921     45922     45915     45918     45921     45923
     45915     45918     45921     45924     45916     45915     45918     45919
     45916     45915     45918     45920     45916     45915     45918     45921
     45917     45915     45918     45919     45917     45915     45918     45920
     45917     45915     45918     45921     45918     45921     45924     45925
     45918     45921     45924     45926     45918     45921     45924     45927
     45919     45918     45921     45922     45919     45918     45921     45923
     45919     45918     45921     45924     45920     45918     45921     45922
     45920     45918     45921     45923     45920     45918     45921     45924
     45921     45924     45927     45928     45921     45924     45927     45929
     45921     45924     45927     45930     45922     45921     45924     45925
     45922     45921     45924     45926     45922     45921     45924     45927
     45923     45921     45924     45925     45923     45921     45924     45926
     45923     45921     45924     45927     45924     45927     45930     45931
     45924     45927     45930     45932     45924     45927     45930     45933
     45925     45924     45927     45928     45925     45924     45927     45929
     45925     45924     45927     45930     45926     45924     45927     45928
     45926     45924     45927     45929     45926     45924     45927     45930
     45927     45930     45933     45934     45927     45930     45933     45935
     45927     45930     45933     45936     45928     45927     45930     45931
     45928     45927     45930     45932     45928     45927     45930     45933
     45929     45927     45930     45931     45929     45927     45930     45932
     45929     45927     45930     45933     45930     45933     45936     45937
     45930     45933     45936     45938     45930     45933     45936     45939
     45931     45930     45933     45934     45931     45930     45933     45935
     45931     45930     45933     45936     45932     45930     45933     45934
     45932     45930     45933     45935     45932     45930     45933     45936
     45933     45936     45939     45940     45933     45936     45939     45941
     45933     45936     45939     45942     45934     45933     45936     45937
     45934     45933     45936     45938     45934     45933     45936     45939
     45935     45933     45936     45937     45935     45933     45936     45938
     45935     45933     45936     45939     45936     45939     45942     45943
     45936     45939     45942     45944     45936     45939     45942     45945
     45937     45936     45939     45940     45937     45936     45939     45941
     45937     45936     45939     45942     45938     45936     45939     45940
     45938     45936     45939     45941     45938     45936     45939     45942
     45939     45942     45945     45946     45939     45942     45945     45947
     45939     45942     45945     45948     45940     45939     45942     45943
     45940     45939     45942     45944     45940     45939     45942     45945
     45941     45939     45942     45943     45941     45939     45942     45944
     45941     45939     45942     45945     45942     45945     45948     45949
     45942     45945     45948     45950     45942     45945     45948     45951
     45943     45942     45945     45946     45943     45942     45945     45947
     45943     45942     45945     45948     45944     45942     45945     45946
     45944     45942     45945     45947     45944     45942     45945     45948
     45945     45948     45951     45952     45945     45948     45951     45953
     45945     45948     45951     45954     45946     45945     45948     45949
     45946     45945     45948     45950     45946     45945     45948     45951
     45947     45945     45948     45949     45947     45945     45948     45950
     45947     45945     45948     45951     45948     45951     45954     45955
     45948     45951     45954     45956     45948     45951     45954     45957
     45949     45948     45951     45952     45949     45948     45951     45953
     45949     45948     45951     45954     45950     45948     45951     45952
     45950     45948     45951     45953     45950     45948     45951     45954
     45952     45951     45954     45955     45952     45951     45954     45956
     45952     45951     45954     45957     45953     45951     45954     45955
     45953     45951     45954     45956     45953     45951     45954     45957
     45958     45962     45965     45966     45958     45962     45965     45967
     45958     45962     45965     45972     45959     45958     45962     45963
     45959     45958     45962     45964     45959     45958     45962     45965
     45960     45958     45962     45963     45960     45958     45962     45964
     45960     45958     45962     45965     45961     45958     45962     45963
     45961     45958     45962     45964     45961     45958     45962     45965
     45962     45965     45972     45968     45963     45962     45965     45966
     45963     45962     45965     45967     45963     45962     45965     45972
     45964     45962     45965     45966     45964     45962     45965     45967
     45964     45962     45965     45972     45965     45972     45968     45969
     45965     45972     45968     45970     45965     45972     45968     45971
     45966     45965     45972     45968     45967     45965     45972     45968
     45968     45971     45973     45974     45968     45971     45973     45975
     45968     45971     45973     45976     45969     45968     45971     45973
     45970     45968     45971     45973     45971     45973     45976     45977
     45971     45973     45976     45978     45971     45973     45976     45984
     45972     45968     45971     45973     45973     45976     45978     45979
     45973     45976     45984     45985     45973     45976     45984     45986
     45973     45976     45984     45987     45974     45973     45976     45977
     45974     45973     45976     45978     45974     45973     45976     45984
     45975     45973     45976     45977     45975     45973     45976     45978
     45975     45973     45976     45984     45976     45978     45979     45980
     45976     45978     45979     45981     45976     45984     45987     45988
     45977     45976     45978     45979     45977     45976     45984     45985
     45977     45976     45984     45986     45977     45976     45984     45987
     45978     45976     45984     45985     45978     45976     45984     45986
     45978     45976     45984     45987     45978     45979     45981     45982
     45978     45979     45981     45983     45978     45979     45981     45993
     45979     45978     45976     45984     45979     45981     45993     45994
     45979     45981     45993     45995     45979     45981     45993     45996
     45980     45979     45981     45982     45980     45979     45981     45983
     45980     45979     45981     45993     45981     45993     45996     45997
     45981     45993     45996     45998     45981     45993     45996     45999
     45982     45981     45993     45994     45982     45981     45993     45995
     45982     45981     45993     45996     45983     45981     45993     45994
     45983     45981     45993     45995     45983     45981     45993     45996
     45984     45987     45988     45989     45984     45987     45988     45990
     45985     45984     45987     45988     45986     45984     45987     45988
     45987     45988     45990     45991     45987     45988     45990     45992
     45987     45988     45990     46034     45988     45990     46034     46035
     45988     45990     46034     46036     45988     45990     46034     46037
     45989     45988     45990     45991     45989     45988     45990     45992
     45989     45988     45990     46034     45990     46034     46037     46038
     45990     46034     46037     46039     45990     46034     46037     46040
     45991     45990     46034     46035     45991     45990     46034     46036
     45991     45990     46034     46037     45992     45990     46034     46035
     45992     45990     46034     46036     45992     45990     46034     46037
     45993     45996     45999     46000     45993     45996     45999     46001
     45993     45996     45999     46002     45994     45993     45996     45997
     45994     45993     45996     45998     45994     45993     45996     45999
     45995     45993     45996     45997     45995     45993     45996     45998
     45995     45993     45996     45999     45996     45999     46002     46003
     45996     45999     46002     46004     45996     45999     46002     46005
     45997     45996     45999     46000     45997     45996     45999     46001
     45997     45996     45999     46002     45998     45996     45999     46000
     45998     45996     45999     46001     45998     45996     45999     46002
     45999     46002     46005     46006     45999     46002     46005     46007
     45999     46002     46005     46008     46000     45999     46002     46003
     46000     45999     46002     46004     46000     45999     46002     46005
     46001     45999     46002     46003     46001     45999     46002     46004
     46001     45999     46002     46005     46002     46005     46008     46009
     46002     46005     46008     46010     46002     46005     46008     46011
     46003     46002     46005     46006     46003     46002     46005     46007
     46003     46002     46005     46008     46004     46002     46005     46006
     46004     46002     46005     46007     46004     46002     46005     46008
     46005     46008     46011     46012     46005     46008     46011     46013
     46006     46005     46008     46009     46006     46005     46008     46010
     46006     46005     46008     46011     46007     46005     46008     46009
     46007     46005     46008     46010     46007     46005     46008     46011
     46008     46011     46013     46014     46008     46011     46013     46015
     46009     46008     46011     46012     46009     46008     46011     46013
     46010     46008     46011     46012     46010     46008     46011     46013
     46011     46013     46015     46016     46011     46013     46015     46017
     46011     46013     46015     46018     46012     46011     46013     46014
     46012     46011     46013     46015     46013     46015     46018     46019
     46013     46015     46018     46020     46013     46015     46018     46021
     46014     46013     46015     46016     46014     46013     46015     46017
     46014     46013     46015     46018     46015     46018     46021     46022
     46015     46018     46021     46023     46015     46018     46021     46024
     46016     46015     46018     46019     46016     46015     46018     46020
     46016     46015     46018     46021     46017     46015     46018     46019
     46017     46015     46018     46020     46017     46015     46018     46021
     46018     46021     46024     46025     46018     46021     46024     46026
     46018     46021     46024     46027     46019     46018     46021     46022
     46019     46018     46021     46023     46019     46018     46021     46024
     46020     46018     46021     46022     46020     46018     46021     46023
     46020     46018     46021     46024     46021     46024     46027     46028
     46021     46024     46027     46029     46021     46024     46027     46030
     46022     46021     46024     46025     46022     46021     46024     46026
     46022     46021     46024     46027     46023     46021     46024     46025
     46023     46021     46024     46026     46023     46021     46024     46027
     46024     46027     46030     46031     46024     46027     46030     46032
     46024     46027     46030     46033     46025     46024     46027     46028
     46025     46024     46027     46029     46025     46024     46027     46030
     46026     46024     46027     46028     46026     46024     46027     46029
     46026     46024     46027     46030     46028     46027     46030     46031
     46028     46027     46030     46032     46028     46027     46030     46033
     46029     46027     46030     46031     46029     46027     46030     46032
     46029     46027     46030     46033     46034     46037     46040     46041
     46034     46037     46040     46042     46034     46037     46040     46043
     46035     46034     46037     46038     46035     46034     46037     46039
     46035     46034     46037     46040     46036     46034     46037     46038
     46036     46034     46037     46039     46036     46034     46037     46040
     46037     46040     46043     46044     46037     46040     46043     46045
     46037     46040     46043     46046     46038     46037     46040     46041
     46038     46037     46040     46042     46038     46037     46040     46043
     46039     46037     46040     46041     46039     46037     46040     46042
     46039     46037     46040     46043     46040     46043     46046     46047
     46040     46043     46046     46048     46040     46043     46046     46049
     46041     46040     46043     46044     46041     46040     46043     46045
     46041     46040     46043     46046     46042     46040     46043     46044
     46042     46040     46043     46045     46042     46040     46043     46046
     46043     46046     46049     46050     46043     46046     46049     46051
     46043     46046     46049     46052     46044     46043     46046     46047
     46044     46043     46046     46048     46044     46043     46046     46049
     46045     46043     46046     46047     46045     46043     46046     46048
     46045     46043     46046     46049     46046     46049     46052     46053
     46046     46049     46052     46054     46046     46049     46052     46055
     46047     46046     46049     46050     46047     46046     46049     46051
     46047     46046     46049     46052     46048     46046     46049     46050
     46048     46046     46049     46051     46048     46046     46049     46052
     46049     46052     46055     46056     46049     46052     46055     46057
     46049     46052     46055     46058     46050     46049     46052     46053
     46050     46049     46052     46054     46050     46049     46052     46055
     46051     46049     46052     46053     46051     46049     46052     46054
     46051     46049     46052     46055     46052     46055     46058     46059
     46052     46055     46058     46060     46052     46055     46058     46061
     46053     46052     46055     46056     46053     46052     46055     46057
     46053     46052     46055     46058     46054     46052     46055     46056
     46054     46052     46055     46057     46054     46052     46055     46058
     46055     46058     46061     46062     46055     46058     46061     46063
     46055     46058     46061     46064     46056     46055     46058     46059
     46056     46055     46058     46060     46056     46055     46058     46061
     46057     46055     46058     46059     46057     46055     46058     46060
     46057     46055     46058     46061     46058     46061     46064     46065
     46058     46061     46064     46066     46058     46061     46064     46067
     46059     46058     46061     46062     46059     46058     46061     46063
     46059     46058     46061     46064     46060     46058     46061     46062
     46060     46058     46061     46063     46060     46058     46061     46064
     46061     46064     46067     46068     46061     46064     46067     46069
     46061     46064     46067     46070     46062     46061     46064     46065
     46062     46061     46064     46066     46062     46061     46064     46067
     46063     46061     46064     46065     46063     46061     46064     46066
     46063     46061     46064     46067     46064     46067     46070     46071
     46064     46067     46070     46072     46064     46067     46070     46073
     46065     46064     46067     46068     46065     46064     46067     46069
     46065     46064     46067     46070     46066     46064     46067     46068
     46066     46064     46067     46069     46066     46064     46067     46070
     46067     46070     46073     46074     46067     46070     46073     46075
     46067     46070     46073     46076     46068     46067     46070     46071
     46068     46067     46070     46072     46068     46067     46070     46073
     46069     46067     46070     46071     46069     46067     46070     46072
     46069     46067     46070     46073     46071     46070     46073     46074
     46071     46070     46073     46075     46071     46070     46073     46076
     46072     46070     46073     46074     46072     46070     46073     46075
     46072     46070     46073     46076     46077     46081     46084     46085
     46077     46081     46084     46086     46077     46081     46084     46091
     46078     46077     46081     46082     46078     46077     46081     46083
     46078     46077     46081     46084     46079     46077     46081     46082
     46079     46077     46081     46083     46079     46077     46081     46084
     46080     46077     46081     46082     46080     46077     46081     46083
     46080     46077     46081     46084     46081     46084     46091     46087
     46082     46081     46084     46085     46082     46081     46084     46086
     46082     46081     46084     46091     46083     46081     46084     46085
     46083     46081     46084     46086     46083     46081     46084     46091
     46084     46091     46087     46088     46084     46091     46087     46089
     46084     46091     46087     46090     46085     46084     46091     46087
     46086     46084     46091     46087     46087     46090     46092     46093
     46087     46090     46092     46094     46087     46090     46092     46095
     46088     46087     46090     46092     46089     46087     46090     46092
     46090     46092     46095     46096     46090     46092     46095     46097
     46090     46092     46095     46103     46091     46087     46090     46092
     46092     46095     46097     46098     46092     46095     46103     46104
     46092     46095     46103     46105     46092     46095     46103     46106
     46093     46092     46095     46096     46093     46092     46095     46097
     46093     46092     46095     46103     46094     46092     46095     46096
     46094     46092     46095     46097     46094     46092     46095     46103
     46095     46097     46098     46099     46095     46097     46098     46100
     46095     46103     46106     46107     46096     46095     46097     46098
     46096     46095     46103     46104     46096     46095     46103     46105
     46096     46095     46103     46106     46097     46095     46103     46104
     46097     46095     46103     46105     46097     46095     46103     46106
     46097     46098     46100     46101     46097     46098     46100     46102
     46097     46098     46100     46112     46098     46097     46095     46103
     46098     46100     46112     46113     46098     46100     46112     46114
     46098     46100     46112     46115     46099     46098     46100     46101
     46099     46098     46100     46102     46099     46098     46100     46112
     46100     46112     46115     46116     46100     46112     46115     46117
     46100     46112     46115     46118     46101     46100     46112     46113
     46101     46100     46112     46114     46101     46100     46112     46115
     46102     46100     46112     46113     46102     46100     46112     46114
     46102     46100     46112     46115     46103     46106     46107     46108
     46103     46106     46107     46109     46104     46103     46106     46107
     46105     46103     46106     46107     46106     46107     46109     46110
     46106     46107     46109     46111     46106     46107     46109     46153
     46107     46109     46153     46154     46107     46109     46153     46155
     46107     46109     46153     46156     46108     46107     46109     46110
     46108     46107     46109     46111     46108     46107     46109     46153
     46109     46153     46156     46157     46109     46153     46156     46158
     46109     46153     46156     46159     46110     46109     46153     46154
     46110     46109     46153     46155     46110     46109     46153     46156
     46111     46109     46153     46154     46111     46109     46153     46155
     46111     46109     46153     46156     46112     46115     46118     46119
     46112     46115     46118     46120     46112     46115     46118     46121
     46113     46112     46115     46116     46113     46112     46115     46117
     46113     46112     46115     46118     46114     46112     46115     46116
     46114     46112     46115     46117     46114     46112     46115     46118
     46115     46118     46121     46122     46115     46118     46121     46123
     46115     46118     46121     46124     46116     46115     46118     46119
     46116     46115     46118     46120     46116     46115     46118     46121
     46117     46115     46118     46119     46117     46115     46118     46120
     46117     46115     46118     46121     46118     46121     46124     46125
     46118     46121     46124     46126     46118     46121     46124     46127
     46119     46118     46121     46122     46119     46118     46121     46123
     46119     46118     46121     46124     46120     46118     46121     46122
     46120     46118     46121     46123     46120     46118     46121     46124
     46121     46124     46127     46128     46121     46124     46127     46129
     46121     46124     46127     46130     46122     46121     46124     46125
     46122     46121     46124     46126     46122     46121     46124     46127
     46123     46121     46124     46125     46123     46121     46124     46126
     46123     46121     46124     46127     46124     46127     46130     46131
     46124     46127     46130     46132     46125     46124     46127     46128
     46125     46124     46127     46129     46125     46124     46127     46130
     46126     46124     46127     46128     46126     46124     46127     46129
     46126     46124     46127     46130     46127     46130     46132     46133
     46127     46130     46132     46134     46128     46127     46130     46131
     46128     46127     46130     46132     46129     46127     46130     46131
     46129     46127     46130     46132     46130     46132     46134     46135
     46130     46132     46134     46136     46130     46132     46134     46137
     46131     46130     46132     46133     46131     46130     46132     46134
     46132     46134     46137     46138     46132     46134     46137     46139
     46132     46134     46137     46140     46133     46132     46134     46135
     46133     46132     46134     46136     46133     46132     46134     46137
     46134     46137     46140     46141     46134     46137     46140     46142
     46134     46137     46140     46143     46135     46134     46137     46138
     46135     46134     46137     46139     46135     46134     46137     46140
     46136     46134     46137     46138     46136     46134     46137     46139
     46136     46134     46137     46140     46137     46140     46143     46144
     46137     46140     46143     46145     46137     46140     46143     46146
     46138     46137     46140     46141     46138     46137     46140     46142
     46138     46137     46140     46143     46139     46137     46140     46141
     46139     46137     46140     46142     46139     46137     46140     46143
     46140     46143     46146     46147     46140     46143     46146     46148
     46140     46143     46146     46149     46141     46140     46143     46144
     46141     46140     46143     46145     46141     46140     46143     46146
     46142     46140     46143     46144     46142     46140     46143     46145
     46142     46140     46143     46146     46143     46146     46149     46150
     46143     46146     46149     46151     46143     46146     46149     46152
     46144     46143     46146     46147     46144     46143     46146     46148
     46144     46143     46146     46149     46145     46143     46146     46147
     46145     46143     46146     46148     46145     46143     46146     46149
     46147     46146     46149     46150     46147     46146     46149     46151
     46147     46146     46149     46152     46148     46146     46149     46150
     46148     46146     46149     46151     46148     46146     46149     46152
     46153     46156     46159     46160     46153     46156     46159     46161
     46153     46156     46159     46162     46154     46153     46156     46157
     46154     46153     46156     46158     46154     46153     46156     46159
     46155     46153     46156     46157     46155     46153     46156     46158
     46155     46153     46156     46159     46156     46159     46162     46163
     46156     46159     46162     46164     46156     46159     46162     46165
     46157     46156     46159     46160     46157     46156     46159     46161
     46157     46156     46159     46162     46158     46156     46159     46160
     46158     46156     46159     46161     46158     46156     46159     46162
     46159     46162     46165     46166     46159     46162     46165     46167
     46159     46162     46165     46168     46160     46159     46162     46163
     46160     46159     46162     46164     46160     46159     46162     46165
     46161     46159     46162     46163     46161     46159     46162     46164
     46161     46159     46162     46165     46162     46165     46168     46169
     46162     46165     46168     46170     46162     46165     46168     46171
     46163     46162     46165     46166     46163     46162     46165     46167
     46163     46162     46165     46168     46164     46162     46165     46166
     46164     46162     46165     46167     46164     46162     46165     46168
     46165     46168     46171     46172     46165     46168     46171     46173
     46165     46168     46171     46174     46166     46165     46168     46169
     46166     46165     46168     46170     46166     46165     46168     46171
     46167     46165     46168     46169     46167     46165     46168     46170
     46167     46165     46168     46171     46168     46171     46174     46175
     46168     46171     46174     46176     46168     46171     46174     46177
     46169     46168     46171     46172     46169     46168     46171     46173
     46169     46168     46171     46174     46170     46168     46171     46172
     46170     46168     46171     46173     46170     46168     46171     46174
     46171     46174     46177     46178     46171     46174     46177     46179
     46171     46174     46177     46180     46172     46171     46174     46175
     46172     46171     46174     46176     46172     46171     46174     46177
     46173     46171     46174     46175     46173     46171     46174     46176
     46173     46171     46174     46177     46174     46177     46180     46181
     46174     46177     46180     46182     46174     46177     46180     46183
     46175     46174     46177     46178     46175     46174     46177     46179
     46175     46174     46177     46180     46176     46174     46177     46178
     46176     46174     46177     46179     46176     46174     46177     46180
     46177     46180     46183     46184     46177     46180     46183     46185
     46177     46180     46183     46186     46178     46177     46180     46181
     46178     46177     46180     46182     46178     46177     46180     46183
     46179     46177     46180     46181     46179     46177     46180     46182
     46179     46177     46180     46183     46180     46183     46186     46187
     46180     46183     46186     46188     46180     46183     46186     46189
     46181     46180     46183     46184     46181     46180     46183     46185
     46181     46180     46183     46186     46182     46180     46183     46184
     46182     46180     46183     46185     46182     46180     46183     46186
     46183     46186     46189     46190     46183     46186     46189     46191
     46183     46186     46189     46192     46184     46183     46186     46187
     46184     46183     46186     46188     46184     46183     46186     46189
     46185     46183     46186     46187     46185     46183     46186     46188
     46185     46183     46186     46189     46186     46189     46192     46193
     46186     46189     46192     46194     46186     46189     46192     46195
     46187     46186     46189     46190     46187     46186     46189     46191
     46187     46186     46189     46192     46188     46186     46189     46190
     46188     46186     46189     46191     46188     46186     46189     46192
     46190     46189     46192     46193     46190     46189     46192     46194
     46190     46189     46192     46195     46191     46189     46192     46193
     46191     46189     46192     46194     46191     46189     46192     46195
     46196     46201     46203     46204     46196     46201     46205     46206
     46196     46201     46205     46207     46196     46201     46205     46211
     46197     46196     46199     46200     46197     46196     46201     46202
     46197     46196     46201     46203     46197     46196     46201     46205
     46198     46196     46199     46200     46198     46196     46201     46202
     46198     46196     46201     46203     46198     46196     46201     46205
     46199     46196     46201     46202     46199     46196     46201     46203
     46199     46196     46201     46205     46200     46199     46196     46201
     46201     46205     46211     46208     46202     46201     46203     46204
     46202     46201     46205     46206     46202     46201     46205     46207
     46202     46201     46205     46211     46203     46201     46205     46206
     46203     46201     46205     46207     46203     46201     46205     46211
     46204     46203     46201     46205     46205     46211     46208     46209
     46205     46211     46208     46210     46205     46211     46208     46212
     46206     46205     46211     46208     46207     46205     46211     46208
     46208     46212     46213     46214     46208     46212     46213     46215
     46208     46212     46213     46216     46209     46208     46212     46213
     46210     46208     46212     46213     46211     46208     46212     46213
     46212     46213     46216     46217     46212     46213     46216     46218
     46212     46213     46216     46224     46213     46216     46218     46219
     46213     46216     46224     46225     46213     46216     46224     46226
     46213     46216     46224     46227     46214     46213     46216     46217
     46214     46213     46216     46218     46214     46213     46216     46224
     46215     46213     46216     46217     46215     46213     46216     46218
     46215     46213     46216     46224     46216     46218     46219     46220
     46216     46218     46219     46221     46216     46224     46227     46228
     46217     46216     46218     46219     46217     46216     46224     46225
     46217     46216     46224     46226     46217     46216     46224     46227
     46218     46216     46224     46225     46218     46216     46224     46226
     46218     46216     46224     46227     46218     46219     46221     46222
     46218     46219     46221     46223     46218     46219     46221     46233
     46219     46218     46216     46224     46219     46221     46233     46234
     46219     46221     46233     46235     46219     46221     46233     46236
     46220     46219     46221     46222     46220     46219     46221     46223
     46220     46219     46221     46233     46221     46233     46236     46237
     46221     46233     46236     46238     46221     46233     46236     46239
     46222     46221     46233     46234     46222     46221     46233     46235
     46222     46221     46233     46236     46223     46221     46233     46234
     46223     46221     46233     46235     46223     46221     46233     46236
     46224     46227     46228     46229     46224     46227     46228     46230
     46225     46224     46227     46228     46226     46224     46227     46228
     46227     46228     46230     46231     46227     46228     46230     46232
     46227     46228     46230     46280     46228     46230     46280     46281
     46228     46230     46280     46282     46228     46230     46280     46283
     46229     46228     46230     46231     46229     46228     46230     46232
     46229     46228     46230     46280     46230     46280     46283     46284
     46230     46280     46283     46285     46230     46280     46283     46286
     46231     46230     46280     46281     46231     46230     46280     46282
     46231     46230     46280     46283     46232     46230     46280     46281
     46232     46230     46280     46282     46232     46230     46280     46283
     46233     46236     46239     46240     46233     46236     46239     46241
     46233     46236     46239     46242     46234     46233     46236     46237
     46234     46233     46236     46238     46234     46233     46236     46239
     46235     46233     46236     46237     46235     46233     46236     46238
     46235     46233     46236     46239     46236     46239     46242     46243
     46236     46239     46242     46244     46236     46239     46242     46245
     46237     46236     46239     46240     46237     46236     46239     46241
     46237     46236     46239     46242     46238     46236     46239     46240
     46238     46236     46239     46241     46238     46236     46239     46242
     46239     46242     46245     46246     46239     46242     46245     46247
     46239     46242     46245     46248     46240     46239     46242     46243
     46240     46239     46242     46244     46240     46239     46242     46245
     46241     46239     46242     46243     46241     46239     46242     46244
     46241     46239     46242     46245     46242     46245     46248     46249
     46242     46245     46248     46250     46242     46245     46248     46251
     46243     46242     46245     46246     46243     46242     46245     46247
     46243     46242     46245     46248     46244     46242     46245     46246
     46244     46242     46245     46247     46244     46242     46245     46248
     46245     46248     46251     46252     46245     46248     46251     46253
     46245     46248     46251     46254     46246     46245     46248     46249
     46246     46245     46248     46250     46246     46245     46248     46251
     46247     46245     46248     46249     46247     46245     46248     46250
     46247     46245     46248     46251     46248     46251     46254     46255
     46248     46251     46254     46256     46248     46251     46254     46257
     46249     46248     46251     46252     46249     46248     46251     46253
     46249     46248     46251     46254     46250     46248     46251     46252
     46250     46248     46251     46253     46250     46248     46251     46254
     46251     46254     46257     46258     46251     46254     46257     46259
     46252     46251     46254     46255     46252     46251     46254     46256
     46252     46251     46254     46257     46253     46251     46254     46255
     46253     46251     46254     46256     46253     46251     46254     46257
     46254     46257     46259     46260     46254     46257     46259     46261
     46255     46254     46257     46258     46255     46254     46257     46259
     46256     46254     46257     46258     46256     46254     46257     46259
     46257     46259     46261     46262     46257     46259     46261     46263
     46257     46259     46261     46264     46258     46257     46259     46260
     46258     46257     46259     46261     46259     46261     46264     46265
     46259     46261     46264     46266     46259     46261     46264     46267
     46260     46259     46261     46262     46260     46259     46261     46263
     46260     46259     46261     46264     46261     46264     46267     46268
     46261     46264     46267     46269     46261     46264     46267     46270
     46262     46261     46264     46265     46262     46261     46264     46266
     46262     46261     46264     46267     46263     46261     46264     46265
     46263     46261     46264     46266     46263     46261     46264     46267
     46264     46267     46270     46271     46264     46267     46270     46272
     46264     46267     46270     46273     46265     46264     46267     46268
     46265     46264     46267     46269     46265     46264     46267     46270
     46266     46264     46267     46268     46266     46264     46267     46269
     46266     46264     46267     46270     46267     46270     46273     46274
     46267     46270     46273     46275     46267     46270     46273     46276
     46268     46267     46270     46271     46268     46267     46270     46272
     46268     46267     46270     46273     46269     46267     46270     46271
     46269     46267     46270     46272     46269     46267     46270     46273
     46270     46273     46276     46277     46270     46273     46276     46278
     46270     46273     46276     46279     46271     46270     46273     46274
     46271     46270     46273     46275     46271     46270     46273     46276
     46272     46270     46273     46274     46272     46270     46273     46275
     46272     46270     46273     46276     46274     46273     46276     46277
     46274     46273     46276     46278     46274     46273     46276     46279
     46275     46273     46276     46277     46275     46273     46276     46278
     46275     46273     46276     46279     46280     46283     46286     46287
     46280     46283     46286     46288     46280     46283     46286     46289
     46281     46280     46283     46284     46281     46280     46283     46285
     46281     46280     46283     46286     46282     46280     46283     46284
     46282     46280     46283     46285     46282     46280     46283     46286
     46283     46286     46289     46290     46283     46286     46289     46291
     46283     46286     46289     46292     46284     46283     46286     46287
     46284     46283     46286     46288     46284     46283     46286     46289
     46285     46283     46286     46287     46285     46283     46286     46288
     46285     46283     46286     46289     46286     46289     46292     46293
     46286     46289     46292     46294     46286     46289     46292     46295
     46287     46286     46289     46290     46287     46286     46289     46291
     46287     46286     46289     46292     46288     46286     46289     46290
     46288     46286     46289     46291     46288     46286     46289     46292
     46289     46292     46295     46296     46289     46292     46295     46297
     46289     46292     46295     46298     46290     46289     46292     46293
     46290     46289     46292     46294     46290     46289     46292     46295
     46291     46289     46292     46293     46291     46289     46292     46294
     46291     46289     46292     46295     46292     46295     46298     46299
     46292     46295     46298     46300     46292     46295     46298     46301
     46293     46292     46295     46296     46293     46292     46295     46297
     46293     46292     46295     46298     46294     46292     46295     46296
     46294     46292     46295     46297     46294     46292     46295     46298
     46295     46298     46301     46302     46295     46298     46301     46303
     46295     46298     46301     46304     46296     46295     46298     46299
     46296     46295     46298     46300     46296     46295     46298     46301
     46297     46295     46298     46299     46297     46295     46298     46300
     46297     46295     46298     46301     46298     46301     46304     46305
     46298     46301     46304     46306     46298     46301     46304     46307
     46299     46298     46301     46302     46299     46298     46301     46303
     46299     46298     46301     46304     46300     46298     46301     46302
     46300     46298     46301     46303     46300     46298     46301     46304
     46301     46304     46307     46308     46301     46304     46307     46309
     46301     46304     46307     46310     46302     46301     46304     46305
     46302     46301     46304     46306     46302     46301     46304     46307
     46303     46301     46304     46305     46303     46301     46304     46306
     46303     46301     46304     46307     46304     46307     46310     46311
     46304     46307     46310     46312     46304     46307     46310     46313
     46305     46304     46307     46308     46305     46304     46307     46309
     46305     46304     46307     46310     46306     46304     46307     46308
     46306     46304     46307     46309     46306     46304     46307     46310
     46307     46310     46313     46314     46307     46310     46313     46315
     46307     46310     46313     46316     46308     46307     46310     46311
     46308     46307     46310     46312     46308     46307     46310     46313
     46309     46307     46310     46311     46309     46307     46310     46312
     46309     46307     46310     46313     46310     46313     46316     46317
     46310     46313     46316     46318     46310     46313     46316     46319
     46311     46310     46313     46314     46311     46310     46313     46315
     46311     46310     46313     46316     46312     46310     46313     46314
     46312     46310     46313     46315     46312     46310     46313     46316
     46313     46316     46319     46320     46313     46316     46319     46321
     46313     46316     46319     46322     46314     46313     46316     46317
     46314     46313     46316     46318     46314     46313     46316     46319
     46315     46313     46316     46317     46315     46313     46316     46318
     46315     46313     46316     46319     46317     46316     46319     46320
     46317     46316     46319     46321     46317     46316     46319     46322
     46318     46316     46319     46320     46318     46316     46319     46321
     46318     46316     46319     46322     46323     46327     46330     46331
     46323     46327     46330     46332     46323     46327     46330     46337
     46324     46323     46327     46328     46324     46323     46327     46329
     46324     46323     46327     46330     46325     46323     46327     46328
     46325     46323     46327     46329     46325     46323     46327     46330
     46326     46323     46327     46328     46326     46323     46327     46329
     46326     46323     46327     46330     46327     46330     46337     46333
     46328     46327     46330     46331     46328     46327     46330     46332
     46328     46327     46330     46337     46329     46327     46330     46331
     46329     46327     46330     46332     46329     46327     46330     46337
     46330     46337     46333     46334     46330     46337     46333     46335
     46330     46337     46333     46336     46331     46330     46337     46333
     46332     46330     46337     46333     46333     46336     46338     46339
     46333     46336     46338     46340     46333     46336     46338     46341
     46334     46333     46336     46338     46335     46333     46336     46338
     46336     46338     46341     46342     46336     46338     46341     46343
     46336     46338     46341     46349     46337     46333     46336     46338
     46338     46341     46343     46344     46338     46341     46349     46350
     46338     46341     46349     46351     46338     46341     46349     46352
     46339     46338     46341     46342     46339     46338     46341     46343
     46339     46338     46341     46349     46340     46338     46341     46342
     46340     46338     46341     46343     46340     46338     46341     46349
     46341     46343     46344     46345     46341     46343     46344     46346
     46341     46349     46352     46353     46342     46341     46343     46344
     46342     46341     46349     46350     46342     46341     46349     46351
     46342     46341     46349     46352     46343     46341     46349     46350
     46343     46341     46349     46351     46343     46341     46349     46352
     46343     46344     46346     46347     46343     46344     46346     46348
     46343     46344     46346     46358     46344     46343     46341     46349
     46344     46346     46358     46359     46344     46346     46358     46360
     46344     46346     46358     46361     46345     46344     46346     46347
     46345     46344     46346     46348     46345     46344     46346     46358
     46346     46358     46361     46362     46346     46358     46361     46363
     46346     46358     46361     46364     46347     46346     46358     46359
     46347     46346     46358     46360     46347     46346     46358     46361
     46348     46346     46358     46359     46348     46346     46358     46360
     46348     46346     46358     46361     46349     46352     46353     46354
     46349     46352     46353     46355     46350     46349     46352     46353
     46351     46349     46352     46353     46352     46353     46355     46356
     46352     46353     46355     46357     46352     46353     46355     46399
     46353     46355     46399     46400     46353     46355     46399     46401
     46353     46355     46399     46402     46354     46353     46355     46356
     46354     46353     46355     46357     46354     46353     46355     46399
     46355     46399     46402     46403     46355     46399     46402     46404
     46355     46399     46402     46405     46356     46355     46399     46400
     46356     46355     46399     46401     46356     46355     46399     46402
     46357     46355     46399     46400     46357     46355     46399     46401
     46357     46355     46399     46402     46358     46361     46364     46365
     46358     46361     46364     46366     46358     46361     46364     46367
     46359     46358     46361     46362     46359     46358     46361     46363
     46359     46358     46361     46364     46360     46358     46361     46362
     46360     46358     46361     46363     46360     46358     46361     46364
     46361     46364     46367     46368     46361     46364     46367     46369
     46361     46364     46367     46370     46362     46361     46364     46365
     46362     46361     46364     46366     46362     46361     46364     46367
     46363     46361     46364     46365     46363     46361     46364     46366
     46363     46361     46364     46367     46364     46367     46370     46371
     46364     46367     46370     46372     46364     46367     46370     46373
     46365     46364     46367     46368     46365     46364     46367     46369
     46365     46364     46367     46370     46366     46364     46367     46368
     46366     46364     46367     46369     46366     46364     46367     46370
     46367     46370     46373     46374     46367     46370     46373     46375
     46367     46370     46373     46376     46368     46367     46370     46371
     46368     46367     46370     46372     46368     46367     46370     46373
     46369     46367     46370     46371     46369     46367     46370     46372
     46369     46367     46370     46373     46370     46373     46376     46377
     46370     46373     46376     46378     46371     46370     46373     46374
     46371     46370     46373     46375     46371     46370     46373     46376
     46372     46370     46373     46374     46372     46370     46373     46375
     46372     46370     46373     46376     46373     46376     46378     46379
     46373     46376     46378     46380     46374     46373     46376     46377
     46374     46373     46376     46378     46375     46373     46376     46377
     46375     46373     46376     46378     46376     46378     46380     46381
     46376     46378     46380     46382     46376     46378     46380     46383
     46377     46376     46378     46379     46377     46376     46378     46380
     46378     46380     46383     46384     46378     46380     46383     46385
     46378     46380     46383     46386     46379     46378     46380     46381
     46379     46378     46380     46382     46379     46378     46380     46383
     46380     46383     46386     46387     46380     46383     46386     46388
     46380     46383     46386     46389     46381     46380     46383     46384
     46381     46380     46383     46385     46381     46380     46383     46386
     46382     46380     46383     46384     46382     46380     46383     46385
     46382     46380     46383     46386     46383     46386     46389     46390
     46383     46386     46389     46391     46383     46386     46389     46392
     46384     46383     46386     46387     46384     46383     46386     46388
     46384     46383     46386     46389     46385     46383     46386     46387
     46385     46383     46386     46388     46385     46383     46386     46389
     46386     46389     46392     46393     46386     46389     46392     46394
     46386     46389     46392     46395     46387     46386     46389     46390
     46387     46386     46389     46391     46387     46386     46389     46392
     46388     46386     46389     46390     46388     46386     46389     46391
     46388     46386     46389     46392     46389     46392     46395     46396
     46389     46392     46395     46397     46389     46392     46395     46398
     46390     46389     46392     46393     46390     46389     46392     46394
     46390     46389     46392     46395     46391     46389     46392     46393
     46391     46389     46392     46394     46391     46389     46392     46395
     46393     46392     46395     46396     46393     46392     46395     46397
     46393     46392     46395     46398     46394     46392     46395     46396
     46394     46392     46395     46397     46394     46392     46395     46398
     46399     46402     46405     46406     46399     46402     46405     46407
     46399     46402     46405     46408     46400     46399     46402     46403
     46400     46399     46402     46404     46400     46399     46402     46405
     46401     46399     46402     46403     46401     46399     46402     46404
     46401     46399     46402     46405     46402     46405     46408     46409
     46402     46405     46408     46410     46402     46405     46408     46411
     46403     46402     46405     46406     46403     46402     46405     46407
     46403     46402     46405     46408     46404     46402     46405     46406
     46404     46402     46405     46407     46404     46402     46405     46408
     46405     46408     46411     46412     46405     46408     46411     46413
     46405     46408     46411     46414     46406     46405     46408     46409
     46406     46405     46408     46410     46406     46405     46408     46411
     46407     46405     46408     46409     46407     46405     46408     46410
     46407     46405     46408     46411     46408     46411     46414     46415
     46408     46411     46414     46416     46408     46411     46414     46417
     46409     46408     46411     46412     46409     46408     46411     46413
     46409     46408     46411     46414     46410     46408     46411     46412
     46410     46408     46411     46413     46410     46408     46411     46414
     46411     46414     46417     46418     46411     46414     46417     46419
     46411     46414     46417     46420     46412     46411     46414     46415
     46412     46411     46414     46416     46412     46411     46414     46417
     46413     46411     46414     46415     46413     46411     46414     46416
     46413     46411     46414     46417     46414     46417     46420     46421
     46414     46417     46420     46422     46414     46417     46420     46423
     46415     46414     46417     46418     46415     46414     46417     46419
     46415     46414     46417     46420     46416     46414     46417     46418
     46416     46414     46417     46419     46416     46414     46417     46420
     46417     46420     46423     46424     46417     46420     46423     46425
     46417     46420     46423     46426     46418     46417     46420     46421
     46418     46417     46420     46422     46418     46417     46420     46423
     46419     46417     46420     46421     46419     46417     46420     46422
     46419     46417     46420     46423     46420     46423     46426     46427
     46420     46423     46426     46428     46420     46423     46426     46429
     46421     46420     46423     46424     46421     46420     46423     46425
     46421     46420     46423     46426     46422     46420     46423     46424
     46422     46420     46423     46425     46422     46420     46423     46426
     46423     46426     46429     46430     46423     46426     46429     46431
     46423     46426     46429     46432     46424     46423     46426     46427
     46424     46423     46426     46428     46424     46423     46426     46429
     46425     46423     46426     46427     46425     46423     46426     46428
     46425     46423     46426     46429     46426     46429     46432     46433
     46426     46429     46432     46434     46426     46429     46432     46435
     46427     46426     46429     46430     46427     46426     46429     46431
     46427     46426     46429     46432     46428     46426     46429     46430
     46428     46426     46429     46431     46428     46426     46429     46432
     46429     46432     46435     46436     46429     46432     46435     46437
     46429     46432     46435     46438     46430     46429     46432     46433
     46430     46429     46432     46434     46430     46429     46432     46435
     46431     46429     46432     46433     46431     46429     46432     46434
     46431     46429     46432     46435     46432     46435     46438     46439
     46432     46435     46438     46440     46432     46435     46438     46441
     46433     46432     46435     46436     46433     46432     46435     46437
     46433     46432     46435     46438     46434     46432     46435     46436
     46434     46432     46435     46437     46434     46432     46435     46438
     46436     46435     46438     46439     46436     46435     46438     46440
     46436     46435     46438     46441     46437     46435     46438     46439
     46437     46435     46438     46440     46437     46435     46438     46441
     46442     46446     46449     46450     46442     46446     46449     46451
     46442     46446     46449     46456     46443     46442     46446     46447
     46443     46442     46446     46448     46443     46442     46446     46449
     46444     46442     46446     46447     46444     46442     46446     46448
     46444     46442     46446     46449     46445     46442     46446     46447
     46445     46442     46446     46448     46445     46442     46446     46449
     46446     46449     46456     46452     46447     46446     46449     46450
     46447     46446     46449     46451     46447     46446     46449     46456
     46448     46446     46449     46450     46448     46446     46449     46451
     46448     46446     46449     46456     46449     46456     46452     46453
     46449     46456     46452     46454     46449     46456     46452     46455
     46450     46449     46456     46452     46451     46449     46456     46452
     46452     46455     46457     46458     46452     46455     46457     46459
     46452     46455     46457     46460     46453     46452     46455     46457
     46454     46452     46455     46457     46455     46457     46460     46461
     46455     46457     46460     46462     46455     46457     46460     46468
     46456     46452     46455     46457     46457     46460     46462     46463
     46457     46460     46468     46469     46457     46460     46468     46470
     46457     46460     46468     46471     46458     46457     46460     46461
     46458     46457     46460     46462     46458     46457     46460     46468
     46459     46457     46460     46461     46459     46457     46460     46462
     46459     46457     46460     46468     46460     46462     46463     46464
     46460     46462     46463     46465     46460     46468     46471     46472
     46461     46460     46462     46463     46461     46460     46468     46469
     46461     46460     46468     46470     46461     46460     46468     46471
     46462     46460     46468     46469     46462     46460     46468     46470
     46462     46460     46468     46471     46462     46463     46465     46466
     46462     46463     46465     46467     46462     46463     46465     46477
     46463     46462     46460     46468     46463     46465     46477     46478
     46463     46465     46477     46479     46463     46465     46477     46480
     46464     46463     46465     46466     46464     46463     46465     46467
     46464     46463     46465     46477     46465     46477     46480     46481
     46465     46477     46480     46482     46465     46477     46480     46483
     46466     46465     46477     46478     46466     46465     46477     46479
     46466     46465     46477     46480     46467     46465     46477     46478
     46467     46465     46477     46479     46467     46465     46477     46480
     46468     46471     46472     46473     46468     46471     46472     46474
     46469     46468     46471     46472     46470     46468     46471     46472
     46471     46472     46474     46475     46471     46472     46474     46476
     46471     46472     46474     46518     46472     46474     46518     46519
     46472     46474     46518     46520     46472     46474     46518     46521
     46473     46472     46474     46475     46473     46472     46474     46476
     46473     46472     46474     46518     46474     46518     46521     46522
     46474     46518     46521     46523     46474     46518     46521     46524
     46475     46474     46518     46519     46475     46474     46518     46520
     46475     46474     46518     46521     46476     46474     46518     46519
     46476     46474     46518     46520     46476     46474     46518     46521
     46477     46480     46483     46484     46477     46480     46483     46485
     46477     46480     46483     46486     46478     46477     46480     46481
     46478     46477     46480     46482     46478     46477     46480     46483
     46479     46477     46480     46481     46479     46477     46480     46482
     46479     46477     46480     46483     46480     46483     46486     46487
     46480     46483     46486     46488     46480     46483     46486     46489
     46481     46480     46483     46484     46481     46480     46483     46485
     46481     46480     46483     46486     46482     46480     46483     46484
     46482     46480     46483     46485     46482     46480     46483     46486
     46483     46486     46489     46490     46483     46486     46489     46491
     46483     46486     46489     46492     46484     46483     46486     46487
     46484     46483     46486     46488     46484     46483     46486     46489
     46485     46483     46486     46487     46485     46483     46486     46488
     46485     46483     46486     46489     46486     46489     46492     46493
     46486     46489     46492     46494     46486     46489     46492     46495
     46487     46486     46489     46490     46487     46486     46489     46491
     46487     46486     46489     46492     46488     46486     46489     46490
     46488     46486     46489     46491     46488     46486     46489     46492
     46489     46492     46495     46496     46489     46492     46495     46497
     46490     46489     46492     46493     46490     46489     46492     46494
     46490     46489     46492     46495     46491     46489     46492     46493
     46491     46489     46492     46494     46491     46489     46492     46495
     46492     46495     46497     46498     46492     46495     46497     46499
     46493     46492     46495     46496     46493     46492     46495     46497
     46494     46492     46495     46496     46494     46492     46495     46497
     46495     46497     46499     46500     46495     46497     46499     46501
     46495     46497     46499     46502     46496     46495     46497     46498
     46496     46495     46497     46499     46497     46499     46502     46503
     46497     46499     46502     46504     46497     46499     46502     46505
     46498     46497     46499     46500     46498     46497     46499     46501
     46498     46497     46499     46502     46499     46502     46505     46506
     46499     46502     46505     46507     46499     46502     46505     46508
     46500     46499     46502     46503     46500     46499     46502     46504
     46500     46499     46502     46505     46501     46499     46502     46503
     46501     46499     46502     46504     46501     46499     46502     46505
     46502     46505     46508     46509     46502     46505     46508     46510
     46502     46505     46508     46511     46503     46502     46505     46506
     46503     46502     46505     46507     46503     46502     46505     46508
     46504     46502     46505     46506     46504     46502     46505     46507
     46504     46502     46505     46508     46505     46508     46511     46512
     46505     46508     46511     46513     46505     46508     46511     46514
     46506     46505     46508     46509     46506     46505     46508     46510
     46506     46505     46508     46511     46507     46505     46508     46509
     46507     46505     46508     46510     46507     46505     46508     46511
     46508     46511     46514     46515     46508     46511     46514     46516
     46508     46511     46514     46517     46509     46508     46511     46512
     46509     46508     46511     46513     46509     46508     46511     46514
     46510     46508     46511     46512     46510     46508     46511     46513
     46510     46508     46511     46514     46512     46511     46514     46515
     46512     46511     46514     46516     46512     46511     46514     46517
     46513     46511     46514     46515     46513     46511     46514     46516
     46513     46511     46514     46517     46518     46521     46524     46525
     46518     46521     46524     46526     46518     46521     46524     46527
     46519     46518     46521     46522     46519     46518     46521     46523
     46519     46518     46521     46524     46520     46518     46521     46522
     46520     46518     46521     46523     46520     46518     46521     46524
     46521     46524     46527     46528     46521     46524     46527     46529
     46521     46524     46527     46530     46522     46521     46524     46525
     46522     46521     46524     46526     46522     46521     46524     46527
     46523     46521     46524     46525     46523     46521     46524     46526
     46523     46521     46524     46527     46524     46527     46530     46531
     46524     46527     46530     46532     46524     46527     46530     46533
     46525     46524     46527     46528     46525     46524     46527     46529
     46525     46524     46527     46530     46526     46524     46527     46528
     46526     46524     46527     46529     46526     46524     46527     46530
     46527     46530     46533     46534     46527     46530     46533     46535
     46527     46530     46533     46536     46528     46527     46530     46531
     46528     46527     46530     46532     46528     46527     46530     46533
     46529     46527     46530     46531     46529     46527     46530     46532
     46529     46527     46530     46533     46530     46533     46536     46537
     46530     46533     46536     46538     46530     46533     46536     46539
     46531     46530     46533     46534     46531     46530     46533     46535
     46531     46530     46533     46536     46532     46530     46533     46534
     46532     46530     46533     46535     46532     46530     46533     46536
     46533     46536     46539     46540     46533     46536     46539     46541
     46533     46536     46539     46542     46534     46533     46536     46537
     46534     46533     46536     46538     46534     46533     46536     46539
     46535     46533     46536     46537     46535     46533     46536     46538
     46535     46533     46536     46539     46536     46539     46542     46543
     46536     46539     46542     46544     46536     46539     46542     46545
     46537     46536     46539     46540     46537     46536     46539     46541
     46537     46536     46539     46542     46538     46536     46539     46540
     46538     46536     46539     46541     46538     46536     46539     46542
     46539     46542     46545     46546     46539     46542     46545     46547
     46539     46542     46545     46548     46540     46539     46542     46543
     46540     46539     46542     46544     46540     46539     46542     46545
     46541     46539     46542     46543     46541     46539     46542     46544
     46541     46539     46542     46545     46542     46545     46548     46549
     46542     46545     46548     46550     46542     46545     46548     46551
     46543     46542     46545     46546     46543     46542     46545     46547
     46543     46542     46545     46548     46544     46542     46545     46546
     46544     46542     46545     46547     46544     46542     46545     46548
     46545     46548     46551     46552     46545     46548     46551     46553
     46545     46548     46551     46554     46546     46545     46548     46549
     46546     46545     46548     46550     46546     46545     46548     46551
     46547     46545     46548     46549     46547     46545     46548     46550
     46547     46545     46548     46551     46548     46551     46554     46555
     46548     46551     46554     46556     46548     46551     46554     46557
     46549     46548     46551     46552     46549     46548     46551     46553
     46549     46548     46551     46554     46550     46548     46551     46552
     46550     46548     46551     46553     46550     46548     46551     46554
     46551     46554     46557     46558     46551     46554     46557     46559
     46551     46554     46557     46560     46552     46551     46554     46555
     46552     46551     46554     46556     46552     46551     46554     46557
     46553     46551     46554     46555     46553     46551     46554     46556
     46553     46551     46554     46557     46555     46554     46557     46558
     46555     46554     46557     46559     46555     46554     46557     46560
     46556     46554     46557     46558     46556     46554     46557     46559
     46556     46554     46557     46560     46561     46565     46568     46569
     46561     46565     46568     46570     46561     46565     46568     46575
     46562     46561     46565     46566     46562     46561     46565     46567
     46562     46561     46565     46568     46563     46561     46565     46566
     46563     46561     46565     46567     46563     46561     46565     46568
     46564     46561     46565     46566     46564     46561     46565     46567
     46564     46561     46565     46568     46565     46568     46575     46571
     46566     46565     46568     46569     46566     46565     46568     46570
     46566     46565     46568     46575     46567     46565     46568     46569
     46567     46565     46568     46570     46567     46565     46568     46575
     46568     46575     46571     46572     46568     46575     46571     46573
     46568     46575     46571     46574     46569     46568     46575     46571
     46570     46568     46575     46571     46571     46574     46576     46577
     46571     46574     46576     46578     46571     46574     46576     46579
     46572     46571     46574     46576     46573     46571     46574     46576
     46574     46576     46579     46580     46574     46576     46579     46581
     46574     46576     46579     46587     46575     46571     46574     46576
     46576     46579     46581     46582     46576     46579     46587     46588
     46576     46579     46587     46589     46576     46579     46587     46590
     46577     46576     46579     46580     46577     46576     46579     46581
     46577     46576     46579     46587     46578     46576     46579     46580
     46578     46576     46579     46581     46578     46576     46579     46587
     46579     46581     46582     46583     46579     46581     46582     46584
     46579     46587     46590     46591     46580     46579     46581     46582
     46580     46579     46587     46588     46580     46579     46587     46589
     46580     46579     46587     46590     46581     46579     46587     46588
     46581     46579     46587     46589     46581     46579     46587     46590
     46581     46582     46584     46585     46581     46582     46584     46586
     46581     46582     46584     46596     46582     46581     46579     46587
     46582     46584     46596     46597     46582     46584     46596     46598
     46582     46584     46596     46599     46583     46582     46584     46585
     46583     46582     46584     46586     46583     46582     46584     46596
     46584     46596     46599     46600     46584     46596     46599     46601
     46584     46596     46599     46602     46585     46584     46596     46597
     46585     46584     46596     46598     46585     46584     46596     46599
     46586     46584     46596     46597     46586     46584     46596     46598
     46586     46584     46596     46599     46587     46590     46591     46592
     46587     46590     46591     46593     46588     46587     46590     46591
     46589     46587     46590     46591     46590     46591     46593     46594
     46590     46591     46593     46595     46590     46591     46593     46637
     46591     46593     46637     46638     46591     46593     46637     46639
     46591     46593     46637     46640     46592     46591     46593     46594
     46592     46591     46593     46595     46592     46591     46593     46637
     46593     46637     46640     46641     46593     46637     46640     46642
     46593     46637     46640     46643     46594     46593     46637     46638
     46594     46593     46637     46639     46594     46593     46637     46640
     46595     46593     46637     46638     46595     46593     46637     46639
     46595     46593     46637     46640     46596     46599     46602     46603
     46596     46599     46602     46604     46596     46599     46602     46605
     46597     46596     46599     46600     46597     46596     46599     46601
     46597     46596     46599     46602     46598     46596     46599     46600
     46598     46596     46599     46601     46598     46596     46599     46602
     46599     46602     46605     46606     46599     46602     46605     46607
     46599     46602     46605     46608     46600     46599     46602     46603
     46600     46599     46602     46604     46600     46599     46602     46605
     46601     46599     46602     46603     46601     46599     46602     46604
     46601     46599     46602     46605     46602     46605     46608     46609
     46602     46605     46608     46610     46602     46605     46608     46611
     46603     46602     46605     46606     46603     46602     46605     46607
     46603     46602     46605     46608     46604     46602     46605     46606
     46604     46602     46605     46607     46604     46602     46605     46608
     46605     46608     46611     46612     46605     46608     46611     46613
     46605     46608     46611     46614     46606     46605     46608     46609
     46606     46605     46608     46610     46606     46605     46608     46611
     46607     46605     46608     46609     46607     46605     46608     46610
     46607     46605     46608     46611     46608     46611     46614     46615
     46608     46611     46614     46616     46609     46608     46611     46612
     46609     46608     46611     46613     46609     46608     46611     46614
     46610     46608     46611     46612     46610     46608     46611     46613
     46610     46608     46611     46614     46611     46614     46616     46617
     46611     46614     46616     46618     46612     46611     46614     46615
     46612     46611     46614     46616     46613     46611     46614     46615
     46613     46611     46614     46616     46614     46616     46618     46619
     46614     46616     46618     46620     46614     46616     46618     46621
     46615     46614     46616     46617     46615     46614     46616     46618
     46616     46618     46621     46622     46616     46618     46621     46623
     46616     46618     46621     46624     46617     46616     46618     46619
     46617     46616     46618     46620     46617     46616     46618     46621
     46618     46621     46624     46625     46618     46621     46624     46626
     46618     46621     46624     46627     46619     46618     46621     46622
     46619     46618     46621     46623     46619     46618     46621     46624
     46620     46618     46621     46622     46620     46618     46621     46623
     46620     46618     46621     46624     46621     46624     46627     46628
     46621     46624     46627     46629     46621     46624     46627     46630
     46622     46621     46624     46625     46622     46621     46624     46626
     46622     46621     46624     46627     46623     46621     46624     46625
     46623     46621     46624     46626     46623     46621     46624     46627
     46624     46627     46630     46631     46624     46627     46630     46632
     46624     46627     46630     46633     46625     46624     46627     46628
     46625     46624     46627     46629     46625     46624     46627     46630
     46626     46624     46627     46628     46626     46624     46627     46629
     46626     46624     46627     46630     46627     46630     46633     46634
     46627     46630     46633     46635     46627     46630     46633     46636
     46628     46627     46630     46631     46628     46627     46630     46632
     46628     46627     46630     46633     46629     46627     46630     46631
     46629     46627     46630     46632     46629     46627     46630     46633
     46631     46630     46633     46634     46631     46630     46633     46635
     46631     46630     46633     46636     46632     46630     46633     46634
     46632     46630     46633     46635     46632     46630     46633     46636
     46637     46640     46643     46644     46637     46640     46643     46645
     46637     46640     46643     46646     46638     46637     46640     46641
     46638     46637     46640     46642     46638     46637     46640     46643
     46639     46637     46640     46641     46639     46637     46640     46642
     46639     46637     46640     46643     46640     46643     46646     46647
     46640     46643     46646     46648     46640     46643     46646     46649
     46641     46640     46643     46644     46641     46640     46643     46645
     46641     46640     46643     46646     46642     46640     46643     46644
     46642     46640     46643     46645     46642     46640     46643     46646
     46643     46646     46649     46650     46643     46646     46649     46651
     46643     46646     46649     46652     46644     46643     46646     46647
     46644     46643     46646     46648     46644     46643     46646     46649
     46645     46643     46646     46647     46645     46643     46646     46648
     46645     46643     46646     46649     46646     46649     46652     46653
     46646     46649     46652     46654     46646     46649     46652     46655
     46647     46646     46649     46650     46647     46646     46649     46651
     46647     46646     46649     46652     46648     46646     46649     46650
     46648     46646     46649     46651     46648     46646     46649     46652
     46649     46652     46655     46656     46649     46652     46655     46657
     46649     46652     46655     46658     46650     46649     46652     46653
     46650     46649     46652     46654     46650     46649     46652     46655
     46651     46649     46652     46653     46651     46649     46652     46654
     46651     46649     46652     46655     46652     46655     46658     46659
     46652     46655     46658     46660     46652     46655     46658     46661
     46653     46652     46655     46656     46653     46652     46655     46657
     46653     46652     46655     46658     46654     46652     46655     46656
     46654     46652     46655     46657     46654     46652     46655     46658
     46655     46658     46661     46662     46655     46658     46661     46663
     46655     46658     46661     46664     46656     46655     46658     46659
     46656     46655     46658     46660     46656     46655     46658     46661
     46657     46655     46658     46659     46657     46655     46658     46660
     46657     46655     46658     46661     46658     46661     46664     46665
     46658     46661     46664     46666     46658     46661     46664     46667
     46659     46658     46661     46662     46659     46658     46661     46663
     46659     46658     46661     46664     46660     46658     46661     46662
     46660     46658     46661     46663     46660     46658     46661     46664
     46661     46664     46667     46668     46661     46664     46667     46669
     46661     46664     46667     46670     46662     46661     46664     46665
     46662     46661     46664     46666     46662     46661     46664     46667
     46663     46661     46664     46665     46663     46661     46664     46666
     46663     46661     46664     46667     46664     46667     46670     46671
     46664     46667     46670     46672     46664     46667     46670     46673
     46665     46664     46667     46668     46665     46664     46667     46669
     46665     46664     46667     46670     46666     46664     46667     46668
     46666     46664     46667     46669     46666     46664     46667     46670
     46667     46670     46673     46674     46667     46670     46673     46675
     46667     46670     46673     46676     46668     46667     46670     46671
     46668     46667     46670     46672     46668     46667     46670     46673
     46669     46667     46670     46671     46669     46667     46670     46672
     46669     46667     46670     46673     46670     46673     46676     46677
     46670     46673     46676     46678     46670     46673     46676     46679
     46671     46670     46673     46674     46671     46670     46673     46675
     46671     46670     46673     46676     46672     46670     46673     46674
     46672     46670     46673     46675     46672     46670     46673     46676
     46674     46673     46676     46677     46674     46673     46676     46678
     46674     46673     46676     46679     46675     46673     46676     46677
     46675     46673     46676     46678     46675     46673     46676     46679
     46680     46684     46687     46688     46680     46684     46687     46689
     46680     46684     46687     46694     46681     46680     46684     46685
     46681     46680     46684     46686     46681     46680     46684     46687
     46682     46680     46684     46685     46682     46680     46684     46686
     46682     46680     46684     46687     46683     46680     46684     46685
     46683     46680     46684     46686     46683     46680     46684     46687
     46684     46687     46694     46690     46685     46684     46687     46688
     46685     46684     46687     46689     46685     46684     46687     46694
     46686     46684     46687     46688     46686     46684     46687     46689
     46686     46684     46687     46694     46687     46694     46690     46691
     46687     46694     46690     46692     46687     46694     46690     46693
     46688     46687     46694     46690     46689     46687     46694     46690
     46690     46693     46695     46696     46690     46693     46695     46697
     46690     46693     46695     46698     46691     46690     46693     46695
     46692     46690     46693     46695     46693     46695     46698     46699
     46693     46695     46698     46700     46693     46695     46698     46706
     46694     46690     46693     46695     46695     46698     46700     46701
     46695     46698     46706     46707     46695     46698     46706     46708
     46695     46698     46706     46709     46696     46695     46698     46699
     46696     46695     46698     46700     46696     46695     46698     46706
     46697     46695     46698     46699     46697     46695     46698     46700
     46697     46695     46698     46706     46698     46700     46701     46702
     46698     46700     46701     46703     46698     46706     46709     46710
     46699     46698     46700     46701     46699     46698     46706     46707
     46699     46698     46706     46708     46699     46698     46706     46709
     46700     46698     46706     46707     46700     46698     46706     46708
     46700     46698     46706     46709     46700     46701     46703     46704
     46700     46701     46703     46705     46700     46701     46703     46715
     46701     46700     46698     46706     46701     46703     46715     46716
     46701     46703     46715     46717     46701     46703     46715     46718
     46702     46701     46703     46704     46702     46701     46703     46705
     46702     46701     46703     46715     46703     46715     46718     46719
     46703     46715     46718     46720     46703     46715     46718     46721
     46704     46703     46715     46716     46704     46703     46715     46717
     46704     46703     46715     46718     46705     46703     46715     46716
     46705     46703     46715     46717     46705     46703     46715     46718
     46706     46709     46710     46711     46706     46709     46710     46712
     46707     46706     46709     46710     46708     46706     46709     46710
     46709     46710     46712     46713     46709     46710     46712     46714
     46709     46710     46712     46756     46710     46712     46756     46757
     46710     46712     46756     46758     46710     46712     46756     46759
     46711     46710     46712     46713     46711     46710     46712     46714
     46711     46710     46712     46756     46712     46756     46759     46760
     46712     46756     46759     46761     46712     46756     46759     46762
     46713     46712     46756     46757     46713     46712     46756     46758
     46713     46712     46756     46759     46714     46712     46756     46757
     46714     46712     46756     46758     46714     46712     46756     46759
     46715     46718     46721     46722     46715     46718     46721     46723
     46715     46718     46721     46724     46716     46715     46718     46719
     46716     46715     46718     46720     46716     46715     46718     46721
     46717     46715     46718     46719     46717     46715     46718     46720
     46717     46715     46718     46721     46718     46721     46724     46725
     46718     46721     46724     46726     46718     46721     46724     46727
     46719     46718     46721     46722     46719     46718     46721     46723
     46719     46718     46721     46724     46720     46718     46721     46722
     46720     46718     46721     46723     46720     46718     46721     46724
     46721     46724     46727     46728     46721     46724     46727     46729
     46721     46724     46727     46730     46722     46721     46724     46725
     46722     46721     46724     46726     46722     46721     46724     46727
     46723     46721     46724     46725     46723     46721     46724     46726
     46723     46721     46724     46727     46724     46727     46730     46731
     46724     46727     46730     46732     46724     46727     46730     46733
     46725     46724     46727     46728     46725     46724     46727     46729
     46725     46724     46727     46730     46726     46724     46727     46728
     46726     46724     46727     46729     46726     46724     46727     46730
     46727     46730     46733     46734     46727     46730     46733     46735
     46728     46727     46730     46731     46728     46727     46730     46732
     46728     46727     46730     46733     46729     46727     46730     46731
     46729     46727     46730     46732     46729     46727     46730     46733
     46730     46733     46735     46736     46730     46733     46735     46737
     46731     46730     46733     46734     46731     46730     46733     46735
     46732     46730     46733     46734     46732     46730     46733     46735
     46733     46735     46737     46738     46733     46735     46737     46739
     46733     46735     46737     46740     46734     46733     46735     46736
     46734     46733     46735     46737     46735     46737     46740     46741
     46735     46737     46740     46742     46735     46737     46740     46743
     46736     46735     46737     46738     46736     46735     46737     46739
     46736     46735     46737     46740     46737     46740     46743     46744
     46737     46740     46743     46745     46737     46740     46743     46746
     46738     46737     46740     46741     46738     46737     46740     46742
     46738     46737     46740     46743     46739     46737     46740     46741
     46739     46737     46740     46742     46739     46737     46740     46743
     46740     46743     46746     46747     46740     46743     46746     46748
     46740     46743     46746     46749     46741     46740     46743     46744
     46741     46740     46743     46745     46741     46740     46743     46746
     46742     46740     46743     46744     46742     46740     46743     46745
     46742     46740     46743     46746     46743     46746     46749     46750
     46743     46746     46749     46751     46743     46746     46749     46752
     46744     46743     46746     46747     46744     46743     46746     46748
     46744     46743     46746     46749     46745     46743     46746     46747
     46745     46743     46746     46748     46745     46743     46746     46749
     46746     46749     46752     46753     46746     46749     46752     46754
     46746     46749     46752     46755     46747     46746     46749     46750
     46747     46746     46749     46751     46747     46746     46749     46752
     46748     46746     46749     46750     46748     46746     46749     46751
     46748     46746     46749     46752     46750     46749     46752     46753
     46750     46749     46752     46754     46750     46749     46752     46755
     46751     46749     46752     46753     46751     46749     46752     46754
     46751     46749     46752     46755     46756     46759     46762     46763
     46756     46759     46762     46764     46756     46759     46762     46765
     46757     46756     46759     46760     46757     46756     46759     46761
     46757     46756     46759     46762     46758     46756     46759     46760
     46758     46756     46759     46761     46758     46756     46759     46762
     46759     46762     46765     46766     46759     46762     46765     46767
     46759     46762     46765     46768     46760     46759     46762     46763
     46760     46759     46762     46764     46760     46759     46762     46765
     46761     46759     46762     46763     46761     46759     46762     46764
     46761     46759     46762     46765     46762     46765     46768     46769
     46762     46765     46768     46770     46762     46765     46768     46771
     46763     46762     46765     46766     46763     46762     46765     46767
     46763     46762     46765     46768     46764     46762     46765     46766
     46764     46762     46765     46767     46764     46762     46765     46768
     46765     46768     46771     46772     46765     46768     46771     46773
     46765     46768     46771     46774     46766     46765     46768     46769
     46766     46765     46768     46770     46766     46765     46768     46771
     46767     46765     46768     46769     46767     46765     46768     46770
     46767     46765     46768     46771     46768     46771     46774     46775
     46768     46771     46774     46776     46768     46771     46774     46777
     46769     46768     46771     46772     46769     46768     46771     46773
     46769     46768     46771     46774     46770     46768     46771     46772
     46770     46768     46771     46773     46770     46768     46771     46774
     46771     46774     46777     46778     46771     46774     46777     46779
     46771     46774     46777     46780     46772     46771     46774     46775
     46772     46771     46774     46776     46772     46771     46774     46777
     46773     46771     46774     46775     46773     46771     46774     46776
     46773     46771     46774     46777     46774     46777     46780     46781
     46774     46777     46780     46782     46774     46777     46780     46783
     46775     46774     46777     46778     46775     46774     46777     46779
     46775     46774     46777     46780     46776     46774     46777     46778
     46776     46774     46777     46779     46776     46774     46777     46780
     46777     46780     46783     46784     46777     46780     46783     46785
     46777     46780     46783     46786     46778     46777     46780     46781
     46778     46777     46780     46782     46778     46777     46780     46783
     46779     46777     46780     46781     46779     46777     46780     46782
     46779     46777     46780     46783     46780     46783     46786     46787
     46780     46783     46786     46788     46780     46783     46786     46789
     46781     46780     46783     46784     46781     46780     46783     46785
     46781     46780     46783     46786     46782     46780     46783     46784
     46782     46780     46783     46785     46782     46780     46783     46786
     46783     46786     46789     46790     46783     46786     46789     46791
     46783     46786     46789     46792     46784     46783     46786     46787
     46784     46783     46786     46788     46784     46783     46786     46789
     46785     46783     46786     46787     46785     46783     46786     46788
     46785     46783     46786     46789     46786     46789     46792     46793
     46786     46789     46792     46794     46786     46789     46792     46795
     46787     46786     46789     46790     46787     46786     46789     46791
     46787     46786     46789     46792     46788     46786     46789     46790
     46788     46786     46789     46791     46788     46786     46789     46792
     46789     46792     46795     46796     46789     46792     46795     46797
     46789     46792     46795     46798     46790     46789     46792     46793
     46790     46789     46792     46794     46790     46789     46792     46795
     46791     46789     46792     46793     46791     46789     46792     46794
     46791     46789     46792     46795     46793     46792     46795     46796
     46793     46792     46795     46797     46793     46792     46795     46798
     46794     46792     46795     46796     46794     46792     46795     46797
     46794     46792     46795     46798     46799     46803     46806     46807
     46799     46803     46806     46808     46799     46803     46806     46813
     46800     46799     46803     46804     46800     46799     46803     46805
     46800     46799     46803     46806     46801     46799     46803     46804
     46801     46799     46803     46805     46801     46799     46803     46806
     46802     46799     46803     46804     46802     46799     46803     46805
     46802     46799     46803     46806     46803     46806     46813     46809
     46804     46803     46806     46807     46804     46803     46806     46808
     46804     46803     46806     46813     46805     46803     46806     46807
     46805     46803     46806     46808     46805     46803     46806     46813
     46806     46813     46809     46810     46806     46813     46809     46811
     46806     46813     46809     46812     46807     46806     46813     46809
     46808     46806     46813     46809     46809     46812     46814     46815
     46809     46812     46814     46816     46809     46812     46814     46817
     46810     46809     46812     46814     46811     46809     46812     46814
     46812     46814     46817     46818     46812     46814     46817     46819
     46812     46814     46817     46825     46813     46809     46812     46814
     46814     46817     46819     46820     46814     46817     46825     46826
     46814     46817     46825     46827     46814     46817     46825     46828
     46815     46814     46817     46818     46815     46814     46817     46819
     46815     46814     46817     46825     46816     46814     46817     46818
     46816     46814     46817     46819     46816     46814     46817     46825
     46817     46819     46820     46821     46817     46819     46820     46822
     46817     46825     46828     46829     46818     46817     46819     46820
     46818     46817     46825     46826     46818     46817     46825     46827
     46818     46817     46825     46828     46819     46817     46825     46826
     46819     46817     46825     46827     46819     46817     46825     46828
     46819     46820     46822     46823     46819     46820     46822     46824
     46819     46820     46822     46834     46820     46819     46817     46825
     46820     46822     46834     46835     46820     46822     46834     46836
     46820     46822     46834     46837     46821     46820     46822     46823
     46821     46820     46822     46824     46821     46820     46822     46834
     46822     46834     46837     46838     46822     46834     46837     46839
     46822     46834     46837     46840     46823     46822     46834     46835
     46823     46822     46834     46836     46823     46822     46834     46837
     46824     46822     46834     46835     46824     46822     46834     46836
     46824     46822     46834     46837     46825     46828     46829     46830
     46825     46828     46829     46831     46826     46825     46828     46829
     46827     46825     46828     46829     46828     46829     46831     46832
     46828     46829     46831     46833     46828     46829     46831     46875
     46829     46831     46875     46876     46829     46831     46875     46877
     46829     46831     46875     46878     46830     46829     46831     46832
     46830     46829     46831     46833     46830     46829     46831     46875
     46831     46875     46878     46879     46831     46875     46878     46880
     46831     46875     46878     46881     46832     46831     46875     46876
     46832     46831     46875     46877     46832     46831     46875     46878
     46833     46831     46875     46876     46833     46831     46875     46877
     46833     46831     46875     46878     46834     46837     46840     46841
     46834     46837     46840     46842     46834     46837     46840     46843
     46835     46834     46837     46838     46835     46834     46837     46839
     46835     46834     46837     46840     46836     46834     46837     46838
     46836     46834     46837     46839     46836     46834     46837     46840
     46837     46840     46843     46844     46837     46840     46843     46845
     46837     46840     46843     46846     46838     46837     46840     46841
     46838     46837     46840     46842     46838     46837     46840     46843
     46839     46837     46840     46841     46839     46837     46840     46842
     46839     46837     46840     46843     46840     46843     46846     46847
     46840     46843     46846     46848     46840     46843     46846     46849
     46841     46840     46843     46844     46841     46840     46843     46845
     46841     46840     46843     46846     46842     46840     46843     46844
     46842     46840     46843     46845     46842     46840     46843     46846
     46843     46846     46849     46850     46843     46846     46849     46851
     46843     46846     46849     46852     46844     46843     46846     46847
     46844     46843     46846     46848     46844     46843     46846     46849
     46845     46843     46846     46847     46845     46843     46846     46848
     46845     46843     46846     46849     46846     46849     46852     46853
     46846     46849     46852     46854     46847     46846     46849     46850
     46847     46846     46849     46851     46847     46846     46849     46852
     46848     46846     46849     46850     46848     46846     46849     46851
     46848     46846     46849     46852     46849     46852     46854     46855
     46849     46852     46854     46856     46850     46849     46852     46853
     46850     46849     46852     46854     46851     46849     46852     46853
     46851     46849     46852     46854     46852     46854     46856     46857
     46852     46854     46856     46858     46852     46854     46856     46859
     46853     46852     46854     46855     46853     46852     46854     46856
     46854     46856     46859     46860     46854     46856     46859     46861
     46854     46856     46859     46862     46855     46854     46856     46857
     46855     46854     46856     46858     46855     46854     46856     46859
     46856     46859     46862     46863     46856     46859     46862     46864
     46856     46859     46862     46865     46857     46856     46859     46860
     46857     46856     46859     46861     46857     46856     46859     46862
     46858     46856     46859     46860     46858     46856     46859     46861
     46858     46856     46859     46862     46859     46862     46865     46866
     46859     46862     46865     46867     46859     46862     46865     46868
     46860     46859     46862     46863     46860     46859     46862     46864
     46860     46859     46862     46865     46861     46859     46862     46863
     46861     46859     46862     46864     46861     46859     46862     46865
     46862     46865     46868     46869     46862     46865     46868     46870
     46862     46865     46868     46871     46863     46862     46865     46866
     46863     46862     46865     46867     46863     46862     46865     46868
     46864     46862     46865     46866     46864     46862     46865     46867
     46864     46862     46865     46868     46865     46868     46871     46872
     46865     46868     46871     46873     46865     46868     46871     46874
     46866     46865     46868     46869     46866     46865     46868     46870
     46866     46865     46868     46871     46867     46865     46868     46869
     46867     46865     46868     46870     46867     46865     46868     46871
     46869     46868     46871     46872     46869     46868     46871     46873
     46869     46868     46871     46874     46870     46868     46871     46872
     46870     46868     46871     46873     46870     46868     46871     46874
     46875     46878     46881     46882     46875     46878     46881     46883
     46875     46878     46881     46884     46876     46875     46878     46879
     46876     46875     46878     46880     46876     46875     46878     46881
     46877     46875     46878     46879     46877     46875     46878     46880
     46877     46875     46878     46881     46878     46881     46884     46885
     46878     46881     46884     46886     46878     46881     46884     46887
     46879     46878     46881     46882     46879     46878     46881     46883
     46879     46878     46881     46884     46880     46878     46881     46882
     46880     46878     46881     46883     46880     46878     46881     46884
     46881     46884     46887     46888     46881     46884     46887     46889
     46881     46884     46887     46890     46882     46881     46884     46885
     46882     46881     46884     46886     46882     46881     46884     46887
     46883     46881     46884     46885     46883     46881     46884     46886
     46883     46881     46884     46887     46884     46887     46890     46891
     46884     46887     46890     46892     46884     46887     46890     46893
     46885     46884     46887     46888     46885     46884     46887     46889
     46885     46884     46887     46890     46886     46884     46887     46888
     46886     46884     46887     46889     46886     46884     46887     46890
     46887     46890     46893     46894     46887     46890     46893     46895
     46887     46890     46893     46896     46888     46887     46890     46891
     46888     46887     46890     46892     46888     46887     46890     46893
     46889     46887     46890     46891     46889     46887     46890     46892
     46889     46887     46890     46893     46890     46893     46896     46897
     46890     46893     46896     46898     46890     46893     46896     46899
     46891     46890     46893     46894     46891     46890     46893     46895
     46891     46890     46893     46896     46892     46890     46893     46894
     46892     46890     46893     46895     46892     46890     46893     46896
     46893     46896     46899     46900     46893     46896     46899     46901
     46893     46896     46899     46902     46894     46893     46896     46897
     46894     46893     46896     46898     46894     46893     46896     46899
     46895     46893     46896     46897     46895     46893     46896     46898
     46895     46893     46896     46899     46896     46899     46902     46903
     46896     46899     46902     46904     46896     46899     46902     46905
     46897     46896     46899     46900     46897     46896     46899     46901
     46897     46896     46899     46902     46898     46896     46899     46900
     46898     46896     46899     46901     46898     46896     46899     46902
     46899     46902     46905     46906     46899     46902     46905     46907
     46899     46902     46905     46908     46900     46899     46902     46903
     46900     46899     46902     46904     46900     46899     46902     46905
     46901     46899     46902     46903     46901     46899     46902     46904
     46901     46899     46902     46905     46902     46905     46908     46909
     46902     46905     46908     46910     46902     46905     46908     46911
     46903     46902     46905     46906     46903     46902     46905     46907
     46903     46902     46905     46908     46904     46902     46905     46906
     46904     46902     46905     46907     46904     46902     46905     46908
     46905     46908     46911     46912     46905     46908     46911     46913
     46905     46908     46911     46914     46906     46905     46908     46909
     46906     46905     46908     46910     46906     46905     46908     46911
     46907     46905     46908     46909     46907     46905     46908     46910
     46907     46905     46908     46911     46908     46911     46914     46915
     46908     46911     46914     46916     46908     46911     46914     46917
     46909     46908     46911     46912     46909     46908     46911     46913
     46909     46908     46911     46914     46910     46908     46911     46912
     46910     46908     46911     46913     46910     46908     46911     46914
     46912     46911     46914     46915     46912     46911     46914     46916
     46912     46911     46914     46917     46913     46911     46914     46915
     46913     46911     46914     46916     46913     46911     46914     46917
     46918     46923     46925     46926     46918     46923     46927     46928
     46918     46923     46927     46929     46918     46923     46927     46933
     46919     46918     46921     46922     46919     46918     46923     46924
     46919     46918     46923     46925     46919     46918     46923     46927
     46920     46918     46921     46922     46920     46918     46923     46924
     46920     46918     46923     46925     46920     46918     46923     46927
     46921     46918     46923     46924     46921     46918     46923     46925
     46921     46918     46923     46927     46922     46921     46918     46923
     46923     46927     46933     46930     46924     46923     46925     46926
     46924     46923     46927     46928     46924     46923     46927     46929
     46924     46923     46927     46933     46925     46923     46927     46928
     46925     46923     46927     46929     46925     46923     46927     46933
     46926     46925     46923     46927     46927     46933     46930     46931
     46927     46933     46930     46932     46927     46933     46930     46934
     46928     46927     46933     46930     46929     46927     46933     46930
     46930     46934     46935     46936     46930     46934     46935     46937
     46930     46934     46935     46938     46931     46930     46934     46935
     46932     46930     46934     46935     46933     46930     46934     46935
     46934     46935     46938     46939     46934     46935     46938     46940
     46934     46935     46938     46946     46935     46938     46940     46941
     46935     46938     46946     46947     46935     46938     46946     46948
     46935     46938     46946     46949     46936     46935     46938     46939
     46936     46935     46938     46940     46936     46935     46938     46946
     46937     46935     46938     46939     46937     46935     46938     46940
     46937     46935     46938     46946     46938     46940     46941     46942
     46938     46940     46941     46943     46938     46946     46949     46950
     46939     46938     46940     46941     46939     46938     46946     46947
     46939     46938     46946     46948     46939     46938     46946     46949
     46940     46938     46946     46947     46940     46938     46946     46948
     46940     46938     46946     46949     46940     46941     46943     46944
     46940     46941     46943     46945     46940     46941     46943     46955
     46941     46940     46938     46946     46941     46943     46955     46956
     46941     46943     46955     46957     46941     46943     46955     46958
     46942     46941     46943     46944     46942     46941     46943     46945
     46942     46941     46943     46955     46943     46955     46958     46959
     46943     46955     46958     46960     46943     46955     46958     46961
     46944     46943     46955     46956     46944     46943     46955     46957
     46944     46943     46955     46958     46945     46943     46955     46956
     46945     46943     46955     46957     46945     46943     46955     46958
     46946     46949     46950     46951     46946     46949     46950     46952
     46947     46946     46949     46950     46948     46946     46949     46950
     46949     46950     46952     46953     46949     46950     46952     46954
     46949     46950     46952     47002     46950     46952     47002     47003
     46950     46952     47002     47004     46950     46952     47002     47005
     46951     46950     46952     46953     46951     46950     46952     46954
     46951     46950     46952     47002     46952     47002     47005     47006
     46952     47002     47005     47007     46952     47002     47005     47008
     46953     46952     47002     47003     46953     46952     47002     47004
     46953     46952     47002     47005     46954     46952     47002     47003
     46954     46952     47002     47004     46954     46952     47002     47005
     46955     46958     46961     46962     46955     46958     46961     46963
     46955     46958     46961     46964     46956     46955     46958     46959
     46956     46955     46958     46960     46956     46955     46958     46961
     46957     46955     46958     46959     46957     46955     46958     46960
     46957     46955     46958     46961     46958     46961     46964     46965
     46958     46961     46964     46966     46958     46961     46964     46967
     46959     46958     46961     46962     46959     46958     46961     46963
     46959     46958     46961     46964     46960     46958     46961     46962
     46960     46958     46961     46963     46960     46958     46961     46964
     46961     46964     46967     46968     46961     46964     46967     46969
     46961     46964     46967     46970     46962     46961     46964     46965
     46962     46961     46964     46966     46962     46961     46964     46967
     46963     46961     46964     46965     46963     46961     46964     46966
     46963     46961     46964     46967     46964     46967     46970     46971
     46964     46967     46970     46972     46964     46967     46970     46973
     46965     46964     46967     46968     46965     46964     46967     46969
     46965     46964     46967     46970     46966     46964     46967     46968
     46966     46964     46967     46969     46966     46964     46967     46970
     46967     46970     46973     46974     46967     46970     46973     46975
     46967     46970     46973     46976     46968     46967     46970     46971
     46968     46967     46970     46972     46968     46967     46970     46973
     46969     46967     46970     46971     46969     46967     46970     46972
     46969     46967     46970     46973     46970     46973     46976     46977
     46970     46973     46976     46978     46970     46973     46976     46979
     46971     46970     46973     46974     46971     46970     46973     46975
     46971     46970     46973     46976     46972     46970     46973     46974
     46972     46970     46973     46975     46972     46970     46973     46976
     46973     46976     46979     46980     46973     46976     46979     46981
     46974     46973     46976     46977     46974     46973     46976     46978
     46974     46973     46976     46979     46975     46973     46976     46977
     46975     46973     46976     46978     46975     46973     46976     46979
     46976     46979     46981     46982     46976     46979     46981     46983
     46977     46976     46979     46980     46977     46976     46979     46981
     46978     46976     46979     46980     46978     46976     46979     46981
     46979     46981     46983     46984     46979     46981     46983     46985
     46979     46981     46983     46986     46980     46979     46981     46982
     46980     46979     46981     46983     46981     46983     46986     46987
     46981     46983     46986     46988     46981     46983     46986     46989
     46982     46981     46983     46984     46982     46981     46983     46985
     46982     46981     46983     46986     46983     46986     46989     46990
     46983     46986     46989     46991     46983     46986     46989     46992
     46984     46983     46986     46987     46984     46983     46986     46988
     46984     46983     46986     46989     46985     46983     46986     46987
     46985     46983     46986     46988     46985     46983     46986     46989
     46986     46989     46992     46993     46986     46989     46992     46994
     46986     46989     46992     46995     46987     46986     46989     46990
     46987     46986     46989     46991     46987     46986     46989     46992
     46988     46986     46989     46990     46988     46986     46989     46991
     46988     46986     46989     46992     46989     46992     46995     46996
     46989     46992     46995     46997     46989     46992     46995     46998
     46990     46989     46992     46993     46990     46989     46992     46994
     46990     46989     46992     46995     46991     46989     46992     46993
     46991     46989     46992     46994     46991     46989     46992     46995
     46992     46995     46998     46999     46992     46995     46998     47000
     46992     46995     46998     47001     46993     46992     46995     46996
     46993     46992     46995     46997     46993     46992     46995     46998
     46994     46992     46995     46996     46994     46992     46995     46997
     46994     46992     46995     46998     46996     46995     46998     46999
     46996     46995     46998     47000     46996     46995     46998     47001
     46997     46995     46998     46999     46997     46995     46998     47000
     46997     46995     46998     47001     47002     47005     47008     47009
     47002     47005     47008     47010     47002     47005     47008     47011
     47003     47002     47005     47006     47003     47002     47005     47007
     47003     47002     47005     47008     47004     47002     47005     47006
     47004     47002     47005     47007     47004     47002     47005     47008
     47005     47008     47011     47012     47005     47008     47011     47013
     47005     47008     47011     47014     47006     47005     47008     47009
     47006     47005     47008     47010     47006     47005     47008     47011
     47007     47005     47008     47009     47007     47005     47008     47010
     47007     47005     47008     47011     47008     47011     47014     47015
     47008     47011     47014     47016     47008     47011     47014     47017
     47009     47008     47011     47012     47009     47008     47011     47013
     47009     47008     47011     47014     47010     47008     47011     47012
     47010     47008     47011     47013     47010     47008     47011     47014
     47011     47014     47017     47018     47011     47014     47017     47019
     47011     47014     47017     47020     47012     47011     47014     47015
     47012     47011     47014     47016     47012     47011     47014     47017
     47013     47011     47014     47015     47013     47011     47014     47016
     47013     47011     47014     47017     47014     47017     47020     47021
     47014     47017     47020     47022     47014     47017     47020     47023
     47015     47014     47017     47018     47015     47014     47017     47019
     47015     47014     47017     47020     47016     47014     47017     47018
     47016     47014     47017     47019     47016     47014     47017     47020
     47017     47020     47023     47024     47017     47020     47023     47025
     47017     47020     47023     47026     47018     47017     47020     47021
     47018     47017     47020     47022     47018     47017     47020     47023
     47019     47017     47020     47021     47019     47017     47020     47022
     47019     47017     47020     47023     47020     47023     47026     47027
     47020     47023     47026     47028     47020     47023     47026     47029
     47021     47020     47023     47024     47021     47020     47023     47025
     47021     47020     47023     47026     47022     47020     47023     47024
     47022     47020     47023     47025     47022     47020     47023     47026
     47023     47026     47029     47030     47023     47026     47029     47031
     47023     47026     47029     47032     47024     47023     47026     47027
     47024     47023     47026     47028     47024     47023     47026     47029
     47025     47023     47026     47027     47025     47023     47026     47028
     47025     47023     47026     47029     47026     47029     47032     47033
     47026     47029     47032     47034     47026     47029     47032     47035
     47027     47026     47029     47030     47027     47026     47029     47031
     47027     47026     47029     47032     47028     47026     47029     47030
     47028     47026     47029     47031     47028     47026     47029     47032
     47029     47032     47035     47036     47029     47032     47035     47037
     47029     47032     47035     47038     47030     47029     47032     47033
     47030     47029     47032     47034     47030     47029     47032     47035
     47031     47029     47032     47033     47031     47029     47032     47034
     47031     47029     47032     47035     47032     47035     47038     47039
     47032     47035     47038     47040     47032     47035     47038     47041
     47033     47032     47035     47036     47033     47032     47035     47037
     47033     47032     47035     47038     47034     47032     47035     47036
     47034     47032     47035     47037     47034     47032     47035     47038
     47035     47038     47041     47042     47035     47038     47041     47043
     47035     47038     47041     47044     47036     47035     47038     47039
     47036     47035     47038     47040     47036     47035     47038     47041
     47037     47035     47038     47039     47037     47035     47038     47040
     47037     47035     47038     47041     47039     47038     47041     47042
     47039     47038     47041     47043     47039     47038     47041     47044
     47040     47038     47041     47042     47040     47038     47041     47043
     47040     47038     47041     47044     47045     47050     47052     47053
     47045     47050     47054     47055     47045     47050     47054     47056
     47045     47050     47054     47060     47046     47045     47048     47049
     47046     47045     47050     47051     47046     47045     47050     47052
     47046     47045     47050     47054     47047     47045     47048     47049
     47047     47045     47050     47051     47047     47045     47050     47052
     47047     47045     47050     47054     47048     47045     47050     47051
     47048     47045     47050     47052     47048     47045     47050     47054
     47049     47048     47045     47050     47050     47054     47060     47057
     47051     47050     47052     47053     47051     47050     47054     47055
     47051     47050     47054     47056     47051     47050     47054     47060
     47052     47050     47054     47055     47052     47050     47054     47056
     47052     47050     47054     47060     47053     47052     47050     47054
     47054     47060     47057     47058     47054     47060     47057     47059
     47054     47060     47057     47061     47055     47054     47060     47057
     47056     47054     47060     47057     47057     47061     47062     47063
     47057     47061     47062     47064     47057     47061     47062     47065
     47058     47057     47061     47062     47059     47057     47061     47062
     47060     47057     47061     47062     47061     47062     47065     47066
     47061     47062     47065     47067     47061     47062     47065     47073
     47062     47065     47067     47068     47062     47065     47073     47074
     47062     47065     47073     47075     47062     47065     47073     47076
     47063     47062     47065     47066     47063     47062     47065     47067
     47063     47062     47065     47073     47064     47062     47065     47066
     47064     47062     47065     47067     47064     47062     47065     47073
     47065     47067     47068     47069     47065     47067     47068     47070
     47065     47073     47076     47077     47066     47065     47067     47068
     47066     47065     47073     47074     47066     47065     47073     47075
     47066     47065     47073     47076     47067     47065     47073     47074
     47067     47065     47073     47075     47067     47065     47073     47076
     47067     47068     47070     47071     47067     47068     47070     47072
     47067     47068     47070     47082     47068     47067     47065     47073
     47068     47070     47082     47083     47068     47070     47082     47084
     47068     47070     47082     47085     47069     47068     47070     47071
     47069     47068     47070     47072     47069     47068     47070     47082
     47070     47082     47085     47086     47070     47082     47085     47087
     47070     47082     47085     47088     47071     47070     47082     47083
     47071     47070     47082     47084     47071     47070     47082     47085
     47072     47070     47082     47083     47072     47070     47082     47084
     47072     47070     47082     47085     47073     47076     47077     47078
     47073     47076     47077     47079     47074     47073     47076     47077
     47075     47073     47076     47077     47076     47077     47079     47080
     47076     47077     47079     47081     47076     47077     47079     47129
     47077     47079     47129     47130     47077     47079     47129     47131
     47077     47079     47129     47132     47078     47077     47079     47080
     47078     47077     47079     47081     47078     47077     47079     47129
     47079     47129     47132     47133     47079     47129     47132     47134
     47079     47129     47132     47135     47080     47079     47129     47130
     47080     47079     47129     47131     47080     47079     47129     47132
     47081     47079     47129     47130     47081     47079     47129     47131
     47081     47079     47129     47132     47082     47085     47088     47089
     47082     47085     47088     47090     47082     47085     47088     47091
     47083     47082     47085     47086     47083     47082     47085     47087
     47083     47082     47085     47088     47084     47082     47085     47086
     47084     47082     47085     47087     47084     47082     47085     47088
     47085     47088     47091     47092     47085     47088     47091     47093
     47085     47088     47091     47094     47086     47085     47088     47089
     47086     47085     47088     47090     47086     47085     47088     47091
     47087     47085     47088     47089     47087     47085     47088     47090
     47087     47085     47088     47091     47088     47091     47094     47095
     47088     47091     47094     47096     47088     47091     47094     47097
     47089     47088     47091     47092     47089     47088     47091     47093
     47089     47088     47091     47094     47090     47088     47091     47092
     47090     47088     47091     47093     47090     47088     47091     47094
     47091     47094     47097     47098     47091     47094     47097     47099
     47091     47094     47097     47100     47092     47091     47094     47095
     47092     47091     47094     47096     47092     47091     47094     47097
     47093     47091     47094     47095     47093     47091     47094     47096
     47093     47091     47094     47097     47094     47097     47100     47101
     47094     47097     47100     47102     47094     47097     47100     47103
     47095     47094     47097     47098     47095     47094     47097     47099
     47095     47094     47097     47100     47096     47094     47097     47098
     47096     47094     47097     47099     47096     47094     47097     47100
     47097     47100     47103     47104     47097     47100     47103     47105
     47097     47100     47103     47106     47098     47097     47100     47101
     47098     47097     47100     47102     47098     47097     47100     47103
     47099     47097     47100     47101     47099     47097     47100     47102
     47099     47097     47100     47103     47100     47103     47106     47107
     47100     47103     47106     47108     47101     47100     47103     47104
     47101     47100     47103     47105     47101     47100     47103     47106
     47102     47100     47103     47104     47102     47100     47103     47105
     47102     47100     47103     47106     47103     47106     47108     47109
     47103     47106     47108     47110     47104     47103     47106     47107
     47104     47103     47106     47108     47105     47103     47106     47107
     47105     47103     47106     47108     47106     47108     47110     47111
     47106     47108     47110     47112     47106     47108     47110     47113
     47107     47106     47108     47109     47107     47106     47108     47110
     47108     47110     47113     47114     47108     47110     47113     47115
     47108     47110     47113     47116     47109     47108     47110     47111
     47109     47108     47110     47112     47109     47108     47110     47113
     47110     47113     47116     47117     47110     47113     47116     47118
     47110     47113     47116     47119     47111     47110     47113     47114
     47111     47110     47113     47115     47111     47110     47113     47116
     47112     47110     47113     47114     47112     47110     47113     47115
     47112     47110     47113     47116     47113     47116     47119     47120
     47113     47116     47119     47121     47113     47116     47119     47122
     47114     47113     47116     47117     47114     47113     47116     47118
     47114     47113     47116     47119     47115     47113     47116     47117
     47115     47113     47116     47118     47115     47113     47116     47119
     47116     47119     47122     47123     47116     47119     47122     47124
     47116     47119     47122     47125     47117     47116     47119     47120
     47117     47116     47119     47121     47117     47116     47119     47122
     47118     47116     47119     47120     47118     47116     47119     47121
     47118     47116     47119     47122     47119     47122     47125     47126
     47119     47122     47125     47127     47119     47122     47125     47128
     47120     47119     47122     47123     47120     47119     47122     47124
     47120     47119     47122     47125     47121     47119     47122     47123
     47121     47119     47122     47124     47121     47119     47122     47125
     47123     47122     47125     47126     47123     47122     47125     47127
     47123     47122     47125     47128     47124     47122     47125     47126
     47124     47122     47125     47127     47124     47122     47125     47128
     47129     47132     47135     47136     47129     47132     47135     47137
     47129     47132     47135     47138     47130     47129     47132     47133
     47130     47129     47132     47134     47130     47129     47132     47135
     47131     47129     47132     47133     47131     47129     47132     47134
     47131     47129     47132     47135     47132     47135     47138     47139
     47132     47135     47138     47140     47132     47135     47138     47141
     47133     47132     47135     47136     47133     47132     47135     47137
     47133     47132     47135     47138     47134     47132     47135     47136
     47134     47132     47135     47137     47134     47132     47135     47138
     47135     47138     47141     47142     47135     47138     47141     47143
     47135     47138     47141     47144     47136     47135     47138     47139
     47136     47135     47138     47140     47136     47135     47138     47141
     47137     47135     47138     47139     47137     47135     47138     47140
     47137     47135     47138     47141     47138     47141     47144     47145
     47138     47141     47144     47146     47138     47141     47144     47147
     47139     47138     47141     47142     47139     47138     47141     47143
     47139     47138     47141     47144     47140     47138     47141     47142
     47140     47138     47141     47143     47140     47138     47141     47144
     47141     47144     47147     47148     47141     47144     47147     47149
     47141     47144     47147     47150     47142     47141     47144     47145
     47142     47141     47144     47146     47142     47141     47144     47147
     47143     47141     47144     47145     47143     47141     47144     47146
     47143     47141     47144     47147     47144     47147     47150     47151
     47144     47147     47150     47152     47144     47147     47150     47153
     47145     47144     47147     47148     47145     47144     47147     47149
     47145     47144     47147     47150     47146     47144     47147     47148
     47146     47144     47147     47149     47146     47144     47147     47150
     47147     47150     47153     47154     47147     47150     47153     47155
     47147     47150     47153     47156     47148     47147     47150     47151
     47148     47147     47150     47152     47148     47147     47150     47153
     47149     47147     47150     47151     47149     47147     47150     47152
     47149     47147     47150     47153     47150     47153     47156     47157
     47150     47153     47156     47158     47150     47153     47156     47159
     47151     47150     47153     47154     47151     47150     47153     47155
     47151     47150     47153     47156     47152     47150     47153     47154
     47152     47150     47153     47155     47152     47150     47153     47156
     47153     47156     47159     47160     47153     47156     47159     47161
     47153     47156     47159     47162     47154     47153     47156     47157
     47154     47153     47156     47158     47154     47153     47156     47159
     47155     47153     47156     47157     47155     47153     47156     47158
     47155     47153     47156     47159     47156     47159     47162     47163
     47156     47159     47162     47164     47156     47159     47162     47165
     47157     47156     47159     47160     47157     47156     47159     47161
     47157     47156     47159     47162     47158     47156     47159     47160
     47158     47156     47159     47161     47158     47156     47159     47162
     47159     47162     47165     47166     47159     47162     47165     47167
     47159     47162     47165     47168     47160     47159     47162     47163
     47160     47159     47162     47164     47160     47159     47162     47165
     47161     47159     47162     47163     47161     47159     47162     47164
     47161     47159     47162     47165     47162     47165     47168     47169
     47162     47165     47168     47170     47162     47165     47168     47171
     47163     47162     47165     47166     47163     47162     47165     47167
     47163     47162     47165     47168     47164     47162     47165     47166
     47164     47162     47165     47167     47164     47162     47165     47168
     47166     47165     47168     47169     47166     47165     47168     47170
     47166     47165     47168     47171     47167     47165     47168     47169
     47167     47165     47168     47170     47167     47165     47168     47171
     47172     47176     47179     47180     47172     47176     47179     47181
     47172     47176     47179     47186     47173     47172     47176     47177
     47173     47172     47176     47178     47173     47172     47176     47179
     47174     47172     47176     47177     47174     47172     47176     47178
     47174     47172     47176     47179     47175     47172     47176     47177
     47175     47172     47176     47178     47175     47172     47176     47179
     47176     47179     47186     47182     47177     47176     47179     47180
     47177     47176     47179     47181     47177     47176     47179     47186
     47178     47176     47179     47180     47178     47176     47179     47181
     47178     47176     47179     47186     47179     47186     47182     47183
     47179     47186     47182     47184     47179     47186     47182     47185
     47180     47179     47186     47182     47181     47179     47186     47182
     47182     47185     47187     47188     47182     47185     47187     47189
     47182     47185     47187     47190     47183     47182     47185     47187
     47184     47182     47185     47187     47185     47187     47190     47191
     47185     47187     47190     47192     47185     47187     47190     47198
     47186     47182     47185     47187     47187     47190     47192     47193
     47187     47190     47198     47199     47187     47190     47198     47200
     47187     47190     47198     47201     47188     47187     47190     47191
     47188     47187     47190     47192     47188     47187     47190     47198
     47189     47187     47190     47191     47189     47187     47190     47192
     47189     47187     47190     47198     47190     47192     47193     47194
     47190     47192     47193     47195     47190     47198     47201     47202
     47191     47190     47192     47193     47191     47190     47198     47199
     47191     47190     47198     47200     47191     47190     47198     47201
     47192     47190     47198     47199     47192     47190     47198     47200
     47192     47190     47198     47201     47192     47193     47195     47196
     47192     47193     47195     47197     47192     47193     47195     47207
     47193     47192     47190     47198     47193     47195     47207     47208
     47193     47195     47207     47209     47193     47195     47207     47210
     47194     47193     47195     47196     47194     47193     47195     47197
     47194     47193     47195     47207     47195     47207     47210     47211
     47195     47207     47210     47212     47195     47207     47210     47213
     47196     47195     47207     47208     47196     47195     47207     47209
     47196     47195     47207     47210     47197     47195     47207     47208
     47197     47195     47207     47209     47197     47195     47207     47210
     47198     47201     47202     47203     47198     47201     47202     47204
     47199     47198     47201     47202     47200     47198     47201     47202
     47201     47202     47204     47205     47201     47202     47204     47206
     47201     47202     47204     47248     47202     47204     47248     47249
     47202     47204     47248     47250     47202     47204     47248     47251
     47203     47202     47204     47205     47203     47202     47204     47206
     47203     47202     47204     47248     47204     47248     47251     47252
     47204     47248     47251     47253     47204     47248     47251     47254
     47205     47204     47248     47249     47205     47204     47248     47250
     47205     47204     47248     47251     47206     47204     47248     47249
     47206     47204     47248     47250     47206     47204     47248     47251
     47207     47210     47213     47214     47207     47210     47213     47215
     47207     47210     47213     47216     47208     47207     47210     47211
     47208     47207     47210     47212     47208     47207     47210     47213
     47209     47207     47210     47211     47209     47207     47210     47212
     47209     47207     47210     47213     47210     47213     47216     47217
     47210     47213     47216     47218     47210     47213     47216     47219
     47211     47210     47213     47214     47211     47210     47213     47215
     47211     47210     47213     47216     47212     47210     47213     47214
     47212     47210     47213     47215     47212     47210     47213     47216
     47213     47216     47219     47220     47213     47216     47219     47221
     47213     47216     47219     47222     47214     47213     47216     47217
     47214     47213     47216     47218     47214     47213     47216     47219
     47215     47213     47216     47217     47215     47213     47216     47218
     47215     47213     47216     47219     47216     47219     47222     47223
     47216     47219     47222     47224     47216     47219     47222     47225
     47217     47216     47219     47220     47217     47216     47219     47221
     47217     47216     47219     47222     47218     47216     47219     47220
     47218     47216     47219     47221     47218     47216     47219     47222
     47219     47222     47225     47226     47219     47222     47225     47227
     47220     47219     47222     47223     47220     47219     47222     47224
     47220     47219     47222     47225     47221     47219     47222     47223
     47221     47219     47222     47224     47221     47219     47222     47225
     47222     47225     47227     47228     47222     47225     47227     47229
     47223     47222     47225     47226     47223     47222     47225     47227
     47224     47222     47225     47226     47224     47222     47225     47227
     47225     47227     47229     47230     47225     47227     47229     47231
     47225     47227     47229     47232     47226     47225     47227     47228
     47226     47225     47227     47229     47227     47229     47232     47233
     47227     47229     47232     47234     47227     47229     47232     47235
     47228     47227     47229     47230     47228     47227     47229     47231
     47228     47227     47229     47232     47229     47232     47235     47236
     47229     47232     47235     47237     47229     47232     47235     47238
     47230     47229     47232     47233     47230     47229     47232     47234
     47230     47229     47232     47235     47231     47229     47232     47233
     47231     47229     47232     47234     47231     47229     47232     47235
     47232     47235     47238     47239     47232     47235     47238     47240
     47232     47235     47238     47241     47233     47232     47235     47236
     47233     47232     47235     47237     47233     47232     47235     47238
     47234     47232     47235     47236     47234     47232     47235     47237
     47234     47232     47235     47238     47235     47238     47241     47242
     47235     47238     47241     47243     47235     47238     47241     47244
     47236     47235     47238     47239     47236     47235     47238     47240
     47236     47235     47238     47241     47237     47235     47238     47239
     47237     47235     47238     47240     47237     47235     47238     47241
     47238     47241     47244     47245     47238     47241     47244     47246
     47238     47241     47244     47247     47239     47238     47241     47242
     47239     47238     47241     47243     47239     47238     47241     47244
     47240     47238     47241     47242     47240     47238     47241     47243
     47240     47238     47241     47244     47242     47241     47244     47245
     47242     47241     47244     47246     47242     47241     47244     47247
     47243     47241     47244     47245     47243     47241     47244     47246
     47243     47241     47244     47247     47248     47251     47254     47255
     47248     47251     47254     47256     47248     47251     47254     47257
     47249     47248     47251     47252     47249     47248     47251     47253
     47249     47248     47251     47254     47250     47248     47251     47252
     47250     47248     47251     47253     47250     47248     47251     47254
     47251     47254     47257     47258     47251     47254     47257     47259
     47251     47254     47257     47260     47252     47251     47254     47255
     47252     47251     47254     47256     47252     47251     47254     47257
     47253     47251     47254     47255     47253     47251     47254     47256
     47253     47251     47254     47257     47254     47257     47260     47261
     47254     47257     47260     47262     47254     47257     47260     47263
     47255     47254     47257     47258     47255     47254     47257     47259
     47255     47254     47257     47260     47256     47254     47257     47258
     47256     47254     47257     47259     47256     47254     47257     47260
     47257     47260     47263     47264     47257     47260     47263     47265
     47257     47260     47263     47266     47258     47257     47260     47261
     47258     47257     47260     47262     47258     47257     47260     47263
     47259     47257     47260     47261     47259     47257     47260     47262
     47259     47257     47260     47263     47260     47263     47266     47267
     47260     47263     47266     47268     47260     47263     47266     47269
     47261     47260     47263     47264     47261     47260     47263     47265
     47261     47260     47263     47266     47262     47260     47263     47264
     47262     47260     47263     47265     47262     47260     47263     47266
     47263     47266     47269     47270     47263     47266     47269     47271
     47263     47266     47269     47272     47264     47263     47266     47267
     47264     47263     47266     47268     47264     47263     47266     47269
     47265     47263     47266     47267     47265     47263     47266     47268
     47265     47263     47266     47269     47266     47269     47272     47273
     47266     47269     47272     47274     47266     47269     47272     47275
     47267     47266     47269     47270     47267     47266     47269     47271
     47267     47266     47269     47272     47268     47266     47269     47270
     47268     47266     47269     47271     47268     47266     47269     47272
     47269     47272     47275     47276     47269     47272     47275     47277
     47269     47272     47275     47278     47270     47269     47272     47273
     47270     47269     47272     47274     47270     47269     47272     47275
     47271     47269     47272     47273     47271     47269     47272     47274
     47271     47269     47272     47275     47272     47275     47278     47279
     47272     47275     47278     47280     47272     47275     47278     47281
     47273     47272     47275     47276     47273     47272     47275     47277
     47273     47272     47275     47278     47274     47272     47275     47276
     47274     47272     47275     47277     47274     47272     47275     47278
     47275     47278     47281     47282     47275     47278     47281     47283
     47275     47278     47281     47284     47276     47275     47278     47279
     47276     47275     47278     47280     47276     47275     47278     47281
     47277     47275     47278     47279     47277     47275     47278     47280
     47277     47275     47278     47281     47278     47281     47284     47285
     47278     47281     47284     47286     47278     47281     47284     47287
     47279     47278     47281     47282     47279     47278     47281     47283
     47279     47278     47281     47284     47280     47278     47281     47282
     47280     47278     47281     47283     47280     47278     47281     47284
     47281     47284     47287     47288     47281     47284     47287     47289
     47281     47284     47287     47290     47282     47281     47284     47285
     47282     47281     47284     47286     47282     47281     47284     47287
     47283     47281     47284     47285     47283     47281     47284     47286
     47283     47281     47284     47287     47285     47284     47287     47288
     47285     47284     47287     47289     47285     47284     47287     47290
     47286     47284     47287     47288     47286     47284     47287     47289
     47286     47284     47287     47290     47291     47295     47298     47299
     47291     47295     47298     47300     47291     47295     47298     47305
     47292     47291     47295     47296     47292     47291     47295     47297
     47292     47291     47295     47298     47293     47291     47295     47296
     47293     47291     47295     47297     47293     47291     47295     47298
     47294     47291     47295     47296     47294     47291     47295     47297
     47294     47291     47295     47298     47295     47298     47305     47301
     47296     47295     47298     47299     47296     47295     47298     47300
     47296     47295     47298     47305     47297     47295     47298     47299
     47297     47295     47298     47300     47297     47295     47298     47305
     47298     47305     47301     47302     47298     47305     47301     47303
     47298     47305     47301     47304     47299     47298     47305     47301
     47300     47298     47305     47301     47301     47304     47306     47307
     47301     47304     47306     47308     47301     47304     47306     47309
     47302     47301     47304     47306     47303     47301     47304     47306
     47304     47306     47309     47310     47304     47306     47309     47311
     47304     47306     47309     47317     47305     47301     47304     47306
     47306     47309     47311     47312     47306     47309     47317     47318
     47306     47309     47317     47319     47306     47309     47317     47320
     47307     47306     47309     47310     47307     47306     47309     47311
     47307     47306     47309     47317     47308     47306     47309     47310
     47308     47306     47309     47311     47308     47306     47309     47317
     47309     47311     47312     47313     47309     47311     47312     47314
     47309     47317     47320     47321     47310     47309     47311     47312
     47310     47309     47317     47318     47310     47309     47317     47319
     47310     47309     47317     47320     47311     47309     47317     47318
     47311     47309     47317     47319     47311     47309     47317     47320
     47311     47312     47314     47315     47311     47312     47314     47316
     47311     47312     47314     47326     47312     47311     47309     47317
     47312     47314     47326     47327     47312     47314     47326     47328
     47312     47314     47326     47329     47313     47312     47314     47315
     47313     47312     47314     47316     47313     47312     47314     47326
     47314     47326     47329     47330     47314     47326     47329     47331
     47314     47326     47329     47332     47315     47314     47326     47327
     47315     47314     47326     47328     47315     47314     47326     47329
     47316     47314     47326     47327     47316     47314     47326     47328
     47316     47314     47326     47329     47317     47320     47321     47322
     47317     47320     47321     47323     47318     47317     47320     47321
     47319     47317     47320     47321     47320     47321     47323     47324
     47320     47321     47323     47325     47320     47321     47323     47367
     47321     47323     47367     47368     47321     47323     47367     47369
     47321     47323     47367     47370     47322     47321     47323     47324
     47322     47321     47323     47325     47322     47321     47323     47367
     47323     47367     47370     47371     47323     47367     47370     47372
     47323     47367     47370     47373     47324     47323     47367     47368
     47324     47323     47367     47369     47324     47323     47367     47370
     47325     47323     47367     47368     47325     47323     47367     47369
     47325     47323     47367     47370     47326     47329     47332     47333
     47326     47329     47332     47334     47326     47329     47332     47335
     47327     47326     47329     47330     47327     47326     47329     47331
     47327     47326     47329     47332     47328     47326     47329     47330
     47328     47326     47329     47331     47328     47326     47329     47332
     47329     47332     47335     47336     47329     47332     47335     47337
     47329     47332     47335     47338     47330     47329     47332     47333
     47330     47329     47332     47334     47330     47329     47332     47335
     47331     47329     47332     47333     47331     47329     47332     47334
     47331     47329     47332     47335     47332     47335     47338     47339
     47332     47335     47338     47340     47332     47335     47338     47341
     47333     47332     47335     47336     47333     47332     47335     47337
     47333     47332     47335     47338     47334     47332     47335     47336
     47334     47332     47335     47337     47334     47332     47335     47338
     47335     47338     47341     47342     47335     47338     47341     47343
     47335     47338     47341     47344     47336     47335     47338     47339
     47336     47335     47338     47340     47336     47335     47338     47341
     47337     47335     47338     47339     47337     47335     47338     47340
     47337     47335     47338     47341     47338     47341     47344     47345
     47338     47341     47344     47346     47339     47338     47341     47342
     47339     47338     47341     47343     47339     47338     47341     47344
     47340     47338     47341     47342     47340     47338     47341     47343
     47340     47338     47341     47344     47341     47344     47346     47347
     47341     47344     47346     47348     47342     47341     47344     47345
     47342     47341     47344     47346     47343     47341     47344     47345
     47343     47341     47344     47346     47344     47346     47348     47349
     47344     47346     47348     47350     47344     47346     47348     47351
     47345     47344     47346     47347     47345     47344     47346     47348
     47346     47348     47351     47352     47346     47348     47351     47353
     47346     47348     47351     47354     47347     47346     47348     47349
     47347     47346     47348     47350     47347     47346     47348     47351
     47348     47351     47354     47355     47348     47351     47354     47356
     47348     47351     47354     47357     47349     47348     47351     47352
     47349     47348     47351     47353     47349     47348     47351     47354
     47350     47348     47351     47352     47350     47348     47351     47353
     47350     47348     47351     47354     47351     47354     47357     47358
     47351     47354     47357     47359     47351     47354     47357     47360
     47352     47351     47354     47355     47352     47351     47354     47356
     47352     47351     47354     47357     47353     47351     47354     47355
     47353     47351     47354     47356     47353     47351     47354     47357
     47354     47357     47360     47361     47354     47357     47360     47362
     47354     47357     47360     47363     47355     47354     47357     47358
     47355     47354     47357     47359     47355     47354     47357     47360
     47356     47354     47357     47358     47356     47354     47357     47359
     47356     47354     47357     47360     47357     47360     47363     47364
     47357     47360     47363     47365     47357     47360     47363     47366
     47358     47357     47360     47361     47358     47357     47360     47362
     47358     47357     47360     47363     47359     47357     47360     47361
     47359     47357     47360     47362     47359     47357     47360     47363
     47361     47360     47363     47364     47361     47360     47363     47365
     47361     47360     47363     47366     47362     47360     47363     47364
     47362     47360     47363     47365     47362     47360     47363     47366
     47367     47370     47373     47374     47367     47370     47373     47375
     47367     47370     47373     47376     47368     47367     47370     47371
     47368     47367     47370     47372     47368     47367     47370     47373
     47369     47367     47370     47371     47369     47367     47370     47372
     47369     47367     47370     47373     47370     47373     47376     47377
     47370     47373     47376     47378     47370     47373     47376     47379
     47371     47370     47373     47374     47371     47370     47373     47375
     47371     47370     47373     47376     47372     47370     47373     47374
     47372     47370     47373     47375     47372     47370     47373     47376
     47373     47376     47379     47380     47373     47376     47379     47381
     47373     47376     47379     47382     47374     47373     47376     47377
     47374     47373     47376     47378     47374     47373     47376     47379
     47375     47373     47376     47377     47375     47373     47376     47378
     47375     47373     47376     47379     47376     47379     47382     47383
     47376     47379     47382     47384     47376     47379     47382     47385
     47377     47376     47379     47380     47377     47376     47379     47381
     47377     47376     47379     47382     47378     47376     47379     47380
     47378     47376     47379     47381     47378     47376     47379     47382
     47379     47382     47385     47386     47379     47382     47385     47387
     47379     47382     47385     47388     47380     47379     47382     47383
     47380     47379     47382     47384     47380     47379     47382     47385
     47381     47379     47382     47383     47381     47379     47382     47384
     47381     47379     47382     47385     47382     47385     47388     47389
     47382     47385     47388     47390     47382     47385     47388     47391
     47383     47382     47385     47386     47383     47382     47385     47387
     47383     47382     47385     47388     47384     47382     47385     47386
     47384     47382     47385     47387     47384     47382     47385     47388
     47385     47388     47391     47392     47385     47388     47391     47393
     47385     47388     47391     47394     47386     47385     47388     47389
     47386     47385     47388     47390     47386     47385     47388     47391
     47387     47385     47388     47389     47387     47385     47388     47390
     47387     47385     47388     47391     47388     47391     47394     47395
     47388     47391     47394     47396     47388     47391     47394     47397
     47389     47388     47391     47392     47389     47388     47391     47393
     47389     47388     47391     47394     47390     47388     47391     47392
     47390     47388     47391     47393     47390     47388     47391     47394
     47391     47394     47397     47398     47391     47394     47397     47399
     47391     47394     47397     47400     47392     47391     47394     47395
     47392     47391     47394     47396     47392     47391     47394     47397
     47393     47391     47394     47395     47393     47391     47394     47396
     47393     47391     47394     47397     47394     47397     47400     47401
     47394     47397     47400     47402     47394     47397     47400     47403
     47395     47394     47397     47398     47395     47394     47397     47399
     47395     47394     47397     47400     47396     47394     47397     47398
     47396     47394     47397     47399     47396     47394     47397     47400
     47397     47400     47403     47404     47397     47400     47403     47405
     47397     47400     47403     47406     47398     47397     47400     47401
     47398     47397     47400     47402     47398     47397     47400     47403
     47399     47397     47400     47401     47399     47397     47400     47402
     47399     47397     47400     47403     47400     47403     47406     47407
     47400     47403     47406     47408     47400     47403     47406     47409
     47401     47400     47403     47404     47401     47400     47403     47405
     47401     47400     47403     47406     47402     47400     47403     47404
     47402     47400     47403     47405     47402     47400     47403     47406
     47404     47403     47406     47407     47404     47403     47406     47408
     47404     47403     47406     47409     47405     47403     47406     47407
     47405     47403     47406     47408     47405     47403     47406     47409
     47410     47414     47417     47418     47410     47414     47417     47419
     47410     47414     47417     47424     47411     47410     47414     47415
     47411     47410     47414     47416     47411     47410     47414     47417
     47412     47410     47414     47415     47412     47410     47414     47416
     47412     47410     47414     47417     47413     47410     47414     47415
     47413     47410     47414     47416     47413     47410     47414     47417
     47414     47417     47424     47420     47415     47414     47417     47418
     47415     47414     47417     47419     47415     47414     47417     47424
     47416     47414     47417     47418     47416     47414     47417     47419
     47416     47414     47417     47424     47417     47424     47420     47421
     47417     47424     47420     47422     47417     47424     47420     47423
     47418     47417     47424     47420     47419     47417     47424     47420
     47420     47423     47425     47426     47420     47423     47425     47427
     47420     47423     47425     47428     47421     47420     47423     47425
     47422     47420     47423     47425     47423     47425     47428     47429
     47423     47425     47428     47430     47423     47425     47428     47436
     47424     47420     47423     47425     47425     47428     47430     47431
     47425     47428     47436     47437     47425     47428     47436     47438
     47425     47428     47436     47439     47426     47425     47428     47429
     47426     47425     47428     47430     47426     47425     47428     47436
     47427     47425     47428     47429     47427     47425     47428     47430
     47427     47425     47428     47436     47428     47430     47431     47432
     47428     47430     47431     47433     47428     47436     47439     47440
     47429     47428     47430     47431     47429     47428     47436     47437
     47429     47428     47436     47438     47429     47428     47436     47439
     47430     47428     47436     47437     47430     47428     47436     47438
     47430     47428     47436     47439     47430     47431     47433     47434
     47430     47431     47433     47435     47430     47431     47433     47445
     47431     47430     47428     47436     47431     47433     47445     47446
     47431     47433     47445     47447     47431     47433     47445     47448
     47432     47431     47433     47434     47432     47431     47433     47435
     47432     47431     47433     47445     47433     47445     47448     47449
     47433     47445     47448     47450     47433     47445     47448     47451
     47434     47433     47445     47446     47434     47433     47445     47447
     47434     47433     47445     47448     47435     47433     47445     47446
     47435     47433     47445     47447     47435     47433     47445     47448
     47436     47439     47440     47441     47436     47439     47440     47442
     47437     47436     47439     47440     47438     47436     47439     47440
     47439     47440     47442     47443     47439     47440     47442     47444
     47439     47440     47442     47486     47440     47442     47486     47487
     47440     47442     47486     47488     47440     47442     47486     47489
     47441     47440     47442     47443     47441     47440     47442     47444
     47441     47440     47442     47486     47442     47486     47489     47490
     47442     47486     47489     47491     47442     47486     47489     47492
     47443     47442     47486     47487     47443     47442     47486     47488
     47443     47442     47486     47489     47444     47442     47486     47487
     47444     47442     47486     47488     47444     47442     47486     47489
     47445     47448     47451     47452     47445     47448     47451     47453
     47445     47448     47451     47454     47446     47445     47448     47449
     47446     47445     47448     47450     47446     47445     47448     47451
     47447     47445     47448     47449     47447     47445     47448     47450
     47447     47445     47448     47451     47448     47451     47454     47455
     47448     47451     47454     47456     47448     47451     47454     47457
     47449     47448     47451     47452     47449     47448     47451     47453
     47449     47448     47451     47454     47450     47448     47451     47452
     47450     47448     47451     47453     47450     47448     47451     47454
     47451     47454     47457     47458     47451     47454     47457     47459
     47451     47454     47457     47460     47452     47451     47454     47455
     47452     47451     47454     47456     47452     47451     47454     47457
     47453     47451     47454     47455     47453     47451     47454     47456
     47453     47451     47454     47457     47454     47457     47460     47461
     47454     47457     47460     47462     47454     47457     47460     47463
     47455     47454     47457     47458     47455     47454     47457     47459
     47455     47454     47457     47460     47456     47454     47457     47458
     47456     47454     47457     47459     47456     47454     47457     47460
     47457     47460     47463     47464     47457     47460     47463     47465
     47458     47457     47460     47461     47458     47457     47460     47462
     47458     47457     47460     47463     47459     47457     47460     47461
     47459     47457     47460     47462     47459     47457     47460     47463
     47460     47463     47465     47466     47460     47463     47465     47467
     47461     47460     47463     47464     47461     47460     47463     47465
     47462     47460     47463     47464     47462     47460     47463     47465
     47463     47465     47467     47468     47463     47465     47467     47469
     47463     47465     47467     47470     47464     47463     47465     47466
     47464     47463     47465     47467     47465     47467     47470     47471
     47465     47467     47470     47472     47465     47467     47470     47473
     47466     47465     47467     47468     47466     47465     47467     47469
     47466     47465     47467     47470     47467     47470     47473     47474
     47467     47470     47473     47475     47467     47470     47473     47476
     47468     47467     47470     47471     47468     47467     47470     47472
     47468     47467     47470     47473     47469     47467     47470     47471
     47469     47467     47470     47472     47469     47467     47470     47473
     47470     47473     47476     47477     47470     47473     47476     47478
     47470     47473     47476     47479     47471     47470     47473     47474
     47471     47470     47473     47475     47471     47470     47473     47476
     47472     47470     47473     47474     47472     47470     47473     47475
     47472     47470     47473     47476     47473     47476     47479     47480
     47473     47476     47479     47481     47473     47476     47479     47482
     47474     47473     47476     47477     47474     47473     47476     47478
     47474     47473     47476     47479     47475     47473     47476     47477
     47475     47473     47476     47478     47475     47473     47476     47479
     47476     47479     47482     47483     47476     47479     47482     47484
     47476     47479     47482     47485     47477     47476     47479     47480
     47477     47476     47479     47481     47477     47476     47479     47482
     47478     47476     47479     47480     47478     47476     47479     47481
     47478     47476     47479     47482     47480     47479     47482     47483
     47480     47479     47482     47484     47480     47479     47482     47485
     47481     47479     47482     47483     47481     47479     47482     47484
     47481     47479     47482     47485     47486     47489     47492     47493
     47486     47489     47492     47494     47486     47489     47492     47495
     47487     47486     47489     47490     47487     47486     47489     47491
     47487     47486     47489     47492     47488     47486     47489     47490
     47488     47486     47489     47491     47488     47486     47489     47492
     47489     47492     47495     47496     47489     47492     47495     47497
     47489     47492     47495     47498     47490     47489     47492     47493
     47490     47489     47492     47494     47490     47489     47492     47495
     47491     47489     47492     47493     47491     47489     47492     47494
     47491     47489     47492     47495     47492     47495     47498     47499
     47492     47495     47498     47500     47492     47495     47498     47501
     47493     47492     47495     47496     47493     47492     47495     47497
     47493     47492     47495     47498     47494     47492     47495     47496
     47494     47492     47495     47497     47494     47492     47495     47498
     47495     47498     47501     47502     47495     47498     47501     47503
     47495     47498     47501     47504     47496     47495     47498     47499
     47496     47495     47498     47500     47496     47495     47498     47501
     47497     47495     47498     47499     47497     47495     47498     47500
     47497     47495     47498     47501     47498     47501     47504     47505
     47498     47501     47504     47506     47498     47501     47504     47507
     47499     47498     47501     47502     47499     47498     47501     47503
     47499     47498     47501     47504     47500     47498     47501     47502
     47500     47498     47501     47503     47500     47498     47501     47504
     47501     47504     47507     47508     47501     47504     47507     47509
     47501     47504     47507     47510     47502     47501     47504     47505
     47502     47501     47504     47506     47502     47501     47504     47507
     47503     47501     47504     47505     47503     47501     47504     47506
     47503     47501     47504     47507     47504     47507     47510     47511
     47504     47507     47510     47512     47504     47507     47510     47513
     47505     47504     47507     47508     47505     47504     47507     47509
     47505     47504     47507     47510     47506     47504     47507     47508
     47506     47504     47507     47509     47506     47504     47507     47510
     47507     47510     47513     47514     47507     47510     47513     47515
     47507     47510     47513     47516     47508     47507     47510     47511
     47508     47507     47510     47512     47508     47507     47510     47513
     47509     47507     47510     47511     47509     47507     47510     47512
     47509     47507     47510     47513     47510     47513     47516     47517
     47510     47513     47516     47518     47510     47513     47516     47519
     47511     47510     47513     47514     47511     47510     47513     47515
     47511     47510     47513     47516     47512     47510     47513     47514
     47512     47510     47513     47515     47512     47510     47513     47516
     47513     47516     47519     47520     47513     47516     47519     47521
     47513     47516     47519     47522     47514     47513     47516     47517
     47514     47513     47516     47518     47514     47513     47516     47519
     47515     47513     47516     47517     47515     47513     47516     47518
     47515     47513     47516     47519     47516     47519     47522     47523
     47516     47519     47522     47524     47516     47519     47522     47525
     47517     47516     47519     47520     47517     47516     47519     47521
     47517     47516     47519     47522     47518     47516     47519     47520
     47518     47516     47519     47521     47518     47516     47519     47522
     47519     47522     47525     47526     47519     47522     47525     47527
     47519     47522     47525     47528     47520     47519     47522     47523
     47520     47519     47522     47524     47520     47519     47522     47525
     47521     47519     47522     47523     47521     47519     47522     47524
     47521     47519     47522     47525     47523     47522     47525     47526
     47523     47522     47525     47527     47523     47522     47525     47528
     47524     47522     47525     47526     47524     47522     47525     47527
     47524     47522     47525     47528     47529     47534     47536     47537
     47529     47534     47538     47539     47529     47534     47538     47540
     47529     47534     47538     47544     47530     47529     47532     47533
     47530     47529     47534     47535     47530     47529     47534     47536
     47530     47529     47534     47538     47531     47529     47532     47533
     47531     47529     47534     47535     47531     47529     47534     47536
     47531     47529     47534     47538     47532     47529     47534     47535
     47532     47529     47534     47536     47532     47529     47534     47538
     47533     47532     47529     47534     47534     47538     47544     47541
     47535     47534     47536     47537     47535     47534     47538     47539
     47535     47534     47538     47540     47535     47534     47538     47544
     47536     47534     47538     47539     47536     47534     47538     47540
     47536     47534     47538     47544     47537     47536     47534     47538
     47538     47544     47541     47542     47538     47544     47541     47543
     47538     47544     47541     47545     47539     47538     47544     47541
     47540     47538     47544     47541     47541     47545     47546     47547
     47541     47545     47546     47548     47541     47545     47546     47549
     47542     47541     47545     47546     47543     47541     47545     47546
     47544     47541     47545     47546     47545     47546     47549     47550
     47545     47546     47549     47551     47545     47546     47549     47557
     47546     47549     47551     47552     47546     47549     47557     47558
     47546     47549     47557     47559     47546     47549     47557     47560
     47547     47546     47549     47550     47547     47546     47549     47551
     47547     47546     47549     47557     47548     47546     47549     47550
     47548     47546     47549     47551     47548     47546     47549     47557
     47549     47551     47552     47553     47549     47551     47552     47554
     47549     47557     47560     47561     47550     47549     47551     47552
     47550     47549     47557     47558     47550     47549     47557     47559
     47550     47549     47557     47560     47551     47549     47557     47558
     47551     47549     47557     47559     47551     47549     47557     47560
     47551     47552     47554     47555     47551     47552     47554     47556
     47551     47552     47554     47566     47552     47551     47549     47557
     47552     47554     47566     47567     47552     47554     47566     47568
     47552     47554     47566     47569     47553     47552     47554     47555
     47553     47552     47554     47556     47553     47552     47554     47566
     47554     47566     47569     47570     47554     47566     47569     47571
     47554     47566     47569     47572     47555     47554     47566     47567
     47555     47554     47566     47568     47555     47554     47566     47569
     47556     47554     47566     47567     47556     47554     47566     47568
     47556     47554     47566     47569     47557     47560     47561     47562
     47557     47560     47561     47563     47558     47557     47560     47561
     47559     47557     47560     47561     47560     47561     47563     47564
     47560     47561     47563     47565     47560     47561     47563     47613
     47561     47563     47613     47614     47561     47563     47613     47615
     47561     47563     47613     47616     47562     47561     47563     47564
     47562     47561     47563     47565     47562     47561     47563     47613
     47563     47613     47616     47617     47563     47613     47616     47618
     47563     47613     47616     47619     47564     47563     47613     47614
     47564     47563     47613     47615     47564     47563     47613     47616
     47565     47563     47613     47614     47565     47563     47613     47615
     47565     47563     47613     47616     47566     47569     47572     47573
     47566     47569     47572     47574     47566     47569     47572     47575
     47567     47566     47569     47570     47567     47566     47569     47571
     47567     47566     47569     47572     47568     47566     47569     47570
     47568     47566     47569     47571     47568     47566     47569     47572
     47569     47572     47575     47576     47569     47572     47575     47577
     47569     47572     47575     47578     47570     47569     47572     47573
     47570     47569     47572     47574     47570     47569     47572     47575
     47571     47569     47572     47573     47571     47569     47572     47574
     47571     47569     47572     47575     47572     47575     47578     47579
     47572     47575     47578     47580     47572     47575     47578     47581
     47573     47572     47575     47576     47573     47572     47575     47577
     47573     47572     47575     47578     47574     47572     47575     47576
     47574     47572     47575     47577     47574     47572     47575     47578
     47575     47578     47581     47582     47575     47578     47581     47583
     47575     47578     47581     47584     47576     47575     47578     47579
     47576     47575     47578     47580     47576     47575     47578     47581
     47577     47575     47578     47579     47577     47575     47578     47580
     47577     47575     47578     47581     47578     47581     47584     47585
     47578     47581     47584     47586     47578     47581     47584     47587
     47579     47578     47581     47582     47579     47578     47581     47583
     47579     47578     47581     47584     47580     47578     47581     47582
     47580     47578     47581     47583     47580     47578     47581     47584
     47581     47584     47587     47588     47581     47584     47587     47589
     47581     47584     47587     47590     47582     47581     47584     47585
     47582     47581     47584     47586     47582     47581     47584     47587
     47583     47581     47584     47585     47583     47581     47584     47586
     47583     47581     47584     47587     47584     47587     47590     47591
     47584     47587     47590     47592     47585     47584     47587     47588
     47585     47584     47587     47589     47585     47584     47587     47590
     47586     47584     47587     47588     47586     47584     47587     47589
     47586     47584     47587     47590     47587     47590     47592     47593
     47587     47590     47592     47594     47588     47587     47590     47591
     47588     47587     47590     47592     47589     47587     47590     47591
     47589     47587     47590     47592     47590     47592     47594     47595
     47590     47592     47594     47596     47590     47592     47594     47597
     47591     47590     47592     47593     47591     47590     47592     47594
     47592     47594     47597     47598     47592     47594     47597     47599
     47592     47594     47597     47600     47593     47592     47594     47595
     47593     47592     47594     47596     47593     47592     47594     47597
     47594     47597     47600     47601     47594     47597     47600     47602
     47594     47597     47600     47603     47595     47594     47597     47598
     47595     47594     47597     47599     47595     47594     47597     47600
     47596     47594     47597     47598     47596     47594     47597     47599
     47596     47594     47597     47600     47597     47600     47603     47604
     47597     47600     47603     47605     47597     47600     47603     47606
     47598     47597     47600     47601     47598     47597     47600     47602
     47598     47597     47600     47603     47599     47597     47600     47601
     47599     47597     47600     47602     47599     47597     47600     47603
     47600     47603     47606     47607     47600     47603     47606     47608
     47600     47603     47606     47609     47601     47600     47603     47604
     47601     47600     47603     47605     47601     47600     47603     47606
     47602     47600     47603     47604     47602     47600     47603     47605
     47602     47600     47603     47606     47603     47606     47609     47610
     47603     47606     47609     47611     47603     47606     47609     47612
     47604     47603     47606     47607     47604     47603     47606     47608
     47604     47603     47606     47609     47605     47603     47606     47607
     47605     47603     47606     47608     47605     47603     47606     47609
     47607     47606     47609     47610     47607     47606     47609     47611
     47607     47606     47609     47612     47608     47606     47609     47610
     47608     47606     47609     47611     47608     47606     47609     47612
     47613     47616     47619     47620     47613     47616     47619     47621
     47613     47616     47619     47622     47614     47613     47616     47617
     47614     47613     47616     47618     47614     47613     47616     47619
     47615     47613     47616     47617     47615     47613     47616     47618
     47615     47613     47616     47619     47616     47619     47622     47623
     47616     47619     47622     47624     47616     47619     47622     47625
     47617     47616     47619     47620     47617     47616     47619     47621
     47617     47616     47619     47622     47618     47616     47619     47620
     47618     47616     47619     47621     47618     47616     47619     47622
     47619     47622     47625     47626     47619     47622     47625     47627
     47619     47622     47625     47628     47620     47619     47622     47623
     47620     47619     47622     47624     47620     47619     47622     47625
     47621     47619     47622     47623     47621     47619     47622     47624
     47621     47619     47622     47625     47622     47625     47628     47629
     47622     47625     47628     47630     47622     47625     47628     47631
     47623     47622     47625     47626     47623     47622     47625     47627
     47623     47622     47625     47628     47624     47622     47625     47626
     47624     47622     47625     47627     47624     47622     47625     47628
     47625     47628     47631     47632     47625     47628     47631     47633
     47625     47628     47631     47634     47626     47625     47628     47629
     47626     47625     47628     47630     47626     47625     47628     47631
     47627     47625     47628     47629     47627     47625     47628     47630
     47627     47625     47628     47631     47628     47631     47634     47635
     47628     47631     47634     47636     47628     47631     47634     47637
     47629     47628     47631     47632     47629     47628     47631     47633
     47629     47628     47631     47634     47630     47628     47631     47632
     47630     47628     47631     47633     47630     47628     47631     47634
     47631     47634     47637     47638     47631     47634     47637     47639
     47631     47634     47637     47640     47632     47631     47634     47635
     47632     47631     47634     47636     47632     47631     47634     47637
     47633     47631     47634     47635     47633     47631     47634     47636
     47633     47631     47634     47637     47634     47637     47640     47641
     47634     47637     47640     47642     47634     47637     47640     47643
     47635     47634     47637     47638     47635     47634     47637     47639
     47635     47634     47637     47640     47636     47634     47637     47638
     47636     47634     47637     47639     47636     47634     47637     47640
     47637     47640     47643     47644     47637     47640     47643     47645
     47637     47640     47643     47646     47638     47637     47640     47641
     47638     47637     47640     47642     47638     47637     47640     47643
     47639     47637     47640     47641     47639     47637     47640     47642
     47639     47637     47640     47643     47640     47643     47646     47647
     47640     47643     47646     47648     47640     47643     47646     47649
     47641     47640     47643     47644     47641     47640     47643     47645
     47641     47640     47643     47646     47642     47640     47643     47644
     47642     47640     47643     47645     47642     47640     47643     47646
     47643     47646     47649     47650     47643     47646     47649     47651
     47643     47646     47649     47652     47644     47643     47646     47647
     47644     47643     47646     47648     47644     47643     47646     47649
     47645     47643     47646     47647     47645     47643     47646     47648
     47645     47643     47646     47649     47646     47649     47652     47653
     47646     47649     47652     47654     47646     47649     47652     47655
     47647     47646     47649     47650     47647     47646     47649     47651
     47647     47646     47649     47652     47648     47646     47649     47650
     47648     47646     47649     47651     47648     47646     47649     47652
     47650     47649     47652     47653     47650     47649     47652     47654
     47650     47649     47652     47655     47651     47649     47652     47653
     47651     47649     47652     47654     47651     47649     47652     47655
     47656     47660     47663     47664     47656     47660     47663     47665
     47656     47660     47663     47670     47657     47656     47660     47661
     47657     47656     47660     47662     47657     47656     47660     47663
     47658     47656     47660     47661     47658     47656     47660     47662
     47658     47656     47660     47663     47659     47656     47660     47661
     47659     47656     47660     47662     47659     47656     47660     47663
     47660     47663     47670     47666     47661     47660     47663     47664
     47661     47660     47663     47665     47661     47660     47663     47670
     47662     47660     47663     47664     47662     47660     47663     47665
     47662     47660     47663     47670     47663     47670     47666     47667
     47663     47670     47666     47668     47663     47670     47666     47669
     47664     47663     47670     47666     47665     47663     47670     47666
     47666     47669     47671     47672     47666     47669     47671     47673
     47666     47669     47671     47674     47667     47666     47669     47671
     47668     47666     47669     47671     47669     47671     47674     47675
     47669     47671     47674     47676     47669     47671     47674     47682
     47670     47666     47669     47671     47671     47674     47676     47677
     47671     47674     47682     47683     47671     47674     47682     47684
     47671     47674     47682     47685     47672     47671     47674     47675
     47672     47671     47674     47676     47672     47671     47674     47682
     47673     47671     47674     47675     47673     47671     47674     47676
     47673     47671     47674     47682     47674     47676     47677     47678
     47674     47676     47677     47679     47674     47682     47685     47686
     47675     47674     47676     47677     47675     47674     47682     47683
     47675     47674     47682     47684     47675     47674     47682     47685
     47676     47674     47682     47683     47676     47674     47682     47684
     47676     47674     47682     47685     47676     47677     47679     47680
     47676     47677     47679     47681     47676     47677     47679     47691
     47677     47676     47674     47682     47677     47679     47691     47692
     47677     47679     47691     47693     47677     47679     47691     47694
     47678     47677     47679     47680     47678     47677     47679     47681
     47678     47677     47679     47691     47679     47691     47694     47695
     47679     47691     47694     47696     47679     47691     47694     47697
     47680     47679     47691     47692     47680     47679     47691     47693
     47680     47679     47691     47694     47681     47679     47691     47692
     47681     47679     47691     47693     47681     47679     47691     47694
     47682     47685     47686     47687     47682     47685     47686     47688
     47683     47682     47685     47686     47684     47682     47685     47686
     47685     47686     47688     47689     47685     47686     47688     47690
     47685     47686     47688     47732     47686     47688     47732     47733
     47686     47688     47732     47734     47686     47688     47732     47735
     47687     47686     47688     47689     47687     47686     47688     47690
     47687     47686     47688     47732     47688     47732     47735     47736
     47688     47732     47735     47737     47688     47732     47735     47738
     47689     47688     47732     47733     47689     47688     47732     47734
     47689     47688     47732     47735     47690     47688     47732     47733
     47690     47688     47732     47734     47690     47688     47732     47735
     47691     47694     47697     47698     47691     47694     47697     47699
     47691     47694     47697     47700     47692     47691     47694     47695
     47692     47691     47694     47696     47692     47691     47694     47697
     47693     47691     47694     47695     47693     47691     47694     47696
     47693     47691     47694     47697     47694     47697     47700     47701
     47694     47697     47700     47702     47694     47697     47700     47703
     47695     47694     47697     47698     47695     47694     47697     47699
     47695     47694     47697     47700     47696     47694     47697     47698
     47696     47694     47697     47699     47696     47694     47697     47700
     47697     47700     47703     47704     47697     47700     47703     47705
     47697     47700     47703     47706     47698     47697     47700     47701
     47698     47697     47700     47702     47698     47697     47700     47703
     47699     47697     47700     47701     47699     47697     47700     47702
     47699     47697     47700     47703     47700     47703     47706     47707
     47700     47703     47706     47708     47700     47703     47706     47709
     47701     47700     47703     47704     47701     47700     47703     47705
     47701     47700     47703     47706     47702     47700     47703     47704
     47702     47700     47703     47705     47702     47700     47703     47706
     47703     47706     47709     47710     47703     47706     47709     47711
     47704     47703     47706     47707     47704     47703     47706     47708
     47704     47703     47706     47709     47705     47703     47706     47707
     47705     47703     47706     47708     47705     47703     47706     47709
     47706     47709     47711     47712     47706     47709     47711     47713
     47707     47706     47709     47710     47707     47706     47709     47711
     47708     47706     47709     47710     47708     47706     47709     47711
     47709     47711     47713     47714     47709     47711     47713     47715
     47709     47711     47713     47716     47710     47709     47711     47712
     47710     47709     47711     47713     47711     47713     47716     47717
     47711     47713     47716     47718     47711     47713     47716     47719
     47712     47711     47713     47714     47712     47711     47713     47715
     47712     47711     47713     47716     47713     47716     47719     47720
     47713     47716     47719     47721     47713     47716     47719     47722
     47714     47713     47716     47717     47714     47713     47716     47718
     47714     47713     47716     47719     47715     47713     47716     47717
     47715     47713     47716     47718     47715     47713     47716     47719
     47716     47719     47722     47723     47716     47719     47722     47724
     47716     47719     47722     47725     47717     47716     47719     47720
     47717     47716     47719     47721     47717     47716     47719     47722
     47718     47716     47719     47720     47718     47716     47719     47721
     47718     47716     47719     47722     47719     47722     47725     47726
     47719     47722     47725     47727     47719     47722     47725     47728
     47720     47719     47722     47723     47720     47719     47722     47724
     47720     47719     47722     47725     47721     47719     47722     47723
     47721     47719     47722     47724     47721     47719     47722     47725
     47722     47725     47728     47729     47722     47725     47728     47730
     47722     47725     47728     47731     47723     47722     47725     47726
     47723     47722     47725     47727     47723     47722     47725     47728
     47724     47722     47725     47726     47724     47722     47725     47727
     47724     47722     47725     47728     47726     47725     47728     47729
     47726     47725     47728     47730     47726     47725     47728     47731
     47727     47725     47728     47729     47727     47725     47728     47730
     47727     47725     47728     47731     47732     47735     47738     47739
     47732     47735     47738     47740     47732     47735     47738     47741
     47733     47732     47735     47736     47733     47732     47735     47737
     47733     47732     47735     47738     47734     47732     47735     47736
     47734     47732     47735     47737     47734     47732     47735     47738
     47735     47738     47741     47742     47735     47738     47741     47743
     47735     47738     47741     47744     47736     47735     47738     47739
     47736     47735     47738     47740     47736     47735     47738     47741
     47737     47735     47738     47739     47737     47735     47738     47740
     47737     47735     47738     47741     47738     47741     47744     47745
     47738     47741     47744     47746     47738     47741     47744     47747
     47739     47738     47741     47742     47739     47738     47741     47743
     47739     47738     47741     47744     47740     47738     47741     47742
     47740     47738     47741     47743     47740     47738     47741     47744
     47741     47744     47747     47748     47741     47744     47747     47749
     47741     47744     47747     47750     47742     47741     47744     47745
     47742     47741     47744     47746     47742     47741     47744     47747
     47743     47741     47744     47745     47743     47741     47744     47746
     47743     47741     47744     47747     47744     47747     47750     47751
     47744     47747     47750     47752     47744     47747     47750     47753
     47745     47744     47747     47748     47745     47744     47747     47749
     47745     47744     47747     47750     47746     47744     47747     47748
     47746     47744     47747     47749     47746     47744     47747     47750
     47747     47750     47753     47754     47747     47750     47753     47755
     47747     47750     47753     47756     47748     47747     47750     47751
     47748     47747     47750     47752     47748     47747     47750     47753
     47749     47747     47750     47751     47749     47747     47750     47752
     47749     47747     47750     47753     47750     47753     47756     47757
     47750     47753     47756     47758     47750     47753     47756     47759
     47751     47750     47753     47754     47751     47750     47753     47755
     47751     47750     47753     47756     47752     47750     47753     47754
     47752     47750     47753     47755     47752     47750     47753     47756
     47753     47756     47759     47760     47753     47756     47759     47761
     47753     47756     47759     47762     47754     47753     47756     47757
     47754     47753     47756     47758     47754     47753     47756     47759
     47755     47753     47756     47757     47755     47753     47756     47758
     47755     47753     47756     47759     47756     47759     47762     47763
     47756     47759     47762     47764     47756     47759     47762     47765
     47757     47756     47759     47760     47757     47756     47759     47761
     47757     47756     47759     47762     47758     47756     47759     47760
     47758     47756     47759     47761     47758     47756     47759     47762
     47759     47762     47765     47766     47759     47762     47765     47767
     47759     47762     47765     47768     47760     47759     47762     47763
     47760     47759     47762     47764     47760     47759     47762     47765
     47761     47759     47762     47763     47761     47759     47762     47764
     47761     47759     47762     47765     47762     47765     47768     47769
     47762     47765     47768     47770     47762     47765     47768     47771
     47763     47762     47765     47766     47763     47762     47765     47767
     47763     47762     47765     47768     47764     47762     47765     47766
     47764     47762     47765     47767     47764     47762     47765     47768
     47765     47768     47771     47772     47765     47768     47771     47773
     47765     47768     47771     47774     47766     47765     47768     47769
     47766     47765     47768     47770     47766     47765     47768     47771
     47767     47765     47768     47769     47767     47765     47768     47770
     47767     47765     47768     47771     47769     47768     47771     47772
     47769     47768     47771     47773     47769     47768     47771     47774
     47770     47768     47771     47772     47770     47768     47771     47773
     47770     47768     47771     47774     47775     47780     47782     47783
     47775     47780     47784     47785     47775     47780     47784     47786
     47775     47780     47784     47790     47776     47775     47778     47779
     47776     47775     47780     47781     47776     47775     47780     47782
     47776     47775     47780     47784     47777     47775     47778     47779
     47777     47775     47780     47781     47777     47775     47780     47782
     47777     47775     47780     47784     47778     47775     47780     47781
     47778     47775     47780     47782     47778     47775     47780     47784
     47779     47778     47775     47780     47780     47784     47790     47787
     47781     47780     47782     47783     47781     47780     47784     47785
     47781     47780     47784     47786     47781     47780     47784     47790
     47782     47780     47784     47785     47782     47780     47784     47786
     47782     47780     47784     47790     47783     47782     47780     47784
     47784     47790     47787     47788     47784     47790     47787     47789
     47784     47790     47787     47791     47785     47784     47790     47787
     47786     47784     47790     47787     47787     47791     47792     47793
     47787     47791     47792     47794     47787     47791     47792     47795
     47788     47787     47791     47792     47789     47787     47791     47792
     47790     47787     47791     47792     47791     47792     47795     47796
     47791     47792     47795     47797     47791     47792     47795     47803
     47792     47795     47797     47798     47792     47795     47803     47804
     47792     47795     47803     47805     47792     47795     47803     47806
     47793     47792     47795     47796     47793     47792     47795     47797
     47793     47792     47795     47803     47794     47792     47795     47796
     47794     47792     47795     47797     47794     47792     47795     47803
     47795     47797     47798     47799     47795     47797     47798     47800
     47795     47803     47806     47807     47796     47795     47797     47798
     47796     47795     47803     47804     47796     47795     47803     47805
     47796     47795     47803     47806     47797     47795     47803     47804
     47797     47795     47803     47805     47797     47795     47803     47806
     47797     47798     47800     47801     47797     47798     47800     47802
     47797     47798     47800     47812     47798     47797     47795     47803
     47798     47800     47812     47813     47798     47800     47812     47814
     47798     47800     47812     47815     47799     47798     47800     47801
     47799     47798     47800     47802     47799     47798     47800     47812
     47800     47812     47815     47816     47800     47812     47815     47817
     47800     47812     47815     47818     47801     47800     47812     47813
     47801     47800     47812     47814     47801     47800     47812     47815
     47802     47800     47812     47813     47802     47800     47812     47814
     47802     47800     47812     47815     47803     47806     47807     47808
     47803     47806     47807     47809     47804     47803     47806     47807
     47805     47803     47806     47807     47806     47807     47809     47810
     47806     47807     47809     47811     47806     47807     47809     47859
     47807     47809     47859     47860     47807     47809     47859     47861
     47807     47809     47859     47862     47808     47807     47809     47810
     47808     47807     47809     47811     47808     47807     47809     47859
     47809     47859     47862     47863     47809     47859     47862     47864
     47809     47859     47862     47865     47810     47809     47859     47860
     47810     47809     47859     47861     47810     47809     47859     47862
     47811     47809     47859     47860     47811     47809     47859     47861
     47811     47809     47859     47862     47812     47815     47818     47819
     47812     47815     47818     47820     47812     47815     47818     47821
     47813     47812     47815     47816     47813     47812     47815     47817
     47813     47812     47815     47818     47814     47812     47815     47816
     47814     47812     47815     47817     47814     47812     47815     47818
     47815     47818     47821     47822     47815     47818     47821     47823
     47815     47818     47821     47824     47816     47815     47818     47819
     47816     47815     47818     47820     47816     47815     47818     47821
     47817     47815     47818     47819     47817     47815     47818     47820
     47817     47815     47818     47821     47818     47821     47824     47825
     47818     47821     47824     47826     47818     47821     47824     47827
     47819     47818     47821     47822     47819     47818     47821     47823
     47819     47818     47821     47824     47820     47818     47821     47822
     47820     47818     47821     47823     47820     47818     47821     47824
     47821     47824     47827     47828     47821     47824     47827     47829
     47821     47824     47827     47830     47822     47821     47824     47825
     47822     47821     47824     47826     47822     47821     47824     47827
     47823     47821     47824     47825     47823     47821     47824     47826
     47823     47821     47824     47827     47824     47827     47830     47831
     47824     47827     47830     47832     47824     47827     47830     47833
     47825     47824     47827     47828     47825     47824     47827     47829
     47825     47824     47827     47830     47826     47824     47827     47828
     47826     47824     47827     47829     47826     47824     47827     47830
     47827     47830     47833     47834     47827     47830     47833     47835
     47827     47830     47833     47836     47828     47827     47830     47831
     47828     47827     47830     47832     47828     47827     47830     47833
     47829     47827     47830     47831     47829     47827     47830     47832
     47829     47827     47830     47833     47830     47833     47836     47837
     47830     47833     47836     47838     47831     47830     47833     47834
     47831     47830     47833     47835     47831     47830     47833     47836
     47832     47830     47833     47834     47832     47830     47833     47835
     47832     47830     47833     47836     47833     47836     47838     47839
     47833     47836     47838     47840     47834     47833     47836     47837
     47834     47833     47836     47838     47835     47833     47836     47837
     47835     47833     47836     47838     47836     47838     47840     47841
     47836     47838     47840     47842     47836     47838     47840     47843
     47837     47836     47838     47839     47837     47836     47838     47840
     47838     47840     47843     47844     47838     47840     47843     47845
     47838     47840     47843     47846     47839     47838     47840     47841
     47839     47838     47840     47842     47839     47838     47840     47843
     47840     47843     47846     47847     47840     47843     47846     47848
     47840     47843     47846     47849     47841     47840     47843     47844
     47841     47840     47843     47845     47841     47840     47843     47846
     47842     47840     47843     47844     47842     47840     47843     47845
     47842     47840     47843     47846     47843     47846     47849     47850
     47843     47846     47849     47851     47843     47846     47849     47852
     47844     47843     47846     47847     47844     47843     47846     47848
     47844     47843     47846     47849     47845     47843     47846     47847
     47845     47843     47846     47848     47845     47843     47846     47849
     47846     47849     47852     47853     47846     47849     47852     47854
     47846     47849     47852     47855     47847     47846     47849     47850
     47847     47846     47849     47851     47847     47846     47849     47852
     47848     47846     47849     47850     47848     47846     47849     47851
     47848     47846     47849     47852     47849     47852     47855     47856
     47849     47852     47855     47857     47849     47852     47855     47858
     47850     47849     47852     47853     47850     47849     47852     47854
     47850     47849     47852     47855     47851     47849     47852     47853
     47851     47849     47852     47854     47851     47849     47852     47855
     47853     47852     47855     47856     47853     47852     47855     47857
     47853     47852     47855     47858     47854     47852     47855     47856
     47854     47852     47855     47857     47854     47852     47855     47858
     47859     47862     47865     47866     47859     47862     47865     47867
     47859     47862     47865     47868     47860     47859     47862     47863
     47860     47859     47862     47864     47860     47859     47862     47865
     47861     47859     47862     47863     47861     47859     47862     47864
     47861     47859     47862     47865     47862     47865     47868     47869
     47862     47865     47868     47870     47862     47865     47868     47871
     47863     47862     47865     47866     47863     47862     47865     47867
     47863     47862     47865     47868     47864     47862     47865     47866
     47864     47862     47865     47867     47864     47862     47865     47868
     47865     47868     47871     47872     47865     47868     47871     47873
     47865     47868     47871     47874     47866     47865     47868     47869
     47866     47865     47868     47870     47866     47865     47868     47871
     47867     47865     47868     47869     47867     47865     47868     47870
     47867     47865     47868     47871     47868     47871     47874     47875
     47868     47871     47874     47876     47868     47871     47874     47877
     47869     47868     47871     47872     47869     47868     47871     47873
     47869     47868     47871     47874     47870     47868     47871     47872
     47870     47868     47871     47873     47870     47868     47871     47874
     47871     47874     47877     47878     47871     47874     47877     47879
     47871     47874     47877     47880     47872     47871     47874     47875
     47872     47871     47874     47876     47872     47871     47874     47877
     47873     47871     47874     47875     47873     47871     47874     47876
     47873     47871     47874     47877     47874     47877     47880     47881
     47874     47877     47880     47882     47874     47877     47880     47883
     47875     47874     47877     47878     47875     47874     47877     47879
     47875     47874     47877     47880     47876     47874     47877     47878
     47876     47874     47877     47879     47876     47874     47877     47880
     47877     47880     47883     47884     47877     47880     47883     47885
     47877     47880     47883     47886     47878     47877     47880     47881
     47878     47877     47880     47882     47878     47877     47880     47883
     47879     47877     47880     47881     47879     47877     47880     47882
     47879     47877     47880     47883     47880     47883     47886     47887
     47880     47883     47886     47888     47880     47883     47886     47889
     47881     47880     47883     47884     47881     47880     47883     47885
     47881     47880     47883     47886     47882     47880     47883     47884
     47882     47880     47883     47885     47882     47880     47883     47886
     47883     47886     47889     47890     47883     47886     47889     47891
     47883     47886     47889     47892     47884     47883     47886     47887
     47884     47883     47886     47888     47884     47883     47886     47889
     47885     47883     47886     47887     47885     47883     47886     47888
     47885     47883     47886     47889     47886     47889     47892     47893
     47886     47889     47892     47894     47886     47889     47892     47895
     47887     47886     47889     47890     47887     47886     47889     47891
     47887     47886     47889     47892     47888     47886     47889     47890
     47888     47886     47889     47891     47888     47886     47889     47892
     47889     47892     47895     47896     47889     47892     47895     47897
     47889     47892     47895     47898     47890     47889     47892     47893
     47890     47889     47892     47894     47890     47889     47892     47895
     47891     47889     47892     47893     47891     47889     47892     47894
     47891     47889     47892     47895     47892     47895     47898     47899
     47892     47895     47898     47900     47892     47895     47898     47901
     47893     47892     47895     47896     47893     47892     47895     47897
     47893     47892     47895     47898     47894     47892     47895     47896
     47894     47892     47895     47897     47894     47892     47895     47898
     47896     47895     47898     47899     47896     47895     47898     47900
     47896     47895     47898     47901     47897     47895     47898     47899
     47897     47895     47898     47900     47897     47895     47898     47901
     47902     47907     47909     47910     47902     47907     47911     47912
     47902     47907     47911     47913     47902     47907     47911     47917
     47903     47902     47905     47906     47903     47902     47907     47908
     47903     47902     47907     47909     47903     47902     47907     47911
     47904     47902     47905     47906     47904     47902     47907     47908
     47904     47902     47907     47909     47904     47902     47907     47911
     47905     47902     47907     47908     47905     47902     47907     47909
     47905     47902     47907     47911     47906     47905     47902     47907
     47907     47911     47917     47914     47908     47907     47909     47910
     47908     47907     47911     47912     47908     47907     47911     47913
     47908     47907     47911     47917     47909     47907     47911     47912
     47909     47907     47911     47913     47909     47907     47911     47917
     47910     47909     47907     47911     47911     47917     47914     47915
     47911     47917     47914     47916     47911     47917     47914     47918
     47912     47911     47917     47914     47913     47911     47917     47914
     47914     47918     47919     47920     47914     47918     47919     47921
     47914     47918     47919     47922     47915     47914     47918     47919
     47916     47914     47918     47919     47917     47914     47918     47919
     47918     47919     47922     47923     47918     47919     47922     47924
     47918     47919     47922     47930     47919     47922     47924     47925
     47919     47922     47930     47931     47919     47922     47930     47932
     47919     47922     47930     47933     47920     47919     47922     47923
     47920     47919     47922     47924     47920     47919     47922     47930
     47921     47919     47922     47923     47921     47919     47922     47924
     47921     47919     47922     47930     47922     47924     47925     47926
     47922     47924     47925     47927     47922     47930     47933     47934
     47923     47922     47924     47925     47923     47922     47930     47931
     47923     47922     47930     47932     47923     47922     47930     47933
     47924     47922     47930     47931     47924     47922     47930     47932
     47924     47922     47930     47933     47924     47925     47927     47928
     47924     47925     47927     47929     47924     47925     47927     47939
     47925     47924     47922     47930     47925     47927     47939     47940
     47925     47927     47939     47941     47925     47927     47939     47942
     47926     47925     47927     47928     47926     47925     47927     47929
     47926     47925     47927     47939     47927     47939     47942     47943
     47927     47939     47942     47944     47927     47939     47942     47945
     47928     47927     47939     47940     47928     47927     47939     47941
     47928     47927     47939     47942     47929     47927     47939     47940
     47929     47927     47939     47941     47929     47927     47939     47942
     47930     47933     47934     47935     47930     47933     47934     47936
     47931     47930     47933     47934     47932     47930     47933     47934
     47933     47934     47936     47937     47933     47934     47936     47938
     47933     47934     47936     47986     47934     47936     47986     47987
     47934     47936     47986     47988     47934     47936     47986     47989
     47935     47934     47936     47937     47935     47934     47936     47938
     47935     47934     47936     47986     47936     47986     47989     47990
     47936     47986     47989     47991     47936     47986     47989     47992
     47937     47936     47986     47987     47937     47936     47986     47988
     47937     47936     47986     47989     47938     47936     47986     47987
     47938     47936     47986     47988     47938     47936     47986     47989
     47939     47942     47945     47946     47939     47942     47945     47947
     47939     47942     47945     47948     47940     47939     47942     47943
     47940     47939     47942     47944     47940     47939     47942     47945
     47941     47939     47942     47943     47941     47939     47942     47944
     47941     47939     47942     47945     47942     47945     47948     47949
     47942     47945     47948     47950     47942     47945     47948     47951
     47943     47942     47945     47946     47943     47942     47945     47947
     47943     47942     47945     47948     47944     47942     47945     47946
     47944     47942     47945     47947     47944     47942     47945     47948
     47945     47948     47951     47952     47945     47948     47951     47953
     47945     47948     47951     47954     47946     47945     47948     47949
     47946     47945     47948     47950     47946     47945     47948     47951
     47947     47945     47948     47949     47947     47945     47948     47950
     47947     47945     47948     47951     47948     47951     47954     47955
     47948     47951     47954     47956     47948     47951     47954     47957
     47949     47948     47951     47952     47949     47948     47951     47953
     47949     47948     47951     47954     47950     47948     47951     47952
     47950     47948     47951     47953     47950     47948     47951     47954
     47951     47954     47957     47958     47951     47954     47957     47959
     47951     47954     47957     47960     47952     47951     47954     47955
     47952     47951     47954     47956     47952     47951     47954     47957
     47953     47951     47954     47955     47953     47951     47954     47956
     47953     47951     47954     47957     47954     47957     47960     47961
     47954     47957     47960     47962     47954     47957     47960     47963
     47955     47954     47957     47958     47955     47954     47957     47959
     47955     47954     47957     47960     47956     47954     47957     47958
     47956     47954     47957     47959     47956     47954     47957     47960
     47957     47960     47963     47964     47957     47960     47963     47965
     47958     47957     47960     47961     47958     47957     47960     47962
     47958     47957     47960     47963     47959     47957     47960     47961
     47959     47957     47960     47962     47959     47957     47960     47963
     47960     47963     47965     47966     47960     47963     47965     47967
     47961     47960     47963     47964     47961     47960     47963     47965
     47962     47960     47963     47964     47962     47960     47963     47965
     47963     47965     47967     47968     47963     47965     47967     47969
     47963     47965     47967     47970     47964     47963     47965     47966
     47964     47963     47965     47967     47965     47967     47970     47971
     47965     47967     47970     47972     47965     47967     47970     47973
     47966     47965     47967     47968     47966     47965     47967     47969
     47966     47965     47967     47970     47967     47970     47973     47974
     47967     47970     47973     47975     47967     47970     47973     47976
     47968     47967     47970     47971     47968     47967     47970     47972
     47968     47967     47970     47973     47969     47967     47970     47971
     47969     47967     47970     47972     47969     47967     47970     47973
     47970     47973     47976     47977     47970     47973     47976     47978
     47970     47973     47976     47979     47971     47970     47973     47974
     47971     47970     47973     47975     47971     47970     47973     47976
     47972     47970     47973     47974     47972     47970     47973     47975
     47972     47970     47973     47976     47973     47976     47979     47980
     47973     47976     47979     47981     47973     47976     47979     47982
     47974     47973     47976     47977     47974     47973     47976     47978
     47974     47973     47976     47979     47975     47973     47976     47977
     47975     47973     47976     47978     47975     47973     47976     47979
     47976     47979     47982     47983     47976     47979     47982     47984
     47976     47979     47982     47985     47977     47976     47979     47980
     47977     47976     47979     47981     47977     47976     47979     47982
     47978     47976     47979     47980     47978     47976     47979     47981
     47978     47976     47979     47982     47980     47979     47982     47983
     47980     47979     47982     47984     47980     47979     47982     47985
     47981     47979     47982     47983     47981     47979     47982     47984
     47981     47979     47982     47985     47986     47989     47992     47993
     47986     47989     47992     47994     47986     47989     47992     47995
     47987     47986     47989     47990     47987     47986     47989     47991
     47987     47986     47989     47992     47988     47986     47989     47990
     47988     47986     47989     47991     47988     47986     47989     47992
     47989     47992     47995     47996     47989     47992     47995     47997
     47989     47992     47995     47998     47990     47989     47992     47993
     47990     47989     47992     47994     47990     47989     47992     47995
     47991     47989     47992     47993     47991     47989     47992     47994
     47991     47989     47992     47995     47992     47995     47998     47999
     47992     47995     47998     48000     47992     47995     47998     48001
     47993     47992     47995     47996     47993     47992     47995     47997
     47993     47992     47995     47998     47994     47992     47995     47996
     47994     47992     47995     47997     47994     47992     47995     47998
     47995     47998     48001     48002     47995     47998     48001     48003
     47995     47998     48001     48004     47996     47995     47998     47999
     47996     47995     47998     48000     47996     47995     47998     48001
     47997     47995     47998     47999     47997     47995     47998     48000
     47997     47995     47998     48001     47998     48001     48004     48005
     47998     48001     48004     48006     47998     48001     48004     48007
     47999     47998     48001     48002     47999     47998     48001     48003
     47999     47998     48001     48004     48000     47998     48001     48002
     48000     47998     48001     48003     48000     47998     48001     48004
     48001     48004     48007     48008     48001     48004     48007     48009
     48001     48004     48007     48010     48002     48001     48004     48005
     48002     48001     48004     48006     48002     48001     48004     48007
     48003     48001     48004     48005     48003     48001     48004     48006
     48003     48001     48004     48007     48004     48007     48010     48011
     48004     48007     48010     48012     48004     48007     48010     48013
     48005     48004     48007     48008     48005     48004     48007     48009
     48005     48004     48007     48010     48006     48004     48007     48008
     48006     48004     48007     48009     48006     48004     48007     48010
     48007     48010     48013     48014     48007     48010     48013     48015
     48007     48010     48013     48016     48008     48007     48010     48011
     48008     48007     48010     48012     48008     48007     48010     48013
     48009     48007     48010     48011     48009     48007     48010     48012
     48009     48007     48010     48013     48010     48013     48016     48017
     48010     48013     48016     48018     48010     48013     48016     48019
     48011     48010     48013     48014     48011     48010     48013     48015
     48011     48010     48013     48016     48012     48010     48013     48014
     48012     48010     48013     48015     48012     48010     48013     48016
     48013     48016     48019     48020     48013     48016     48019     48021
     48013     48016     48019     48022     48014     48013     48016     48017
     48014     48013     48016     48018     48014     48013     48016     48019
     48015     48013     48016     48017     48015     48013     48016     48018
     48015     48013     48016     48019     48016     48019     48022     48023
     48016     48019     48022     48024     48016     48019     48022     48025
     48017     48016     48019     48020     48017     48016     48019     48021
     48017     48016     48019     48022     48018     48016     48019     48020
     48018     48016     48019     48021     48018     48016     48019     48022
     48019     48022     48025     48026     48019     48022     48025     48027
     48019     48022     48025     48028     48020     48019     48022     48023
     48020     48019     48022     48024     48020     48019     48022     48025
     48021     48019     48022     48023     48021     48019     48022     48024
     48021     48019     48022     48025     48023     48022     48025     48026
     48023     48022     48025     48027     48023     48022     48025     48028
     48024     48022     48025     48026     48024     48022     48025     48027
     48024     48022     48025     48028     48029     48033     48036     48037
     48029     48033     48036     48038     48029     48033     48036     48043
     48030     48029     48033     48034     48030     48029     48033     48035
     48030     48029     48033     48036     48031     48029     48033     48034
     48031     48029     48033     48035     48031     48029     48033     48036
     48032     48029     48033     48034     48032     48029     48033     48035
     48032     48029     48033     48036     48033     48036     48043     48039
     48034     48033     48036     48037     48034     48033     48036     48038
     48034     48033     48036     48043     48035     48033     48036     48037
     48035     48033     48036     48038     48035     48033     48036     48043
     48036     48043     48039     48040     48036     48043     48039     48041
     48036     48043     48039     48042     48037     48036     48043     48039
     48038     48036     48043     48039     48039     48042     48044     48045
     48039     48042     48044     48046     48039     48042     48044     48047
     48040     48039     48042     48044     48041     48039     48042     48044
     48042     48044     48047     48048     48042     48044     48047     48049
     48042     48044     48047     48055     48043     48039     48042     48044
     48044     48047     48049     48050     48044     48047     48055     48056
     48044     48047     48055     48057     48044     48047     48055     48058
     48045     48044     48047     48048     48045     48044     48047     48049
     48045     48044     48047     48055     48046     48044     48047     48048
     48046     48044     48047     48049     48046     48044     48047     48055
     48047     48049     48050     48051     48047     48049     48050     48052
     48047     48055     48058     48059     48048     48047     48049     48050
     48048     48047     48055     48056     48048     48047     48055     48057
     48048     48047     48055     48058     48049     48047     48055     48056
     48049     48047     48055     48057     48049     48047     48055     48058
     48049     48050     48052     48053     48049     48050     48052     48054
     48049     48050     48052     48064     48050     48049     48047     48055
     48050     48052     48064     48065     48050     48052     48064     48066
     48050     48052     48064     48067     48051     48050     48052     48053
     48051     48050     48052     48054     48051     48050     48052     48064
     48052     48064     48067     48068     48052     48064     48067     48069
     48052     48064     48067     48070     48053     48052     48064     48065
     48053     48052     48064     48066     48053     48052     48064     48067
     48054     48052     48064     48065     48054     48052     48064     48066
     48054     48052     48064     48067     48055     48058     48059     48060
     48055     48058     48059     48061     48056     48055     48058     48059
     48057     48055     48058     48059     48058     48059     48061     48062
     48058     48059     48061     48063     48058     48059     48061     48105
     48059     48061     48105     48106     48059     48061     48105     48107
     48059     48061     48105     48108     48060     48059     48061     48062
     48060     48059     48061     48063     48060     48059     48061     48105
     48061     48105     48108     48109     48061     48105     48108     48110
     48061     48105     48108     48111     48062     48061     48105     48106
     48062     48061     48105     48107     48062     48061     48105     48108
     48063     48061     48105     48106     48063     48061     48105     48107
     48063     48061     48105     48108     48064     48067     48070     48071
     48064     48067     48070     48072     48064     48067     48070     48073
     48065     48064     48067     48068     48065     48064     48067     48069
     48065     48064     48067     48070     48066     48064     48067     48068
     48066     48064     48067     48069     48066     48064     48067     48070
     48067     48070     48073     48074     48067     48070     48073     48075
     48067     48070     48073     48076     48068     48067     48070     48071
     48068     48067     48070     48072     48068     48067     48070     48073
     48069     48067     48070     48071     48069     48067     48070     48072
     48069     48067     48070     48073     48070     48073     48076     48077
     48070     48073     48076     48078     48070     48073     48076     48079
     48071     48070     48073     48074     48071     48070     48073     48075
     48071     48070     48073     48076     48072     48070     48073     48074
     48072     48070     48073     48075     48072     48070     48073     48076
     48073     48076     48079     48080     48073     48076     48079     48081
     48073     48076     48079     48082     48074     48073     48076     48077
     48074     48073     48076     48078     48074     48073     48076     48079
     48075     48073     48076     48077     48075     48073     48076     48078
     48075     48073     48076     48079     48076     48079     48082     48083
     48076     48079     48082     48084     48077     48076     48079     48080
     48077     48076     48079     48081     48077     48076     48079     48082
     48078     48076     48079     48080     48078     48076     48079     48081
     48078     48076     48079     48082     48079     48082     48084     48085
     48079     48082     48084     48086     48080     48079     48082     48083
     48080     48079     48082     48084     48081     48079     48082     48083
     48081     48079     48082     48084     48082     48084     48086     48087
     48082     48084     48086     48088     48082     48084     48086     48089
     48083     48082     48084     48085     48083     48082     48084     48086
     48084     48086     48089     48090     48084     48086     48089     48091
     48084     48086     48089     48092     48085     48084     48086     48087
     48085     48084     48086     48088     48085     48084     48086     48089
     48086     48089     48092     48093     48086     48089     48092     48094
     48086     48089     48092     48095     48087     48086     48089     48090
     48087     48086     48089     48091     48087     48086     48089     48092
     48088     48086     48089     48090     48088     48086     48089     48091
     48088     48086     48089     48092     48089     48092     48095     48096
     48089     48092     48095     48097     48089     48092     48095     48098
     48090     48089     48092     48093     48090     48089     48092     48094
     48090     48089     48092     48095     48091     48089     48092     48093
     48091     48089     48092     48094     48091     48089     48092     48095
     48092     48095     48098     48099     48092     48095     48098     48100
     48092     48095     48098     48101     48093     48092     48095     48096
     48093     48092     48095     48097     48093     48092     48095     48098
     48094     48092     48095     48096     48094     48092     48095     48097
     48094     48092     48095     48098     48095     48098     48101     48102
     48095     48098     48101     48103     48095     48098     48101     48104
     48096     48095     48098     48099     48096     48095     48098     48100
     48096     48095     48098     48101     48097     48095     48098     48099
     48097     48095     48098     48100     48097     48095     48098     48101
     48099     48098     48101     48102     48099     48098     48101     48103
     48099     48098     48101     48104     48100     48098     48101     48102
     48100     48098     48101     48103     48100     48098     48101     48104
     48105     48108     48111     48112     48105     48108     48111     48113
     48105     48108     48111     48114     48106     48105     48108     48109
     48106     48105     48108     48110     48106     48105     48108     48111
     48107     48105     48108     48109     48107     48105     48108     48110
     48107     48105     48108     48111     48108     48111     48114     48115
     48108     48111     48114     48116     48108     48111     48114     48117
     48109     48108     48111     48112     48109     48108     48111     48113
     48109     48108     48111     48114     48110     48108     48111     48112
     48110     48108     48111     48113     48110     48108     48111     48114
     48111     48114     48117     48118     48111     48114     48117     48119
     48111     48114     48117     48120     48112     48111     48114     48115
     48112     48111     48114     48116     48112     48111     48114     48117
     48113     48111     48114     48115     48113     48111     48114     48116
     48113     48111     48114     48117     48114     48117     48120     48121
     48114     48117     48120     48122     48114     48117     48120     48123
     48115     48114     48117     48118     48115     48114     48117     48119
     48115     48114     48117     48120     48116     48114     48117     48118
     48116     48114     48117     48119     48116     48114     48117     48120
     48117     48120     48123     48124     48117     48120     48123     48125
     48117     48120     48123     48126     48118     48117     48120     48121
     48118     48117     48120     48122     48118     48117     48120     48123
     48119     48117     48120     48121     48119     48117     48120     48122
     48119     48117     48120     48123     48120     48123     48126     48127
     48120     48123     48126     48128     48120     48123     48126     48129
     48121     48120     48123     48124     48121     48120     48123     48125
     48121     48120     48123     48126     48122     48120     48123     48124
     48122     48120     48123     48125     48122     48120     48123     48126
     48123     48126     48129     48130     48123     48126     48129     48131
     48123     48126     48129     48132     48124     48123     48126     48127
     48124     48123     48126     48128     48124     48123     48126     48129
     48125     48123     48126     48127     48125     48123     48126     48128
     48125     48123     48126     48129     48126     48129     48132     48133
     48126     48129     48132     48134     48126     48129     48132     48135
     48127     48126     48129     48130     48127     48126     48129     48131
     48127     48126     48129     48132     48128     48126     48129     48130
     48128     48126     48129     48131     48128     48126     48129     48132
     48129     48132     48135     48136     48129     48132     48135     48137
     48129     48132     48135     48138     48130     48129     48132     48133
     48130     48129     48132     48134     48130     48129     48132     48135
     48131     48129     48132     48133     48131     48129     48132     48134
     48131     48129     48132     48135     48132     48135     48138     48139
     48132     48135     48138     48140     48132     48135     48138     48141
     48133     48132     48135     48136     48133     48132     48135     48137
     48133     48132     48135     48138     48134     48132     48135     48136
     48134     48132     48135     48137     48134     48132     48135     48138
     48135     48138     48141     48142     48135     48138     48141     48143
     48135     48138     48141     48144     48136     48135     48138     48139
     48136     48135     48138     48140     48136     48135     48138     48141
     48137     48135     48138     48139     48137     48135     48138     48140
     48137     48135     48138     48141     48138     48141     48144     48145
     48138     48141     48144     48146     48138     48141     48144     48147
     48139     48138     48141     48142     48139     48138     48141     48143
     48139     48138     48141     48144     48140     48138     48141     48142
     48140     48138     48141     48143     48140     48138     48141     48144
     48142     48141     48144     48145     48142     48141     48144     48146
     48142     48141     48144     48147     48143     48141     48144     48145
     48143     48141     48144     48146     48143     48141     48144     48147
     48148     48152     48155     48156     48148     48152     48155     48157
     48148     48152     48155     48162     48149     48148     48152     48153
     48149     48148     48152     48154     48149     48148     48152     48155
     48150     48148     48152     48153     48150     48148     48152     48154
     48150     48148     48152     48155     48151     48148     48152     48153
     48151     48148     48152     48154     48151     48148     48152     48155
     48152     48155     48162     48158     48153     48152     48155     48156
     48153     48152     48155     48157     48153     48152     48155     48162
     48154     48152     48155     48156     48154     48152     48155     48157
     48154     48152     48155     48162     48155     48162     48158     48159
     48155     48162     48158     48160     48155     48162     48158     48161
     48156     48155     48162     48158     48157     48155     48162     48158
     48158     48161     48163     48164     48158     48161     48163     48165
     48158     48161     48163     48166     48159     48158     48161     48163
     48160     48158     48161     48163     48161     48163     48166     48167
     48161     48163     48166     48168     48161     48163     48166     48174
     48162     48158     48161     48163     48163     48166     48168     48169
     48163     48166     48174     48175     48163     48166     48174     48176
     48163     48166     48174     48177     48164     48163     48166     48167
     48164     48163     48166     48168     48164     48163     48166     48174
     48165     48163     48166     48167     48165     48163     48166     48168
     48165     48163     48166     48174     48166     48168     48169     48170
     48166     48168     48169     48171     48166     48174     48177     48178
     48167     48166     48168     48169     48167     48166     48174     48175
     48167     48166     48174     48176     48167     48166     48174     48177
     48168     48166     48174     48175     48168     48166     48174     48176
     48168     48166     48174     48177     48168     48169     48171     48172
     48168     48169     48171     48173     48168     48169     48171     48183
     48169     48168     48166     48174     48169     48171     48183     48184
     48169     48171     48183     48185     48169     48171     48183     48186
     48170     48169     48171     48172     48170     48169     48171     48173
     48170     48169     48171     48183     48171     48183     48186     48187
     48171     48183     48186     48188     48171     48183     48186     48189
     48172     48171     48183     48184     48172     48171     48183     48185
     48172     48171     48183     48186     48173     48171     48183     48184
     48173     48171     48183     48185     48173     48171     48183     48186
     48174     48177     48178     48179     48174     48177     48178     48180
     48175     48174     48177     48178     48176     48174     48177     48178
     48177     48178     48180     48181     48177     48178     48180     48182
     48177     48178     48180     48224     48178     48180     48224     48225
     48178     48180     48224     48226     48178     48180     48224     48227
     48179     48178     48180     48181     48179     48178     48180     48182
     48179     48178     48180     48224     48180     48224     48227     48228
     48180     48224     48227     48229     48180     48224     48227     48230
     48181     48180     48224     48225     48181     48180     48224     48226
     48181     48180     48224     48227     48182     48180     48224     48225
     48182     48180     48224     48226     48182     48180     48224     48227
     48183     48186     48189     48190     48183     48186     48189     48191
     48183     48186     48189     48192     48184     48183     48186     48187
     48184     48183     48186     48188     48184     48183     48186     48189
     48185     48183     48186     48187     48185     48183     48186     48188
     48185     48183     48186     48189     48186     48189     48192     48193
     48186     48189     48192     48194     48186     48189     48192     48195
     48187     48186     48189     48190     48187     48186     48189     48191
     48187     48186     48189     48192     48188     48186     48189     48190
     48188     48186     48189     48191     48188     48186     48189     48192
     48189     48192     48195     48196     48189     48192     48195     48197
     48189     48192     48195     48198     48190     48189     48192     48193
     48190     48189     48192     48194     48190     48189     48192     48195
     48191     48189     48192     48193     48191     48189     48192     48194
     48191     48189     48192     48195     48192     48195     48198     48199
     48192     48195     48198     48200     48192     48195     48198     48201
     48193     48192     48195     48196     48193     48192     48195     48197
     48193     48192     48195     48198     48194     48192     48195     48196
     48194     48192     48195     48197     48194     48192     48195     48198
     48195     48198     48201     48202     48195     48198     48201     48203
     48196     48195     48198     48199     48196     48195     48198     48200
     48196     48195     48198     48201     48197     48195     48198     48199
     48197     48195     48198     48200     48197     48195     48198     48201
     48198     48201     48203     48204     48198     48201     48203     48205
     48199     48198     48201     48202     48199     48198     48201     48203
     48200     48198     48201     48202     48200     48198     48201     48203
     48201     48203     48205     48206     48201     48203     48205     48207
     48201     48203     48205     48208     48202     48201     48203     48204
     48202     48201     48203     48205     48203     48205     48208     48209
     48203     48205     48208     48210     48203     48205     48208     48211
     48204     48203     48205     48206     48204     48203     48205     48207
     48204     48203     48205     48208     48205     48208     48211     48212
     48205     48208     48211     48213     48205     48208     48211     48214
     48206     48205     48208     48209     48206     48205     48208     48210
     48206     48205     48208     48211     48207     48205     48208     48209
     48207     48205     48208     48210     48207     48205     48208     48211
     48208     48211     48214     48215     48208     48211     48214     48216
     48208     48211     48214     48217     48209     48208     48211     48212
     48209     48208     48211     48213     48209     48208     48211     48214
     48210     48208     48211     48212     48210     48208     48211     48213
     48210     48208     48211     48214     48211     48214     48217     48218
     48211     48214     48217     48219     48211     48214     48217     48220
     48212     48211     48214     48215     48212     48211     48214     48216
     48212     48211     48214     48217     48213     48211     48214     48215
     48213     48211     48214     48216     48213     48211     48214     48217
     48214     48217     48220     48221     48214     48217     48220     48222
     48214     48217     48220     48223     48215     48214     48217     48218
     48215     48214     48217     48219     48215     48214     48217     48220
     48216     48214     48217     48218     48216     48214     48217     48219
     48216     48214     48217     48220     48218     48217     48220     48221
     48218     48217     48220     48222     48218     48217     48220     48223
     48219     48217     48220     48221     48219     48217     48220     48222
     48219     48217     48220     48223     48224     48227     48230     48231
     48224     48227     48230     48232     48224     48227     48230     48233
     48225     48224     48227     48228     48225     48224     48227     48229
     48225     48224     48227     48230     48226     48224     48227     48228
     48226     48224     48227     48229     48226     48224     48227     48230
     48227     48230     48233     48234     48227     48230     48233     48235
     48227     48230     48233     48236     48228     48227     48230     48231
     48228     48227     48230     48232     48228     48227     48230     48233
     48229     48227     48230     48231     48229     48227     48230     48232
     48229     48227     48230     48233     48230     48233     48236     48237
     48230     48233     48236     48238     48230     48233     48236     48239
     48231     48230     48233     48234     48231     48230     48233     48235
     48231     48230     48233     48236     48232     48230     48233     48234
     48232     48230     48233     48235     48232     48230     48233     48236
     48233     48236     48239     48240     48233     48236     48239     48241
     48233     48236     48239     48242     48234     48233     48236     48237
     48234     48233     48236     48238     48234     48233     48236     48239
     48235     48233     48236     48237     48235     48233     48236     48238
     48235     48233     48236     48239     48236     48239     48242     48243
     48236     48239     48242     48244     48236     48239     48242     48245
     48237     48236     48239     48240     48237     48236     48239     48241
     48237     48236     48239     48242     48238     48236     48239     48240
     48238     48236     48239     48241     48238     48236     48239     48242
     48239     48242     48245     48246     48239     48242     48245     48247
     48239     48242     48245     48248     48240     48239     48242     48243
     48240     48239     48242     48244     48240     48239     48242     48245
     48241     48239     48242     48243     48241     48239     48242     48244
     48241     48239     48242     48245     48242     48245     48248     48249
     48242     48245     48248     48250     48242     48245     48248     48251
     48243     48242     48245     48246     48243     48242     48245     48247
     48243     48242     48245     48248     48244     48242     48245     48246
     48244     48242     48245     48247     48244     48242     48245     48248
     48245     48248     48251     48252     48245     48248     48251     48253
     48245     48248     48251     48254     48246     48245     48248     48249
     48246     48245     48248     48250     48246     48245     48248     48251
     48247     48245     48248     48249     48247     48245     48248     48250
     48247     48245     48248     48251     48248     48251     48254     48255
     48248     48251     48254     48256     48248     48251     48254     48257
     48249     48248     48251     48252     48249     48248     48251     48253
     48249     48248     48251     48254     48250     48248     48251     48252
     48250     48248     48251     48253     48250     48248     48251     48254
     48251     48254     48257     48258     48251     48254     48257     48259
     48251     48254     48257     48260     48252     48251     48254     48255
     48252     48251     48254     48256     48252     48251     48254     48257
     48253     48251     48254     48255     48253     48251     48254     48256
     48253     48251     48254     48257     48254     48257     48260     48261
     48254     48257     48260     48262     48254     48257     48260     48263
     48255     48254     48257     48258     48255     48254     48257     48259
     48255     48254     48257     48260     48256     48254     48257     48258
     48256     48254     48257     48259     48256     48254     48257     48260
     48257     48260     48263     48264     48257     48260     48263     48265
     48257     48260     48263     48266     48258     48257     48260     48261
     48258     48257     48260     48262     48258     48257     48260     48263
     48259     48257     48260     48261     48259     48257     48260     48262
     48259     48257     48260     48263     48261     48260     48263     48264
     48261     48260     48263     48265     48261     48260     48263     48266
     48262     48260     48263     48264     48262     48260     48263     48265
     48262     48260     48263     48266     48267     48271     48274     48275
     48267     48271     48274     48276     48267     48271     48274     48281
     48268     48267     48271     48272     48268     48267     48271     48273
     48268     48267     48271     48274     48269     48267     48271     48272
     48269     48267     48271     48273     48269     48267     48271     48274
     48270     48267     48271     48272     48270     48267     48271     48273
     48270     48267     48271     48274     48271     48274     48281     48277
     48272     48271     48274     48275     48272     48271     48274     48276
     48272     48271     48274     48281     48273     48271     48274     48275
     48273     48271     48274     48276     48273     48271     48274     48281
     48274     48281     48277     48278     48274     48281     48277     48279
     48274     48281     48277     48280     48275     48274     48281     48277
     48276     48274     48281     48277     48277     48280     48282     48283
     48277     48280     48282     48284     48277     48280     48282     48285
     48278     48277     48280     48282     48279     48277     48280     48282
     48280     48282     48285     48286     48280     48282     48285     48287
     48280     48282     48285     48293     48281     48277     48280     48282
     48282     48285     48287     48288     48282     48285     48293     48294
     48282     48285     48293     48295     48282     48285     48293     48296
     48283     48282     48285     48286     48283     48282     48285     48287
     48283     48282     48285     48293     48284     48282     48285     48286
     48284     48282     48285     48287     48284     48282     48285     48293
     48285     48287     48288     48289     48285     48287     48288     48290
     48285     48293     48296     48297     48286     48285     48287     48288
     48286     48285     48293     48294     48286     48285     48293     48295
     48286     48285     48293     48296     48287     48285     48293     48294
     48287     48285     48293     48295     48287     48285     48293     48296
     48287     48288     48290     48291     48287     48288     48290     48292
     48287     48288     48290     48302     48288     48287     48285     48293
     48288     48290     48302     48303     48288     48290     48302     48304
     48288     48290     48302     48305     48289     48288     48290     48291
     48289     48288     48290     48292     48289     48288     48290     48302
     48290     48302     48305     48306     48290     48302     48305     48307
     48290     48302     48305     48308     48291     48290     48302     48303
     48291     48290     48302     48304     48291     48290     48302     48305
     48292     48290     48302     48303     48292     48290     48302     48304
     48292     48290     48302     48305     48293     48296     48297     48298
     48293     48296     48297     48299     48294     48293     48296     48297
     48295     48293     48296     48297     48296     48297     48299     48300
     48296     48297     48299     48301     48296     48297     48299     48343
     48297     48299     48343     48344     48297     48299     48343     48345
     48297     48299     48343     48346     48298     48297     48299     48300
     48298     48297     48299     48301     48298     48297     48299     48343
     48299     48343     48346     48347     48299     48343     48346     48348
     48299     48343     48346     48349     48300     48299     48343     48344
     48300     48299     48343     48345     48300     48299     48343     48346
     48301     48299     48343     48344     48301     48299     48343     48345
     48301     48299     48343     48346     48302     48305     48308     48309
     48302     48305     48308     48310     48302     48305     48308     48311
     48303     48302     48305     48306     48303     48302     48305     48307
     48303     48302     48305     48308     48304     48302     48305     48306
     48304     48302     48305     48307     48304     48302     48305     48308
     48305     48308     48311     48312     48305     48308     48311     48313
     48305     48308     48311     48314     48306     48305     48308     48309
     48306     48305     48308     48310     48306     48305     48308     48311
     48307     48305     48308     48309     48307     48305     48308     48310
     48307     48305     48308     48311     48308     48311     48314     48315
     48308     48311     48314     48316     48308     48311     48314     48317
     48309     48308     48311     48312     48309     48308     48311     48313
     48309     48308     48311     48314     48310     48308     48311     48312
     48310     48308     48311     48313     48310     48308     48311     48314
     48311     48314     48317     48318     48311     48314     48317     48319
     48311     48314     48317     48320     48312     48311     48314     48315
     48312     48311     48314     48316     48312     48311     48314     48317
     48313     48311     48314     48315     48313     48311     48314     48316
     48313     48311     48314     48317     48314     48317     48320     48321
     48314     48317     48320     48322     48315     48314     48317     48318
     48315     48314     48317     48319     48315     48314     48317     48320
     48316     48314     48317     48318     48316     48314     48317     48319
     48316     48314     48317     48320     48317     48320     48322     48323
     48317     48320     48322     48324     48318     48317     48320     48321
     48318     48317     48320     48322     48319     48317     48320     48321
     48319     48317     48320     48322     48320     48322     48324     48325
     48320     48322     48324     48326     48320     48322     48324     48327
     48321     48320     48322     48323     48321     48320     48322     48324
     48322     48324     48327     48328     48322     48324     48327     48329
     48322     48324     48327     48330     48323     48322     48324     48325
     48323     48322     48324     48326     48323     48322     48324     48327
     48324     48327     48330     48331     48324     48327     48330     48332
     48324     48327     48330     48333     48325     48324     48327     48328
     48325     48324     48327     48329     48325     48324     48327     48330
     48326     48324     48327     48328     48326     48324     48327     48329
     48326     48324     48327     48330     48327     48330     48333     48334
     48327     48330     48333     48335     48327     48330     48333     48336
     48328     48327     48330     48331     48328     48327     48330     48332
     48328     48327     48330     48333     48329     48327     48330     48331
     48329     48327     48330     48332     48329     48327     48330     48333
     48330     48333     48336     48337     48330     48333     48336     48338
     48330     48333     48336     48339     48331     48330     48333     48334
     48331     48330     48333     48335     48331     48330     48333     48336
     48332     48330     48333     48334     48332     48330     48333     48335
     48332     48330     48333     48336     48333     48336     48339     48340
     48333     48336     48339     48341     48333     48336     48339     48342
     48334     48333     48336     48337     48334     48333     48336     48338
     48334     48333     48336     48339     48335     48333     48336     48337
     48335     48333     48336     48338     48335     48333     48336     48339
     48337     48336     48339     48340     48337     48336     48339     48341
     48337     48336     48339     48342     48338     48336     48339     48340
     48338     48336     48339     48341     48338     48336     48339     48342
     48343     48346     48349     48350     48343     48346     48349     48351
     48343     48346     48349     48352     48344     48343     48346     48347
     48344     48343     48346     48348     48344     48343     48346     48349
     48345     48343     48346     48347     48345     48343     48346     48348
     48345     48343     48346     48349     48346     48349     48352     48353
     48346     48349     48352     48354     48346     48349     48352     48355
     48347     48346     48349     48350     48347     48346     48349     48351
     48347     48346     48349     48352     48348     48346     48349     48350
     48348     48346     48349     48351     48348     48346     48349     48352
     48349     48352     48355     48356     48349     48352     48355     48357
     48349     48352     48355     48358     48350     48349     48352     48353
     48350     48349     48352     48354     48350     48349     48352     48355
     48351     48349     48352     48353     48351     48349     48352     48354
     48351     48349     48352     48355     48352     48355     48358     48359
     48352     48355     48358     48360     48352     48355     48358     48361
     48353     48352     48355     48356     48353     48352     48355     48357
     48353     48352     48355     48358     48354     48352     48355     48356
     48354     48352     48355     48357     48354     48352     48355     48358
     48355     48358     48361     48362     48355     48358     48361     48363
     48355     48358     48361     48364     48356     48355     48358     48359
     48356     48355     48358     48360     48356     48355     48358     48361
     48357     48355     48358     48359     48357     48355     48358     48360
     48357     48355     48358     48361     48358     48361     48364     48365
     48358     48361     48364     48366     48358     48361     48364     48367
     48359     48358     48361     48362     48359     48358     48361     48363
     48359     48358     48361     48364     48360     48358     48361     48362
     48360     48358     48361     48363     48360     48358     48361     48364
     48361     48364     48367     48368     48361     48364     48367     48369
     48361     48364     48367     48370     48362     48361     48364     48365
     48362     48361     48364     48366     48362     48361     48364     48367
     48363     48361     48364     48365     48363     48361     48364     48366
     48363     48361     48364     48367     48364     48367     48370     48371
     48364     48367     48370     48372     48364     48367     48370     48373
     48365     48364     48367     48368     48365     48364     48367     48369
     48365     48364     48367     48370     48366     48364     48367     48368
     48366     48364     48367     48369     48366     48364     48367     48370
     48367     48370     48373     48374     48367     48370     48373     48375
     48367     48370     48373     48376     48368     48367     48370     48371
     48368     48367     48370     48372     48368     48367     48370     48373
     48369     48367     48370     48371     48369     48367     48370     48372
     48369     48367     48370     48373     48370     48373     48376     48377
     48370     48373     48376     48378     48370     48373     48376     48379
     48371     48370     48373     48374     48371     48370     48373     48375
     48371     48370     48373     48376     48372     48370     48373     48374
     48372     48370     48373     48375     48372     48370     48373     48376
     48373     48376     48379     48380     48373     48376     48379     48381
     48373     48376     48379     48382     48374     48373     48376     48377
     48374     48373     48376     48378     48374     48373     48376     48379
     48375     48373     48376     48377     48375     48373     48376     48378
     48375     48373     48376     48379     48376     48379     48382     48383
     48376     48379     48382     48384     48376     48379     48382     48385
     48377     48376     48379     48380     48377     48376     48379     48381
     48377     48376     48379     48382     48378     48376     48379     48380
     48378     48376     48379     48381     48378     48376     48379     48382
     48380     48379     48382     48383     48380     48379     48382     48384
     48380     48379     48382     48385     48381     48379     48382     48383
     48381     48379     48382     48384     48381     48379     48382     48385
     48386     48390     48393     48394     48386     48390     48393     48395
     48386     48390     48393     48400     48387     48386     48390     48391
     48387     48386     48390     48392     48387     48386     48390     48393
     48388     48386     48390     48391     48388     48386     48390     48392
     48388     48386     48390     48393     48389     48386     48390     48391
     48389     48386     48390     48392     48389     48386     48390     48393
     48390     48393     48400     48396     48391     48390     48393     48394
     48391     48390     48393     48395     48391     48390     48393     48400
     48392     48390     48393     48394     48392     48390     48393     48395
     48392     48390     48393     48400     48393     48400     48396     48397
     48393     48400     48396     48398     48393     48400     48396     48399
     48394     48393     48400     48396     48395     48393     48400     48396
     48396     48399     48401     48402     48396     48399     48401     48403
     48396     48399     48401     48404     48397     48396     48399     48401
     48398     48396     48399     48401     48399     48401     48404     48405
     48399     48401     48404     48406     48399     48401     48404     48412
     48400     48396     48399     48401     48401     48404     48406     48407
     48401     48404     48412     48413     48401     48404     48412     48414
     48401     48404     48412     48415     48402     48401     48404     48405
     48402     48401     48404     48406     48402     48401     48404     48412
     48403     48401     48404     48405     48403     48401     48404     48406
     48403     48401     48404     48412     48404     48406     48407     48408
     48404     48406     48407     48409     48404     48412     48415     48416
     48405     48404     48406     48407     48405     48404     48412     48413
     48405     48404     48412     48414     48405     48404     48412     48415
     48406     48404     48412     48413     48406     48404     48412     48414
     48406     48404     48412     48415     48406     48407     48409     48410
     48406     48407     48409     48411     48406     48407     48409     48421
     48407     48406     48404     48412     48407     48409     48421     48422
     48407     48409     48421     48423     48407     48409     48421     48424
     48408     48407     48409     48410     48408     48407     48409     48411
     48408     48407     48409     48421     48409     48421     48424     48425
     48409     48421     48424     48426     48409     48421     48424     48427
     48410     48409     48421     48422     48410     48409     48421     48423
     48410     48409     48421     48424     48411     48409     48421     48422
     48411     48409     48421     48423     48411     48409     48421     48424
     48412     48415     48416     48417     48412     48415     48416     48418
     48413     48412     48415     48416     48414     48412     48415     48416
     48415     48416     48418     48419     48415     48416     48418     48420
     48415     48416     48418     48462     48416     48418     48462     48463
     48416     48418     48462     48464     48416     48418     48462     48465
     48417     48416     48418     48419     48417     48416     48418     48420
     48417     48416     48418     48462     48418     48462     48465     48466
     48418     48462     48465     48467     48418     48462     48465     48468
     48419     48418     48462     48463     48419     48418     48462     48464
     48419     48418     48462     48465     48420     48418     48462     48463
     48420     48418     48462     48464     48420     48418     48462     48465
     48421     48424     48427     48428     48421     48424     48427     48429
     48421     48424     48427     48430     48422     48421     48424     48425
     48422     48421     48424     48426     48422     48421     48424     48427
     48423     48421     48424     48425     48423     48421     48424     48426
     48423     48421     48424     48427     48424     48427     48430     48431
     48424     48427     48430     48432     48424     48427     48430     48433
     48425     48424     48427     48428     48425     48424     48427     48429
     48425     48424     48427     48430     48426     48424     48427     48428
     48426     48424     48427     48429     48426     48424     48427     48430
     48427     48430     48433     48434     48427     48430     48433     48435
     48427     48430     48433     48436     48428     48427     48430     48431
     48428     48427     48430     48432     48428     48427     48430     48433
     48429     48427     48430     48431     48429     48427     48430     48432
     48429     48427     48430     48433     48430     48433     48436     48437
     48430     48433     48436     48438     48430     48433     48436     48439
     48431     48430     48433     48434     48431     48430     48433     48435
     48431     48430     48433     48436     48432     48430     48433     48434
     48432     48430     48433     48435     48432     48430     48433     48436
     48433     48436     48439     48440     48433     48436     48439     48441
     48434     48433     48436     48437     48434     48433     48436     48438
     48434     48433     48436     48439     48435     48433     48436     48437
     48435     48433     48436     48438     48435     48433     48436     48439
     48436     48439     48441     48442     48436     48439     48441     48443
     48437     48436     48439     48440     48437     48436     48439     48441
     48438     48436     48439     48440     48438     48436     48439     48441
     48439     48441     48443     48444     48439     48441     48443     48445
     48439     48441     48443     48446     48440     48439     48441     48442
     48440     48439     48441     48443     48441     48443     48446     48447
     48441     48443     48446     48448     48441     48443     48446     48449
     48442     48441     48443     48444     48442     48441     48443     48445
     48442     48441     48443     48446     48443     48446     48449     48450
     48443     48446     48449     48451     48443     48446     48449     48452
     48444     48443     48446     48447     48444     48443     48446     48448
     48444     48443     48446     48449     48445     48443     48446     48447
     48445     48443     48446     48448     48445     48443     48446     48449
     48446     48449     48452     48453     48446     48449     48452     48454
     48446     48449     48452     48455     48447     48446     48449     48450
     48447     48446     48449     48451     48447     48446     48449     48452
     48448     48446     48449     48450     48448     48446     48449     48451
     48448     48446     48449     48452     48449     48452     48455     48456
     48449     48452     48455     48457     48449     48452     48455     48458
     48450     48449     48452     48453     48450     48449     48452     48454
     48450     48449     48452     48455     48451     48449     48452     48453
     48451     48449     48452     48454     48451     48449     48452     48455
     48452     48455     48458     48459     48452     48455     48458     48460
     48452     48455     48458     48461     48453     48452     48455     48456
     48453     48452     48455     48457     48453     48452     48455     48458
     48454     48452     48455     48456     48454     48452     48455     48457
     48454     48452     48455     48458     48456     48455     48458     48459
     48456     48455     48458     48460     48456     48455     48458     48461
     48457     48455     48458     48459     48457     48455     48458     48460
     48457     48455     48458     48461     48462     48465     48468     48469
     48462     48465     48468     48470     48462     48465     48468     48471
     48463     48462     48465     48466     48463     48462     48465     48467
     48463     48462     48465     48468     48464     48462     48465     48466
     48464     48462     48465     48467     48464     48462     48465     48468
     48465     48468     48471     48472     48465     48468     48471     48473
     48465     48468     48471     48474     48466     48465     48468     48469
     48466     48465     48468     48470     48466     48465     48468     48471
     48467     48465     48468     48469     48467     48465     48468     48470
     48467     48465     48468     48471     48468     48471     48474     48475
     48468     48471     48474     48476     48468     48471     48474     48477
     48469     48468     48471     48472     48469     48468     48471     48473
     48469     48468     48471     48474     48470     48468     48471     48472
     48470     48468     48471     48473     48470     48468     48471     48474
     48471     48474     48477     48478     48471     48474     48477     48479
     48471     48474     48477     48480     48472     48471     48474     48475
     48472     48471     48474     48476     48472     48471     48474     48477
     48473     48471     48474     48475     48473     48471     48474     48476
     48473     48471     48474     48477     48474     48477     48480     48481
     48474     48477     48480     48482     48474     48477     48480     48483
     48475     48474     48477     48478     48475     48474     48477     48479
     48475     48474     48477     48480     48476     48474     48477     48478
     48476     48474     48477     48479     48476     48474     48477     48480
     48477     48480     48483     48484     48477     48480     48483     48485
     48477     48480     48483     48486     48478     48477     48480     48481
     48478     48477     48480     48482     48478     48477     48480     48483
     48479     48477     48480     48481     48479     48477     48480     48482
     48479     48477     48480     48483     48480     48483     48486     48487
     48480     48483     48486     48488     48480     48483     48486     48489
     48481     48480     48483     48484     48481     48480     48483     48485
     48481     48480     48483     48486     48482     48480     48483     48484
     48482     48480     48483     48485     48482     48480     48483     48486
     48483     48486     48489     48490     48483     48486     48489     48491
     48483     48486     48489     48492     48484     48483     48486     48487
     48484     48483     48486     48488     48484     48483     48486     48489
     48485     48483     48486     48487     48485     48483     48486     48488
     48485     48483     48486     48489     48486     48489     48492     48493
     48486     48489     48492     48494     48486     48489     48492     48495
     48487     48486     48489     48490     48487     48486     48489     48491
     48487     48486     48489     48492     48488     48486     48489     48490
     48488     48486     48489     48491     48488     48486     48489     48492
     48489     48492     48495     48496     48489     48492     48495     48497
     48489     48492     48495     48498     48490     48489     48492     48493
     48490     48489     48492     48494     48490     48489     48492     48495
     48491     48489     48492     48493     48491     48489     48492     48494
     48491     48489     48492     48495     48492     48495     48498     48499
     48492     48495     48498     48500     48492     48495     48498     48501
     48493     48492     48495     48496     48493     48492     48495     48497
     48493     48492     48495     48498     48494     48492     48495     48496
     48494     48492     48495     48497     48494     48492     48495     48498
     48495     48498     48501     48502     48495     48498     48501     48503
     48495     48498     48501     48504     48496     48495     48498     48499
     48496     48495     48498     48500     48496     48495     48498     48501
     48497     48495     48498     48499     48497     48495     48498     48500
     48497     48495     48498     48501     48499     48498     48501     48502
     48499     48498     48501     48503     48499     48498     48501     48504
     48500     48498     48501     48502     48500     48498     48501     48503
     48500     48498     48501     48504     48505     48509     48512     48513
     48505     48509     48512     48514     48505     48509     48512     48519
     48506     48505     48509     48510     48506     48505     48509     48511
     48506     48505     48509     48512     48507     48505     48509     48510
     48507     48505     48509     48511     48507     48505     48509     48512
     48508     48505     48509     48510     48508     48505     48509     48511
     48508     48505     48509     48512     48509     48512     48519     48515
     48510     48509     48512     48513     48510     48509     48512     48514
     48510     48509     48512     48519     48511     48509     48512     48513
     48511     48509     48512     48514     48511     48509     48512     48519
     48512     48519     48515     48516     48512     48519     48515     48517
     48512     48519     48515     48518     48513     48512     48519     48515
     48514     48512     48519     48515     48515     48518     48520     48521
     48515     48518     48520     48522     48515     48518     48520     48523
     48516     48515     48518     48520     48517     48515     48518     48520
     48518     48520     48523     48524     48518     48520     48523     48525
     48518     48520     48523     48531     48519     48515     48518     48520
     48520     48523     48525     48526     48520     48523     48531     48532
     48520     48523     48531     48533     48520     48523     48531     48534
     48521     48520     48523     48524     48521     48520     48523     48525
     48521     48520     48523     48531     48522     48520     48523     48524
     48522     48520     48523     48525     48522     48520     48523     48531
     48523     48525     48526     48527     48523     48525     48526     48528
     48523     48531     48534     48535     48524     48523     48525     48526
     48524     48523     48531     48532     48524     48523     48531     48533
     48524     48523     48531     48534     48525     48523     48531     48532
     48525     48523     48531     48533     48525     48523     48531     48534
     48525     48526     48528     48529     48525     48526     48528     48530
     48525     48526     48528     48540     48526     48525     48523     48531
     48526     48528     48540     48541     48526     48528     48540     48542
     48526     48528     48540     48543     48527     48526     48528     48529
     48527     48526     48528     48530     48527     48526     48528     48540
     48528     48540     48543     48544     48528     48540     48543     48545
     48528     48540     48543     48546     48529     48528     48540     48541
     48529     48528     48540     48542     48529     48528     48540     48543
     48530     48528     48540     48541     48530     48528     48540     48542
     48530     48528     48540     48543     48531     48534     48535     48536
     48531     48534     48535     48537     48532     48531     48534     48535
     48533     48531     48534     48535     48534     48535     48537     48538
     48534     48535     48537     48539     48534     48535     48537     48581
     48535     48537     48581     48582     48535     48537     48581     48583
     48535     48537     48581     48584     48536     48535     48537     48538
     48536     48535     48537     48539     48536     48535     48537     48581
     48537     48581     48584     48585     48537     48581     48584     48586
     48537     48581     48584     48587     48538     48537     48581     48582
     48538     48537     48581     48583     48538     48537     48581     48584
     48539     48537     48581     48582     48539     48537     48581     48583
     48539     48537     48581     48584     48540     48543     48546     48547
     48540     48543     48546     48548     48540     48543     48546     48549
     48541     48540     48543     48544     48541     48540     48543     48545
     48541     48540     48543     48546     48542     48540     48543     48544
     48542     48540     48543     48545     48542     48540     48543     48546
     48543     48546     48549     48550     48543     48546     48549     48551
     48543     48546     48549     48552     48544     48543     48546     48547
     48544     48543     48546     48548     48544     48543     48546     48549
     48545     48543     48546     48547     48545     48543     48546     48548
     48545     48543     48546     48549     48546     48549     48552     48553
     48546     48549     48552     48554     48546     48549     48552     48555
     48547     48546     48549     48550     48547     48546     48549     48551
     48547     48546     48549     48552     48548     48546     48549     48550
     48548     48546     48549     48551     48548     48546     48549     48552
     48549     48552     48555     48556     48549     48552     48555     48557
     48549     48552     48555     48558     48550     48549     48552     48553
     48550     48549     48552     48554     48550     48549     48552     48555
     48551     48549     48552     48553     48551     48549     48552     48554
     48551     48549     48552     48555     48552     48555     48558     48559
     48552     48555     48558     48560     48553     48552     48555     48556
     48553     48552     48555     48557     48553     48552     48555     48558
     48554     48552     48555     48556     48554     48552     48555     48557
     48554     48552     48555     48558     48555     48558     48560     48561
     48555     48558     48560     48562     48556     48555     48558     48559
     48556     48555     48558     48560     48557     48555     48558     48559
     48557     48555     48558     48560     48558     48560     48562     48563
     48558     48560     48562     48564     48558     48560     48562     48565
     48559     48558     48560     48561     48559     48558     48560     48562
     48560     48562     48565     48566     48560     48562     48565     48567
     48560     48562     48565     48568     48561     48560     48562     48563
     48561     48560     48562     48564     48561     48560     48562     48565
     48562     48565     48568     48569     48562     48565     48568     48570
     48562     48565     48568     48571     48563     48562     48565     48566
     48563     48562     48565     48567     48563     48562     48565     48568
     48564     48562     48565     48566     48564     48562     48565     48567
     48564     48562     48565     48568     48565     48568     48571     48572
     48565     48568     48571     48573     48565     48568     48571     48574
     48566     48565     48568     48569     48566     48565     48568     48570
     48566     48565     48568     48571     48567     48565     48568     48569
     48567     48565     48568     48570     48567     48565     48568     48571
     48568     48571     48574     48575     48568     48571     48574     48576
     48568     48571     48574     48577     48569     48568     48571     48572
     48569     48568     48571     48573     48569     48568     48571     48574
     48570     48568     48571     48572     48570     48568     48571     48573
     48570     48568     48571     48574     48571     48574     48577     48578
     48571     48574     48577     48579     48571     48574     48577     48580
     48572     48571     48574     48575     48572     48571     48574     48576
     48572     48571     48574     48577     48573     48571     48574     48575
     48573     48571     48574     48576     48573     48571     48574     48577
     48575     48574     48577     48578     48575     48574     48577     48579
     48575     48574     48577     48580     48576     48574     48577     48578
     48576     48574     48577     48579     48576     48574     48577     48580
     48581     48584     48587     48588     48581     48584     48587     48589
     48581     48584     48587     48590     48582     48581     48584     48585
     48582     48581     48584     48586     48582     48581     48584     48587
     48583     48581     48584     48585     48583     48581     48584     48586
     48583     48581     48584     48587     48584     48587     48590     48591
     48584     48587     48590     48592     48584     48587     48590     48593
     48585     48584     48587     48588     48585     48584     48587     48589
     48585     48584     48587     48590     48586     48584     48587     48588
     48586     48584     48587     48589     48586     48584     48587     48590
     48587     48590     48593     48594     48587     48590     48593     48595
     48587     48590     48593     48596     48588     48587     48590     48591
     48588     48587     48590     48592     48588     48587     48590     48593
     48589     48587     48590     48591     48589     48587     48590     48592
     48589     48587     48590     48593     48590     48593     48596     48597
     48590     48593     48596     48598     48590     48593     48596     48599
     48591     48590     48593     48594     48591     48590     48593     48595
     48591     48590     48593     48596     48592     48590     48593     48594
     48592     48590     48593     48595     48592     48590     48593     48596
     48593     48596     48599     48600     48593     48596     48599     48601
     48593     48596     48599     48602     48594     48593     48596     48597
     48594     48593     48596     48598     48594     48593     48596     48599
     48595     48593     48596     48597     48595     48593     48596     48598
     48595     48593     48596     48599     48596     48599     48602     48603
     48596     48599     48602     48604     48596     48599     48602     48605
     48597     48596     48599     48600     48597     48596     48599     48601
     48597     48596     48599     48602     48598     48596     48599     48600
     48598     48596     48599     48601     48598     48596     48599     48602
     48599     48602     48605     48606     48599     48602     48605     48607
     48599     48602     48605     48608     48600     48599     48602     48603
     48600     48599     48602     48604     48600     48599     48602     48605
     48601     48599     48602     48603     48601     48599     48602     48604
     48601     48599     48602     48605     48602     48605     48608     48609
     48602     48605     48608     48610     48602     48605     48608     48611
     48603     48602     48605     48606     48603     48602     48605     48607
     48603     48602     48605     48608     48604     48602     48605     48606
     48604     48602     48605     48607     48604     48602     48605     48608
     48605     48608     48611     48612     48605     48608     48611     48613
     48605     48608     48611     48614     48606     48605     48608     48609
     48606     48605     48608     48610     48606     48605     48608     48611
     48607     48605     48608     48609     48607     48605     48608     48610
     48607     48605     48608     48611     48608     48611     48614     48615
     48608     48611     48614     48616     48608     48611     48614     48617
     48609     48608     48611     48612     48609     48608     48611     48613
     48609     48608     48611     48614     48610     48608     48611     48612
     48610     48608     48611     48613     48610     48608     48611     48614
     48611     48614     48617     48618     48611     48614     48617     48619
     48611     48614     48617     48620     48612     48611     48614     48615
     48612     48611     48614     48616     48612     48611     48614     48617
     48613     48611     48614     48615     48613     48611     48614     48616
     48613     48611     48614     48617     48614     48617     48620     48621
     48614     48617     48620     48622     48614     48617     48620     48623
     48615     48614     48617     48618     48615     48614     48617     48619
     48615     48614     48617     48620     48616     48614     48617     48618
     48616     48614     48617     48619     48616     48614     48617     48620
     48618     48617     48620     48621     48618     48617     48620     48622
     48618     48617     48620     48623     48619     48617     48620     48621
     48619     48617     48620     48622     48619     48617     48620     48623
     48624     48628     48631     48632     48624     48628     48631     48633
     48624     48628     48631     48638     48625     48624     48628     48629
     48625     48624     48628     48630     48625     48624     48628     48631
     48626     48624     48628     48629     48626     48624     48628     48630
     48626     48624     48628     48631     48627     48624     48628     48629
     48627     48624     48628     48630     48627     48624     48628     48631
     48628     48631     48638     48634     48629     48628     48631     48632
     48629     48628     48631     48633     48629     48628     48631     48638
     48630     48628     48631     48632     48630     48628     48631     48633
     48630     48628     48631     48638     48631     48638     48634     48635
     48631     48638     48634     48636     48631     48638     48634     48637
     48632     48631     48638     48634     48633     48631     48638     48634
     48634     48637     48639     48640     48634     48637     48639     48641
     48634     48637     48639     48642     48635     48634     48637     48639
     48636     48634     48637     48639     48637     48639     48642     48643
     48637     48639     48642     48644     48637     48639     48642     48650
     48638     48634     48637     48639     48639     48642     48644     48645
     48639     48642     48650     48651     48639     48642     48650     48652
     48639     48642     48650     48653     48640     48639     48642     48643
     48640     48639     48642     48644     48640     48639     48642     48650
     48641     48639     48642     48643     48641     48639     48642     48644
     48641     48639     48642     48650     48642     48644     48645     48646
     48642     48644     48645     48647     48642     48650     48653     48654
     48643     48642     48644     48645     48643     48642     48650     48651
     48643     48642     48650     48652     48643     48642     48650     48653
     48644     48642     48650     48651     48644     48642     48650     48652
     48644     48642     48650     48653     48644     48645     48647     48648
     48644     48645     48647     48649     48644     48645     48647     48659
     48645     48644     48642     48650     48645     48647     48659     48660
     48645     48647     48659     48661     48645     48647     48659     48662
     48646     48645     48647     48648     48646     48645     48647     48649
     48646     48645     48647     48659     48647     48659     48662     48663
     48647     48659     48662     48664     48647     48659     48662     48665
     48648     48647     48659     48660     48648     48647     48659     48661
     48648     48647     48659     48662     48649     48647     48659     48660
     48649     48647     48659     48661     48649     48647     48659     48662
     48650     48653     48654     48655     48650     48653     48654     48656
     48651     48650     48653     48654     48652     48650     48653     48654
     48653     48654     48656     48657     48653     48654     48656     48658
     48653     48654     48656     48700     48654     48656     48700     48701
     48654     48656     48700     48702     48654     48656     48700     48703
     48655     48654     48656     48657     48655     48654     48656     48658
     48655     48654     48656     48700     48656     48700     48703     48704
     48656     48700     48703     48705     48656     48700     48703     48706
     48657     48656     48700     48701     48657     48656     48700     48702
     48657     48656     48700     48703     48658     48656     48700     48701
     48658     48656     48700     48702     48658     48656     48700     48703
     48659     48662     48665     48666     48659     48662     48665     48667
     48659     48662     48665     48668     48660     48659     48662     48663
     48660     48659     48662     48664     48660     48659     48662     48665
     48661     48659     48662     48663     48661     48659     48662     48664
     48661     48659     48662     48665     48662     48665     48668     48669
     48662     48665     48668     48670     48662     48665     48668     48671
     48663     48662     48665     48666     48663     48662     48665     48667
     48663     48662     48665     48668     48664     48662     48665     48666
     48664     48662     48665     48667     48664     48662     48665     48668
     48665     48668     48671     48672     48665     48668     48671     48673
     48665     48668     48671     48674     48666     48665     48668     48669
     48666     48665     48668     48670     48666     48665     48668     48671
     48667     48665     48668     48669     48667     48665     48668     48670
     48667     48665     48668     48671     48668     48671     48674     48675
     48668     48671     48674     48676     48668     48671     48674     48677
     48669     48668     48671     48672     48669     48668     48671     48673
     48669     48668     48671     48674     48670     48668     48671     48672
     48670     48668     48671     48673     48670     48668     48671     48674
     48671     48674     48677     48678     48671     48674     48677     48679
     48672     48671     48674     48675     48672     48671     48674     48676
     48672     48671     48674     48677     48673     48671     48674     48675
     48673     48671     48674     48676     48673     48671     48674     48677
     48674     48677     48679     48680     48674     48677     48679     48681
     48675     48674     48677     48678     48675     48674     48677     48679
     48676     48674     48677     48678     48676     48674     48677     48679
     48677     48679     48681     48682     48677     48679     48681     48683
     48677     48679     48681     48684     48678     48677     48679     48680
     48678     48677     48679     48681     48679     48681     48684     48685
     48679     48681     48684     48686     48679     48681     48684     48687
     48680     48679     48681     48682     48680     48679     48681     48683
     48680     48679     48681     48684     48681     48684     48687     48688
     48681     48684     48687     48689     48681     48684     48687     48690
     48682     48681     48684     48685     48682     48681     48684     48686
     48682     48681     48684     48687     48683     48681     48684     48685
     48683     48681     48684     48686     48683     48681     48684     48687
     48684     48687     48690     48691     48684     48687     48690     48692
     48684     48687     48690     48693     48685     48684     48687     48688
     48685     48684     48687     48689     48685     48684     48687     48690
     48686     48684     48687     48688     48686     48684     48687     48689
     48686     48684     48687     48690     48687     48690     48693     48694
     48687     48690     48693     48695     48687     48690     48693     48696
     48688     48687     48690     48691     48688     48687     48690     48692
     48688     48687     48690     48693     48689     48687     48690     48691
     48689     48687     48690     48692     48689     48687     48690     48693
     48690     48693     48696     48697     48690     48693     48696     48698
     48690     48693     48696     48699     48691     48690     48693     48694
     48691     48690     48693     48695     48691     48690     48693     48696
     48692     48690     48693     48694     48692     48690     48693     48695
     48692     48690     48693     48696     48694     48693     48696     48697
     48694     48693     48696     48698     48694     48693     48696     48699
     48695     48693     48696     48697     48695     48693     48696     48698
     48695     48693     48696     48699     48700     48703     48706     48707
     48700     48703     48706     48708     48700     48703     48706     48709
     48701     48700     48703     48704     48701     48700     48703     48705
     48701     48700     48703     48706     48702     48700     48703     48704
     48702     48700     48703     48705     48702     48700     48703     48706
     48703     48706     48709     48710     48703     48706     48709     48711
     48703     48706     48709     48712     48704     48703     48706     48707
     48704     48703     48706     48708     48704     48703     48706     48709
     48705     48703     48706     48707     48705     48703     48706     48708
     48705     48703     48706     48709     48706     48709     48712     48713
     48706     48709     48712     48714     48706     48709     48712     48715
     48707     48706     48709     48710     48707     48706     48709     48711
     48707     48706     48709     48712     48708     48706     48709     48710
     48708     48706     48709     48711     48708     48706     48709     48712
     48709     48712     48715     48716     48709     48712     48715     48717
     48709     48712     48715     48718     48710     48709     48712     48713
     48710     48709     48712     48714     48710     48709     48712     48715
     48711     48709     48712     48713     48711     48709     48712     48714
     48711     48709     48712     48715     48712     48715     48718     48719
     48712     48715     48718     48720     48712     48715     48718     48721
     48713     48712     48715     48716     48713     48712     48715     48717
     48713     48712     48715     48718     48714     48712     48715     48716
     48714     48712     48715     48717     48714     48712     48715     48718
     48715     48718     48721     48722     48715     48718     48721     48723
     48715     48718     48721     48724     48716     48715     48718     48719
     48716     48715     48718     48720     48716     48715     48718     48721
     48717     48715     48718     48719     48717     48715     48718     48720
     48717     48715     48718     48721     48718     48721     48724     48725
     48718     48721     48724     48726     48718     48721     48724     48727
     48719     48718     48721     48722     48719     48718     48721     48723
     48719     48718     48721     48724     48720     48718     48721     48722
     48720     48718     48721     48723     48720     48718     48721     48724
     48721     48724     48727     48728     48721     48724     48727     48729
     48721     48724     48727     48730     48722     48721     48724     48725
     48722     48721     48724     48726     48722     48721     48724     48727
     48723     48721     48724     48725     48723     48721     48724     48726
     48723     48721     48724     48727     48724     48727     48730     48731
     48724     48727     48730     48732     48724     48727     48730     48733
     48725     48724     48727     48728     48725     48724     48727     48729
     48725     48724     48727     48730     48726     48724     48727     48728
     48726     48724     48727     48729     48726     48724     48727     48730
     48727     48730     48733     48734     48727     48730     48733     48735
     48727     48730     48733     48736     48728     48727     48730     48731
     48728     48727     48730     48732     48728     48727     48730     48733
     48729     48727     48730     48731     48729     48727     48730     48732
     48729     48727     48730     48733     48730     48733     48736     48737
     48730     48733     48736     48738     48730     48733     48736     48739
     48731     48730     48733     48734     48731     48730     48733     48735
     48731     48730     48733     48736     48732     48730     48733     48734
     48732     48730     48733     48735     48732     48730     48733     48736
     48733     48736     48739     48740     48733     48736     48739     48741
     48733     48736     48739     48742     48734     48733     48736     48737
     48734     48733     48736     48738     48734     48733     48736     48739
     48735     48733     48736     48737     48735     48733     48736     48738
     48735     48733     48736     48739     48737     48736     48739     48740
     48737     48736     48739     48741     48737     48736     48739     48742
     48738     48736     48739     48740     48738     48736     48739     48741
     48738     48736     48739     48742     48743     48747     48750     48751
     48743     48747     48750     48752     48743     48747     48750     48757
     48744     48743     48747     48748     48744     48743     48747     48749
     48744     48743     48747     48750     48745     48743     48747     48748
     48745     48743     48747     48749     48745     48743     48747     48750
     48746     48743     48747     48748     48746     48743     48747     48749
     48746     48743     48747     48750     48747     48750     48757     48753
     48748     48747     48750     48751     48748     48747     48750     48752
     48748     48747     48750     48757     48749     48747     48750     48751
     48749     48747     48750     48752     48749     48747     48750     48757
     48750     48757     48753     48754     48750     48757     48753     48755
     48750     48757     48753     48756     48751     48750     48757     48753
     48752     48750     48757     48753     48753     48756     48758     48759
     48753     48756     48758     48760     48753     48756     48758     48761
     48754     48753     48756     48758     48755     48753     48756     48758
     48756     48758     48761     48762     48756     48758     48761     48763
     48756     48758     48761     48769     48757     48753     48756     48758
     48758     48761     48763     48764     48758     48761     48769     48770
     48758     48761     48769     48771     48758     48761     48769     48772
     48759     48758     48761     48762     48759     48758     48761     48763
     48759     48758     48761     48769     48760     48758     48761     48762
     48760     48758     48761     48763     48760     48758     48761     48769
     48761     48763     48764     48765     48761     48763     48764     48766
     48761     48769     48772     48773     48762     48761     48763     48764
     48762     48761     48769     48770     48762     48761     48769     48771
     48762     48761     48769     48772     48763     48761     48769     48770
     48763     48761     48769     48771     48763     48761     48769     48772
     48763     48764     48766     48767     48763     48764     48766     48768
     48763     48764     48766     48778     48764     48763     48761     48769
     48764     48766     48778     48779     48764     48766     48778     48780
     48764     48766     48778     48781     48765     48764     48766     48767
     48765     48764     48766     48768     48765     48764     48766     48778
     48766     48778     48781     48782     48766     48778     48781     48783
     48766     48778     48781     48784     48767     48766     48778     48779
     48767     48766     48778     48780     48767     48766     48778     48781
     48768     48766     48778     48779     48768     48766     48778     48780
     48768     48766     48778     48781     48769     48772     48773     48774
     48769     48772     48773     48775     48770     48769     48772     48773
     48771     48769     48772     48773     48772     48773     48775     48776
     48772     48773     48775     48777     48772     48773     48775     48819
     48773     48775     48819     48820     48773     48775     48819     48821
     48773     48775     48819     48822     48774     48773     48775     48776
     48774     48773     48775     48777     48774     48773     48775     48819
     48775     48819     48822     48823     48775     48819     48822     48824
     48775     48819     48822     48825     48776     48775     48819     48820
     48776     48775     48819     48821     48776     48775     48819     48822
     48777     48775     48819     48820     48777     48775     48819     48821
     48777     48775     48819     48822     48778     48781     48784     48785
     48778     48781     48784     48786     48778     48781     48784     48787
     48779     48778     48781     48782     48779     48778     48781     48783
     48779     48778     48781     48784     48780     48778     48781     48782
     48780     48778     48781     48783     48780     48778     48781     48784
     48781     48784     48787     48788     48781     48784     48787     48789
     48781     48784     48787     48790     48782     48781     48784     48785
     48782     48781     48784     48786     48782     48781     48784     48787
     48783     48781     48784     48785     48783     48781     48784     48786
     48783     48781     48784     48787     48784     48787     48790     48791
     48784     48787     48790     48792     48784     48787     48790     48793
     48785     48784     48787     48788     48785     48784     48787     48789
     48785     48784     48787     48790     48786     48784     48787     48788
     48786     48784     48787     48789     48786     48784     48787     48790
     48787     48790     48793     48794     48787     48790     48793     48795
     48787     48790     48793     48796     48788     48787     48790     48791
     48788     48787     48790     48792     48788     48787     48790     48793
     48789     48787     48790     48791     48789     48787     48790     48792
     48789     48787     48790     48793     48790     48793     48796     48797
     48790     48793     48796     48798     48791     48790     48793     48794
     48791     48790     48793     48795     48791     48790     48793     48796
     48792     48790     48793     48794     48792     48790     48793     48795
     48792     48790     48793     48796     48793     48796     48798     48799
     48793     48796     48798     48800     48794     48793     48796     48797
     48794     48793     48796     48798     48795     48793     48796     48797
     48795     48793     48796     48798     48796     48798     48800     48801
     48796     48798     48800     48802     48796     48798     48800     48803
     48797     48796     48798     48799     48797     48796     48798     48800
     48798     48800     48803     48804     48798     48800     48803     48805
     48798     48800     48803     48806     48799     48798     48800     48801
     48799     48798     48800     48802     48799     48798     48800     48803
     48800     48803     48806     48807     48800     48803     48806     48808
     48800     48803     48806     48809     48801     48800     48803     48804
     48801     48800     48803     48805     48801     48800     48803     48806
     48802     48800     48803     48804     48802     48800     48803     48805
     48802     48800     48803     48806     48803     48806     48809     48810
     48803     48806     48809     48811     48803     48806     48809     48812
     48804     48803     48806     48807     48804     48803     48806     48808
     48804     48803     48806     48809     48805     48803     48806     48807
     48805     48803     48806     48808     48805     48803     48806     48809
     48806     48809     48812     48813     48806     48809     48812     48814
     48806     48809     48812     48815     48807     48806     48809     48810
     48807     48806     48809     48811     48807     48806     48809     48812
     48808     48806     48809     48810     48808     48806     48809     48811
     48808     48806     48809     48812     48809     48812     48815     48816
     48809     48812     48815     48817     48809     48812     48815     48818
     48810     48809     48812     48813     48810     48809     48812     48814
     48810     48809     48812     48815     48811     48809     48812     48813
     48811     48809     48812     48814     48811     48809     48812     48815
     48813     48812     48815     48816     48813     48812     48815     48817
     48813     48812     48815     48818     48814     48812     48815     48816
     48814     48812     48815     48817     48814     48812     48815     48818
     48819     48822     48825     48826     48819     48822     48825     48827
     48819     48822     48825     48828     48820     48819     48822     48823
     48820     48819     48822     48824     48820     48819     48822     48825
     48821     48819     48822     48823     48821     48819     48822     48824
     48821     48819     48822     48825     48822     48825     48828     48829
     48822     48825     48828     48830     48822     48825     48828     48831
     48823     48822     48825     48826     48823     48822     48825     48827
     48823     48822     48825     48828     48824     48822     48825     48826
     48824     48822     48825     48827     48824     48822     48825     48828
     48825     48828     48831     48832     48825     48828     48831     48833
     48825     48828     48831     48834     48826     48825     48828     48829
     48826     48825     48828     48830     48826     48825     48828     48831
     48827     48825     48828     48829     48827     48825     48828     48830
     48827     48825     48828     48831     48828     48831     48834     48835
     48828     48831     48834     48836     48828     48831     48834     48837
     48829     48828     48831     48832     48829     48828     48831     48833
     48829     48828     48831     48834     48830     48828     48831     48832
     48830     48828     48831     48833     48830     48828     48831     48834
     48831     48834     48837     48838     48831     48834     48837     48839
     48831     48834     48837     48840     48832     48831     48834     48835
     48832     48831     48834     48836     48832     48831     48834     48837
     48833     48831     48834     48835     48833     48831     48834     48836
     48833     48831     48834     48837     48834     48837     48840     48841
     48834     48837     48840     48842     48834     48837     48840     48843
     48835     48834     48837     48838     48835     48834     48837     48839
     48835     48834     48837     48840     48836     48834     48837     48838
     48836     48834     48837     48839     48836     48834     48837     48840
     48837     48840     48843     48844     48837     48840     48843     48845
     48837     48840     48843     48846     48838     48837     48840     48841
     48838     48837     48840     48842     48838     48837     48840     48843
     48839     48837     48840     48841     48839     48837     48840     48842
     48839     48837     48840     48843     48840     48843     48846     48847
     48840     48843     48846     48848     48840     48843     48846     48849
     48841     48840     48843     48844     48841     48840     48843     48845
     48841     48840     48843     48846     48842     48840     48843     48844
     48842     48840     48843     48845     48842     48840     48843     48846
     48843     48846     48849     48850     48843     48846     48849     48851
     48843     48846     48849     48852     48844     48843     48846     48847
     48844     48843     48846     48848     48844     48843     48846     48849
     48845     48843     48846     48847     48845     48843     48846     48848
     48845     48843     48846     48849     48846     48849     48852     48853
     48846     48849     48852     48854     48846     48849     48852     48855
     48847     48846     48849     48850     48847     48846     48849     48851
     48847     48846     48849     48852     48848     48846     48849     48850
     48848     48846     48849     48851     48848     48846     48849     48852
     48849     48852     48855     48856     48849     48852     48855     48857
     48849     48852     48855     48858     48850     48849     48852     48853
     48850     48849     48852     48854     48850     48849     48852     48855
     48851     48849     48852     48853     48851     48849     48852     48854
     48851     48849     48852     48855     48852     48855     48858     48859
     48852     48855     48858     48860     48852     48855     48858     48861
     48853     48852     48855     48856     48853     48852     48855     48857
     48853     48852     48855     48858     48854     48852     48855     48856
     48854     48852     48855     48857     48854     48852     48855     48858
     48856     48855     48858     48859     48856     48855     48858     48860
     48856     48855     48858     48861     48857     48855     48858     48859
     48857     48855     48858     48860     48857     48855     48858     48861
     48862     48866     48869     48870     48862     48866     48869     48871
     48862     48866     48869     48876     48863     48862     48866     48867
     48863     48862     48866     48868     48863     48862     48866     48869
     48864     48862     48866     48867     48864     48862     48866     48868
     48864     48862     48866     48869     48865     48862     48866     48867
     48865     48862     48866     48868     48865     48862     48866     48869
     48866     48869     48876     48872     48867     48866     48869     48870
     48867     48866     48869     48871     48867     48866     48869     48876
     48868     48866     48869     48870     48868     48866     48869     48871
     48868     48866     48869     48876     48869     48876     48872     48873
     48869     48876     48872     48874     48869     48876     48872     48875
     48870     48869     48876     48872     48871     48869     48876     48872
     48872     48875     48877     48878     48872     48875     48877     48879
     48872     48875     48877     48880     48873     48872     48875     48877
     48874     48872     48875     48877     48875     48877     48880     48881
     48875     48877     48880     48882     48875     48877     48880     48888
     48876     48872     48875     48877     48877     48880     48882     48883
     48877     48880     48888     48889     48877     48880     48888     48890
     48877     48880     48888     48891     48878     48877     48880     48881
     48878     48877     48880     48882     48878     48877     48880     48888
     48879     48877     48880     48881     48879     48877     48880     48882
     48879     48877     48880     48888     48880     48882     48883     48884
     48880     48882     48883     48885     48880     48888     48891     48892
     48881     48880     48882     48883     48881     48880     48888     48889
     48881     48880     48888     48890     48881     48880     48888     48891
     48882     48880     48888     48889     48882     48880     48888     48890
     48882     48880     48888     48891     48882     48883     48885     48886
     48882     48883     48885     48887     48882     48883     48885     48897
     48883     48882     48880     48888     48883     48885     48897     48898
     48883     48885     48897     48899     48883     48885     48897     48900
     48884     48883     48885     48886     48884     48883     48885     48887
     48884     48883     48885     48897     48885     48897     48900     48901
     48885     48897     48900     48902     48885     48897     48900     48903
     48886     48885     48897     48898     48886     48885     48897     48899
     48886     48885     48897     48900     48887     48885     48897     48898
     48887     48885     48897     48899     48887     48885     48897     48900
     48888     48891     48892     48893     48888     48891     48892     48894
     48889     48888     48891     48892     48890     48888     48891     48892
     48891     48892     48894     48895     48891     48892     48894     48896
     48891     48892     48894     48938     48892     48894     48938     48939
     48892     48894     48938     48940     48892     48894     48938     48941
     48893     48892     48894     48895     48893     48892     48894     48896
     48893     48892     48894     48938     48894     48938     48941     48942
     48894     48938     48941     48943     48894     48938     48941     48944
     48895     48894     48938     48939     48895     48894     48938     48940
     48895     48894     48938     48941     48896     48894     48938     48939
     48896     48894     48938     48940     48896     48894     48938     48941
     48897     48900     48903     48904     48897     48900     48903     48905
     48897     48900     48903     48906     48898     48897     48900     48901
     48898     48897     48900     48902     48898     48897     48900     48903
     48899     48897     48900     48901     48899     48897     48900     48902
     48899     48897     48900     48903     48900     48903     48906     48907
     48900     48903     48906     48908     48900     48903     48906     48909
     48901     48900     48903     48904     48901     48900     48903     48905
     48901     48900     48903     48906     48902     48900     48903     48904
     48902     48900     48903     48905     48902     48900     48903     48906
     48903     48906     48909     48910     48903     48906     48909     48911
     48903     48906     48909     48912     48904     48903     48906     48907
     48904     48903     48906     48908     48904     48903     48906     48909
     48905     48903     48906     48907     48905     48903     48906     48908
     48905     48903     48906     48909     48906     48909     48912     48913
     48906     48909     48912     48914     48906     48909     48912     48915
     48907     48906     48909     48910     48907     48906     48909     48911
     48907     48906     48909     48912     48908     48906     48909     48910
     48908     48906     48909     48911     48908     48906     48909     48912
     48909     48912     48915     48916     48909     48912     48915     48917
     48910     48909     48912     48913     48910     48909     48912     48914
     48910     48909     48912     48915     48911     48909     48912     48913
     48911     48909     48912     48914     48911     48909     48912     48915
     48912     48915     48917     48918     48912     48915     48917     48919
     48913     48912     48915     48916     48913     48912     48915     48917
     48914     48912     48915     48916     48914     48912     48915     48917
     48915     48917     48919     48920     48915     48917     48919     48921
     48915     48917     48919     48922     48916     48915     48917     48918
     48916     48915     48917     48919     48917     48919     48922     48923
     48917     48919     48922     48924     48917     48919     48922     48925
     48918     48917     48919     48920     48918     48917     48919     48921
     48918     48917     48919     48922     48919     48922     48925     48926
     48919     48922     48925     48927     48919     48922     48925     48928
     48920     48919     48922     48923     48920     48919     48922     48924
     48920     48919     48922     48925     48921     48919     48922     48923
     48921     48919     48922     48924     48921     48919     48922     48925
     48922     48925     48928     48929     48922     48925     48928     48930
     48922     48925     48928     48931     48923     48922     48925     48926
     48923     48922     48925     48927     48923     48922     48925     48928
     48924     48922     48925     48926     48924     48922     48925     48927
     48924     48922     48925     48928     48925     48928     48931     48932
     48925     48928     48931     48933     48925     48928     48931     48934
     48926     48925     48928     48929     48926     48925     48928     48930
     48926     48925     48928     48931     48927     48925     48928     48929
     48927     48925     48928     48930     48927     48925     48928     48931
     48928     48931     48934     48935     48928     48931     48934     48936
     48928     48931     48934     48937     48929     48928     48931     48932
     48929     48928     48931     48933     48929     48928     48931     48934
     48930     48928     48931     48932     48930     48928     48931     48933
     48930     48928     48931     48934     48932     48931     48934     48935
     48932     48931     48934     48936     48932     48931     48934     48937
     48933     48931     48934     48935     48933     48931     48934     48936
     48933     48931     48934     48937     48938     48941     48944     48945
     48938     48941     48944     48946     48938     48941     48944     48947
     48939     48938     48941     48942     48939     48938     48941     48943
     48939     48938     48941     48944     48940     48938     48941     48942
     48940     48938     48941     48943     48940     48938     48941     48944
     48941     48944     48947     48948     48941     48944     48947     48949
     48941     48944     48947     48950     48942     48941     48944     48945
     48942     48941     48944     48946     48942     48941     48944     48947
     48943     48941     48944     48945     48943     48941     48944     48946
     48943     48941     48944     48947     48944     48947     48950     48951
     48944     48947     48950     48952     48944     48947     48950     48953
     48945     48944     48947     48948     48945     48944     48947     48949
     48945     48944     48947     48950     48946     48944     48947     48948
     48946     48944     48947     48949     48946     48944     48947     48950
     48947     48950     48953     48954     48947     48950     48953     48955
     48947     48950     48953     48956     48948     48947     48950     48951
     48948     48947     48950     48952     48948     48947     48950     48953
     48949     48947     48950     48951     48949     48947     48950     48952
     48949     48947     48950     48953     48950     48953     48956     48957
     48950     48953     48956     48958     48950     48953     48956     48959
     48951     48950     48953     48954     48951     48950     48953     48955
     48951     48950     48953     48956     48952     48950     48953     48954
     48952     48950     48953     48955     48952     48950     48953     48956
     48953     48956     48959     48960     48953     48956     48959     48961
     48953     48956     48959     48962     48954     48953     48956     48957
     48954     48953     48956     48958     48954     48953     48956     48959
     48955     48953     48956     48957     48955     48953     48956     48958
     48955     48953     48956     48959     48956     48959     48962     48963
     48956     48959     48962     48964     48956     48959     48962     48965
     48957     48956     48959     48960     48957     48956     48959     48961
     48957     48956     48959     48962     48958     48956     48959     48960
     48958     48956     48959     48961     48958     48956     48959     48962
     48959     48962     48965     48966     48959     48962     48965     48967
     48959     48962     48965     48968     48960     48959     48962     48963
     48960     48959     48962     48964     48960     48959     48962     48965
     48961     48959     48962     48963     48961     48959     48962     48964
     48961     48959     48962     48965     48962     48965     48968     48969
     48962     48965     48968     48970     48962     48965     48968     48971
     48963     48962     48965     48966     48963     48962     48965     48967
     48963     48962     48965     48968     48964     48962     48965     48966
     48964     48962     48965     48967     48964     48962     48965     48968
     48965     48968     48971     48972     48965     48968     48971     48973
     48965     48968     48971     48974     48966     48965     48968     48969
     48966     48965     48968     48970     48966     48965     48968     48971
     48967     48965     48968     48969     48967     48965     48968     48970
     48967     48965     48968     48971     48968     48971     48974     48975
     48968     48971     48974     48976     48968     48971     48974     48977
     48969     48968     48971     48972     48969     48968     48971     48973
     48969     48968     48971     48974     48970     48968     48971     48972
     48970     48968     48971     48973     48970     48968     48971     48974
     48971     48974     48977     48978     48971     48974     48977     48979
     48971     48974     48977     48980     48972     48971     48974     48975
     48972     48971     48974     48976     48972     48971     48974     48977
     48973     48971     48974     48975     48973     48971     48974     48976
     48973     48971     48974     48977     48975     48974     48977     48978
     48975     48974     48977     48979     48975     48974     48977     48980
     48976     48974     48977     48978     48976     48974     48977     48979
     48976     48974     48977     48980     48981     48985     48988     48989
     48981     48985     48988     48990     48981     48985     48988     48995
     48982     48981     48985     48986     48982     48981     48985     48987
     48982     48981     48985     48988     48983     48981     48985     48986
     48983     48981     48985     48987     48983     48981     48985     48988
     48984     48981     48985     48986     48984     48981     48985     48987
     48984     48981     48985     48988     48985     48988     48995     48991
     48986     48985     48988     48989     48986     48985     48988     48990
     48986     48985     48988     48995     48987     48985     48988     48989
     48987     48985     48988     48990     48987     48985     48988     48995
     48988     48995     48991     48992     48988     48995     48991     48993
     48988     48995     48991     48994     48989     48988     48995     48991
     48990     48988     48995     48991     48991     48994     48996     48997
     48991     48994     48996     48998     48991     48994     48996     48999
     48992     48991     48994     48996     48993     48991     48994     48996
     48994     48996     48999     49000     48994     48996     48999     49001
     48994     48996     48999     49007     48995     48991     48994     48996
     48996     48999     49001     49002     48996     48999     49007     49008
     48996     48999     49007     49009     48996     48999     49007     49010
     48997     48996     48999     49000     48997     48996     48999     49001
     48997     48996     48999     49007     48998     48996     48999     49000
     48998     48996     48999     49001     48998     48996     48999     49007
     48999     49001     49002     49003     48999     49001     49002     49004
     48999     49007     49010     49011     49000     48999     49001     49002
     49000     48999     49007     49008     49000     48999     49007     49009
     49000     48999     49007     49010     49001     48999     49007     49008
     49001     48999     49007     49009     49001     48999     49007     49010
     49001     49002     49004     49005     49001     49002     49004     49006
     49001     49002     49004     49016     49002     49001     48999     49007
     49002     49004     49016     49017     49002     49004     49016     49018
     49002     49004     49016     49019     49003     49002     49004     49005
     49003     49002     49004     49006     49003     49002     49004     49016
     49004     49016     49019     49020     49004     49016     49019     49021
     49004     49016     49019     49022     49005     49004     49016     49017
     49005     49004     49016     49018     49005     49004     49016     49019
     49006     49004     49016     49017     49006     49004     49016     49018
     49006     49004     49016     49019     49007     49010     49011     49012
     49007     49010     49011     49013     49008     49007     49010     49011
     49009     49007     49010     49011     49010     49011     49013     49014
     49010     49011     49013     49015     49010     49011     49013     49057
     49011     49013     49057     49058     49011     49013     49057     49059
     49011     49013     49057     49060     49012     49011     49013     49014
     49012     49011     49013     49015     49012     49011     49013     49057
     49013     49057     49060     49061     49013     49057     49060     49062
     49013     49057     49060     49063     49014     49013     49057     49058
     49014     49013     49057     49059     49014     49013     49057     49060
     49015     49013     49057     49058     49015     49013     49057     49059
     49015     49013     49057     49060     49016     49019     49022     49023
     49016     49019     49022     49024     49016     49019     49022     49025
     49017     49016     49019     49020     49017     49016     49019     49021
     49017     49016     49019     49022     49018     49016     49019     49020
     49018     49016     49019     49021     49018     49016     49019     49022
     49019     49022     49025     49026     49019     49022     49025     49027
     49019     49022     49025     49028     49020     49019     49022     49023
     49020     49019     49022     49024     49020     49019     49022     49025
     49021     49019     49022     49023     49021     49019     49022     49024
     49021     49019     49022     49025     49022     49025     49028     49029
     49022     49025     49028     49030     49022     49025     49028     49031
     49023     49022     49025     49026     49023     49022     49025     49027
     49023     49022     49025     49028     49024     49022     49025     49026
     49024     49022     49025     49027     49024     49022     49025     49028
     49025     49028     49031     49032     49025     49028     49031     49033
     49025     49028     49031     49034     49026     49025     49028     49029
     49026     49025     49028     49030     49026     49025     49028     49031
     49027     49025     49028     49029     49027     49025     49028     49030
     49027     49025     49028     49031     49028     49031     49034     49035
     49028     49031     49034     49036     49029     49028     49031     49032
     49029     49028     49031     49033     49029     49028     49031     49034
     49030     49028     49031     49032     49030     49028     49031     49033
     49030     49028     49031     49034     49031     49034     49036     49037
     49031     49034     49036     49038     49032     49031     49034     49035
     49032     49031     49034     49036     49033     49031     49034     49035
     49033     49031     49034     49036     49034     49036     49038     49039
     49034     49036     49038     49040     49034     49036     49038     49041
     49035     49034     49036     49037     49035     49034     49036     49038
     49036     49038     49041     49042     49036     49038     49041     49043
     49036     49038     49041     49044     49037     49036     49038     49039
     49037     49036     49038     49040     49037     49036     49038     49041
     49038     49041     49044     49045     49038     49041     49044     49046
     49038     49041     49044     49047     49039     49038     49041     49042
     49039     49038     49041     49043     49039     49038     49041     49044
     49040     49038     49041     49042     49040     49038     49041     49043
     49040     49038     49041     49044     49041     49044     49047     49048
     49041     49044     49047     49049     49041     49044     49047     49050
     49042     49041     49044     49045     49042     49041     49044     49046
     49042     49041     49044     49047     49043     49041     49044     49045
     49043     49041     49044     49046     49043     49041     49044     49047
     49044     49047     49050     49051     49044     49047     49050     49052
     49044     49047     49050     49053     49045     49044     49047     49048
     49045     49044     49047     49049     49045     49044     49047     49050
     49046     49044     49047     49048     49046     49044     49047     49049
     49046     49044     49047     49050     49047     49050     49053     49054
     49047     49050     49053     49055     49047     49050     49053     49056
     49048     49047     49050     49051     49048     49047     49050     49052
     49048     49047     49050     49053     49049     49047     49050     49051
     49049     49047     49050     49052     49049     49047     49050     49053
     49051     49050     49053     49054     49051     49050     49053     49055
     49051     49050     49053     49056     49052     49050     49053     49054
     49052     49050     49053     49055     49052     49050     49053     49056
     49057     49060     49063     49064     49057     49060     49063     49065
     49057     49060     49063     49066     49058     49057     49060     49061
     49058     49057     49060     49062     49058     49057     49060     49063
     49059     49057     49060     49061     49059     49057     49060     49062
     49059     49057     49060     49063     49060     49063     49066     49067
     49060     49063     49066     49068     49060     49063     49066     49069
     49061     49060     49063     49064     49061     49060     49063     49065
     49061     49060     49063     49066     49062     49060     49063     49064
     49062     49060     49063     49065     49062     49060     49063     49066
     49063     49066     49069     49070     49063     49066     49069     49071
     49063     49066     49069     49072     49064     49063     49066     49067
     49064     49063     49066     49068     49064     49063     49066     49069
     49065     49063     49066     49067     49065     49063     49066     49068
     49065     49063     49066     49069     49066     49069     49072     49073
     49066     49069     49072     49074     49066     49069     49072     49075
     49067     49066     49069     49070     49067     49066     49069     49071
     49067     49066     49069     49072     49068     49066     49069     49070
     49068     49066     49069     49071     49068     49066     49069     49072
     49069     49072     49075     49076     49069     49072     49075     49077
     49069     49072     49075     49078     49070     49069     49072     49073
     49070     49069     49072     49074     49070     49069     49072     49075
     49071     49069     49072     49073     49071     49069     49072     49074
     49071     49069     49072     49075     49072     49075     49078     49079
     49072     49075     49078     49080     49072     49075     49078     49081
     49073     49072     49075     49076     49073     49072     49075     49077
     49073     49072     49075     49078     49074     49072     49075     49076
     49074     49072     49075     49077     49074     49072     49075     49078
     49075     49078     49081     49082     49075     49078     49081     49083
     49075     49078     49081     49084     49076     49075     49078     49079
     49076     49075     49078     49080     49076     49075     49078     49081
     49077     49075     49078     49079     49077     49075     49078     49080
     49077     49075     49078     49081     49078     49081     49084     49085
     49078     49081     49084     49086     49078     49081     49084     49087
     49079     49078     49081     49082     49079     49078     49081     49083
     49079     49078     49081     49084     49080     49078     49081     49082
     49080     49078     49081     49083     49080     49078     49081     49084
     49081     49084     49087     49088     49081     49084     49087     49089
     49081     49084     49087     49090     49082     49081     49084     49085
     49082     49081     49084     49086     49082     49081     49084     49087
     49083     49081     49084     49085     49083     49081     49084     49086
     49083     49081     49084     49087     49084     49087     49090     49091
     49084     49087     49090     49092     49084     49087     49090     49093
     49085     49084     49087     49088     49085     49084     49087     49089
     49085     49084     49087     49090     49086     49084     49087     49088
     49086     49084     49087     49089     49086     49084     49087     49090
     49087     49090     49093     49094     49087     49090     49093     49095
     49087     49090     49093     49096     49088     49087     49090     49091
     49088     49087     49090     49092     49088     49087     49090     49093
     49089     49087     49090     49091     49089     49087     49090     49092
     49089     49087     49090     49093     49090     49093     49096     49097
     49090     49093     49096     49098     49090     49093     49096     49099
     49091     49090     49093     49094     49091     49090     49093     49095
     49091     49090     49093     49096     49092     49090     49093     49094
     49092     49090     49093     49095     49092     49090     49093     49096
     49094     49093     49096     49097     49094     49093     49096     49098
     49094     49093     49096     49099     49095     49093     49096     49097
     49095     49093     49096     49098     49095     49093     49096     49099
     49100     49104     49107     49108     49100     49104     49107     49109
     49100     49104     49107     49114     49101     49100     49104     49105
     49101     49100     49104     49106     49101     49100     49104     49107
     49102     49100     49104     49105     49102     49100     49104     49106
     49102     49100     49104     49107     49103     49100     49104     49105
     49103     49100     49104     49106     49103     49100     49104     49107
     49104     49107     49114     49110     49105     49104     49107     49108
     49105     49104     49107     49109     49105     49104     49107     49114
     49106     49104     49107     49108     49106     49104     49107     49109
     49106     49104     49107     49114     49107     49114     49110     49111
     49107     49114     49110     49112     49107     49114     49110     49113
     49108     49107     49114     49110     49109     49107     49114     49110
     49110     49113     49115     49116     49110     49113     49115     49117
     49110     49113     49115     49118     49111     49110     49113     49115
     49112     49110     49113     49115     49113     49115     49118     49119
     49113     49115     49118     49120     49113     49115     49118     49126
     49114     49110     49113     49115     49115     49118     49120     49121
     49115     49118     49126     49127     49115     49118     49126     49128
     49115     49118     49126     49129     49116     49115     49118     49119
     49116     49115     49118     49120     49116     49115     49118     49126
     49117     49115     49118     49119     49117     49115     49118     49120
     49117     49115     49118     49126     49118     49120     49121     49122
     49118     49120     49121     49123     49118     49126     49129     49130
     49119     49118     49120     49121     49119     49118     49126     49127
     49119     49118     49126     49128     49119     49118     49126     49129
     49120     49118     49126     49127     49120     49118     49126     49128
     49120     49118     49126     49129     49120     49121     49123     49124
     49120     49121     49123     49125     49120     49121     49123     49135
     49121     49120     49118     49126     49121     49123     49135     49136
     49121     49123     49135     49137     49121     49123     49135     49138
     49122     49121     49123     49124     49122     49121     49123     49125
     49122     49121     49123     49135     49123     49135     49138     49139
     49123     49135     49138     49140     49123     49135     49138     49141
     49124     49123     49135     49136     49124     49123     49135     49137
     49124     49123     49135     49138     49125     49123     49135     49136
     49125     49123     49135     49137     49125     49123     49135     49138
     49126     49129     49130     49131     49126     49129     49130     49132
     49127     49126     49129     49130     49128     49126     49129     49130
     49129     49130     49132     49133     49129     49130     49132     49134
     49129     49130     49132     49176     49130     49132     49176     49177
     49130     49132     49176     49178     49130     49132     49176     49179
     49131     49130     49132     49133     49131     49130     49132     49134
     49131     49130     49132     49176     49132     49176     49179     49180
     49132     49176     49179     49181     49132     49176     49179     49182
     49133     49132     49176     49177     49133     49132     49176     49178
     49133     49132     49176     49179     49134     49132     49176     49177
     49134     49132     49176     49178     49134     49132     49176     49179
     49135     49138     49141     49142     49135     49138     49141     49143
     49135     49138     49141     49144     49136     49135     49138     49139
     49136     49135     49138     49140     49136     49135     49138     49141
     49137     49135     49138     49139     49137     49135     49138     49140
     49137     49135     49138     49141     49138     49141     49144     49145
     49138     49141     49144     49146     49138     49141     49144     49147
     49139     49138     49141     49142     49139     49138     49141     49143
     49139     49138     49141     49144     49140     49138     49141     49142
     49140     49138     49141     49143     49140     49138     49141     49144
     49141     49144     49147     49148     49141     49144     49147     49149
     49141     49144     49147     49150     49142     49141     49144     49145
     49142     49141     49144     49146     49142     49141     49144     49147
     49143     49141     49144     49145     49143     49141     49144     49146
     49143     49141     49144     49147     49144     49147     49150     49151
     49144     49147     49150     49152     49144     49147     49150     49153
     49145     49144     49147     49148     49145     49144     49147     49149
     49145     49144     49147     49150     49146     49144     49147     49148
     49146     49144     49147     49149     49146     49144     49147     49150
     49147     49150     49153     49154     49147     49150     49153     49155
     49148     49147     49150     49151     49148     49147     49150     49152
     49148     49147     49150     49153     49149     49147     49150     49151
     49149     49147     49150     49152     49149     49147     49150     49153
     49150     49153     49155     49156     49150     49153     49155     49157
     49151     49150     49153     49154     49151     49150     49153     49155
     49152     49150     49153     49154     49152     49150     49153     49155
     49153     49155     49157     49158     49153     49155     49157     49159
     49153     49155     49157     49160     49154     49153     49155     49156
     49154     49153     49155     49157     49155     49157     49160     49161
     49155     49157     49160     49162     49155     49157     49160     49163
     49156     49155     49157     49158     49156     49155     49157     49159
     49156     49155     49157     49160     49157     49160     49163     49164
     49157     49160     49163     49165     49157     49160     49163     49166
     49158     49157     49160     49161     49158     49157     49160     49162
     49158     49157     49160     49163     49159     49157     49160     49161
     49159     49157     49160     49162     49159     49157     49160     49163
     49160     49163     49166     49167     49160     49163     49166     49168
     49160     49163     49166     49169     49161     49160     49163     49164
     49161     49160     49163     49165     49161     49160     49163     49166
     49162     49160     49163     49164     49162     49160     49163     49165
     49162     49160     49163     49166     49163     49166     49169     49170
     49163     49166     49169     49171     49163     49166     49169     49172
     49164     49163     49166     49167     49164     49163     49166     49168
     49164     49163     49166     49169     49165     49163     49166     49167
     49165     49163     49166     49168     49165     49163     49166     49169
     49166     49169     49172     49173     49166     49169     49172     49174
     49166     49169     49172     49175     49167     49166     49169     49170
     49167     49166     49169     49171     49167     49166     49169     49172
     49168     49166     49169     49170     49168     49166     49169     49171
     49168     49166     49169     49172     49170     49169     49172     49173
     49170     49169     49172     49174     49170     49169     49172     49175
     49171     49169     49172     49173     49171     49169     49172     49174
     49171     49169     49172     49175     49176     49179     49182     49183
     49176     49179     49182     49184     49176     49179     49182     49185
     49177     49176     49179     49180     49177     49176     49179     49181
     49177     49176     49179     49182     49178     49176     49179     49180
     49178     49176     49179     49181     49178     49176     49179     49182
     49179     49182     49185     49186     49179     49182     49185     49187
     49179     49182     49185     49188     49180     49179     49182     49183
     49180     49179     49182     49184     49180     49179     49182     49185
     49181     49179     49182     49183     49181     49179     49182     49184
     49181     49179     49182     49185     49182     49185     49188     49189
     49182     49185     49188     49190     49182     49185     49188     49191
     49183     49182     49185     49186     49183     49182     49185     49187
     49183     49182     49185     49188     49184     49182     49185     49186
     49184     49182     49185     49187     49184     49182     49185     49188
     49185     49188     49191     49192     49185     49188     49191     49193
     49185     49188     49191     49194     49186     49185     49188     49189
     49186     49185     49188     49190     49186     49185     49188     49191
     49187     49185     49188     49189     49187     49185     49188     49190
     49187     49185     49188     49191     49188     49191     49194     49195
     49188     49191     49194     49196     49188     49191     49194     49197
     49189     49188     49191     49192     49189     49188     49191     49193
     49189     49188     49191     49194     49190     49188     49191     49192
     49190     49188     49191     49193     49190     49188     49191     49194
     49191     49194     49197     49198     49191     49194     49197     49199
     49191     49194     49197     49200     49192     49191     49194     49195
     49192     49191     49194     49196     49192     49191     49194     49197
     49193     49191     49194     49195     49193     49191     49194     49196
     49193     49191     49194     49197     49194     49197     49200     49201
     49194     49197     49200     49202     49194     49197     49200     49203
     49195     49194     49197     49198     49195     49194     49197     49199
     49195     49194     49197     49200     49196     49194     49197     49198
     49196     49194     49197     49199     49196     49194     49197     49200
     49197     49200     49203     49204     49197     49200     49203     49205
     49197     49200     49203     49206     49198     49197     49200     49201
     49198     49197     49200     49202     49198     49197     49200     49203
     49199     49197     49200     49201     49199     49197     49200     49202
     49199     49197     49200     49203     49200     49203     49206     49207
     49200     49203     49206     49208     49200     49203     49206     49209
     49201     49200     49203     49204     49201     49200     49203     49205
     49201     49200     49203     49206     49202     49200     49203     49204
     49202     49200     49203     49205     49202     49200     49203     49206
     49203     49206     49209     49210     49203     49206     49209     49211
     49203     49206     49209     49212     49204     49203     49206     49207
     49204     49203     49206     49208     49204     49203     49206     49209
     49205     49203     49206     49207     49205     49203     49206     49208
     49205     49203     49206     49209     49206     49209     49212     49213
     49206     49209     49212     49214     49206     49209     49212     49215
     49207     49206     49209     49210     49207     49206     49209     49211
     49207     49206     49209     49212     49208     49206     49209     49210
     49208     49206     49209     49211     49208     49206     49209     49212
     49209     49212     49215     49216     49209     49212     49215     49217
     49209     49212     49215     49218     49210     49209     49212     49213
     49210     49209     49212     49214     49210     49209     49212     49215
     49211     49209     49212     49213     49211     49209     49212     49214
     49211     49209     49212     49215     49213     49212     49215     49216
     49213     49212     49215     49217     49213     49212     49215     49218
     49214     49212     49215     49216     49214     49212     49215     49217
     49214     49212     49215     49218     49219     49223     49226     49227
     49219     49223     49226     49228     49219     49223     49226     49233
     49220     49219     49223     49224     49220     49219     49223     49225
     49220     49219     49223     49226     49221     49219     49223     49224
     49221     49219     49223     49225     49221     49219     49223     49226
     49222     49219     49223     49224     49222     49219     49223     49225
     49222     49219     49223     49226     49223     49226     49233     49229
     49224     49223     49226     49227     49224     49223     49226     49228
     49224     49223     49226     49233     49225     49223     49226     49227
     49225     49223     49226     49228     49225     49223     49226     49233
     49226     49233     49229     49230     49226     49233     49229     49231
     49226     49233     49229     49232     49227     49226     49233     49229
     49228     49226     49233     49229     49229     49232     49234     49235
     49229     49232     49234     49236     49229     49232     49234     49237
     49230     49229     49232     49234     49231     49229     49232     49234
     49232     49234     49237     49238     49232     49234     49237     49239
     49232     49234     49237     49245     49233     49229     49232     49234
     49234     49237     49239     49240     49234     49237     49245     49246
     49234     49237     49245     49247     49234     49237     49245     49248
     49235     49234     49237     49238     49235     49234     49237     49239
     49235     49234     49237     49245     49236     49234     49237     49238
     49236     49234     49237     49239     49236     49234     49237     49245
     49237     49239     49240     49241     49237     49239     49240     49242
     49237     49245     49248     49249     49238     49237     49239     49240
     49238     49237     49245     49246     49238     49237     49245     49247
     49238     49237     49245     49248     49239     49237     49245     49246
     49239     49237     49245     49247     49239     49237     49245     49248
     49239     49240     49242     49243     49239     49240     49242     49244
     49239     49240     49242     49254     49240     49239     49237     49245
     49240     49242     49254     49255     49240     49242     49254     49256
     49240     49242     49254     49257     49241     49240     49242     49243
     49241     49240     49242     49244     49241     49240     49242     49254
     49242     49254     49257     49258     49242     49254     49257     49259
     49242     49254     49257     49260     49243     49242     49254     49255
     49243     49242     49254     49256     49243     49242     49254     49257
     49244     49242     49254     49255     49244     49242     49254     49256
     49244     49242     49254     49257     49245     49248     49249     49250
     49245     49248     49249     49251     49246     49245     49248     49249
     49247     49245     49248     49249     49248     49249     49251     49252
     49248     49249     49251     49253     49248     49249     49251     49295
     49249     49251     49295     49296     49249     49251     49295     49297
     49249     49251     49295     49298     49250     49249     49251     49252
     49250     49249     49251     49253     49250     49249     49251     49295
     49251     49295     49298     49299     49251     49295     49298     49300
     49251     49295     49298     49301     49252     49251     49295     49296
     49252     49251     49295     49297     49252     49251     49295     49298
     49253     49251     49295     49296     49253     49251     49295     49297
     49253     49251     49295     49298     49254     49257     49260     49261
     49254     49257     49260     49262     49254     49257     49260     49263
     49255     49254     49257     49258     49255     49254     49257     49259
     49255     49254     49257     49260     49256     49254     49257     49258
     49256     49254     49257     49259     49256     49254     49257     49260
     49257     49260     49263     49264     49257     49260     49263     49265
     49257     49260     49263     49266     49258     49257     49260     49261
     49258     49257     49260     49262     49258     49257     49260     49263
     49259     49257     49260     49261     49259     49257     49260     49262
     49259     49257     49260     49263     49260     49263     49266     49267
     49260     49263     49266     49268     49260     49263     49266     49269
     49261     49260     49263     49264     49261     49260     49263     49265
     49261     49260     49263     49266     49262     49260     49263     49264
     49262     49260     49263     49265     49262     49260     49263     49266
     49263     49266     49269     49270     49263     49266     49269     49271
     49263     49266     49269     49272     49264     49263     49266     49267
     49264     49263     49266     49268     49264     49263     49266     49269
     49265     49263     49266     49267     49265     49263     49266     49268
     49265     49263     49266     49269     49266     49269     49272     49273
     49266     49269     49272     49274     49267     49266     49269     49270
     49267     49266     49269     49271     49267     49266     49269     49272
     49268     49266     49269     49270     49268     49266     49269     49271
     49268     49266     49269     49272     49269     49272     49274     49275
     49269     49272     49274     49276     49270     49269     49272     49273
     49270     49269     49272     49274     49271     49269     49272     49273
     49271     49269     49272     49274     49272     49274     49276     49277
     49272     49274     49276     49278     49272     49274     49276     49279
     49273     49272     49274     49275     49273     49272     49274     49276
     49274     49276     49279     49280     49274     49276     49279     49281
     49274     49276     49279     49282     49275     49274     49276     49277
     49275     49274     49276     49278     49275     49274     49276     49279
     49276     49279     49282     49283     49276     49279     49282     49284
     49276     49279     49282     49285     49277     49276     49279     49280
     49277     49276     49279     49281     49277     49276     49279     49282
     49278     49276     49279     49280     49278     49276     49279     49281
     49278     49276     49279     49282     49279     49282     49285     49286
     49279     49282     49285     49287     49279     49282     49285     49288
     49280     49279     49282     49283     49280     49279     49282     49284
     49280     49279     49282     49285     49281     49279     49282     49283
     49281     49279     49282     49284     49281     49279     49282     49285
     49282     49285     49288     49289     49282     49285     49288     49290
     49282     49285     49288     49291     49283     49282     49285     49286
     49283     49282     49285     49287     49283     49282     49285     49288
     49284     49282     49285     49286     49284     49282     49285     49287
     49284     49282     49285     49288     49285     49288     49291     49292
     49285     49288     49291     49293     49285     49288     49291     49294
     49286     49285     49288     49289     49286     49285     49288     49290
     49286     49285     49288     49291     49287     49285     49288     49289
     49287     49285     49288     49290     49287     49285     49288     49291
     49289     49288     49291     49292     49289     49288     49291     49293
     49289     49288     49291     49294     49290     49288     49291     49292
     49290     49288     49291     49293     49290     49288     49291     49294
     49295     49298     49301     49302     49295     49298     49301     49303
     49295     49298     49301     49304     49296     49295     49298     49299
     49296     49295     49298     49300     49296     49295     49298     49301
     49297     49295     49298     49299     49297     49295     49298     49300
     49297     49295     49298     49301     49298     49301     49304     49305
     49298     49301     49304     49306     49298     49301     49304     49307
     49299     49298     49301     49302     49299     49298     49301     49303
     49299     49298     49301     49304     49300     49298     49301     49302
     49300     49298     49301     49303     49300     49298     49301     49304
     49301     49304     49307     49308     49301     49304     49307     49309
     49301     49304     49307     49310     49302     49301     49304     49305
     49302     49301     49304     49306     49302     49301     49304     49307
     49303     49301     49304     49305     49303     49301     49304     49306
     49303     49301     49304     49307     49304     49307     49310     49311
     49304     49307     49310     49312     49304     49307     49310     49313
     49305     49304     49307     49308     49305     49304     49307     49309
     49305     49304     49307     49310     49306     49304     49307     49308
     49306     49304     49307     49309     49306     49304     49307     49310
     49307     49310     49313     49314     49307     49310     49313     49315
     49307     49310     49313     49316     49308     49307     49310     49311
     49308     49307     49310     49312     49308     49307     49310     49313
     49309     49307     49310     49311     49309     49307     49310     49312
     49309     49307     49310     49313     49310     49313     49316     49317
     49310     49313     49316     49318     49310     49313     49316     49319
     49311     49310     49313     49314     49311     49310     49313     49315
     49311     49310     49313     49316     49312     49310     49313     49314
     49312     49310     49313     49315     49312     49310     49313     49316
     49313     49316     49319     49320     49313     49316     49319     49321
     49313     49316     49319     49322     49314     49313     49316     49317
     49314     49313     49316     49318     49314     49313     49316     49319
     49315     49313     49316     49317     49315     49313     49316     49318
     49315     49313     49316     49319     49316     49319     49322     49323
     49316     49319     49322     49324     49316     49319     49322     49325
     49317     49316     49319     49320     49317     49316     49319     49321
     49317     49316     49319     49322     49318     49316     49319     49320
     49318     49316     49319     49321     49318     49316     49319     49322
     49319     49322     49325     49326     49319     49322     49325     49327
     49319     49322     49325     49328     49320     49319     49322     49323
     49320     49319     49322     49324     49320     49319     49322     49325
     49321     49319     49322     49323     49321     49319     49322     49324
     49321     49319     49322     49325     49322     49325     49328     49329
     49322     49325     49328     49330     49322     49325     49328     49331
     49323     49322     49325     49326     49323     49322     49325     49327
     49323     49322     49325     49328     49324     49322     49325     49326
     49324     49322     49325     49327     49324     49322     49325     49328
     49325     49328     49331     49332     49325     49328     49331     49333
     49325     49328     49331     49334     49326     49325     49328     49329
     49326     49325     49328     49330     49326     49325     49328     49331
     49327     49325     49328     49329     49327     49325     49328     49330
     49327     49325     49328     49331     49328     49331     49334     49335
     49328     49331     49334     49336     49328     49331     49334     49337
     49329     49328     49331     49332     49329     49328     49331     49333
     49329     49328     49331     49334     49330     49328     49331     49332
     49330     49328     49331     49333     49330     49328     49331     49334
     49332     49331     49334     49335     49332     49331     49334     49336
     49332     49331     49334     49337     49333     49331     49334     49335
     49333     49331     49334     49336     49333     49331     49334     49337
     49338     49343     49345     49346     49338     49343     49347     49348
     49338     49343     49347     49349     49338     49343     49347     49353
     49339     49338     49341     49342     49339     49338     49343     49344
     49339     49338     49343     49345     49339     49338     49343     49347
     49340     49338     49341     49342     49340     49338     49343     49344
     49340     49338     49343     49345     49340     49338     49343     49347
     49341     49338     49343     49344     49341     49338     49343     49345
     49341     49338     49343     49347     49342     49341     49338     49343
     49343     49347     49353     49350     49344     49343     49345     49346
     49344     49343     49347     49348     49344     49343     49347     49349
     49344     49343     49347     49353     49345     49343     49347     49348
     49345     49343     49347     49349     49345     49343     49347     49353
     49346     49345     49343     49347     49347     49353     49350     49351
     49347     49353     49350     49352     49347     49353     49350     49354
     49348     49347     49353     49350     49349     49347     49353     49350
     49350     49354     49355     49356     49350     49354     49355     49357
     49350     49354     49355     49358     49351     49350     49354     49355
     49352     49350     49354     49355     49353     49350     49354     49355
     49354     49355     49358     49359     49354     49355     49358     49360
     49354     49355     49358     49366     49355     49358     49360     49361
     49355     49358     49366     49367     49355     49358     49366     49368
     49355     49358     49366     49369     49356     49355     49358     49359
     49356     49355     49358     49360     49356     49355     49358     49366
     49357     49355     49358     49359     49357     49355     49358     49360
     49357     49355     49358     49366     49358     49360     49361     49362
     49358     49360     49361     49363     49358     49366     49369     49370
     49359     49358     49360     49361     49359     49358     49366     49367
     49359     49358     49366     49368     49359     49358     49366     49369
     49360     49358     49366     49367     49360     49358     49366     49368
     49360     49358     49366     49369     49360     49361     49363     49364
     49360     49361     49363     49365     49360     49361     49363     49375
     49361     49360     49358     49366     49361     49363     49375     49376
     49361     49363     49375     49377     49361     49363     49375     49378
     49362     49361     49363     49364     49362     49361     49363     49365
     49362     49361     49363     49375     49363     49375     49378     49379
     49363     49375     49378     49380     49363     49375     49378     49381
     49364     49363     49375     49376     49364     49363     49375     49377
     49364     49363     49375     49378     49365     49363     49375     49376
     49365     49363     49375     49377     49365     49363     49375     49378
     49366     49369     49370     49371     49366     49369     49370     49372
     49367     49366     49369     49370     49368     49366     49369     49370
     49369     49370     49372     49373     49369     49370     49372     49374
     49369     49370     49372     49422     49370     49372     49422     49423
     49370     49372     49422     49424     49370     49372     49422     49425
     49371     49370     49372     49373     49371     49370     49372     49374
     49371     49370     49372     49422     49372     49422     49425     49426
     49372     49422     49425     49427     49372     49422     49425     49428
     49373     49372     49422     49423     49373     49372     49422     49424
     49373     49372     49422     49425     49374     49372     49422     49423
     49374     49372     49422     49424     49374     49372     49422     49425
     49375     49378     49381     49382     49375     49378     49381     49383
     49375     49378     49381     49384     49376     49375     49378     49379
     49376     49375     49378     49380     49376     49375     49378     49381
     49377     49375     49378     49379     49377     49375     49378     49380
     49377     49375     49378     49381     49378     49381     49384     49385
     49378     49381     49384     49386     49378     49381     49384     49387
     49379     49378     49381     49382     49379     49378     49381     49383
     49379     49378     49381     49384     49380     49378     49381     49382
     49380     49378     49381     49383     49380     49378     49381     49384
     49381     49384     49387     49388     49381     49384     49387     49389
     49381     49384     49387     49390     49382     49381     49384     49385
     49382     49381     49384     49386     49382     49381     49384     49387
     49383     49381     49384     49385     49383     49381     49384     49386
     49383     49381     49384     49387     49384     49387     49390     49391
     49384     49387     49390     49392     49384     49387     49390     49393
     49385     49384     49387     49388     49385     49384     49387     49389
     49385     49384     49387     49390     49386     49384     49387     49388
     49386     49384     49387     49389     49386     49384     49387     49390
     49387     49390     49393     49394     49387     49390     49393     49395
     49387     49390     49393     49396     49388     49387     49390     49391
     49388     49387     49390     49392     49388     49387     49390     49393
     49389     49387     49390     49391     49389     49387     49390     49392
     49389     49387     49390     49393     49390     49393     49396     49397
     49390     49393     49396     49398     49390     49393     49396     49399
     49391     49390     49393     49394     49391     49390     49393     49395
     49391     49390     49393     49396     49392     49390     49393     49394
     49392     49390     49393     49395     49392     49390     49393     49396
     49393     49396     49399     49400     49393     49396     49399     49401
     49394     49393     49396     49397     49394     49393     49396     49398
     49394     49393     49396     49399     49395     49393     49396     49397
     49395     49393     49396     49398     49395     49393     49396     49399
     49396     49399     49401     49402     49396     49399     49401     49403
     49397     49396     49399     49400     49397     49396     49399     49401
     49398     49396     49399     49400     49398     49396     49399     49401
     49399     49401     49403     49404     49399     49401     49403     49405
     49399     49401     49403     49406     49400     49399     49401     49402
     49400     49399     49401     49403     49401     49403     49406     49407
     49401     49403     49406     49408     49401     49403     49406     49409
     49402     49401     49403     49404     49402     49401     49403     49405
     49402     49401     49403     49406     49403     49406     49409     49410
     49403     49406     49409     49411     49403     49406     49409     49412
     49404     49403     49406     49407     49404     49403     49406     49408
     49404     49403     49406     49409     49405     49403     49406     49407
     49405     49403     49406     49408     49405     49403     49406     49409
     49406     49409     49412     49413     49406     49409     49412     49414
     49406     49409     49412     49415     49407     49406     49409     49410
     49407     49406     49409     49411     49407     49406     49409     49412
     49408     49406     49409     49410     49408     49406     49409     49411
     49408     49406     49409     49412     49409     49412     49415     49416
     49409     49412     49415     49417     49409     49412     49415     49418
     49410     49409     49412     49413     49410     49409     49412     49414
     49410     49409     49412     49415     49411     49409     49412     49413
     49411     49409     49412     49414     49411     49409     49412     49415
     49412     49415     49418     49419     49412     49415     49418     49420
     49412     49415     49418     49421     49413     49412     49415     49416
     49413     49412     49415     49417     49413     49412     49415     49418
     49414     49412     49415     49416     49414     49412     49415     49417
     49414     49412     49415     49418     49416     49415     49418     49419
     49416     49415     49418     49420     49416     49415     49418     49421
     49417     49415     49418     49419     49417     49415     49418     49420
     49417     49415     49418     49421     49422     49425     49428     49429
     49422     49425     49428     49430     49422     49425     49428     49431
     49423     49422     49425     49426     49423     49422     49425     49427
     49423     49422     49425     49428     49424     49422     49425     49426
     49424     49422     49425     49427     49424     49422     49425     49428
     49425     49428     49431     49432     49425     49428     49431     49433
     49425     49428     49431     49434     49426     49425     49428     49429
     49426     49425     49428     49430     49426     49425     49428     49431
     49427     49425     49428     49429     49427     49425     49428     49430
     49427     49425     49428     49431     49428     49431     49434     49435
     49428     49431     49434     49436     49428     49431     49434     49437
     49429     49428     49431     49432     49429     49428     49431     49433
     49429     49428     49431     49434     49430     49428     49431     49432
     49430     49428     49431     49433     49430     49428     49431     49434
     49431     49434     49437     49438     49431     49434     49437     49439
     49431     49434     49437     49440     49432     49431     49434     49435
     49432     49431     49434     49436     49432     49431     49434     49437
     49433     49431     49434     49435     49433     49431     49434     49436
     49433     49431     49434     49437     49434     49437     49440     49441
     49434     49437     49440     49442     49434     49437     49440     49443
     49435     49434     49437     49438     49435     49434     49437     49439
     49435     49434     49437     49440     49436     49434     49437     49438
     49436     49434     49437     49439     49436     49434     49437     49440
     49437     49440     49443     49444     49437     49440     49443     49445
     49437     49440     49443     49446     49438     49437     49440     49441
     49438     49437     49440     49442     49438     49437     49440     49443
     49439     49437     49440     49441     49439     49437     49440     49442
     49439     49437     49440     49443     49440     49443     49446     49447
     49440     49443     49446     49448     49440     49443     49446     49449
     49441     49440     49443     49444     49441     49440     49443     49445
     49441     49440     49443     49446     49442     49440     49443     49444
     49442     49440     49443     49445     49442     49440     49443     49446
     49443     49446     49449     49450     49443     49446     49449     49451
     49443     49446     49449     49452     49444     49443     49446     49447
     49444     49443     49446     49448     49444     49443     49446     49449
     49445     49443     49446     49447     49445     49443     49446     49448
     49445     49443     49446     49449     49446     49449     49452     49453
     49446     49449     49452     49454     49446     49449     49452     49455
     49447     49446     49449     49450     49447     49446     49449     49451
     49447     49446     49449     49452     49448     49446     49449     49450
     49448     49446     49449     49451     49448     49446     49449     49452
     49449     49452     49455     49456     49449     49452     49455     49457
     49449     49452     49455     49458     49450     49449     49452     49453
     49450     49449     49452     49454     49450     49449     49452     49455
     49451     49449     49452     49453     49451     49449     49452     49454
     49451     49449     49452     49455     49452     49455     49458     49459
     49452     49455     49458     49460     49452     49455     49458     49461
     49453     49452     49455     49456     49453     49452     49455     49457
     49453     49452     49455     49458     49454     49452     49455     49456
     49454     49452     49455     49457     49454     49452     49455     49458
     49455     49458     49461     49462     49455     49458     49461     49463
     49455     49458     49461     49464     49456     49455     49458     49459
     49456     49455     49458     49460     49456     49455     49458     49461
     49457     49455     49458     49459     49457     49455     49458     49460
     49457     49455     49458     49461     49459     49458     49461     49462
     49459     49458     49461     49463     49459     49458     49461     49464
     49460     49458     49461     49462     49460     49458     49461     49463
     49460     49458     49461     49464     49465     49469     49472     49473
     49465     49469     49472     49474     49465     49469     49472     49479
     49466     49465     49469     49470     49466     49465     49469     49471
     49466     49465     49469     49472     49467     49465     49469     49470
     49467     49465     49469     49471     49467     49465     49469     49472
     49468     49465     49469     49470     49468     49465     49469     49471
     49468     49465     49469     49472     49469     49472     49479     49475
     49470     49469     49472     49473     49470     49469     49472     49474
     49470     49469     49472     49479     49471     49469     49472     49473
     49471     49469     49472     49474     49471     49469     49472     49479
     49472     49479     49475     49476     49472     49479     49475     49477
     49472     49479     49475     49478     49473     49472     49479     49475
     49474     49472     49479     49475     49475     49478     49480     49481
     49475     49478     49480     49482     49475     49478     49480     49483
     49476     49475     49478     49480     49477     49475     49478     49480
     49478     49480     49483     49484     49478     49480     49483     49485
     49478     49480     49483     49491     49479     49475     49478     49480
     49480     49483     49485     49486     49480     49483     49491     49492
     49480     49483     49491     49493     49480     49483     49491     49494
     49481     49480     49483     49484     49481     49480     49483     49485
     49481     49480     49483     49491     49482     49480     49483     49484
     49482     49480     49483     49485     49482     49480     49483     49491
     49483     49485     49486     49487     49483     49485     49486     49488
     49483     49491     49494     49495     49484     49483     49485     49486
     49484     49483     49491     49492     49484     49483     49491     49493
     49484     49483     49491     49494     49485     49483     49491     49492
     49485     49483     49491     49493     49485     49483     49491     49494
     49485     49486     49488     49489     49485     49486     49488     49490
     49485     49486     49488     49500     49486     49485     49483     49491
     49486     49488     49500     49501     49486     49488     49500     49502
     49486     49488     49500     49503     49487     49486     49488     49489
     49487     49486     49488     49490     49487     49486     49488     49500
     49488     49500     49503     49504     49488     49500     49503     49505
     49488     49500     49503     49506     49489     49488     49500     49501
     49489     49488     49500     49502     49489     49488     49500     49503
     49490     49488     49500     49501     49490     49488     49500     49502
     49490     49488     49500     49503     49491     49494     49495     49496
     49491     49494     49495     49497     49492     49491     49494     49495
     49493     49491     49494     49495     49494     49495     49497     49498
     49494     49495     49497     49499     49494     49495     49497     49541
     49495     49497     49541     49542     49495     49497     49541     49543
     49495     49497     49541     49544     49496     49495     49497     49498
     49496     49495     49497     49499     49496     49495     49497     49541
     49497     49541     49544     49545     49497     49541     49544     49546
     49497     49541     49544     49547     49498     49497     49541     49542
     49498     49497     49541     49543     49498     49497     49541     49544
     49499     49497     49541     49542     49499     49497     49541     49543
     49499     49497     49541     49544     49500     49503     49506     49507
     49500     49503     49506     49508     49500     49503     49506     49509
     49501     49500     49503     49504     49501     49500     49503     49505
     49501     49500     49503     49506     49502     49500     49503     49504
     49502     49500     49503     49505     49502     49500     49503     49506
     49503     49506     49509     49510     49503     49506     49509     49511
     49503     49506     49509     49512     49504     49503     49506     49507
     49504     49503     49506     49508     49504     49503     49506     49509
     49505     49503     49506     49507     49505     49503     49506     49508
     49505     49503     49506     49509     49506     49509     49512     49513
     49506     49509     49512     49514     49506     49509     49512     49515
     49507     49506     49509     49510     49507     49506     49509     49511
     49507     49506     49509     49512     49508     49506     49509     49510
     49508     49506     49509     49511     49508     49506     49509     49512
     49509     49512     49515     49516     49509     49512     49515     49517
     49509     49512     49515     49518     49510     49509     49512     49513
     49510     49509     49512     49514     49510     49509     49512     49515
     49511     49509     49512     49513     49511     49509     49512     49514
     49511     49509     49512     49515     49512     49515     49518     49519
     49512     49515     49518     49520     49513     49512     49515     49516
     49513     49512     49515     49517     49513     49512     49515     49518
     49514     49512     49515     49516     49514     49512     49515     49517
     49514     49512     49515     49518     49515     49518     49520     49521
     49515     49518     49520     49522     49516     49515     49518     49519
     49516     49515     49518     49520     49517     49515     49518     49519
     49517     49515     49518     49520     49518     49520     49522     49523
     49518     49520     49522     49524     49518     49520     49522     49525
     49519     49518     49520     49521     49519     49518     49520     49522
     49520     49522     49525     49526     49520     49522     49525     49527
     49520     49522     49525     49528     49521     49520     49522     49523
     49521     49520     49522     49524     49521     49520     49522     49525
     49522     49525     49528     49529     49522     49525     49528     49530
     49522     49525     49528     49531     49523     49522     49525     49526
     49523     49522     49525     49527     49523     49522     49525     49528
     49524     49522     49525     49526     49524     49522     49525     49527
     49524     49522     49525     49528     49525     49528     49531     49532
     49525     49528     49531     49533     49525     49528     49531     49534
     49526     49525     49528     49529     49526     49525     49528     49530
     49526     49525     49528     49531     49527     49525     49528     49529
     49527     49525     49528     49530     49527     49525     49528     49531
     49528     49531     49534     49535     49528     49531     49534     49536
     49528     49531     49534     49537     49529     49528     49531     49532
     49529     49528     49531     49533     49529     49528     49531     49534
     49530     49528     49531     49532     49530     49528     49531     49533
     49530     49528     49531     49534     49531     49534     49537     49538
     49531     49534     49537     49539     49531     49534     49537     49540
     49532     49531     49534     49535     49532     49531     49534     49536
     49532     49531     49534     49537     49533     49531     49534     49535
     49533     49531     49534     49536     49533     49531     49534     49537
     49535     49534     49537     49538     49535     49534     49537     49539
     49535     49534     49537     49540     49536     49534     49537     49538
     49536     49534     49537     49539     49536     49534     49537     49540
     49541     49544     49547     49548     49541     49544     49547     49549
     49541     49544     49547     49550     49542     49541     49544     49545
     49542     49541     49544     49546     49542     49541     49544     49547
     49543     49541     49544     49545     49543     49541     49544     49546
     49543     49541     49544     49547     49544     49547     49550     49551
     49544     49547     49550     49552     49544     49547     49550     49553
     49545     49544     49547     49548     49545     49544     49547     49549
     49545     49544     49547     49550     49546     49544     49547     49548
     49546     49544     49547     49549     49546     49544     49547     49550
     49547     49550     49553     49554     49547     49550     49553     49555
     49547     49550     49553     49556     49548     49547     49550     49551
     49548     49547     49550     49552     49548     49547     49550     49553
     49549     49547     49550     49551     49549     49547     49550     49552
     49549     49547     49550     49553     49550     49553     49556     49557
     49550     49553     49556     49558     49550     49553     49556     49559
     49551     49550     49553     49554     49551     49550     49553     49555
     49551     49550     49553     49556     49552     49550     49553     49554
     49552     49550     49553     49555     49552     49550     49553     49556
     49553     49556     49559     49560     49553     49556     49559     49561
     49553     49556     49559     49562     49554     49553     49556     49557
     49554     49553     49556     49558     49554     49553     49556     49559
     49555     49553     49556     49557     49555     49553     49556     49558
     49555     49553     49556     49559     49556     49559     49562     49563
     49556     49559     49562     49564     49556     49559     49562     49565
     49557     49556     49559     49560     49557     49556     49559     49561
     49557     49556     49559     49562     49558     49556     49559     49560
     49558     49556     49559     49561     49558     49556     49559     49562
     49559     49562     49565     49566     49559     49562     49565     49567
     49559     49562     49565     49568     49560     49559     49562     49563
     49560     49559     49562     49564     49560     49559     49562     49565
     49561     49559     49562     49563     49561     49559     49562     49564
     49561     49559     49562     49565     49562     49565     49568     49569
     49562     49565     49568     49570     49562     49565     49568     49571
     49563     49562     49565     49566     49563     49562     49565     49567
     49563     49562     49565     49568     49564     49562     49565     49566
     49564     49562     49565     49567     49564     49562     49565     49568
     49565     49568     49571     49572     49565     49568     49571     49573
     49565     49568     49571     49574     49566     49565     49568     49569
     49566     49565     49568     49570     49566     49565     49568     49571
     49567     49565     49568     49569     49567     49565     49568     49570
     49567     49565     49568     49571     49568     49571     49574     49575
     49568     49571     49574     49576     49568     49571     49574     49577
     49569     49568     49571     49572     49569     49568     49571     49573
     49569     49568     49571     49574     49570     49568     49571     49572
     49570     49568     49571     49573     49570     49568     49571     49574
     49571     49574     49577     49578     49571     49574     49577     49579
     49571     49574     49577     49580     49572     49571     49574     49575
     49572     49571     49574     49576     49572     49571     49574     49577
     49573     49571     49574     49575     49573     49571     49574     49576
     49573     49571     49574     49577     49574     49577     49580     49581
     49574     49577     49580     49582     49574     49577     49580     49583
     49575     49574     49577     49578     49575     49574     49577     49579
     49575     49574     49577     49580     49576     49574     49577     49578
     49576     49574     49577     49579     49576     49574     49577     49580
     49578     49577     49580     49581     49578     49577     49580     49582
     49578     49577     49580     49583     49579     49577     49580     49581
     49579     49577     49580     49582     49579     49577     49580     49583
     49584     49588     49591     49592     49584     49588     49591     49593
     49584     49588     49591     49598     49585     49584     49588     49589
     49585     49584     49588     49590     49585     49584     49588     49591
     49586     49584     49588     49589     49586     49584     49588     49590
     49586     49584     49588     49591     49587     49584     49588     49589
     49587     49584     49588     49590     49587     49584     49588     49591
     49588     49591     49598     49594     49589     49588     49591     49592
     49589     49588     49591     49593     49589     49588     49591     49598
     49590     49588     49591     49592     49590     49588     49591     49593
     49590     49588     49591     49598     49591     49598     49594     49595
     49591     49598     49594     49596     49591     49598     49594     49597
     49592     49591     49598     49594     49593     49591     49598     49594
     49594     49597     49599     49600     49594     49597     49599     49601
     49594     49597     49599     49602     49595     49594     49597     49599
     49596     49594     49597     49599     49597     49599     49602     49603
     49597     49599     49602     49604     49597     49599     49602     49610
     49598     49594     49597     49599     49599     49602     49604     49605
     49599     49602     49610     49611     49599     49602     49610     49612
     49599     49602     49610     49613     49600     49599     49602     49603
     49600     49599     49602     49604     49600     49599     49602     49610
     49601     49599     49602     49603     49601     49599     49602     49604
     49601     49599     49602     49610     49602     49604     49605     49606
     49602     49604     49605     49607     49602     49610     49613     49614
     49603     49602     49604     49605     49603     49602     49610     49611
     49603     49602     49610     49612     49603     49602     49610     49613
     49604     49602     49610     49611     49604     49602     49610     49612
     49604     49602     49610     49613     49604     49605     49607     49608
     49604     49605     49607     49609     49604     49605     49607     49619
     49605     49604     49602     49610     49605     49607     49619     49620
     49605     49607     49619     49621     49605     49607     49619     49622
     49606     49605     49607     49608     49606     49605     49607     49609
     49606     49605     49607     49619     49607     49619     49622     49623
     49607     49619     49622     49624     49607     49619     49622     49625
     49608     49607     49619     49620     49608     49607     49619     49621
     49608     49607     49619     49622     49609     49607     49619     49620
     49609     49607     49619     49621     49609     49607     49619     49622
     49610     49613     49614     49615     49610     49613     49614     49616
     49611     49610     49613     49614     49612     49610     49613     49614
     49613     49614     49616     49617     49613     49614     49616     49618
     49613     49614     49616     49660     49614     49616     49660     49661
     49614     49616     49660     49662     49614     49616     49660     49663
     49615     49614     49616     49617     49615     49614     49616     49618
     49615     49614     49616     49660     49616     49660     49663     49664
     49616     49660     49663     49665     49616     49660     49663     49666
     49617     49616     49660     49661     49617     49616     49660     49662
     49617     49616     49660     49663     49618     49616     49660     49661
     49618     49616     49660     49662     49618     49616     49660     49663
     49619     49622     49625     49626     49619     49622     49625     49627
     49619     49622     49625     49628     49620     49619     49622     49623
     49620     49619     49622     49624     49620     49619     49622     49625
     49621     49619     49622     49623     49621     49619     49622     49624
     49621     49619     49622     49625     49622     49625     49628     49629
     49622     49625     49628     49630     49622     49625     49628     49631
     49623     49622     49625     49626     49623     49622     49625     49627
     49623     49622     49625     49628     49624     49622     49625     49626
     49624     49622     49625     49627     49624     49622     49625     49628
     49625     49628     49631     49632     49625     49628     49631     49633
     49625     49628     49631     49634     49626     49625     49628     49629
     49626     49625     49628     49630     49626     49625     49628     49631
     49627     49625     49628     49629     49627     49625     49628     49630
     49627     49625     49628     49631     49628     49631     49634     49635
     49628     49631     49634     49636     49628     49631     49634     49637
     49629     49628     49631     49632     49629     49628     49631     49633
     49629     49628     49631     49634     49630     49628     49631     49632
     49630     49628     49631     49633     49630     49628     49631     49634
     49631     49634     49637     49638     49631     49634     49637     49639
     49632     49631     49634     49635     49632     49631     49634     49636
     49632     49631     49634     49637     49633     49631     49634     49635
     49633     49631     49634     49636     49633     49631     49634     49637
     49634     49637     49639     49640     49634     49637     49639     49641
     49635     49634     49637     49638     49635     49634     49637     49639
     49636     49634     49637     49638     49636     49634     49637     49639
     49637     49639     49641     49642     49637     49639     49641     49643
     49637     49639     49641     49644     49638     49637     49639     49640
     49638     49637     49639     49641     49639     49641     49644     49645
     49639     49641     49644     49646     49639     49641     49644     49647
     49640     49639     49641     49642     49640     49639     49641     49643
     49640     49639     49641     49644     49641     49644     49647     49648
     49641     49644     49647     49649     49641     49644     49647     49650
     49642     49641     49644     49645     49642     49641     49644     49646
     49642     49641     49644     49647     49643     49641     49644     49645
     49643     49641     49644     49646     49643     49641     49644     49647
     49644     49647     49650     49651     49644     49647     49650     49652
     49644     49647     49650     49653     49645     49644     49647     49648
     49645     49644     49647     49649     49645     49644     49647     49650
     49646     49644     49647     49648     49646     49644     49647     49649
     49646     49644     49647     49650     49647     49650     49653     49654
     49647     49650     49653     49655     49647     49650     49653     49656
     49648     49647     49650     49651     49648     49647     49650     49652
     49648     49647     49650     49653     49649     49647     49650     49651
     49649     49647     49650     49652     49649     49647     49650     49653
     49650     49653     49656     49657     49650     49653     49656     49658
     49650     49653     49656     49659     49651     49650     49653     49654
     49651     49650     49653     49655     49651     49650     49653     49656
     49652     49650     49653     49654     49652     49650     49653     49655
     49652     49650     49653     49656     49654     49653     49656     49657
     49654     49653     49656     49658     49654     49653     49656     49659
     49655     49653     49656     49657     49655     49653     49656     49658
     49655     49653     49656     49659     49660     49663     49666     49667
     49660     49663     49666     49668     49660     49663     49666     49669
     49661     49660     49663     49664     49661     49660     49663     49665
     49661     49660     49663     49666     49662     49660     49663     49664
     49662     49660     49663     49665     49662     49660     49663     49666
     49663     49666     49669     49670     49663     49666     49669     49671
     49663     49666     49669     49672     49664     49663     49666     49667
     49664     49663     49666     49668     49664     49663     49666     49669
     49665     49663     49666     49667     49665     49663     49666     49668
     49665     49663     49666     49669     49666     49669     49672     49673
     49666     49669     49672     49674     49666     49669     49672     49675
     49667     49666     49669     49670     49667     49666     49669     49671
     49667     49666     49669     49672     49668     49666     49669     49670
     49668     49666     49669     49671     49668     49666     49669     49672
     49669     49672     49675     49676     49669     49672     49675     49677
     49669     49672     49675     49678     49670     49669     49672     49673
     49670     49669     49672     49674     49670     49669     49672     49675
     49671     49669     49672     49673     49671     49669     49672     49674
     49671     49669     49672     49675     49672     49675     49678     49679
     49672     49675     49678     49680     49672     49675     49678     49681
     49673     49672     49675     49676     49673     49672     49675     49677
     49673     49672     49675     49678     49674     49672     49675     49676
     49674     49672     49675     49677     49674     49672     49675     49678
     49675     49678     49681     49682     49675     49678     49681     49683
     49675     49678     49681     49684     49676     49675     49678     49679
     49676     49675     49678     49680     49676     49675     49678     49681
     49677     49675     49678     49679     49677     49675     49678     49680
     49677     49675     49678     49681     49678     49681     49684     49685
     49678     49681     49684     49686     49678     49681     49684     49687
     49679     49678     49681     49682     49679     49678     49681     49683
     49679     49678     49681     49684     49680     49678     49681     49682
     49680     49678     49681     49683     49680     49678     49681     49684
     49681     49684     49687     49688     49681     49684     49687     49689
     49681     49684     49687     49690     49682     49681     49684     49685
     49682     49681     49684     49686     49682     49681     49684     49687
     49683     49681     49684     49685     49683     49681     49684     49686
     49683     49681     49684     49687     49684     49687     49690     49691
     49684     49687     49690     49692     49684     49687     49690     49693
     49685     49684     49687     49688     49685     49684     49687     49689
     49685     49684     49687     49690     49686     49684     49687     49688
     49686     49684     49687     49689     49686     49684     49687     49690
     49687     49690     49693     49694     49687     49690     49693     49695
     49687     49690     49693     49696     49688     49687     49690     49691
     49688     49687     49690     49692     49688     49687     49690     49693
     49689     49687     49690     49691     49689     49687     49690     49692
     49689     49687     49690     49693     49690     49693     49696     49697
     49690     49693     49696     49698     49690     49693     49696     49699
     49691     49690     49693     49694     49691     49690     49693     49695
     49691     49690     49693     49696     49692     49690     49693     49694
     49692     49690     49693     49695     49692     49690     49693     49696
     49693     49696     49699     49700     49693     49696     49699     49701
     49693     49696     49699     49702     49694     49693     49696     49697
     49694     49693     49696     49698     49694     49693     49696     49699
     49695     49693     49696     49697     49695     49693     49696     49698
     49695     49693     49696     49699     49697     49696     49699     49700
     49697     49696     49699     49701     49697     49696     49699     49702
     49698     49696     49699     49700     49698     49696     49699     49701
     49698     49696     49699     49702     49703     49709     49706     49707
     49703     49709     49706     49708     49703     49709     49706     49710
     49703     49714     49716     49717     49703     49714     49718     49719
     49703     49714     49718     49720     49703     49714     49718     49724
     49704     49703     49709     49706     49704     49703     49714     49715
     49704     49703     49714     49716     49704     49703     49714     49718
     49705     49703     49709     49706     49705     49703     49714     49715
     49705     49703     49714     49716     49705     49703     49714     49718
     49706     49709     49703     49714     49706     49710     49711     49712
     49706     49710     49711     49713     49706     49710     49711     49746
     49707     49706     49710     49711     49708     49706     49710     49711
     49709     49703     49714     49715     49709     49703     49714     49716
     49709     49703     49714     49718     49709     49706     49710     49711
     49710     49711     49746     49747     49710     49711     49746     49748
     49710     49711     49746     49754     49711     49746     49748     49749
     49711     49746     49754     49755     49711     49746     49754     49756
     49711     49746     49754     49757     49712     49711     49746     49747
     49712     49711     49746     49748     49712     49711     49746     49754
     49713     49711     49746     49747     49713     49711     49746     49748
     49713     49711     49746     49754     49714     49718     49724     49721
     49715     49714     49716     49717     49715     49714     49718     49719
     49715     49714     49718     49720     49715     49714     49718     49724
     49716     49714     49718     49719     49716     49714     49718     49720
     49716     49714     49718     49724     49717     49716     49714     49718
     49718     49724     49721     49722     49718     49724     49721     49723
     49718     49724     49721     49725     49719     49718     49724     49721
     49720     49718     49724     49721     49721     49725     49726     49727
     49721     49725     49726     49728     49721     49725     49726     49729
     49722     49721     49725     49726     49723     49721     49725     49726
     49724     49721     49725     49726     49725     49726     49729     49730
     49725     49726     49729     49731     49725     49726     49729     49737
     49726     49729     49731     49732     49726     49729     49737     49738
     49726     49729     49737     49739     49726     49729     49737     49740
     49727     49726     49729     49730     49727     49726     49729     49731
     49727     49726     49729     49737     49728     49726     49729     49730
     49728     49726     49729     49731     49728     49726     49729     49737
     49729     49731     49732     49733     49729     49731     49732     49734
     49729     49737     49740     49741     49730     49729     49731     49732
     49730     49729     49737     49738     49730     49729     49737     49739
     49730     49729     49737     49740     49731     49729     49737     49738
     49731     49729     49737     49739     49731     49729     49737     49740
     49731     49732     49734     49735     49731     49732     49734     49736
     49731     49732     49734     49763     49732     49731     49729     49737
     49732     49734     49763     49764     49732     49734     49763     49765
     49732     49734     49763     49766     49733     49732     49734     49735
     49733     49732     49734     49736     49733     49732     49734     49763
     49734     49763     49766     49767     49734     49763     49766     49768
     49734     49763     49766     49769     49735     49734     49763     49764
     49735     49734     49763     49765     49735     49734     49763     49766
     49736     49734     49763     49764     49736     49734     49763     49765
     49736     49734     49763     49766     49737     49740     49741     49742
     49737     49740     49741     49743     49738     49737     49740     49741
     49739     49737     49740     49741     49740     49741     49743     49744
     49740     49741     49743     49745     49740     49741     49743     49810
     49741     49743     49810     49811     49741     49743     49810     49812
     49741     49743     49810     49813     49742     49741     49743     49744
     49742     49741     49743     49745     49742     49741     49743     49810
     49743     49810     49813     49814     49743     49810     49813     49815
     49743     49810     49813     49816     49744     49743     49810     49811
     49744     49743     49810     49812     49744     49743     49810     49813
     49745     49743     49810     49811     49745     49743     49810     49812
     49745     49743     49810     49813     49746     49748     49749     49750
     49746     49748     49749     49751     49746     49754     49757     49758
     49747     49746     49748     49749     49747     49746     49754     49755
     49747     49746     49754     49756     49747     49746     49754     49757
     49748     49746     49754     49755     49748     49746     49754     49756
     49748     49746     49754     49757     49748     49749     49751     49752
     49748     49749     49751     49753     49748     49749     49751     49853
     49749     49748     49746     49754     49749     49751     49853     49854
     49749     49751     49853     49855     49749     49751     49853     49856
     49750     49749     49751     49752     49750     49749     49751     49753
     49750     49749     49751     49853     49751     49853     49856     49857
     49751     49853     49856     49858     49751     49853     49856     49859
     49752     49751     49853     49854     49752     49751     49853     49855
     49752     49751     49853     49856     49753     49751     49853     49854
     49753     49751     49853     49855     49753     49751     49853     49856
     49754     49757     49758     49759     49754     49757     49758     49760
     49755     49754     49757     49758     49756     49754     49757     49758
     49757     49758     49760     49761     49757     49758     49760     49762
     49757     49758     49760     49900     49758     49760     49900     49901
     49758     49760     49900     49902     49758     49760     49900     49903
     49759     49758     49760     49761     49759     49758     49760     49762
     49759     49758     49760     49900     49760     49900     49903     49904
     49760     49900     49903     49905     49760     49900     49903     49906
     49761     49760     49900     49901     49761     49760     49900     49902
     49761     49760     49900     49903     49762     49760     49900     49901
     49762     49760     49900     49902     49762     49760     49900     49903
     49763     49766     49769     49770     49763     49766     49769     49771
     49763     49766     49769     49772     49764     49763     49766     49767
     49764     49763     49766     49768     49764     49763     49766     49769
     49765     49763     49766     49767     49765     49763     49766     49768
     49765     49763     49766     49769     49766     49769     49772     49773
     49766     49769     49772     49774     49766     49769     49772     49775
     49767     49766     49769     49770     49767     49766     49769     49771
     49767     49766     49769     49772     49768     49766     49769     49770
     49768     49766     49769     49771     49768     49766     49769     49772
     49769     49772     49775     49776     49769     49772     49775     49777
     49769     49772     49775     49778     49770     49769     49772     49773
     49770     49769     49772     49774     49770     49769     49772     49775
     49771     49769     49772     49773     49771     49769     49772     49774
     49771     49769     49772     49775     49772     49775     49778     49779
     49772     49775     49778     49780     49772     49775     49778     49781
     49773     49772     49775     49776     49773     49772     49775     49777
     49773     49772     49775     49778     49774     49772     49775     49776
     49774     49772     49775     49777     49774     49772     49775     49778
     49775     49778     49781     49782     49775     49778     49781     49783
     49775     49778     49781     49784     49776     49775     49778     49779
     49776     49775     49778     49780     49776     49775     49778     49781
     49777     49775     49778     49779     49777     49775     49778     49780
     49777     49775     49778     49781     49778     49781     49784     49785
     49778     49781     49784     49786     49778     49781     49784     49787
     49779     49778     49781     49782     49779     49778     49781     49783
     49779     49778     49781     49784     49780     49778     49781     49782
     49780     49778     49781     49783     49780     49778     49781     49784
     49781     49784     49787     49788     49781     49784     49787     49789
     49782     49781     49784     49785     49782     49781     49784     49786
     49782     49781     49784     49787     49783     49781     49784     49785
     49783     49781     49784     49786     49783     49781     49784     49787
     49784     49787     49789     49790     49784     49787     49789     49791
     49785     49784     49787     49788     49785     49784     49787     49789
     49786     49784     49787     49788     49786     49784     49787     49789
     49787     49789     49791     49792     49787     49789     49791     49793
     49787     49789     49791     49794     49788     49787     49789     49790
     49788     49787     49789     49791     49789     49791     49794     49795
     49789     49791     49794     49796     49789     49791     49794     49797
     49790     49789     49791     49792     49790     49789     49791     49793
     49790     49789     49791     49794     49791     49794     49797     49798
     49791     49794     49797     49799     49791     49794     49797     49800
     49792     49791     49794     49795     49792     49791     49794     49796
     49792     49791     49794     49797     49793     49791     49794     49795
     49793     49791     49794     49796     49793     49791     49794     49797
     49794     49797     49800     49801     49794     49797     49800     49802
     49794     49797     49800     49803     49795     49794     49797     49798
     49795     49794     49797     49799     49795     49794     49797     49800
     49796     49794     49797     49798     49796     49794     49797     49799
     49796     49794     49797     49800     49797     49800     49803     49804
     49797     49800     49803     49805     49797     49800     49803     49806
     49798     49797     49800     49801     49798     49797     49800     49802
     49798     49797     49800     49803     49799     49797     49800     49801
     49799     49797     49800     49802     49799     49797     49800     49803
     49800     49803     49806     49807     49800     49803     49806     49808
     49800     49803     49806     49809     49801     49800     49803     49804
     49801     49800     49803     49805     49801     49800     49803     49806
     49802     49800     49803     49804     49802     49800     49803     49805
     49802     49800     49803     49806     49804     49803     49806     49807
     49804     49803     49806     49808     49804     49803     49806     49809
     49805     49803     49806     49807     49805     49803     49806     49808
     49805     49803     49806     49809     49810     49813     49816     49817
     49810     49813     49816     49818     49810     49813     49816     49819
     49811     49810     49813     49814     49811     49810     49813     49815
     49811     49810     49813     49816     49812     49810     49813     49814
     49812     49810     49813     49815     49812     49810     49813     49816
     49813     49816     49819     49820     49813     49816     49819     49821
     49813     49816     49819     49822     49814     49813     49816     49817
     49814     49813     49816     49818     49814     49813     49816     49819
     49815     49813     49816     49817     49815     49813     49816     49818
     49815     49813     49816     49819     49816     49819     49822     49823
     49816     49819     49822     49824     49816     49819     49822     49825
     49817     49816     49819     49820     49817     49816     49819     49821
     49817     49816     49819     49822     49818     49816     49819     49820
     49818     49816     49819     49821     49818     49816     49819     49822
     49819     49822     49825     49826     49819     49822     49825     49827
     49819     49822     49825     49828     49820     49819     49822     49823
     49820     49819     49822     49824     49820     49819     49822     49825
     49821     49819     49822     49823     49821     49819     49822     49824
     49821     49819     49822     49825     49822     49825     49828     49829
     49822     49825     49828     49830     49822     49825     49828     49831
     49823     49822     49825     49826     49823     49822     49825     49827
     49823     49822     49825     49828     49824     49822     49825     49826
     49824     49822     49825     49827     49824     49822     49825     49828
     49825     49828     49831     49832     49825     49828     49831     49833
     49825     49828     49831     49834     49826     49825     49828     49829
     49826     49825     49828     49830     49826     49825     49828     49831
     49827     49825     49828     49829     49827     49825     49828     49830
     49827     49825     49828     49831     49828     49831     49834     49835
     49828     49831     49834     49836     49828     49831     49834     49837
     49829     49828     49831     49832     49829     49828     49831     49833
     49829     49828     49831     49834     49830     49828     49831     49832
     49830     49828     49831     49833     49830     49828     49831     49834
     49831     49834     49837     49838     49831     49834     49837     49839
     49831     49834     49837     49840     49832     49831     49834     49835
     49832     49831     49834     49836     49832     49831     49834     49837
     49833     49831     49834     49835     49833     49831     49834     49836
     49833     49831     49834     49837     49834     49837     49840     49841
     49834     49837     49840     49842     49834     49837     49840     49843
     49835     49834     49837     49838     49835     49834     49837     49839
     49835     49834     49837     49840     49836     49834     49837     49838
     49836     49834     49837     49839     49836     49834     49837     49840
     49837     49840     49843     49844     49837     49840     49843     49845
     49837     49840     49843     49846     49838     49837     49840     49841
     49838     49837     49840     49842     49838     49837     49840     49843
     49839     49837     49840     49841     49839     49837     49840     49842
     49839     49837     49840     49843     49840     49843     49846     49847
     49840     49843     49846     49848     49840     49843     49846     49849
     49841     49840     49843     49844     49841     49840     49843     49845
     49841     49840     49843     49846     49842     49840     49843     49844
     49842     49840     49843     49845     49842     49840     49843     49846
     49843     49846     49849     49850     49843     49846     49849     49851
     49843     49846     49849     49852     49844     49843     49846     49847
     49844     49843     49846     49848     49844     49843     49846     49849
     49845     49843     49846     49847     49845     49843     49846     49848
     49845     49843     49846     49849     49847     49846     49849     49850
     49847     49846     49849     49851     49847     49846     49849     49852
     49848     49846     49849     49850     49848     49846     49849     49851
     49848     49846     49849     49852     49853     49856     49859     49860
     49853     49856     49859     49861     49853     49856     49859     49862
     49854     49853     49856     49857     49854     49853     49856     49858
     49854     49853     49856     49859     49855     49853     49856     49857
     49855     49853     49856     49858     49855     49853     49856     49859
     49856     49859     49862     49863     49856     49859     49862     49864
     49856     49859     49862     49865     49857     49856     49859     49860
     49857     49856     49859     49861     49857     49856     49859     49862
     49858     49856     49859     49860     49858     49856     49859     49861
     49858     49856     49859     49862     49859     49862     49865     49866
     49859     49862     49865     49867     49859     49862     49865     49868
     49860     49859     49862     49863     49860     49859     49862     49864
     49860     49859     49862     49865     49861     49859     49862     49863
     49861     49859     49862     49864     49861     49859     49862     49865
     49862     49865     49868     49869     49862     49865     49868     49870
     49862     49865     49868     49871     49863     49862     49865     49866
     49863     49862     49865     49867     49863     49862     49865     49868
     49864     49862     49865     49866     49864     49862     49865     49867
     49864     49862     49865     49868     49865     49868     49871     49872
     49865     49868     49871     49873     49865     49868     49871     49874
     49866     49865     49868     49869     49866     49865     49868     49870
     49866     49865     49868     49871     49867     49865     49868     49869
     49867     49865     49868     49870     49867     49865     49868     49871
     49868     49871     49874     49875     49868     49871     49874     49876
     49868     49871     49874     49877     49869     49868     49871     49872
     49869     49868     49871     49873     49869     49868     49871     49874
     49870     49868     49871     49872     49870     49868     49871     49873
     49870     49868     49871     49874     49871     49874     49877     49878
     49871     49874     49877     49879     49872     49871     49874     49875
     49872     49871     49874     49876     49872     49871     49874     49877
     49873     49871     49874     49875     49873     49871     49874     49876
     49873     49871     49874     49877     49874     49877     49879     49880
     49874     49877     49879     49881     49875     49874     49877     49878
     49875     49874     49877     49879     49876     49874     49877     49878
     49876     49874     49877     49879     49877     49879     49881     49882
     49877     49879     49881     49883     49877     49879     49881     49884
     49878     49877     49879     49880     49878     49877     49879     49881
     49879     49881     49884     49885     49879     49881     49884     49886
     49879     49881     49884     49887     49880     49879     49881     49882
     49880     49879     49881     49883     49880     49879     49881     49884
     49881     49884     49887     49888     49881     49884     49887     49889
     49881     49884     49887     49890     49882     49881     49884     49885
     49882     49881     49884     49886     49882     49881     49884     49887
     49883     49881     49884     49885     49883     49881     49884     49886
     49883     49881     49884     49887     49884     49887     49890     49891
     49884     49887     49890     49892     49884     49887     49890     49893
     49885     49884     49887     49888     49885     49884     49887     49889
     49885     49884     49887     49890     49886     49884     49887     49888
     49886     49884     49887     49889     49886     49884     49887     49890
     49887     49890     49893     49894     49887     49890     49893     49895
     49887     49890     49893     49896     49888     49887     49890     49891
     49888     49887     49890     49892     49888     49887     49890     49893
     49889     49887     49890     49891     49889     49887     49890     49892
     49889     49887     49890     49893     49890     49893     49896     49897
     49890     49893     49896     49898     49890     49893     49896     49899
     49891     49890     49893     49894     49891     49890     49893     49895
     49891     49890     49893     49896     49892     49890     49893     49894
     49892     49890     49893     49895     49892     49890     49893     49896
     49894     49893     49896     49897     49894     49893     49896     49898
     49894     49893     49896     49899     49895     49893     49896     49897
     49895     49893     49896     49898     49895     49893     49896     49899
     49900     49903     49906     49907     49900     49903     49906     49908
     49900     49903     49906     49909     49901     49900     49903     49904
     49901     49900     49903     49905     49901     49900     49903     49906
     49902     49900     49903     49904     49902     49900     49903     49905
     49902     49900     49903     49906     49903     49906     49909     49910
     49903     49906     49909     49911     49903     49906     49909     49912
     49904     49903     49906     49907     49904     49903     49906     49908
     49904     49903     49906     49909     49905     49903     49906     49907
     49905     49903     49906     49908     49905     49903     49906     49909
     49906     49909     49912     49913     49906     49909     49912     49914
     49906     49909     49912     49915     49907     49906     49909     49910
     49907     49906     49909     49911     49907     49906     49909     49912
     49908     49906     49909     49910     49908     49906     49909     49911
     49908     49906     49909     49912     49909     49912     49915     49916
     49909     49912     49915     49917     49909     49912     49915     49918
     49910     49909     49912     49913     49910     49909     49912     49914
     49910     49909     49912     49915     49911     49909     49912     49913
     49911     49909     49912     49914     49911     49909     49912     49915
     49912     49915     49918     49919     49912     49915     49918     49920
     49912     49915     49918     49921     49913     49912     49915     49916
     49913     49912     49915     49917     49913     49912     49915     49918
     49914     49912     49915     49916     49914     49912     49915     49917
     49914     49912     49915     49918     49915     49918     49921     49922
     49915     49918     49921     49923     49915     49918     49921     49924
     49916     49915     49918     49919     49916     49915     49918     49920
     49916     49915     49918     49921     49917     49915     49918     49919
     49917     49915     49918     49920     49917     49915     49918     49921
     49918     49921     49924     49925     49918     49921     49924     49926
     49918     49921     49924     49927     49919     49918     49921     49922
     49919     49918     49921     49923     49919     49918     49921     49924
     49920     49918     49921     49922     49920     49918     49921     49923
     49920     49918     49921     49924     49921     49924     49927     49928
     49921     49924     49927     49929     49921     49924     49927     49930
     49922     49921     49924     49925     49922     49921     49924     49926
     49922     49921     49924     49927     49923     49921     49924     49925
     49923     49921     49924     49926     49923     49921     49924     49927
     49924     49927     49930     49931     49924     49927     49930     49932
     49924     49927     49930     49933     49925     49924     49927     49928
     49925     49924     49927     49929     49925     49924     49927     49930
     49926     49924     49927     49928     49926     49924     49927     49929
     49926     49924     49927     49930     49927     49930     49933     49934
     49927     49930     49933     49935     49927     49930     49933     49936
     49928     49927     49930     49931     49928     49927     49930     49932
     49928     49927     49930     49933     49929     49927     49930     49931
     49929     49927     49930     49932     49929     49927     49930     49933
     49930     49933     49936     49937     49930     49933     49936     49938
     49930     49933     49936     49939     49931     49930     49933     49934
     49931     49930     49933     49935     49931     49930     49933     49936
     49932     49930     49933     49934     49932     49930     49933     49935
     49932     49930     49933     49936     49933     49936     49939     49940
     49933     49936     49939     49941     49933     49936     49939     49942
     49934     49933     49936     49937     49934     49933     49936     49938
     49934     49933     49936     49939     49935     49933     49936     49937
     49935     49933     49936     49938     49935     49933     49936     49939
     49937     49936     49939     49940     49937     49936     49939     49941
     49937     49936     49939     49942     49938     49936     49939     49940
     49938     49936     49939     49941     49938     49936     49939     49942
     49943     49948     49950     49951     49943     49948     49952     49953
     49943     49948     49952     49954     49943     49948     49952     49958
     49944     49943     49946     49947     49944     49943     49948     49949
     49944     49943     49948     49950     49944     49943     49948     49952
     49945     49943     49946     49947     49945     49943     49948     49949
     49945     49943     49948     49950     49945     49943     49948     49952
     49946     49943     49948     49949     49946     49943     49948     49950
     49946     49943     49948     49952     49947     49946     49943     49948
     49948     49952     49958     49955     49949     49948     49950     49951
     49949     49948     49952     49953     49949     49948     49952     49954
     49949     49948     49952     49958     49950     49948     49952     49953
     49950     49948     49952     49954     49950     49948     49952     49958
     49951     49950     49948     49952     49952     49958     49955     49956
     49952     49958     49955     49957     49952     49958     49955     49959
     49953     49952     49958     49955     49954     49952     49958     49955
     49955     49959     49960     49961     49955     49959     49960     49962
     49955     49959     49960     49963     49956     49955     49959     49960
     49957     49955     49959     49960     49958     49955     49959     49960
     49959     49960     49963     49964     49959     49960     49963     49965
     49959     49960     49963     49971     49960     49963     49965     49966
     49960     49963     49971     49972     49960     49963     49971     49973
     49960     49963     49971     49974     49961     49960     49963     49964
     49961     49960     49963     49965     49961     49960     49963     49971
     49962     49960     49963     49964     49962     49960     49963     49965
     49962     49960     49963     49971     49963     49965     49966     49967
     49963     49965     49966     49968     49963     49971     49974     49975
     49964     49963     49965     49966     49964     49963     49971     49972
     49964     49963     49971     49973     49964     49963     49971     49974
     49965     49963     49971     49972     49965     49963     49971     49973
     49965     49963     49971     49974     49965     49966     49968     49969
     49965     49966     49968     49970     49965     49966     49968     49980
     49966     49965     49963     49971     49966     49968     49980     49981
     49966     49968     49980     49982     49966     49968     49980     49983
     49967     49966     49968     49969     49967     49966     49968     49970
     49967     49966     49968     49980     49968     49980     49983     49984
     49968     49980     49983     49985     49968     49980     49983     49986
     49969     49968     49980     49981     49969     49968     49980     49982
     49969     49968     49980     49983     49970     49968     49980     49981
     49970     49968     49980     49982     49970     49968     49980     49983
     49971     49974     49975     49976     49971     49974     49975     49977
     49972     49971     49974     49975     49973     49971     49974     49975
     49974     49975     49977     49978     49974     49975     49977     49979
     49974     49975     49977     50027     49975     49977     50027     50028
     49975     49977     50027     50029     49975     49977     50027     50030
     49976     49975     49977     49978     49976     49975     49977     49979
     49976     49975     49977     50027     49977     50027     50030     50031
     49977     50027     50030     50032     49977     50027     50030     50033
     49978     49977     50027     50028     49978     49977     50027     50029
     49978     49977     50027     50030     49979     49977     50027     50028
     49979     49977     50027     50029     49979     49977     50027     50030
     49980     49983     49986     49987     49980     49983     49986     49988
     49980     49983     49986     49989     49981     49980     49983     49984
     49981     49980     49983     49985     49981     49980     49983     49986
     49982     49980     49983     49984     49982     49980     49983     49985
     49982     49980     49983     49986     49983     49986     49989     49990
     49983     49986     49989     49991     49983     49986     49989     49992
     49984     49983     49986     49987     49984     49983     49986     49988
     49984     49983     49986     49989     49985     49983     49986     49987
     49985     49983     49986     49988     49985     49983     49986     49989
     49986     49989     49992     49993     49986     49989     49992     49994
     49986     49989     49992     49995     49987     49986     49989     49990
     49987     49986     49989     49991     49987     49986     49989     49992
     49988     49986     49989     49990     49988     49986     49989     49991
     49988     49986     49989     49992     49989     49992     49995     49996
     49989     49992     49995     49997     49989     49992     49995     49998
     49990     49989     49992     49993     49990     49989     49992     49994
     49990     49989     49992     49995     49991     49989     49992     49993
     49991     49989     49992     49994     49991     49989     49992     49995
     49992     49995     49998     49999     49992     49995     49998     50000
     49992     49995     49998     50001     49993     49992     49995     49996
     49993     49992     49995     49997     49993     49992     49995     49998
     49994     49992     49995     49996     49994     49992     49995     49997
     49994     49992     49995     49998     49995     49998     50001     50002
     49995     49998     50001     50003     49995     49998     50001     50004
     49996     49995     49998     49999     49996     49995     49998     50000
     49996     49995     49998     50001     49997     49995     49998     49999
     49997     49995     49998     50000     49997     49995     49998     50001
     49998     50001     50004     50005     49998     50001     50004     50006
     49999     49998     50001     50002     49999     49998     50001     50003
     49999     49998     50001     50004     50000     49998     50001     50002
     50000     49998     50001     50003     50000     49998     50001     50004
     50001     50004     50006     50007     50001     50004     50006     50008
     50002     50001     50004     50005     50002     50001     50004     50006
     50003     50001     50004     50005     50003     50001     50004     50006
     50004     50006     50008     50009     50004     50006     50008     50010
     50004     50006     50008     50011     50005     50004     50006     50007
     50005     50004     50006     50008     50006     50008     50011     50012
     50006     50008     50011     50013     50006     50008     50011     50014
     50007     50006     50008     50009     50007     50006     50008     50010
     50007     50006     50008     50011     50008     50011     50014     50015
     50008     50011     50014     50016     50008     50011     50014     50017
     50009     50008     50011     50012     50009     50008     50011     50013
     50009     50008     50011     50014     50010     50008     50011     50012
     50010     50008     50011     50013     50010     50008     50011     50014
     50011     50014     50017     50018     50011     50014     50017     50019
     50011     50014     50017     50020     50012     50011     50014     50015
     50012     50011     50014     50016     50012     50011     50014     50017
     50013     50011     50014     50015     50013     50011     50014     50016
     50013     50011     50014     50017     50014     50017     50020     50021
     50014     50017     50020     50022     50014     50017     50020     50023
     50015     50014     50017     50018     50015     50014     50017     50019
     50015     50014     50017     50020     50016     50014     50017     50018
     50016     50014     50017     50019     50016     50014     50017     50020
     50017     50020     50023     50024     50017     50020     50023     50025
     50017     50020     50023     50026     50018     50017     50020     50021
     50018     50017     50020     50022     50018     50017     50020     50023
     50019     50017     50020     50021     50019     50017     50020     50022
     50019     50017     50020     50023     50021     50020     50023     50024
     50021     50020     50023     50025     50021     50020     50023     50026
     50022     50020     50023     50024     50022     50020     50023     50025
     50022     50020     50023     50026     50027     50030     50033     50034
     50027     50030     50033     50035     50027     50030     50033     50036
     50028     50027     50030     50031     50028     50027     50030     50032
     50028     50027     50030     50033     50029     50027     50030     50031
     50029     50027     50030     50032     50029     50027     50030     50033
     50030     50033     50036     50037     50030     50033     50036     50038
     50030     50033     50036     50039     50031     50030     50033     50034
     50031     50030     50033     50035     50031     50030     50033     50036
     50032     50030     50033     50034     50032     50030     50033     50035
     50032     50030     50033     50036     50033     50036     50039     50040
     50033     50036     50039     50041     50033     50036     50039     50042
     50034     50033     50036     50037     50034     50033     50036     50038
     50034     50033     50036     50039     50035     50033     50036     50037
     50035     50033     50036     50038     50035     50033     50036     50039
     50036     50039     50042     50043     50036     50039     50042     50044
     50036     50039     50042     50045     50037     50036     50039     50040
     50037     50036     50039     50041     50037     50036     50039     50042
     50038     50036     50039     50040     50038     50036     50039     50041
     50038     50036     50039     50042     50039     50042     50045     50046
     50039     50042     50045     50047     50039     50042     50045     50048
     50040     50039     50042     50043     50040     50039     50042     50044
     50040     50039     50042     50045     50041     50039     50042     50043
     50041     50039     50042     50044     50041     50039     50042     50045
     50042     50045     50048     50049     50042     50045     50048     50050
     50042     50045     50048     50051     50043     50042     50045     50046
     50043     50042     50045     50047     50043     50042     50045     50048
     50044     50042     50045     50046     50044     50042     50045     50047
     50044     50042     50045     50048     50045     50048     50051     50052
     50045     50048     50051     50053     50045     50048     50051     50054
     50046     50045     50048     50049     50046     50045     50048     50050
     50046     50045     50048     50051     50047     50045     50048     50049
     50047     50045     50048     50050     50047     50045     50048     50051
     50048     50051     50054     50055     50048     50051     50054     50056
     50048     50051     50054     50057     50049     50048     50051     50052
     50049     50048     50051     50053     50049     50048     50051     50054
     50050     50048     50051     50052     50050     50048     50051     50053
     50050     50048     50051     50054     50051     50054     50057     50058
     50051     50054     50057     50059     50051     50054     50057     50060
     50052     50051     50054     50055     50052     50051     50054     50056
     50052     50051     50054     50057     50053     50051     50054     50055
     50053     50051     50054     50056     50053     50051     50054     50057
     50054     50057     50060     50061     50054     50057     50060     50062
     50054     50057     50060     50063     50055     50054     50057     50058
     50055     50054     50057     50059     50055     50054     50057     50060
     50056     50054     50057     50058     50056     50054     50057     50059
     50056     50054     50057     50060     50057     50060     50063     50064
     50057     50060     50063     50065     50057     50060     50063     50066
     50058     50057     50060     50061     50058     50057     50060     50062
     50058     50057     50060     50063     50059     50057     50060     50061
     50059     50057     50060     50062     50059     50057     50060     50063
     50060     50063     50066     50067     50060     50063     50066     50068
     50060     50063     50066     50069     50061     50060     50063     50064
     50061     50060     50063     50065     50061     50060     50063     50066
     50062     50060     50063     50064     50062     50060     50063     50065
     50062     50060     50063     50066     50064     50063     50066     50067
     50064     50063     50066     50068     50064     50063     50066     50069
     50065     50063     50066     50067     50065     50063     50066     50068
     50065     50063     50066     50069     50070     50074     50077     50078
     50070     50074     50077     50079     50070     50074     50077     50084
     50071     50070     50074     50075     50071     50070     50074     50076
     50071     50070     50074     50077     50072     50070     50074     50075
     50072     50070     50074     50076     50072     50070     50074     50077
     50073     50070     50074     50075     50073     50070     50074     50076
     50073     50070     50074     50077     50074     50077     50084     50080
     50075     50074     50077     50078     50075     50074     50077     50079
     50075     50074     50077     50084     50076     50074     50077     50078
     50076     50074     50077     50079     50076     50074     50077     50084
     50077     50084     50080     50081     50077     50084     50080     50082
     50077     50084     50080     50083     50078     50077     50084     50080
     50079     50077     50084     50080     50080     50083     50085     50086
     50080     50083     50085     50087     50080     50083     50085     50088
     50081     50080     50083     50085     50082     50080     50083     50085
     50083     50085     50088     50089     50083     50085     50088     50090
     50083     50085     50088     50096     50084     50080     50083     50085
     50085     50088     50090     50091     50085     50088     50096     50097
     50085     50088     50096     50098     50085     50088     50096     50099
     50086     50085     50088     50089     50086     50085     50088     50090
     50086     50085     50088     50096     50087     50085     50088     50089
     50087     50085     50088     50090     50087     50085     50088     50096
     50088     50090     50091     50092     50088     50090     50091     50093
     50088     50096     50099     50100     50089     50088     50090     50091
     50089     50088     50096     50097     50089     50088     50096     50098
     50089     50088     50096     50099     50090     50088     50096     50097
     50090     50088     50096     50098     50090     50088     50096     50099
     50090     50091     50093     50094     50090     50091     50093     50095
     50090     50091     50093     50105     50091     50090     50088     50096
     50091     50093     50105     50106     50091     50093     50105     50107
     50091     50093     50105     50108     50092     50091     50093     50094
     50092     50091     50093     50095     50092     50091     50093     50105
     50093     50105     50108     50109     50093     50105     50108     50110
     50093     50105     50108     50111     50094     50093     50105     50106
     50094     50093     50105     50107     50094     50093     50105     50108
     50095     50093     50105     50106     50095     50093     50105     50107
     50095     50093     50105     50108     50096     50099     50100     50101
     50096     50099     50100     50102     50097     50096     50099     50100
     50098     50096     50099     50100     50099     50100     50102     50103
     50099     50100     50102     50104     50099     50100     50102     50146
     50100     50102     50146     50147     50100     50102     50146     50148
     50100     50102     50146     50149     50101     50100     50102     50103
     50101     50100     50102     50104     50101     50100     50102     50146
     50102     50146     50149     50150     50102     50146     50149     50151
     50102     50146     50149     50152     50103     50102     50146     50147
     50103     50102     50146     50148     50103     50102     50146     50149
     50104     50102     50146     50147     50104     50102     50146     50148
     50104     50102     50146     50149     50105     50108     50111     50112
     50105     50108     50111     50113     50105     50108     50111     50114
     50106     50105     50108     50109     50106     50105     50108     50110
     50106     50105     50108     50111     50107     50105     50108     50109
     50107     50105     50108     50110     50107     50105     50108     50111
     50108     50111     50114     50115     50108     50111     50114     50116
     50108     50111     50114     50117     50109     50108     50111     50112
     50109     50108     50111     50113     50109     50108     50111     50114
     50110     50108     50111     50112     50110     50108     50111     50113
     50110     50108     50111     50114     50111     50114     50117     50118
     50111     50114     50117     50119     50111     50114     50117     50120
     50112     50111     50114     50115     50112     50111     50114     50116
     50112     50111     50114     50117     50113     50111     50114     50115
     50113     50111     50114     50116     50113     50111     50114     50117
     50114     50117     50120     50121     50114     50117     50120     50122
     50114     50117     50120     50123     50115     50114     50117     50118
     50115     50114     50117     50119     50115     50114     50117     50120
     50116     50114     50117     50118     50116     50114     50117     50119
     50116     50114     50117     50120     50117     50120     50123     50124
     50117     50120     50123     50125     50118     50117     50120     50121
     50118     50117     50120     50122     50118     50117     50120     50123
     50119     50117     50120     50121     50119     50117     50120     50122
     50119     50117     50120     50123     50120     50123     50125     50126
     50120     50123     50125     50127     50121     50120     50123     50124
     50121     50120     50123     50125     50122     50120     50123     50124
     50122     50120     50123     50125     50123     50125     50127     50128
     50123     50125     50127     50129     50123     50125     50127     50130
     50124     50123     50125     50126     50124     50123     50125     50127
     50125     50127     50130     50131     50125     50127     50130     50132
     50125     50127     50130     50133     50126     50125     50127     50128
     50126     50125     50127     50129     50126     50125     50127     50130
     50127     50130     50133     50134     50127     50130     50133     50135
     50127     50130     50133     50136     50128     50127     50130     50131
     50128     50127     50130     50132     50128     50127     50130     50133
     50129     50127     50130     50131     50129     50127     50130     50132
     50129     50127     50130     50133     50130     50133     50136     50137
     50130     50133     50136     50138     50130     50133     50136     50139
     50131     50130     50133     50134     50131     50130     50133     50135
     50131     50130     50133     50136     50132     50130     50133     50134
     50132     50130     50133     50135     50132     50130     50133     50136
     50133     50136     50139     50140     50133     50136     50139     50141
     50133     50136     50139     50142     50134     50133     50136     50137
     50134     50133     50136     50138     50134     50133     50136     50139
     50135     50133     50136     50137     50135     50133     50136     50138
     50135     50133     50136     50139     50136     50139     50142     50143
     50136     50139     50142     50144     50136     50139     50142     50145
     50137     50136     50139     50140     50137     50136     50139     50141
     50137     50136     50139     50142     50138     50136     50139     50140
     50138     50136     50139     50141     50138     50136     50139     50142
     50140     50139     50142     50143     50140     50139     50142     50144
     50140     50139     50142     50145     50141     50139     50142     50143
     50141     50139     50142     50144     50141     50139     50142     50145
     50146     50149     50152     50153     50146     50149     50152     50154
     50146     50149     50152     50155     50147     50146     50149     50150
     50147     50146     50149     50151     50147     50146     50149     50152
     50148     50146     50149     50150     50148     50146     50149     50151
     50148     50146     50149     50152     50149     50152     50155     50156
     50149     50152     50155     50157     50149     50152     50155     50158
     50150     50149     50152     50153     50150     50149     50152     50154
     50150     50149     50152     50155     50151     50149     50152     50153
     50151     50149     50152     50154     50151     50149     50152     50155
     50152     50155     50158     50159     50152     50155     50158     50160
     50152     50155     50158     50161     50153     50152     50155     50156
     50153     50152     50155     50157     50153     50152     50155     50158
     50154     50152     50155     50156     50154     50152     50155     50157
     50154     50152     50155     50158     50155     50158     50161     50162
     50155     50158     50161     50163     50155     50158     50161     50164
     50156     50155     50158     50159     50156     50155     50158     50160
     50156     50155     50158     50161     50157     50155     50158     50159
     50157     50155     50158     50160     50157     50155     50158     50161
     50158     50161     50164     50165     50158     50161     50164     50166
     50158     50161     50164     50167     50159     50158     50161     50162
     50159     50158     50161     50163     50159     50158     50161     50164
     50160     50158     50161     50162     50160     50158     50161     50163
     50160     50158     50161     50164     50161     50164     50167     50168
     50161     50164     50167     50169     50161     50164     50167     50170
     50162     50161     50164     50165     50162     50161     50164     50166
     50162     50161     50164     50167     50163     50161     50164     50165
     50163     50161     50164     50166     50163     50161     50164     50167
     50164     50167     50170     50171     50164     50167     50170     50172
     50164     50167     50170     50173     50165     50164     50167     50168
     50165     50164     50167     50169     50165     50164     50167     50170
     50166     50164     50167     50168     50166     50164     50167     50169
     50166     50164     50167     50170     50167     50170     50173     50174
     50167     50170     50173     50175     50167     50170     50173     50176
     50168     50167     50170     50171     50168     50167     50170     50172
     50168     50167     50170     50173     50169     50167     50170     50171
     50169     50167     50170     50172     50169     50167     50170     50173
     50170     50173     50176     50177     50170     50173     50176     50178
     50170     50173     50176     50179     50171     50170     50173     50174
     50171     50170     50173     50175     50171     50170     50173     50176
     50172     50170     50173     50174     50172     50170     50173     50175
     50172     50170     50173     50176     50173     50176     50179     50180
     50173     50176     50179     50181     50173     50176     50179     50182
     50174     50173     50176     50177     50174     50173     50176     50178
     50174     50173     50176     50179     50175     50173     50176     50177
     50175     50173     50176     50178     50175     50173     50176     50179
     50176     50179     50182     50183     50176     50179     50182     50184
     50176     50179     50182     50185     50177     50176     50179     50180
     50177     50176     50179     50181     50177     50176     50179     50182
     50178     50176     50179     50180     50178     50176     50179     50181
     50178     50176     50179     50182     50179     50182     50185     50186
     50179     50182     50185     50187     50179     50182     50185     50188
     50180     50179     50182     50183     50180     50179     50182     50184
     50180     50179     50182     50185     50181     50179     50182     50183
     50181     50179     50182     50184     50181     50179     50182     50185
     50183     50182     50185     50186     50183     50182     50185     50187
     50183     50182     50185     50188     50184     50182     50185     50186
     50184     50182     50185     50187     50184     50182     50185     50188
     50189     50193     50196     50197     50189     50193     50196     50198
     50189     50193     50196     50203     50190     50189     50193     50194
     50190     50189     50193     50195     50190     50189     50193     50196
     50191     50189     50193     50194     50191     50189     50193     50195
     50191     50189     50193     50196     50192     50189     50193     50194
     50192     50189     50193     50195     50192     50189     50193     50196
     50193     50196     50203     50199     50194     50193     50196     50197
     50194     50193     50196     50198     50194     50193     50196     50203
     50195     50193     50196     50197     50195     50193     50196     50198
     50195     50193     50196     50203     50196     50203     50199     50200
     50196     50203     50199     50201     50196     50203     50199     50202
     50197     50196     50203     50199     50198     50196     50203     50199
     50199     50202     50204     50205     50199     50202     50204     50206
     50199     50202     50204     50207     50200     50199     50202     50204
     50201     50199     50202     50204     50202     50204     50207     50208
     50202     50204     50207     50209     50202     50204     50207     50215
     50203     50199     50202     50204     50204     50207     50209     50210
     50204     50207     50215     50216     50204     50207     50215     50217
     50204     50207     50215     50218     50205     50204     50207     50208
     50205     50204     50207     50209     50205     50204     50207     50215
     50206     50204     50207     50208     50206     50204     50207     50209
     50206     50204     50207     50215     50207     50209     50210     50211
     50207     50209     50210     50212     50207     50215     50218     50219
     50208     50207     50209     50210     50208     50207     50215     50216
     50208     50207     50215     50217     50208     50207     50215     50218
     50209     50207     50215     50216     50209     50207     50215     50217
     50209     50207     50215     50218     50209     50210     50212     50213
     50209     50210     50212     50214     50209     50210     50212     50224
     50210     50209     50207     50215     50210     50212     50224     50225
     50210     50212     50224     50226     50210     50212     50224     50227
     50211     50210     50212     50213     50211     50210     50212     50214
     50211     50210     50212     50224     50212     50224     50227     50228
     50212     50224     50227     50229     50212     50224     50227     50230
     50213     50212     50224     50225     50213     50212     50224     50226
     50213     50212     50224     50227     50214     50212     50224     50225
     50214     50212     50224     50226     50214     50212     50224     50227
     50215     50218     50219     50220     50215     50218     50219     50221
     50216     50215     50218     50219     50217     50215     50218     50219
     50218     50219     50221     50222     50218     50219     50221     50223
     50218     50219     50221     50265     50219     50221     50265     50266
     50219     50221     50265     50267     50219     50221     50265     50268
     50220     50219     50221     50222     50220     50219     50221     50223
     50220     50219     50221     50265     50221     50265     50268     50269
     50221     50265     50268     50270     50221     50265     50268     50271
     50222     50221     50265     50266     50222     50221     50265     50267
     50222     50221     50265     50268     50223     50221     50265     50266
     50223     50221     50265     50267     50223     50221     50265     50268
     50224     50227     50230     50231     50224     50227     50230     50232
     50224     50227     50230     50233     50225     50224     50227     50228
     50225     50224     50227     50229     50225     50224     50227     50230
     50226     50224     50227     50228     50226     50224     50227     50229
     50226     50224     50227     50230     50227     50230     50233     50234
     50227     50230     50233     50235     50227     50230     50233     50236
     50228     50227     50230     50231     50228     50227     50230     50232
     50228     50227     50230     50233     50229     50227     50230     50231
     50229     50227     50230     50232     50229     50227     50230     50233
     50230     50233     50236     50237     50230     50233     50236     50238
     50230     50233     50236     50239     50231     50230     50233     50234
     50231     50230     50233     50235     50231     50230     50233     50236
     50232     50230     50233     50234     50232     50230     50233     50235
     50232     50230     50233     50236     50233     50236     50239     50240
     50233     50236     50239     50241     50233     50236     50239     50242
     50234     50233     50236     50237     50234     50233     50236     50238
     50234     50233     50236     50239     50235     50233     50236     50237
     50235     50233     50236     50238     50235     50233     50236     50239
     50236     50239     50242     50243     50236     50239     50242     50244
     50237     50236     50239     50240     50237     50236     50239     50241
     50237     50236     50239     50242     50238     50236     50239     50240
     50238     50236     50239     50241     50238     50236     50239     50242
     50239     50242     50244     50245     50239     50242     50244     50246
     50240     50239     50242     50243     50240     50239     50242     50244
     50241     50239     50242     50243     50241     50239     50242     50244
     50242     50244     50246     50247     50242     50244     50246     50248
     50242     50244     50246     50249     50243     50242     50244     50245
     50243     50242     50244     50246     50244     50246     50249     50250
     50244     50246     50249     50251     50244     50246     50249     50252
     50245     50244     50246     50247     50245     50244     50246     50248
     50245     50244     50246     50249     50246     50249     50252     50253
     50246     50249     50252     50254     50246     50249     50252     50255
     50247     50246     50249     50250     50247     50246     50249     50251
     50247     50246     50249     50252     50248     50246     50249     50250
     50248     50246     50249     50251     50248     50246     50249     50252
     50249     50252     50255     50256     50249     50252     50255     50257
     50249     50252     50255     50258     50250     50249     50252     50253
     50250     50249     50252     50254     50250     50249     50252     50255
     50251     50249     50252     50253     50251     50249     50252     50254
     50251     50249     50252     50255     50252     50255     50258     50259
     50252     50255     50258     50260     50252     50255     50258     50261
     50253     50252     50255     50256     50253     50252     50255     50257
     50253     50252     50255     50258     50254     50252     50255     50256
     50254     50252     50255     50257     50254     50252     50255     50258
     50255     50258     50261     50262     50255     50258     50261     50263
     50255     50258     50261     50264     50256     50255     50258     50259
     50256     50255     50258     50260     50256     50255     50258     50261
     50257     50255     50258     50259     50257     50255     50258     50260
     50257     50255     50258     50261     50259     50258     50261     50262
     50259     50258     50261     50263     50259     50258     50261     50264
     50260     50258     50261     50262     50260     50258     50261     50263
     50260     50258     50261     50264     50265     50268     50271     50272
     50265     50268     50271     50273     50265     50268     50271     50274
     50266     50265     50268     50269     50266     50265     50268     50270
     50266     50265     50268     50271     50267     50265     50268     50269
     50267     50265     50268     50270     50267     50265     50268     50271
     50268     50271     50274     50275     50268     50271     50274     50276
     50268     50271     50274     50277     50269     50268     50271     50272
     50269     50268     50271     50273     50269     50268     50271     50274
     50270     50268     50271     50272     50270     50268     50271     50273
     50270     50268     50271     50274     50271     50274     50277     50278
     50271     50274     50277     50279     50271     50274     50277     50280
     50272     50271     50274     50275     50272     50271     50274     50276
     50272     50271     50274     50277     50273     50271     50274     50275
     50273     50271     50274     50276     50273     50271     50274     50277
     50274     50277     50280     50281     50274     50277     50280     50282
     50274     50277     50280     50283     50275     50274     50277     50278
     50275     50274     50277     50279     50275     50274     50277     50280
     50276     50274     50277     50278     50276     50274     50277     50279
     50276     50274     50277     50280     50277     50280     50283     50284
     50277     50280     50283     50285     50277     50280     50283     50286
     50278     50277     50280     50281     50278     50277     50280     50282
     50278     50277     50280     50283     50279     50277     50280     50281
     50279     50277     50280     50282     50279     50277     50280     50283
     50280     50283     50286     50287     50280     50283     50286     50288
     50280     50283     50286     50289     50281     50280     50283     50284
     50281     50280     50283     50285     50281     50280     50283     50286
     50282     50280     50283     50284     50282     50280     50283     50285
     50282     50280     50283     50286     50283     50286     50289     50290
     50283     50286     50289     50291     50283     50286     50289     50292
     50284     50283     50286     50287     50284     50283     50286     50288
     50284     50283     50286     50289     50285     50283     50286     50287
     50285     50283     50286     50288     50285     50283     50286     50289
     50286     50289     50292     50293     50286     50289     50292     50294
     50286     50289     50292     50295     50287     50286     50289     50290
     50287     50286     50289     50291     50287     50286     50289     50292
     50288     50286     50289     50290     50288     50286     50289     50291
     50288     50286     50289     50292     50289     50292     50295     50296
     50289     50292     50295     50297     50289     50292     50295     50298
     50290     50289     50292     50293     50290     50289     50292     50294
     50290     50289     50292     50295     50291     50289     50292     50293
     50291     50289     50292     50294     50291     50289     50292     50295
     50292     50295     50298     50299     50292     50295     50298     50300
     50292     50295     50298     50301     50293     50292     50295     50296
     50293     50292     50295     50297     50293     50292     50295     50298
     50294     50292     50295     50296     50294     50292     50295     50297
     50294     50292     50295     50298     50295     50298     50301     50302
     50295     50298     50301     50303     50295     50298     50301     50304
     50296     50295     50298     50299     50296     50295     50298     50300
     50296     50295     50298     50301     50297     50295     50298     50299
     50297     50295     50298     50300     50297     50295     50298     50301
     50298     50301     50304     50305     50298     50301     50304     50306
     50298     50301     50304     50307     50299     50298     50301     50302
     50299     50298     50301     50303     50299     50298     50301     50304
     50300     50298     50301     50302     50300     50298     50301     50303
     50300     50298     50301     50304     50302     50301     50304     50305
     50302     50301     50304     50306     50302     50301     50304     50307
     50303     50301     50304     50305     50303     50301     50304     50306
     50303     50301     50304     50307     50308     50312     50315     50316
     50308     50312     50315     50317     50308     50312     50315     50322
     50309     50308     50312     50313     50309     50308     50312     50314
     50309     50308     50312     50315     50310     50308     50312     50313
     50310     50308     50312     50314     50310     50308     50312     50315
     50311     50308     50312     50313     50311     50308     50312     50314
     50311     50308     50312     50315     50312     50315     50322     50318
     50313     50312     50315     50316     50313     50312     50315     50317
     50313     50312     50315     50322     50314     50312     50315     50316
     50314     50312     50315     50317     50314     50312     50315     50322
     50315     50322     50318     50319     50315     50322     50318     50320
     50315     50322     50318     50321     50316     50315     50322     50318
     50317     50315     50322     50318     50318     50321     50323     50324
     50318     50321     50323     50325     50318     50321     50323     50326
     50319     50318     50321     50323     50320     50318     50321     50323
     50321     50323     50326     50327     50321     50323     50326     50328
     50321     50323     50326     50334     50322     50318     50321     50323
     50323     50326     50328     50329     50323     50326     50334     50335
     50323     50326     50334     50336     50323     50326     50334     50337
     50324     50323     50326     50327     50324     50323     50326     50328
     50324     50323     50326     50334     50325     50323     50326     50327
     50325     50323     50326     50328     50325     50323     50326     50334
     50326     50328     50329     50330     50326     50328     50329     50331
     50326     50334     50337     50338     50327     50326     50328     50329
     50327     50326     50334     50335     50327     50326     50334     50336
     50327     50326     50334     50337     50328     50326     50334     50335
     50328     50326     50334     50336     50328     50326     50334     50337
     50328     50329     50331     50332     50328     50329     50331     50333
     50328     50329     50331     50343     50329     50328     50326     50334
     50329     50331     50343     50344     50329     50331     50343     50345
     50329     50331     50343     50346     50330     50329     50331     50332
     50330     50329     50331     50333     50330     50329     50331     50343
     50331     50343     50346     50347     50331     50343     50346     50348
     50331     50343     50346     50349     50332     50331     50343     50344
     50332     50331     50343     50345     50332     50331     50343     50346
     50333     50331     50343     50344     50333     50331     50343     50345
     50333     50331     50343     50346     50334     50337     50338     50339
     50334     50337     50338     50340     50335     50334     50337     50338
     50336     50334     50337     50338     50337     50338     50340     50341
     50337     50338     50340     50342     50337     50338     50340     50384
     50338     50340     50384     50385     50338     50340     50384     50386
     50338     50340     50384     50387     50339     50338     50340     50341
     50339     50338     50340     50342     50339     50338     50340     50384
     50340     50384     50387     50388     50340     50384     50387     50389
     50340     50384     50387     50390     50341     50340     50384     50385
     50341     50340     50384     50386     50341     50340     50384     50387
     50342     50340     50384     50385     50342     50340     50384     50386
     50342     50340     50384     50387     50343     50346     50349     50350
     50343     50346     50349     50351     50343     50346     50349     50352
     50344     50343     50346     50347     50344     50343     50346     50348
     50344     50343     50346     50349     50345     50343     50346     50347
     50345     50343     50346     50348     50345     50343     50346     50349
     50346     50349     50352     50353     50346     50349     50352     50354
     50346     50349     50352     50355     50347     50346     50349     50350
     50347     50346     50349     50351     50347     50346     50349     50352
     50348     50346     50349     50350     50348     50346     50349     50351
     50348     50346     50349     50352     50349     50352     50355     50356
     50349     50352     50355     50357     50349     50352     50355     50358
     50350     50349     50352     50353     50350     50349     50352     50354
     50350     50349     50352     50355     50351     50349     50352     50353
     50351     50349     50352     50354     50351     50349     50352     50355
     50352     50355     50358     50359     50352     50355     50358     50360
     50352     50355     50358     50361     50353     50352     50355     50356
     50353     50352     50355     50357     50353     50352     50355     50358
     50354     50352     50355     50356     50354     50352     50355     50357
     50354     50352     50355     50358     50355     50358     50361     50362
     50355     50358     50361     50363     50356     50355     50358     50359
     50356     50355     50358     50360     50356     50355     50358     50361
     50357     50355     50358     50359     50357     50355     50358     50360
     50357     50355     50358     50361     50358     50361     50363     50364
     50358     50361     50363     50365     50359     50358     50361     50362
     50359     50358     50361     50363     50360     50358     50361     50362
     50360     50358     50361     50363     50361     50363     50365     50366
     50361     50363     50365     50367     50361     50363     50365     50368
     50362     50361     50363     50364     50362     50361     50363     50365
     50363     50365     50368     50369     50363     50365     50368     50370
     50363     50365     50368     50371     50364     50363     50365     50366
     50364     50363     50365     50367     50364     50363     50365     50368
     50365     50368     50371     50372     50365     50368     50371     50373
     50365     50368     50371     50374     50366     50365     50368     50369
     50366     50365     50368     50370     50366     50365     50368     50371
     50367     50365     50368     50369     50367     50365     50368     50370
     50367     50365     50368     50371     50368     50371     50374     50375
     50368     50371     50374     50376     50368     50371     50374     50377
     50369     50368     50371     50372     50369     50368     50371     50373
     50369     50368     50371     50374     50370     50368     50371     50372
     50370     50368     50371     50373     50370     50368     50371     50374
     50371     50374     50377     50378     50371     50374     50377     50379
     50371     50374     50377     50380     50372     50371     50374     50375
     50372     50371     50374     50376     50372     50371     50374     50377
     50373     50371     50374     50375     50373     50371     50374     50376
     50373     50371     50374     50377     50374     50377     50380     50381
     50374     50377     50380     50382     50374     50377     50380     50383
     50375     50374     50377     50378     50375     50374     50377     50379
     50375     50374     50377     50380     50376     50374     50377     50378
     50376     50374     50377     50379     50376     50374     50377     50380
     50378     50377     50380     50381     50378     50377     50380     50382
     50378     50377     50380     50383     50379     50377     50380     50381
     50379     50377     50380     50382     50379     50377     50380     50383
     50384     50387     50390     50391     50384     50387     50390     50392
     50384     50387     50390     50393     50385     50384     50387     50388
     50385     50384     50387     50389     50385     50384     50387     50390
     50386     50384     50387     50388     50386     50384     50387     50389
     50386     50384     50387     50390     50387     50390     50393     50394
     50387     50390     50393     50395     50387     50390     50393     50396
     50388     50387     50390     50391     50388     50387     50390     50392
     50388     50387     50390     50393     50389     50387     50390     50391
     50389     50387     50390     50392     50389     50387     50390     50393
     50390     50393     50396     50397     50390     50393     50396     50398
     50390     50393     50396     50399     50391     50390     50393     50394
     50391     50390     50393     50395     50391     50390     50393     50396
     50392     50390     50393     50394     50392     50390     50393     50395
     50392     50390     50393     50396     50393     50396     50399     50400
     50393     50396     50399     50401     50393     50396     50399     50402
     50394     50393     50396     50397     50394     50393     50396     50398
     50394     50393     50396     50399     50395     50393     50396     50397
     50395     50393     50396     50398     50395     50393     50396     50399
     50396     50399     50402     50403     50396     50399     50402     50404
     50396     50399     50402     50405     50397     50396     50399     50400
     50397     50396     50399     50401     50397     50396     50399     50402
     50398     50396     50399     50400     50398     50396     50399     50401
     50398     50396     50399     50402     50399     50402     50405     50406
     50399     50402     50405     50407     50399     50402     50405     50408
     50400     50399     50402     50403     50400     50399     50402     50404
     50400     50399     50402     50405     50401     50399     50402     50403
     50401     50399     50402     50404     50401     50399     50402     50405
     50402     50405     50408     50409     50402     50405     50408     50410
     50402     50405     50408     50411     50403     50402     50405     50406
     50403     50402     50405     50407     50403     50402     50405     50408
     50404     50402     50405     50406     50404     50402     50405     50407
     50404     50402     50405     50408     50405     50408     50411     50412
     50405     50408     50411     50413     50405     50408     50411     50414
     50406     50405     50408     50409     50406     50405     50408     50410
     50406     50405     50408     50411     50407     50405     50408     50409
     50407     50405     50408     50410     50407     50405     50408     50411
     50408     50411     50414     50415     50408     50411     50414     50416
     50408     50411     50414     50417     50409     50408     50411     50412
     50409     50408     50411     50413     50409     50408     50411     50414
     50410     50408     50411     50412     50410     50408     50411     50413
     50410     50408     50411     50414     50411     50414     50417     50418
     50411     50414     50417     50419     50411     50414     50417     50420
     50412     50411     50414     50415     50412     50411     50414     50416
     50412     50411     50414     50417     50413     50411     50414     50415
     50413     50411     50414     50416     50413     50411     50414     50417
     50414     50417     50420     50421     50414     50417     50420     50422
     50414     50417     50420     50423     50415     50414     50417     50418
     50415     50414     50417     50419     50415     50414     50417     50420
     50416     50414     50417     50418     50416     50414     50417     50419
     50416     50414     50417     50420     50417     50420     50423     50424
     50417     50420     50423     50425     50417     50420     50423     50426
     50418     50417     50420     50421     50418     50417     50420     50422
     50418     50417     50420     50423     50419     50417     50420     50421
     50419     50417     50420     50422     50419     50417     50420     50423
     50421     50420     50423     50424     50421     50420     50423     50425
     50421     50420     50423     50426     50422     50420     50423     50424
     50422     50420     50423     50425     50422     50420     50423     50426
     50427     50431     50434     50435     50427     50431     50434     50436
     50427     50431     50434     50441     50428     50427     50431     50432
     50428     50427     50431     50433     50428     50427     50431     50434
     50429     50427     50431     50432     50429     50427     50431     50433
     50429     50427     50431     50434     50430     50427     50431     50432
     50430     50427     50431     50433     50430     50427     50431     50434
     50431     50434     50441     50437     50432     50431     50434     50435
     50432     50431     50434     50436     50432     50431     50434     50441
     50433     50431     50434     50435     50433     50431     50434     50436
     50433     50431     50434     50441     50434     50441     50437     50438
     50434     50441     50437     50439     50434     50441     50437     50440
     50435     50434     50441     50437     50436     50434     50441     50437
     50437     50440     50442     50443     50437     50440     50442     50444
     50437     50440     50442     50445     50438     50437     50440     50442
     50439     50437     50440     50442     50440     50442     50445     50446
     50440     50442     50445     50447     50440     50442     50445     50453
     50441     50437     50440     50442     50442     50445     50447     50448
     50442     50445     50453     50454     50442     50445     50453     50455
     50442     50445     50453     50456     50443     50442     50445     50446
     50443     50442     50445     50447     50443     50442     50445     50453
     50444     50442     50445     50446     50444     50442     50445     50447
     50444     50442     50445     50453     50445     50447     50448     50449
     50445     50447     50448     50450     50445     50453     50456     50457
     50446     50445     50447     50448     50446     50445     50453     50454
     50446     50445     50453     50455     50446     50445     50453     50456
     50447     50445     50453     50454     50447     50445     50453     50455
     50447     50445     50453     50456     50447     50448     50450     50451
     50447     50448     50450     50452     50447     50448     50450     50462
     50448     50447     50445     50453     50448     50450     50462     50463
     50448     50450     50462     50464     50448     50450     50462     50465
     50449     50448     50450     50451     50449     50448     50450     50452
     50449     50448     50450     50462     50450     50462     50465     50466
     50450     50462     50465     50467     50450     50462     50465     50468
     50451     50450     50462     50463     50451     50450     50462     50464
     50451     50450     50462     50465     50452     50450     50462     50463
     50452     50450     50462     50464     50452     50450     50462     50465
     50453     50456     50457     50458     50453     50456     50457     50459
     50454     50453     50456     50457     50455     50453     50456     50457
     50456     50457     50459     50460     50456     50457     50459     50461
     50456     50457     50459     50503     50457     50459     50503     50504
     50457     50459     50503     50505     50457     50459     50503     50506
     50458     50457     50459     50460     50458     50457     50459     50461
     50458     50457     50459     50503     50459     50503     50506     50507
     50459     50503     50506     50508     50459     50503     50506     50509
     50460     50459     50503     50504     50460     50459     50503     50505
     50460     50459     50503     50506     50461     50459     50503     50504
     50461     50459     50503     50505     50461     50459     50503     50506
     50462     50465     50468     50469     50462     50465     50468     50470
     50462     50465     50468     50471     50463     50462     50465     50466
     50463     50462     50465     50467     50463     50462     50465     50468
     50464     50462     50465     50466     50464     50462     50465     50467
     50464     50462     50465     50468     50465     50468     50471     50472
     50465     50468     50471     50473     50465     50468     50471     50474
     50466     50465     50468     50469     50466     50465     50468     50470
     50466     50465     50468     50471     50467     50465     50468     50469
     50467     50465     50468     50470     50467     50465     50468     50471
     50468     50471     50474     50475     50468     50471     50474     50476
     50468     50471     50474     50477     50469     50468     50471     50472
     50469     50468     50471     50473     50469     50468     50471     50474
     50470     50468     50471     50472     50470     50468     50471     50473
     50470     50468     50471     50474     50471     50474     50477     50478
     50471     50474     50477     50479     50471     50474     50477     50480
     50472     50471     50474     50475     50472     50471     50474     50476
     50472     50471     50474     50477     50473     50471     50474     50475
     50473     50471     50474     50476     50473     50471     50474     50477
     50474     50477     50480     50481     50474     50477     50480     50482
     50475     50474     50477     50478     50475     50474     50477     50479
     50475     50474     50477     50480     50476     50474     50477     50478
     50476     50474     50477     50479     50476     50474     50477     50480
     50477     50480     50482     50483     50477     50480     50482     50484
     50478     50477     50480     50481     50478     50477     50480     50482
     50479     50477     50480     50481     50479     50477     50480     50482
     50480     50482     50484     50485     50480     50482     50484     50486
     50480     50482     50484     50487     50481     50480     50482     50483
     50481     50480     50482     50484     50482     50484     50487     50488
     50482     50484     50487     50489     50482     50484     50487     50490
     50483     50482     50484     50485     50483     50482     50484     50486
     50483     50482     50484     50487     50484     50487     50490     50491
     50484     50487     50490     50492     50484     50487     50490     50493
     50485     50484     50487     50488     50485     50484     50487     50489
     50485     50484     50487     50490     50486     50484     50487     50488
     50486     50484     50487     50489     50486     50484     50487     50490
     50487     50490     50493     50494     50487     50490     50493     50495
     50487     50490     50493     50496     50488     50487     50490     50491
     50488     50487     50490     50492     50488     50487     50490     50493
     50489     50487     50490     50491     50489     50487     50490     50492
     50489     50487     50490     50493     50490     50493     50496     50497
     50490     50493     50496     50498     50490     50493     50496     50499
     50491     50490     50493     50494     50491     50490     50493     50495
     50491     50490     50493     50496     50492     50490     50493     50494
     50492     50490     50493     50495     50492     50490     50493     50496
     50493     50496     50499     50500     50493     50496     50499     50501
     50493     50496     50499     50502     50494     50493     50496     50497
     50494     50493     50496     50498     50494     50493     50496     50499
     50495     50493     50496     50497     50495     50493     50496     50498
     50495     50493     50496     50499     50497     50496     50499     50500
     50497     50496     50499     50501     50497     50496     50499     50502
     50498     50496     50499     50500     50498     50496     50499     50501
     50498     50496     50499     50502     50503     50506     50509     50510
     50503     50506     50509     50511     50503     50506     50509     50512
     50504     50503     50506     50507     50504     50503     50506     50508
     50504     50503     50506     50509     50505     50503     50506     50507
     50505     50503     50506     50508     50505     50503     50506     50509
     50506     50509     50512     50513     50506     50509     50512     50514
     50506     50509     50512     50515     50507     50506     50509     50510
     50507     50506     50509     50511     50507     50506     50509     50512
     50508     50506     50509     50510     50508     50506     50509     50511
     50508     50506     50509     50512     50509     50512     50515     50516
     50509     50512     50515     50517     50509     50512     50515     50518
     50510     50509     50512     50513     50510     50509     50512     50514
     50510     50509     50512     50515     50511     50509     50512     50513
     50511     50509     50512     50514     50511     50509     50512     50515
     50512     50515     50518     50519     50512     50515     50518     50520
     50512     50515     50518     50521     50513     50512     50515     50516
     50513     50512     50515     50517     50513     50512     50515     50518
     50514     50512     50515     50516     50514     50512     50515     50517
     50514     50512     50515     50518     50515     50518     50521     50522
     50515     50518     50521     50523     50515     50518     50521     50524
     50516     50515     50518     50519     50516     50515     50518     50520
     50516     50515     50518     50521     50517     50515     50518     50519
     50517     50515     50518     50520     50517     50515     50518     50521
     50518     50521     50524     50525     50518     50521     50524     50526
     50518     50521     50524     50527     50519     50518     50521     50522
     50519     50518     50521     50523     50519     50518     50521     50524
     50520     50518     50521     50522     50520     50518     50521     50523
     50520     50518     50521     50524     50521     50524     50527     50528
     50521     50524     50527     50529     50521     50524     50527     50530
     50522     50521     50524     50525     50522     50521     50524     50526
     50522     50521     50524     50527     50523     50521     50524     50525
     50523     50521     50524     50526     50523     50521     50524     50527
     50524     50527     50530     50531     50524     50527     50530     50532
     50524     50527     50530     50533     50525     50524     50527     50528
     50525     50524     50527     50529     50525     50524     50527     50530
     50526     50524     50527     50528     50526     50524     50527     50529
     50526     50524     50527     50530     50527     50530     50533     50534
     50527     50530     50533     50535     50527     50530     50533     50536
     50528     50527     50530     50531     50528     50527     50530     50532
     50528     50527     50530     50533     50529     50527     50530     50531
     50529     50527     50530     50532     50529     50527     50530     50533
     50530     50533     50536     50537     50530     50533     50536     50538
     50530     50533     50536     50539     50531     50530     50533     50534
     50531     50530     50533     50535     50531     50530     50533     50536
     50532     50530     50533     50534     50532     50530     50533     50535
     50532     50530     50533     50536     50533     50536     50539     50540
     50533     50536     50539     50541     50533     50536     50539     50542
     50534     50533     50536     50537     50534     50533     50536     50538
     50534     50533     50536     50539     50535     50533     50536     50537
     50535     50533     50536     50538     50535     50533     50536     50539
     50536     50539     50542     50543     50536     50539     50542     50544
     50536     50539     50542     50545     50537     50536     50539     50540
     50537     50536     50539     50541     50537     50536     50539     50542
     50538     50536     50539     50540     50538     50536     50539     50541
     50538     50536     50539     50542     50540     50539     50542     50543
     50540     50539     50542     50544     50540     50539     50542     50545
     50541     50539     50542     50543     50541     50539     50542     50544
     50541     50539     50542     50545     50546     50550     50553     50554
     50546     50550     50553     50555     50546     50550     50553     50560
     50547     50546     50550     50551     50547     50546     50550     50552
     50547     50546     50550     50553     50548     50546     50550     50551
     50548     50546     50550     50552     50548     50546     50550     50553
     50549     50546     50550     50551     50549     50546     50550     50552
     50549     50546     50550     50553     50550     50553     50560     50556
     50551     50550     50553     50554     50551     50550     50553     50555
     50551     50550     50553     50560     50552     50550     50553     50554
     50552     50550     50553     50555     50552     50550     50553     50560
     50553     50560     50556     50557     50553     50560     50556     50558
     50553     50560     50556     50559     50554     50553     50560     50556
     50555     50553     50560     50556     50556     50559     50561     50562
     50556     50559     50561     50563     50556     50559     50561     50564
     50557     50556     50559     50561     50558     50556     50559     50561
     50559     50561     50564     50565     50559     50561     50564     50566
     50559     50561     50564     50572     50560     50556     50559     50561
     50561     50564     50566     50567     50561     50564     50572     50573
     50561     50564     50572     50574     50561     50564     50572     50575
     50562     50561     50564     50565     50562     50561     50564     50566
     50562     50561     50564     50572     50563     50561     50564     50565
     50563     50561     50564     50566     50563     50561     50564     50572
     50564     50566     50567     50568     50564     50566     50567     50569
     50564     50572     50575     50576     50565     50564     50566     50567
     50565     50564     50572     50573     50565     50564     50572     50574
     50565     50564     50572     50575     50566     50564     50572     50573
     50566     50564     50572     50574     50566     50564     50572     50575
     50566     50567     50569     50570     50566     50567     50569     50571
     50566     50567     50569     50581     50567     50566     50564     50572
     50567     50569     50581     50582     50567     50569     50581     50583
     50567     50569     50581     50584     50568     50567     50569     50570
     50568     50567     50569     50571     50568     50567     50569     50581
     50569     50581     50584     50585     50569     50581     50584     50586
     50569     50581     50584     50587     50570     50569     50581     50582
     50570     50569     50581     50583     50570     50569     50581     50584
     50571     50569     50581     50582     50571     50569     50581     50583
     50571     50569     50581     50584     50572     50575     50576     50577
     50572     50575     50576     50578     50573     50572     50575     50576
     50574     50572     50575     50576     50575     50576     50578     50579
     50575     50576     50578     50580     50575     50576     50578     50622
     50576     50578     50622     50623     50576     50578     50622     50624
     50576     50578     50622     50625     50577     50576     50578     50579
     50577     50576     50578     50580     50577     50576     50578     50622
     50578     50622     50625     50626     50578     50622     50625     50627
     50578     50622     50625     50628     50579     50578     50622     50623
     50579     50578     50622     50624     50579     50578     50622     50625
     50580     50578     50622     50623     50580     50578     50622     50624
     50580     50578     50622     50625     50581     50584     50587     50588
     50581     50584     50587     50589     50581     50584     50587     50590
     50582     50581     50584     50585     50582     50581     50584     50586
     50582     50581     50584     50587     50583     50581     50584     50585
     50583     50581     50584     50586     50583     50581     50584     50587
     50584     50587     50590     50591     50584     50587     50590     50592
     50584     50587     50590     50593     50585     50584     50587     50588
     50585     50584     50587     50589     50585     50584     50587     50590
     50586     50584     50587     50588     50586     50584     50587     50589
     50586     50584     50587     50590     50587     50590     50593     50594
     50587     50590     50593     50595     50587     50590     50593     50596
     50588     50587     50590     50591     50588     50587     50590     50592
     50588     50587     50590     50593     50589     50587     50590     50591
     50589     50587     50590     50592     50589     50587     50590     50593
     50590     50593     50596     50597     50590     50593     50596     50598
     50590     50593     50596     50599     50591     50590     50593     50594
     50591     50590     50593     50595     50591     50590     50593     50596
     50592     50590     50593     50594     50592     50590     50593     50595
     50592     50590     50593     50596     50593     50596     50599     50600
     50593     50596     50599     50601     50594     50593     50596     50597
     50594     50593     50596     50598     50594     50593     50596     50599
     50595     50593     50596     50597     50595     50593     50596     50598
     50595     50593     50596     50599     50596     50599     50601     50602
     50596     50599     50601     50603     50597     50596     50599     50600
     50597     50596     50599     50601     50598     50596     50599     50600
     50598     50596     50599     50601     50599     50601     50603     50604
     50599     50601     50603     50605     50599     50601     50603     50606
     50600     50599     50601     50602     50600     50599     50601     50603
     50601     50603     50606     50607     50601     50603     50606     50608
     50601     50603     50606     50609     50602     50601     50603     50604
     50602     50601     50603     50605     50602     50601     50603     50606
     50603     50606     50609     50610     50603     50606     50609     50611
     50603     50606     50609     50612     50604     50603     50606     50607
     50604     50603     50606     50608     50604     50603     50606     50609
     50605     50603     50606     50607     50605     50603     50606     50608
     50605     50603     50606     50609     50606     50609     50612     50613
     50606     50609     50612     50614     50606     50609     50612     50615
     50607     50606     50609     50610     50607     50606     50609     50611
     50607     50606     50609     50612     50608     50606     50609     50610
     50608     50606     50609     50611     50608     50606     50609     50612
     50609     50612     50615     50616     50609     50612     50615     50617
     50609     50612     50615     50618     50610     50609     50612     50613
     50610     50609     50612     50614     50610     50609     50612     50615
     50611     50609     50612     50613     50611     50609     50612     50614
     50611     50609     50612     50615     50612     50615     50618     50619
     50612     50615     50618     50620     50612     50615     50618     50621
     50613     50612     50615     50616     50613     50612     50615     50617
     50613     50612     50615     50618     50614     50612     50615     50616
     50614     50612     50615     50617     50614     50612     50615     50618
     50616     50615     50618     50619     50616     50615     50618     50620
     50616     50615     50618     50621     50617     50615     50618     50619
     50617     50615     50618     50620     50617     50615     50618     50621
     50622     50625     50628     50629     50622     50625     50628     50630
     50622     50625     50628     50631     50623     50622     50625     50626
     50623     50622     50625     50627     50623     50622     50625     50628
     50624     50622     50625     50626     50624     50622     50625     50627
     50624     50622     50625     50628     50625     50628     50631     50632
     50625     50628     50631     50633     50625     50628     50631     50634
     50626     50625     50628     50629     50626     50625     50628     50630
     50626     50625     50628     50631     50627     50625     50628     50629
     50627     50625     50628     50630     50627     50625     50628     50631
     50628     50631     50634     50635     50628     50631     50634     50636
     50628     50631     50634     50637     50629     50628     50631     50632
     50629     50628     50631     50633     50629     50628     50631     50634
     50630     50628     50631     50632     50630     50628     50631     50633
     50630     50628     50631     50634     50631     50634     50637     50638
     50631     50634     50637     50639     50631     50634     50637     50640
     50632     50631     50634     50635     50632     50631     50634     50636
     50632     50631     50634     50637     50633     50631     50634     50635
     50633     50631     50634     50636     50633     50631     50634     50637
     50634     50637     50640     50641     50634     50637     50640     50642
     50634     50637     50640     50643     50635     50634     50637     50638
     50635     50634     50637     50639     50635     50634     50637     50640
     50636     50634     50637     50638     50636     50634     50637     50639
     50636     50634     50637     50640     50637     50640     50643     50644
     50637     50640     50643     50645     50637     50640     50643     50646
     50638     50637     50640     50641     50638     50637     50640     50642
     50638     50637     50640     50643     50639     50637     50640     50641
     50639     50637     50640     50642     50639     50637     50640     50643
     50640     50643     50646     50647     50640     50643     50646     50648
     50640     50643     50646     50649     50641     50640     50643     50644
     50641     50640     50643     50645     50641     50640     50643     50646
     50642     50640     50643     50644     50642     50640     50643     50645
     50642     50640     50643     50646     50643     50646     50649     50650
     50643     50646     50649     50651     50643     50646     50649     50652
     50644     50643     50646     50647     50644     50643     50646     50648
     50644     50643     50646     50649     50645     50643     50646     50647
     50645     50643     50646     50648     50645     50643     50646     50649
     50646     50649     50652     50653     50646     50649     50652     50654
     50646     50649     50652     50655     50647     50646     50649     50650
     50647     50646     50649     50651     50647     50646     50649     50652
     50648     50646     50649     50650     50648     50646     50649     50651
     50648     50646     50649     50652     50649     50652     50655     50656
     50649     50652     50655     50657     50649     50652     50655     50658
     50650     50649     50652     50653     50650     50649     50652     50654
     50650     50649     50652     50655     50651     50649     50652     50653
     50651     50649     50652     50654     50651     50649     50652     50655
     50652     50655     50658     50659     50652     50655     50658     50660
     50652     50655     50658     50661     50653     50652     50655     50656
     50653     50652     50655     50657     50653     50652     50655     50658
     50654     50652     50655     50656     50654     50652     50655     50657
     50654     50652     50655     50658     50655     50658     50661     50662
     50655     50658     50661     50663     50655     50658     50661     50664
     50656     50655     50658     50659     50656     50655     50658     50660
     50656     50655     50658     50661     50657     50655     50658     50659
     50657     50655     50658     50660     50657     50655     50658     50661
     50659     50658     50661     50662     50659     50658     50661     50663
     50659     50658     50661     50664     50660     50658     50661     50662
     50660     50658     50661     50663     50660     50658     50661     50664
     50665     50669     50672     50673     50665     50669     50672     50674
     50665     50669     50672     50679     50666     50665     50669     50670
     50666     50665     50669     50671     50666     50665     50669     50672
     50667     50665     50669     50670     50667     50665     50669     50671
     50667     50665     50669     50672     50668     50665     50669     50670
     50668     50665     50669     50671     50668     50665     50669     50672
     50669     50672     50679     50675     50670     50669     50672     50673
     50670     50669     50672     50674     50670     50669     50672     50679
     50671     50669     50672     50673     50671     50669     50672     50674
     50671     50669     50672     50679     50672     50679     50675     50676
     50672     50679     50675     50677     50672     50679     50675     50678
     50673     50672     50679     50675     50674     50672     50679     50675
     50675     50678     50680     50681     50675     50678     50680     50682
     50675     50678     50680     50683     50676     50675     50678     50680
     50677     50675     50678     50680     50678     50680     50683     50684
     50678     50680     50683     50685     50678     50680     50683     50691
     50679     50675     50678     50680     50680     50683     50685     50686
     50680     50683     50691     50692     50680     50683     50691     50693
     50680     50683     50691     50694     50681     50680     50683     50684
     50681     50680     50683     50685     50681     50680     50683     50691
     50682     50680     50683     50684     50682     50680     50683     50685
     50682     50680     50683     50691     50683     50685     50686     50687
     50683     50685     50686     50688     50683     50691     50694     50695
     50684     50683     50685     50686     50684     50683     50691     50692
     50684     50683     50691     50693     50684     50683     50691     50694
     50685     50683     50691     50692     50685     50683     50691     50693
     50685     50683     50691     50694     50685     50686     50688     50689
     50685     50686     50688     50690     50685     50686     50688     50700
     50686     50685     50683     50691     50686     50688     50700     50701
     50686     50688     50700     50702     50686     50688     50700     50703
     50687     50686     50688     50689     50687     50686     50688     50690
     50687     50686     50688     50700     50688     50700     50703     50704
     50688     50700     50703     50705     50688     50700     50703     50706
     50689     50688     50700     50701     50689     50688     50700     50702
     50689     50688     50700     50703     50690     50688     50700     50701
     50690     50688     50700     50702     50690     50688     50700     50703
     50691     50694     50695     50696     50691     50694     50695     50697
     50692     50691     50694     50695     50693     50691     50694     50695
     50694     50695     50697     50698     50694     50695     50697     50699
     50694     50695     50697     50741     50695     50697     50741     50742
     50695     50697     50741     50743     50695     50697     50741     50744
     50696     50695     50697     50698     50696     50695     50697     50699
     50696     50695     50697     50741     50697     50741     50744     50745
     50697     50741     50744     50746     50697     50741     50744     50747
     50698     50697     50741     50742     50698     50697     50741     50743
     50698     50697     50741     50744     50699     50697     50741     50742
     50699     50697     50741     50743     50699     50697     50741     50744
     50700     50703     50706     50707     50700     50703     50706     50708
     50700     50703     50706     50709     50701     50700     50703     50704
     50701     50700     50703     50705     50701     50700     50703     50706
     50702     50700     50703     50704     50702     50700     50703     50705
     50702     50700     50703     50706     50703     50706     50709     50710
     50703     50706     50709     50711     50703     50706     50709     50712
     50704     50703     50706     50707     50704     50703     50706     50708
     50704     50703     50706     50709     50705     50703     50706     50707
     50705     50703     50706     50708     50705     50703     50706     50709
     50706     50709     50712     50713     50706     50709     50712     50714
     50706     50709     50712     50715     50707     50706     50709     50710
     50707     50706     50709     50711     50707     50706     50709     50712
     50708     50706     50709     50710     50708     50706     50709     50711
     50708     50706     50709     50712     50709     50712     50715     50716
     50709     50712     50715     50717     50709     50712     50715     50718
     50710     50709     50712     50713     50710     50709     50712     50714
     50710     50709     50712     50715     50711     50709     50712     50713
     50711     50709     50712     50714     50711     50709     50712     50715
     50712     50715     50718     50719     50712     50715     50718     50720
     50713     50712     50715     50716     50713     50712     50715     50717
     50713     50712     50715     50718     50714     50712     50715     50716
     50714     50712     50715     50717     50714     50712     50715     50718
     50715     50718     50720     50721     50715     50718     50720     50722
     50716     50715     50718     50719     50716     50715     50718     50720
     50717     50715     50718     50719     50717     50715     50718     50720
     50718     50720     50722     50723     50718     50720     50722     50724
     50718     50720     50722     50725     50719     50718     50720     50721
     50719     50718     50720     50722     50720     50722     50725     50726
     50720     50722     50725     50727     50720     50722     50725     50728
     50721     50720     50722     50723     50721     50720     50722     50724
     50721     50720     50722     50725     50722     50725     50728     50729
     50722     50725     50728     50730     50722     50725     50728     50731
     50723     50722     50725     50726     50723     50722     50725     50727
     50723     50722     50725     50728     50724     50722     50725     50726
     50724     50722     50725     50727     50724     50722     50725     50728
     50725     50728     50731     50732     50725     50728     50731     50733
     50725     50728     50731     50734     50726     50725     50728     50729
     50726     50725     50728     50730     50726     50725     50728     50731
     50727     50725     50728     50729     50727     50725     50728     50730
     50727     50725     50728     50731     50728     50731     50734     50735
     50728     50731     50734     50736     50728     50731     50734     50737
     50729     50728     50731     50732     50729     50728     50731     50733
     50729     50728     50731     50734     50730     50728     50731     50732
     50730     50728     50731     50733     50730     50728     50731     50734
     50731     50734     50737     50738     50731     50734     50737     50739
     50731     50734     50737     50740     50732     50731     50734     50735
     50732     50731     50734     50736     50732     50731     50734     50737
     50733     50731     50734     50735     50733     50731     50734     50736
     50733     50731     50734     50737     50735     50734     50737     50738
     50735     50734     50737     50739     50735     50734     50737     50740
     50736     50734     50737     50738     50736     50734     50737     50739
     50736     50734     50737     50740     50741     50744     50747     50748
     50741     50744     50747     50749     50741     50744     50747     50750
     50742     50741     50744     50745     50742     50741     50744     50746
     50742     50741     50744     50747     50743     50741     50744     50745
     50743     50741     50744     50746     50743     50741     50744     50747
     50744     50747     50750     50751     50744     50747     50750     50752
     50744     50747     50750     50753     50745     50744     50747     50748
     50745     50744     50747     50749     50745     50744     50747     50750
     50746     50744     50747     50748     50746     50744     50747     50749
     50746     50744     50747     50750     50747     50750     50753     50754
     50747     50750     50753     50755     50747     50750     50753     50756
     50748     50747     50750     50751     50748     50747     50750     50752
     50748     50747     50750     50753     50749     50747     50750     50751
     50749     50747     50750     50752     50749     50747     50750     50753
     50750     50753     50756     50757     50750     50753     50756     50758
     50750     50753     50756     50759     50751     50750     50753     50754
     50751     50750     50753     50755     50751     50750     50753     50756
     50752     50750     50753     50754     50752     50750     50753     50755
     50752     50750     50753     50756     50753     50756     50759     50760
     50753     50756     50759     50761     50753     50756     50759     50762
     50754     50753     50756     50757     50754     50753     50756     50758
     50754     50753     50756     50759     50755     50753     50756     50757
     50755     50753     50756     50758     50755     50753     50756     50759
     50756     50759     50762     50763     50756     50759     50762     50764
     50756     50759     50762     50765     50757     50756     50759     50760
     50757     50756     50759     50761     50757     50756     50759     50762
     50758     50756     50759     50760     50758     50756     50759     50761
     50758     50756     50759     50762     50759     50762     50765     50766
     50759     50762     50765     50767     50759     50762     50765     50768
     50760     50759     50762     50763     50760     50759     50762     50764
     50760     50759     50762     50765     50761     50759     50762     50763
     50761     50759     50762     50764     50761     50759     50762     50765
     50762     50765     50768     50769     50762     50765     50768     50770
     50762     50765     50768     50771     50763     50762     50765     50766
     50763     50762     50765     50767     50763     50762     50765     50768
     50764     50762     50765     50766     50764     50762     50765     50767
     50764     50762     50765     50768     50765     50768     50771     50772
     50765     50768     50771     50773     50765     50768     50771     50774
     50766     50765     50768     50769     50766     50765     50768     50770
     50766     50765     50768     50771     50767     50765     50768     50769
     50767     50765     50768     50770     50767     50765     50768     50771
     50768     50771     50774     50775     50768     50771     50774     50776
     50768     50771     50774     50777     50769     50768     50771     50772
     50769     50768     50771     50773     50769     50768     50771     50774
     50770     50768     50771     50772     50770     50768     50771     50773
     50770     50768     50771     50774     50771     50774     50777     50778
     50771     50774     50777     50779     50771     50774     50777     50780
     50772     50771     50774     50775     50772     50771     50774     50776
     50772     50771     50774     50777     50773     50771     50774     50775
     50773     50771     50774     50776     50773     50771     50774     50777
     50774     50777     50780     50781     50774     50777     50780     50782
     50774     50777     50780     50783     50775     50774     50777     50778
     50775     50774     50777     50779     50775     50774     50777     50780
     50776     50774     50777     50778     50776     50774     50777     50779
     50776     50774     50777     50780     50778     50777     50780     50781
     50778     50777     50780     50782     50778     50777     50780     50783
     50779     50777     50780     50781     50779     50777     50780     50782
     50779     50777     50780     50783     50784     50788     50791     50792
     50784     50788     50791     50793     50784     50788     50791     50798
     50785     50784     50788     50789     50785     50784     50788     50790
     50785     50784     50788     50791     50786     50784     50788     50789
     50786     50784     50788     50790     50786     50784     50788     50791
     50787     50784     50788     50789     50787     50784     50788     50790
     50787     50784     50788     50791     50788     50791     50798     50794
     50789     50788     50791     50792     50789     50788     50791     50793
     50789     50788     50791     50798     50790     50788     50791     50792
     50790     50788     50791     50793     50790     50788     50791     50798
     50791     50798     50794     50795     50791     50798     50794     50796
     50791     50798     50794     50797     50792     50791     50798     50794
     50793     50791     50798     50794     50794     50797     50799     50800
     50794     50797     50799     50801     50794     50797     50799     50802
     50795     50794     50797     50799     50796     50794     50797     50799
     50797     50799     50802     50803     50797     50799     50802     50804
     50797     50799     50802     50810     50798     50794     50797     50799
     50799     50802     50804     50805     50799     50802     50810     50811
     50799     50802     50810     50812     50799     50802     50810     50813
     50800     50799     50802     50803     50800     50799     50802     50804
     50800     50799     50802     50810     50801     50799     50802     50803
     50801     50799     50802     50804     50801     50799     50802     50810
     50802     50804     50805     50806     50802     50804     50805     50807
     50802     50810     50813     50814     50803     50802     50804     50805
     50803     50802     50810     50811     50803     50802     50810     50812
     50803     50802     50810     50813     50804     50802     50810     50811
     50804     50802     50810     50812     50804     50802     50810     50813
     50804     50805     50807     50808     50804     50805     50807     50809
     50804     50805     50807     50819     50805     50804     50802     50810
     50805     50807     50819     50820     50805     50807     50819     50821
     50805     50807     50819     50822     50806     50805     50807     50808
     50806     50805     50807     50809     50806     50805     50807     50819
     50807     50819     50822     50823     50807     50819     50822     50824
     50807     50819     50822     50825     50808     50807     50819     50820
     50808     50807     50819     50821     50808     50807     50819     50822
     50809     50807     50819     50820     50809     50807     50819     50821
     50809     50807     50819     50822     50810     50813     50814     50815
     50810     50813     50814     50816     50811     50810     50813     50814
     50812     50810     50813     50814     50813     50814     50816     50817
     50813     50814     50816     50818     50813     50814     50816     50860
     50814     50816     50860     50861     50814     50816     50860     50862
     50814     50816     50860     50863     50815     50814     50816     50817
     50815     50814     50816     50818     50815     50814     50816     50860
     50816     50860     50863     50864     50816     50860     50863     50865
     50816     50860     50863     50866     50817     50816     50860     50861
     50817     50816     50860     50862     50817     50816     50860     50863
     50818     50816     50860     50861     50818     50816     50860     50862
     50818     50816     50860     50863     50819     50822     50825     50826
     50819     50822     50825     50827     50819     50822     50825     50828
     50820     50819     50822     50823     50820     50819     50822     50824
     50820     50819     50822     50825     50821     50819     50822     50823
     50821     50819     50822     50824     50821     50819     50822     50825
     50822     50825     50828     50829     50822     50825     50828     50830
     50822     50825     50828     50831     50823     50822     50825     50826
     50823     50822     50825     50827     50823     50822     50825     50828
     50824     50822     50825     50826     50824     50822     50825     50827
     50824     50822     50825     50828     50825     50828     50831     50832
     50825     50828     50831     50833     50825     50828     50831     50834
     50826     50825     50828     50829     50826     50825     50828     50830
     50826     50825     50828     50831     50827     50825     50828     50829
     50827     50825     50828     50830     50827     50825     50828     50831
     50828     50831     50834     50835     50828     50831     50834     50836
     50828     50831     50834     50837     50829     50828     50831     50832
     50829     50828     50831     50833     50829     50828     50831     50834
     50830     50828     50831     50832     50830     50828     50831     50833
     50830     50828     50831     50834     50831     50834     50837     50838
     50831     50834     50837     50839     50832     50831     50834     50835
     50832     50831     50834     50836     50832     50831     50834     50837
     50833     50831     50834     50835     50833     50831     50834     50836
     50833     50831     50834     50837     50834     50837     50839     50840
     50834     50837     50839     50841     50835     50834     50837     50838
     50835     50834     50837     50839     50836     50834     50837     50838
     50836     50834     50837     50839     50837     50839     50841     50842
     50837     50839     50841     50843     50837     50839     50841     50844
     50838     50837     50839     50840     50838     50837     50839     50841
     50839     50841     50844     50845     50839     50841     50844     50846
     50839     50841     50844     50847     50840     50839     50841     50842
     50840     50839     50841     50843     50840     50839     50841     50844
     50841     50844     50847     50848     50841     50844     50847     50849
     50841     50844     50847     50850     50842     50841     50844     50845
     50842     50841     50844     50846     50842     50841     50844     50847
     50843     50841     50844     50845     50843     50841     50844     50846
     50843     50841     50844     50847     50844     50847     50850     50851
     50844     50847     50850     50852     50844     50847     50850     50853
     50845     50844     50847     50848     50845     50844     50847     50849
     50845     50844     50847     50850     50846     50844     50847     50848
     50846     50844     50847     50849     50846     50844     50847     50850
     50847     50850     50853     50854     50847     50850     50853     50855
     50847     50850     50853     50856     50848     50847     50850     50851
     50848     50847     50850     50852     50848     50847     50850     50853
     50849     50847     50850     50851     50849     50847     50850     50852
     50849     50847     50850     50853     50850     50853     50856     50857
     50850     50853     50856     50858     50850     50853     50856     50859
     50851     50850     50853     50854     50851     50850     50853     50855
     50851     50850     50853     50856     50852     50850     50853     50854
     50852     50850     50853     50855     50852     50850     50853     50856
     50854     50853     50856     50857     50854     50853     50856     50858
     50854     50853     50856     50859     50855     50853     50856     50857
     50855     50853     50856     50858     50855     50853     50856     50859
     50860     50863     50866     50867     50860     50863     50866     50868
     50860     50863     50866     50869     50861     50860     50863     50864
     50861     50860     50863     50865     50861     50860     50863     50866
     50862     50860     50863     50864     50862     50860     50863     50865
     50862     50860     50863     50866     50863     50866     50869     50870
     50863     50866     50869     50871     50863     50866     50869     50872
     50864     50863     50866     50867     50864     50863     50866     50868
     50864     50863     50866     50869     50865     50863     50866     50867
     50865     50863     50866     50868     50865     50863     50866     50869
     50866     50869     50872     50873     50866     50869     50872     50874
     50866     50869     50872     50875     50867     50866     50869     50870
     50867     50866     50869     50871     50867     50866     50869     50872
     50868     50866     50869     50870     50868     50866     50869     50871
     50868     50866     50869     50872     50869     50872     50875     50876
     50869     50872     50875     50877     50869     50872     50875     50878
     50870     50869     50872     50873     50870     50869     50872     50874
     50870     50869     50872     50875     50871     50869     50872     50873
     50871     50869     50872     50874     50871     50869     50872     50875
     50872     50875     50878     50879     50872     50875     50878     50880
     50872     50875     50878     50881     50873     50872     50875     50876
     50873     50872     50875     50877     50873     50872     50875     50878
     50874     50872     50875     50876     50874     50872     50875     50877
     50874     50872     50875     50878     50875     50878     50881     50882
     50875     50878     50881     50883     50875     50878     50881     50884
     50876     50875     50878     50879     50876     50875     50878     50880
     50876     50875     50878     50881     50877     50875     50878     50879
     50877     50875     50878     50880     50877     50875     50878     50881
     50878     50881     50884     50885     50878     50881     50884     50886
     50878     50881     50884     50887     50879     50878     50881     50882
     50879     50878     50881     50883     50879     50878     50881     50884
     50880     50878     50881     50882     50880     50878     50881     50883
     50880     50878     50881     50884     50881     50884     50887     50888
     50881     50884     50887     50889     50881     50884     50887     50890
     50882     50881     50884     50885     50882     50881     50884     50886
     50882     50881     50884     50887     50883     50881     50884     50885
     50883     50881     50884     50886     50883     50881     50884     50887
     50884     50887     50890     50891     50884     50887     50890     50892
     50884     50887     50890     50893     50885     50884     50887     50888
     50885     50884     50887     50889     50885     50884     50887     50890
     50886     50884     50887     50888     50886     50884     50887     50889
     50886     50884     50887     50890     50887     50890     50893     50894
     50887     50890     50893     50895     50887     50890     50893     50896
     50888     50887     50890     50891     50888     50887     50890     50892
     50888     50887     50890     50893     50889     50887     50890     50891
     50889     50887     50890     50892     50889     50887     50890     50893
     50890     50893     50896     50897     50890     50893     50896     50898
     50890     50893     50896     50899     50891     50890     50893     50894
     50891     50890     50893     50895     50891     50890     50893     50896
     50892     50890     50893     50894     50892     50890     50893     50895
     50892     50890     50893     50896     50893     50896     50899     50900
     50893     50896     50899     50901     50893     50896     50899     50902
     50894     50893     50896     50897     50894     50893     50896     50898
     50894     50893     50896     50899     50895     50893     50896     50897
     50895     50893     50896     50898     50895     50893     50896     50899
     50897     50896     50899     50900     50897     50896     50899     50901
     50897     50896     50899     50902     50898     50896     50899     50900
     50898     50896     50899     50901     50898     50896     50899     50902
     50903     50908     50910     50911     50903     50908     50912     50913
     50903     50908     50912     50914     50903     50908     50912     50918
     50904     50903     50906     50907     50904     50903     50908     50909
     50904     50903     50908     50910     50904     50903     50908     50912
     50905     50903     50906     50907     50905     50903     50908     50909
     50905     50903     50908     50910     50905     50903     50908     50912
     50906     50903     50908     50909     50906     50903     50908     50910
     50906     50903     50908     50912     50907     50906     50903     50908
     50908     50912     50918     50915     50909     50908     50910     50911
     50909     50908     50912     50913     50909     50908     50912     50914
     50909     50908     50912     50918     50910     50908     50912     50913
     50910     50908     50912     50914     50910     50908     50912     50918
     50911     50910     50908     50912     50912     50918     50915     50916
     50912     50918     50915     50917     50912     50918     50915     50919
     50913     50912     50918     50915     50914     50912     50918     50915
     50915     50919     50920     50921     50915     50919     50920     50922
     50915     50919     50920     50923     50916     50915     50919     50920
     50917     50915     50919     50920     50918     50915     50919     50920
     50919     50920     50923     50924     50919     50920     50923     50925
     50919     50920     50923     50931     50920     50923     50925     50926
     50920     50923     50931     50932     50920     50923     50931     50933
     50920     50923     50931     50934     50921     50920     50923     50924
     50921     50920     50923     50925     50921     50920     50923     50931
     50922     50920     50923     50924     50922     50920     50923     50925
     50922     50920     50923     50931     50923     50925     50926     50927
     50923     50925     50926     50928     50923     50931     50934     50935
     50924     50923     50925     50926     50924     50923     50931     50932
     50924     50923     50931     50933     50924     50923     50931     50934
     50925     50923     50931     50932     50925     50923     50931     50933
     50925     50923     50931     50934     50925     50926     50928     50929
     50925     50926     50928     50930     50925     50926     50928     50940
     50926     50925     50923     50931     50926     50928     50940     50941
     50926     50928     50940     50942     50926     50928     50940     50943
     50927     50926     50928     50929     50927     50926     50928     50930
     50927     50926     50928     50940     50928     50940     50943     50944
     50928     50940     50943     50945     50928     50940     50943     50946
     50929     50928     50940     50941     50929     50928     50940     50942
     50929     50928     50940     50943     50930     50928     50940     50941
     50930     50928     50940     50942     50930     50928     50940     50943
     50931     50934     50935     50936     50931     50934     50935     50937
     50932     50931     50934     50935     50933     50931     50934     50935
     50934     50935     50937     50938     50934     50935     50937     50939
     50934     50935     50937     50987     50935     50937     50987     50988
     50935     50937     50987     50989     50935     50937     50987     50990
     50936     50935     50937     50938     50936     50935     50937     50939
     50936     50935     50937     50987     50937     50987     50990     50991
     50937     50987     50990     50992     50937     50987     50990     50993
     50938     50937     50987     50988     50938     50937     50987     50989
     50938     50937     50987     50990     50939     50937     50987     50988
     50939     50937     50987     50989     50939     50937     50987     50990
     50940     50943     50946     50947     50940     50943     50946     50948
     50940     50943     50946     50949     50941     50940     50943     50944
     50941     50940     50943     50945     50941     50940     50943     50946
     50942     50940     50943     50944     50942     50940     50943     50945
     50942     50940     50943     50946     50943     50946     50949     50950
     50943     50946     50949     50951     50943     50946     50949     50952
     50944     50943     50946     50947     50944     50943     50946     50948
     50944     50943     50946     50949     50945     50943     50946     50947
     50945     50943     50946     50948     50945     50943     50946     50949
     50946     50949     50952     50953     50946     50949     50952     50954
     50946     50949     50952     50955     50947     50946     50949     50950
     50947     50946     50949     50951     50947     50946     50949     50952
     50948     50946     50949     50950     50948     50946     50949     50951
     50948     50946     50949     50952     50949     50952     50955     50956
     50949     50952     50955     50957     50949     50952     50955     50958
     50950     50949     50952     50953     50950     50949     50952     50954
     50950     50949     50952     50955     50951     50949     50952     50953
     50951     50949     50952     50954     50951     50949     50952     50955
     50952     50955     50958     50959     50952     50955     50958     50960
     50952     50955     50958     50961     50953     50952     50955     50956
     50953     50952     50955     50957     50953     50952     50955     50958
     50954     50952     50955     50956     50954     50952     50955     50957
     50954     50952     50955     50958     50955     50958     50961     50962
     50955     50958     50961     50963     50955     50958     50961     50964
     50956     50955     50958     50959     50956     50955     50958     50960
     50956     50955     50958     50961     50957     50955     50958     50959
     50957     50955     50958     50960     50957     50955     50958     50961
     50958     50961     50964     50965     50958     50961     50964     50966
     50959     50958     50961     50962     50959     50958     50961     50963
     50959     50958     50961     50964     50960     50958     50961     50962
     50960     50958     50961     50963     50960     50958     50961     50964
     50961     50964     50966     50967     50961     50964     50966     50968
     50962     50961     50964     50965     50962     50961     50964     50966
     50963     50961     50964     50965     50963     50961     50964     50966
     50964     50966     50968     50969     50964     50966     50968     50970
     50964     50966     50968     50971     50965     50964     50966     50967
     50965     50964     50966     50968     50966     50968     50971     50972
     50966     50968     50971     50973     50966     50968     50971     50974
     50967     50966     50968     50969     50967     50966     50968     50970
     50967     50966     50968     50971     50968     50971     50974     50975
     50968     50971     50974     50976     50968     50971     50974     50977
     50969     50968     50971     50972     50969     50968     50971     50973
     50969     50968     50971     50974     50970     50968     50971     50972
     50970     50968     50971     50973     50970     50968     50971     50974
     50971     50974     50977     50978     50971     50974     50977     50979
     50971     50974     50977     50980     50972     50971     50974     50975
     50972     50971     50974     50976     50972     50971     50974     50977
     50973     50971     50974     50975     50973     50971     50974     50976
     50973     50971     50974     50977     50974     50977     50980     50981
     50974     50977     50980     50982     50974     50977     50980     50983
     50975     50974     50977     50978     50975     50974     50977     50979
     50975     50974     50977     50980     50976     50974     50977     50978
     50976     50974     50977     50979     50976     50974     50977     50980
     50977     50980     50983     50984     50977     50980     50983     50985
     50977     50980     50983     50986     50978     50977     50980     50981
     50978     50977     50980     50982     50978     50977     50980     50983
     50979     50977     50980     50981     50979     50977     50980     50982
     50979     50977     50980     50983     50981     50980     50983     50984
     50981     50980     50983     50985     50981     50980     50983     50986
     50982     50980     50983     50984     50982     50980     50983     50985
     50982     50980     50983     50986     50987     50990     50993     50994
     50987     50990     50993     50995     50987     50990     50993     50996
     50988     50987     50990     50991     50988     50987     50990     50992
     50988     50987     50990     50993     50989     50987     50990     50991
     50989     50987     50990     50992     50989     50987     50990     50993
     50990     50993     50996     50997     50990     50993     50996     50998
     50990     50993     50996     50999     50991     50990     50993     50994
     50991     50990     50993     50995     50991     50990     50993     50996
     50992     50990     50993     50994     50992     50990     50993     50995
     50992     50990     50993     50996     50993     50996     50999     51000
     50993     50996     50999     51001     50993     50996     50999     51002
     50994     50993     50996     50997     50994     50993     50996     50998
     50994     50993     50996     50999     50995     50993     50996     50997
     50995     50993     50996     50998     50995     50993     50996     50999
     50996     50999     51002     51003     50996     50999     51002     51004
     50996     50999     51002     51005     50997     50996     50999     51000
     50997     50996     50999     51001     50997     50996     50999     51002
     50998     50996     50999     51000     50998     50996     50999     51001
     50998     50996     50999     51002     50999     51002     51005     51006
     50999     51002     51005     51007     50999     51002     51005     51008
     51000     50999     51002     51003     51000     50999     51002     51004
     51000     50999     51002     51005     51001     50999     51002     51003
     51001     50999     51002     51004     51001     50999     51002     51005
     51002     51005     51008     51009     51002     51005     51008     51010
     51002     51005     51008     51011     51003     51002     51005     51006
     51003     51002     51005     51007     51003     51002     51005     51008
     51004     51002     51005     51006     51004     51002     51005     51007
     51004     51002     51005     51008     51005     51008     51011     51012
     51005     51008     51011     51013     51005     51008     51011     51014
     51006     51005     51008     51009     51006     51005     51008     51010
     51006     51005     51008     51011     51007     51005     51008     51009
     51007     51005     51008     51010     51007     51005     51008     51011
     51008     51011     51014     51015     51008     51011     51014     51016
     51008     51011     51014     51017     51009     51008     51011     51012
     51009     51008     51011     51013     51009     51008     51011     51014
     51010     51008     51011     51012     51010     51008     51011     51013
     51010     51008     51011     51014     51011     51014     51017     51018
     51011     51014     51017     51019     51011     51014     51017     51020
     51012     51011     51014     51015     51012     51011     51014     51016
     51012     51011     51014     51017     51013     51011     51014     51015
     51013     51011     51014     51016     51013     51011     51014     51017
     51014     51017     51020     51021     51014     51017     51020     51022
     51014     51017     51020     51023     51015     51014     51017     51018
     51015     51014     51017     51019     51015     51014     51017     51020
     51016     51014     51017     51018     51016     51014     51017     51019
     51016     51014     51017     51020     51017     51020     51023     51024
     51017     51020     51023     51025     51017     51020     51023     51026
     51018     51017     51020     51021     51018     51017     51020     51022
     51018     51017     51020     51023     51019     51017     51020     51021
     51019     51017     51020     51022     51019     51017     51020     51023
     51020     51023     51026     51027     51020     51023     51026     51028
     51020     51023     51026     51029     51021     51020     51023     51024
     51021     51020     51023     51025     51021     51020     51023     51026
     51022     51020     51023     51024     51022     51020     51023     51025
     51022     51020     51023     51026     51024     51023     51026     51027
     51024     51023     51026     51028     51024     51023     51026     51029
     51025     51023     51026     51027     51025     51023     51026     51028
     51025     51023     51026     51029     51030     51034     51037     51038
     51030     51034     51037     51039     51030     51034     51037     51044
     51031     51030     51034     51035     51031     51030     51034     51036
     51031     51030     51034     51037     51032     51030     51034     51035
     51032     51030     51034     51036     51032     51030     51034     51037
     51033     51030     51034     51035     51033     51030     51034     51036
     51033     51030     51034     51037     51034     51037     51044     51040
     51035     51034     51037     51038     51035     51034     51037     51039
     51035     51034     51037     51044     51036     51034     51037     51038
     51036     51034     51037     51039     51036     51034     51037     51044
     51037     51044     51040     51041     51037     51044     51040     51042
     51037     51044     51040     51043     51038     51037     51044     51040
     51039     51037     51044     51040     51040     51043     51045     51046
     51040     51043     51045     51047     51040     51043     51045     51048
     51041     51040     51043     51045     51042     51040     51043     51045
     51043     51045     51048     51049     51043     51045     51048     51050
     51043     51045     51048     51056     51044     51040     51043     51045
     51045     51048     51050     51051     51045     51048     51056     51057
     51045     51048     51056     51058     51045     51048     51056     51059
     51046     51045     51048     51049     51046     51045     51048     51050
     51046     51045     51048     51056     51047     51045     51048     51049
     51047     51045     51048     51050     51047     51045     51048     51056
     51048     51050     51051     51052     51048     51050     51051     51053
     51048     51056     51059     51060     51049     51048     51050     51051
     51049     51048     51056     51057     51049     51048     51056     51058
     51049     51048     51056     51059     51050     51048     51056     51057
     51050     51048     51056     51058     51050     51048     51056     51059
     51050     51051     51053     51054     51050     51051     51053     51055
     51050     51051     51053     51065     51051     51050     51048     51056
     51051     51053     51065     51066     51051     51053     51065     51067
     51051     51053     51065     51068     51052     51051     51053     51054
     51052     51051     51053     51055     51052     51051     51053     51065
     51053     51065     51068     51069     51053     51065     51068     51070
     51053     51065     51068     51071     51054     51053     51065     51066
     51054     51053     51065     51067     51054     51053     51065     51068
     51055     51053     51065     51066     51055     51053     51065     51067
     51055     51053     51065     51068     51056     51059     51060     51061
     51056     51059     51060     51062     51057     51056     51059     51060
     51058     51056     51059     51060     51059     51060     51062     51063
     51059     51060     51062     51064     51059     51060     51062     51106
     51060     51062     51106     51107     51060     51062     51106     51108
     51060     51062     51106     51109     51061     51060     51062     51063
     51061     51060     51062     51064     51061     51060     51062     51106
     51062     51106     51109     51110     51062     51106     51109     51111
     51062     51106     51109     51112     51063     51062     51106     51107
     51063     51062     51106     51108     51063     51062     51106     51109
     51064     51062     51106     51107     51064     51062     51106     51108
     51064     51062     51106     51109     51065     51068     51071     51072
     51065     51068     51071     51073     51065     51068     51071     51074
     51066     51065     51068     51069     51066     51065     51068     51070
     51066     51065     51068     51071     51067     51065     51068     51069
     51067     51065     51068     51070     51067     51065     51068     51071
     51068     51071     51074     51075     51068     51071     51074     51076
     51068     51071     51074     51077     51069     51068     51071     51072
     51069     51068     51071     51073     51069     51068     51071     51074
     51070     51068     51071     51072     51070     51068     51071     51073
     51070     51068     51071     51074     51071     51074     51077     51078
     51071     51074     51077     51079     51071     51074     51077     51080
     51072     51071     51074     51075     51072     51071     51074     51076
     51072     51071     51074     51077     51073     51071     51074     51075
     51073     51071     51074     51076     51073     51071     51074     51077
     51074     51077     51080     51081     51074     51077     51080     51082
     51074     51077     51080     51083     51075     51074     51077     51078
     51075     51074     51077     51079     51075     51074     51077     51080
     51076     51074     51077     51078     51076     51074     51077     51079
     51076     51074     51077     51080     51077     51080     51083     51084
     51077     51080     51083     51085     51078     51077     51080     51081
     51078     51077     51080     51082     51078     51077     51080     51083
     51079     51077     51080     51081     51079     51077     51080     51082
     51079     51077     51080     51083     51080     51083     51085     51086
     51080     51083     51085     51087     51081     51080     51083     51084
     51081     51080     51083     51085     51082     51080     51083     51084
     51082     51080     51083     51085     51083     51085     51087     51088
     51083     51085     51087     51089     51083     51085     51087     51090
     51084     51083     51085     51086     51084     51083     51085     51087
     51085     51087     51090     51091     51085     51087     51090     51092
     51085     51087     51090     51093     51086     51085     51087     51088
     51086     51085     51087     51089     51086     51085     51087     51090
     51087     51090     51093     51094     51087     51090     51093     51095
     51087     51090     51093     51096     51088     51087     51090     51091
     51088     51087     51090     51092     51088     51087     51090     51093
     51089     51087     51090     51091     51089     51087     51090     51092
     51089     51087     51090     51093     51090     51093     51096     51097
     51090     51093     51096     51098     51090     51093     51096     51099
     51091     51090     51093     51094     51091     51090     51093     51095
     51091     51090     51093     51096     51092     51090     51093     51094
     51092     51090     51093     51095     51092     51090     51093     51096
     51093     51096     51099     51100     51093     51096     51099     51101
     51093     51096     51099     51102     51094     51093     51096     51097
     51094     51093     51096     51098     51094     51093     51096     51099
     51095     51093     51096     51097     51095     51093     51096     51098
     51095     51093     51096     51099     51096     51099     51102     51103
     51096     51099     51102     51104     51096     51099     51102     51105
     51097     51096     51099     51100     51097     51096     51099     51101
     51097     51096     51099     51102     51098     51096     51099     51100
     51098     51096     51099     51101     51098     51096     51099     51102
     51100     51099     51102     51103     51100     51099     51102     51104
     51100     51099     51102     51105     51101     51099     51102     51103
     51101     51099     51102     51104     51101     51099     51102     51105
     51106     51109     51112     51113     51106     51109     51112     51114
     51106     51109     51112     51115     51107     51106     51109     51110
     51107     51106     51109     51111     51107     51106     51109     51112
     51108     51106     51109     51110     51108     51106     51109     51111
     51108     51106     51109     51112     51109     51112     51115     51116
     51109     51112     51115     51117     51109     51112     51115     51118
     51110     51109     51112     51113     51110     51109     51112     51114
     51110     51109     51112     51115     51111     51109     51112     51113
     51111     51109     51112     51114     51111     51109     51112     51115
     51112     51115     51118     51119     51112     51115     51118     51120
     51112     51115     51118     51121     51113     51112     51115     51116
     51113     51112     51115     51117     51113     51112     51115     51118
     51114     51112     51115     51116     51114     51112     51115     51117
     51114     51112     51115     51118     51115     51118     51121     51122
     51115     51118     51121     51123     51115     51118     51121     51124
     51116     51115     51118     51119     51116     51115     51118     51120
     51116     51115     51118     51121     51117     51115     51118     51119
     51117     51115     51118     51120     51117     51115     51118     51121
     51118     51121     51124     51125     51118     51121     51124     51126
     51118     51121     51124     51127     51119     51118     51121     51122
     51119     51118     51121     51123     51119     51118     51121     51124
     51120     51118     51121     51122     51120     51118     51121     51123
     51120     51118     51121     51124     51121     51124     51127     51128
     51121     51124     51127     51129     51121     51124     51127     51130
     51122     51121     51124     51125     51122     51121     51124     51126
     51122     51121     51124     51127     51123     51121     51124     51125
     51123     51121     51124     51126     51123     51121     51124     51127
     51124     51127     51130     51131     51124     51127     51130     51132
     51124     51127     51130     51133     51125     51124     51127     51128
     51125     51124     51127     51129     51125     51124     51127     51130
     51126     51124     51127     51128     51126     51124     51127     51129
     51126     51124     51127     51130     51127     51130     51133     51134
     51127     51130     51133     51135     51127     51130     51133     51136
     51128     51127     51130     51131     51128     51127     51130     51132
     51128     51127     51130     51133     51129     51127     51130     51131
     51129     51127     51130     51132     51129     51127     51130     51133
     51130     51133     51136     51137     51130     51133     51136     51138
     51130     51133     51136     51139     51131     51130     51133     51134
     51131     51130     51133     51135     51131     51130     51133     51136
     51132     51130     51133     51134     51132     51130     51133     51135
     51132     51130     51133     51136     51133     51136     51139     51140
     51133     51136     51139     51141     51133     51136     51139     51142
     51134     51133     51136     51137     51134     51133     51136     51138
     51134     51133     51136     51139     51135     51133     51136     51137
     51135     51133     51136     51138     51135     51133     51136     51139
     51136     51139     51142     51143     51136     51139     51142     51144
     51136     51139     51142     51145     51137     51136     51139     51140
     51137     51136     51139     51141     51137     51136     51139     51142
     51138     51136     51139     51140     51138     51136     51139     51141
     51138     51136     51139     51142     51139     51142     51145     51146
     51139     51142     51145     51147     51139     51142     51145     51148
     51140     51139     51142     51143     51140     51139     51142     51144
     51140     51139     51142     51145     51141     51139     51142     51143
     51141     51139     51142     51144     51141     51139     51142     51145
     51143     51142     51145     51146     51143     51142     51145     51147
     51143     51142     51145     51148     51144     51142     51145     51146
     51144     51142     51145     51147     51144     51142     51145     51148
     51149     51154     51156     51157     51149     51154     51158     51159
     51149     51154     51158     51160     51149     51154     51158     51164
     51150     51149     51152     51153     51150     51149     51154     51155
     51150     51149     51154     51156     51150     51149     51154     51158
     51151     51149     51152     51153     51151     51149     51154     51155
     51151     51149     51154     51156     51151     51149     51154     51158
     51152     51149     51154     51155     51152     51149     51154     51156
     51152     51149     51154     51158     51153     51152     51149     51154
     51154     51158     51164     51161     51155     51154     51156     51157
     51155     51154     51158     51159     51155     51154     51158     51160
     51155     51154     51158     51164     51156     51154     51158     51159
     51156     51154     51158     51160     51156     51154     51158     51164
     51157     51156     51154     51158     51158     51164     51161     51162
     51158     51164     51161     51163     51158     51164     51161     51165
     51159     51158     51164     51161     51160     51158     51164     51161
     51161     51165     51166     51167     51161     51165     51166     51168
     51161     51165     51166     51169     51162     51161     51165     51166
     51163     51161     51165     51166     51164     51161     51165     51166
     51165     51166     51169     51170     51165     51166     51169     51171
     51165     51166     51169     51177     51166     51169     51171     51172
     51166     51169     51177     51178     51166     51169     51177     51179
     51166     51169     51177     51180     51167     51166     51169     51170
     51167     51166     51169     51171     51167     51166     51169     51177
     51168     51166     51169     51170     51168     51166     51169     51171
     51168     51166     51169     51177     51169     51171     51172     51173
     51169     51171     51172     51174     51169     51177     51180     51181
     51170     51169     51171     51172     51170     51169     51177     51178
     51170     51169     51177     51179     51170     51169     51177     51180
     51171     51169     51177     51178     51171     51169     51177     51179
     51171     51169     51177     51180     51171     51172     51174     51175
     51171     51172     51174     51176     51171     51172     51174     51186
     51172     51171     51169     51177     51172     51174     51186     51187
     51172     51174     51186     51188     51172     51174     51186     51189
     51173     51172     51174     51175     51173     51172     51174     51176
     51173     51172     51174     51186     51174     51186     51189     51190
     51174     51186     51189     51191     51174     51186     51189     51192
     51175     51174     51186     51187     51175     51174     51186     51188
     51175     51174     51186     51189     51176     51174     51186     51187
     51176     51174     51186     51188     51176     51174     51186     51189
     51177     51180     51181     51182     51177     51180     51181     51183
     51178     51177     51180     51181     51179     51177     51180     51181
     51180     51181     51183     51184     51180     51181     51183     51185
     51180     51181     51183     51233     51181     51183     51233     51234
     51181     51183     51233     51235     51181     51183     51233     51236
     51182     51181     51183     51184     51182     51181     51183     51185
     51182     51181     51183     51233     51183     51233     51236     51237
     51183     51233     51236     51238     51183     51233     51236     51239
     51184     51183     51233     51234     51184     51183     51233     51235
     51184     51183     51233     51236     51185     51183     51233     51234
     51185     51183     51233     51235     51185     51183     51233     51236
     51186     51189     51192     51193     51186     51189     51192     51194
     51186     51189     51192     51195     51187     51186     51189     51190
     51187     51186     51189     51191     51187     51186     51189     51192
     51188     51186     51189     51190     51188     51186     51189     51191
     51188     51186     51189     51192     51189     51192     51195     51196
     51189     51192     51195     51197     51189     51192     51195     51198
     51190     51189     51192     51193     51190     51189     51192     51194
     51190     51189     51192     51195     51191     51189     51192     51193
     51191     51189     51192     51194     51191     51189     51192     51195
     51192     51195     51198     51199     51192     51195     51198     51200
     51192     51195     51198     51201     51193     51192     51195     51196
     51193     51192     51195     51197     51193     51192     51195     51198
     51194     51192     51195     51196     51194     51192     51195     51197
     51194     51192     51195     51198     51195     51198     51201     51202
     51195     51198     51201     51203     51195     51198     51201     51204
     51196     51195     51198     51199     51196     51195     51198     51200
     51196     51195     51198     51201     51197     51195     51198     51199
     51197     51195     51198     51200     51197     51195     51198     51201
     51198     51201     51204     51205     51198     51201     51204     51206
     51198     51201     51204     51207     51199     51198     51201     51202
     51199     51198     51201     51203     51199     51198     51201     51204
     51200     51198     51201     51202     51200     51198     51201     51203
     51200     51198     51201     51204     51201     51204     51207     51208
     51201     51204     51207     51209     51201     51204     51207     51210
     51202     51201     51204     51205     51202     51201     51204     51206
     51202     51201     51204     51207     51203     51201     51204     51205
     51203     51201     51204     51206     51203     51201     51204     51207
     51204     51207     51210     51211     51204     51207     51210     51212
     51205     51204     51207     51208     51205     51204     51207     51209
     51205     51204     51207     51210     51206     51204     51207     51208
     51206     51204     51207     51209     51206     51204     51207     51210
     51207     51210     51212     51213     51207     51210     51212     51214
     51208     51207     51210     51211     51208     51207     51210     51212
     51209     51207     51210     51211     51209     51207     51210     51212
     51210     51212     51214     51215     51210     51212     51214     51216
     51210     51212     51214     51217     51211     51210     51212     51213
     51211     51210     51212     51214     51212     51214     51217     51218
     51212     51214     51217     51219     51212     51214     51217     51220
     51213     51212     51214     51215     51213     51212     51214     51216
     51213     51212     51214     51217     51214     51217     51220     51221
     51214     51217     51220     51222     51214     51217     51220     51223
     51215     51214     51217     51218     51215     51214     51217     51219
     51215     51214     51217     51220     51216     51214     51217     51218
     51216     51214     51217     51219     51216     51214     51217     51220
     51217     51220     51223     51224     51217     51220     51223     51225
     51217     51220     51223     51226     51218     51217     51220     51221
     51218     51217     51220     51222     51218     51217     51220     51223
     51219     51217     51220     51221     51219     51217     51220     51222
     51219     51217     51220     51223     51220     51223     51226     51227
     51220     51223     51226     51228     51220     51223     51226     51229
     51221     51220     51223     51224     51221     51220     51223     51225
     51221     51220     51223     51226     51222     51220     51223     51224
     51222     51220     51223     51225     51222     51220     51223     51226
     51223     51226     51229     51230     51223     51226     51229     51231
     51223     51226     51229     51232     51224     51223     51226     51227
     51224     51223     51226     51228     51224     51223     51226     51229
     51225     51223     51226     51227     51225     51223     51226     51228
     51225     51223     51226     51229     51227     51226     51229     51230
     51227     51226     51229     51231     51227     51226     51229     51232
     51228     51226     51229     51230     51228     51226     51229     51231
     51228     51226     51229     51232     51233     51236     51239     51240
     51233     51236     51239     51241     51233     51236     51239     51242
     51234     51233     51236     51237     51234     51233     51236     51238
     51234     51233     51236     51239     51235     51233     51236     51237
     51235     51233     51236     51238     51235     51233     51236     51239
     51236     51239     51242     51243     51236     51239     51242     51244
     51236     51239     51242     51245     51237     51236     51239     51240
     51237     51236     51239     51241     51237     51236     51239     51242
     51238     51236     51239     51240     51238     51236     51239     51241
     51238     51236     51239     51242     51239     51242     51245     51246
     51239     51242     51245     51247     51239     51242     51245     51248
     51240     51239     51242     51243     51240     51239     51242     51244
     51240     51239     51242     51245     51241     51239     51242     51243
     51241     51239     51242     51244     51241     51239     51242     51245
     51242     51245     51248     51249     51242     51245     51248     51250
     51242     51245     51248     51251     51243     51242     51245     51246
     51243     51242     51245     51247     51243     51242     51245     51248
     51244     51242     51245     51246     51244     51242     51245     51247
     51244     51242     51245     51248     51245     51248     51251     51252
     51245     51248     51251     51253     51245     51248     51251     51254
     51246     51245     51248     51249     51246     51245     51248     51250
     51246     51245     51248     51251     51247     51245     51248     51249
     51247     51245     51248     51250     51247     51245     51248     51251
     51248     51251     51254     51255     51248     51251     51254     51256
     51248     51251     51254     51257     51249     51248     51251     51252
     51249     51248     51251     51253     51249     51248     51251     51254
     51250     51248     51251     51252     51250     51248     51251     51253
     51250     51248     51251     51254     51251     51254     51257     51258
     51251     51254     51257     51259     51251     51254     51257     51260
     51252     51251     51254     51255     51252     51251     51254     51256
     51252     51251     51254     51257     51253     51251     51254     51255
     51253     51251     51254     51256     51253     51251     51254     51257
     51254     51257     51260     51261     51254     51257     51260     51262
     51254     51257     51260     51263     51255     51254     51257     51258
     51255     51254     51257     51259     51255     51254     51257     51260
     51256     51254     51257     51258     51256     51254     51257     51259
     51256     51254     51257     51260     51257     51260     51263     51264
     51257     51260     51263     51265     51257     51260     51263     51266
     51258     51257     51260     51261     51258     51257     51260     51262
     51258     51257     51260     51263     51259     51257     51260     51261
     51259     51257     51260     51262     51259     51257     51260     51263
     51260     51263     51266     51267     51260     51263     51266     51268
     51260     51263     51266     51269     51261     51260     51263     51264
     51261     51260     51263     51265     51261     51260     51263     51266
     51262     51260     51263     51264     51262     51260     51263     51265
     51262     51260     51263     51266     51263     51266     51269     51270
     51263     51266     51269     51271     51263     51266     51269     51272
     51264     51263     51266     51267     51264     51263     51266     51268
     51264     51263     51266     51269     51265     51263     51266     51267
     51265     51263     51266     51268     51265     51263     51266     51269
     51266     51269     51272     51273     51266     51269     51272     51274
     51266     51269     51272     51275     51267     51266     51269     51270
     51267     51266     51269     51271     51267     51266     51269     51272
     51268     51266     51269     51270     51268     51266     51269     51271
     51268     51266     51269     51272     51270     51269     51272     51273
     51270     51269     51272     51274     51270     51269     51272     51275
     51271     51269     51272     51273     51271     51269     51272     51274
     51271     51269     51272     51275     51276     51282     51279     51280
     51276     51282     51279     51281     51276     51282     51279     51283
     51276     51287     51289     51290     51276     51287     51291     51292
     51276     51287     51291     51293     51276     51287     51291     51297
     51277     51276     51282     51279     51277     51276     51287     51288
     51277     51276     51287     51289     51277     51276     51287     51291
     51278     51276     51282     51279     51278     51276     51287     51288
     51278     51276     51287     51289     51278     51276     51287     51291
     51279     51282     51276     51287     51279     51283     51284     51285
     51279     51283     51284     51286     51279     51283     51284     51319
     51280     51279     51283     51284     51281     51279     51283     51284
     51282     51276     51287     51288     51282     51276     51287     51289
     51282     51276     51287     51291     51282     51279     51283     51284
     51283     51284     51319     51320     51283     51284     51319     51321
     51283     51284     51319     51327     51284     51319     51321     51322
     51284     51319     51327     51328     51284     51319     51327     51329
     51284     51319     51327     51330     51285     51284     51319     51320
     51285     51284     51319     51321     51285     51284     51319     51327
     51286     51284     51319     51320     51286     51284     51319     51321
     51286     51284     51319     51327     51287     51291     51297     51294
     51288     51287     51289     51290     51288     51287     51291     51292
     51288     51287     51291     51293     51288     51287     51291     51297
     51289     51287     51291     51292     51289     51287     51291     51293
     51289     51287     51291     51297     51290     51289     51287     51291
     51291     51297     51294     51295     51291     51297     51294     51296
     51291     51297     51294     51298     51292     51291     51297     51294
     51293     51291     51297     51294     51294     51298     51299     51300
     51294     51298     51299     51301     51294     51298     51299     51302
     51295     51294     51298     51299     51296     51294     51298     51299
     51297     51294     51298     51299     51298     51299     51302     51303
     51298     51299     51302     51304     51298     51299     51302     51310
     51299     51302     51304     51305     51299     51302     51310     51311
     51299     51302     51310     51312     51299     51302     51310     51313
     51300     51299     51302     51303     51300     51299     51302     51304
     51300     51299     51302     51310     51301     51299     51302     51303
     51301     51299     51302     51304     51301     51299     51302     51310
     51302     51304     51305     51306     51302     51304     51305     51307
     51302     51310     51313     51314     51303     51302     51304     51305
     51303     51302     51310     51311     51303     51302     51310     51312
     51303     51302     51310     51313     51304     51302     51310     51311
     51304     51302     51310     51312     51304     51302     51310     51313
     51304     51305     51307     51308     51304     51305     51307     51309
     51304     51305     51307     51336     51305     51304     51302     51310
     51305     51307     51336     51337     51305     51307     51336     51338
     51305     51307     51336     51339     51306     51305     51307     51308
     51306     51305     51307     51309     51306     51305     51307     51336
     51307     51336     51339     51340     51307     51336     51339     51341
     51307     51336     51339     51342     51308     51307     51336     51337
     51308     51307     51336     51338     51308     51307     51336     51339
     51309     51307     51336     51337     51309     51307     51336     51338
     51309     51307     51336     51339     51310     51313     51314     51315
     51310     51313     51314     51316     51311     51310     51313     51314
     51312     51310     51313     51314     51313     51314     51316     51317
     51313     51314     51316     51318     51313     51314     51316     51383
     51314     51316     51383     51384     51314     51316     51383     51385
     51314     51316     51383     51386     51315     51314     51316     51317
     51315     51314     51316     51318     51315     51314     51316     51383
     51316     51383     51386     51387     51316     51383     51386     51388
     51316     51383     51386     51389     51317     51316     51383     51384
     51317     51316     51383     51385     51317     51316     51383     51386
     51318     51316     51383     51384     51318     51316     51383     51385
     51318     51316     51383     51386     51319     51321     51322     51323
     51319     51321     51322     51324     51319     51327     51330     51331
     51320     51319     51321     51322     51320     51319     51327     51328
     51320     51319     51327     51329     51320     51319     51327     51330
     51321     51319     51327     51328     51321     51319     51327     51329
     51321     51319     51327     51330     51321     51322     51324     51325
     51321     51322     51324     51326     51321     51322     51324     51426
     51322     51321     51319     51327     51322     51324     51426     51427
     51322     51324     51426     51428     51322     51324     51426     51429
     51323     51322     51324     51325     51323     51322     51324     51326
     51323     51322     51324     51426     51324     51426     51429     51430
     51324     51426     51429     51431     51324     51426     51429     51432
     51325     51324     51426     51427     51325     51324     51426     51428
     51325     51324     51426     51429     51326     51324     51426     51427
     51326     51324     51426     51428     51326     51324     51426     51429
     51327     51330     51331     51332     51327     51330     51331     51333
     51328     51327     51330     51331     51329     51327     51330     51331
     51330     51331     51333     51334     51330     51331     51333     51335
     51330     51331     51333     51473     51331     51333     51473     51474
     51331     51333     51473     51475     51331     51333     51473     51476
     51332     51331     51333     51334     51332     51331     51333     51335
     51332     51331     51333     51473     51333     51473     51476     51477
     51333     51473     51476     51478     51333     51473     51476     51479
     51334     51333     51473     51474     51334     51333     51473     51475
     51334     51333     51473     51476     51335     51333     51473     51474
     51335     51333     51473     51475     51335     51333     51473     51476
     51336     51339     51342     51343     51336     51339     51342     51344
     51336     51339     51342     51345     51337     51336     51339     51340
     51337     51336     51339     51341     51337     51336     51339     51342
     51338     51336     51339     51340     51338     51336     51339     51341
     51338     51336     51339     51342     51339     51342     51345     51346
     51339     51342     51345     51347     51339     51342     51345     51348
     51340     51339     51342     51343     51340     51339     51342     51344
     51340     51339     51342     51345     51341     51339     51342     51343
     51341     51339     51342     51344     51341     51339     51342     51345
     51342     51345     51348     51349     51342     51345     51348     51350
     51342     51345     51348     51351     51343     51342     51345     51346
     51343     51342     51345     51347     51343     51342     51345     51348
     51344     51342     51345     51346     51344     51342     51345     51347
     51344     51342     51345     51348     51345     51348     51351     51352
     51345     51348     51351     51353     51345     51348     51351     51354
     51346     51345     51348     51349     51346     51345     51348     51350
     51346     51345     51348     51351     51347     51345     51348     51349
     51347     51345     51348     51350     51347     51345     51348     51351
     51348     51351     51354     51355     51348     51351     51354     51356
     51348     51351     51354     51357     51349     51348     51351     51352
     51349     51348     51351     51353     51349     51348     51351     51354
     51350     51348     51351     51352     51350     51348     51351     51353
     51350     51348     51351     51354     51351     51354     51357     51358
     51351     51354     51357     51359     51351     51354     51357     51360
     51352     51351     51354     51355     51352     51351     51354     51356
     51352     51351     51354     51357     51353     51351     51354     51355
     51353     51351     51354     51356     51353     51351     51354     51357
     51354     51357     51360     51361     51354     51357     51360     51362
     51355     51354     51357     51358     51355     51354     51357     51359
     51355     51354     51357     51360     51356     51354     51357     51358
     51356     51354     51357     51359     51356     51354     51357     51360
     51357     51360     51362     51363     51357     51360     51362     51364
     51358     51357     51360     51361     51358     51357     51360     51362
     51359     51357     51360     51361     51359     51357     51360     51362
     51360     51362     51364     51365     51360     51362     51364     51366
     51360     51362     51364     51367     51361     51360     51362     51363
     51361     51360     51362     51364     51362     51364     51367     51368
     51362     51364     51367     51369     51362     51364     51367     51370
     51363     51362     51364     51365     51363     51362     51364     51366
     51363     51362     51364     51367     51364     51367     51370     51371
     51364     51367     51370     51372     51364     51367     51370     51373
     51365     51364     51367     51368     51365     51364     51367     51369
     51365     51364     51367     51370     51366     51364     51367     51368
     51366     51364     51367     51369     51366     51364     51367     51370
     51367     51370     51373     51374     51367     51370     51373     51375
     51367     51370     51373     51376     51368     51367     51370     51371
     51368     51367     51370     51372     51368     51367     51370     51373
     51369     51367     51370     51371     51369     51367     51370     51372
     51369     51367     51370     51373     51370     51373     51376     51377
     51370     51373     51376     51378     51370     51373     51376     51379
     51371     51370     51373     51374     51371     51370     51373     51375
     51371     51370     51373     51376     51372     51370     51373     51374
     51372     51370     51373     51375     51372     51370     51373     51376
     51373     51376     51379     51380     51373     51376     51379     51381
     51373     51376     51379     51382     51374     51373     51376     51377
     51374     51373     51376     51378     51374     51373     51376     51379
     51375     51373     51376     51377     51375     51373     51376     51378
     51375     51373     51376     51379     51377     51376     51379     51380
     51377     51376     51379     51381     51377     51376     51379     51382
     51378     51376     51379     51380     51378     51376     51379     51381
     51378     51376     51379     51382     51383     51386     51389     51390
     51383     51386     51389     51391     51383     51386     51389     51392
     51384     51383     51386     51387     51384     51383     51386     51388
     51384     51383     51386     51389     51385     51383     51386     51387
     51385     51383     51386     51388     51385     51383     51386     51389
     51386     51389     51392     51393     51386     51389     51392     51394
     51386     51389     51392     51395     51387     51386     51389     51390
     51387     51386     51389     51391     51387     51386     51389     51392
     51388     51386     51389     51390     51388     51386     51389     51391
     51388     51386     51389     51392     51389     51392     51395     51396
     51389     51392     51395     51397     51389     51392     51395     51398
     51390     51389     51392     51393     51390     51389     51392     51394
     51390     51389     51392     51395     51391     51389     51392     51393
     51391     51389     51392     51394     51391     51389     51392     51395
     51392     51395     51398     51399     51392     51395     51398     51400
     51392     51395     51398     51401     51393     51392     51395     51396
     51393     51392     51395     51397     51393     51392     51395     51398
     51394     51392     51395     51396     51394     51392     51395     51397
     51394     51392     51395     51398     51395     51398     51401     51402
     51395     51398     51401     51403     51395     51398     51401     51404
     51396     51395     51398     51399     51396     51395     51398     51400
     51396     51395     51398     51401     51397     51395     51398     51399
     51397     51395     51398     51400     51397     51395     51398     51401
     51398     51401     51404     51405     51398     51401     51404     51406
     51398     51401     51404     51407     51399     51398     51401     51402
     51399     51398     51401     51403     51399     51398     51401     51404
     51400     51398     51401     51402     51400     51398     51401     51403
     51400     51398     51401     51404     51401     51404     51407     51408
     51401     51404     51407     51409     51401     51404     51407     51410
     51402     51401     51404     51405     51402     51401     51404     51406
     51402     51401     51404     51407     51403     51401     51404     51405
     51403     51401     51404     51406     51403     51401     51404     51407
     51404     51407     51410     51411     51404     51407     51410     51412
     51404     51407     51410     51413     51405     51404     51407     51408
     51405     51404     51407     51409     51405     51404     51407     51410
     51406     51404     51407     51408     51406     51404     51407     51409
     51406     51404     51407     51410     51407     51410     51413     51414
     51407     51410     51413     51415     51407     51410     51413     51416
     51408     51407     51410     51411     51408     51407     51410     51412
     51408     51407     51410     51413     51409     51407     51410     51411
     51409     51407     51410     51412     51409     51407     51410     51413
     51410     51413     51416     51417     51410     51413     51416     51418
     51410     51413     51416     51419     51411     51410     51413     51414
     51411     51410     51413     51415     51411     51410     51413     51416
     51412     51410     51413     51414     51412     51410     51413     51415
     51412     51410     51413     51416     51413     51416     51419     51420
     51413     51416     51419     51421     51413     51416     51419     51422
     51414     51413     51416     51417     51414     51413     51416     51418
     51414     51413     51416     51419     51415     51413     51416     51417
     51415     51413     51416     51418     51415     51413     51416     51419
     51416     51419     51422     51423     51416     51419     51422     51424
     51416     51419     51422     51425     51417     51416     51419     51420
     51417     51416     51419     51421     51417     51416     51419     51422
     51418     51416     51419     51420     51418     51416     51419     51421
     51418     51416     51419     51422     51420     51419     51422     51423
     51420     51419     51422     51424     51420     51419     51422     51425
     51421     51419     51422     51423     51421     51419     51422     51424
     51421     51419     51422     51425     51426     51429     51432     51433
     51426     51429     51432     51434     51426     51429     51432     51435
     51427     51426     51429     51430     51427     51426     51429     51431
     51427     51426     51429     51432     51428     51426     51429     51430
     51428     51426     51429     51431     51428     51426     51429     51432
     51429     51432     51435     51436     51429     51432     51435     51437
     51429     51432     51435     51438     51430     51429     51432     51433
     51430     51429     51432     51434     51430     51429     51432     51435
     51431     51429     51432     51433     51431     51429     51432     51434
     51431     51429     51432     51435     51432     51435     51438     51439
     51432     51435     51438     51440     51432     51435     51438     51441
     51433     51432     51435     51436     51433     51432     51435     51437
     51433     51432     51435     51438     51434     51432     51435     51436
     51434     51432     51435     51437     51434     51432     51435     51438
     51435     51438     51441     51442     51435     51438     51441     51443
     51435     51438     51441     51444     51436     51435     51438     51439
     51436     51435     51438     51440     51436     51435     51438     51441
     51437     51435     51438     51439     51437     51435     51438     51440
     51437     51435     51438     51441     51438     51441     51444     51445
     51438     51441     51444     51446     51438     51441     51444     51447
     51439     51438     51441     51442     51439     51438     51441     51443
     51439     51438     51441     51444     51440     51438     51441     51442
     51440     51438     51441     51443     51440     51438     51441     51444
     51441     51444     51447     51448     51441     51444     51447     51449
     51441     51444     51447     51450     51442     51441     51444     51445
     51442     51441     51444     51446     51442     51441     51444     51447
     51443     51441     51444     51445     51443     51441     51444     51446
     51443     51441     51444     51447     51444     51447     51450     51451
     51444     51447     51450     51452     51445     51444     51447     51448
     51445     51444     51447     51449     51445     51444     51447     51450
     51446     51444     51447     51448     51446     51444     51447     51449
     51446     51444     51447     51450     51447     51450     51452     51453
     51447     51450     51452     51454     51448     51447     51450     51451
     51448     51447     51450     51452     51449     51447     51450     51451
     51449     51447     51450     51452     51450     51452     51454     51455
     51450     51452     51454     51456     51450     51452     51454     51457
     51451     51450     51452     51453     51451     51450     51452     51454
     51452     51454     51457     51458     51452     51454     51457     51459
     51452     51454     51457     51460     51453     51452     51454     51455
     51453     51452     51454     51456     51453     51452     51454     51457
     51454     51457     51460     51461     51454     51457     51460     51462
     51454     51457     51460     51463     51455     51454     51457     51458
     51455     51454     51457     51459     51455     51454     51457     51460
     51456     51454     51457     51458     51456     51454     51457     51459
     51456     51454     51457     51460     51457     51460     51463     51464
     51457     51460     51463     51465     51457     51460     51463     51466
     51458     51457     51460     51461     51458     51457     51460     51462
     51458     51457     51460     51463     51459     51457     51460     51461
     51459     51457     51460     51462     51459     51457     51460     51463
     51460     51463     51466     51467     51460     51463     51466     51468
     51460     51463     51466     51469     51461     51460     51463     51464
     51461     51460     51463     51465     51461     51460     51463     51466
     51462     51460     51463     51464     51462     51460     51463     51465
     51462     51460     51463     51466     51463     51466     51469     51470
     51463     51466     51469     51471     51463     51466     51469     51472
     51464     51463     51466     51467     51464     51463     51466     51468
     51464     51463     51466     51469     51465     51463     51466     51467
     51465     51463     51466     51468     51465     51463     51466     51469
     51467     51466     51469     51470     51467     51466     51469     51471
     51467     51466     51469     51472     51468     51466     51469     51470
     51468     51466     51469     51471     51468     51466     51469     51472
     51473     51476     51479     51480     51473     51476     51479     51481
     51473     51476     51479     51482     51474     51473     51476     51477
     51474     51473     51476     51478     51474     51473     51476     51479
     51475     51473     51476     51477     51475     51473     51476     51478
     51475     51473     51476     51479     51476     51479     51482     51483
     51476     51479     51482     51484     51476     51479     51482     51485
     51477     51476     51479     51480     51477     51476     51479     51481
     51477     51476     51479     51482     51478     51476     51479     51480
     51478     51476     51479     51481     51478     51476     51479     51482
     51479     51482     51485     51486     51479     51482     51485     51487
     51479     51482     51485     51488     51480     51479     51482     51483
     51480     51479     51482     51484     51480     51479     51482     51485
     51481     51479     51482     51483     51481     51479     51482     51484
     51481     51479     51482     51485     51482     51485     51488     51489
     51482     51485     51488     51490     51482     51485     51488     51491
     51483     51482     51485     51486     51483     51482     51485     51487
     51483     51482     51485     51488     51484     51482     51485     51486
     51484     51482     51485     51487     51484     51482     51485     51488
     51485     51488     51491     51492     51485     51488     51491     51493
     51485     51488     51491     51494     51486     51485     51488     51489
     51486     51485     51488     51490     51486     51485     51488     51491
     51487     51485     51488     51489     51487     51485     51488     51490
     51487     51485     51488     51491     51488     51491     51494     51495
     51488     51491     51494     51496     51488     51491     51494     51497
     51489     51488     51491     51492     51489     51488     51491     51493
     51489     51488     51491     51494     51490     51488     51491     51492
     51490     51488     51491     51493     51490     51488     51491     51494
     51491     51494     51497     51498     51491     51494     51497     51499
     51491     51494     51497     51500     51492     51491     51494     51495
     51492     51491     51494     51496     51492     51491     51494     51497
     51493     51491     51494     51495     51493     51491     51494     51496
     51493     51491     51494     51497     51494     51497     51500     51501
     51494     51497     51500     51502     51494     51497     51500     51503
     51495     51494     51497     51498     51495     51494     51497     51499
     51495     51494     51497     51500     51496     51494     51497     51498
     51496     51494     51497     51499     51496     51494     51497     51500
     51497     51500     51503     51504     51497     51500     51503     51505
     51497     51500     51503     51506     51498     51497     51500     51501
     51498     51497     51500     51502     51498     51497     51500     51503
     51499     51497     51500     51501     51499     51497     51500     51502
     51499     51497     51500     51503     51500     51503     51506     51507
     51500     51503     51506     51508     51500     51503     51506     51509
     51501     51500     51503     51504     51501     51500     51503     51505
     51501     51500     51503     51506     51502     51500     51503     51504
     51502     51500     51503     51505     51502     51500     51503     51506
     51503     51506     51509     51510     51503     51506     51509     51511
     51503     51506     51509     51512     51504     51503     51506     51507
     51504     51503     51506     51508     51504     51503     51506     51509
     51505     51503     51506     51507     51505     51503     51506     51508
     51505     51503     51506     51509     51506     51509     51512     51513
     51506     51509     51512     51514     51506     51509     51512     51515
     51507     51506     51509     51510     51507     51506     51509     51511
     51507     51506     51509     51512     51508     51506     51509     51510
     51508     51506     51509     51511     51508     51506     51509     51512
     51510     51509     51512     51513     51510     51509     51512     51514
     51510     51509     51512     51515     51511     51509     51512     51513
     51511     51509     51512     51514     51511     51509     51512     51515

      1050 !NIMPHI: impropers
       254       256        57       255        57       254        55        58
       138       140        31       139        31       138        29        32
       544       546       542       545       542       544       540       543
       631       633       629       632       629       631       627       630
       659       661       657       660       657       659       655       658
       746       748       744       747       744       746       742       745
       774       776       772       775       772       774       770       773
       861       863       859       862       859       861       857       860
       889       891       887       890       887       889       885       888
       976       978       974       977       974       976       972       975
      1004      1006      1002      1005      1002      1004      1000      1003
      1092      1094      1090      1093      1090      1092      1088      1091
      1364      1366      1167      1365      1167      1364      1165      1168
      1248      1250      1141      1249      1141      1248      1139      1142
      1654      1656      1652      1655      1652      1654      1650      1653
      1741      1743      1739      1742      1739      1741      1737      1740
      1769      1771      1767      1770      1767      1769      1765      1768
      1856      1858      1854      1857      1854      1856      1852      1855
      1884      1886      1882      1885      1882      1884      1880      1883
      1971      1973      1969      1972      1969      1971      1967      1970
      1999      2001      1997      2000      1997      1999      1995      1998
      2086      2088      2084      2087      2084      2086      2082      2085
      2114      2116      2112      2115      2112      2114      2110      2113
      2202      2204      2200      2203      2200      2202      2198      2201
      2474      2476      2277      2475      2277      2474      2275      2278
      2358      2360      2251      2359      2251      2358      2249      2252
      2764      2766      2762      2765      2762      2764      2760      2763
      2851      2853      2849      2852      2849      2851      2847      2850
      2879      2881      2877      2880      2877      2879      2875      2878
      2966      2968      2964      2967      2964      2966      2962      2965
      2994      2996      2992      2995      2992      2994      2990      2993
      3081      3083      3079      3082      3079      3081      3077      3080
      3109      3111      3107      3110      3107      3109      3105      3108
      3196      3198      3194      3197      3194      3196      3192      3195
      3224      3226      3222      3225      3222      3224      3220      3223
      3312      3314      3310      3313      3310      3312      3308      3311
      3584      3586      3387      3585      3387      3584      3385      3388
      3468      3470      3361      3469      3361      3468      3359      3362
      3874      3876      3872      3875      3872      3874      3870      3873
      3961      3963      3959      3962      3959      3961      3957      3960
      3989      3991      3987      3990      3987      3989      3985      3988
      4076      4078      4074      4077      4074      4076      4072      4075
      4104      4106      4102      4105      4102      4104      4100      4103
      4191      4193      4189      4192      4189      4191      4187      4190
      4219      4221      4217      4220      4217      4219      4215      4218
      4306      4308      4304      4307      4304      4306      4302      4305
      4334      4336      4332      4335      4332      4334      4330      4333
      4422      4424      4420      4423      4420      4422      4418      4421
      4694      4696      4497      4695      4497      4694      4495      4498
      4578      4580      4471      4579      4471      4578      4469      4472
      4984      4986      4982      4985      4982      4984      4980      4983
      5071      5073      5069      5072      5069      5071      5067      5070
      5099      5101      5097      5100      5097      5099      5095      5098
      5186      5188      5184      5187      5184      5186      5182      5185
      5214      5216      5212      5215      5212      5214      5210      5213
      5301      5303      5299      5302      5299      5301      5297      5300
      5329      5331      5327      5330      5327      5329      5325      5328
      5416      5418      5414      5417      5414      5416      5412      5415
      5444      5446      5442      5445      5442      5444      5440      5443
      5532      5534      5530      5533      5530      5532      5528      5531
      5804      5806      5607      5805      5607      5804      5605      5608
      5688      5690      5581      5689      5581      5688      5579      5582
      6094      6096      6092      6095      6092      6094      6090      6093
      6181      6183      6179      6182      6179      6181      6177      6180
      6209      6211      6207      6210      6207      6209      6205      6208
      6296      6298      6294      6297      6294      6296      6292      6295
      6324      6326      6322      6325      6322      6324      6320      6323
      6411      6413      6409      6412      6409      6411      6407      6410
      6439      6441      6437      6440      6437      6439      6435      6438
      6526      6528      6524      6527      6524      6526      6522      6525
      6554      6556      6552      6555      6552      6554      6550      6553
      6642      6644      6640      6643      6640      6642      6638      6641
      6914      6916      6717      6915      6717      6914      6715      6718
      6798      6800      6691      6799      6691      6798      6689      6692
      7204      7206      7202      7205      7202      7204      7200      7203
      7291      7293      7289      7292      7289      7291      7287      7290
      7319      7321      7317      7320      7317      7319      7315      7318
      7406      7408      7404      7407      7404      7406      7402      7405
      7434      7436      7432      7435      7432      7434      7430      7433
      7521      7523      7519      7522      7519      7521      7517      7520
      7549      7551      7547      7550      7547      7549      7545      7548
      7636      7638      7634      7637      7634      7636      7632      7635
      7664      7666      7662      7665      7662      7664      7660      7663
      7752      7754      7750      7753      7750      7752      7748      7751
      8024      8026      7827      8025      7827      8024      7825      7828
      7908      7910      7801      7909      7801      7908      7799      7802
      8314      8316      8312      8315      8312      8314      8310      8313
      8401      8403      8399      8402      8399      8401      8397      8400
      8429      8431      8427      8430      8427      8429      8425      8428
      8516      8518      8514      8517      8514      8516      8512      8515
      8544      8546      8542      8545      8542      8544      8540      8543
      8631      8633      8629      8632      8629      8631      8627      8630
      8659      8661      8657      8660      8657      8659      8655      8658
      8746      8748      8744      8747      8744      8746      8742      8745
      8774      8776      8772      8775      8772      8774      8770      8773
      8862      8864      8860      8863      8860      8862      8858      8861
      9134      9136      8937      9135      8937      9134      8935      8938
      9018      9020      8911      9019      8911      9018      8909      8912
      9424      9426      9422      9425      9422      9424      9420      9423
      9511      9513      9509      9512      9509      9511      9507      9510
      9539      9541      9537      9540      9537      9539      9535      9538
      9626      9628      9624      9627      9624      9626      9622      9625
      9654      9656      9652      9655      9652      9654      9650      9653
      9741      9743      9739      9742      9739      9741      9737      9740
      9769      9771      9767      9770      9767      9769      9765      9768
      9856      9858      9854      9857      9854      9856      9852      9855
      9884      9886      9882      9885      9882      9884      9880      9883
      9972      9974      9970      9973      9970      9972      9968      9971
     10244     10246     10047     10245     10047     10244     10045     10048
     10128     10130     10021     10129     10021     10128     10019     10022
     10534     10536     10532     10535     10532     10534     10530     10533
     10621     10623     10619     10622     10619     10621     10617     10620
     10649     10651     10647     10650     10647     10649     10645     10648
     10736     10738     10734     10737     10734     10736     10732     10735
     10764     10766     10762     10765     10762     10764     10760     10763
     10851     10853     10849     10852     10849     10851     10847     10850
     10879     10881     10877     10880     10877     10879     10875     10878
     10966     10968     10964     10967     10964     10966     10962     10965
     10994     10996     10992     10995     10992     10994     10990     10993
     11082     11084     11080     11083     11080     11082     11078     11081
     11354     11356     11157     11355     11157     11354     11155     11158
     11238     11240     11131     11239     11131     11238     11129     11132
     11644     11646     11642     11645     11642     11644     11640     11643
     11731     11733     11729     11732     11729     11731     11727     11730
     11759     11761     11757     11760     11757     11759     11755     11758
     11846     11848     11844     11847     11844     11846     11842     11845
     11874     11876     11872     11875     11872     11874     11870     11873
     11961     11963     11959     11962     11959     11961     11957     11960
     11989     11991     11987     11990     11987     11989     11985     11988
     12076     12078     12074     12077     12074     12076     12072     12075
     12104     12106     12102     12105     12102     12104     12100     12103
     12192     12194     12190     12193     12190     12192     12188     12191
     12464     12466     12267     12465     12267     12464     12265     12268
     12348     12350     12241     12349     12241     12348     12239     12242
     12754     12756     12752     12755     12752     12754     12750     12753
     12841     12843     12839     12842     12839     12841     12837     12840
     12869     12871     12867     12870     12867     12869     12865     12868
     12956     12958     12954     12957     12954     12956     12952     12955
     12984     12986     12982     12985     12982     12984     12980     12983
     13071     13073     13069     13072     13069     13071     13067     13070
     13099     13101     13097     13100     13097     13099     13095     13098
     13186     13188     13184     13187     13184     13186     13182     13185
     13214     13216     13212     13215     13212     13214     13210     13213
     13302     13304     13300     13303     13300     13302     13298     13301
     13574     13576     13377     13575     13377     13574     13375     13378
     13458     13460     13351     13459     13351     13458     13349     13352
     13864     13866     13862     13865     13862     13864     13860     13863
     13951     13953     13949     13952     13949     13951     13947     13950
     13979     13981     13977     13980     13977     13979     13975     13978
     14066     14068     14064     14067     14064     14066     14062     14065
     14094     14096     14092     14095     14092     14094     14090     14093
     14181     14183     14179     14182     14179     14181     14177     14180
     14209     14211     14207     14210     14207     14209     14205     14208
     14296     14298     14294     14297     14294     14296     14292     14295
     14324     14326     14322     14325     14322     14324     14320     14323
     14412     14414     14410     14413     14410     14412     14408     14411
     14684     14686     14487     14685     14487     14684     14485     14488
     14568     14570     14461     14569     14461     14568     14459     14462
     14974     14976     14972     14975     14972     14974     14970     14973
     15061     15063     15059     15062     15059     15061     15057     15060
     15089     15091     15087     15090     15087     15089     15085     15088
     15176     15178     15174     15177     15174     15176     15172     15175
     15204     15206     15202     15205     15202     15204     15200     15203
     15291     15293     15289     15292     15289     15291     15287     15290
     15319     15321     15317     15320     15317     15319     15315     15318
     15406     15408     15404     15407     15404     15406     15402     15405
     15434     15436     15432     15435     15432     15434     15430     15433
     15522     15524     15520     15523     15520     15522     15518     15521
     15794     15796     15597     15795     15597     15794     15595     15598
     15678     15680     15571     15679     15571     15678     15569     15572
     16084     16086     16082     16085     16082     16084     16080     16083
     16171     16173     16169     16172     16169     16171     16167     16170
     16199     16201     16197     16200     16197     16199     16195     16198
     16286     16288     16284     16287     16284     16286     16282     16285
     16314     16316     16312     16315     16312     16314     16310     16313
     16401     16403     16399     16402     16399     16401     16397     16400
     16429     16431     16427     16430     16427     16429     16425     16428
     16516     16518     16514     16517     16514     16516     16512     16515
     16544     16546     16542     16545     16542     16544     16540     16543
     16632     16634     16630     16633     16630     16632     16628     16631
     16904     16906     16707     16905     16707     16904     16705     16708
     16788     16790     16681     16789     16681     16788     16679     16682
     17194     17196     17192     17195     17192     17194     17190     17193
     17281     17283     17279     17282     17279     17281     17277     17280
     17309     17311     17307     17310     17307     17309     17305     17308
     17396     17398     17394     17397     17394     17396     17392     17395
     17424     17426     17422     17425     17422     17424     17420     17423
     17511     17513     17509     17512     17509     17511     17507     17510
     17539     17541     17537     17540     17537     17539     17535     17538
     17626     17628     17624     17627     17624     17626     17622     17625
     17654     17656     17652     17655     17652     17654     17650     17653
     17742     17744     17740     17743     17740     17742     17738     17741
     18014     18016     17817     18015     17817     18014     17815     17818
     17898     17900     17791     17899     17791     17898     17789     17792
     18304     18306     18302     18305     18302     18304     18300     18303
     18391     18393     18389     18392     18389     18391     18387     18390
     18419     18421     18417     18420     18417     18419     18415     18418
     18506     18508     18504     18507     18504     18506     18502     18505
     18534     18536     18532     18535     18532     18534     18530     18533
     18621     18623     18619     18622     18619     18621     18617     18620
     18649     18651     18647     18650     18647     18649     18645     18648
     18736     18738     18734     18737     18734     18736     18732     18735
     18764     18766     18762     18765     18762     18764     18760     18763
     18852     18854     18850     18853     18850     18852     18848     18851
     19124     19126     18927     19125     18927     19124     18925     18928
     19008     19010     18901     19009     18901     19008     18899     18902
     19414     19416     19412     19415     19412     19414     19410     19413
     19501     19503     19499     19502     19499     19501     19497     19500
     19529     19531     19527     19530     19527     19529     19525     19528
     19616     19618     19614     19617     19614     19616     19612     19615
     19644     19646     19642     19645     19642     19644     19640     19643
     19731     19733     19729     19732     19729     19731     19727     19730
     19759     19761     19757     19760     19757     19759     19755     19758
     19846     19848     19844     19847     19844     19846     19842     19845
     19874     19876     19872     19875     19872     19874     19870     19873
     19962     19964     19960     19963     19960     19962     19958     19961
     20234     20236     20037     20235     20037     20234     20035     20038
     20118     20120     20011     20119     20011     20118     20009     20012
     20524     20526     20522     20525     20522     20524     20520     20523
     20611     20613     20609     20612     20609     20611     20607     20610
     20639     20641     20637     20640     20637     20639     20635     20638
     20726     20728     20724     20727     20724     20726     20722     20725
     20754     20756     20752     20755     20752     20754     20750     20753
     20841     20843     20839     20842     20839     20841     20837     20840
     20869     20871     20867     20870     20867     20869     20865     20868
     20956     20958     20954     20957     20954     20956     20952     20955
     20984     20986     20982     20985     20982     20984     20980     20983
     21072     21074     21070     21073     21070     21072     21068     21071
     21344     21346     21147     21345     21147     21344     21145     21148
     21228     21230     21121     21229     21121     21228     21119     21122
     21634     21636     21632     21635     21632     21634     21630     21633
     21721     21723     21719     21722     21719     21721     21717     21720
     21749     21751     21747     21750     21747     21749     21745     21748
     21836     21838     21834     21837     21834     21836     21832     21835
     21864     21866     21862     21865     21862     21864     21860     21863
     21951     21953     21949     21952     21949     21951     21947     21950
     21979     21981     21977     21980     21977     21979     21975     21978
     22066     22068     22064     22067     22064     22066     22062     22065
     22094     22096     22092     22095     22092     22094     22090     22093
     22182     22184     22180     22183     22180     22182     22178     22181
     22454     22456     22257     22455     22257     22454     22255     22258
     22338     22340     22231     22339     22231     22338     22229     22232
     22744     22746     22742     22745     22742     22744     22740     22743
     22831     22833     22829     22832     22829     22831     22827     22830
     22859     22861     22857     22860     22857     22859     22855     22858
     22946     22948     22944     22947     22944     22946     22942     22945
     22974     22976     22972     22975     22972     22974     22970     22973
     23061     23063     23059     23062     23059     23061     23057     23060
     23089     23091     23087     23090     23087     23089     23085     23088
     23176     23178     23174     23177     23174     23176     23172     23175
     23204     23206     23202     23205     23202     23204     23200     23203
     23292     23294     23290     23293     23290     23292     23288     23291
     23564     23566     23367     23565     23367     23564     23365     23368
     23448     23450     23341     23449     23341     23448     23339     23342
     23854     23856     23852     23855     23852     23854     23850     23853
     23941     23943     23939     23942     23939     23941     23937     23940
     23969     23971     23967     23970     23967     23969     23965     23968
     24056     24058     24054     24057     24054     24056     24052     24055
     24084     24086     24082     24085     24082     24084     24080     24083
     24171     24173     24169     24172     24169     24171     24167     24170
     24199     24201     24197     24200     24197     24199     24195     24198
     24286     24288     24284     24287     24284     24286     24282     24285
     24314     24316     24312     24315     24312     24314     24310     24313
     24402     24404     24400     24403     24400     24402     24398     24401
     24674     24676     24477     24675     24477     24674     24475     24478
     24558     24560     24451     24559     24451     24558     24449     24452
     24964     24966     24962     24965     24962     24964     24960     24963
     25051     25053     25049     25052     25049     25051     25047     25050
     25079     25081     25077     25080     25077     25079     25075     25078
     25166     25168     25164     25167     25164     25166     25162     25165
     25194     25196     25192     25195     25192     25194     25190     25193
     25281     25283     25279     25282     25279     25281     25277     25280
     25309     25311     25307     25310     25307     25309     25305     25308
     25396     25398     25394     25397     25394     25396     25392     25395
     25424     25426     25422     25425     25422     25424     25420     25423
     25512     25514     25510     25513     25510     25512     25508     25511
     25784     25786     25587     25785     25587     25784     25585     25588
     25668     25670     25561     25669     25561     25668     25559     25562
     26074     26076     26072     26075     26072     26074     26070     26073
     26161     26163     26159     26162     26159     26161     26157     26160
     26189     26191     26187     26190     26187     26189     26185     26188
     26276     26278     26274     26277     26274     26276     26272     26275
     26304     26306     26302     26305     26302     26304     26300     26303
     26391     26393     26389     26392     26389     26391     26387     26390
     26419     26421     26417     26420     26417     26419     26415     26418
     26506     26508     26504     26507     26504     26506     26502     26505
     26534     26536     26532     26535     26532     26534     26530     26533
     26622     26624     26620     26623     26620     26622     26618     26621
     26894     26896     26697     26895     26697     26894     26695     26698
     26778     26780     26671     26779     26671     26778     26669     26672
     27184     27186     27182     27185     27182     27184     27180     27183
     27271     27273     27269     27272     27269     27271     27267     27270
     27299     27301     27297     27300     27297     27299     27295     27298
     27386     27388     27384     27387     27384     27386     27382     27385
     27414     27416     27412     27415     27412     27414     27410     27413
     27501     27503     27499     27502     27499     27501     27497     27500
     27529     27531     27527     27530     27527     27529     27525     27528
     27616     27618     27614     27617     27614     27616     27612     27615
     27644     27646     27642     27645     27642     27644     27640     27643
     27732     27734     27730     27733     27730     27732     27728     27731
     28004     28006     27807     28005     27807     28004     27805     27808
     27888     27890     27781     27889     27781     27888     27779     27782
     28294     28296     28292     28295     28292     28294     28290     28293
     28381     28383     28379     28382     28379     28381     28377     28380
     28409     28411     28407     28410     28407     28409     28405     28408
     28496     28498     28494     28497     28494     28496     28492     28495
     28524     28526     28522     28525     28522     28524     28520     28523
     28611     28613     28609     28612     28609     28611     28607     28610
     28639     28641     28637     28640     28637     28639     28635     28638
     28726     28728     28724     28727     28724     28726     28722     28725
     28754     28756     28752     28755     28752     28754     28750     28753
     28842     28844     28840     28843     28840     28842     28838     28841
     29114     29116     28917     29115     28917     29114     28915     28918
     28998     29000     28891     28999     28891     28998     28889     28892
     29404     29406     29402     29405     29402     29404     29400     29403
     29491     29493     29489     29492     29489     29491     29487     29490
     29519     29521     29517     29520     29517     29519     29515     29518
     29606     29608     29604     29607     29604     29606     29602     29605
     29634     29636     29632     29635     29632     29634     29630     29633
     29721     29723     29719     29722     29719     29721     29717     29720
     29749     29751     29747     29750     29747     29749     29745     29748
     29836     29838     29834     29837     29834     29836     29832     29835
     29864     29866     29862     29865     29862     29864     29860     29863
     29952     29954     29950     29953     29950     29952     29948     29951
     30224     30226     30027     30225     30027     30224     30025     30028
     30108     30110     30001     30109     30001     30108     29999     30002
     30514     30516     30512     30515     30512     30514     30510     30513
     30601     30603     30599     30602     30599     30601     30597     30600
     30629     30631     30627     30630     30627     30629     30625     30628
     30716     30718     30714     30717     30714     30716     30712     30715
     30744     30746     30742     30745     30742     30744     30740     30743
     30831     30833     30829     30832     30829     30831     30827     30830
     30859     30861     30857     30860     30857     30859     30855     30858
     30946     30948     30944     30947     30944     30946     30942     30945
     30974     30976     30972     30975     30972     30974     30970     30973
     31062     31064     31060     31063     31060     31062     31058     31061
     31334     31336     31137     31335     31137     31334     31135     31138
     31218     31220     31111     31219     31111     31218     31109     31112
     31624     31626     31622     31625     31622     31624     31620     31623
     31711     31713     31709     31712     31709     31711     31707     31710
     31739     31741     31737     31740     31737     31739     31735     31738
     31826     31828     31824     31827     31824     31826     31822     31825
     31854     31856     31852     31855     31852     31854     31850     31853
     31941     31943     31939     31942     31939     31941     31937     31940
     31969     31971     31967     31970     31967     31969     31965     31968
     32056     32058     32054     32057     32054     32056     32052     32055
     32084     32086     32082     32085     32082     32084     32080     32083
     32172     32174     32170     32173     32170     32172     32168     32171
     32444     32446     32247     32445     32247     32444     32245     32248
     32328     32330     32221     32329     32221     32328     32219     32222
     32734     32736     32732     32735     32732     32734     32730     32733
     32821     32823     32819     32822     32819     32821     32817     32820
     32849     32851     32847     32850     32847     32849     32845     32848
     32936     32938     32934     32937     32934     32936     32932     32935
     32964     32966     32962     32965     32962     32964     32960     32963
     33051     33053     33049     33052     33049     33051     33047     33050
     33079     33081     33077     33080     33077     33079     33075     33078
     33166     33168     33164     33167     33164     33166     33162     33165
     33194     33196     33192     33195     33192     33194     33190     33193
     33282     33284     33280     33283     33280     33282     33278     33281
     33554     33556     33357     33555     33357     33554     33355     33358
     33438     33440     33331     33439     33331     33438     33329     33332
     33844     33846     33842     33845     33842     33844     33840     33843
     33931     33933     33929     33932     33929     33931     33927     33930
     33959     33961     33957     33960     33957     33959     33955     33958
     34046     34048     34044     34047     34044     34046     34042     34045
     34074     34076     34072     34075     34072     34074     34070     34073
     34161     34163     34159     34162     34159     34161     34157     34160
     34189     34191     34187     34190     34187     34189     34185     34188
     34276     34278     34274     34277     34274     34276     34272     34275
     34304     34306     34302     34305     34302     34304     34300     34303
     34392     34394     34390     34393     34390     34392     34388     34391
     34664     34666     34467     34665     34467     34664     34465     34468
     34548     34550     34441     34549     34441     34548     34439     34442
     34954     34956     34952     34955     34952     34954     34950     34953
     35041     35043     35039     35042     35039     35041     35037     35040
     35069     35071     35067     35070     35067     35069     35065     35068
     35156     35158     35154     35157     35154     35156     35152     35155
     35184     35186     35182     35185     35182     35184     35180     35183
     35271     35273     35269     35272     35269     35271     35267     35270
     35299     35301     35297     35300     35297     35299     35295     35298
     35386     35388     35384     35387     35384     35386     35382     35385
     35414     35416     35412     35415     35412     35414     35410     35413
     35502     35504     35500     35503     35500     35502     35498     35501
     35774     35776     35577     35775     35577     35774     35575     35578
     35658     35660     35551     35659     35551     35658     35549     35552
     36064     36066     36062     36065     36062     36064     36060     36063
     36151     36153     36149     36152     36149     36151     36147     36150
     36179     36181     36177     36180     36177     36179     36175     36178
     36266     36268     36264     36267     36264     36266     36262     36265
     36294     36296     36292     36295     36292     36294     36290     36293
     36381     36383     36379     36382     36379     36381     36377     36380
     36409     36411     36407     36410     36407     36409     36405     36408
     36496     36498     36494     36497     36494     36496     36492     36495
     36524     36526     36522     36525     36522     36524     36520     36523
     36612     36614     36610     36613     36610     36612     36608     36611
     36884     36886     36687     36885     36687     36884     36685     36688
     36768     36770     36661     36769     36661     36768     36659     36662
     37174     37176     37172     37175     37172     37174     37170     37173
     37261     37263     37259     37262     37259     37261     37257     37260
     37289     37291     37287     37290     37287     37289     37285     37288
     37376     37378     37374     37377     37374     37376     37372     37375
     37404     37406     37402     37405     37402     37404     37400     37403
     37491     37493     37489     37492     37489     37491     37487     37490
     37519     37521     37517     37520     37517     37519     37515     37518
     37606     37608     37604     37607     37604     37606     37602     37605
     37634     37636     37632     37635     37632     37634     37630     37633
     37722     37724     37720     37723     37720     37722     37718     37721
     37994     37996     37797     37995     37797     37994     37795     37798
     37878     37880     37771     37879     37771     37878     37769     37772
     38284     38286     38282     38285     38282     38284     38280     38283
     38371     38373     38369     38372     38369     38371     38367     38370
     38399     38401     38397     38400     38397     38399     38395     38398
     38486     38488     38484     38487     38484     38486     38482     38485
     38514     38516     38512     38515     38512     38514     38510     38513
     38601     38603     38599     38602     38599     38601     38597     38600
     38629     38631     38627     38630     38627     38629     38625     38628
     38716     38718     38714     38717     38714     38716     38712     38715
     38744     38746     38742     38745     38742     38744     38740     38743
     38832     38834     38830     38833     38830     38832     38828     38831
     38874     38873     38876     38875     38883     38882     38885     38884
     38999     38998     39001     39000     39008     39007     39010     39009
     39118     39117     39120     39119     39127     39126     39129     39128
     39239     39238     39241     39240     39248     39247     39250     39249
     39364     39363     39366     39365     39373     39372     39375     39374
     39483     39482     39485     39484     39492     39491     39494     39493
     39602     39601     39604     39603     39611     39610     39613     39612
     39721     39720     39723     39722     39730     39729     39732     39731
     39840     39839     39842     39841     39849     39848     39851     39850
     39961     39960     39963     39962     39970     39969     39972     39971
     40086     40085     40088     40087     40095     40094     40097     40096
     40205     40204     40207     40206     40214     40213     40216     40215
     40324     40323     40326     40325     40333     40332     40335     40334
     40443     40442     40445     40444     40452     40451     40454     40453
     40562     40561     40564     40563     40571     40570     40573     40572
     40681     40680     40683     40682     40690     40689     40692     40691
     40802     40801     40804     40803     40811     40810     40813     40812
     40929     40928     40931     40930     40938     40937     40940     40939
     41054     41053     41056     41055     41063     41062     41065     41064
     41173     41172     41175     41174     41182     41181     41184     41183
     41309     41308     41311     41310     41300     41299     41302     41301
     41326     41325     41328     41327     41317     41316     41319     41318
     41532     41531     41534     41533     41541     41540     41543     41542
     41653     41652     41655     41654     41662     41661     41664     41663
     41778     41777     41780     41779     41787     41786     41789     41788
     41897     41896     41899     41898     41906     41905     41908     41907
     42016     42015     42018     42017     42025     42024     42027     42026
     42135     42134     42137     42136     42144     42143     42146     42145
     42254     42253     42256     42255     42263     42262     42265     42264
     42373     42372     42375     42374     42382     42381     42384     42383
     42494     42493     42496     42495     42503     42502     42505     42504
     42619     42618     42621     42620     42628     42627     42630     42629
     42738     42737     42740     42739     42747     42746     42749     42748
     42857     42856     42859     42858     42866     42865     42868     42867
     42976     42975     42978     42977     42985     42984     42987     42986
     43095     43094     43097     43096     43104     43103     43106     43105
     43216     43215     43218     43217     43225     43224     43227     43226
     43343     43342     43345     43344     43352     43351     43354     43353
     43468     43467     43470     43469     43477     43476     43479     43478
     43589     43588     43591     43590     43598     43597     43600     43599
     43714     43713     43716     43715     43723     43722     43725     43724
     43833     43832     43835     43834     43842     43841     43844     43843
     43969     43968     43971     43970     43960     43959     43962     43961
     43986     43985     43988     43987     43977     43976     43979     43978
     44192     44191     44194     44193     44201     44200     44203     44202
     44311     44310     44313     44312     44320     44319     44322     44321
     44430     44429     44432     44431     44439     44438     44441     44440
     44549     44548     44551     44550     44558     44557     44560     44559
     44668     44667     44670     44669     44677     44676     44679     44678
     44804     44803     44806     44805     44795     44794     44797     44796
     44821     44820     44823     44822     44812     44811     44814     44813
     45027     45026     45029     45028     45036     45035     45038     45037
     45146     45145     45148     45147     45155     45154     45157     45156
     45265     45264     45267     45266     45274     45273     45276     45275
     45384     45383     45386     45385     45393     45392     45395     45394
     45503     45502     45505     45504     45512     45511     45514     45513
     45622     45621     45624     45623     45631     45630     45633     45632
     45741     45740     45743     45742     45750     45749     45752     45751
     45860     45859     45862     45861     45869     45868     45871     45870
     45979     45978     45981     45980     45988     45987     45990     45989
     46098     46097     46100     46099     46107     46106     46109     46108
     46219     46218     46221     46220     46228     46227     46230     46229
     46344     46343     46346     46345     46353     46352     46355     46354
     46463     46462     46465     46464     46472     46471     46474     46473
     46582     46581     46584     46583     46591     46590     46593     46592
     46701     46700     46703     46702     46710     46709     46712     46711
     46820     46819     46822     46821     46829     46828     46831     46830
     46941     46940     46943     46942     46950     46949     46952     46951
     47068     47067     47070     47069     47077     47076     47079     47078
     47193     47192     47195     47194     47202     47201     47204     47203
     47312     47311     47314     47313     47321     47320     47323     47322
     47431     47430     47433     47432     47440     47439     47442     47441
     47552     47551     47554     47553     47561     47560     47563     47562
     47677     47676     47679     47678     47686     47685     47688     47687
     47798     47797     47800     47799     47807     47806     47809     47808
     47925     47924     47927     47926     47934     47933     47936     47935
     48050     48049     48052     48051     48059     48058     48061     48060
     48169     48168     48171     48170     48178     48177     48180     48179
     48288     48287     48290     48289     48297     48296     48299     48298
     48407     48406     48409     48408     48416     48415     48418     48417
     48526     48525     48528     48527     48535     48534     48537     48536
     48645     48644     48647     48646     48654     48653     48656     48655
     48764     48763     48766     48765     48773     48772     48775     48774
     48883     48882     48885     48884     48892     48891     48894     48893
     49002     49001     49004     49003     49011     49010     49013     49012
     49121     49120     49123     49122     49130     49129     49132     49131
     49240     49239     49242     49241     49249     49248     49251     49250
     49361     49360     49363     49362     49370     49369     49372     49371
     49486     49485     49488     49487     49495     49494     49497     49496
     49605     49604     49607     49606     49614     49613     49616     49615
     49741     49740     49743     49742     49732     49731     49734     49733
     49758     49757     49760     49759     49749     49748     49751     49750
     49966     49965     49968     49967     49975     49974     49977     49976
     50091     50090     50093     50092     50100     50099     50102     50101
     50210     50209     50212     50211     50219     50218     50221     50220
     50329     50328     50331     50330     50338     50337     50340     50339
     50448     50447     50450     50449     50457     50456     50459     50458
     50567     50566     50569     50568     50576     50575     50578     50577
     50686     50685     50688     50687     50695     50694     50697     50696
     50805     50804     50807     50806     50814     50813     50816     50815
     50926     50925     50928     50927     50935     50934     50937     50936
     51051     51050     51053     51052     51060     51059     51062     51061
     51172     51171     51174     51173     51181     51180     51183     51182
     51314     51313     51316     51315     51305     51304     51307     51306
     51331     51330     51333     51332     51322     51321     51324     51323

         0 !NDON: donors


         0 !NACC: acceptors


         0 !NNB

         0         0         0         0         0         0         0         0
         0         0         0         0         0         0         0         0
         0         0         0         0         0         0         0         0
         0         0         0         0         0         0         0         0
         0         0         0         0         0         0         0         0
         0         0         0         0         0         0         0         0
         0         0         0         0         0         0         0         0
         0         0         0         0         0         0         0         0
         0         0         0         0         0         0         0         0
         0         0         0         0         0         0         0         0
         0         0         0         0         0         0         0         0
         0         0         0         0         0         0         0         0
         0         0         0         0         0         0         0         0
         0         0         0         0         0         0         0         0
         0         0         0         0         0         0         0         0
         0         0         0         0         0         0         0         0
         0         0         0         0         0         0         0         0
         0         0         0         0         0         0         0         0
         0         0         0         0         0         0         0         0
         0         0         0         0         0         0         0         0
         0         0         0         0         0         0         0         0
         0         0         0         0         0         0         0         0
         0         0         0         0         0         0         0         0
         0         0         0         0         0         0         0         0
         0         0         0         0         0         0         0         0
         0         0         0         0         0         0         0         0
         0         0         0         0         0         0         0         0
         0         0         0         0         0         0         0         0
         0         0         0         0         0         0         0         0
         0         0         0         0         0         0         0         0
         0         0         0         0         0         0         0         0
         0         0         0         0         0         0         0         0
         0         0         0         0         0         0         0         0
         0         0         0         0         0         0         0         0
         0         0         0         0         0         0         0         0
         0         0         0         0         0         0         0         0
         0         0         0         0         0         0         0         0
         0         0         0         0         0         0         0         0
         0         0         0         0         0         0         0         0
         0         0         0         0         0         0         0         0
         0         0         0         0         0         0         0         0
         0         0         0         0         0         0         0         0
         0         0         0         0         0         0         0         0
         0         0         0         0         0         0         0         0
         0         0         0         0         0         0         0         0
         0         0         0         0         0         0         0         0
         0         0         0         0         0         0         0         0
         0         0         0         0         0         0         0         0
         0         0         0         0         0         0         0         0
         0         0         0         0         0         0         0         0
         0         0         0         0         0         0         0         0
         0         0         0         0         0         0         0         0
         0         0         0         0         0         0         0         0
         0         0         0         0         0         0         0         0
         0         0         0         0         0         0         0         0
         0         0         0         0         0         0         0         0
         0         0         0         0         0         0         0         0
         0         0         0         0         0         0         0         0
         0         0         0         0         0         0         0         0
         0         0         0         0         0         0         0         0
         0         0         0         0         0         0         0         0
         0         0         0         0         0         0         0         0
         0         0         0         0         0         0         0         0
         0         0         0         0         0         0         0         0
         0         0         0         0         0         0         0         0
         0         0         0         0         0         0         0         0
         0         0         0         0         0         0         0         0
         0         0         0         0         0         0         0         0
         0         0         0         0         0         0         0         0
         0         0         0         0         0         0         0         0
         0         0         0         0         0         0         0         0
         0         0         0         0         0         0         0         0
         0         0         0         0         0         0         0         0
         0         0         0         0         0         0         0         0
         0         0         0         0         0         0         0         0
         0         0         0         0         0         0         0         0
         0         0         0         0         0         0         0         0
         0         0         0         0         0         0         0         0
         0         0         0         0         0         0         0         0
         0         0         0         0         0         0         0         0
         0         0         0         0         0         0         0         0
         0         0         0         0         0         0         0         0
         0         0         0         0         0         0         0         0
         0         0         0         0         0         0         0         0
         0         0         0         0         0         0         0         0
         0         0         0         0         0         0         0         0
         0         0         0         0         0         0         0         0
         0         0         0         0         0         0         0         0
         0         0         0         0         0         0         0         0
         0         0         0         0         0         0         0         0
         0         0         0         0         0         0         0         0
         0         0         0         0         0         0         0         0
         0         0         0         0         0         0         0         0
         0         0         0         0         0         0         0         0
         0         0         0         0         0         0         0         0
         0         0         0         0         0         0         0         0
         0         0         0         0         0         0         0         0
         0         0         0         0         0         0         0         0
         0         0         0         0         0         0         0         0
         0         0         0         0         0         0         0         0
         0         0         0         0         0         0         0         0
         0         0         0         0         0         0         0         0
         0         0         0         0         0         0         0         0
         0         0         0         0         0         0         0         0
         0         0         0         0         0         0         0         0
         0         0         0         0         0         0         0         0
         0         0         0         0         0         0         0         0
         0         0         0         0         0         0         0         0
         0         0         0         0         0         0         0         0
         0         0         0         0         0         0         0         0
         0         0         0         0         0         0         0         0
         0         0         0         0         0         0         0         0
         0         0         0         0         0         0         0         0
         0         0         0         0         0         0         0         0
         0         0         0         0         0         0         0         0
         0         0         0         0         0         0         0         0
         0         0         0         0         0         0         0         0
         0         0         0         0         0         0         0         0
         0         0         0         0         0         0         0         0
         0         0         0         0         0         0         0         0
         0         0         0         0         0         0         0         0
         0         0         0         0         0         0         0         0
         0         0         0         0         0         0         0         0
         0         0         0         0         0         0         0         0
         0         0         0         0         0         0         0         0
         0         0         0         0         0         0         0         0
         0         0         0         0         0         0         0         0
         0         0         0         0         0         0         0         0
         0         0         0         0         0         0         0         0
         0         0         0         0         0         0         0         0
         0         0         0         0         0         0         0         0
         0         0         0         0         0         0         0         0
         0         0         0         0         0         0         0         0
         0         0         0         0         0         0         0         0
         0         0         0         0         0         0         0         0
         0         0         0         0         0         0         0         0
         0         0         0         0         0         0         0         0
         0         0         0         0         0         0         0         0
         0         0         0         0         0         0         0         0
         0         0         0         0         0         0         0         0
         0         0         0         0         0         0         0         0
         0         0         0         0         0         0         0         0
         0         0         0         0         0         0         0         0
         0         0         0         0         0         0         0         0
         0         0         0         0         0         0         0         0
         0         0         0         0         0         0         0         0
         0         0         0         0         0         0         0         0
         0         0         0         0         0         0         0         0
         0         0         0         0         0         0         0         0
         0         0         0         0         0         0         0         0
         0         0         0         0         0         0         0         0
         0         0         0         0         0         0         0         0
         0         0         0         0         0         0         0         0
         0         0         0         0         0         0         0         0
         0         0         0         0         0         0         0         0
         0         0         0         0         0         0         0         0
         0         0         0         0         0         0         0         0
         0         0         0         0         0         0         0         0
         0         0         0         0         0         0         0         0
         0         0         0         0         0         0         0         0
         0         0         0         0         0         0         0         0
         0         0         0         0         0         0         0         0
         0         0         0         0         0         0         0         0
         0         0         0         0         0         0         0         0
         0         0         0         0         0         0         0         0
         0         0         0         0         0         0         0         0
         0         0         0         0         0         0         0         0
         0         0         0         0         0         0         0         0
         0         0         0         0         0         0         0         0
         0         0         0         0         0         0         0         0
         0         0         0         0         0         0         0         0
         0         0         0         0         0         0         0         0
         0         0         0         0         0         0         0         0
         0         0         0         0         0         0         0         0
         0         0         0         0         0         0         0         0
         0         0         0         0         0         0         0         0
         0         0         0         0         0         0         0         0
         0         0         0         0         0         0         0         0
         0         0         0         0         0         0         0         0
         0         0         0         0         0         0         0         0
         0         0         0         0         0         0         0         0
         0         0         0         0         0         0         0         0
         0         0         0         0         0         0         0         0
         0         0         0         0         0         0         0         0
         0         0         0         0         0         0         0         0
         0         0         0         0         0         0         0         0
         0         0         0         0         0         0         0         0
         0         0         0         0         0         0         0         0
         0         0         0         0         0         0         0         0
         0         0         0         0         0         0         0         0
         0         0         0         0         0         0         0         0
         0         0         0         0         0         0         0         0
         0         0         0         0         0         0         0         0
         0         0         0         0         0         0         0         0
         0         0         0         0         0         0         0         0
         0         0         0         0         0         0         0         0
         0         0         0         0         0         0         0         0
         0         0         0         0         0         0         0         0
         0         0         0         0         0         0         0         0
         0         0         0         0         0         0         0         0
         0         0         0         0         0         0         0         0
         0         0         0         0         0         0         0         0
         0         0         0         0         0         0         0         0
         0         0         0         0         0         0         0         0
         0         0         0         0         0         0         0         0
         0         0         0         0         0         0         0         0
         0         0         0         0         0         0         0         0
         0         0         0         0         0         0         0         0
         0         0         0         0         0         0         0         0
         0         0         0         0         0         0         0         0
         0         0         0         0         0         0         0         0
         0         0         0         0         0         0         0         0
         0         0         0         0         0         0         0         0
         0         0         0         0         0         0         0         0
         0         0         0         0         0         0         0         0
         0         0         0         0         0         0         0         0
         0         0         0         0         0         0         0         0
         0         0         0         0         0         0         0         0
         0         0         0         0         0         0         0         0
         0         0         0         0         0         0         0         0
         0         0         0         0         0         0         0         0
         0         0         0         0         0         0         0         0
         0         0         0         0         0         0         0         0
         0         0         0         0         0         0         0         0
         0         0         0         0         0         0         0         0
         0         0         0         0         0         0         0         0
         0         0         0         0         0         0         0         0
         0         0         0         0         0         0         0         0
         0         0         0         0         0         0         0         0
         0         0         0         0         0         0         0         0
         0         0         0         0         0         0         0         0
         0         0         0         0         0         0         0         0
         0         0         0         0         0         0         0         0
         0         0         0         0         0         0         0         0
         0         0         0         0         0         0         0         0
         0         0         0         0         0         0         0         0
         0         0         0         0         0         0         0         0
         0         0         0         0         0         0         0         0
         0         0         0         0         0         0         0         0
         0         0         0         0         0         0         0         0
         0         0         0         0         0         0         0         0
         0         0         0         0         0         0         0         0
         0         0         0         0         0         0         0         0
         0         0         0         0         0         0         0         0
         0         0         0         0         0         0         0         0
         0         0         0         0         0         0         0         0
         0         0         0         0         0         0         0         0
         0         0         0         0         0         0         0         0
         0         0         0         0         0         0         0         0
         0         0         0         0         0         0         0         0
         0         0         0         0         0         0         0         0
         0         0         0         0         0         0         0         0
         0         0         0         0         0         0         0         0
         0         0         0         0         0         0         0         0
         0         0         0         0         0         0         0         0
         0         0         0         0         0         0         0         0
         0         0         0         0         0         0         0         0
         0         0         0         0         0         0         0         0
         0         0         0         0         0         0         0         0
         0         0         0         0         0         0         0         0
         0         0         0         0         0         0         0         0
         0         0         0         0         0         0         0         0
         0         0         0         0         0         0         0         0
         0         0         0         0         0         0         0         0
         0         0         0         0         0         0         0         0
         0         0         0         0         0         0         0         0
         0         0         0         0         0         0         0         0
         0         0         0         0         0         0         0         0
         0         0         0         0         0         0         0         0
         0         0         0         0         0         0         0         0
         0         0         0         0         0         0         0         0
         0         0         0         0         0         0         0         0
         0         0         0         0         0         0         0         0
         0         0         0         0         0         0         0         0
         0         0         0         0         0         0         0         0
         0         0         0         0         0         0         0         0
         0         0         0         0         0         0         0         0
         0         0         0         0         0         0         0         0
         0         0         0         0         0         0         0         0
         0         0         0         0         0         0         0         0
         0         0         0         0         0         0         0         0
         0         0         0         0         0         0         0         0
         0         0         0         0         0         0         0         0
         0         0         0         0         0         0         0         0
         0         0         0         0         0         0         0         0
         0         0         0         0         0         0         0         0
         0         0         0         0         0         0         0         0
         0         0         0         0         0         0         0         0
         0         0         0         0         0         0         0         0
         0         0         0         0         0         0         0         0
         0         0         0         0         0         0         0         0
         0         0         0         0         0         0         0         0
         0         0         0         0         0         0         0         0
         0         0         0         0         0         0         0         0
         0         0         0         0         0         0         0         0
         0         0         0         0         0         0         0         0
         0         0         0         0         0         0         0         0
         0         0         0         0         0         0         0         0
         0         0         0         0         0         0         0         0
         0         0         0         0         0         0         0         0
         0         0         0         0         0         0         0         0
         0         0         0         0         0         0         0         0
         0         0         0         0         0         0         0         0
         0         0         0         0         0         0         0         0
         0         0         0         0         0         0         0         0
         0         0         0         0         0         0         0         0
         0         0         0         0         0         0         0         0
         0         0         0         0         0         0         0         0
         0         0         0         0         0         0         0         0
         0         0         0         0         0         0         0         0
         0         0         0         0         0         0         0         0
         0         0         0         0         0         0         0         0
         0         0         0         0         0         0         0         0
         0         0         0         0         0         0         0         0
         0         0         0         0         0         0         0         0
         0         0         0         0         0         0         0         0
         0         0         0         0         0         0         0         0
         0         0         0         0         0         0         0         0
         0         0         0         0         0         0         0         0
         0         0         0         0         0         0         0         0
         0         0         0         0         0         0         0         0
         0         0         0         0         0         0         0         0
         0         0         0         0         0         0         0         0
         0         0         0         0         0         0         0         0
         0         0         0         0         0         0         0         0
         0         0         0         0         0         0         0         0
         0         0         0         0         0         0         0         0
         0         0         0         0         0         0         0         0
         0         0         0         0         0         0         0         0
         0         0         0         0         0         0         0         0
         0         0         0         0         0         0         0         0
         0         0         0         0         0         0         0         0
         0         0         0         0         0         0         0         0
         0         0         0         0         0         0         0         0
         0         0         0         0         0         0         0         0
         0         0         0         0         0         0         0         0
         0         0         0         0         0         0         0         0
         0         0         0         0         0         0         0         0
         0         0         0         0         0         0         0         0
         0         0         0         0         0         0         0         0
         0         0         0         0         0         0         0         0
         0         0         0         0         0         0         0         0
         0         0         0         0         0         0         0         0
         0         0         0         0         0         0         0         0
         0         0         0         0         0         0         0         0
         0         0         0         0         0         0         0         0
         0         0         0         0         0         0         0         0
         0         0         0         0         0         0         0         0
         0         0         0         0         0         0         0         0
         0         0         0         0         0         0         0         0
         0         0         0         0         0         0         0         0
         0         0         0         0         0         0         0         0
         0         0         0         0         0         0         0         0
         0         0         0         0         0         0         0         0
         0         0         0         0         0         0         0         0
         0         0         0         0         0         0         0         0
         0         0         0         0         0         0         0         0
         0         0         0         0         0         0         0         0
         0         0         0         0         0         0         0         0
         0         0         0         0         0         0         0         0
         0         0         0         0         0         0         0         0
         0         0         0         0         0         0         0         0
         0         0         0         0         0         0         0         0
         0         0         0         0         0         0         0         0
         0         0         0         0         0         0         0         0
         0         0         0         0         0         0         0         0
         0         0         0         0         0         0         0         0
         0         0         0         0         0         0         0         0
         0         0         0         0         0         0         0         0
         0         0         0         0         0         0         0         0
         0         0         0         0         0         0         0         0
         0         0         0         0         0         0         0         0
         0         0         0         0         0         0         0         0
         0         0         0         0         0         0         0         0
         0         0         0         0         0         0         0         0
         0         0         0         0         0         0         0         0
         0         0         0         0         0         0         0         0
         0         0         0         0         0         0         0         0
         0         0         0         0         0         0         0         0
         0         0         0         0         0         0         0         0
         0         0         0         0         0         0         0         0
         0         0         0         0         0         0         0         0
         0         0         0         0         0         0         0         0
         0         0         0         0         0         0         0         0
         0         0         0         0         0         0         0         0
         0         0         0         0         0         0         0         0
         0         0         0         0         0         0         0         0
         0         0         0         0         0         0         0         0
         0         0         0         0         0         0         0         0
         0         0         0         0         0         0         0         0
         0         0         0         0         0         0         0         0
         0         0         0         0         0         0         0         0
         0         0         0         0         0         0         0         0
         0         0         0         0         0         0         0         0
         0         0         0         0         0         0         0         0
         0         0         0         0         0         0         0         0
         0         0         0         0         0         0         0         0
         0         0         0         0         0         0         0         0
         0         0         0         0         0         0         0         0
         0         0         0         0         0         0         0         0
         0         0         0         0         0         0         0         0
         0         0         0         0         0         0         0         0
         0         0         0         0         0         0         0         0
         0         0         0         0         0         0         0         0
         0         0         0         0         0         0         0         0
         0         0         0         0         0         0         0         0
         0         0         0         0         0         0         0         0
         0         0         0         0         0         0         0         0
         0         0         0         0         0         0         0         0
         0         0         0         0         0         0         0         0
         0         0         0         0         0         0         0         0
         0         0         0         0         0         0         0         0
         0         0         0         0         0         0         0         0
         0         0         0         0         0         0         0         0
         0         0         0         0         0         0         0         0
         0         0         0         0         0         0         0         0
         0         0         0         0         0         0         0         0
         0         0         0         0         0         0         0         0
         0         0         0         0         0         0         0         0
         0         0         0         0         0         0         0         0
         0         0         0         0         0         0         0         0
         0         0         0         0         0         0         0         0
         0         0         0         0         0         0         0         0
         0         0         0         0         0         0         0         0
         0         0         0         0         0         0         0         0
         0         0         0         0         0         0         0         0
         0         0         0         0         0         0         0         0
         0         0         0         0         0         0         0         0
         0         0         0         0         0         0         0         0
         0         0         0         0         0         0         0         0
         0         0         0         0         0         0         0         0
         0         0         0         0         0         0         0         0
         0         0         0         0         0         0         0         0
         0         0         0         0         0         0         0         0
         0         0         0         0         0         0         0         0
         0         0         0         0         0         0         0         0
         0         0         0         0         0         0         0         0
         0         0         0         0         0         0         0         0
         0         0         0         0         0         0         0         0
         0         0         0         0         0         0         0         0
         0         0         0         0         0         0         0         0
         0         0         0         0         0         0         0         0
         0         0         0         0         0         0         0         0
         0         0         0         0         0         0         0         0
         0         0         0         0         0         0         0         0
         0         0         0         0         0         0         0         0
         0         0         0         0         0         0         0         0
         0         0         0         0         0         0         0         0
         0         0         0         0         0         0         0         0
         0         0         0         0         0         0         0         0
         0         0         0         0         0         0         0         0
         0         0         0         0         0         0         0         0
         0         0         0         0         0         0         0         0
         0         0         0         0         0         0         0         0
         0         0         0         0         0         0         0         0
         0         0         0         0         0         0         0         0
         0         0         0         0         0         0         0         0
         0         0         0         0         0         0         0         0
         0         0         0         0         0         0         0         0
         0         0         0         0         0         0         0         0
         0         0         0         0         0         0         0         0
         0         0         0         0         0         0         0         0
         0         0         0         0         0         0         0         0
         0         0         0         0         0         0         0         0
         0         0         0         0         0         0         0         0
         0         0         0         0         0         0         0         0
         0         0         0         0         0         0         0         0
         0         0         0         0         0         0         0         0
         0         0         0         0         0         0         0         0
         0         0         0         0         0         0         0         0
         0         0         0         0         0         0         0         0
         0         0         0         0         0         0         0         0
         0         0         0         0         0         0         0         0
         0         0         0         0         0         0         0         0
         0         0         0         0         0         0         0         0
         0         0         0         0         0         0         0         0
         0         0         0         0         0         0         0         0
         0         0         0         0         0         0         0         0
         0         0         0         0         0         0         0         0
         0         0         0         0         0         0         0         0
         0         0         0         0         0         0         0         0
         0         0         0         0         0         0         0         0
         0         0         0         0         0         0         0         0
         0         0         0         0         0         0         0         0
         0         0         0         0         0         0         0         0
         0         0         0         0         0         0         0         0
         0         0         0         0         0         0         0         0
         0         0         0         0         0         0         0         0
         0         0         0         0         0         0         0         0
         0         0         0         0         0         0         0         0
         0         0         0         0         0         0         0         0
         0         0         0         0         0         0         0         0
         0         0         0         0         0         0         0         0
         0         0         0         0         0         0         0         0
         0         0         0         0         0         0         0         0
         0         0         0         0         0         0         0         0
         0         0         0         0         0         0         0         0
         0         0         0         0         0         0         0         0
         0         0         0         0         0         0         0         0
         0         0         0         0         0         0         0         0
         0         0         0         0         0         0         0         0
         0         0         0         0         0         0         0         0
         0         0         0         0         0         0         0         0
         0         0         0         0         0         0         0         0
         0         0         0         0         0         0         0         0
         0         0         0         0         0         0         0         0
         0         0         0         0         0         0         0         0
         0         0         0         0         0         0         0         0
         0         0         0         0         0         0         0         0
         0         0         0         0         0         0         0         0
         0         0         0         0         0         0         0         0
         0         0         0         0         0         0         0         0
         0         0         0         0         0         0         0         0
         0         0         0         0         0         0         0         0
         0         0         0         0         0         0         0         0
         0         0         0         0         0         0         0         0
         0         0         0         0         0         0         0         0
         0         0         0         0         0         0         0         0
         0         0         0         0         0         0         0         0
         0         0         0         0         0         0         0         0
         0         0         0         0         0         0         0         0
         0         0         0         0         0         0         0         0
         0         0         0         0         0         0         0         0
         0         0         0         0         0         0         0         0
         0         0         0         0         0         0         0         0
         0         0         0         0         0         0         0         0
         0         0         0         0         0         0         0         0
         0         0         0         0         0         0         0         0
         0         0         0         0         0         0         0         0
         0         0         0         0         0         0         0         0
         0         0         0         0         0         0         0         0
         0         0         0         0         0         0         0         0
         0         0         0         0         0         0         0         0
         0         0         0         0         0         0         0         0
         0         0         0         0         0         0         0         0
         0         0         0         0         0         0         0         0
         0         0         0         0         0         0         0         0
         0         0         0         0         0         0         0         0
         0         0         0         0         0         0         0         0
         0         0         0         0         0         0         0         0
         0         0         0         0         0         0         0         0
         0         0         0         0         0         0         0         0
         0         0         0         0         0         0         0         0
         0         0         0         0         0         0         0         0
         0         0         0         0         0         0         0         0
         0         0         0         0         0         0         0         0
         0         0         0         0         0         0         0         0
         0         0         0         0         0         0         0         0
         0         0         0         0         0         0         0         0
         0         0         0         0         0         0         0         0
         0         0         0         0         0         0         0         0
         0         0         0         0         0         0         0         0
         0         0         0         0         0         0         0         0
         0         0         0         0         0         0         0         0
         0         0         0         0         0         0         0         0
         0         0         0         0         0         0         0         0
         0         0         0         0         0         0         0         0
         0         0         0         0         0         0         0         0
         0         0         0         0         0         0         0         0
         0         0         0         0         0         0         0         0
         0         0         0         0         0         0         0         0
         0         0         0         0         0         0         0         0
         0         0         0         0         0         0         0         0
         0         0         0         0         0         0         0         0
         0         0         0         0         0         0         0         0
         0         0         0         0         0         0         0         0
         0         0         0         0         0         0         0         0
         0         0         0         0         0         0         0         0
         0         0         0         0         0         0         0         0
         0         0         0         0         0         0         0         0
         0         0         0         0         0         0         0         0
         0         0         0         0         0         0         0         0
         0         0         0         0         0         0         0         0
         0         0         0         0         0         0         0         0
         0         0         0         0         0         0         0         0
         0         0         0         0         0         0         0         0
         0         0         0         0         0         0         0         0
         0         0         0         0         0         0         0         0
         0         0         0         0         0         0         0         0
         0         0         0         0         0         0         0         0
         0         0         0         0         0         0         0         0
         0         0         0         0         0         0         0         0
         0         0         0         0         0         0         0         0
         0         0         0         0         0         0         0         0
         0         0         0         0         0         0         0         0
         0         0         0         0         0         0         0         0
         0         0         0         0         0         0         0         0
         0         0         0         0         0         0         0         0
         0         0         0         0         0         0         0         0
         0         0         0         0         0         0         0         0
         0         0         0         0         0         0         0         0
         0         0         0         0         0         0         0         0
         0         0         0         0         0         0         0         0
         0         0         0         0         0         0         0         0
         0         0         0         0         0         0         0         0
         0         0         0         0         0         0         0         0
         0         0         0         0         0         0         0         0
         0         0         0         0         0         0         0         0
         0         0         0         0         0         0         0         0
         0         0         0         0         0         0         0         0
         0         0         0         0         0         0         0         0
         0         0         0         0         0         0         0         0
         0         0         0         0         0         0         0         0
         0         0         0         0         0         0         0         0
         0         0         0         0         0         0         0         0
         0         0         0         0         0         0         0         0
         0         0         0         0         0         0         0         0
         0         0         0         0         0         0         0         0
         0         0         0         0         0         0         0         0
         0         0         0         0         0         0         0         0
         0         0         0         0         0         0         0         0
         0         0         0         0         0         0         0         0
         0         0         0         0         0         0         0         0
         0         0         0         0         0         0         0         0
         0         0         0         0         0         0         0         0
         0         0         0         0         0         0         0         0
         0         0         0         0         0         0         0         0
         0         0         0         0         0         0         0         0
         0         0         0         0         0         0         0         0
         0         0         0         0         0         0         0         0
         0         0         0         0         0         0         0         0
         0         0         0         0         0         0         0         0
         0         0         0         0         0         0         0         0
         0         0         0         0         0         0         0         0
         0         0         0         0         0         0         0         0
         0         0         0         0         0         0         0         0
         0         0         0         0         0         0         0         0
         0         0         0         0         0         0         0         0
         0         0         0         0         0         0         0         0
         0         0         0         0         0         0         0         0
         0         0         0         0         0         0         0         0
         0         0         0         0         0         0         0         0
         0         0         0         0         0         0         0         0
         0         0         0         0         0         0         0         0
         0         0         0         0         0         0         0         0
         0         0         0         0         0         0         0         0
         0         0         0         0         0         0         0         0
         0         0         0         0         0         0         0         0
         0         0         0         0         0         0         0         0
         0         0         0         0         0         0         0         0
         0         0         0         0         0         0         0         0
         0         0         0         0         0         0         0         0
         0         0         0         0         0         0         0         0
         0         0         0         0         0         0         0         0
         0         0         0         0         0         0         0         0
         0         0         0         0         0         0         0         0
         0         0         0         0         0         0         0         0
         0         0         0         0         0         0         0         0
         0         0         0         0         0         0         0         0
         0         0         0         0         0         0         0         0
         0         0         0         0         0         0         0         0
         0         0         0         0         0         0         0         0
         0         0         0         0         0         0         0         0
         0         0         0         0         0         0         0         0
         0         0         0         0         0         0         0         0
         0         0         0         0         0         0         0         0
         0         0         0         0         0         0         0         0
         0         0         0         0         0         0         0         0
         0         0         0         0         0         0         0         0
         0         0         0         0         0         0         0         0
         0         0         0         0         0         0         0         0
         0         0         0         0         0         0         0         0
         0         0         0         0         0         0         0         0
         0         0         0         0         0         0         0         0
         0         0         0         0         0         0         0         0
         0         0         0         0         0         0         0         0
         0         0         0         0         0         0         0         0
         0         0         0         0         0         0         0         0
         0         0         0         0         0         0         0         0
         0         0         0         0         0         0         0         0
         0         0         0         0         0         0         0         0
         0         0         0         0         0         0         0         0
         0         0         0         0         0         0         0         0
         0         0         0         0         0         0         0         0
         0         0         0         0         0         0         0         0
         0         0         0         0         0         0         0         0
         0         0         0         0         0         0         0         0
         0         0         0         0         0         0         0         0
         0         0         0         0         0         0         0         0
         0         0         0         0         0         0         0         0
         0         0         0         0         0         0         0         0
         0         0         0         0         0         0         0         0
         0         0         0         0         0         0         0         0
         0         0         0         0         0         0         0         0
         0         0         0         0         0         0         0         0
         0         0         0         0         0         0         0         0
         0         0         0         0         0         0         0         0
         0         0         0         0         0         0         0         0
         0         0         0         0         0         0         0         0
         0         0         0         0         0         0         0         0
         0         0         0         0         0         0         0         0
         0         0         0         0         0         0         0         0
         0         0         0         0         0         0         0         0
         0         0         0         0         0         0         0         0
         0         0         0         0         0         0         0         0
         0         0         0         0         0         0         0         0
         0         0         0         0         0         0         0         0
         0         0         0         0         0         0         0         0
         0         0         0         0         0         0         0         0
         0         0         0         0         0         0         0         0
         0         0         0         0         0         0         0         0
         0         0         0         0         0         0         0         0
         0         0         0         0         0         0         0         0
         0         0         0         0         0         0         0         0
         0         0         0         0         0         0         0         0
         0         0         0         0         0         0         0         0
         0         0         0         0         0         0         0         0
         0         0         0         0         0         0         0         0
         0         0         0         0         0         0         0         0
         0         0         0         0         0         0         0         0
         0         0         0         0         0         0         0         0
         0         0         0         0         0         0         0         0
         0         0         0         0         0         0         0         0
         0         0         0         0         0         0         0         0
         0         0         0         0         0         0         0         0
         0         0         0         0         0         0         0         0
         0         0         0         0         0         0         0         0
         0         0         0         0         0         0         0         0
         0         0         0         0         0         0         0         0
         0         0         0         0         0         0         0         0
         0         0         0         0         0         0         0         0
         0         0         0         0         0         0         0         0
         0         0         0         0         0         0         0         0
         0         0         0         0         0         0         0         0
         0         0         0         0         0         0         0         0
         0         0         0         0         0         0         0         0
         0         0         0         0         0         0         0         0
         0         0         0         0         0         0         0         0
         0         0         0         0         0         0         0         0
         0         0         0         0         0         0         0         0
         0         0         0         0         0         0         0         0
         0         0         0         0         0         0         0         0
         0         0         0         0         0         0         0         0
         0         0         0         0         0         0         0         0
         0         0         0         0         0         0         0         0
         0         0         0         0         0         0         0         0
         0         0         0         0         0         0         0         0
         0         0         0         0         0         0         0         0
         0         0         0         0         0         0         0         0
         0         0         0         0         0         0         0         0
         0         0         0         0         0         0         0         0
         0         0         0         0         0         0         0         0
         0         0         0         0         0         0         0         0
         0         0         0         0         0         0         0         0
         0         0         0         0         0         0         0         0
         0         0         0         0         0         0         0         0
         0         0         0         0         0         0         0         0
         0         0         0         0         0         0         0         0
         0         0         0         0         0         0         0         0
         0         0         0         0         0         0         0         0
         0         0         0         0         0         0         0         0
         0         0         0         0         0         0         0         0
         0         0         0         0         0         0         0         0
         0         0         0         0         0         0         0         0
         0         0         0         0         0         0         0         0
         0         0         0         0         0         0         0         0
         0         0         0         0         0         0         0         0
         0         0         0         0         0         0         0         0
         0         0         0         0         0         0         0         0
         0         0         0         0         0         0         0         0
         0         0         0         0         0         0         0         0
         0         0         0         0         0         0         0         0
         0         0         0         0         0         0         0         0
         0         0         0         0         0         0         0         0
         0         0         0         0         0         0         0         0
         0         0         0         0         0         0         0         0
         0         0         0         0         0         0         0         0
         0         0         0         0         0         0         0         0
         0         0         0         0         0         0         0         0
         0         0         0         0         0         0         0         0
         0         0         0         0         0         0         0         0
         0         0         0         0         0         0         0         0
         0         0         0         0         0         0         0         0
         0         0         0         0         0         0         0         0
         0         0         0         0         0         0         0         0
         0         0         0         0         0         0         0         0
         0         0         0         0         0         0         0         0
         0         0         0         0         0         0         0         0
         0         0         0         0         0         0         0         0
         0         0         0         0         0         0         0         0
         0         0         0         0         0         0         0         0
         0         0         0         0         0         0         0         0
         0         0         0         0         0         0         0         0
         0         0         0         0         0         0         0         0
         0         0         0         0         0         0         0         0
         0         0         0         0         0         0         0         0
         0         0         0         0         0         0         0         0
         0         0         0         0         0         0         0         0
         0         0         0         0         0         0         0         0
         0         0         0         0         0         0         0         0
         0         0         0         0         0         0         0         0
         0         0         0         0         0         0         0         0
         0         0         0         0         0         0         0         0
         0         0         0         0         0         0         0         0
         0         0         0         0         0         0         0         0
         0         0         0         0         0         0         0         0
         0         0         0         0         0         0         0         0
         0         0         0         0         0         0         0         0
         0         0         0         0         0         0         0         0
         0         0         0         0         0         0         0         0
         0         0         0         0         0         0         0         0
         0         0         0         0         0         0         0         0
         0         0         0         0         0         0         0         0
         0         0         0         0         0         0         0         0
         0         0         0         0         0         0         0         0
         0         0         0         0         0         0         0         0
         0         0         0         0         0         0         0         0
         0         0         0         0         0         0         0         0
         0         0         0         0         0         0         0         0
         0         0         0         0         0         0         0         0
         0         0         0         0         0         0         0         0
         0         0         0         0         0         0         0         0
         0         0         0         0         0         0         0         0
         0         0         0         0         0         0         0         0
         0         0         0         0         0         0         0         0
         0         0         0         0         0         0         0         0
         0         0         0         0         0         0         0         0
         0         0         0         0         0         0         0         0
         0         0         0         0         0         0         0         0
         0         0         0         0         0         0         0         0
         0         0         0         0         0         0         0         0
         0         0         0         0         0         0         0         0
         0         0         0         0         0         0         0         0
         0         0         0         0         0         0         0         0
         0         0         0         0         0         0         0         0
         0         0         0         0         0         0         0         0
         0         0         0         0         0         0         0         0
         0         0         0         0         0         0         0         0
         0         0         0         0         0         0         0         0
         0         0         0         0         0         0         0         0
         0         0         0         0         0         0         0         0
         0         0         0         0         0         0         0         0
         0         0         0         0         0         0         0         0
         0         0         0         0         0         0         0         0
         0         0         0         0         0         0         0         0
         0         0         0         0         0         0         0         0
         0         0         0         0         0         0         0         0
         0         0         0         0         0         0         0         0
         0         0         0         0         0         0         0         0
         0         0         0         0         0         0         0         0
         0         0         0         0         0         0         0         0
         0         0         0         0         0         0         0         0
         0         0         0         0         0         0         0         0
         0         0         0         0         0         0         0         0
         0         0         0         0         0         0         0         0
         0         0         0         0         0         0         0         0
         0         0         0         0         0         0         0         0
         0         0         0         0         0         0         0         0
         0         0         0         0         0         0         0         0
         0         0         0         0         0         0         0         0
         0         0         0         0         0         0         0         0
         0         0         0         0         0         0         0         0
         0         0         0         0         0         0         0         0
         0         0         0         0         0         0         0         0
         0         0         0         0         0         0         0         0
         0         0         0         0         0         0         0         0
         0         0         0         0         0         0         0         0
         0         0         0         0         0         0         0         0
         0         0         0         0         0         0         0         0
         0         0         0         0         0         0         0         0
         0         0         0         0         0         0         0         0
         0         0         0         0         0         0         0         0
         0         0         0         0         0         0         0         0
         0         0         0         0         0         0         0         0
         0         0         0         0         0         0         0         0
         0         0         0         0         0         0         0         0
         0         0         0         0         0         0         0         0
         0         0         0         0         0         0         0         0
         0         0         0         0         0         0         0         0
         0         0         0         0         0         0         0         0
         0         0         0         0         0         0         0         0
         0         0         0         0         0         0         0         0
         0         0         0         0         0         0         0         0
         0         0         0         0         0         0         0         0
         0         0         0         0         0         0         0         0
         0         0         0         0         0         0         0         0
         0         0         0         0         0         0         0         0
         0         0         0         0         0         0         0         0
         0         0         0         0         0         0         0         0
         0         0         0         0         0         0         0         0
         0         0         0         0         0         0         0         0
         0         0         0         0         0         0         0         0
         0         0         0         0         0         0         0         0
         0         0         0         0         0         0         0         0
         0         0         0         0         0         0         0         0
         0         0         0         0         0         0         0         0
         0         0         0         0         0         0         0         0
         0         0         0         0         0         0         0         0
         0         0         0         0         0         0         0         0
         0         0         0         0         0         0         0         0
         0         0         0         0         0         0         0         0
         0         0         0         0         0         0         0         0
         0         0         0         0         0         0         0         0
         0         0         0         0         0         0         0         0
         0         0         0         0         0         0         0         0
         0         0         0         0         0         0         0         0
         0         0         0         0         0         0         0         0
         0         0         0         0         0         0         0         0
         0         0         0         0         0         0         0         0
         0         0         0         0         0         0         0         0
         0         0         0         0         0         0         0         0
         0         0         0         0         0         0         0         0
         0         0         0         0         0         0         0         0
         0         0         0         0         0         0         0         0
         0         0         0         0         0         0         0         0
         0         0         0         0         0         0         0         0
         0         0         0         0         0         0         0         0
         0         0         0         0         0         0         0         0
         0         0         0         0         0         0         0         0
         0         0         0         0         0         0         0         0
         0         0         0         0         0         0         0         0
         0         0         0         0         0         0         0         0
         0         0         0         0         0         0         0         0
         0         0         0         0         0         0         0         0
         0         0         0         0         0         0         0         0
         0         0         0         0         0         0         0         0
         0         0         0         0         0         0         0         0
         0         0         0         0         0         0         0         0
         0         0         0         0         0         0         0         0
         0         0         0         0         0         0         0         0
         0         0         0         0         0         0         0         0
         0         0         0         0         0         0         0         0
         0         0         0         0         0         0         0         0
         0         0         0         0         0         0         0         0
         0         0         0         0         0         0         0         0
         0         0         0         0         0         0         0         0
         0         0         0         0         0         0         0         0
         0         0         0         0         0         0         0         0
         0         0         0         0         0         0         0         0
         0         0         0         0         0         0         0         0
         0         0         0         0         0         0         0         0
         0         0         0         0         0         0         0         0
         0         0         0         0         0         0         0         0
         0         0         0         0         0         0         0         0
         0         0         0         0         0         0         0         0
         0         0         0         0         0         0         0         0
         0         0         0         0         0         0         0         0
         0         0         0         0         0         0         0         0
         0         0         0         0         0         0         0         0
         0         0         0         0         0         0         0         0
         0         0         0         0         0         0         0         0
         0         0         0         0         0         0         0         0
         0         0         0         0         0         0         0         0
         0         0         0         0         0         0         0         0
         0         0         0         0         0         0         0         0
         0         0         0         0         0         0         0         0
         0         0         0         0         0         0         0         0
         0         0         0         0         0         0         0         0
         0         0         0         0         0         0         0         0
         0         0         0         0         0         0         0         0
         0         0         0         0         0         0         0         0
         0         0         0         0         0         0         0         0
         0         0         0         0         0         0         0         0
         0         0         0         0         0         0         0         0
         0         0         0         0         0         0         0         0
         0         0         0         0         0         0         0         0
         0         0         0         0         0         0         0         0
         0         0         0         0         0         0         0         0
         0         0         0         0         0         0         0         0
         0         0         0         0         0         0         0         0
         0         0         0         0         0         0         0         0
         0         0         0         0         0         0         0         0
         0         0         0         0         0         0         0         0
         0         0         0         0         0         0         0         0
         0         0         0         0         0         0         0         0
         0         0         0         0         0         0         0         0
         0         0         0         0         0         0         0         0
         0         0         0         0         0         0         0         0
         0         0         0         0         0         0         0         0
         0         0         0         0         0         0         0         0
         0         0         0         0         0         0         0         0
         0         0         0         0         0         0         0         0
         0         0         0         0         0         0         0         0
         0         0         0         0         0         0         0         0
         0         0         0         0         0         0         0         0
         0         0         0         0         0         0         0         0
         0         0         0         0         0         0         0         0
         0         0         0         0         0         0         0         0
         0         0         0         0         0         0         0         0
         0         0         0         0         0         0         0         0
         0         0         0         0         0         0         0         0
         0         0         0         0         0         0         0         0
         0         0         0         0         0         0         0         0
         0         0         0         0         0         0         0         0
         0         0         0         0         0         0         0         0
         0         0         0         0         0         0         0         0
         0         0         0         0         0         0         0         0
         0         0         0         0         0         0         0         0
         0         0         0         0         0         0         0         0
         0         0         0         0         0         0         0         0
         0         0         0         0         0         0         0         0
         0         0         0         0         0         0         0         0
         0         0         0         0         0         0         0         0
         0         0         0         0         0         0         0         0
         0         0         0         0         0         0         0         0
         0         0         0         0         0         0         0         0
         0         0         0         0         0         0         0         0
         0         0         0         0         0         0         0         0
         0         0         0         0         0         0         0         0
         0         0         0         0         0         0         0         0
         0         0         0         0         0         0         0         0
         0         0         0         0         0         0         0         0
         0         0         0         0         0         0         0         0
         0         0         0         0         0         0         0         0
         0         0         0         0         0         0         0         0
         0         0         0         0         0         0         0         0
         0         0         0         0         0         0         0         0
         0         0         0         0         0         0         0         0
         0         0         0         0         0         0         0         0
         0         0         0         0         0         0         0         0
         0         0         0         0         0         0         0         0
         0         0         0         0         0         0         0         0
         0         0         0         0         0         0         0         0
         0         0         0         0         0         0         0         0
         0         0         0         0         0         0         0         0
         0         0         0         0         0         0         0         0
         0         0         0         0         0         0         0         0
         0         0         0         0         0         0         0         0
         0         0         0         0         0         0         0         0
         0         0         0         0         0         0         0         0
         0         0         0         0         0         0         0         0
         0         0         0         0         0         0         0         0
         0         0         0         0         0         0         0         0
         0         0         0         0         0         0         0         0
         0         0         0         0         0         0         0         0
         0         0         0         0         0         0         0         0
         0         0         0         0         0         0         0         0
         0         0         0         0         0         0         0         0
         0         0         0         0         0         0         0         0
         0         0         0         0         0         0         0         0
         0         0         0         0         0         0         0         0
         0         0         0         0         0         0         0         0
         0         0         0         0         0         0         0         0
         0         0         0         0         0         0         0         0
         0         0         0         0         0         0         0         0
         0         0         0         0         0         0         0         0
         0         0         0         0         0         0         0         0
         0         0         0         0         0         0         0         0
         0         0         0         0         0         0         0         0
         0         0         0         0         0         0         0         0
         0         0         0         0         0         0         0         0
         0         0         0         0         0         0         0         0
         0         0         0         0         0         0         0         0
         0         0         0         0         0         0         0         0
         0         0         0         0         0         0         0         0
         0         0         0         0         0         0         0         0
         0         0         0         0         0         0         0         0
         0         0         0         0         0         0         0         0
         0         0         0         0         0         0         0         0
         0         0         0         0         0         0         0         0
         0         0         0         0         0         0         0         0
         0         0         0         0         0         0         0         0
         0         0         0         0         0         0         0         0
         0         0         0         0         0         0         0         0
         0         0         0         0         0         0         0         0
         0         0         0         0         0         0         0         0
         0         0         0         0         0         0         0         0
         0         0         0         0         0         0         0         0
         0         0         0         0         0         0         0         0
         0         0         0         0         0         0         0         0
         0         0         0         0         0         0         0         0
         0         0         0         0         0         0         0         0
         0         0         0         0         0         0         0         0
         0         0         0         0         0         0         0         0
         0         0         0         0         0         0         0         0
         0         0         0         0         0         0         0         0
         0         0         0         0         0         0         0         0
         0         0         0         0         0         0         0         0
         0         0         0         0         0         0         0         0
         0         0         0         0         0         0         0         0
         0         0         0         0         0         0         0         0
         0         0         0         0         0         0         0         0
         0         0         0         0         0         0         0         0
         0         0         0         0         0         0         0         0
         0         0         0         0         0         0         0         0
         0         0         0         0         0         0         0         0
         0         0         0         0         0         0         0         0
         0         0         0         0         0         0         0         0
         0         0         0         0         0         0         0         0
         0         0         0         0         0         0         0         0
         0         0         0         0         0         0         0         0
         0         0         0         0         0         0         0         0
         0         0         0         0         0         0         0         0
         0         0         0         0         0         0         0         0
         0         0         0         0         0         0         0         0
         0         0         0         0         0         0         0         0
         0         0         0         0         0         0         0         0
         0         0         0         0         0         0         0         0
         0         0         0         0         0         0         0         0
         0         0         0         0         0         0         0         0
         0         0         0         0         0         0         0         0
         0         0         0         0         0         0         0         0
         0         0         0         0         0         0         0         0
         0         0         0         0         0         0         0         0
         0         0         0         0         0         0         0         0
         0         0         0         0         0         0         0         0
         0         0         0         0         0         0         0         0
         0         0         0         0         0         0         0         0
         0         0         0         0         0         0         0         0
         0         0         0         0         0         0         0         0
         0         0         0         0         0         0         0         0
         0         0         0         0         0         0         0         0
         0         0         0         0         0         0         0         0
         0         0         0         0         0         0         0         0
         0         0         0         0         0         0         0         0
         0         0         0         0         0         0         0         0
         0         0         0         0         0         0         0         0
         0         0         0         0         0         0         0         0
         0         0         0         0         0         0         0         0
         0         0         0         0         0         0         0         0
         0         0         0         0         0         0         0         0
         0         0         0         0         0         0         0         0
         0         0         0         0         0         0         0         0
         0         0         0         0         0         0         0         0
         0         0         0         0         0         0         0         0
         0         0         0         0         0         0         0         0
         0         0         0         0         0         0         0         0
         0         0         0         0         0         0         0         0
         0         0         0         0         0         0         0         0
         0         0         0         0         0         0         0         0
         0         0         0         0         0         0         0         0
         0         0         0         0         0         0         0         0
         0         0         0         0         0         0         0         0
         0         0         0         0         0         0         0         0
         0         0         0         0         0         0         0         0
         0         0         0         0         0         0         0         0
         0         0         0         0         0         0         0         0
         0         0         0         0         0         0         0         0
         0         0         0         0         0         0         0         0
         0         0         0         0         0         0         0         0
         0         0         0         0         0         0         0         0
         0         0         0         0         0         0         0         0
         0         0         0         0         0         0         0         0
         0         0         0         0         0         0         0         0
         0         0         0         0         0         0         0         0
         0         0         0         0         0         0         0         0
         0         0         0         0         0         0         0         0
         0         0         0         0         0         0         0         0
         0         0         0         0         0         0         0         0
         0         0         0         0         0         0         0         0
         0         0         0         0         0         0         0         0
         0         0         0         0         0         0         0         0
         0         0         0         0         0         0         0         0
         0         0         0         0         0         0         0         0
         0         0         0         0         0         0         0         0
         0         0         0         0         0         0         0         0
         0         0         0         0         0         0         0         0
         0         0         0         0         0         0         0         0
         0         0         0         0         0         0         0         0
         0         0         0         0         0         0         0         0
         0         0         0         0         0         0         0         0
         0         0         0         0         0         0         0         0
         0         0         0         0         0         0         0         0
         0         0         0         0         0         0         0         0
         0         0         0         0         0         0         0         0
         0         0         0         0         0         0         0         0
         0         0         0         0         0         0         0         0
         0         0         0         0         0         0         0         0
         0         0         0         0         0         0         0         0
         0         0         0         0         0         0         0         0
         0         0         0         0         0         0         0         0
         0         0         0         0         0         0         0         0
         0         0         0         0         0         0         0         0
         0         0         0         0         0         0         0         0
         0         0         0         0         0         0         0         0
         0         0         0         0         0         0         0         0
         0         0         0         0         0         0         0         0
         0         0         0         0         0         0         0         0
         0         0         0         0         0         0         0         0
         0         0         0         0         0         0         0         0
         0         0         0         0         0         0         0         0
         0         0         0         0         0         0         0         0
         0         0         0         0         0         0         0         0
         0         0         0         0         0         0         0         0
         0         0         0         0         0         0         0         0
         0         0         0         0         0         0         0         0
         0         0         0         0         0         0         0         0
         0         0         0         0         0         0         0         0
         0         0         0         0         0         0         0         0
         0         0         0         0         0         0         0         0
         0         0         0         0         0         0         0         0
         0         0         0         0         0         0         0         0
         0         0         0         0         0         0         0         0
         0         0         0         0         0         0         0         0
         0         0         0         0         0         0         0         0
         0         0         0         0         0         0         0         0
         0         0         0         0         0         0         0         0
         0         0         0         0         0         0         0         0
         0         0         0         0         0         0         0         0
         0         0         0         0         0         0         0         0
         0         0         0         0         0         0         0         0
         0         0         0         0         0         0         0         0
         0         0         0         0         0         0         0         0
         0         0         0         0         0         0         0         0
         0         0         0         0         0         0         0         0
         0         0         0         0         0         0         0         0
         0         0         0         0         0         0         0         0
         0         0         0         0         0         0         0         0
         0         0         0         0         0         0         0         0
         0         0         0         0         0         0         0         0
         0         0         0         0         0         0         0         0
         0         0         0         0         0         0         0         0
         0         0         0         0         0         0         0         0
         0         0         0         0         0         0         0         0
         0         0         0         0         0         0         0         0
         0         0         0         0         0         0         0         0
         0         0         0         0         0         0         0         0
         0         0         0         0         0         0         0         0
         0         0         0         0         0         0         0         0
         0         0         0         0         0         0         0         0
         0         0         0         0         0         0         0         0
         0         0         0         0         0         0         0         0
         0         0         0         0         0         0         0         0
         0         0         0         0         0         0         0         0
         0         0         0         0         0         0         0         0
         0         0         0         0         0         0         0         0
         0         0         0         0         0         0         0         0
         0         0         0         0         0         0         0         0
         0         0         0         0         0         0         0         0
         0         0         0         0         0         0         0         0
         0         0         0         0         0         0         0         0
         0         0         0         0         0         0         0         0
         0         0         0         0         0         0         0         0
         0         0         0         0         0         0         0         0
         0         0         0         0         0         0         0         0
         0         0         0         0         0         0         0         0
         0         0         0         0         0         0         0         0
         0         0         0         0         0         0         0         0
         0         0         0         0         0         0         0         0
         0         0         0         0         0         0         0         0
         0         0         0         0         0         0         0         0
         0         0         0         0         0         0         0         0
         0         0         0         0         0         0         0         0
         0         0         0         0         0         0         0         0
         0         0         0         0         0         0         0         0
         0         0         0         0         0         0         0         0
         0         0         0         0         0         0         0         0
         0         0         0         0         0         0         0         0
         0         0         0         0         0         0         0         0
         0         0         0         0         0         0         0         0
         0         0         0         0         0         0         0         0
         0         0         0         0         0         0         0         0
         0         0         0         0         0         0         0         0
         0         0         0         0         0         0         0         0
         0         0         0         0         0         0         0         0
         0         0         0         0         0         0         0         0
         0         0         0         0         0         0         0         0
         0         0         0         0         0         0         0         0
         0         0         0         0         0         0         0         0
         0         0         0         0         0         0         0         0
         0         0         0         0         0         0         0         0
         0         0         0         0         0         0         0         0
         0         0         0         0         0         0         0         0
         0         0         0         0         0         0         0         0
         0         0         0         0         0         0         0         0
         0         0         0         0         0         0         0         0
         0         0         0         0         0         0         0         0
         0         0         0         0         0         0         0         0
         0         0         0         0         0         0         0         0
         0         0         0         0         0         0         0         0
         0         0         0         0         0         0         0         0
         0         0         0         0         0         0         0         0
         0         0         0         0         0         0         0         0
         0         0         0         0         0         0         0         0
         0         0         0         0         0         0         0         0
         0         0         0         0         0         0         0         0
         0         0         0         0         0         0         0         0
         0         0         0         0         0         0         0         0
         0         0         0         0         0         0         0         0
         0         0         0         0         0         0         0         0
         0         0         0         0         0         0         0         0
         0         0         0         0         0         0         0         0
         0         0         0         0         0         0         0         0
         0         0         0         0         0         0         0         0
         0         0         0         0         0         0         0         0
         0         0         0         0         0         0         0         0
         0         0         0         0         0         0         0         0
         0         0         0         0         0         0         0         0
         0         0         0         0         0         0         0         0
         0         0         0         0         0         0         0         0
         0         0         0         0         0         0         0         0
         0         0         0         0         0         0         0         0
         0         0         0         0         0         0         0         0
         0         0         0         0         0         0         0         0
         0         0         0         0         0         0         0         0
         0         0         0         0         0         0         0         0
         0         0         0         0         0         0         0         0
         0         0         0         0         0         0         0         0
         0         0         0         0         0         0         0         0
         0         0         0         0         0         0         0         0
         0         0         0         0         0         0         0         0
         0         0         0         0         0         0         0         0
         0         0         0         0         0         0         0         0
         0         0         0         0         0         0         0         0
         0         0         0         0         0         0         0         0
         0         0         0         0         0         0         0         0
         0         0         0         0         0         0         0         0
         0         0         0         0         0         0         0         0
         0         0         0         0         0         0         0         0
         0         0         0         0         0         0         0         0
         0         0         0         0         0         0         0         0
         0         0         0         0         0         0         0         0
         0         0         0         0         0         0         0         0
         0         0         0         0         0         0         0         0
         0         0         0         0         0         0         0         0
         0         0         0         0         0         0         0         0
         0         0         0         0         0         0         0         0
         0         0         0         0         0         0         0         0
         0         0         0         0         0         0         0         0
         0         0         0         0         0         0         0         0
         0         0         0         0         0         0         0         0
         0         0         0         0         0         0         0         0
         0         0         0         0         0         0         0         0
         0         0         0         0         0         0         0         0
         0         0         0         0         0         0         0         0
         0         0         0         0         0         0         0         0
         0         0         0         0         0         0         0         0
         0         0         0         0         0         0         0         0
         0         0         0         0         0         0         0         0
         0         0         0         0         0         0         0         0
         0         0         0         0         0         0         0         0
         0         0         0         0         0         0         0         0
         0         0         0         0         0         0         0         0
         0         0         0         0         0         0         0         0
         0         0         0         0         0         0         0         0
         0         0         0         0         0         0         0         0
         0         0         0         0         0         0         0         0
         0         0         0         0         0         0         0         0
         0         0         0         0         0         0         0         0
         0         0         0         0         0         0         0         0
         0         0         0         0         0         0         0         0
         0         0         0         0         0         0         0         0
         0         0         0         0         0         0         0         0
         0         0         0         0         0         0         0         0
         0         0         0         0         0         0         0         0
         0         0         0         0         0         0         0         0
         0         0         0         0         0         0         0         0
         0         0         0         0         0         0         0         0
         0         0         0         0         0         0         0         0
         0         0         0         0         0         0         0         0
         0         0         0         0         0         0         0         0
         0         0         0         0         0         0         0         0
         0         0         0         0         0         0         0         0
         0         0         0         0         0         0         0         0
         0         0         0         0         0         0         0         0
         0         0         0         0         0         0         0         0
         0         0         0         0         0         0         0         0
         0         0         0         0         0         0         0         0
         0         0         0         0         0         0         0         0
         0         0         0         0         0         0         0         0
         0         0         0         0         0         0         0         0
         0         0         0         0         0         0         0         0
         0         0         0         0         0         0         0         0
         0         0         0         0         0         0         0         0
         0         0         0         0         0         0         0         0
         0         0         0         0         0         0         0         0
         0         0         0         0         0         0         0         0
         0         0         0         0         0         0         0         0
         0         0         0         0         0         0         0         0
         0         0         0         0         0         0         0         0
         0         0         0         0         0         0         0         0
         0         0         0         0         0         0         0         0
         0         0         0         0         0         0         0         0
         0         0         0         0         0         0         0         0
         0         0         0         0         0         0         0         0
         0         0         0         0         0         0         0         0
         0         0         0         0         0         0         0         0
         0         0         0         0         0         0         0         0
         0         0         0         0         0         0         0         0
         0         0         0         0         0         0         0         0
         0         0         0         0         0         0         0         0
         0         0         0         0         0         0         0         0
         0         0         0         0         0         0         0         0
         0         0         0         0         0         0         0         0
         0         0         0         0         0         0         0         0
         0         0         0         0         0         0         0         0
         0         0         0         0         0         0         0         0
         0         0         0         0         0         0         0         0
         0         0         0         0         0         0         0         0
         0         0         0         0         0         0         0         0
         0         0         0         0         0         0         0         0
         0         0         0         0         0         0         0         0
         0         0         0         0         0         0         0         0
         0         0         0         0         0         0         0         0
         0         0         0         0         0         0         0         0
         0         0         0         0         0         0         0         0
         0         0         0         0         0         0         0         0
         0         0         0         0         0         0         0         0
         0         0         0         0         0         0         0         0
         0         0         0         0         0         0         0         0
         0         0         0         0         0         0         0         0
         0         0         0         0         0         0         0         0
         0         0         0         0         0         0         0         0
         0         0         0         0         0         0         0         0
         0         0         0         0         0         0         0         0
         0         0         0         0         0         0         0         0
         0         0         0         0         0         0         0         0
         0         0         0         0         0         0         0         0
         0         0         0         0         0         0         0         0
         0         0         0         0         0         0         0         0
         0         0         0         0         0         0         0         0
         0         0         0         0         0         0         0         0
         0         0         0         0         0         0         0         0
         0         0         0         0         0         0         0         0
         0         0         0         0         0         0         0         0
         0         0         0         0         0         0         0         0
         0         0         0         0         0         0         0         0
         0         0         0         0         0         0         0         0
         0         0         0         0         0         0         0         0
         0         0         0         0         0         0         0         0
         0         0         0         0         0         0         0         0
         0         0         0         0         0         0         0         0
         0         0         0         0         0         0         0         0
         0         0         0         0         0         0         0         0
         0         0         0         0         0         0         0         0
         0         0         0         0         0         0         0         0
         0         0         0         0         0         0         0         0
         0         0         0         0         0         0         0         0
         0         0         0         0         0         0         0         0
         0         0         0         0         0         0         0         0
         0         0         0         0         0         0         0         0
         0         0         0         0         0         0         0         0
         0         0         0         0         0         0         0         0
         0         0         0         0         0         0         0         0
         0         0         0         0         0         0         0         0
         0         0         0         0         0         0         0         0
         0         0         0         0         0         0         0         0
         0         0         0         0         0         0         0         0
         0         0         0         0         0         0         0         0
         0         0         0         0         0         0         0         0
         0         0         0         0         0         0         0         0
         0         0         0         0         0         0         0         0
         0         0         0         0         0         0         0         0
         0         0         0         0         0         0         0         0
         0         0         0         0         0         0         0         0
         0         0         0         0         0         0         0         0
         0         0         0         0         0         0         0         0
         0         0         0         0         0         0         0         0
         0         0         0         0         0         0         0         0
         0         0         0         0         0         0         0         0
         0         0         0         0         0         0         0         0
         0         0         0         0         0         0         0         0
         0         0         0         0         0         0         0         0
         0         0         0         0         0         0         0         0
         0         0         0         0         0         0         0         0
         0         0         0         0         0         0         0         0
         0         0         0         0         0         0         0         0
         0         0         0         0         0         0         0         0
         0         0         0         0         0         0         0         0
         0         0         0         0         0         0         0         0
         0         0         0         0         0         0         0         0
         0         0         0         0         0         0         0         0
         0         0         0         0         0         0         0         0
         0         0         0         0         0         0         0         0
         0         0         0         0         0         0         0         0
         0         0         0         0         0         0         0         0
         0         0         0         0         0         0         0         0
         0         0         0         0         0         0         0         0
         0         0         0         0         0         0         0         0
         0         0         0         0         0         0         0         0
         0         0         0         0         0         0         0         0
         0         0         0         0         0         0         0         0
         0         0         0         0         0         0         0         0
         0         0         0         0         0         0         0         0
         0         0         0         0         0         0         0         0
         0         0         0         0         0         0         0         0
         0         0         0         0         0         0         0         0
         0         0         0         0         0         0         0         0
         0         0         0         0         0         0         0         0
         0         0         0         0         0         0         0         0
         0         0         0         0         0         0         0         0
         0         0         0         0         0         0         0         0
         0         0         0         0         0         0         0         0
         0         0         0         0         0         0         0         0
         0         0         0         0         0         0         0         0
         0         0         0         0         0         0         0         0
         0         0         0         0         0         0         0         0
         0         0         0         0         0         0         0         0
         0         0         0         0         0         0         0         0
         0         0         0         0         0         0         0         0
         0         0         0         0         0         0         0         0
         0         0         0         0         0         0         0         0
         0         0         0         0         0         0         0         0
         0         0         0         0         0         0         0         0
         0         0         0         0         0         0         0         0
         0         0         0         0         0         0         0         0
         0         0         0         0         0         0         0         0
         0         0         0         0         0         0         0         0
         0         0         0         0         0         0         0         0
         0         0         0         0         0         0         0         0
         0         0         0         0         0         0         0         0
         0         0         0         0         0         0         0         0
         0         0         0         0         0         0         0         0
         0         0         0         0         0         0         0         0
         0         0         0         0         0         0         0         0
         0         0         0         0         0         0         0         0
         0         0         0         0         0         0         0         0
         0         0         0         0         0         0         0         0
         0         0         0         0         0         0         0         0
         0         0         0         0         0         0         0         0
         0         0         0         0         0         0         0         0
         0         0         0         0         0         0         0         0
         0         0         0         0         0         0         0         0
         0         0         0         0         0         0         0         0
         0         0         0         0         0         0         0         0
         0         0         0         0         0         0         0         0
         0         0         0         0         0         0         0         0
         0         0         0         0         0         0         0         0
         0         0         0         0         0         0         0         0
         0         0         0         0         0         0         0         0
         0         0         0         0         0         0         0         0
         0         0         0         0         0         0         0         0
         0         0         0         0         0         0         0         0
         0         0         0         0         0         0         0         0
         0         0         0         0         0         0         0         0
         0         0         0         0         0         0         0         0
         0         0         0         0         0         0         0         0
         0         0         0         0         0         0         0         0
         0         0         0         0         0         0         0         0
         0         0         0         0         0         0         0         0
         0         0         0         0         0         0         0         0
         0         0         0         0         0         0         0         0
         0         0         0         0         0         0         0         0
         0         0         0         0         0         0         0         0
         0         0         0         0         0         0         0         0
         0         0         0         0         0         0         0         0
         0         0         0         0         0         0         0         0
         0         0         0         0         0         0         0         0
         0         0         0         0         0         0         0         0
         0         0         0         0         0         0         0         0
         0         0         0         0         0         0         0         0
         0         0         0         0         0         0         0         0
         0         0         0         0         0         0         0         0
         0         0         0         0         0         0         0         0
         0         0         0         0         0         0         0         0
         0         0         0         0         0         0         0         0
         0         0         0         0         0         0         0         0
         0         0         0         0         0         0         0         0
         0         0         0         0         0         0         0         0
         0         0         0         0         0         0         0         0
         0         0         0         0         0         0         0         0
         0         0         0         0         0         0         0         0
         0         0         0         0         0         0         0         0
         0         0         0         0         0         0         0         0
         0         0         0         0         0         0         0         0
         0         0         0         0         0         0         0         0
         0         0         0         0         0         0         0         0
         0         0         0         0         0         0         0         0
         0         0         0         0         0         0         0         0
         0         0         0         0         0         0         0         0
         0         0         0         0         0         0         0         0
         0         0         0         0         0         0         0         0
         0         0         0         0         0         0         0         0
         0         0         0         0         0         0         0         0
         0         0         0         0         0         0         0         0
         0         0         0         0         0         0         0         0
         0         0         0         0         0         0         0         0
         0         0         0         0         0         0         0         0
         0         0         0         0         0         0         0         0
         0         0         0         0         0         0         0         0
         0         0         0         0         0         0         0         0
         0         0         0         0         0         0         0         0
         0         0         0         0         0         0         0         0
         0         0         0         0         0         0         0         0
         0         0         0         0         0         0         0         0
         0         0         0         0         0         0         0         0
         0         0         0         0         0         0         0         0
         0         0         0         0         0         0         0         0
         0         0         0         0         0         0         0         0
         0         0         0         0         0         0         0         0
         0         0         0         0         0         0         0         0
         0         0         0         0         0         0         0         0
         0         0         0         0         0         0         0         0
         0         0         0         0         0         0         0         0
         0         0         0         0         0         0         0         0
         0         0         0         0         0         0         0         0
         0         0         0         0         0         0         0         0
         0         0         0         0         0         0         0         0
         0         0         0         0         0         0         0         0
         0         0         0         0         0         0         0         0
         0         0         0         0         0         0         0         0
         0         0         0         0         0         0         0         0
         0         0         0         0         0         0         0         0
         0         0         0         0         0         0         0         0
         0         0         0         0         0         0         0         0
         0         0         0         0         0         0         0         0
         0         0         0         0         0         0         0         0
         0         0         0         0         0         0         0         0
         0         0         0         0         0         0         0         0
         0         0         0         0         0         0         0         0
         0         0         0         0         0         0         0         0
         0         0         0         0         0         0         0         0
         0         0         0         0         0         0         0         0
         0         0         0         0         0         0         0         0
         0         0         0         0         0         0         0         0
         0         0         0         0         0         0         0         0
         0         0         0         0         0         0         0         0
         0         0         0         0         0         0         0         0
         0         0         0         0         0         0         0         0
         0         0         0         0         0         0         0         0
         0         0         0         0         0         0         0         0
         0         0         0         0         0         0         0         0
         0         0         0         0         0         0         0         0
         0         0         0         0         0         0         0         0
         0         0         0         0         0         0         0         0
         0         0         0         0         0         0         0         0
         0         0         0         0         0         0         0         0
         0         0         0         0         0         0         0         0
         0         0         0         0         0         0         0         0
         0         0         0         0         0         0         0         0
         0         0         0         0         0         0         0         0
         0         0         0         0         0         0         0         0
         0         0         0         0         0         0         0         0
         0         0         0         0         0         0         0         0
         0         0         0         0         0         0         0         0
         0         0         0         0         0         0         0         0
         0         0         0         0         0         0         0         0
         0         0         0         0         0         0         0         0
         0         0         0         0         0         0         0         0
         0         0         0         0         0         0         0         0
         0         0         0         0         0         0         0         0
         0         0         0         0         0         0         0         0
         0         0         0         0         0         0         0         0
         0         0         0         0         0         0         0         0
         0         0         0         0         0         0         0         0
         0         0         0         0         0         0         0         0
         0         0         0         0         0         0         0         0
         0         0         0         0         0         0         0         0
         0         0         0         0         0         0         0         0
         0         0         0         0         0         0         0         0
         0         0         0         0         0         0         0         0
         0         0         0         0         0         0         0         0
         0         0         0         0         0         0         0         0
         0         0         0         0         0         0         0         0
         0         0         0         0         0         0         0         0
         0         0         0         0         0         0         0         0
         0         0         0         0         0         0         0         0
         0         0         0         0         0         0         0         0
         0         0         0         0         0         0         0         0
         0         0         0         0         0         0         0         0
         0         0         0         0         0         0         0         0
         0         0         0         0         0         0         0         0
         0         0         0         0         0         0         0         0
         0         0         0         0         0         0         0         0
         0         0         0         0         0         0         0         0
         0         0         0         0         0         0         0         0
         0         0         0         0         0         0         0         0
         0         0         0         0         0         0         0         0
         0         0         0         0         0         0         0         0
         0         0         0         0         0         0         0         0
         0         0         0         0         0         0         0         0
         0         0         0         0         0         0         0         0
         0         0         0         0         0         0         0         0
         0         0         0         0         0         0         0         0
         0         0         0         0         0         0         0         0
         0         0         0         0         0         0         0         0
         0         0         0         0         0         0         0         0
         0         0         0         0         0         0         0         0
         0         0         0         0         0         0         0         0
         0         0         0         0         0         0         0         0
         0         0         0         0         0         0         0         0
         0         0         0         0         0         0         0         0
         0         0         0         0         0         0         0         0
         0         0         0         0         0         0         0         0
         0         0         0         0         0         0         0         0
         0         0         0         0         0         0         0         0
         0         0         0         0         0         0         0         0
         0         0         0         0         0         0         0         0
         0         0         0         0         0         0         0         0
         0         0         0         0         0         0         0         0
         0         0         0         0         0         0         0         0
         0         0         0         0         0         0         0         0
         0         0         0         0         0         0         0         0
         0         0         0         0         0         0         0         0
         0         0         0         0         0         0         0         0
         0         0         0         0         0         0         0         0
         0         0         0         0         0         0         0         0
         0         0         0         0         0         0         0         0
         0         0         0         0         0         0         0         0
         0         0         0         0         0         0         0         0
         0         0         0         0         0         0         0         0
         0         0         0         0         0         0         0         0
         0         0         0         0         0         0         0         0
         0         0         0         0         0         0         0         0
         0         0         0         0         0         0         0         0
         0         0         0         0         0         0         0         0
         0         0         0         0         0         0         0         0
         0         0         0         0         0         0         0         0
         0         0         0         0         0         0         0         0
         0         0         0         0         0         0         0         0
         0         0         0         0         0         0         0         0
         0         0         0         0         0         0         0         0
         0         0         0         0         0         0         0         0
         0         0         0         0         0         0         0         0
         0         0         0         0         0         0         0         0
         0         0         0         0         0         0         0         0
         0         0         0         0         0         0         0         0
         0         0         0         0         0         0         0         0
         0         0         0         0         0         0         0         0
         0         0         0         0         0         0         0         0
         0         0         0         0         0         0         0         0
         0         0         0         0         0         0         0         0
         0         0         0         0         0         0         0         0
         0         0         0         0         0         0         0         0
         0         0         0         0         0         0         0         0
         0         0         0         0         0         0         0         0
         0         0         0         0         0         0         0         0
         0         0         0         0         0         0         0         0
         0         0         0         0         0         0         0         0
         0         0         0         0         0         0         0         0
         0         0         0         0         0         0         0         0
         0         0         0         0         0         0         0         0
         0         0         0         0         0         0         0         0
         0         0         0         0         0         0         0         0
         0         0         0         0         0         0         0         0
         0         0         0         0         0         0         0         0
         0         0         0         0         0         0         0         0
         0         0         0         0         0         0         0         0
         0         0         0         0         0         0         0         0
         0         0         0         0         0         0         0         0
         0         0         0         0         0         0         0         0
         0         0         0         0         0         0         0         0
         0         0         0         0         0         0         0         0
         0         0         0         0         0         0         0         0
         0         0         0         0         0         0         0         0
         0         0         0         0         0         0         0         0
         0         0         0         0         0         0         0         0
         0         0         0         0         0         0         0         0
         0         0         0         0         0         0         0         0
         0         0         0         0         0         0         0         0
         0         0         0         0         0         0         0         0
         0         0         0         0         0         0         0         0
         0         0         0         0         0         0         0         0
         0         0         0         0         0         0         0         0
         0         0         0         0         0         0         0         0
         0         0         0         0         0         0         0         0
         0         0         0         0         0         0         0         0
         0         0         0         0         0         0         0         0
         0         0         0         0         0         0         0         0
         0         0         0         0         0         0         0         0
         0         0         0         0         0         0         0         0
         0         0         0         0         0         0         0         0
         0         0         0         0         0         0         0         0
         0         0         0         0         0         0         0         0
         0         0         0         0         0         0         0         0
         0         0         0         0         0         0         0         0
         0         0         0         0         0         0         0         0
         0         0         0         0         0         0         0         0
         0         0         0         0         0         0         0         0
         0         0         0         0         0         0         0         0
         0         0         0         0         0         0         0         0
         0         0         0         0         0         0         0         0
         0         0         0         0         0         0         0         0
         0         0         0         0         0         0         0         0
         0         0         0         0         0         0         0         0
         0         0         0         0         0         0         0         0
         0         0         0         0         0         0         0         0
         0         0         0         0         0         0         0         0
         0         0         0         0         0         0         0         0
         0         0         0         0         0         0         0         0
         0         0         0         0         0         0         0         0
         0         0         0         0         0         0         0         0
         0         0         0         0         0         0         0         0
         0         0         0         0         0         0         0         0
         0         0         0         0         0         0         0         0
         0         0         0         0         0         0         0         0
         0         0         0         0         0         0         0         0
         0         0         0         0         0         0         0         0
         0         0         0         0         0         0         0         0
         0         0         0         0         0         0         0         0
         0         0         0         0         0         0         0         0
         0         0         0         0         0         0         0         0
         0         0         0         0         0         0         0         0
         0         0         0         0         0         0         0         0
         0         0         0         0         0         0         0         0
         0         0         0         0         0         0         0         0
         0         0         0         0         0         0         0         0
         0         0         0         0         0         0         0         0
         0         0         0         0         0         0         0         0
         0         0         0         0         0         0         0         0
         0         0         0         0         0         0         0         0
         0         0         0         0         0         0         0         0
         0         0         0         0         0         0         0         0
         0         0         0         0         0         0         0         0
         0         0         0         0         0         0         0         0
         0         0         0         0         0         0         0         0
         0         0         0         0         0         0         0         0
         0         0         0         0         0         0         0         0
         0         0         0         0         0         0         0         0
         0         0         0         0         0         0         0         0
         0         0         0         0         0         0         0         0
         0         0         0         0         0         0         0         0
         0         0         0         0         0         0         0         0
         0         0         0         0         0         0         0         0
         0         0         0         0         0         0         0         0
         0         0         0         0         0         0         0         0
         0         0         0         0         0         0         0         0
         0         0         0         0         0         0         0         0
         0         0         0         0         0         0         0         0
         0         0         0         0         0         0         0         0
         0         0         0         0         0         0         0         0
         0         0         0         0         0         0         0         0
         0         0         0         0         0         0         0         0
         0         0         0         0         0         0         0         0
         0         0         0         0         0         0         0         0
         0         0         0         0         0         0         0         0
         0         0         0         0         0         0         0         0
         0         0         0         0         0         0         0         0
         0         0         0         0         0         0         0         0
         0         0         0         0         0         0         0         0
         0         0         0         0         0         0         0         0
         0         0         0         0         0         0         0         0
         0         0         0         0         0         0         0         0
         0         0         0         0         0         0         0         0
         0         0         0         0         0         0         0         0
         0         0         0         0         0         0         0         0
         0         0         0         0         0         0         0         0
         0         0         0         0         0         0         0         0
         0         0         0         0         0         0         0         0
         0         0         0         0         0         0         0         0
         0         0         0         0         0         0         0         0
         0         0         0         0         0         0         0         0
         0         0         0         0         0         0         0         0
         0         0         0         0         0         0         0         0
         0         0         0         0         0         0         0         0
         0         0         0         0         0         0         0         0
         0         0         0         0         0         0         0         0
         0         0         0         0         0         0         0         0
         0         0         0         0         0         0         0         0
         0         0         0         0         0         0         0         0
         0         0         0         0         0         0         0         0
         0         0         0         0         0         0         0         0
         0         0         0         0         0         0         0         0
         0         0         0         0         0         0         0         0
         0         0         0         0         0         0         0         0
         0         0         0         0         0         0         0         0
         0         0         0         0         0         0         0         0
         0         0         0         0         0         0         0         0
         0         0         0         0         0         0         0         0
         0         0         0         0         0         0         0         0
         0         0         0         0         0         0         0         0
         0         0         0         0         0         0         0         0
         0         0         0         0         0         0         0         0
         0         0         0         0         0         0         0         0
         0         0         0         0         0         0         0         0
         0         0         0         0         0         0         0         0
         0         0         0         0         0         0         0         0
         0         0         0         0         0         0         0         0
         0         0         0         0         0         0         0         0
         0         0         0         0         0         0         0         0
         0         0         0         0         0         0         0         0
         0         0         0         0         0         0         0         0
         0         0         0         0         0         0         0         0
         0         0         0         0         0         0         0         0
         0         0         0         0         0         0         0         0
         0         0         0         0         0         0         0         0
         0         0         0         0         0         0         0         0
         0         0         0         0         0         0         0         0
         0         0         0         0         0         0         0         0
         0         0         0         0         0         0         0         0
         0         0         0         0         0         0         0         0
         0         0         0         0         0         0         0         0
         0         0         0         0         0         0         0         0
         0         0         0         0         0         0         0         0
         0         0         0         0         0         0         0         0
         0         0         0         0         0         0         0         0
         0         0         0         0         0         0         0         0
         0         0         0         0         0         0         0         0
         0         0         0         0         0         0         0         0
         0         0         0         0         0         0         0         0
         0         0         0         0         0         0         0         0
         0         0         0         0         0         0         0         0
         0         0         0         0         0         0         0         0
         0         0         0         0         0         0         0         0
         0         0         0         0         0         0         0         0
         0         0         0         0         0         0         0         0
         0         0         0         0         0         0         0         0
         0         0         0         0         0         0         0         0
         0         0         0         0         0         0         0         0
         0         0         0         0         0         0         0         0
         0         0         0         0         0         0         0         0
         0         0         0         0         0         0         0         0
         0         0         0         0         0         0         0         0
         0         0         0         0         0         0         0         0
         0         0         0         0         0         0         0         0
         0         0         0         0         0         0         0         0
         0         0         0         0         0         0         0         0
         0         0         0         0         0         0         0         0
         0         0         0         0         0         0         0         0
         0         0         0         0         0         0         0         0
         0         0         0         0         0         0         0         0
         0         0         0         0         0         0         0         0
         0         0         0         0         0         0         0         0
         0         0         0         0         0         0         0         0
         0         0         0         0         0         0         0         0
         0         0         0         0         0         0         0         0
         0         0         0         0         0         0         0         0
         0         0         0         0         0         0         0         0
         0         0         0         0         0         0         0         0
         0         0         0         0         0         0         0         0
         0         0         0         0         0         0         0         0
         0         0         0         0         0         0         0         0
         0         0         0         0         0         0         0         0
         0         0         0         0         0         0         0         0
         0         0         0         0         0         0         0         0
         0         0         0         0         0         0         0         0
         0         0         0         0         0         0         0         0
         0         0         0         0         0         0         0         0
         0         0         0         0         0         0         0         0
         0         0         0         0         0         0         0         0
         0         0         0         0         0         0         0         0
         0         0         0         0         0         0         0         0
         0         0         0         0         0         0         0         0
         0         0         0         0         0         0         0         0
         0         0         0         0         0         0         0         0
         0         0         0         0         0         0         0         0
         0         0         0         0         0         0         0         0
         0         0         0         0         0         0         0         0
         0         0         0         0         0         0         0         0
         0         0         0         0         0         0         0         0
         0         0         0         0         0         0         0         0
         0         0         0         0         0         0         0         0
         0         0         0         0         0         0         0         0
         0         0         0         0         0         0         0         0
         0         0         0         0         0         0         0         0
         0         0         0         0         0         0         0         0
         0         0         0         0         0         0         0         0
         0         0         0         0         0         0         0         0
         0         0         0         0         0         0         0         0
         0         0         0         0         0         0         0         0
         0         0         0         0         0         0         0         0
         0         0         0         0         0         0         0         0
         0         0         0         0         0         0         0         0
         0         0         0         0         0         0         0         0
         0         0         0         0         0         0         0         0
         0         0         0         0         0         0         0         0
         0         0         0         0         0         0         0         0
         0         0         0         0         0         0         0         0
         0         0         0         0         0         0         0         0
         0         0         0         0         0         0         0         0
         0         0         0         0         0         0         0         0
         0         0         0         0         0         0         0         0
         0         0         0         0         0         0         0         0
         0         0         0         0         0         0         0         0
         0         0         0         0         0         0         0         0
         0         0         0         0         0         0         0         0
         0         0         0         0         0         0         0         0
         0         0         0         0         0         0         0         0
         0         0         0         0         0         0         0         0
         0         0         0         0         0         0         0         0
         0         0         0         0         0         0         0         0
         0         0         0         0         0         0         0         0
         0         0         0         0         0         0         0         0
         0         0         0         0         0         0         0         0
         0         0         0         0         0         0         0         0
         0         0         0         0         0         0         0         0
         0         0         0         0         0         0         0         0
         0         0         0         0         0         0         0         0
         0         0         0         0         0         0         0         0
         0         0         0         0         0         0         0         0
         0         0         0         0         0         0         0         0
         0         0         0         0         0         0         0         0
         0         0         0         0         0         0         0         0
         0         0         0         0         0         0         0         0
         0         0         0         0         0         0         0         0
         0         0         0         0         0         0         0         0
         0         0         0         0         0         0         0         0
         0         0         0         0         0         0         0         0
         0         0         0         0         0         0         0         0
         0         0         0         0         0         0         0         0
         0         0         0         0         0         0         0         0
         0         0         0         0         0         0         0         0
         0         0         0         0         0         0         0         0
         0         0         0         0         0         0         0         0
         0         0         0         0         0         0         0         0
         0         0         0         0         0         0         0         0
         0         0         0         0         0         0         0         0
         0         0         0         0         0         0         0         0
         0         0         0         0         0         0         0         0
         0         0         0         0         0         0         0         0
         0         0         0         0         0         0         0         0
         0         0         0         0         0         0         0         0
         0         0         0         0         0         0         0         0
         0         0         0         0         0         0         0         0
         0         0         0         0         0         0         0         0
         0         0         0         0         0         0         0         0
         0         0         0         0         0         0         0         0
         0         0         0         0         0         0         0         0
         0         0         0         0         0         0         0         0
         0         0         0         0         0         0         0         0
         0         0         0         0         0         0         0         0
         0         0         0         0         0         0         0         0
         0         0         0         0         0         0         0         0
         0         0         0         0         0         0         0         0
         0         0         0         0         0         0         0         0
         0         0         0         0         0         0         0         0
         0         0         0         0         0         0         0         0
         0         0         0         0         0         0         0         0
         0         0         0         0         0         0         0         0
         0         0         0         0         0         0         0         0
         0         0         0         0         0         0         0         0
         0         0         0         0         0         0         0         0
         0         0         0         0         0         0         0         0
         0         0         0         0         0         0         0         0
         0         0         0         0         0         0         0         0
         0         0         0         0         0         0         0         0
         0         0         0         0         0         0         0         0
         0         0         0         0         0         0         0         0
         0         0         0         0         0         0         0         0
         0         0         0         0         0         0         0         0
         0         0         0         0         0         0         0         0
         0         0         0         0         0         0         0         0
         0         0         0         0         0         0         0         0
         0         0         0         0         0         0         0         0
         0         0         0         0         0         0         0         0
         0         0         0         0         0         0         0         0
         0         0         0         0         0         0         0         0
         0         0         0         0         0         0         0         0
         0         0         0         0         0         0         0         0
         0         0         0         0         0         0         0         0
         0         0         0         0         0         0         0         0
         0         0         0         0         0         0         0         0
         0         0         0         0         0         0         0         0
         0         0         0         0         0         0         0         0
         0         0         0         0         0         0         0         0
         0         0         0         0         0         0         0         0
         0         0         0         0         0         0         0         0
         0         0         0         0         0         0         0         0
         0         0         0         0         0         0         0         0
         0         0         0         0         0         0         0         0
         0         0         0         0         0         0         0         0
         0         0         0         0         0         0         0         0
         0         0         0         0         0         0         0         0
         0         0         0         0         0         0         0         0
         0         0         0         0         0         0         0         0
         0         0         0         0         0         0         0         0
         0         0         0         0         0         0         0         0
         0         0         0         0         0         0         0         0
         0         0         0         0         0         0         0         0
         0         0         0         0         0         0         0         0
         0         0         0         0         0         0         0         0
         0         0         0         0         0         0         0         0
         0         0         0         0         0         0         0         0
         0         0         0         0         0         0         0         0
         0         0         0         0         0         0         0         0
         0         0         0         0         0         0         0         0
         0         0         0         0         0         0         0         0
         0         0         0         0         0         0         0         0
         0         0         0         0         0         0         0         0
         0         0         0         0         0         0         0         0
         0         0         0         0         0         0         0         0
         0         0         0         0         0         0         0         0
         0         0         0         0         0         0         0         0
         0         0         0         0         0         0         0         0
         0         0         0         0         0         0         0         0
         0         0         0         0         0         0         0         0
         0         0         0         0         0         0         0         0
         0         0         0         0         0         0         0         0
         0         0         0         0         0         0         0         0
         0         0         0         0         0         0         0         0
         0         0         0         0         0         0         0         0
         0         0         0         0         0         0         0         0
         0         0         0         0         0         0         0         0
         0         0         0         0         0         0         0         0
         0         0         0         0         0         0         0         0
         0         0         0         0         0         0         0         0
         0         0         0         0         0         0         0         0
         0         0         0         0         0         0         0         0
         0         0         0         0         0         0         0         0
         0         0         0         0         0         0         0         0
         0         0         0         0         0         0         0         0
         0         0         0         0         0         0         0         0
         0         0         0         0         0         0         0         0
         0         0         0         0         0         0         0         0
         0         0         0         0         0         0         0         0
         0         0         0         0         0         0         0         0
         0         0         0         0         0         0         0         0
         0         0         0         0         0         0         0         0
         0         0         0         0         0         0         0         0
         0         0         0         0         0         0         0         0
         0         0         0         0         0         0         0         0
         0         0         0         0         0         0         0         0
         0         0         0         0         0         0         0         0
         0         0         0         0         0         0         0         0
         0         0         0         0         0         0         0         0
         0         0         0         0         0         0         0         0
         0         0         0         0         0         0         0         0
         0         0         0         0         0         0         0         0
         0         0         0         0         0         0         0         0
         0         0         0         0         0         0         0         0
         0         0         0         0         0         0         0         0
         0         0         0         0         0         0         0         0
         0         0         0         0         0         0         0         0
         0         0         0         0         0         0         0         0
         0         0         0         0         0         0         0         0
         0         0         0         0         0         0         0         0
         0         0         0         0         0         0         0         0
         0         0         0         0         0         0         0         0
         0         0         0         0         0         0         0         0
         0         0         0         0         0         0         0         0
         0         0         0         0         0         0         0         0
         0         0         0         0         0         0         0         0
         0         0         0         0         0         0         0         0
         0         0         0         0         0         0         0         0
         0         0         0         0         0         0         0         0
         0         0         0         0         0         0         0         0
         0         0         0         0         0         0         0         0
         0         0         0         0         0         0         0         0
         0         0         0         0         0         0         0         0
         0         0         0         0         0         0         0         0
         0         0         0         0         0         0         0         0
         0         0         0         0         0         0         0         0
         0         0         0         0         0         0         0         0
         0         0         0         0         0         0         0         0
         0         0         0         0         0         0         0         0
         0         0         0         0         0         0         0         0
         0         0         0         0         0         0         0         0
         0         0         0         0         0         0         0         0
         0         0         0         0         0         0         0         0
         0         0         0         0         0         0         0         0
         0         0         0         0         0         0         0         0
         0         0         0         0         0         0         0         0
         0         0         0         0         0         0         0         0
         0         0         0         0         0         0         0         0
         0         0         0         0         0         0         0         0
         0         0         0         0         0         0         0         0
         0         0         0         0         0         0         0         0
         0         0         0         0         0         0         0         0
         0         0         0         0         0         0         0         0
         0         0         0         0         0         0         0         0
         0         0         0         0         0         0         0         0
         0         0         0         0         0         0         0         0
         0         0         0         0         0         0         0         0
         0         0         0         0         0         0         0         0
         0         0         0         0         0         0         0         0
         0         0         0         0         0         0         0         0
         0         0         0         0         0         0         0         0
         0         0         0         0         0         0         0         0
         0         0         0         0         0         0         0         0
         0         0         0         0         0         0         0         0
         0         0         0         0         0         0         0         0
         0         0         0         0         0         0         0         0
         0         0         0         0         0         0         0         0
         0         0         0         0         0         0         0         0
         0         0         0         0         0         0         0         0
         0         0         0         0         0         0         0         0
         0         0         0         0         0         0         0         0
         0         0         0         0         0         0         0         0
         0         0         0         0         0         0         0         0
         0         0         0         0         0         0         0         0
         0         0         0         0         0         0         0         0
         0         0         0         0         0         0         0         0
         0         0         0         0         0         0         0         0
         0         0         0         0         0         0         0         0
         0         0         0         0         0         0         0         0
         0         0         0         0         0         0         0         0
         0         0         0         0         0         0         0         0
         0         0         0         0         0         0         0         0
         0         0         0         0         0         0         0         0
         0         0         0         0         0         0         0         0
         0         0         0         0         0         0         0         0
         0         0         0         0         0         0         0         0
         0         0         0         0         0         0         0         0
         0         0         0         0         0         0         0         0
         0         0         0         0         0         0         0         0
         0         0         0         0         0         0         0         0
         0         0         0         0         0         0         0         0
         0         0         0         0         0         0         0         0
         0         0         0         0         0         0         0         0
         0         0         0         0         0         0         0         0
         0         0         0         0         0         0         0         0
         0         0         0         0         0         0         0         0
         0         0         0         0         0         0         0         0
         0         0         0         0         0         0         0         0
         0         0         0         0         0         0         0         0
         0         0         0         0         0         0         0         0
         0         0         0         0         0         0         0         0
         0         0         0         0         0         0         0         0
         0         0         0         0         0         0         0         0
         0         0         0         0         0         0         0         0
         0         0         0         0         0         0         0         0
         0         0         0         0         0         0         0         0
         0         0         0         0         0         0         0         0
         0         0         0         0         0         0         0         0
         0         0         0         0         0         0         0         0
         0         0         0         0         0         0         0         0
         0         0         0         0         0         0         0         0
         0         0         0         0         0         0         0         0
         0         0         0         0         0         0         0         0
         0         0         0         0         0         0         0         0
         0         0         0         0         0         0         0         0
         0         0         0         0         0         0         0         0
         0         0         0         0         0         0         0         0
         0         0         0         0         0         0         0         0
         0         0         0         0         0         0         0         0
         0         0         0         0         0         0         0         0
         0         0         0         0         0         0         0         0
         0         0         0         0         0         0         0         0
         0         0         0         0         0         0         0         0
         0         0         0         0         0         0         0         0
         0         0         0         0         0         0         0         0
         0         0         0         0         0         0         0         0
         0         0         0         0         0         0         0         0
         0         0         0         0         0         0         0         0
         0         0         0         0         0         0         0         0
         0         0         0         0         0         0         0         0
         0         0         0         0         0         0         0         0
         0         0         0         0         0         0         0         0
         0         0         0         0         0         0         0         0
         0         0         0         0         0         0         0         0
         0         0         0         0         0         0         0         0
         0         0         0         0         0         0         0         0
         0         0         0         0         0         0         0         0
         0         0         0         0         0         0         0         0
         0         0         0         0         0         0         0         0
         0         0         0         0         0         0         0         0
         0         0         0         0         0         0         0         0
         0         0         0         0         0         0         0         0
         0         0         0         0         0         0         0         0
         0         0         0         0         0         0         0         0
         0         0         0         0         0         0         0         0
         0         0         0         0         0         0         0         0
         0         0         0         0         0         0         0         0
         0         0         0         0         0         0         0         0
         0         0         0         0         0         0         0         0
         0         0         0         0         0         0         0         0
         0         0         0         0         0         0         0         0
         0         0         0         0         0         0         0         0
         0         0         0         0         0         0         0         0
         0         0         0         0         0         0         0         0
         0         0         0         0         0         0         0         0
         0         0         0         0         0         0         0         0
         0         0         0         0         0         0         0         0
         0         0         0         0         0         0         0         0
         0         0         0         0         0         0         0         0
         0         0         0         0         0         0         0         0
         0         0         0         0         0         0         0         0
         0         0         0         0         0         0         0         0
         0         0         0         0         0         0         0         0
         0         0         0         0         0         0         0         0
         0         0         0         0         0         0         0         0
         0         0         0         0         0         0         0         0
         0         0         0         0         0         0         0         0
         0         0         0         0         0         0         0         0
         0         0         0         0         0         0         0         0
         0         0         0         0         0         0         0         0
         0         0         0         0         0         0         0         0
         0         0         0         0         0         0         0         0
         0         0         0         0         0         0         0         0
         0         0         0         0         0         0         0         0
         0         0         0         0         0         0         0         0
         0         0         0         0         0         0         0         0
         0         0         0         0         0         0         0         0
         0         0         0         0         0         0         0         0
         0         0         0         0         0         0         0         0
         0         0         0         0         0         0         0         0
         0         0         0         0         0         0         0         0
         0         0         0         0         0         0         0         0
         0         0         0         0         0         0         0         0
         0         0         0         0         0         0         0         0
         0         0         0         0         0         0         0         0
         0         0         0         0         0         0         0         0
         0         0         0         0         0         0         0         0
         0         0         0         0         0         0         0         0
         0         0         0         0         0         0         0         0
         0         0         0         0         0         0         0         0
         0         0         0         0         0         0         0         0
         0         0         0         0         0         0         0         0
         0         0         0         0         0         0         0         0
         0         0         0         0         0         0         0         0
         0         0         0         0         0         0         0         0
         0         0         0         0         0         0         0         0
         0         0         0         0         0         0         0         0
         0         0         0         0         0         0         0         0
         0         0         0         0         0         0         0         0
         0         0         0         0         0         0         0         0
         0         0         0         0         0         0         0         0
         0         0         0         0         0         0         0         0
         0         0         0         0         0         0         0         0
         0         0         0         0         0         0         0         0
         0         0         0         0         0         0         0         0
         0         0         0         0         0         0         0         0
         0         0         0         0         0         0         0         0
         0         0         0         0         0         0         0         0
         0         0         0         0         0         0         0         0
         0         0         0         0         0         0         0         0
         0         0         0         0         0         0         0         0
         0         0         0         0         0         0         0         0
         0         0         0         0         0         0         0         0
         0         0         0         0         0         0         0         0
         0         0         0         0         0         0         0         0
         0         0         0         0         0         0         0         0
         0         0         0         0         0         0         0         0
         0         0         0         0         0         0         0         0
         0         0         0         0         0         0         0         0
         0         0         0         0         0         0         0         0
         0         0         0         0         0         0         0         0
         0         0         0         0         0         0         0         0
         0         0         0         0         0         0         0         0
         0         0         0         0         0         0         0         0
         0         0         0         0         0         0         0         0
         0         0         0         0         0         0         0         0
         0         0         0         0         0         0         0         0
         0         0         0         0         0         0         0         0
         0         0         0         0         0         0         0         0
         0         0         0         0         0         0         0         0
         0         0         0         0         0         0         0         0
         0         0         0         0         0         0         0         0
         0         0         0         0         0         0         0         0
         0         0         0         0         0         0         0         0
         0         0         0         0         0         0         0         0
         0         0         0         0         0         0         0         0
         0         0         0         0         0         0         0         0
         0         0         0         0         0         0         0         0
         0         0         0         0         0         0         0         0
         0         0         0         0         0         0         0         0
         0         0         0         0         0         0         0         0
         0         0         0         0         0         0         0         0
         0         0         0         0         0         0         0         0
         0         0         0         0         0         0         0         0
         0         0         0         0         0         0         0         0
         0         0         0         0         0         0         0         0
         0         0         0         0         0         0         0         0
         0         0         0         0         0         0         0         0
         0         0         0         0         0         0         0         0
         0         0         0         0         0         0         0         0
         0         0         0         0         0         0         0         0
         0         0         0         0         0         0         0         0
         0         0         0         0         0         0         0         0
         0         0         0         0         0         0         0         0
         0         0         0         0         0         0         0         0
         0         0         0         0         0         0         0         0
         0         0         0         0         0         0         0         0
         0         0         0         0         0         0         0         0
         0         0         0         0         0         0         0         0
         0         0         0         0         0         0         0         0
         0         0         0         0         0         0         0         0
         0         0         0         0         0         0         0         0
         0         0         0         0         0         0         0         0
         0         0         0         0         0         0         0         0
         0         0         0         0         0         0         0         0
         0         0         0         0         0         0         0         0
         0         0         0         0         0         0         0         0
         0         0         0         0         0         0         0         0
         0         0         0         0         0         0         0         0
         0         0         0         0         0         0         0         0
         0         0         0         0         0         0         0         0
         0         0         0         0         0         0         0         0
         0         0         0         0         0         0         0         0
         0         0         0         0         0         0         0         0
         0         0         0         0         0         0         0         0
         0         0         0         0         0         0         0         0
         0         0         0         0         0         0         0         0
         0         0         0         0         0         0         0         0
         0         0         0         0         0         0         0         0
         0         0         0         0         0         0         0         0
         0         0         0         0         0         0         0         0
         0         0         0         0         0         0         0         0
         0         0         0         0         0         0         0         0
         0         0         0         0         0         0         0         0
         0         0         0         0         0         0         0         0
         0         0         0         0         0         0         0         0
         0         0         0         0         0         0         0         0
         0         0         0         0         0         0         0         0
         0         0         0         0         0         0         0         0
         0         0         0         0         0         0         0         0
         0         0         0         0         0         0         0         0
         0         0         0         0         0         0         0         0
         0         0         0         0         0         0         0         0
         0         0         0         0         0         0         0         0
         0         0         0         0         0         0         0         0
         0         0         0         0         0         0         0         0
         0         0         0         0         0         0         0         0
         0         0         0         0         0         0         0         0
         0         0         0         0         0         0         0         0
         0         0         0         0         0         0         0         0
         0         0         0         0         0         0         0         0
         0         0         0         0         0         0         0         0
         0         0         0         0         0         0         0         0
         0         0         0         0         0         0         0         0
         0         0         0         0         0         0         0         0
         0         0         0         0         0         0         0         0
         0         0         0         0         0         0         0         0
         0         0         0         0         0         0         0         0
         0         0         0         0         0         0         0         0
         0         0         0         0         0         0         0         0
         0         0         0         0         0         0         0         0
         0         0         0         0         0         0         0         0
         0         0         0         0         0         0         0         0
         0         0         0         0         0         0         0         0
         0         0         0         0         0         0         0         0
         0         0         0         0         0         0         0         0
         0         0         0         0         0         0         0         0
         0         0         0         0         0         0         0         0
         0         0         0         0         0         0         0         0
         0         0         0         0         0         0         0         0
         0         0         0         0         0         0         0         0
         0         0         0         0         0         0         0         0
         0         0         0         0         0         0         0         0
         0         0         0         0         0         0         0         0
         0         0         0         0         0         0         0         0
         0         0         0         0         0         0         0         0
         0         0         0         0         0         0         0         0
         0         0         0         0         0         0         0         0
         0         0         0         0         0         0         0         0
         0         0         0         0         0         0         0         0
         0         0         0         0         0         0         0         0
         0         0         0         0         0         0         0         0
         0         0         0         0         0         0         0         0
         0         0         0         0         0         0         0         0
         0         0         0         0         0         0         0         0
         0         0         0         0         0         0         0         0
         0         0         0         0         0         0         0         0
         0         0         0         0         0         0         0         0
         0         0         0         0         0         0         0         0
         0         0         0         0         0         0         0         0
         0         0         0         0         0         0         0         0
         0         0         0         0         0         0         0         0
         0         0         0         0         0         0         0         0
         0         0         0         0         0         0         0         0
         0         0         0         0         0         0         0         0
         0         0         0         0         0         0         0         0
         0         0         0         0         0         0         0         0
         0         0         0         0         0         0         0         0
         0         0         0         0         0         0         0         0
         0         0         0         0         0         0         0         0
         0         0         0         0         0         0         0         0
         0         0         0         0         0         0         0         0
         0         0         0         0         0         0         0         0
         0         0         0         0         0         0         0         0
         0         0         0         0         0         0         0         0
         0         0         0         0         0         0         0         0
         0         0         0         0         0         0         0         0
         0         0         0         0         0         0         0         0
         0         0         0         0         0         0         0         0
         0         0         0         0         0         0         0         0
         0         0         0         0         0         0         0         0
         0         0         0         0         0         0         0         0
         0         0         0         0         0         0         0         0
         0         0         0         0         0         0         0         0
         0         0         0         0         0         0         0         0
         0         0         0         0         0         0         0         0
         0         0         0         0         0         0         0         0
         0         0         0         0         0         0         0         0
         0         0         0         0         0         0         0         0
         0         0         0         0         0         0         0         0
         0         0         0         0         0         0         0         0
         0         0         0         0         0         0         0         0
         0         0         0         0         0         0         0         0
         0         0         0         0         0         0         0         0
         0         0         0         0         0         0         0         0
         0         0         0         0         0         0         0         0
         0         0         0         0         0         0         0         0
         0         0         0         0         0         0         0         0
         0         0         0         0         0         0         0         0
         0         0         0         0         0         0         0         0
         0         0         0         0         0         0         0         0
         0         0         0         0         0         0         0         0
         0         0         0         0         0         0         0         0
         0         0         0         0         0         0         0         0
         0         0         0         0         0         0         0         0
         0         0         0         0         0         0         0         0
         0         0         0         0         0         0         0         0
         0         0         0         0         0         0         0         0
         0         0         0         0         0         0         0         0
         0         0         0         0         0         0         0         0
         0         0         0         0         0         0         0         0
         0         0         0         0         0         0         0         0
         0         0         0         0         0         0         0         0
         0         0         0         0         0         0         0         0
         0         0         0         0         0         0         0         0
         0         0         0         0         0         0         0         0
         0         0         0         0         0         0         0         0
         0         0         0         0         0         0         0         0
         0         0         0         0         0         0         0         0
         0         0         0         0         0         0         0         0
         0         0         0         0         0         0         0         0
         0         0         0         0         0         0         0         0
         0         0         0         0         0         0         0         0
         0         0         0         0         0         0         0         0
         0         0         0         0         0         0         0         0
         0         0         0         0         0         0         0         0
         0         0         0         0         0         0         0         0
         0         0         0         0         0         0         0         0
         0         0         0         0         0         0         0         0
         0         0         0         0         0         0         0         0
         0         0         0         0         0         0         0         0
         0         0         0         0         0         0         0         0
         0         0         0         0         0         0         0         0
         0         0         0         0         0         0         0         0
         0         0         0         0         0         0         0         0
         0         0         0         0         0         0         0         0
         0         0         0         0         0         0         0         0
         0         0         0         0         0         0         0         0
         0         0         0         0         0         0         0         0
         0         0         0         0         0         0         0         0
         0         0         0         0         0         0         0         0
         0         0         0         0         0         0         0         0
         0         0         0         0         0         0         0         0
         0         0         0         0         0         0         0         0
         0         0         0         0         0         0         0         0
         0         0         0         0         0         0         0         0
         0         0         0         0         0         0         0         0
         0         0         0         0         0         0         0         0
         0         0         0         0         0         0         0         0
         0         0         0         0         0         0         0         0
         0         0         0         0         0         0         0         0
         0         0         0         0         0         0         0         0
         0         0         0         0         0         0         0         0
         0         0         0         0         0         0         0         0
         0         0         0         0         0         0         0         0
         0         0         0         0         0         0         0         0
         0         0         0         0         0         0         0         0
         0         0         0         0         0         0         0         0
         0         0         0         0         0         0         0         0
         0         0         0         0         0         0         0         0
         0         0         0         0         0         0         0         0
         0         0         0         0         0         0         0         0
         0         0         0         0         0         0         0         0
         0         0         0         0         0         0         0         0
         0         0         0         0         0         0         0         0
         0         0         0         0         0         0         0         0
         0         0         0         0         0         0         0         0
         0         0         0         0         0         0         0         0
         0         0         0         0         0         0         0         0
         0         0         0         0         0         0         0         0
         0         0         0         0         0         0         0         0
         0         0         0         0         0         0         0         0
         0         0         0         0         0         0         0         0
         0         0         0         0         0         0         0         0
         0         0         0         0         0         0         0         0
         0         0         0         0         0         0         0         0
         0         0         0         0         0         0         0         0
         0         0         0         0         0         0         0         0
         0         0         0         0         0         0         0         0
         0         0         0         0         0         0         0         0
         0         0         0         0         0         0         0         0
         0         0         0         0         0         0         0         0
         0         0         0         0         0         0         0         0
         0         0         0         0         0         0         0         0
         0         0         0         0         0         0         0         0
         0         0         0         0         0         0         0         0
         0         0         0         0         0         0         0         0
         0         0         0         0         0         0         0         0
         0         0         0         0         0         0         0         0
         0         0         0         0         0         0         0         0
         0         0         0         0         0         0         0         0
         0         0         0         0         0         0         0         0
         0         0         0         0         0         0         0         0
         0         0         0         0         0         0         0         0
         0         0         0         0         0         0         0         0
         0         0         0         0         0         0         0         0
         0         0         0         0         0         0         0         0
         0         0         0         0         0         0         0         0
         0         0         0         0         0         0         0         0
         0         0         0         0         0         0         0         0
         0         0         0         0         0         0         0         0
         0         0         0         0         0         0         0         0
         0         0         0         0         0         0         0         0
         0         0         0         0         0         0         0         0
         0         0         0         0         0         0         0         0
         0         0         0         0         0         0         0         0
         0         0         0         0         0         0         0         0
         0         0         0         0         0         0         0         0
         0         0         0         0         0         0         0         0
         0         0         0         0         0         0         0         0
         0         0         0         0         0         0         0         0
         0         0         0         0         0         0         0         0
         0         0         0         0         0         0         0         0
         0         0         0         0         0         0         0         0
         0         0         0         0         0         0         0         0
         0         0         0         0         0         0         0         0
         0         0         0         0         0         0         0         0
         0         0         0         0         0         0         0         0
         0         0         0         0         0         0         0         0
         0         0         0         0         0         0         0         0
         0         0         0         0         0         0         0         0
         0         0         0         0         0         0         0         0
         0         0         0         0         0         0         0         0
         0         0         0         0         0         0         0         0
         0         0         0         0         0         0         0         0
         0         0         0         0         0         0         0         0
         0         0         0         0         0         0         0         0
         0         0         0         0         0         0         0         0
         0         0         0         0         0         0         0         0
         0         0         0         0         0         0         0         0
         0         0         0         0         0         0         0         0
         0         0         0         0         0         0         0         0
         0         0         0         0         0         0         0         0
         0         0         0         0         0         0         0         0
         0         0         0         0         0         0         0         0
         0         0         0         0         0         0         0         0
         0         0         0         0         0         0         0         0
         0         0         0         0         0         0         0         0
         0         0         0         0         0         0         0         0
         0         0         0         0         0         0         0         0
         0         0         0         0         0         0         0         0
         0         0         0         0         0         0         0         0
         0         0         0         0         0         0         0         0
         0         0         0         0         0         0         0         0
         0         0         0         0         0         0         0         0
         0         0         0         0         0         0         0         0
         0         0         0         0         0         0         0         0
         0         0         0         0         0         0         0         0
         0         0         0         0         0         0         0         0
         0         0         0         0         0         0         0         0
         0         0         0         0         0         0         0         0
         0         0         0         0         0         0         0         0
         0         0         0         0         0         0         0         0
         0         0         0         0         0         0         0         0
         0         0         0         0         0         0         0         0
         0         0         0         0         0         0         0         0
         0         0         0         0         0         0         0         0
         0         0         0         0         0         0         0         0
         0         0         0         0         0         0         0         0
         0         0         0         0         0         0         0         0
         0         0         0         0         0         0         0         0
         0         0         0         0         0         0         0         0
         0         0         0         0         0         0         0         0
         0         0         0         0         0         0         0         0
         0         0         0         0         0         0         0         0
         0         0         0         0         0         0         0         0
         0         0         0         0         0         0         0         0
         0         0         0         0         0         0         0         0
         0         0         0         0         0         0         0         0
         0         0         0         0         0         0         0         0
         0         0         0         0         0         0         0         0
         0         0         0         0         0         0         0         0
         0         0         0         0         0         0         0         0
         0         0         0         0         0         0         0         0
         0         0         0         0         0         0         0         0
         0         0         0         0         0         0         0         0
         0         0         0         0         0         0         0         0
         0         0         0         0         0         0         0         0
         0         0         0         0         0         0         0         0
         0         0         0         0         0         0         0         0
         0         0         0         0         0         0         0         0
         0         0         0         0         0         0         0         0
         0         0         0         0         0         0         0         0
         0         0         0         0         0         0         0         0
         0         0         0         0         0         0         0         0
         0         0         0         0         0         0         0         0
         0         0         0         0         0         0         0         0
         0         0         0         0         0         0         0         0
         0         0         0         0         0         0         0         0
         0         0         0         0         0         0         0         0
         0         0         0         0         0         0         0         0
         0         0         0         0         0         0         0         0
         0         0         0         0         0         0         0         0
         0         0         0         0         0         0         0         0
         0         0         0         0         0         0         0         0
         0         0         0         0         0         0         0         0
         0         0         0         0         0         0         0         0
         0         0         0         0         0         0         0         0
         0         0         0         0         0         0         0         0
         0         0         0         0         0         0         0         0
         0         0         0         0         0         0         0         0
         0         0         0         0         0         0         0         0
         0         0         0         0         0         0         0         0
         0         0         0         0         0         0         0         0
         0         0         0         0         0         0         0         0
         0         0         0         0         0         0         0         0
         0         0         0         0         0         0         0         0
         0         0         0         0         0         0         0         0
         0         0         0         0         0         0         0         0
         0         0         0         0         0         0         0         0
         0         0         0         0         0         0         0         0
         0         0         0         0         0         0         0         0
         0         0         0         0         0         0         0         0
         0         0         0         0         0         0         0         0
         0         0         0         0         0         0         0         0
         0         0         0         0         0         0         0         0
         0         0         0         0         0         0         0         0
         0         0         0         0         0         0         0         0
         0         0         0         0         0         0         0         0
         0         0         0         0         0         0         0         0
         0         0         0         0         0         0         0         0
         0         0         0         0         0         0         0         0
         0         0         0         0         0         0         0         0
         0         0         0         0         0         0         0         0
         0         0         0         0         0         0         0         0
         0         0         0         0         0         0         0         0
         0         0         0         0         0         0         0         0
         0         0         0         0         0         0         0         0
         0         0         0         0         0         0         0         0
         0         0         0         0         0         0         0         0
         0         0         0         0         0         0         0         0
         0         0         0         0         0         0         0         0
         0         0         0         0         0         0         0         0
         0         0         0         0         0         0         0         0
         0         0         0         0         0         0         0         0
         0         0         0         0         0         0         0         0
         0         0         0         0         0         0         0         0
         0         0         0         0         0         0         0         0
         0         0         0         0         0         0         0         0
         0         0         0         0         0         0         0         0
         0         0         0         0         0         0         0         0
         0         0         0         0         0         0         0         0
         0         0         0         0         0         0         0         0
         0         0         0         0         0         0         0         0
         0         0         0         0         0         0         0         0
         0         0         0         0         0         0         0         0
         0         0         0         0         0         0         0         0
         0         0         0         0         0         0         0         0
         0         0         0         0         0         0         0         0
         0         0         0         0         0         0         0         0
         0         0         0         0         0         0         0         0
         0         0         0         0         0         0         0         0
         0         0         0         0         0         0         0         0
         0         0         0         0         0         0         0         0
         0         0         0         0         0         0         0         0
         0         0         0         0         0         0         0         0
         0         0         0         0         0         0         0         0
         0         0         0         0         0         0         0         0
         0         0         0         0         0         0         0         0
         0         0         0         0         0         0         0         0
         0         0         0         0         0         0         0         0
         0         0         0         0         0         0         0         0
         0         0         0         0         0         0         0         0
         0         0         0         0         0         0         0         0
         0         0         0         0         0         0         0         0
         0         0         0         0         0         0         0         0
         0         0         0         0         0         0         0         0
         0         0         0         0         0         0         0         0
         0         0         0         0         0         0         0         0
         0         0         0         0         0         0         0         0
         0         0         0         0         0         0         0         0
         0         0         0         0         0         0         0         0
         0         0         0         0         0         0         0         0
         0         0         0         0         0         0         0         0
         0         0         0         0         0         0         0         0
         0         0         0         0         0         0         0         0
         0         0         0         0         0         0         0         0
         0         0         0         0         0         0         0         0
         0         0         0         0         0         0         0         0
         0         0         0         0         0         0         0         0
         0         0         0         0         0         0         0         0
         0         0         0         0         0         0         0         0
         0         0         0         0         0         0         0         0
         0         0         0         0         0         0         0         0
         0         0         0         0         0         0         0         0
         0         0         0         0         0         0         0         0
         0         0         0         0         0         0         0         0
         0         0         0         0         0         0         0         0
         0         0         0         0         0         0         0         0
         0         0         0         0         0         0         0         0
         0         0         0         0         0         0         0         0
         0         0         0         0         0         0         0         0
         0         0         0         0         0         0         0         0
         0         0         0         0         0         0         0         0
         0         0         0         0         0         0         0         0
         0         0         0         0         0         0         0         0
         0         0         0         0         0         0         0         0
         0         0         0         0         0         0         0         0
         0         0         0         0         0         0         0         0
         0         0         0         0         0         0         0         0
         0         0         0         0         0         0         0         0
         0         0         0         0         0         0         0         0
         0         0         0         0         0         0         0         0
         0         0         0         0         0         0         0         0
         0         0         0         0         0         0         0         0
         0         0         0         0         0         0         0         0
         0         0         0         0         0         0         0         0
         0         0         0         0         0         0         0         0
         0         0         0         0         0         0         0         0
         0         0         0         0         0         0         0         0
         0         0         0         0         0         0         0         0
         0         0         0         0         0         0         0         0
         0         0         0         0         0         0         0         0
         0         0         0         0         0         0         0         0
         0         0         0         0         0         0         0         0
         0         0         0         0         0         0         0         0
         0         0         0         0         0         0         0         0
         0         0         0         0         0         0         0         0
         0         0         0         0         0         0         0         0
         0         0         0         0         0         0         0         0
         0         0         0         0         0         0         0         0
         0         0         0         0         0         0         0         0
         0         0         0         0         0         0         0         0
         0         0         0         0         0         0         0         0
         0         0         0         0         0         0         0         0
         0         0         0         0         0         0         0         0
         0         0         0         0         0         0         0         0
         0         0         0         0         0         0         0         0
         0         0         0         0         0         0         0         0
         0         0         0         0         0         0         0         0
         0         0         0         0         0         0         0         0
         0         0         0         0         0         0         0         0
         0         0         0         0         0         0         0         0
         0         0         0         0         0         0         0         0
         0         0         0         0         0         0         0         0
         0         0         0         0         0         0         0         0
         0         0         0         0         0         0         0         0
         0         0         0         0         0         0         0         0
         0         0         0         0         0         0         0         0
         0         0         0         0         0         0         0         0
         0         0         0         0         0         0         0         0
         0         0         0         0         0         0         0         0
         0         0         0         0         0         0         0         0
         0         0         0         0         0         0         0         0
         0         0         0         0         0         0         0         0
         0         0         0         0         0         0         0         0
         0         0         0         0         0         0         0         0
         0         0         0         0         0         0         0         0
         0         0         0         0         0         0         0         0
         0         0         0         0         0         0         0         0
         0         0         0         0         0         0         0         0
         0         0         0         0         0         0         0         0
         0         0         0         0         0         0         0         0
         0         0         0         0         0         0         0         0
         0         0         0         0         0         0         0         0
         0         0         0         0         0         0         0         0
         0         0         0         0         0         0         0         0
         0         0         0         0         0         0         0         0
         0         0         0         0         0         0         0         0
         0         0         0         0         0         0         0         0
         0         0         0         0         0         0         0         0
         0         0         0         0         0         0         0         0
         0         0         0         0         0         0         0         0
         0         0         0         0         0         0         0         0
         0         0         0         0         0         0         0         0
         0         0         0         0         0         0         0         0
         0         0         0         0         0         0         0         0
         0         0         0         0         0         0         0         0
         0         0         0         0         0         0         0         0
         0         0         0         0         0         0         0         0
         0         0         0         0         0         0         0         0
         0         0         0         0         0         0         0         0
         0         0         0         0         0         0         0         0
         0         0         0         0         0         0         0         0
         0         0         0         0         0         0         0         0
         0         0         0         0         0         0         0         0
         0         0         0         0         0         0         0         0
         0         0         0         0         0         0         0         0
         0         0         0         0         0         0         0         0
         0         0         0         0         0         0         0         0
         0         0         0         0         0         0         0         0
         0         0         0         0         0         0         0         0
         0         0         0         0         0         0         0         0
         0         0         0         0         0         0         0         0
         0         0         0         0         0         0         0         0
         0         0         0         0         0         0         0         0
         0         0         0         0         0         0         0         0
         0         0         0         0         0         0         0         0
         0         0         0         0         0         0         0         0
         0         0         0         0         0         0         0         0
         0         0         0         0         0         0         0         0
         0         0         0         0         0         0         0         0
         0         0         0         0         0         0         0         0
         0         0         0         0         0         0         0         0
         0         0         0         0         0         0         0         0
         0         0         0         0         0         0         0         0
         0         0         0         0         0         0         0         0
         0         0         0         0         0         0         0         0
         0         0         0         0         0         0         0         0
         0         0         0         0         0         0         0         0
         0         0         0         0         0         0         0         0
         0         0         0         0         0         0         0         0
         0         0         0         0         0         0         0         0
         0         0         0         0         0         0         0         0
         0         0         0         0         0         0         0         0
         0         0         0         0         0         0         0         0
         0         0         0         0         0         0         0         0
         0         0         0         0         0         0         0         0
         0         0         0         0         0         0         0         0
         0         0         0         0         0         0         0         0
         0         0         0         0         0         0         0         0
         0         0         0         0         0         0         0         0
         0         0         0         0         0         0         0         0
         0         0         0         0         0         0         0         0
         0         0         0         0         0         0         0         0
         0         0         0         0         0         0         0         0
         0         0         0         0         0         0         0         0
         0         0         0         0         0         0         0         0
         0         0         0         0         0         0         0         0
         0         0         0         0         0         0         0         0
         0         0         0         0         0         0         0         0
         0         0         0         0         0         0         0         0
         0         0         0         0         0         0         0         0
         0         0         0         0         0         0         0         0
         0         0         0         0         0         0         0         0
         0         0         0         0         0         0         0         0
         0         0         0         0         0         0         0         0
         0         0         0         0         0         0         0         0
         0         0         0         0         0         0         0         0
         0         0         0         0         0         0         0         0
         0         0         0         0         0         0         0         0
         0         0         0         0         0         0         0         0
         0         0         0         0         0         0         0         0
         0         0         0         0         0         0         0         0
         0         0         0         0         0         0         0         0
         0         0         0         0         0         0         0         0
         0         0         0         0         0         0         0         0
         0         0         0         0         0         0         0         0
         0         0         0         0         0         0         0         0
         0         0         0         0         0         0         0         0
         0         0         0         0         0         0         0         0
         0         0         0         0         0         0         0         0
         0         0         0         0         0         0         0         0
         0         0         0         0         0         0         0         0
         0         0         0         0         0         0         0         0
         0         0         0         0         0         0         0         0
         0         0         0         0         0         0         0         0
         0         0         0         0         0         0         0         0
         0         0         0         0         0         0         0         0
         0         0         0         0         0         0         0         0
         0         0         0         0         0         0         0         0
         0         0         0         0         0         0         0         0
         0         0         0         0         0         0         0         0
         0         0         0         0         0         0         0         0
         0         0         0         0         0         0         0         0
         0         0         0         0         0         0         0         0
         0         0         0         0         0         0         0         0
         0         0         0         0         0         0         0         0
         0         0         0         0         0         0         0         0
         0         0         0         0         0         0         0         0
         0         0         0         0         0         0         0         0
         0         0         0         0         0         0         0         0
         0         0         0         0         0         0         0         0
         0         0         0         0         0         0         0         0
         0         0         0         0         0         0         0         0
         0         0         0         0         0         0         0         0
         0         0         0         0         0         0         0         0
         0         0         0         0         0         0         0         0
         0         0         0         0         0         0         0         0
         0         0         0         0         0         0         0         0
         0         0         0         0         0         0         0         0
         0         0         0         0         0         0         0         0
         0         0         0         0         0         0         0         0
         0         0         0         0         0         0         0         0
         0         0         0         0         0         0         0         0
         0         0         0         0         0         0         0         0
         0         0         0         0         0         0         0         0
         0         0         0         0         0         0         0         0
         0         0         0         0         0         0         0         0
         0         0         0         0         0         0         0         0
         0         0         0         0         0         0         0         0
         0         0         0         0         0         0         0         0
         0         0         0         0         0         0         0         0
         0         0         0         0         0         0         0         0
         0         0         0         0         0         0         0         0
         0         0         0         0         0         0         0         0
         0         0         0         0         0         0         0         0
         0         0         0         0         0         0         0         0
         0         0         0         0         0         0         0         0
         0         0         0         0         0         0         0         0
         0         0         0         0         0         0         0         0
         0         0         0         0         0         0         0         0
         0         0         0         0         0         0         0         0
         0         0         0         0         0         0         0         0
         0         0         0         0         0         0         0         0
         0         0         0         0         0         0         0         0
         0         0         0         0         0         0         0         0
         0         0         0         0         0         0         0         0
         0         0         0         0         0         0         0         0
         0         0         0         0         0         0         0         0
         0         0         0         0         0         0         0         0
         0         0         0         0         0         0         0         0
         0         0         0         0         0         0         0         0
         0         0         0         0         0         0         0         0
         0         0         0         0         0         0         0         0
         0         0         0         0         0         0         0         0
         0         0         0         0         0         0         0         0
         0         0         0         0         0         0         0         0
         0         0         0         0         0         0         0         0
         0         0         0         0         0         0         0         0
         0         0         0         0         0         0         0         0
         0         0         0         0         0         0         0         0
         0         0         0         0         0         0         0         0
         0         0         0         0         0         0         0         0
         0         0         0         0         0         0         0         0
         0         0         0         0         0         0         0         0
         0         0         0         0         0         0         0         0
         0         0         0         0         0         0         0         0
         0         0         0         0         0         0         0         0
         0         0         0         0         0         0         0         0
         0         0         0         0         0         0         0         0
         0         0         0         0         0         0         0         0
         0         0         0         0         0         0         0         0
         0         0         0         0         0         0         0         0
         0         0         0         0         0         0         0         0
         0         0         0         0         0         0         0         0
         0         0         0         0         0         0         0         0
         0         0         0         0         0         0         0         0
         0         0         0         0         0         0         0         0
         0         0         0         0         0         0         0         0
         0         0         0         0         0         0         0         0
         0         0         0         0         0         0         0         0
         0         0         0         0         0         0         0         0
         0         0         0         0         0         0         0         0
         0         0         0         0         0         0         0         0
         0         0         0         0         0         0         0         0
         0         0         0         0         0         0         0         0
         0         0         0         0         0         0         0         0
         0         0         0         0         0         0         0         0
         0         0         0         0         0         0         0         0
         0         0         0         0         0         0         0         0
         0         0         0         0         0         0         0         0
         0         0         0         0         0         0         0         0
         0         0         0         0         0         0         0         0
         0         0         0         0         0         0         0         0
         0         0         0         0         0         0         0         0
         0         0         0         0         0         0         0         0
         0         0         0         0         0         0         0         0
         0         0         0         0         0         0         0         0
         0         0         0         0         0         0         0         0
         0         0         0         0         0         0         0         0
         0         0         0         0         0         0         0         0
         0         0         0         0         0         0         0         0
         0         0         0         0         0         0         0         0
         0         0         0         0         0         0         0         0
         0         0         0         0         0         0         0         0
         0         0         0         0         0         0         0         0
         0         0         0         0         0         0         0         0
         0         0         0         0         0         0         0         0
         0         0         0         0         0         0         0         0
         0         0         0         0         0         0         0         0
         0         0         0         0         0         0         0         0
         0         0         0         0         0         0         0         0
         0         0         0         0         0         0         0         0
         0         0         0         0         0         0         0         0
         0         0         0         0         0         0         0         0
         0         0         0         0         0         0         0         0
         0         0         0         0         0         0         0         0
         0         0         0         0         0         0         0         0
         0         0         0         0         0         0         0         0
         0         0         0         0         0         0         0         0
         0         0         0         0         0         0         0         0
         0         0         0         0         0         0         0         0
         0         0         0         0         0         0         0         0
         0         0         0         0         0         0         0         0
         0         0         0         0         0         0         0         0
         0         0         0         0         0         0         0         0
         0         0         0         0         0         0         0         0
         0         0         0         0         0         0         0         0
         0         0         0         0         0         0         0         0
         0         0         0         0         0         0         0         0
         0         0         0         0         0         0         0         0
         0         0         0         0         0         0         0         0
         0         0         0         0         0         0         0         0
         0         0         0         0         0         0         0         0
         0         0         0         0         0         0         0         0
         0         0         0         0         0         0         0         0
         0         0         0         0         0         0         0         0
         0         0         0         0         0         0         0         0
         0         0         0         0         0         0         0         0
         0         0         0         0         0         0         0         0
         0         0         0         0         0         0         0         0
         0         0         0         0         0         0         0         0
         0         0         0         0         0         0         0         0
         0         0         0         0         0         0         0         0
         0         0         0         0         0         0         0         0
         0         0         0         0         0         0         0         0
         0         0         0         0         0         0         0         0
         0         0         0         0         0         0         0         0
         0         0         0         0         0         0         0         0
         0         0         0         0         0         0         0         0
         0         0         0         0         0         0         0         0
         0         0         0         0         0         0         0         0
         0         0         0         0         0         0         0         0
         0         0         0         0         0         0         0         0
         0         0         0         0         0         0         0         0
         0         0         0         0         0         0         0         0
         0         0         0         0         0         0         0         0
         0         0         0         0         0         0         0         0
         0         0         0         0         0         0         0         0
         0         0         0         0         0         0         0         0
         0         0         0         0         0         0         0         0
         0         0         0         0         0         0         0         0
         0         0         0         0         0         0         0         0
         0         0         0         0         0         0         0         0
         0         0         0         0         0         0         0         0
         0         0         0         0         0         0         0         0
         0         0         0         0         0         0         0         0
         0         0         0         0         0         0         0         0
         0         0         0         0         0         0         0         0
         0         0         0         0         0         0         0         0
         0         0         0         0         0         0         0         0
         0         0         0         0         0         0         0         0
         0         0         0         0         0         0         0         0
         0         0         0         0         0         0         0         0
         0         0         0         0         0         0         0         0
         0         0         0         0         0         0         0         0
         0         0         0         0         0         0         0         0
         0         0         0         0         0         0         0         0
         0         0         0         0         0         0         0         0
         0         0         0         0         0         0         0         0
         0         0         0         0         0         0         0         0
         0         0         0         0         0         0         0         0
         0         0         0         0         0         0         0         0
         0         0         0         0         0         0         0         0
         0         0         0         0         0         0         0         0
         0         0         0         0         0         0         0         0
         0         0         0         0         0         0         0         0
         0         0         0         0         0         0         0         0
         0         0         0         0         0         0         0         0
         0         0         0         0         0         0         0         0
         0         0         0         0         0         0         0         0
         0         0         0         0         0         0         0         0
         0         0         0         0         0         0         0         0
         0         0         0         0         0         0         0         0
         0         0         0         0         0         0         0         0
         0         0         0         0         0         0         0         0
         0         0         0         0         0         0         0         0
         0         0         0         0         0         0         0         0
         0         0         0         0         0         0         0         0
         0         0         0         0         0         0         0         0
         0         0         0         0         0         0         0         0
         0         0         0         0         0         0         0         0
         0         0         0         0         0         0         0         0
         0         0         0         0         0         0         0         0
         0         0         0         0         0         0         0         0
         0         0         0         0         0         0         0         0
         0         0         0         0         0         0         0         0
         0         0         0         0         0         0         0         0
         0         0         0         0         0         0         0         0
         0         0         0         0         0         0         0         0
         0         0         0         0         0         0         0         0
         0         0         0         0         0         0         0         0
         0         0         0         0         0         0         0         0
         0         0         0         0         0         0         0         0
         0         0         0         0         0         0         0         0
         0         0         0         0         0         0         0         0
         0         0         0         0         0         0         0         0
         0         0         0         0         0         0         0         0
         0         0         0         0         0         0         0         0
         0         0         0         0         0         0         0         0
         0         0         0         0         0         0         0         0
         0         0         0         0         0         0         0         0
         0         0         0         0         0         0         0         0
         0         0         0         0         0         0         0         0
         0         0         0         0         0         0         0         0
         0         0         0         0         0         0         0         0
         0         0         0         0         0         0         0         0
         0         0         0         0         0         0         0         0
         0         0         0         0         0         0         0         0
         0         0         0         0         0         0         0         0
         0         0         0         0         0         0         0         0
         0         0         0         0         0         0         0         0
         0         0         0         0         0         0         0         0
         0         0         0         0         0         0         0         0
         0         0         0         0         0         0         0         0
         0         0         0         0         0         0         0         0
         0         0         0         0         0         0         0         0
         0         0         0         0         0         0         0         0
         0         0         0         0         0         0         0         0
         0         0         0         0         0         0         0         0
         0         0         0         0         0         0         0         0
         0         0         0         0         0         0         0         0
         0         0         0         0         0         0         0         0
         0         0         0         0         0         0         0         0
         0         0         0         0         0         0         0         0
         0         0         0         0         0         0         0         0
         0         0         0         0         0         0         0         0
         0         0         0         0         0         0         0         0
         0         0         0         0         0         0         0         0
         0         0         0         0         0         0         0         0
         0         0         0         0         0         0         0         0
         0         0         0         0         0         0         0         0
         0         0         0         0         0         0         0         0
         0         0         0         0         0         0         0         0
         0         0         0         0         0         0         0         0
         0         0         0         0         0         0         0         0
         0         0         0         0         0         0         0         0
         0         0         0         0         0         0         0         0
         0         0         0         0         0         0         0         0
         0         0         0         0         0         0         0         0
         0         0         0         0         0         0         0         0
         0         0         0         0         0         0         0         0
         0         0         0         0         0         0         0         0
         0         0         0         0         0         0         0         0
         0         0         0         0         0         0         0         0
         0         0         0         0         0         0         0         0
         0         0         0         0         0         0         0         0
         0         0         0         0         0         0         0         0
         0         0         0         0         0         0         0         0
         0         0         0         0         0         0         0         0
         0         0         0         0         0         0         0         0
         0         0         0         0         0         0         0         0
         0         0         0         0         0         0         0         0
         0         0         0         0         0         0         0         0
         0         0         0         0         0         0         0         0
         0         0         0         0         0         0         0         0
         0         0         0         0         0         0         0         0
         0         0         0         0         0         0         0         0
         0         0         0         0         0         0         0         0
         0         0         0         0         0         0         0         0
         0         0         0         0         0         0         0         0
         0         0         0         0         0         0         0         0
         0         0         0         0         0         0         0         0
         0         0         0         0         0         0         0         0
         0         0         0         0         0         0         0         0
         0         0         0         0         0         0         0         0
         0         0         0         0         0         0         0         0
         0         0         0         0         0         0         0         0
         0         0         0         0         0         0         0         0
         0         0         0         0         0         0         0         0
         0         0         0         0         0         0         0         0
         0         0         0         0         0         0         0         0
         0         0         0         0         0         0         0         0
         0         0         0         0         0         0         0         0
         0         0         0         0         0         0         0         0
         0         0         0         0         0         0         0         0
         0         0         0         0         0         0         0         0
         0         0         0         0         0         0         0         0
         0         0         0         0         0         0         0         0
         0         0         0         0         0         0         0         0
         0         0         0         0         0         0         0         0
         0         0         0         0         0         0         0         0
         0         0         0         0         0         0         0         0
         0         0         0         0         0         0         0         0
         0         0         0         0         0         0         0         0
         0         0         0         0         0         0         0         0
         0         0         0         0         0         0         0         0
         0         0         0         0         0         0         0         0
         0         0         0         0         0         0         0         0
         0         0         0         0         0         0         0         0
         0         0         0         0         0         0         0         0
         0         0         0         0         0         0         0         0
         0         0         0         0         0         0         0         0
         0         0         0         0         0         0         0         0
         0         0         0         0         0         0         0         0
         0         0         0         0         0         0         0         0
         0         0         0         0         0         0         0         0
         0         0         0         0         0         0         0         0
         0         0         0         0         0         0         0         0
         0         0         0         0         0         0         0         0
         0         0         0         0         0         0         0         0
         0         0         0         0         0         0         0         0
         0         0         0         0         0         0         0         0
         0         0         0         0         0         0         0         0
         0         0         0         0         0         0         0         0
         0         0         0         0         0         0         0         0
         0         0         0         0         0         0         0         0
         0         0         0         0         0         0         0         0
         0         0         0         0         0         0         0         0
         0         0         0         0         0         0         0         0
         0         0         0         0         0         0         0         0
         0         0         0         0         0         0         0         0
         0         0         0         0         0         0         0         0
         0         0         0         0         0         0         0         0
         0         0         0         0         0         0         0         0
         0         0         0         0         0         0         0         0
         0         0         0         0         0         0         0         0
         0         0         0         0         0         0         0         0
         0         0         0         0         0         0         0         0
         0         0         0         0         0         0         0         0
         0         0         0         0         0         0         0         0
         0         0         0         0         0         0         0         0
         0         0         0         0         0         0         0         0
         0         0         0         0         0         0         0         0
         0         0         0         0         0         0         0         0
         0         0         0         0         0         0         0         0
         0         0         0         0         0         0         0         0
         0         0         0         0         0         0         0         0
         0         0         0         0         0         0         0         0
         0         0         0         0         0         0         0         0
         0         0         0         0         0         0         0         0
         0         0         0         0         0         0         0         0
         0         0         0         0         0         0         0         0
         0         0         0         0         0         0         0         0
         0         0         0         0         0         0         0         0
         0         0         0         0         0         0         0         0
         0         0         0         0         0         0         0         0
         0         0         0         0         0         0         0         0
         0         0         0         0         0         0         0         0
         0         0         0         0         0         0         0         0
         0         0         0         0         0         0         0         0
         0         0         0         0         0         0         0         0
         0         0         0         0         0         0         0         0
         0         0         0         0         0         0         0         0
         0         0         0         0         0         0         0         0
         0         0         0         0         0         0         0         0
         0         0         0         0         0         0         0         0
         0         0         0         0         0         0         0         0
         0         0         0         0         0         0         0         0
         0         0         0         0         0         0         0         0
         0         0         0         0         0         0         0         0
         0         0         0         0         0         0         0         0
         0         0         0         0         0         0         0         0
         0         0         0         0         0         0         0         0
         0         0         0         0         0         0         0         0
         0         0         0         0         0         0         0         0
         0         0         0         0         0         0         0         0
         0         0         0         0         0         0         0         0
         0         0         0         0         0         0         0         0
         0         0         0         0         0         0         0         0
         0         0         0         0         0         0         0         0
         0         0         0         0         0         0         0         0
         0         0         0         0         0         0         0         0
         0         0         0         0         0         0         0         0
         0         0         0         0         0         0         0         0
         0         0         0         0         0         0         0         0
         0         0         0         0         0         0         0         0
         0         0         0         0         0         0         0         0
         0         0         0         0         0         0         0         0
         0         0         0         0         0         0         0         0
         0         0         0         0         0         0         0         0
         0         0         0         0         0         0         0         0
         0         0         0         0         0         0         0         0
         0         0         0         0         0         0         0         0
         0         0         0         0         0         0         0         0
         0         0         0         0         0         0         0         0
         0         0         0         0         0         0         0         0
         0         0         0         0         0         0         0         0
         0         0         0         0         0         0         0         0
         0         0         0         0         0         0         0         0
         0         0         0         0         0         0         0         0
         0         0         0         0         0         0         0         0
         0         0         0         0         0         0         0         0
         0         0         0         0         0         0         0         0
         0         0         0         0         0         0         0         0
         0         0         0         0         0         0         0         0
         0         0         0         0         0         0         0         0
         0         0         0         0         0         0         0         0
         0         0         0         0         0         0         0         0
         0         0         0         0         0         0         0         0
         0         0         0         0         0         0         0         0
         0         0         0         0         0         0         0         0
         0         0         0         0         0         0         0         0
         0         0         0         0         0         0         0         0
         0         0         0         0         0         0         0         0
         0         0         0         0         0         0         0         0
         0         0         0         0         0         0         0         0
         0         0         0         0         0         0         0         0
         0         0         0         0         0         0         0         0
         0         0         0         0         0         0         0         0
         0         0         0         0         0         0         0         0
         0         0         0         0         0         0         0         0
         0         0         0         0         0         0         0         0
         0         0         0         0         0         0         0         0
         0         0         0         0         0         0         0         0
         0         0         0         0         0         0         0         0
         0         0         0         0         0         0         0         0
         0         0         0         0         0         0         0         0
         0         0         0         0         0         0         0         0
         0         0         0         0         0         0         0         0
         0         0         0         0         0         0         0         0
         0         0         0         0         0         0         0         0
         0         0         0         0         0         0         0         0
         0         0         0         0         0         0         0         0
         0         0         0         0         0         0         0         0
         0         0         0         0         0         0         0         0
         0         0         0         0         0         0         0         0
         0         0         0         0         0         0         0         0
         0         0         0         0         0         0         0         0
         0         0         0         0         0         0         0         0
         0         0         0         0         0         0         0         0
         0         0         0         0         0         0         0         0
         0         0         0         0         0         0         0         0
         0         0         0         0         0         0         0         0
         0         0         0         0         0         0         0         0
         0         0         0         0         0         0         0         0
         0         0         0         0         0         0         0         0
         0         0         0         0         0         0         0         0
         0         0         0         0         0         0         0         0
         0         0         0         0         0         0         0         0
         0         0         0         0         0         0         0         0
         0         0         0         0         0         0         0         0
         0         0         0         0         0         0         0         0
         0         0         0         0         0         0         0         0
         0         0         0         0         0         0         0         0
         0         0         0         0         0         0         0         0
         0         0         0         0         0         0         0         0
         0         0         0         0         0         0         0         0
         0         0         0         0         0         0         0         0
         0         0         0         0         0         0         0         0
         0         0         0         0         0         0         0         0
         0         0         0         0         0         0         0         0
         0         0         0         0         0         0         0         0
         0         0         0         0         0         0         0         0
         0         0         0         0         0         0         0         0
         0         0         0         0         0         0         0         0
         0         0         0         0         0         0         0         0
         0         0         0         0         0         0         0         0
         0         0         0         0         0         0         0         0
         0         0         0         0         0         0         0         0
         0         0         0         0         0         0         0         0
         0         0         0         0         0         0         0         0
         0         0         0         0         0         0         0         0
         0         0         0         0         0         0         0         0
         0         0         0         0         0         0         0         0
         0         0         0         0         0         0         0         0
         0         0         0         0         0         0         0         0
         0         0         0         0         0         0         0         0
         0         0         0         0         0         0         0         0
         0         0         0         0         0         0         0         0
         0         0         0         0         0         0         0         0
         0         0         0         0         0         0         0         0
         0         0         0         0         0         0         0         0
         0         0         0         0         0         0         0         0
         0         0         0         0         0         0         0         0
         0         0         0         0         0         0         0         0
         0         0         0         0         0         0         0         0
         0         0         0         0         0         0         0         0
         0         0         0         0         0         0         0         0
         0         0         0         0         0         0         0         0
         0         0         0         0         0         0         0         0
         0         0         0         0         0         0         0         0
         0         0         0         0         0         0         0         0
         0         0         0         0         0         0         0         0
         0         0         0         0         0         0         0         0
         0         0         0         0         0         0         0         0
         0         0         0         0         0         0         0         0
         0         0         0         0         0         0         0         0
         0         0         0         0         0         0         0         0
         0         0         0         0         0         0         0         0
         0         0         0         0         0         0         0         0
         0         0         0         0         0         0         0         0
         0         0         0         0         0         0         0         0
         0         0         0         0         0         0         0         0
         0         0         0         0         0         0         0         0
         0         0         0         0         0         0         0         0
         0         0         0         0         0         0         0         0
         0         0         0         0         0         0         0         0
         0         0         0         0         0         0         0         0
         0         0         0         0         0         0         0         0
         0         0         0         0         0         0         0         0
         0         0         0         0         0         0         0         0
         0         0         0         0         0         0         0         0
         0         0         0         0         0         0         0         0
         0         0         0         0         0         0         0         0
         0         0         0         0         0         0         0         0
         0         0         0         0         0         0         0         0
         0         0         0         0         0         0         0         0
         0         0         0         0         0         0         0         0
         0         0         0         0         0         0         0         0
         0         0         0         0         0         0         0         0
         0         0         0         0         0         0         0         0
         0         0         0         0         0         0         0         0
         0         0         0         0         0         0         0         0
         0         0         0         0         0         0         0         0
         0         0         0         0         0         0         0         0
         0         0         0         0         0         0         0         0
         0         0         0         0         0         0         0         0
         0         0         0         0         0         0         0         0
         0         0         0         0         0         0         0         0
         0         0         0         0         0         0         0         0
         0         0         0         0         0         0         0         0
         0         0         0         0         0         0         0         0
         0         0         0         0         0         0         0         0
         0         0         0         0         0         0         0         0
         0         0         0         0         0         0         0         0
         0         0         0         0         0         0         0         0
         0         0         0         0         0         0         0         0
         0         0         0         0         0         0         0         0
         0         0         0         0         0         0         0         0
         0         0         0         0         0         0         0         0
         0         0         0         0         0         0         0         0
         0         0         0         0         0         0         0         0
         0         0         0         0         0         0         0         0
         0         0         0         0         0         0         0         0
         0         0         0         0         0         0         0         0
         0         0         0         0         0         0         0         0
         0         0         0         0         0         0         0         0
         0         0         0         0         0         0         0         0
         0         0         0         0         0         0         0         0
         0         0         0         0         0         0         0         0
         0         0         0         0         0         0         0         0
         0         0         0         0         0         0         0         0
         0         0         0         0         0         0         0         0
         0         0         0         0         0         0         0         0
         0         0         0         0         0         0         0         0
         0         0         0         0         0         0         0         0
         0         0         0         0         0         0         0         0
         0         0         0         0         0         0         0         0
         0         0         0         0         0         0         0         0
         0         0         0         0         0         0         0         0
         0         0         0         0         0         0         0         0
         0         0         0         0         0         0         0         0
         0         0         0         0         0         0         0         0
         0         0         0         0         0         0         0         0
         0         0         0         0         0         0         0         0
         0         0         0         0         0         0         0         0
         0         0         0         0         0         0         0         0
         0         0         0         0         0         0         0         0
         0         0         0         0         0         0         0         0
         0         0         0         0         0         0         0         0
         0         0         0         0         0         0         0         0
         0         0         0         0         0         0         0         0
         0         0         0         0         0         0         0         0
         0         0         0         0         0         0         0         0
         0         0         0         0         0         0         0         0
         0         0         0         0         0         0         0         0
         0         0         0         0         0         0         0         0
         0         0         0         0         0         0         0         0
         0         0         0         0         0         0         0         0
         0         0         0         0         0         0         0         0
         0         0         0         0         0         0         0         0
         0         0         0         0         0         0         0         0
         0         0         0         0         0         0         0         0
         0         0         0         0         0         0         0         0
         0         0         0         0         0         0         0         0
         0         0         0         0         0         0         0         0
         0         0         0         0         0         0         0         0
         0         0         0         0         0         0         0         0
         0         0         0         0         0         0         0         0
         0         0         0         0         0         0         0         0
         0         0         0         0         0         0         0         0
         0         0         0         0         0         0         0         0
         0         0         0         0         0         0         0         0
         0         0         0         0         0         0         0         0
         0         0         0         0         0         0         0         0
         0         0         0         0         0         0         0         0
         0         0         0         0         0         0         0         0
         0         0         0         0         0         0         0         0
         0         0         0         0         0         0         0         0
         0         0         0         0         0         0         0         0
         0         0         0         0         0         0         0         0
         0         0         0         0         0         0         0         0
         0         0         0         0         0         0         0         0
         0         0         0         0         0         0         0         0
         0         0         0         0         0         0         0         0
         0         0         0         0         0         0         0         0
         0         0         0         0         0         0         0         0
         0         0         0         0         0         0         0         0
         0         0         0         0         0         0         0         0
         0         0         0         0         0         0         0         0
         0         0         0         0         0         0         0         0
         0         0         0         0         0         0         0         0
         0         0         0         0         0         0         0         0
         0         0         0         0         0         0         0         0
         0         0         0         0         0         0         0         0
         0         0         0         0         0         0         0         0
         0         0         0         0         0         0         0         0
         0         0         0         0         0         0         0         0
         0         0         0         0         0         0         0         0
         0         0         0         0         0         0         0         0
         0         0         0         0         0         0         0         0
         0         0         0         0         0         0         0         0
         0         0         0         0         0         0         0         0
         0         0         0         0         0         0         0         0
         0         0         0         0         0         0         0         0
         0         0         0         0         0         0         0         0
         0         0         0         0         0         0         0         0
         0         0         0         0         0         0         0         0
         0         0         0         0         0         0         0         0
         0         0         0         0         0         0         0         0
         0         0         0         0         0         0         0         0
         0         0         0         0         0         0         0         0
         0         0         0         0         0         0         0         0
         0         0         0         0         0         0         0         0
         0         0         0         0         0         0         0         0
         0         0         0         0         0         0         0         0
         0         0         0         0         0         0         0         0
         0         0         0         0         0         0         0         0
         0         0         0         0         0         0         0         0
         0         0         0         0         0         0         0         0
         0         0         0         0         0         0         0         0
         0         0         0         0         0         0         0         0
         0         0         0         0         0         0         0         0
         0         0         0         0         0         0         0         0
         0         0         0         0         0         0         0         0
         0         0         0         0         0         0         0         0
         0         0         0         0         0         0         0         0
         0         0         0         0         0         0         0         0
         0         0         0         0         0         0         0         0
         0         0         0         0         0         0         0         0
         0         0         0         0         0         0         0         0
         0         0         0         0         0         0         0         0
         0         0         0         0         0         0         0         0
         0         0         0         0         0         0         0         0
         0         0         0         0         0         0         0         0
         0         0         0         0         0         0         0         0
         0         0         0         0         0         0         0         0
         0         0         0         0         0         0         0         0
         0         0         0         0         0         0         0         0
         0         0         0         0         0         0         0         0
         0         0         0         0         0         0         0         0
         0         0         0         0         0         0         0         0
         0         0         0         0         0         0         0         0
         0         0         0         0         0         0         0         0
         0         0         0         0         0         0         0         0
         0         0         0         0         0         0         0         0
         0         0         0         0         0         0         0         0
         0         0         0         0         0         0         0         0
         0         0         0         0         0         0         0         0
         0         0         0         0         0         0         0         0
         0         0         0         0         0         0         0         0
         0         0         0         0         0         0         0         0
         0         0         0         0         0         0         0         0
         0         0         0         0         0         0         0         0
         0         0         0         0         0         0         0         0
         0         0         0         0         0         0         0         0
         0         0         0         0         0         0         0         0
         0         0         0         0         0         0         0         0
         0         0         0         0         0         0         0         0
         0         0         0         0         0         0         0         0
         0         0         0         0         0         0         0         0
         0         0         0         0         0         0         0         0
         0         0         0         0         0         0         0         0
         0         0         0         0         0         0         0         0
         0         0         0         0         0         0         0         0
         0         0         0         0         0         0         0         0
         0         0         0         0         0         0         0         0
         0         0         0         0         0         0         0         0
         0         0         0         0         0         0         0         0
         0         0         0         0         0         0         0         0
         0         0         0         0         0         0         0         0
         0         0         0         0         0         0         0         0
         0         0         0         0         0         0         0         0
         0         0         0         0         0         0         0         0
         0         0         0         0         0         0         0         0
         0         0         0         0         0         0         0         0
         0         0         0         0         0         0         0         0
         0         0         0         0         0         0         0         0
         0         0         0         0         0         0         0         0
         0         0         0         0         0         0         0         0
         0         0         0         0         0         0         0         0
         0         0         0         0         0         0         0         0
         0         0         0         0         0         0         0         0
         0         0         0         0         0         0         0         0
         0         0         0         0         0         0         0         0
         0         0         0         0         0         0         0         0
         0         0         0         0         0         0         0         0
         0         0         0         0         0         0         0         0
         0         0         0         0         0         0         0         0
         0         0         0         0         0         0         0         0
         0         0         0         0         0         0         0         0
         0         0         0         0         0         0         0         0
         0         0         0         0         0         0         0         0
         0         0         0         0         0         0         0         0
         0         0         0         0         0         0         0         0
         0         0         0         0         0         0         0         0
         0         0         0         0         0         0         0         0
         0         0         0         0         0         0         0         0
         0         0         0         0         0         0         0         0
         0         0         0         0         0         0         0         0
         0         0         0         0         0         0         0         0
         0         0         0         0         0         0         0         0
         0         0         0         0         0         0         0         0
         0         0         0         0         0         0         0         0
         0         0         0         0         0         0         0         0
         0         0         0         0         0         0         0         0
         0         0         0         0         0         0         0         0
         0         0         0         0         0         0         0         0
         0         0         0         0         0         0         0         0
         0         0         0         0         0         0         0         0
         0         0         0         0         0         0         0         0
         0         0         0         0         0         0         0         0
         0         0         0         0         0         0         0         0
         0         0         0         0         0         0         0         0
         0         0         0         0         0         0         0         0
         0         0         0         0         0         0         0         0
         0         0         0         0         0         0         0         0
         0         0         0         0         0         0         0         0
         0         0         0         0         0         0         0         0
         0         0         0         0         0         0         0         0
         0         0         0         0         0         0         0         0
         0         0         0         0         0         0         0         0
         0         0         0         0         0         0         0         0
         0         0         0         0         0         0         0         0
         0         0         0         0         0         0         0         0
         0         0         0         0         0         0         0         0
         0         0         0         0         0         0         0         0
         0         0         0         0         0         0         0         0
         0         0         0         0         0         0         0         0
         0         0         0         0         0         0         0         0
         0         0         0         0         0         0         0         0
         0         0         0         0         0         0         0         0
         0         0         0         0         0         0         0         0
         0         0         0         0         0         0         0         0
         0         0         0         0         0         0         0         0
         0         0         0         0         0         0         0         0
         0         0         0         0         0         0         0         0
         0         0         0         0         0         0         0         0
         0         0         0         0         0         0         0         0
         0         0         0         0         0         0         0         0
         0         0         0         0         0         0         0         0
         0         0         0         0         0         0         0         0
         0         0         0         0         0         0         0         0
         0         0         0         0         0         0         0         0
         0         0         0         0         0         0         0         0
         0         0         0         0         0         0         0         0
         0         0         0         0         0         0         0         0
         0         0         0         0         0         0         0         0
         0         0         0         0         0         0         0         0
         0         0         0         0         0         0         0         0
         0         0         0         0         0         0         0         0
         0         0         0         0         0         0         0         0
         0         0         0         0         0         0         0         0
         0         0         0         0         0         0         0         0
         0         0         0         0         0         0         0         0
         0         0         0         0         0         0         0         0
         0         0         0         0         0         0         0         0
         0         0         0         0         0         0         0         0
         0         0         0         0         0         0         0         0
         0         0         0         0         0         0         0         0
         0         0         0         0         0         0         0         0
         0         0         0         0         0         0         0         0
         0         0         0         0         0         0         0         0
         0         0         0         0         0         0         0         0
         0         0         0         0         0         0         0         0
         0         0         0         0         0         0         0         0
         0         0         0         0         0         0         0         0
         0         0         0         0         0         0         0         0
         0         0         0         0         0         0         0         0
         0         0         0         0         0         0         0         0
         0         0         0         0         0         0         0         0
         0         0         0         0         0         0         0         0
         0         0         0         0         0         0         0         0
         0         0         0         0         0         0         0         0
         0         0         0         0         0         0         0         0
         0         0         0         0         0         0         0         0
         0         0         0         0         0         0         0         0
         0         0         0         0         0         0         0         0
         0         0         0         0         0         0         0         0
         0         0         0         0         0         0         0         0
         0         0         0         0         0         0         0         0
         0         0         0         0         0         0         0         0
         0         0         0         0         0         0         0         0
         0         0         0         0         0         0         0         0
         0         0         0         0         0         0         0         0
         0         0         0         0         0         0         0         0
         0         0         0         0         0         0         0         0
         0         0         0         0         0         0         0         0
         0         0         0         0         0         0         0         0
         0         0         0         0         0         0         0         0
         0         0         0         0         0         0         0         0
         0         0         0         0         0         0         0         0
         0         0         0         0         0         0         0         0
         0         0         0         0         0         0         0         0
         0         0         0         0         0         0         0         0
         0         0         0         0         0         0         0         0
         0         0         0         0         0         0         0         0
         0         0         0         0         0         0         0         0
         0         0         0         0         0         0         0         0
         0         0         0         0         0         0         0         0
         0         0         0         0         0         0         0         0
         0         0         0         0         0         0         0         0
         0         0         0         0         0         0         0         0
         0         0         0         0         0         0         0         0
         0         0         0         0         0         0         0         0
         0         0         0         0         0         0         0         0
         0         0         0         0         0         0         0         0
         0         0         0         0         0         0         0         0
         0         0         0         0         0         0         0         0
         0         0         0         0         0         0         0         0
         0         0         0         0         0         0         0         0
         0         0         0         0         0         0         0         0
         0         0         0         0         0         0         0         0
         0         0         0         0         0         0         0         0
         0         0         0         0         0         0         0         0
         0         0         0         0         0         0         0         0
         0         0         0         0         0         0         0         0
         0         0         0         0         0         0         0         0
         0         0         0         0         0         0         0         0
         0         0         0         0         0         0         0         0
         0         0         0         0         0         0         0         0
         0         0         0         0         0         0         0         0
         0         0         0         0         0         0         0         0
         0         0         0         0         0         0         0         0
         0         0         0         0         0         0         0         0
         0         0         0         0         0         0         0         0
         0         0         0         0         0         0         0         0
         0         0         0         0         0         0         0         0
         0         0         0         0         0         0         0         0
         0         0         0         0         0         0         0         0
         0         0         0         0         0         0         0         0
         0         0         0         0         0         0         0         0
         0         0         0         0         0         0         0         0
         0         0         0         0         0         0         0         0
         0         0         0         0         0         0         0         0
         0         0         0         0         0         0         0         0
         0         0         0         0         0         0         0         0
         0         0         0         0         0         0         0         0
         0         0         0         0         0         0         0         0
         0         0         0         0         0         0         0         0
         0         0         0         0         0         0         0         0
         0         0         0         0         0         0         0         0
         0         0         0         0         0         0         0         0
         0         0         0         0         0         0         0         0
         0         0         0         0         0         0         0         0
         0         0         0         0         0         0         0         0
         0         0         0         0         0         0         0         0
         0         0         0         0         0         0         0         0
         0         0         0         0         0         0         0         0
         0         0         0         0         0         0         0         0
         0         0         0         0         0         0         0         0
         0         0         0         0         0         0         0         0
         0         0         0         0         0         0         0         0
         0         0         0         0         0         0         0         0
         0         0         0         0         0         0         0         0
         0         0         0         0         0         0         0         0
         0         0         0         0         0         0         0         0
         0         0         0         0         0         0         0         0
         0         0         0         0         0         0         0         0
         0         0         0         0         0         0         0         0
         0         0         0         0         0         0         0         0
         0         0         0         0         0         0         0         0
         0         0         0         0         0         0         0         0
         0         0         0         0         0         0         0         0
         0         0         0         0         0         0         0         0
         0         0         0         0         0         0         0         0
         0         0         0         0         0         0         0         0
         0         0         0         0         0         0         0         0
         0         0         0         0         0         0         0         0
         0         0         0         0         0         0         0         0
         0         0         0         0         0         0         0         0
         0         0         0         0         0         0         0         0
         0         0         0         0         0         0         0         0
         0         0         0         0         0         0         0         0
         0         0         0         0         0         0         0         0
         0         0         0         0         0         0         0         0
         0         0         0         0         0         0         0         0
         0         0         0         0         0         0         0         0
         0         0         0         0         0         0         0         0
         0         0         0         0         0         0         0         0
         0         0         0         0         0         0         0         0
         0         0         0         0         0         0         0         0
         0         0         0         0         0         0         0         0
         0         0         0         0         0         0         0         0
         0         0         0         0         0         0         0         0
         0         0         0         0         0         0         0         0
         0         0         0         0         0         0         0         0
         0         0         0         0         0         0         0         0
         0         0         0         0         0         0         0         0
         0         0         0         0         0         0         0         0
         0         0         0         0         0         0         0         0
         0         0         0         0         0         0         0         0
         0         0         0         0         0         0         0         0
         0         0         0         0         0         0         0         0
         0         0         0         0         0         0         0         0
         0         0         0         0         0         0         0         0
         0         0         0         0         0         0         0         0
         0         0         0         0         0         0         0         0
         0         0         0         0         0         0         0         0
         0         0         0         0         0         0         0         0
         0         0         0         0         0         0         0         0
         0         0         0         0         0         0         0         0
         0         0         0         0         0         0         0         0
         0         0         0         0         0         0         0         0
         0         0         0         0         0         0         0         0
         0         0         0         0         0         0         0         0
         0         0         0         0         0         0         0         0
         0         0         0         0         0         0         0         0
         0         0         0         0         0         0         0         0
         0         0         0         0         0         0         0         0
         0         0         0         0         0         0         0         0
         0         0         0         0         0         0         0         0
         0         0         0         0         0         0         0         0
         0         0         0         0         0         0         0         0
         0         0         0         0         0         0         0         0
         0         0         0         0         0         0         0         0
         0         0         0         0         0         0         0         0
         0         0         0         0         0         0         0         0
         0         0         0         0         0         0         0         0
         0         0         0         0         0         0         0         0
         0         0         0         0         0         0         0         0
         0         0         0         0         0         0         0         0
         0         0         0         0         0         0         0         0
         0         0         0         0         0         0         0         0
         0         0         0         0         0         0         0         0
         0         0         0         0         0         0         0         0
         0         0         0         0         0         0         0         0
         0         0         0         0         0         0         0         0
         0         0         0         0         0         0         0         0
         0         0         0         0         0         0         0         0
         0         0         0         0         0         0         0         0
         0         0         0         0         0         0         0         0
         0         0         0         0         0         0         0         0
         0         0         0         0         0         0         0         0
         0         0         0         0         0         0         0         0
         0         0         0         0         0         0         0         0
         0         0         0         0         0         0         0         0
         0         0         0         0         0         0         0         0
         0         0         0         0         0         0         0         0
         0         0         0         0         0         0         0         0
         0         0         0         0         0         0         0         0
         0         0         0         0         0         0         0         0
         0         0         0         0         0         0         0         0
         0         0         0         0         0         0         0         0
         0         0         0         0         0         0         0         0
         0         0         0         0         0         0         0         0
         0         0         0         0         0         0         0         0
         0         0         0         0         0         0         0         0
         0         0         0         0         0         0         0         0
         0         0         0         0         0         0         0         0
         0         0         0         0         0         0         0         0
         0         0         0         0         0         0         0         0
         0         0         0         0         0         0         0         0
         0         0         0         0         0         0         0         0
         0         0         0         0         0         0         0         0
         0         0         0         0         0         0         0         0
         0         0         0         0         0         0         0         0
         0         0         0         0         0         0         0         0
         0         0         0         0         0         0         0         0
         0         0         0         0         0         0         0         0
         0         0         0         0         0         0         0         0
         0         0         0         0         0         0         0         0
         0         0         0         0         0         0         0         0
         0         0         0         0         0         0         0         0
         0         0         0         0         0         0         0         0
         0         0         0         0         0         0         0         0
         0         0         0         0         0         0         0         0
         0         0         0         0         0         0         0         0
         0         0         0         0         0         0         0         0
         0         0         0         0         0         0         0         0
         0         0         0         0         0         0         0         0
         0         0         0         0         0         0         0         0
         0         0         0         0         0         0         0         0
         0         0         0         0         0         0         0         0
         0         0         0         0         0         0         0         0
         0         0         0         0         0         0         0         0
         0         0         0         0         0         0         0         0
         0         0         0         0         0         0         0         0
         0         0         0         0         0         0         0         0
         0         0         0         0         0         0         0         0
         0         0         0         0         0         0         0         0
         0         0         0         0         0         0         0         0
         0         0         0         0         0         0         0         0
         0         0         0         0         0         0         0         0
         0         0         0         0         0         0         0         0
         0         0         0         0         0         0         0         0
         0         0         0         0         0         0         0         0
         0         0         0         0         0         0         0         0
         0         0         0         0         0         0         0         0
         0         0         0         0         0         0         0         0
         0         0         0         0         0         0         0         0
         0         0         0         0         0         0         0         0
         0         0         0         0         0         0         0         0
         0         0         0         0         0         0         0         0
         0         0         0         0         0         0         0         0
         0         0         0         0         0         0         0         0
         0         0         0         0         0         0         0         0
         0         0         0         0         0         0         0         0
         0         0         0         0         0         0         0         0
         0         0         0         0         0         0         0         0
         0         0         0         0         0         0         0         0
         0         0         0         0         0         0         0         0
         0         0         0         0         0         0         0         0
         0         0         0         0         0         0         0         0
         0         0         0         0         0         0         0         0
         0         0         0         0         0         0         0         0
         0         0         0         0         0         0         0         0
         0         0         0         0         0         0         0         0
         0         0         0         0         0         0         0         0
         0         0         0         0         0         0         0         0
         0         0         0         0         0         0         0         0
         0         0         0         0         0         0         0         0
         0         0         0         0         0         0         0         0
         0         0         0         0         0         0         0         0
         0         0         0         0         0         0         0         0
         0         0         0         0         0         0         0         0
         0         0         0         0         0         0         0         0
         0         0         0         0         0         0         0         0
         0         0         0         0         0         0         0         0
         0         0         0         0         0         0         0         0
         0         0         0         0         0         0         0         0
         0         0         0         0         0         0         0         0
         0         0         0         0         0         0         0         0
         0         0         0         0         0         0         0         0
         0         0         0         0         0         0         0         0
         0         0         0         0         0         0         0         0
         0         0         0         0         0         0         0         0
         0         0         0         0         0         0         0         0
         0         0         0         0         0         0         0         0
         0         0         0         0         0         0         0         0
         0         0         0         0         0         0         0         0
         0         0         0         0         0         0         0         0
         0         0         0         0         0         0         0         0
         0         0         0         0         0         0         0         0
         0         0         0         0         0         0         0         0
         0         0         0         0         0         0         0         0
         0         0         0         0         0         0         0         0
         0         0         0         0         0         0         0         0
         0         0         0         0         0         0         0         0
         0         0         0         0         0         0         0         0
         0         0         0         0         0         0         0         0
         0         0         0         0         0         0         0         0
         0         0         0         0         0         0         0         0
         0         0         0         0         0         0         0         0
         0         0         0         0         0         0         0         0
         0         0         0         0         0         0         0         0
         0         0         0         0         0         0         0         0
         0         0         0         0         0         0         0         0
         0         0         0         0         0         0         0         0
         0         0         0         0         0         0         0         0
         0         0         0         0         0         0         0         0
         0         0         0         0         0         0         0         0
         0         0         0         0         0         0         0         0
         0         0         0         0         0         0         0         0
         0         0         0         0         0         0         0         0
         0         0         0         0         0         0         0         0
         0         0         0         0         0         0         0         0
         0         0         0         0         0         0         0         0
         0         0         0         0         0         0         0         0
         0         0         0         0         0         0         0         0
         0         0         0         0         0         0         0         0
         0         0         0         0         0         0         0         0
         0         0         0         0         0         0         0         0
         0         0         0         0         0         0         0         0
         0         0         0         0         0         0         0         0
         0         0         0         0         0         0         0         0
         0         0         0         0         0         0         0         0
         0         0         0         0         0         0         0         0
         0         0         0         0         0         0         0         0
         0         0         0         0         0         0         0         0
         0         0         0         0         0         0         0         0
         0         0         0         0         0         0         0         0
         0         0         0         0         0         0         0         0
         0         0         0         0         0         0         0         0
         0         0         0         0         0         0         0         0
         0         0         0         0         0         0         0         0
         0         0         0         0         0         0         0         0
         0         0         0         0         0         0         0         0
         0         0         0         0         0         0         0         0
         0         0         0         0         0         0         0         0
         0         0         0         0         0         0         0         0
         0         0         0         0         0         0         0         0
         0         0         0         0         0         0         0         0
         0         0         0         0         0         0         0         0
         0         0         0         0         0         0         0         0
         0         0         0         0         0         0         0         0
         0         0         0         0         0         0         0         0
         0         0         0         0         0         0         0         0
         0         0         0         0         0         0         0         0
         0         0         0         0         0         0         0         0
         0         0         0         0         0         0         0         0
         0         0         0         0         0         0         0         0
         0         0         0         0         0         0         0         0
         0         0         0         0         0         0         0         0
         0         0         0         0         0         0         0         0
         0         0         0         0         0         0         0         0
         0         0         0         0         0         0         0         0
         0         0         0         0         0         0         0         0
         0         0         0         0         0         0         0         0
         0         0         0         0         0         0         0         0
         0         0         0         0         0         0         0         0
         0         0         0         0         0         0         0         0
         0         0         0         0         0         0         0         0
         0         0         0         0         0         0         0         0
         0         0         0         0         0         0         0         0
         0         0         0         0         0         0         0         0
         0         0         0         0         0         0         0         0
         0         0         0         0         0         0         0         0
         0         0         0         0         0         0         0         0
         0         0         0         0         0         0         0         0
         0         0         0         0         0         0         0         0
         0         0         0         0         0         0         0         0
         0         0         0         0         0         0         0         0
         0         0         0         0         0         0         0         0
         0         0         0         0         0         0         0         0
         0         0         0         0         0         0         0         0
         0         0         0         0         0         0         0         0
         0         0         0         0         0         0         0         0
         0         0         0         0         0         0         0         0
         0         0         0         0         0         0         0         0
         0         0         0         0         0         0         0         0
         0         0         0         0         0         0         0         0
         0         0         0         0         0         0         0         0
         0         0         0         0         0         0         0         0
         0         0         0         0         0         0         0         0
         0         0         0         0         0         0         0         0
         0         0         0         0         0         0         0         0
         0         0         0         0         0         0         0         0
         0         0         0         0         0         0         0         0
         0         0         0         0         0         0         0         0
         0         0         0         0         0         0         0         0
         0         0         0         0         0         0         0         0
         0         0         0         0         0         0         0         0
         0         0         0         0         0         0         0         0
         0         0         0         0         0         0         0         0
         0         0         0         0         0         0         0         0
         0         0         0         0         0         0         0         0
         0         0         0         0         0         0         0         0
         0         0         0         0         0         0         0         0
         0         0         0         0         0         0         0         0
         0         0         0         0         0         0         0         0
         0         0         0         0         0         0         0         0
         0         0         0         0         0         0         0         0
         0         0         0         0         0         0         0         0
         0         0         0         0         0         0         0         0
         0         0         0         0         0         0         0         0
         0         0         0         0         0         0         0         0
         0         0         0         0         0         0         0         0
         0         0         0         0         0         0         0         0
         0         0         0         0         0         0         0         0
         0         0         0         0         0         0         0         0
         0         0         0         0         0         0         0         0
         0         0         0         0         0         0         0         0
         0         0         0         0         0         0         0         0
         0         0         0         0         0         0         0         0
         0         0         0         0         0         0         0         0
         0         0         0         0         0         0         0         0
         0         0         0         0         0         0         0         0
         0         0         0         0         0         0         0         0
         0         0         0         0         0         0         0         0
         0         0         0         0         0         0         0         0
         0         0         0         0         0         0         0         0
         0         0         0         0         0         0         0         0
         0         0         0         0         0         0         0         0
         0         0         0         0         0         0         0         0
         0         0         0         0         0         0         0         0
         0         0         0         0         0         0         0         0
         0         0         0         0         0         0         0         0
         0         0         0         0         0         0         0         0
         0         0         0         0         0         0         0         0
         0         0         0         0         0         0         0         0
         0         0         0         0         0         0         0         0
         0         0         0         0         0         0         0         0
         0         0         0         0         0         0         0         0
         0         0         0         0         0         0         0         0
         0         0         0         0         0         0         0         0
         0         0         0         0         0         0         0         0
         0         0         0         0         0         0         0         0
         0         0         0         0         0         0         0         0
         0         0         0         0         0         0         0         0
         0         0         0         0         0         0         0         0
         0         0         0         0         0         0         0         0
         0         0         0         0         0         0         0         0
         0         0         0         0         0         0         0         0
         0         0         0         0         0         0         0         0
         0         0         0         0         0         0         0         0
         0         0         0         0         0         0         0         0
         0         0         0         0         0         0         0         0
         0         0         0         0         0         0         0         0
         0         0         0         0         0         0         0         0
         0         0         0         0         0         0         0         0
         0         0         0         0         0         0         0         0
         0         0         0         0         0         0         0         0
         0         0         0         0         0         0         0         0
         0         0         0         0         0         0         0         0
         0         0         0         0         0         0         0         0
         0         0         0         0         0         0         0         0
         0         0         0         0         0         0         0         0
         0         0         0         0         0         0         0         0
         0         0         0         0         0         0         0         0
         0         0         0         0         0         0         0         0
         0         0         0         0         0         0         0         0
         0         0         0         0         0         0         0         0
         0         0         0         0         0         0         0         0
         0         0         0         0         0         0         0         0
         0         0         0         0         0         0         0         0
         0         0         0         0         0         0         0         0
         0         0         0         0         0         0         0         0
         0         0         0         0         0         0         0         0
         0         0         0         0         0         0         0         0
         0         0         0         0         0         0         0         0
         0         0         0         0         0         0         0         0
         0         0         0         0         0         0         0         0
         0         0         0         0         0         0         0         0
         0         0         0         0         0         0         0         0
         0         0         0         0         0         0         0         0
         0         0         0         0         0         0         0         0
         0         0         0         0         0         0         0         0
         0         0         0         0         0         0         0         0
         0         0         0         0         0         0         0         0
         0         0         0         0         0         0         0         0
         0         0         0         0         0         0         0         0
         0         0         0         0         0         0         0         0
         0         0         0         0         0         0         0         0
         0         0         0         0         0         0         0         0
         0         0         0         0         0         0         0         0
         0         0         0         0         0         0         0         0
         0         0         0         0         0         0         0         0
         0         0         0         0         0         0         0         0
         0         0         0         0         0         0         0         0
         0         0         0         0         0         0         0         0
         0         0         0         0         0         0         0         0
         0         0         0         0         0         0         0         0
         0         0         0         0         0         0         0         0
         0         0         0         0         0         0         0         0
         0         0         0         0         0         0         0         0
         0         0         0         0         0         0         0         0
         0         0         0         0         0         0         0         0
         0         0         0         0         0         0         0         0
         0         0         0         0         0         0         0         0
         0         0         0         0         0         0         0         0
         0         0         0         0         0         0         0         0
         0         0         0         0         0         0         0         0
         0         0         0         0         0         0         0         0
         0         0         0         0         0         0         0         0
         0         0         0         0         0         0         0         0
         0         0         0         0         0         0         0         0
         0         0         0         0         0         0         0         0
         0         0         0         0         0         0         0         0
         0         0         0         0         0         0         0         0
         0         0         0         0         0         0         0         0
         0         0         0         0         0         0         0         0
         0         0         0         0         0         0         0         0
         0         0         0         0         0         0         0         0
         0         0         0         0         0         0         0         0
         0         0         0         0         0         0         0         0
         0         0         0         0         0         0         0         0
         0         0         0         0         0         0         0         0
         0         0         0         0         0         0         0         0
         0         0         0         0         0         0         0         0
         0         0         0         0         0         0         0         0
         0         0         0         0         0         0         0         0
         0         0         0         0         0         0         0         0
         0         0         0         0         0         0         0         0
         0         0         0         0         0         0         0         0
         0         0         0         0         0         0         0         0
         0         0         0         0         0         0         0         0
         0         0         0         0         0         0         0         0
         0         0         0         0         0         0         0         0
         0         0         0         0         0         0         0         0
         0         0         0         0         0         0         0         0
         0         0         0         0         0         0         0         0
         0         0         0         0         0         0         0         0
         0         0         0         0         0         0         0         0
         0         0         0         0         0         0         0         0
         0         0         0         0         0         0         0         0
         0         0         0         0         0         0         0         0
         0         0         0         0         0         0         0         0
         0         0         0         0         0         0         0         0
         0         0         0         0         0         0         0         0
         0         0         0         0         0         0         0         0
         0         0         0         0         0         0         0         0
         0         0         0         0         0         0         0         0
         0         0         0         0         0         0         0         0
         0         0         0         0         0         0         0         0
         0         0         0         0         0         0         0         0
         0         0         0         0         0         0         0         0
         0         0         0         0         0         0         0         0
         0         0         0         0         0         0         0         0
         0         0         0         0         0         0         0         0
         0         0         0         0         0         0         0         0
         0         0         0         0         0         0         0         0
         0         0         0         0         0         0         0         0
         0         0         0         0         0         0         0         0
         0         0         0         0         0         0         0         0
         0         0         0         0         0         0         0         0
         0         0         0         0         0         0         0         0
         0         0         0         0         0         0         0         0
         0         0         0         0         0         0         0         0
         0         0         0         0         0         0         0         0
         0         0         0         0         0         0         0         0
         0         0         0         0         0         0         0         0
         0         0         0         0         0         0         0         0
         0         0         0         0         0         0         0         0
         0         0         0         0         0         0         0         0
         0         0         0         0         0         0         0         0
         0         0         0         0         0         0         0         0
         0         0         0         0         0         0         0         0
         0         0         0         0         0         0         0         0
         0         0         0         0         0         0         0         0
         0         0         0         0         0         0         0         0
         0         0         0         0         0         0         0         0
         0         0         0         0         0         0         0         0
         0         0         0         0         0         0         0         0
         0         0         0         0         0         0         0         0
         0         0         0         0         0         0         0         0
         0         0         0         0         0         0         0         0
         0         0         0         0         0         0         0         0
         0         0         0         0         0         0         0         0
         0         0         0         0         0         0         0         0
         0         0         0         0         0         0         0         0
         0         0         0         0         0         0         0         0
         0         0         0         0         0         0         0         0
         0         0         0         0         0         0         0         0
         0         0         0         0         0         0         0         0
         0         0         0         0         0         0         0         0
         0         0         0         0         0         0         0         0
         0         0         0         0         0         0         0         0
         0         0         0         0         0         0         0         0
         0         0         0         0         0         0         0         0
         0         0         0         0         0         0         0         0
         0         0         0         0         0         0         0         0
         0         0         0         0         0         0         0         0
         0         0         0         0         0         0         0         0
         0         0         0         0         0         0         0         0
         0         0         0         0         0         0         0         0
         0         0         0         0         0         0         0         0
         0         0         0         0         0         0         0         0
         0         0         0         0         0         0         0         0
         0         0         0         0         0         0         0         0
         0         0         0         0         0         0         0         0
         0         0         0         0         0         0         0         0
         0         0         0         0         0         0         0         0
         0         0         0         0         0         0         0         0
         0         0         0         0         0         0         0         0
         0         0         0         0         0         0         0         0
         0         0         0         0         0         0         0         0
         0         0         0         0         0         0         0         0
         0         0         0         0         0         0         0         0
         0         0         0         0         0         0         0         0
         0         0         0         0         0         0         0         0
         0         0         0         0         0         0         0         0
         0         0         0         0         0         0         0         0
         0         0         0         0         0         0         0         0
         0         0         0         0         0         0         0         0
         0         0         0         0         0         0         0         0
         0         0         0         0         0         0         0         0
         0         0         0         0         0         0         0         0
         0         0         0         0         0         0         0         0
         0         0         0         0         0         0         0         0
         0         0         0         0         0         0         0         0
         0         0         0         0         0         0         0         0
         0         0         0         0         0         0         0         0
         0         0         0         0         0         0         0         0
         0         0         0         0         0         0         0         0
         0         0         0         0         0         0         0         0
         0         0         0         0         0         0         0         0
         0         0         0         0         0         0         0         0
         0         0         0         0         0         0         0         0
         0         0         0         0         0         0         0         0
         0         0         0         0         0         0         0         0
         0         0         0         0         0         0         0         0
         0         0         0         0         0         0         0         0
         0         0         0         0         0         0         0         0
         0         0         0         0         0         0         0         0
         0         0         0         0         0         0         0         0
         0         0         0         0         0         0         0         0
         0         0         0         0         0         0         0         0
         0         0         0         0         0         0         0         0
         0         0         0         0         0         0         0         0
         0         0         0         0         0         0         0         0
         0         0         0         0         0         0         0         0
         0         0         0         0         0         0         0         0
         0         0         0         0         0         0         0         0
         0         0         0         0         0         0         0         0
         0         0         0         0         0         0         0         0
         0         0         0         0         0         0         0         0
         0         0         0         0         0         0         0         0
         0         0         0         0         0         0         0         0
         0         0         0         0         0         0         0         0
         0         0         0         0         0         0         0         0
         0         0         0         0         0         0         0         0
         0         0         0         0         0         0         0         0
         0         0         0         0         0         0         0         0
         0         0         0         0         0         0         0         0
         0         0         0         0         0         0         0         0
         0         0         0         0         0         0         0         0
         0         0         0         0         0         0         0         0
         0         0         0         0         0         0         0         0
         0         0         0         0         0         0         0         0
         0         0         0         0         0         0         0         0
         0         0         0         0         0         0         0         0
         0         0         0         0         0         0         0         0
         0         0         0         0         0         0         0         0
         0         0         0         0         0         0         0         0
         0         0         0         0         0         0         0         0
         0         0         0         0         0         0         0         0
         0         0         0         0         0         0         0         0
         0         0         0         0         0         0         0         0
         0         0         0         0         0         0         0         0
         0         0         0         0         0         0         0         0
         0         0         0         0         0         0         0         0
         0         0         0         0         0         0         0         0
         0         0         0         0         0         0         0         0
         0         0         0         0         0         0         0         0
         0         0         0         0         0         0         0         0
         0         0         0         0         0         0         0         0
         0         0         0         0         0         0         0         0
         0         0         0         0         0         0         0         0
         0         0         0         0         0         0         0         0
         0         0         0         0         0         0         0         0
         0         0         0         0         0         0         0         0
         0         0         0         0         0         0         0         0
         0         0         0         0         0         0         0         0
         0         0         0         0         0         0         0         0
         0         0         0         0         0         0         0         0
         0         0         0         0         0         0         0         0
         0         0         0         0         0         0         0         0
         0         0         0         0         0         0         0         0
         0         0         0         0         0         0         0         0
         0         0         0         0         0         0         0         0
         0         0         0         0         0         0         0         0
         0         0         0         0         0         0         0         0
         0         0         0         0         0         0         0         0
         0         0         0         0         0         0         0         0
         0         0         0         0         0         0         0         0
         0         0         0         0         0         0         0         0
         0         0         0         0         0         0         0         0
         0         0         0         0         0         0         0         0
         0         0         0         0         0         0         0         0
         0         0         0         0         0         0         0         0
         0         0         0         0         0         0         0         0
         0         0         0         0         0         0         0         0
         0         0         0         0         0         0         0         0
         0         0         0         0         0         0         0         0
         0         0         0         0         0         0         0         0
         0         0         0         0         0         0         0         0
         0         0         0         0         0         0         0         0
         0         0         0         0         0         0         0         0
         0         0         0         0         0         0         0         0
         0         0         0         0         0         0         0         0
         0         0         0         0         0         0         0         0
         0         0         0         0         0         0         0         0
         0         0         0         0         0         0         0         0
         0         0         0         0         0         0         0         0
         0         0         0         0         0         0         0         0
         0         0         0         0         0         0         0         0
         0         0         0         0         0         0         0         0
         0         0         0         0         0         0         0         0
         0         0         0         0         0         0         0         0
         0         0         0         0         0         0         0         0
         0         0         0         0         0         0         0         0
         0         0         0         0         0         0         0         0
         0         0         0         0         0         0         0         0
         0         0         0         0         0         0         0         0
         0         0         0         0         0         0         0         0
         0         0         0         0         0         0         0         0
         0         0         0         0         0         0         0         0
         0         0         0         0         0         0         0         0
         0         0         0         0         0         0         0         0
         0         0         0         0         0         0         0         0
         0         0         0         0         0         0         0         0
         0         0         0         0         0         0         0         0
         0         0         0         0         0         0         0         0
         0         0         0         0         0         0         0         0
         0         0         0         0         0         0         0         0
         0         0         0         0         0         0         0         0
         0         0         0         0         0         0         0         0
         0         0         0         0         0         0         0         0
         0         0         0         0         0         0         0         0
         0         0         0         0         0         0         0         0
         0         0         0         0         0         0         0         0
         0         0         0         0         0         0         0         0
         0         0         0         0         0         0         0         0
         0         0         0         0         0         0         0         0
         0         0         0         0         0         0         0         0
         0         0         0         0         0         0         0         0
         0         0         0         0         0         0         0         0
         0         0         0         0         0         0         0         0
         0         0         0         0         0         0         0         0
         0         0         0         0         0         0         0         0
         0         0         0         0         0         0         0         0
         0         0         0         0         0         0         0         0
         0         0         0         0         0         0         0         0
         0         0         0         0         0         0         0         0
         0         0         0         0         0         0         0         0
         0         0         0         0         0         0         0         0
         0         0         0         0         0         0         0         0
         0         0         0         0         0         0         0         0
         0         0         0         0         0         0         0         0
         0         0         0         0         0         0         0         0
         0         0         0         0         0         0         0         0
         0         0         0         0         0         0         0         0
         0         0         0         0         0         0         0         0
         0         0         0         0         0         0         0         0
         0         0         0         0         0         0         0         0
         0         0         0         0         0         0         0         0
         0         0         0         0         0         0         0         0
         0         0         0         0         0         0         0         0
         0         0         0         0         0         0         0         0
         0         0         0         0         0         0         0         0
         0         0         0         0         0         0         0         0
         0         0         0         0         0         0         0         0
         0         0         0         0         0         0         0         0
         0         0         0         0         0         0         0         0
         0         0         0         0         0         0         0         0
         0         0         0         0         0         0         0         0
         0         0         0         0         0         0         0         0
         0         0         0         0         0         0         0         0
         0         0         0         0         0         0         0         0
         0         0         0         0         0         0         0         0
         0         0         0         0         0         0         0         0
         0         0         0         0         0         0         0         0
         0         0         0         0         0         0         0         0
         0         0         0         0         0         0         0         0
         0         0         0         0         0         0         0         0
         0         0         0         0         0         0         0         0
         0         0         0         0         0         0         0         0
         0         0         0         0         0         0         0         0
         0         0         0         0         0         0         0         0
         0         0         0         0         0         0         0         0
         0         0         0         0         0         0         0         0
         0         0         0         0         0         0         0         0
         0         0         0         0         0         0         0         0
         0         0         0         0         0         0         0         0
         0         0         0         0         0         0         0         0
         0         0         0         0         0         0         0         0
         0         0         0         0         0         0         0         0
         0         0         0         0         0         0         0         0
         0         0         0         0         0         0         0         0
         0         0         0         0         0         0         0         0
         0         0         0         0         0         0         0         0
         0         0         0         0         0         0         0         0
         0         0         0         0         0         0         0         0
         0         0         0         0         0         0         0         0
         0         0         0         0         0         0         0         0
         0         0         0         0         0         0         0         0
         0         0         0         0         0         0         0         0
         0         0         0         0         0         0         0         0
         0         0         0         0         0         0         0         0
         0         0         0         0         0         0         0         0
         0         0         0         0         0         0         0         0
         0         0         0         0         0         0         0         0
         0         0         0         0         0         0         0         0
         0         0         0         0         0         0         0         0
         0         0         0         0         0         0         0         0
         0         0         0         0         0         0         0         0
         0         0         0         0         0         0         0         0
         0         0         0         0         0         0         0         0
         0         0         0         0         0         0         0         0
         0         0         0         0         0         0         0         0
         0         0         0         0         0         0         0         0
         0         0         0         0         0         0         0         0
         0         0         0         0         0         0         0         0
         0         0         0         0         0         0         0         0
         0         0         0         0         0         0         0         0
         0         0         0         0         0         0         0         0
         0         0         0         0         0         0         0         0
         0         0         0         0         0         0         0         0
         0         0         0         0         0         0         0         0
         0         0         0         0         0         0         0         0
         0         0         0         0         0         0         0         0
         0         0         0         0         0         0         0         0
         0         0         0         0         0         0         0         0
         0         0         0         0         0         0         0         0
         0         0         0         0         0         0         0         0
         0         0         0         0         0         0         0         0
         0         0         0         0         0         0         0         0
         0         0         0         0         0         0         0         0
         0         0         0         0         0         0         0         0
         0         0         0         0         0         0         0         0
         0         0         0         0         0         0         0         0
         0         0         0         0         0         0         0         0
         0         0         0         0         0         0         0         0
         0         0         0         0         0         0         0         0
         0         0         0         0         0         0         0         0
         0         0         0         0         0         0         0         0
         0         0         0         0         0         0         0         0
         0         0         0         0         0         0         0         0
         0         0         0         0         0         0         0         0
         0         0         0         0         0         0         0         0
         0         0         0         0         0         0         0         0
         0         0         0         0         0         0         0         0
         0         0         0         0         0         0         0         0
         0         0         0         0         0         0         0         0
         0         0         0         0         0         0         0         0
         0         0         0         0         0         0         0         0
         0         0         0         0         0         0         0         0
         0         0         0         0         0         0         0         0
         0         0         0         0         0         0         0         0
         0         0         0         0         0         0         0         0
         0         0         0         0         0         0         0         0
         0         0         0         0         0         0         0         0
         0         0         0         0         0         0         0         0
         0         0         0         0         0         0         0         0
         0         0         0         0         0         0         0         0
         0         0         0         0         0         0         0         0
         0         0         0         0         0         0         0         0
         0         0         0         0         0         0         0         0
         0         0         0         0         0         0         0         0
         0         0         0         0         0         0         0         0
         0         0         0         0         0         0         0         0
         0         0         0         0         0         0         0         0
         0         0         0         0         0         0         0         0
         0         0         0         0         0         0         0         0
         0         0         0         0         0         0         0         0
         0         0         0         0         0         0         0         0
         0         0         0         0         0         0         0         0
         0         0         0         0         0         0         0         0
         0         0         0         0         0         0         0         0
         0         0         0         0         0         0         0         0
         0         0         0         0         0         0         0         0
         0         0         0         0         0         0         0         0
         0         0         0         0         0         0         0         0
         0         0         0         0         0         0         0         0
         0         0         0         0         0         0         0         0
         0         0         0         0         0         0         0         0
         0         0         0         0         0         0         0         0
         0         0         0         0         0         0         0         0
         0         0         0         0         0         0         0         0
         0         0         0         0         0         0         0         0
         0         0         0         0         0         0         0         0
         0         0         0         0         0         0         0         0
         0         0         0         0         0         0         0         0
         0         0         0         0         0         0         0         0
         0         0         0         0         0         0         0         0
         0         0         0         0         0         0         0         0
         0         0         0         0         0         0         0         0
         0         0         0         0         0         0         0         0
         0         0         0         0         0         0         0         0
         0         0         0         0         0         0         0         0
         0         0         0         0         0         0         0         0
         0         0         0         0         0         0         0         0
         0         0         0         0         0         0         0         0
         0         0         0         0         0         0         0         0
         0         0         0         0         0         0         0         0
         0         0         0         0         0         0         0         0
         0         0         0         0         0         0         0         0
         0         0         0         0         0         0         0         0
         0         0         0         0         0         0         0         0
         0         0         0         0         0         0         0         0
         0         0         0         0         0         0         0         0
         0         0         0         0         0         0         0         0
         0         0         0         0         0         0         0         0
         0         0         0         0         0         0         0         0
         0         0         0         0         0         0         0         0
         0         0         0         0         0         0         0         0
         0         0         0         0         0         0         0         0
         0         0         0         0         0         0         0         0
         0         0         0         0         0         0         0         0
         0         0         0         0         0         0         0         0
         0         0         0         0         0         0         0         0
         0         0         0         0         0         0         0         0
         0         0         0         0         0         0         0         0
         0         0         0         0         0         0         0         0
         0         0         0         0         0         0         0         0
         0         0         0         0         0         0         0         0
         0         0         0         0         0         0         0         0
         0         0         0         0         0         0         0         0
         0         0         0         0         0         0         0         0
         0         0         0         0         0         0         0         0
         0         0         0         0         0         0         0         0
         0         0         0         0         0         0         0         0
         0         0         0         0         0         0         0         0
         0         0         0         0         0         0         0         0
         0         0         0         0         0         0         0         0
         0         0         0         0         0         0         0         0
         0         0         0         0         0         0         0         0
         0         0         0         0         0         0         0         0
         0         0         0         0         0         0         0         0
         0         0         0         0         0         0         0         0
         0         0         0         0         0         0         0         0
         0         0         0         0         0         0         0         0
         0         0         0         0         0         0         0         0
         0         0         0         0         0         0         0         0
         0         0         0         0         0         0         0         0
         0         0         0         0         0         0         0         0
         0         0         0         0         0         0         0         0
         0         0         0         0         0         0         0         0
         0         0         0         0         0         0         0         0
         0         0         0         0         0         0         0         0
         0         0         0         0         0         0         0         0
         0         0         0         0         0         0         0         0
         0         0         0         0         0         0         0         0
         0         0         0         0         0         0         0         0
         0         0         0         0         0         0         0         0
         0         0         0         0         0         0         0         0
         0         0         0         0         0         0         0         0
         0         0         0         0         0         0         0         0
         0         0         0         0         0         0         0         0
         0         0         0         0         0         0         0         0
         0         0         0         0         0         0         0         0
         0         0         0         0         0         0         0         0
         0         0         0         0         0         0         0         0
         0         0         0         0         0         0         0         0
         0         0         0         0         0         0         0         0
         0         0         0         0         0         0         0         0
         0         0         0         0         0         0         0         0
         0         0         0         0         0         0         0         0
         0         0         0         0         0         0         0         0
         0         0         0         0         0         0         0         0
         0         0         0         0         0         0         0         0
         0         0         0         0         0         0         0         0
         0         0         0         0         0         0         0         0
         0         0         0         0         0         0         0         0
         0         0         0         0         0         0         0         0
         0         0         0         0         0         0         0         0
         0         0         0         0         0         0         0         0
         0         0         0         0         0         0         0         0
         0         0         0         0         0         0         0         0
         0         0         0         0         0         0         0         0
         0         0         0         0         0         0         0         0
         0         0         0         0         0         0         0         0
         0         0         0         0         0         0         0         0
         0         0         0         0         0         0         0         0
         0         0         0         0         0         0         0         0
         0         0         0         0         0         0         0         0
         0         0         0         0         0         0         0         0
         0         0         0         0         0         0         0         0
         0         0         0         0         0         0         0         0
         0         0         0         0         0         0         0         0
         0         0         0         0         0         0         0         0
         0         0         0         0         0         0         0         0
         0         0         0         0         0         0         0         0
         0         0         0         0         0         0         0         0
         0         0         0         0         0         0         0         0
         0         0         0         0         0         0         0         0
         0         0         0         0         0         0         0         0
         0         0         0         0         0         0         0         0
         0         0         0         0         0         0         0         0
         0         0         0         0         0         0         0         0
         0         0         0         0         0         0         0         0
         0         0         0         0         0         0         0         0
         0         0         0         0         0         0         0         0
         0         0         0         0         0         0         0         0
         0         0         0         0         0         0         0         0
         0         0         0         0         0         0         0         0
         0         0         0         0         0         0         0         0
         0         0         0         0         0         0         0         0
         0         0         0         0         0         0         0         0
         0         0         0         0         0         0         0         0
         0         0         0         0         0         0         0         0
         0         0         0         0         0         0         0         0
         0         0         0         0         0         0         0         0
         0         0         0         0         0         0         0         0
         0         0         0         0         0         0         0         0
         0         0         0         0         0         0         0         0
         0         0         0         0         0         0         0         0
         0         0         0         0         0         0         0         0
         0         0         0         0         0         0         0         0
         0         0         0         0         0         0         0         0
         0         0         0         0         0         0         0         0
         0         0         0         0         0         0         0         0
         0         0         0         0         0         0         0         0
         0         0         0         0         0         0         0         0
         0         0         0         0         0         0         0         0
         0         0         0         0         0         0         0         0
         0         0         0         0         0         0         0         0
         0         0         0         0         0         0         0         0
         0         0         0         0         0         0         0         0
         0         0         0         0         0         0         0         0
         0         0         0         0         0         0         0         0
         0         0         0         0         0         0         0         0
         0         0         0         0         0         0         0         0
         0         0         0         0         0         0         0         0
         0         0         0         0         0         0         0         0
         0         0         0         0         0         0         0         0
         0         0         0         0         0         0         0         0
         0         0         0         0         0         0         0         0
         0         0         0         0         0         0         0         0
         0         0         0         0         0         0         0         0
         0         0         0         0         0         0         0         0
         0         0         0         0         0         0         0         0
         0         0         0         0         0         0         0         0
         0         0         0         0         0         0         0         0
         0         0         0         0         0         0         0         0
         0         0         0         0         0         0         0         0
         0         0         0         0         0         0         0         0
         0         0         0         0         0         0         0         0
         0         0         0         0         0         0         0         0
         0         0         0         0         0         0         0         0
         0         0         0         0         0         0         0         0
         0         0         0         0         0         0         0         0
         0         0         0         0         0         0         0         0
         0         0         0         0         0         0         0         0
         0         0         0         0         0         0         0         0
         0         0         0         0         0         0         0         0
         0         0         0         0         0         0         0         0
         0         0         0         0         0         0         0         0
         0         0         0         0         0         0         0         0
         0         0         0         0         0         0         0         0
         0         0         0         0         0         0         0         0
         0         0         0         0         0         0         0         0
         0         0         0         0         0         0         0         0
         0         0         0         0         0         0         0         0
         0         0         0         0         0         0         0         0
         0         0         0         0         0         0         0         0
         0         0         0         0         0         0         0         0
         0         0         0         0         0         0         0         0
         0         0         0         0         0         0         0         0
         0         0         0         0         0         0         0         0
         0         0         0         0         0         0         0         0
         0         0         0         0         0         0         0         0
         0         0         0         0         0         0         0         0
         0         0         0         0         0         0         0         0
         0         0         0         0         0         0         0         0
         0         0         0         0         0         0         0         0
         0         0         0         0         0         0         0         0
         0         0         0         0         0         0         0         0
         0         0         0         0         0         0         0         0
         0         0         0         0         0         0         0         0
         0         0         0         0         0         0         0         0
         0         0         0         0         0         0         0         0
         0         0         0         0         0         0         0         0
         0         0         0         0         0         0         0         0
         0         0         0         0         0         0         0         0
         0         0         0         0         0         0         0         0
         0         0         0         0         0         0         0         0
         0         0         0         0         0         0         0         0
         0         0         0         0         0         0         0         0
         0         0         0         0         0         0         0         0
         0         0         0         0         0         0         0         0
         0         0         0         0         0         0         0         0
         0         0         0         0         0         0         0         0
         0         0         0         0         0         0         0         0
         0         0         0         0         0         0         0         0
         0         0         0         0         0         0         0         0
         0         0         0         0         0         0         0         0
         0         0         0         0         0         0         0         0
         0         0         0         0         0         0         0         0
         0         0         0         0         0         0         0         0
         0         0         0         0         0         0         0         0
         0         0         0         0         0         0         0         0
         0         0         0         0         0         0         0         0
         0         0         0         0         0         0         0         0
         0         0         0         0         0         0         0         0
         0         0         0         0         0         0         0         0
         0         0         0         0         0         0         0         0
         0         0         0         0         0         0         0         0
         0         0         0         0         0         0         0         0
         0         0         0         0         0         0         0         0
         0         0         0         0         0         0         0         0
         0         0         0         0         0         0         0         0
         0         0         0         0         0         0         0         0
         0         0         0         0         0         0         0         0
         0         0         0         0         0         0         0         0
         0         0         0         0         0         0         0         0
         0         0         0         0         0         0         0         0
         0         0         0         0         0         0         0         0
         0         0         0         0         0         0         0         0
         0         0         0         0         0         0         0         0
         0         0         0         0         0         0         0         0
         0         0         0         0         0         0         0         0
         0         0         0         0         0         0         0         0
         0         0         0         0         0         0         0         0
         0         0         0         0         0         0         0         0
         0         0         0         0         0         0         0         0
         0         0         0         0         0         0         0         0
         0         0         0         0         0         0         0         0
         0         0         0         0         0         0         0         0
         0         0         0         0         0         0         0         0
         0         0         0         0         0         0         0         0
         0         0         0         0         0         0         0         0
         0         0         0         0         0         0         0         0
         0         0         0         0         0         0         0         0
         0         0         0         0         0         0         0         0
         0         0         0         0         0         0         0         0
         0         0         0         0         0         0         0         0
         0         0         0         0         0         0         0         0
         0         0         0         0         0         0         0         0
         0         0         0         0         0         0         0         0
         0         0         0         0         0         0         0         0
         0         0         0         0         0         0         0         0
         0         0         0         0         0         0         0         0
         0         0         0         0         0         0         0         0
         0         0         0         0         0         0         0         0
         0         0         0         0         0         0         0         0
         0         0         0         0         0         0         0         0
         0         0         0         0         0         0         0         0
         0         0         0         0         0         0         0         0
         0         0         0         0         0         0         0         0
         0         0         0         0         0         0         0         0
         0         0         0         0         0         0         0         0
         0         0         0         0         0         0         0         0
         0         0         0         0         0         0         0         0
         0         0         0         0         0         0         0         0
         0         0         0         0         0         0         0         0
         0         0         0         0         0         0         0         0
         0         0         0         0         0         0         0         0
         0         0         0         0         0         0         0         0
         0         0         0         0         0         0         0         0
         0         0         0         0         0         0         0         0
         0         0         0         0         0         0         0         0
         0         0         0         0         0         0         0         0
         0         0         0         0         0         0         0         0
         0         0         0         0         0         0         0         0
         0         0         0         0         0         0         0         0
         0         0         0         0         0         0         0         0
         0         0         0         0         0         0         0         0
         0         0         0         0         0         0         0         0
         0         0         0         0         0         0         0         0
         0         0         0         0         0         0         0         0
         0         0         0         0         0         0         0         0
         0         0         0         0         0         0         0         0
         0         0         0         0         0         0         0         0
         0         0         0         0         0         0         0         0
         0         0         0         0         0         0         0         0
         0         0         0         0         0         0         0         0
         0         0         0         0         0         0         0         0
         0         0         0         0         0         0         0         0
         0         0         0         0         0         0         0         0
         0         0         0         0         0         0         0         0
         0         0         0         0         0         0         0         0
         0         0         0         0         0         0         0         0
         0         0         0         0         0         0         0         0
         0         0         0         0         0         0         0         0
         0         0         0         0         0         0         0         0
         0         0         0         0         0         0         0         0
         0         0         0         0         0         0         0         0
         0         0         0         0         0         0         0         0
         0         0         0         0         0         0         0         0
         0         0         0         0         0         0         0         0
         0         0         0         0         0         0         0         0
         0         0         0         0         0         0         0         0
         0         0         0         0         0         0         0         0
         0         0         0         0         0         0         0         0
         0         0         0         0         0         0         0         0
         0         0         0         0         0         0         0         0
         0         0         0         0         0         0         0         0
         0         0         0         0         0         0         0         0
         0         0         0         0         0         0         0         0
         0         0         0         0         0         0         0         0
         0         0         0         0         0         0         0         0
         0         0         0         0         0         0         0         0
         0         0         0         0         0         0         0         0
         0         0         0         0         0         0         0         0
         0         0         0         0         0         0         0         0
         0         0         0         0         0         0         0         0
         0         0         0         0         0         0         0         0
         0         0         0         0         0         0         0         0
         0         0         0         0         0         0         0         0
         0         0         0         0         0         0         0         0
         0         0         0         0         0         0         0         0
         0         0         0         0         0         0         0         0
         0         0         0         0         0         0         0         0
         0         0         0         0         0         0         0         0
         0         0         0         0         0         0         0         0
         0         0         0         0         0         0         0         0
         0         0         0         0         0         0         0         0
         0         0         0         0         0         0         0         0
         0         0         0         0         0         0         0         0
         0         0         0         0         0         0         0         0
         0         0         0         0         0         0         0         0
         0         0         0         0         0         0         0         0
         0         0         0         0         0         0         0         0
         0         0         0         0         0         0         0         0
         0         0         0         0         0         0         0         0
         0         0         0         0         0         0         0         0
         0         0         0         0         0         0         0         0
         0         0         0         0         0         0         0         0
         0         0         0         0         0         0         0         0
         0         0         0         0         0         0         0         0
         0         0         0         0         0         0         0         0
         0         0         0         0         0         0         0         0
         0         0         0         0         0         0         0         0
         0         0         0         0         0         0         0         0
         0         0         0         0         0         0         0         0
         0         0         0         0         0         0         0         0
         0         0         0         0         0         0         0         0
         0         0         0         0         0         0         0         0
         0         0         0         0         0         0         0         0
         0         0         0         0         0         0         0         0
         0         0         0         0         0         0         0         0
         0         0         0         0         0         0         0         0
         0         0         0         0         0         0         0         0
         0         0         0         0         0         0         0         0
         0         0         0         0         0         0         0         0
         0         0         0         0         0         0         0         0
         0         0         0         0         0         0         0         0
         0         0         0         0         0         0         0         0
         0         0         0         0         0         0         0         0
         0         0         0         0         0         0         0         0
         0         0         0         0         0         0         0         0
         0         0         0         0         0         0         0         0
         0         0         0         0         0         0         0         0
         0         0         0         0         0         0         0         0
         0         0         0         0         0         0         0         0
         0         0         0         0         0         0         0         0
         0         0         0         0         0         0         0         0
         0         0         0         0         0         0         0         0
         0         0         0         0         0         0         0         0
         0         0         0         0         0         0         0         0
         0         0         0         0         0         0         0         0
         0         0         0         0         0         0         0         0
         0         0         0         0         0         0         0         0
         0         0         0         0         0         0         0         0
         0         0         0         0         0         0         0         0
         0         0         0         0         0         0         0         0
         0         0         0         0         0         0         0         0
         0         0         0         0         0         0         0         0
         0         0         0         0         0         0         0         0
         0         0         0         0         0         0         0         0
         0         0         0         0         0         0         0         0
         0         0         0         0         0         0         0         0
         0         0         0         0         0         0         0         0
         0         0         0         0         0         0         0         0
         0         0         0         0         0         0         0         0
         0         0         0         0         0         0         0         0
         0         0         0         0         0         0         0         0
         0         0         0         0         0         0         0         0
         0         0         0         0         0         0         0         0
         0         0         0         0         0         0         0         0
         0         0         0         0         0         0         0         0
         0         0         0         0         0         0         0         0
         0         0         0         0         0         0         0         0
         0         0         0         0         0         0         0         0
         0         0         0         0         0         0         0         0
         0         0         0         0         0         0         0         0
         0         0         0         0         0         0         0         0
         0         0         0         0         0         0         0         0
         0         0         0         0         0         0         0         0
         0         0         0         0         0         0         0         0
         0         0         0         0         0         0         0         0
         0         0         0         0         0         0         0         0
         0         0         0         0         0         0         0         0
         0         0         0         0         0         0         0         0
         0         0         0         0         0         0         0         0
         0         0         0         0         0         0         0         0
         0         0         0         0         0         0         0         0
         0         0         0         0         0         0         0         0
         0         0         0         0         0         0         0         0
         0         0         0         0         0         0         0         0
         0         0         0         0         0         0         0         0
         0         0         0         0         0         0         0         0
         0         0         0         0         0         0         0         0
         0         0         0         0         0         0         0         0
         0         0         0         0         0         0         0         0
         0         0         0         0         0         0         0         0
         0         0         0         0         0         0         0         0
         0         0         0         0         0         0         0         0
         0         0         0         0         0         0         0         0
         0         0         0         0         0         0         0         0
         0         0         0         0         0         0         0         0
         0         0         0         0         0         0         0         0
         0         0         0         0         0         0         0         0
         0         0         0         0         0         0         0         0
         0         0         0         0         0         0         0         0
         0         0         0         0         0         0         0         0
         0         0         0         0         0         0         0         0
         0         0         0         0         0         0         0         0
         0         0         0         0         0         0         0         0
         0         0         0         0         0         0         0         0
         0         0         0         0         0         0         0         0
         0         0         0         0         0         0         0         0
         0         0         0         0         0         0         0         0
         0         0         0         0         0         0         0         0
         0         0         0         0         0         0         0         0
         0         0         0         0         0         0         0         0
         0         0         0         0         0         0         0         0
         0         0         0         0         0         0         0         0
         0         0         0         0         0         0         0         0
         0         0         0         0         0         0         0         0
         0         0         0         0         0         0         0         0
         0         0         0         0         0         0         0         0
         0         0         0         0         0         0         0         0
         0         0         0         0         0         0         0         0
         0         0         0         0         0         0         0         0
         0         0         0         0         0         0         0         0
         0         0         0         0         0         0         0         0
         0         0         0         0         0         0         0         0
         0         0         0         0         0         0         0         0
         0         0         0         0         0         0         0         0
         0         0         0         0         0         0         0         0
         0         0         0         0         0         0         0         0
         0         0         0         0         0         0         0         0
         0         0         0         0         0         0         0         0
         0         0         0         0         0         0         0         0
         0         0         0         0         0         0         0         0
         0         0         0         0         0         0         0         0
         0         0         0         0         0         0         0         0
         0         0         0         0         0         0         0         0
         0         0         0         0         0         0         0         0
         0         0         0         0         0         0         0         0
         0         0         0         0         0         0         0         0
         0         0         0         0         0         0         0         0
         0         0         0         0         0         0         0         0
         0         0         0         0         0         0         0         0
         0         0         0         0         0         0         0         0
         0         0         0         0         0         0         0         0
         0         0         0         0         0         0         0         0
         0         0         0         0         0         0         0         0
         0         0         0         0         0         0         0         0
         0         0         0         0         0         0         0         0
         0         0         0         0         0         0         0         0
         0         0         0         0         0         0         0         0
         0         0         0         0         0         0         0         0
         0         0         0         0         0         0         0         0
         0         0         0         0         0         0         0         0
         0         0         0         0         0         0         0         0
         0         0         0         0         0         0         0         0
         0         0         0         0         0         0         0         0
         0         0         0         0         0         0         0         0
         0         0         0         0         0         0         0         0
         0         0         0         0         0         0         0         0
         0         0         0         0         0         0         0         0
         0         0         0         0         0         0         0         0
         0         0         0         0         0         0         0         0
         0         0         0         0         0         0         0         0
         0         0         0         0         0         0         0         0
         0         0         0         0         0         0         0         0
         0         0         0         0         0         0         0         0
         0         0         0         0         0         0         0         0
         0         0         0         0         0         0         0         0
         0         0         0         0         0         0         0         0
         0         0         0         0         0         0         0         0
         0         0         0         0         0         0         0         0
         0         0         0         0         0         0         0         0
         0         0         0         0         0         0         0         0
         0         0         0         0         0         0         0         0
         0         0         0         0         0         0         0         0
         0         0         0         0         0         0         0         0
         0         0         0         0         0         0         0         0
         0         0         0         0         0         0         0         0
         0         0         0         0         0         0         0         0
         0         0         0         0         0         0         0         0
         0         0         0         0         0         0         0         0
         0         0         0         0         0         0         0         0
         0         0         0         0         0         0         0         0
         0         0         0         0         0         0         0         0
         0         0         0         0         0         0         0         0
         0         0         0         0         0         0         0         0
         0         0         0         0         0         0         0         0
         0         0         0         0         0         0         0         0
         0         0         0         0         0         0         0         0
         0         0         0         0         0         0         0         0
         0         0         0         0         0         0         0         0
         0         0         0         0         0         0         0         0
         0         0         0         0         0         0         0         0
         0         0         0         0         0         0         0         0
         0         0         0         0         0         0         0         0
         0         0         0         0         0         0         0         0
         0         0         0         0         0         0         0         0
         0         0         0         0         0         0         0         0
         0         0         0         0         0         0         0         0
         0         0         0         0         0         0         0         0
         0         0         0         0         0         0         0         0
         0         0         0         0         0         0         0         0
         0         0         0         0         0         0         0         0
         0         0         0         0         0         0         0         0
         0         0         0         0         0         0         0         0
         0         0         0         0         0         0         0         0
         0         0         0         0         0         0         0         0
         0         0         0         0         0         0         0         0
         0         0         0         0         0         0         0         0
         0         0         0         0         0         0         0         0
         0         0         0         0         0         0         0         0
         0         0         0         0         0         0         0         0
         0         0         0         0         0         0         0         0
         0         0         0         0         0         0         0         0
         0         0         0         0         0         0         0         0
         0         0         0         0         0         0         0         0
         0         0         0         0         0         0         0         0
         0         0         0         0         0         0         0         0
         0         0         0         0         0         0         0         0
         0         0         0         0         0         0         0         0
         0         0         0         0         0         0         0         0
         0         0         0         0         0         0         0         0
         0         0         0         0         0         0         0         0
         0         0         0         0         0         0         0         0
         0         0         0         0         0         0         0         0
         0         0         0         0         0         0         0         0
         0         0         0         0         0         0         0         0
         0         0         0         0         0         0         0         0
         0         0         0         0         0         0         0         0
         0         0         0         0         0         0         0         0
         0         0         0         0         0         0         0         0
         0         0         0         0         0         0         0         0
         0         0         0         0         0         0         0         0
         0         0         0         0         0         0         0         0
         0         0         0         0         0         0         0         0
         0         0         0         0         0         0         0         0
         0         0         0         0         0         0         0         0
         0         0         0         0         0         0         0         0
         0         0         0         0         0         0         0         0
         0         0         0         0         0         0         0         0
         0         0         0         0         0         0         0         0
         0         0         0         0         0         0         0         0
         0         0         0         0         0         0         0         0
         0         0         0         0         0         0         0         0
         0         0         0         0         0         0         0         0
         0         0         0         0         0         0         0         0
         0         0         0         0         0         0         0         0
         0         0         0         0         0         0         0         0
         0         0         0         0         0         0         0         0
         0         0         0         0         0         0         0         0
         0         0         0         0         0         0         0         0
         0         0         0         0         0         0         0         0
         0         0         0         0         0         0         0         0
         0         0         0         0         0         0         0         0
         0         0         0         0         0         0         0         0
         0         0         0         0         0         0         0         0
         0         0         0         0         0         0         0         0
         0         0         0         0         0         0         0         0
         0         0         0         0         0         0         0         0
         0         0         0         0         0         0         0         0
         0         0         0         0         0         0         0         0
         0         0         0         0         0         0         0         0
         0         0         0         0         0         0         0         0
         0         0         0         0         0         0         0         0
         0         0         0         0         0         0         0         0
         0         0         0         0         0         0         0         0
         0         0         0         0         0         0         0         0
         0         0         0         0         0         0         0         0
         0         0         0         0         0         0         0         0
         0         0         0         0         0         0         0         0
         0         0         0         0         0         0         0         0
         0         0         0         0         0         0         0         0
         0         0         0         0         0         0         0         0
         0         0         0         0         0         0         0         0
         0         0         0         0         0         0         0         0
         0         0         0         0         0         0         0         0
         0         0         0         0         0         0         0         0
         0         0         0         0         0         0         0         0
         0         0         0         0         0         0         0         0
         0         0         0         0         0         0         0         0
         0         0         0         0         0         0         0         0
         0         0         0         0         0         0         0         0
         0         0         0         0         0         0         0         0
         0         0         0         0         0         0         0         0
         0         0         0         0         0         0         0         0
         0         0         0         0         0         0         0         0
         0         0         0         0         0         0         0         0
         0         0         0         0         0         0         0         0
         0         0         0         0         0         0         0         0
         0         0         0         0         0         0         0         0
         0         0         0         0         0         0         0         0
         0         0         0         0         0         0         0         0
         0         0         0         0         0         0         0         0
         0         0         0         0         0         0         0         0
         0         0         0         0         0         0         0         0
         0         0         0         0         0         0         0         0
         0         0         0         0         0         0         0         0
         0         0         0         0         0         0         0         0
         0         0         0         0         0         0         0         0
         0         0         0         0         0         0         0         0
         0         0         0         0         0         0         0         0
         0         0         0         0         0         0         0         0
         0         0         0         0         0         0         0         0
         0         0         0         0         0         0         0         0
         0         0         0         0         0         0         0         0
         0         0         0         0         0         0         0         0
         0         0         0         0         0         0         0         0
         0         0         0         0         0         0         0         0
         0         0         0         0         0         0         0         0
         0         0         0         0         0         0         0         0
         0         0         0         0         0         0         0         0
         0         0         0         0         0         0         0         0
         0         0         0         0         0         0         0         0
         0         0         0         0         0         0         0         0
         0         0         0         0         0         0         0         0
         0         0         0         0         0         0         0         0
         0         0         0         0         0         0         0         0
         0         0         0         0         0         0         0         0
         0         0         0         0         0         0         0         0
         0         0         0         0         0         0         0         0
         0         0         0         0         0         0         0         0
         0         0         0         0         0         0         0         0
         0         0         0         0         0         0         0         0
         0         0         0         0         0         0         0         0
         0         0         0         0         0         0         0         0
         0         0         0         0         0         0         0         0
         0         0         0         0         0         0         0         0
         0         0         0         0         0         0         0         0
         0         0         0         0         0         0         0         0
         0         0         0         0         0         0         0         0
         0         0         0         0         0         0         0         0
         0         0         0         0         0         0         0         0
         0         0         0         0         0         0         0         0
         0         0         0         0         0         0         0         0
         0         0         0         0         0         0         0         0
         0         0         0         0         0         0         0         0
         0         0         0         0         0         0         0         0
         0         0         0         0         0         0         0         0
         0         0         0         0         0         0         0         0
         0         0         0         0         0         0         0         0
         0         0         0         0         0         0         0         0
         0         0         0         0         0         0         0         0
         0         0         0         0         0         0         0         0
         0         0         0         0         0         0         0         0
         0         0         0         0         0         0         0         0
         0         0         0         0         0         0         0         0
         0         0         0         0         0         0         0         0
         0         0         0         0         0         0         0         0
         0         0         0         0         0         0         0         0
         0         0         0         0         0         0         0         0
         0         0         0         0         0         0         0         0
         0         0         0         0         0         0         0         0
         0         0         0         0         0         0         0         0
         0         0         0         0         0         0         0         0
         0         0         0         0         0         0         0         0
         0         0         0         0         0         0         0         0
         0         0         0         0         0         0         0         0
         0         0         0         0         0         0         0         0
         0         0         0         0         0         0         0         0
         0         0         0         0         0         0         0         0
         0         0         0         0         0         0         0         0
         0         0         0         0         0         0         0         0
         0         0         0         0         0         0         0         0
         0         0         0         0         0         0         0         0
         0         0         0         0         0         0         0         0
         0         0         0         0         0         0         0         0
         0         0         0         0         0         0         0         0
         0         0         0         0         0         0         0         0
         0         0         0         0         0         0         0         0
         0         0         0         0         0         0         0         0
         0         0         0         0         0         0         0         0
         0         0         0         0         0         0         0         0
         0         0         0         0         0         0         0         0
         0         0         0         0         0         0         0         0
         0         0         0         0         0         0         0         0
         0         0         0         0         0         0         0         0
         0         0         0         0         0         0         0         0
         0         0         0         0         0         0         0         0
         0         0         0         0         0         0         0         0
         0         0         0         0         0         0         0         0
         0         0         0         0         0         0         0         0
         0         0         0         0         0         0         0         0
         0         0         0         0         0         0         0         0
         0         0         0         0         0         0         0         0
         0         0         0         0         0         0         0         0
         0         0         0         0         0         0         0         0
         0         0         0         0         0         0         0         0
         0         0         0         0         0         0         0         0
         0         0         0         0         0         0         0         0
         0         0         0         0         0         0         0         0
         0         0         0         0         0         0         0         0
         0         0         0         0         0         0         0         0
         0         0         0         0         0         0         0         0
         0         0         0         0         0         0         0         0
         0         0         0         0         0         0         0         0
         0         0         0         0         0         0         0         0
         0         0         0         0         0         0         0         0
         0         0         0         0         0         0         0         0
         0         0         0         0         0         0         0         0
         0         0         0         0         0         0         0         0
         0         0         0         0         0         0         0         0
         0         0         0         0         0         0         0         0
         0         0         0         0         0         0         0         0
         0         0         0         0         0         0         0         0
         0         0         0         0         0         0         0         0
         0         0         0         0         0         0         0         0
         0         0         0         0         0         0         0         0
         0         0         0         0         0         0         0         0
         0         0         0         0         0         0         0         0
         0         0         0         0         0         0         0         0
         0         0         0         0         0         0         0         0
         0         0         0         0         0         0         0         0
         0         0         0         0         0         0         0         0
         0         0         0         0         0         0         0         0
         0         0         0         0         0         0         0         0
         0         0         0         0         0         0         0         0
         0         0         0         0         0         0         0         0
         0         0         0         0         0         0         0         0
         0         0         0         0         0         0         0         0
         0         0         0         0         0         0         0         0
         0         0         0         0         0         0         0         0
         0         0         0         0         0         0         0         0
         0         0         0         0         0         0         0         0
         0         0         0         0         0         0         0         0
         0         0         0         0         0         0         0         0
         0         0         0         0         0         0         0         0
         0         0         0         0         0         0         0         0
         0         0         0         0         0         0         0         0
         0         0         0         0         0         0         0         0
         0         0         0         0         0         0         0         0
         0         0         0         0         0         0         0         0
         0         0         0         0         0         0         0         0
         0         0         0         0         0         0         0         0
         0         0         0         0         0         0         0         0
         0         0         0         0         0         0         0         0
         0         0         0         0         0         0         0         0
         0         0         0         0         0         0         0         0
         0         0         0         0         0         0         0         0
         0         0         0         0         0         0         0         0
         0         0         0         0         0         0         0         0
         0         0         0         0         0         0         0         0
         0         0         0         0         0         0         0         0
         0         0         0         0         0         0         0         0
         0         0         0         0         0         0         0         0
         0         0         0         0         0         0         0         0
         0         0         0         0         0         0         0         0
         0         0         0         0         0         0         0         0
         0         0         0         0         0         0         0         0
         0         0         0         0         0         0         0         0
         0         0         0         0         0         0         0         0
         0         0         0         0         0         0         0         0
         0         0         0         0         0         0         0         0
         0         0         0         0         0         0         0         0
         0         0         0         0         0         0         0         0
         0         0         0         0         0         0         0         0
         0         0         0         0         0         0         0         0
         0         0         0         0         0         0         0         0
         0         0         0         0         0         0         0         0
         0         0         0         0         0         0         0         0
         0         0         0         0         0         0         0         0
         0         0         0         0         0         0         0         0
         0         0         0         0         0         0         0         0
         0         0         0         0         0         0         0         0
         0         0         0         0         0         0         0         0
         0         0         0         0         0         0         0         0
         0         0         0         0         0         0         0         0
         0         0         0         0         0         0         0         0
         0         0         0         0         0         0         0         0
         0         0         0         0         0         0         0         0
         0         0         0         0         0         0         0         0
         0         0         0         0         0         0         0         0
         0         0         0         0         0         0         0         0
         0         0         0         0         0         0         0         0
         0         0         0         0         0         0         0         0
         0         0         0         0         0         0         0         0
         0         0         0         0         0         0         0         0
         0         0         0         0         0         0         0         0
         0         0         0         0         0         0         0         0
         0         0         0         0         0         0         0         0
         0         0         0         0         0         0         0         0
         0         0         0         0         0         0         0         0
         0         0         0         0         0         0         0         0
         0         0         0         0         0         0         0         0
         0         0         0         0         0         0         0         0
         0         0         0         0         0         0         0         0
         0         0         0         0         0         0         0         0
         0         0         0         0         0         0         0         0
         0         0         0         0         0         0         0         0
         0         0         0         0         0         0         0         0
         0         0         0         0         0         0         0         0
         0         0         0         0         0         0         0         0
         0         0         0         0         0         0         0         0
         0         0         0         0         0         0         0         0
         0         0         0         0         0         0         0         0
         0         0         0         0         0         0         0         0
         0         0         0         0         0         0         0         0
         0         0         0         0         0         0         0         0
         0         0         0         0         0         0         0         0
         0         0         0         0         0         0         0         0
         0         0         0         0         0         0         0         0
         0         0         0         0         0         0         0         0
         0         0         0         0         0         0         0         0
         0         0         0         0         0         0         0         0
         0         0         0         0         0         0         0         0
         0         0         0         0         0         0         0         0
         0         0         0         0         0         0         0         0
         0         0         0         0         0         0         0         0
         0         0         0         0         0         0         0         0
         0         0         0         0         0         0         0         0
         0         0         0         0         0         0         0         0
         0         0         0         0         0         0         0         0
         0         0         0         0         0         0         0         0
         0         0         0         0         0         0         0         0
         0         0         0         0         0         0         0         0
         0         0         0         0         0         0         0         0
         0         0         0         0         0         0         0         0
         0         0         0         0         0         0         0         0
         0         0         0         0         0         0         0         0
         0         0         0         0         0         0         0         0
         0         0         0         0         0         0         0         0
         0         0         0         0         0         0         0         0
         0         0         0         0         0         0         0         0
         0         0         0         0         0         0         0         0
         0         0         0         0         0         0         0         0
         0         0         0         0         0         0         0         0
         0         0         0         0         0         0         0         0
         0         0         0         0         0         0         0         0
         0         0         0         0         0         0         0         0
         0         0         0         0         0         0         0         0
         0         0         0         0         0         0         0         0
         0         0         0         0         0         0         0         0
         0         0         0         0         0         0         0         0
         0         0         0         0         0         0         0         0
         0         0         0         0         0         0         0         0
         0         0         0         0         0         0         0         0
         0         0         0         0         0         0         0         0
         0         0         0         0         0         0         0         0
         0         0         0         0         0         0         0         0
         0         0         0         0         0         0         0         0
         0         0         0         0         0         0         0         0
         0         0         0         0         0         0         0         0
         0         0         0         0         0         0         0         0
         0         0         0         0         0         0         0         0
         0         0         0         0         0         0         0         0
         0         0         0         0         0         0         0         0
         0         0         0         0         0         0         0         0
         0         0         0         0         0         0         0         0
         0         0         0         0         0         0         0         0
         0         0         0         0         0         0         0         0
         0         0         0         0         0         0         0         0
         0         0         0         0         0         0         0         0
         0         0         0         0         0         0         0         0
         0         0         0         0         0         0         0         0
         0         0         0         0         0         0         0         0
         0         0         0         0         0         0         0         0
         0         0         0         0         0         0         0         0
         0         0         0         0         0         0         0         0
         0         0         0         0         0         0         0         0
         0         0         0         0         0         0         0         0
         0         0         0         0         0         0         0         0
         0         0         0         0         0         0         0         0
         0         0         0         0         0         0         0         0
         0         0         0         0         0         0         0         0
         0         0         0         0         0         0         0         0
         0         0         0         0         0         0         0         0
         0         0         0         0         0         0         0         0
         0         0         0         0         0         0         0         0
         0         0         0         0         0         0         0         0
         0         0         0         0         0         0         0         0
         0         0         0         0         0         0         0         0
         0         0         0         0         0         0         0         0
         0         0         0         0         0         0         0         0
         0         0         0         0         0         0         0         0
         0         0         0         0         0         0         0         0
         0         0         0         0         0         0         0         0
         0         0         0         0         0         0         0         0
         0         0         0         0         0         0         0         0
         0         0         0         0         0         0         0         0
         0         0         0         0         0         0         0         0
         0         0         0         0         0         0         0         0
         0         0         0         0         0         0         0         0
         0         0         0         0         0         0         0         0
         0         0         0         0         0         0         0         0
         0         0         0         0         0         0         0         0
         0         0         0         0         0         0         0         0
         0         0         0         0         0         0         0         0
         0         0         0         0         0         0         0         0
         0         0         0         0         0         0         0         0
         0         0         0         0         0         0         0         0
         0         0         0         0         0         0         0         0
         0         0         0         0         0         0         0         0
         0         0         0         0         0         0         0         0
         0         0         0         0         0         0         0         0
         0         0         0         0         0         0         0         0
         0         0         0         0         0         0         0         0
         0         0         0         0         0         0         0         0
         0         0         0         0         0         0         0         0
         0         0         0         0         0         0         0         0
         0         0         0         0         0         0         0         0
         0         0         0         0         0         0         0         0
         0         0         0         0         0         0         0         0
         0         0         0         0         0         0         0         0
         0         0         0         0         0         0         0         0
         0         0         0         0         0         0         0         0
         0         0         0         0         0         0         0         0
         0         0         0         0         0         0         0         0
         0         0         0         0         0         0         0         0
         0         0         0         0         0         0         0         0
         0         0         0         0         0         0         0         0
         0         0         0         0         0         0         0         0
         0         0         0         0         0         0         0         0
         0         0         0         0         0         0         0         0
         0         0         0         0         0         0         0         0
         0         0         0         0         0         0         0         0
         0         0         0         0         0         0         0         0
         0         0         0         0         0         0         0         0
         0         0         0         0         0         0         0         0
         0         0         0         0         0         0         0         0
         0         0         0         0         0         0         0         0
         0         0         0         0         0         0         0         0
         0         0         0         0         0         0         0         0
         0         0         0         0         0         0         0         0
         0         0         0         0         0         0         0         0
         0         0         0         0         0         0         0         0
         0         0         0         0         0         0         0         0
         0         0         0         0         0         0         0         0
         0         0         0         0         0         0         0         0
         0         0         0         0         0         0         0         0
         0         0         0         0         0         0         0         0
         0         0         0         0         0         0         0         0
         0         0         0         0         0         0         0         0
         0         0         0         0         0         0         0         0
         0         0         0         0         0         0         0         0
         0         0         0         0         0         0         0         0
         0         0         0         0         0         0         0         0
         0         0         0         0         0         0         0         0
         0         0         0         0         0         0         0         0
         0         0         0         0         0         0         0         0
         0         0         0         0         0         0         0         0
         0         0         0         0         0         0         0         0
         0         0         0         0         0         0         0         0
         0         0         0         0         0         0         0         0
         0         0         0         0         0         0         0         0
         0         0         0         0         0         0         0         0
         0         0         0         0         0         0         0         0
         0         0         0         0         0         0         0         0
         0         0         0         0         0         0         0         0
         0         0         0         0         0         0         0         0
         0         0         0         0         0         0         0         0
         0         0         0         0         0         0         0         0
         0         0         0         0         0         0         0         0
         0         0         0         0         0         0         0         0
         0         0         0         0         0         0         0         0
         0         0         0         0         0         0         0         0
         0         0         0         0         0         0         0         0
         0         0         0         0         0         0         0         0
         0         0         0         0         0         0         0         0
         0         0         0         0         0         0         0         0
         0         0         0         0         0         0         0         0
         0         0         0         0         0         0         0         0
         0         0         0         0         0         0         0         0
         0         0         0         0         0         0         0         0
         0         0         0         0         0         0         0         0
         0         0         0         0         0         0         0         0
         0         0         0         0         0         0         0         0
         0         0         0         0         0         0         0         0
         0         0         0         0         0         0         0         0
         0         0         0         0         0         0         0         0
         0         0         0         0         0         0         0         0
         0         0         0         0         0         0         0         0
         0         0         0         0         0         0         0         0
         0         0         0         0         0         0         0         0
         0         0         0         0         0         0         0         0
         0         0         0         0         0         0         0         0
         0         0         0         0         0         0         0         0
         0         0         0         0         0         0         0         0
         0         0         0         0         0         0         0         0
         0         0         0         0         0         0         0         0
         0         0         0         0         0         0         0         0
         0         0         0         0         0         0         0         0
         0         0         0         0         0         0         0         0
         0         0         0         0         0         0         0         0
         0         0         0         0         0         0         0         0
         0         0         0         0         0         0         0         0
         0         0         0         0         0         0         0         0
         0         0         0         0         0         0         0         0
         0         0         0         0         0         0         0         0
         0         0         0         0         0         0         0         0
         0         0         0         0         0         0         0         0
         0         0         0         0         0         0         0         0
         0         0         0         0         0         0         0         0
         0         0         0         0         0         0         0         0
         0         0         0         0         0         0         0         0
         0         0         0         0         0         0         0         0
         0         0         0         0         0         0         0         0
         0         0         0         0         0         0         0         0
         0         0         0         0         0         0         0         0
         0         0         0         0         0         0         0         0
         0         0         0         0         0         0         0         0
         0         0         0         0         0         0         0         0
         0         0         0         0         0         0         0         0
         0         0         0         0         0         0         0         0
         0         0         0         0         0         0         0         0
         0         0         0         0         0         0         0         0
         0         0         0         0         0         0         0         0
         0         0         0         0         0         0         0         0
         0         0         0         0         0         0         0         0
         0         0         0         0         0         0         0         0
         0         0         0         0         0         0         0         0
         0         0         0         0         0         0         0         0
         0         0         0         0         0         0         0         0
         0         0         0         0         0         0         0         0
         0         0         0         0         0         0         0         0
         0         0         0         0         0         0         0         0
         0         0         0         0         0         0         0         0
         0         0         0         0         0         0         0         0
         0         0         0         0         0         0         0         0
         0         0         0         0         0         0         0         0
         0         0         0         0         0         0         0         0
         0         0         0         0         0         0         0         0
         0         0         0         0         0         0         0         0
         0         0         0         0         0         0         0         0
         0         0         0         0         0         0         0         0
         0         0         0         0         0         0         0         0
         0         0         0         0         0         0         0         0
         0         0         0         0         0         0         0         0
         0         0         0         0         0         0         0         0
         0         0         0         0         0         0         0         0
         0         0         0         0         0         0         0         0
         0         0         0         0         0         0         0         0
         0         0         0         0         0         0         0         0
         0         0         0         0         0         0         0         0
         0         0         0         0         0         0         0         0
         0         0         0         0         0         0         0         0
         0         0         0         0         0         0         0         0
         0         0         0         0         0         0         0         0
         0         0         0         0         0         0         0         0
         0         0         0         0         0         0         0         0
         0         0         0         0         0         0         0         0
         0         0         0         0         0         0         0         0
         0         0         0         0         0         0         0         0
         0         0         0         0         0         0         0         0
         0         0         0         0         0         0         0         0
         0         0         0         0         0         0         0         0
         0         0         0         0         0         0         0         0
         0         0         0         0         0         0         0         0
         0         0         0         0         0         0         0         0
         0         0         0         0         0         0         0         0
         0         0         0         0         0         0         0         0
         0         0         0         0         0         0         0         0
         0         0         0         0         0         0         0         0
         0         0         0         0         0         0         0         0
         0         0         0         0         0         0         0         0
         0         0         0         0         0         0         0         0
         0         0         0         0         0         0         0         0
         0         0         0         0         0         0         0         0
         0         0         0         0         0         0         0         0
         0         0         0         0         0         0         0         0
         0         0         0         0         0         0         0         0
         0         0         0         0         0         0         0         0
         0         0         0         0         0         0         0         0
         0         0         0         0         0         0         0         0
         0         0         0         0         0         0         0         0
         0         0         0         0         0         0         0         0
         0         0         0         0         0         0         0         0
         0         0         0         0         0         0         0         0
         0         0         0         0         0         0         0         0
         0         0         0         0         0         0         0         0
         0         0         0         0         0         0         0         0
         0         0         0         0         0         0         0         0
         0         0         0         0         0         0         0         0
         0         0         0         0         0         0         0         0
         0         0         0         0         0         0         0         0
         0         0         0         0         0         0         0         0
         0         0         0         0         0         0         0         0
         0         0         0         0         0         0         0         0
         0         0         0         0         0         0         0         0
         0         0         0         0         0         0         0         0
         0         0         0         0         0         0         0         0
         0         0         0         0         0         0         0         0
         0         0         0         0         0         0         0         0
         0         0         0         0         0         0         0         0
         0         0         0         0         0         0         0         0
         0         0         0         0         0         0         0         0
         0         0         0         0         0         0         0         0
         0         0         0         0         0         0         0         0
         0         0         0         0         0         0         0         0
         0         0         0         0         0         0         0         0
         0         0         0         0         0         0         0         0
         0         0         0         0         0         0         0         0
         0         0         0         0         0         0         0         0
         0         0         0         0         0         0         0         0
         0         0         0         0         0         0         0         0
         0         0         0         0         0         0         0         0
         0         0         0         0         0         0         0         0
         0         0         0         0         0         0         0         0
         0         0         0         0         0         0         0         0
         0         0         0         0         0         0         0         0
         0         0         0         0         0         0         0         0
         0         0         0         0         0         0         0         0
         0         0         0         0         0         0         0         0
         0         0         0         0         0         0         0         0
         0         0         0         0         0         0         0         0
         0         0         0         0         0         0         0         0
         0         0         0         0         0         0         0         0
         0         0         0         0         0         0         0         0
         0         0         0         0         0         0         0         0
         0         0         0         0         0         0         0         0
         0         0         0         0         0         0         0         0
         0         0         0         0         0         0         0         0
         0         0         0         0         0         0         0         0
         0         0         0         0         0         0         0         0
         0         0         0         0         0         0         0         0
         0         0         0         0         0         0         0         0
         0         0         0         0         0         0         0         0
         0         0         0         0         0         0         0         0
         0         0         0         0         0         0         0         0
         0         0         0         0         0         0         0         0
         0         0         0         0         0         0         0         0
         0         0         0         0         0         0         0         0
         0         0         0         0         0         0         0         0
         0         0         0         0         0         0         0         0
         0         0         0         0         0         0         0         0
         0         0         0         0         0         0         0         0
         0         0         0         0         0         0         0         0
         0         0         0         0         0         0         0         0
         0         0         0         0         0         0         0         0
         0         0         0         0         0         0         0         0
         0         0         0         0         0         0         0         0
         0         0         0         0         0         0         0         0
         0         0         0         0         0         0         0         0
         0         0         0         0         0         0         0         0
         0         0         0         0         0         0         0         0
         0         0         0         0         0         0         0         0
         0         0         0         0         0         0         0         0
         0         0         0         0         0         0         0         0
         0         0         0         0         0         0         0         0
         0         0         0         0         0         0         0         0
         0         0         0         0         0         0         0         0
         0         0         0         0         0         0         0         0
         0         0         0         0         0         0         0         0
         0         0         0         0         0         0         0         0
         0         0         0         0         0         0         0         0
         0         0         0         0         0         0         0         0
         0         0         0         0         0         0         0         0
         0         0         0         0         0         0         0         0
         0         0         0         0         0         0         0         0
         0         0         0         0         0         0         0         0
         0         0         0         0         0         0         0         0
         0         0         0         0         0         0         0         0
         0         0         0         0         0         0         0         0
         0         0         0         0         0         0         0         0
         0         0         0         0         0         0         0         0
         0         0         0         0         0         0         0         0
         0         0         0         0         0         0         0         0
         0         0         0         0         0         0         0         0
         0         0         0         0         0         0         0         0
         0         0         0         0         0         0         0         0
         0         0         0         0         0         0         0         0
         0         0         0         0         0         0         0         0
         0         0         0         0         0         0         0         0
         0         0         0         0         0         0         0         0
         0         0         0         0         0         0         0         0
         0         0         0         0         0         0         0         0
         0         0         0         0         0         0         0         0
         0         0         0         0         0         0         0         0
         0         0         0         0         0         0         0         0
         0         0         0         0         0         0         0         0
         0         0         0         0         0         0         0         0
         0         0         0         0         0         0         0         0
         0         0         0         0         0         0         0         0
         0         0         0         0         0         0         0         0
         0         0         0         0         0         0         0         0
         0         0         0         0         0         0         0         0
         0         0         0         0         0         0         0         0
         0         0         0         0         0         0         0         0
         0         0         0         0         0         0         0         0
         0         0         0         0         0         0         0         0
         0         0         0         0         0         0         0         0
         0         0         0         0         0         0         0         0
         0         0         0         0         0         0         0         0
         0         0         0         0         0         0         0         0
         0         0         0         0         0         0         0         0
         0         0         0         0         0         0         0         0
         0         0         0         0         0         0         0         0
         0         0         0         0         0         0         0         0
         0         0         0         0         0         0         0         0
         0         0         0         0         0         0         0         0
         0         0         0         0         0         0         0         0
         0         0         0         0         0         0         0         0
         0         0         0         0         0         0         0         0
         0         0         0         0         0         0         0         0
         0         0         0         0         0         0         0         0
         0         0         0         0         0         0         0         0
         0         0         0         0         0         0         0         0
         0         0         0         0         0         0         0         0
         0         0         0         0         0         0         0         0
         0         0         0         0         0         0         0         0
         0         0         0         0         0         0         0         0
         0         0         0         0         0         0         0         0
         0         0         0         0         0         0         0         0
         0         0         0         0         0         0         0         0
         0         0         0         0         0         0         0         0
         0         0         0         0         0         0         0         0
         0         0         0         0         0         0         0         0
         0         0         0         0         0         0         0         0
         0         0         0         0         0         0         0         0
         0         0         0         0         0         0         0         0
         0         0         0         0         0         0         0         0
         0         0         0         0         0         0         0         0
         0         0         0         0         0         0         0         0
         0         0         0         0         0         0         0         0
         0         0         0         0         0         0         0         0
         0         0         0         0         0         0         0         0
         0         0         0         0         0         0         0         0
         0         0         0         0         0         0         0         0
         0         0         0         0         0         0         0         0
         0         0         0         0         0         0         0         0
         0         0         0         0         0         0         0         0
         0         0         0         0         0         0         0         0
         0         0         0         0         0         0         0         0
         0         0         0         0         0         0         0         0
         0         0         0         0         0         0         0         0
         0         0         0         0         0         0         0         0
         0         0         0         0         0         0         0         0
         0         0         0         0         0         0         0         0
         0         0         0         0         0         0         0         0
         0         0         0         0         0         0         0         0
         0         0         0         0         0         0         0         0
         0         0         0         0         0         0         0         0
         0         0         0         0         0         0         0         0
         0         0         0         0         0         0         0         0
         0         0         0         0         0         0         0         0
         0         0         0         0         0         0         0         0
         0         0         0         0         0         0         0         0
         0         0         0         0         0         0         0         0
         0         0         0         0         0         0         0         0
         0         0         0         0         0         0         0         0
         0         0         0         0         0         0         0         0
         0         0         0         0         0         0         0         0
         0         0         0         0         0         0         0         0
         0         0         0         0         0         0         0         0
         0         0         0         0         0         0         0         0
         0         0         0         0         0         0         0         0
         0         0         0         0         0         0         0         0
         0         0         0         0         0         0         0         0
         0         0         0         0         0         0         0         0
         0         0         0         0         0         0         0         0
         0         0         0         0         0         0         0         0
         0         0         0         0         0         0         0         0
         0         0         0         0         0         0         0         0
         0         0         0         0         0         0         0         0
         0         0         0         0         0         0         0         0
         0         0         0         0         0         0         0         0
         0         0         0         0         0         0         0         0
         0         0         0         0         0         0         0         0
         0         0         0         0         0         0         0         0
         0         0         0         0         0         0         0         0
         0         0         0         0         0         0         0         0
         0         0         0         0         0         0         0         0
         0         0         0         0         0         0         0         0
         0         0         0         0         0         0         0         0
         0         0         0         0         0         0         0         0
         0         0         0         0         0         0         0         0
         0         0         0         0         0         0         0         0
         0         0         0         0         0         0         0         0
         0         0         0         0         0         0         0         0
         0         0         0         0         0         0         0         0
         0         0         0         0         0         0         0         0
         0         0         0         0         0         0         0         0
         0         0         0         0         0         0         0         0
         0         0         0         0         0         0         0         0
         0         0         0         0         0         0         0         0
         0         0         0         0         0         0         0         0
         0         0         0         0         0         0         0         0
         0         0         0         0         0         0         0         0
         0         0         0         0         0         0         0         0
         0         0         0         0         0         0         0         0
         0         0         0         0         0         0         0         0
         0         0         0         0         0         0         0         0
         0         0         0         0         0         0         0         0
         0         0         0         0         0         0         0         0
         0         0         0         0         0         0         0         0
         0         0         0         0         0         0         0         0
         0         0         0         0         0         0         0         0
         0         0         0         0         0         0         0         0
         0         0         0         0         0         0         0         0
         0         0         0         0         0         0         0         0
         0         0         0         0         0         0         0         0
         0         0         0         0         0         0         0         0
         0         0         0         0         0         0         0         0
         0         0         0         0         0         0         0         0
         0         0         0         0         0         0         0         0
         0         0         0         0         0         0         0         0
         0         0         0         0         0         0         0         0
         0         0         0         0         0         0         0         0
         0         0         0         0         0         0         0         0
         0         0         0         0         0         0         0         0
         0         0         0         0         0         0         0         0
         0         0         0         0         0         0         0         0
         0         0         0         0         0         0         0         0
         0         0         0         0         0         0         0         0
         0         0         0         0         0         0         0         0
         0         0         0         0         0         0         0         0
         0         0         0         0         0         0         0         0
         0         0         0         0         0         0         0         0
         0         0         0         0         0         0         0         0
         0         0         0         0         0         0         0         0
         0         0         0         0         0         0         0         0
         0         0         0         0         0         0         0         0
         0         0         0         0         0         0         0         0
         0         0         0         0         0         0         0         0
         0         0         0         0         0         0         0         0
         0         0         0         0         0         0         0         0
         0         0         0         0         0         0         0         0
         0         0         0         0         0         0         0         0
         0         0         0         0         0         0         0         0
         0         0         0         0         0         0         0         0
         0         0         0         0         0         0         0         0
         0         0         0         0         0         0         0         0
         0         0         0         0         0         0         0         0
         0         0         0         0         0         0         0         0
         0         0         0         0         0         0         0         0
         0         0         0         0         0         0         0         0
         0         0         0         0         0         0         0         0
         0         0         0         0         0         0         0         0
         0         0         0         0         0         0         0         0
         0         0         0         0         0         0         0         0
         0         0         0         0         0         0         0         0
         0         0         0         0         0         0         0         0
         0         0         0         0         0         0         0         0
         0         0         0         0         0         0         0         0
         0         0         0         0         0         0         0         0
         0         0         0         0         0         0         0         0
         0         0         0         0         0         0         0         0
         0         0         0         0         0         0         0         0
         0         0         0         0         0         0         0         0
         0         0         0         0         0         0         0         0
         0         0         0         0         0         0         0         0
         0         0         0         0         0         0         0         0
         0         0         0         0         0         0         0         0
         0         0         0         0         0         0         0         0
         0         0         0         0         0         0         0         0
         0         0         0         0         0         0         0         0
         0         0         0         0         0         0         0         0
         0         0         0         0         0         0         0         0
         0         0         0         0         0         0         0         0
         0         0         0         0         0         0         0         0
         0         0         0         0         0         0         0         0
         0         0         0         0         0         0         0         0
         0         0         0         0         0         0         0         0
         0         0         0         0         0         0         0         0
         0         0         0         0         0         0         0         0
         0         0         0         0         0         0         0         0
         0         0         0         0         0         0         0         0
         0         0         0         0         0         0         0         0
         0         0         0         0         0         0         0         0
         0         0         0         0         0         0         0         0
         0         0         0         0         0         0         0         0
         0         0         0         0         0         0         0         0
         0         0         0         0         0         0         0         0
         0         0         0         0         0         0         0         0
         0         0         0         0         0         0         0         0
         0         0         0         0         0         0         0         0
         0         0         0         0         0         0         0         0
         0         0         0         0         0         0         0         0
         0         0         0         0         0         0         0         0
         0         0         0         0         0         0         0         0
         0         0         0         0         0         0         0         0
         0         0         0         0         0         0         0         0
         0         0         0         0         0         0         0         0
         0         0         0         0         0         0         0         0
         0         0         0         0         0         0         0         0
         0         0         0         0         0         0         0         0
         0         0         0         0         0         0         0         0
         0         0         0         0         0         0         0         0
         0         0         0         0         0         0         0         0
         0         0         0         0         0         0         0         0
         0         0         0         0         0         0         0         0
         0         0         0         0         0         0         0         0
         0         0         0         0         0         0         0         0
         0         0         0         0         0         0         0         0
         0         0         0         0         0         0         0         0
         0         0         0         0         0         0         0         0
         0         0         0         0         0         0         0         0
         0         0         0         0         0         0         0         0
         0         0         0         0         0         0         0         0
         0         0         0         0         0         0         0         0
         0         0         0         0         0         0         0         0
         0         0         0         0         0         0         0         0
         0         0         0         0         0         0         0         0
         0         0         0         0         0         0         0         0
         0         0         0         0         0         0         0         0
         0         0         0         0         0         0         0         0
         0         0         0         0         0         0         0         0
         0         0         0         0         0         0         0         0
         0         0         0         0         0         0         0         0
         0         0         0         0         0         0         0         0
         0         0         0         0         0         0         0         0
         0         0         0         0         0         0         0         0
         0         0         0         0         0         0         0         0
         0         0         0         0         0         0         0         0
         0         0         0         0         0         0         0         0
         0         0         0         0         0         0         0         0
         0         0         0         0         0         0         0         0
         0         0         0         0         0         0         0         0
         0         0         0         0         0         0         0         0
         0         0         0         0         0         0         0         0
         0         0         0         0         0         0         0         0
         0         0         0         0         0         0         0         0
         0         0         0         0         0         0         0         0
         0         0         0         0         0         0         0         0
         0         0         0         0         0         0         0         0
         0         0         0         0         0         0         0         0
         0         0         0         0         0         0         0         0
         0         0         0         0         0         0         0         0
         0         0         0         0         0         0         0         0
         0         0         0         0         0         0         0         0
         0         0         0         0         0         0         0         0
         0         0         0         0         0         0         0         0
         0         0         0         0         0         0         0         0
         0         0         0         0         0         0         0         0
         0         0         0         0         0         0         0         0
         0         0         0         0         0         0         0         0
         0         0         0         0         0         0         0         0
         0         0         0         0         0         0         0         0
         0         0         0         0         0         0         0         0
         0         0         0         0         0         0         0         0
         0         0         0         0         0         0         0         0
         0         0         0         0         0         0         0         0
         0         0         0         0         0         0         0         0
         0         0         0         0         0         0         0         0
         0         0         0         0         0         0         0         0
         0         0         0         0         0         0         0         0
         0         0         0         0         0         0         0         0
         0         0         0         0         0         0         0         0
         0         0         0         0         0         0         0         0
         0         0         0         0         0         0         0         0
         0         0         0         0         0         0         0         0
         0         0         0         0         0         0         0         0
         0         0         0         0         0         0         0         0
         0         0         0         0         0         0         0         0
         0         0         0         0         0         0         0         0
         0         0         0         0         0         0         0         0
         0         0         0         0         0         0         0         0
         0         0         0         0         0         0         0         0
         0         0         0         0         0         0         0         0
         0         0         0         0         0         0         0         0
         0         0         0         0         0         0         0         0
         0         0         0         0         0         0         0         0
         0         0         0         0         0         0         0         0
         0         0         0         0         0         0         0         0
         0         0         0         0         0         0         0         0
         0         0         0         0         0         0         0         0
         0         0         0         0         0         0         0         0
         0         0         0         0         0         0         0         0
         0         0         0         0         0         0         0         0
         0         0         0         0         0         0         0         0
         0         0         0         0         0         0         0         0
         0         0         0         0         0         0         0         0
         0         0         0         0         0         0         0         0
         0         0         0         0         0         0         0         0
         0         0         0         0         0         0         0         0
         0         0         0         0         0         0         0         0
         0         0         0         0         0         0         0         0
         0         0         0         0         0         0         0         0
         0         0         0         0         0         0         0         0
         0         0         0         0         0         0         0         0
         0         0         0         0         0         0         0         0
         0         0         0         0         0         0         0         0
         0         0         0         0         0         0         0         0
         0         0         0         0         0         0         0         0
         0         0         0         0         0         0         0         0
         0         0         0         0         0         0         0         0
         0         0         0         0         0         0         0         0
         0         0         0         0         0         0         0         0
         0         0         0         0         0         0         0         0
         0         0         0         0         0         0         0         0
         0         0         0         0         0         0         0         0
         0         0         0         0         0         0         0         0
         0         0         0         0         0         0         0         0
         0         0         0         0         0         0         0         0
         0         0         0         0         0         0         0         0
         0         0         0         0         0         0         0         0
         0         0         0         0         0         0         0         0
         0         0         0         0         0         0         0         0
         0         0         0         0         0         0         0         0
         0         0         0         0         0         0         0         0
         0         0         0         0         0         0         0         0
         0         0         0         0         0         0         0         0
         0         0         0         0         0         0         0         0
         0         0         0         0         0         0         0         0
         0         0         0         0         0         0         0         0
         0         0         0         0         0         0         0         0
         0         0         0         0         0         0         0         0
         0         0         0         0         0         0         0         0
         0         0         0         0         0         0         0         0
         0         0         0         0         0         0         0         0
         0         0         0         0         0         0         0         0
         0         0         0         0         0         0         0         0
         0         0         0         0         0         0         0         0
         0         0         0         0         0         0         0         0
         0         0         0         0         0         0         0         0
         0         0         0         0         0         0         0         0
         0         0         0         0         0         0         0         0
         0         0         0         0         0         0         0         0
         0         0         0         0         0         0         0         0
         0         0         0         0         0         0         0         0
         0         0         0         0         0         0         0         0
         0         0         0         0         0         0         0         0
         0         0         0         0         0         0         0         0
         0         0         0         0         0         0         0         0
         0         0         0         0         0         0         0         0
         0         0         0         0         0         0         0         0
         0         0         0         0         0         0         0         0
         0         0         0         0         0         0         0         0
         0         0         0         0         0         0         0         0
         0         0         0         0         0         0         0         0
         0         0         0         0         0         0         0         0
         0         0         0         0         0         0         0         0
         0         0         0         0         0         0         0         0
         0         0         0         0         0         0         0         0
         0         0         0         0         0         0         0         0
         0         0         0         0         0         0         0         0
         0         0         0         0         0         0         0         0
         0         0         0         0         0         0         0         0
         0         0         0         0         0         0         0         0
         0         0         0         0         0         0         0         0
         0         0         0         0         0         0         0         0
         0         0         0         0         0         0         0         0
         0         0         0         0         0         0         0         0
         0         0         0         0         0         0         0         0
         0         0         0         0         0         0         0         0
         0         0         0         0         0         0         0         0
         0         0         0         0         0         0         0         0
         0         0         0         0         0         0         0         0
         0         0         0         0         0         0         0         0
         0         0         0         0         0         0         0         0
         0         0         0         0         0         0         0         0
         0         0         0         0         0         0         0         0
         0         0         0         0         0         0         0         0
         0         0         0         0         0         0         0         0
         0         0         0         0         0         0         0         0
         0         0         0         0         0         0         0         0
         0         0         0         0         0         0         0         0
         0         0         0         0         0         0         0         0
         0         0         0         0         0         0         0         0
         0         0         0         0         0         0         0         0
         0         0         0         0         0         0         0         0
         0         0         0         0         0         0         0         0
         0         0         0         0         0         0         0         0
         0         0         0         0         0         0         0         0
         0         0         0         0         0         0         0         0
         0         0         0         0         0         0         0         0
         0         0         0         0         0         0         0         0
         0         0         0         0         0         0         0         0
         0         0         0         0         0         0         0         0
         0         0         0         0         0         0         0         0
         0         0         0         0         0         0         0         0
         0         0         0         0         0         0         0         0
         0         0         0         0         0         0         0         0
         0         0         0         0         0         0         0         0
         0         0         0         0         0         0         0         0
         0         0         0         0         0         0         0         0
         0         0         0         0         0         0         0         0
         0         0         0         0         0         0         0         0
         0         0         0         0         0         0         0         0
         0         0         0         0         0         0         0         0
         0         0         0         0         0         0         0         0
         0         0         0         0         0         0         0         0
         0         0         0         0         0         0         0         0
         0         0         0         0         0         0         0         0
         0         0         0         0         0         0         0         0
         0         0         0         0         0         0         0         0
         0         0         0         0         0         0         0         0
         0         0         0         0         0         0         0         0
         0         0         0         0         0         0         0         0
         0         0         0         0         0         0         0         0
         0         0         0         0         0         0         0         0
         0         0         0         0         0         0         0         0
         0         0         0         0         0         0         0         0
         0         0         0         0         0         0         0         0
         0         0         0         0         0         0         0         0
         0         0         0         0         0         0         0         0
         0         0         0         0         0         0         0         0
         0         0         0         0         0         0         0         0
         0         0         0         0         0         0         0         0
         0         0         0         0         0         0         0         0
         0         0         0         0         0         0         0         0
         0         0         0         0         0         0         0         0
         0         0         0         0         0         0         0         0
         0         0         0         0         0         0         0         0
         0         0         0         0         0         0         0         0
         0         0         0         0         0         0         0         0
         0         0         0         0         0         0         0         0
         0         0         0         0         0         0         0         0
         0         0         0         0         0         0         0         0
         0         0         0         0         0         0         0         0
         0         0         0         0         0         0         0         0
         0         0         0         0         0         0         0         0
         0         0         0         0         0         0         0         0
         0         0         0         0         0         0         0         0
         0         0         0         0         0         0         0         0
         0         0         0         0         0         0         0         0
         0         0         0         0         0         0         0         0
         0         0         0         0         0         0         0         0
         0         0         0         0         0         0         0         0
         0         0         0         0         0         0         0         0
         0         0         0         0         0         0         0         0
         0         0         0         0         0         0         0         0
         0         0         0         0         0         0         0         0
         0         0         0         0         0         0         0         0
         0         0         0         0         0         0         0         0
         0         0         0         0         0         0         0         0
         0         0         0         0         0         0         0         0
         0         0         0         0         0         0         0         0
         0         0         0         0         0         0         0         0
         0         0         0         0         0         0         0         0
         0         0         0         0         0         0         0         0
         0         0         0         0         0         0         0         0
         0         0         0         0         0         0         0         0
         0         0         0         0         0         0         0         0
         0         0         0         0         0         0         0         0
         0         0         0         0         0         0         0         0
         0         0         0         0         0         0         0         0
         0         0         0         0         0         0         0         0
         0         0         0         0         0         0         0         0
         0         0         0         0         0         0         0         0
         0         0         0         0         0         0         0         0
         0         0         0         0         0         0         0         0
         0         0         0         0         0         0         0         0
         0         0         0         0         0         0         0         0
         0         0         0         0         0         0         0         0
         0         0         0         0         0         0         0         0
         0         0         0         0         0         0         0         0
         0         0         0         0         0         0         0         0
         0         0         0         0         0         0         0         0
         0         0         0         0         0         0         0         0
         0         0         0         0         0         0         0         0
         0         0         0         0         0         0         0         0
         0         0         0         0         0         0         0         0
         0         0         0         0         0         0         0         0
         0         0         0         0         0         0         0         0
         0         0         0         0         0         0         0         0
         0         0         0         0         0         0         0         0
         0         0         0         0         0         0         0         0
         0         0         0         0         0         0         0         0
         0         0         0         0         0         0         0         0
         0         0         0         0         0         0         0         0
         0         0         0         0         0         0         0         0
         0         0         0         0         0         0         0         0
         0         0         0         0         0         0         0         0
         0         0         0         0         0         0         0         0
         0         0         0         0         0         0         0         0
         0         0         0         0         0         0         0         0
         0         0         0         0         0         0         0         0
         0         0         0         0         0         0         0         0
         0         0         0         0         0         0         0         0
         0         0         0         0         0         0         0         0
         0         0         0         0         0         0         0         0
         0         0         0         0         0         0         0         0
         0         0         0         0         0         0         0         0
         0         0         0         0         0         0         0         0
         0         0         0         0         0         0         0         0
         0         0         0         0         0         0         0         0
         0         0         0         0         0         0         0         0
         0         0         0         0         0         0         0         0
         0         0         0         0         0         0         0         0
         0         0         0         0         0         0         0         0
         0         0         0         0         0         0         0         0
         0         0         0         0         0         0         0         0
         0         0         0         0         0         0         0         0
         0         0         0         0         0         0         0         0
         0         0         0         0         0         0         0         0
         0         0         0         0         0         0         0         0
         0         0         0         0         0         0         0         0
         0         0         0         0         0         0         0         0
         0         0         0         0         0         0         0         0
         0         0         0         0         0         0         0         0
         0         0         0         0         0         0         0         0
         0         0         0         0         0         0         0         0
         0         0         0         0         0         0         0         0
         0         0         0         0         0         0         0         0
         0         0         0         0         0         0         0         0
         0         0         0         0         0         0         0         0
         0         0         0         0         0         0         0         0
         0         0         0         0         0         0         0         0
         0         0         0         0         0         0         0         0
         0         0         0         0         0         0         0         0
         0         0         0         0         0         0         0         0
         0         0         0         0         0         0         0         0
         0         0         0         0         0         0         0         0
         0         0         0         0         0         0         0         0
         0         0         0         0         0         0         0         0
         0         0         0         0         0         0         0         0
         0         0         0         0         0         0         0         0
         0         0         0         0         0         0         0         0
         0         0         0         0         0         0         0         0
         0         0         0         0         0         0         0         0
         0         0         0         0         0         0         0         0
         0         0         0         0         0         0         0         0
         0         0         0         0         0         0         0         0
         0         0         0         0         0         0         0         0
         0         0         0         0         0         0         0         0
         0         0         0         0         0         0         0         0
         0         0         0         0         0         0         0         0
         0         0         0         0         0         0         0         0
         0         0         0         0         0         0         0         0
         0         0         0         0         0         0         0         0
         0         0         0         0         0         0         0         0
         0         0         0         0         0         0         0         0
         0         0         0         0         0         0         0         0
         0         0         0         0         0         0         0         0
         0         0         0         0         0         0         0         0
         0         0         0         0         0         0         0         0
         0         0         0         0         0         0         0         0
         0         0         0         0         0         0         0         0
         0         0         0         0         0         0         0         0
         0         0         0         0         0         0         0         0
         0         0         0         0         0         0         0         0
         0         0         0         0         0         0         0         0
         0         0         0         0         0         0         0         0
         0         0         0         0         0         0         0         0
         0         0         0         0         0         0         0         0
         0         0         0         0         0         0         0         0
         0         0         0         0         0         0         0         0
         0         0         0         0         0         0         0         0
         0         0         0         0         0         0         0         0
         0         0         0         0         0         0         0         0
         0         0         0         0         0         0         0         0
         0         0         0         0         0         0         0         0
         0         0         0         0         0         0         0         0
         0         0         0         0         0         0         0         0
         0         0         0         0         0         0         0         0
         0         0         0         0         0         0         0         0
         0         0         0         0         0         0         0         0
         0         0         0         0         0         0         0         0
         0         0         0         0         0         0         0         0
         0         0         0         0         0         0         0         0
         0         0         0         0         0         0         0         0
         0         0         0         0         0         0         0         0
         0         0         0         0         0         0         0         0
         0         0         0         0         0         0         0         0
         0         0         0         0         0         0         0         0
         0         0         0         0         0         0         0         0
         0         0         0         0         0         0         0         0
         0         0         0         0         0         0         0         0
         0         0         0         0         0         0         0         0
         0         0         0         0         0         0         0         0
         0         0         0         0         0         0         0         0
         0         0         0         0         0         0         0         0
         0         0         0         0         0         0         0         0
         0         0         0         0         0         0         0         0
         0         0         0         0         0         0         0         0
         0         0         0         0         0         0         0         0
         0         0         0         0         0         0         0         0
         0         0         0         0         0         0         0         0
         0         0         0         0         0         0         0         0
         0         0         0         0         0         0         0         0
         0         0         0         0         0         0         0         0
         0         0         0         0         0         0         0         0
         0         0         0         0         0         0         0         0
         0         0         0         0         0         0         0         0
         0         0         0         0         0         0         0         0
         0         0         0         0         0         0         0         0
         0         0         0         0         0         0         0         0
         0         0         0         0         0         0         0         0
         0         0         0         0         0         0         0         0
         0         0         0         0         0         0         0         0
         0         0         0         0         0         0         0         0
         0         0         0         0         0         0         0         0
         0         0         0         0         0         0         0         0
         0         0         0         0         0         0         0         0
         0         0         0         0         0         0         0         0
         0         0         0         0         0         0         0         0
         0         0         0         0         0         0         0         0
         0         0         0         0         0         0         0         0
         0         0         0         0         0         0         0         0
         0         0         0         0         0         0         0         0
         0         0         0         0         0         0         0         0
         0         0         0         0         0         0         0         0
         0         0         0         0         0         0         0         0
         0         0         0         0         0         0         0         0
         0         0         0         0         0         0         0         0
         0         0         0         0         0         0         0         0
         0         0         0         0         0         0         0         0
         0         0         0         0         0         0         0         0
         0         0         0         0         0         0         0         0
         0         0         0         0         0         0         0         0
         0         0         0         0         0         0         0         0
         0         0         0         0         0         0         0         0
         0         0         0         0         0         0         0         0
         0         0         0         0         0         0         0         0
         0         0         0         0         0         0         0         0
         0         0         0         0         0         0         0         0
         0         0         0         0         0         0         0         0
         0         0         0         0         0         0         0         0
         0         0         0         0         0         0         0         0
         0         0         0         0         0         0         0         0
         0         0         0         0         0         0         0         0
         0         0         0         0         0         0         0         0
         0         0         0         0         0         0         0         0
         0         0         0         0         0         0         0         0
         0         0         0         0         0         0         0         0
         0         0         0         0         0         0         0         0
         0         0         0         0         0         0         0         0
         0         0         0         0         0         0         0         0
         0         0         0         0         0         0         0         0
         0         0         0         0         0         0         0         0
         0         0         0         0         0         0         0         0
         0         0         0         0         0         0         0         0
         0         0         0         0         0         0         0         0
         0         0         0         0         0         0         0         0
         0         0         0         0         0         0         0         0
         0         0         0         0         0         0         0         0
         0         0         0         0         0         0         0         0
         0         0         0         0         0         0         0         0
         0         0         0         0         0         0         0         0
         0         0         0         0         0         0         0         0
         0         0         0         0         0         0         0         0
         0         0         0         0         0         0         0         0
         0         0         0         0         0         0         0         0
         0         0         0         0         0         0         0         0
         0         0         0         0         0         0         0         0
         0         0         0         0         0         0         0         0
         0         0         0         0         0         0         0         0
         0         0         0         0         0         0         0         0
         0         0         0         0         0         0         0         0
         0         0         0         0         0         0         0         0
         0         0         0         0         0         0         0         0
         0         0         0         0         0         0         0         0
         0         0         0         0         0         0         0         0
         0         0         0         0         0         0         0         0
         0         0         0         0         0         0         0         0
         0         0         0         0         0         0         0         0
         0         0         0         0         0         0         0         0
         0         0         0         0         0         0         0         0
         0         0         0         0         0         0         0         0
         0         0         0         0         0         0         0         0
         0         0         0         0         0         0         0         0
         0         0         0         0         0         0         0         0
         0         0         0         0         0         0         0         0
         0         0         0         0         0         0         0         0
         0         0         0         0         0         0         0         0
         0         0         0         0         0         0         0         0
         0         0         0         0         0         0         0         0
         0         0         0         0         0         0         0         0
         0         0         0         0         0         0         0         0
         0         0         0         0         0         0         0         0
         0         0         0         0         0         0         0         0
         0         0         0         0         0         0         0         0
         0         0         0         0         0         0         0         0
         0         0         0         0         0         0         0         0
         0         0         0         0         0         0         0         0
         0         0         0         0         0         0         0         0
         0         0         0         0         0         0         0         0
         0         0         0

     13340         0 !NGRP NST2
         0         2         0         4         1         0        13         2         0
        20         1         0        28         1         0        32         1         0
        36         2         0        46         1         0        54         1         0
        58         1         0        66         1         0        69         1         0
        72         1         0        75         1         0        78         1         0
        81         1         0        84         1         0        87         1         0
        90         1         0        93         1         0        96         1         0
        99         1         0       103         1         0       106         1         0
       109         1         0       112         1         0       115         1         0
       118         1         0       121         1         0       124         1         0
       127         1         0       130         1         0       133         1         0
       137         1         0       139         1         0       142         1         0
       150         1         0       153         1         0       156         1         0
       159         1         0       162         1         0       165         1         0
       168         1         0       171         1         0       174         1         0
       177         1         0       181         1         0       184         1         0
       187         1         0       190         1         0       193         1         0
       196         1         0       199         1         0       202         1         0
       205         1         0       208         1         0       211         1         0
       215         1         0       219         1         0       222         1         0
       225         1         0       228         1         0       231         1         0
       234         1         0       237         1         0       240         1         0
       243         1         0       246         1         0       249         1         0
       253         1         0       255         1         0       258         1         0
       262         1         0       265         1         0       268         1         0
       271         1         0       274         1         0       277         1         0
       280         1         0       283         1         0       286         1         0
       289         1         0       292         1         0       296         2         0
       303         1         0       306         2         0       309         2         0
       312         1         0       316         1         0       321         2         0
       328         1         0       331         1         0       335         1         0
       339         1         0       343         1         0       348         2         0
       353         1         0       357         2         0       360         2         0
       367         1         0       371         1         0       376         2         0
       381         1         0       385         2         0       388         2         0
       395         1         0       399         2         0       403         2         0
       408         1         0       412         1         0       416         1         0
       420         1         0       424         1         0       429         2         0
       434         1         0       438         2         0       441         1         0
       445         1         0       450         2         0       455         2         0
       458         2         0       461         1         0       465         1         0
       470         2         0       475         2         0       478         1         0
       482         1         0       486         1         0       491         2         0
       496         1         0       500         1         0       504         1         0
       508         1         0       513         2         0       518         1         0
       522         2         0       525         1         0       529         1         0
       534         2         0       539         1         0       543         1         0
       545         1         0       549         2         0       552         1         0
       556         1         0       561         2         0       566         2         0
       569         1         0       573         1         0       577         1         0
       582         2         0       587         2         0       590         1         0
       594         1         0       598         1         0       602         2         0
       607         2         0       610         2         0       613         1         0
       617         1         0       621         2         0       626         1         0
       630         1         0       632         1         0       636         1         0
       640         1         0       644         1         0       649         2         0
       654         1         0       658         1         0       660         1         0
       664         2         0       667         1         0       671         1         0
       676         2         0       681         2         0       684         1         0
       688         1         0       692         1         0       697         2         0
       702         2         0       705         1         0       709         1         0
       713         1         0       717         2         0       722         2         0
       725         2         0       728         1         0       732         1         0
       736         2         0       741         1         0       745         1         0
       747         1         0       751         1         0       755         1         0
       759         1         0       764         2         0       769         1         0
       773         1         0       775         1         0       779         2         0
       782         1         0       786         1         0       791         2         0
       796         2         0       799         1         0       803         1         0
       807         1         0       812         2         0       817         2         0
       820         1         0       824         1         0       828         1         0
       832         2         0       837         2         0       840         2         0
       843         1         0       847         1         0       851         2         0
       856         1         0       860         1         0       862         1         0
       866         1         0       870         1         0       874         1         0
       879         2         0       884         1         0       888         1         0
       890         1         0       894         2         0       897         1         0
       901         1         0       906         2         0       911         2         0
       914         1         0       918         1         0       922         1         0
       927         2         0       932         2         0       935         1         0
       939         1         0       943         1         0       947         2         0
       952         2         0       955         2         0       958         1         0
       962         1         0       966         2         0       971         1         0
       975         1         0       977         1         0       981         1         0
       985         1         0       989         1         0       994         2         0
       999         1         0      1003         1         0      1005         1         0
      1009         2         0      1012         1         0      1016         1         0
      1021         2         0      1026         2         0      1029         1         0
      1033         1         0      1037         1         0      1042         2         0
      1047         2         0      1050         1         0      1054         1         0
      1058         1         0      1062         2         0      1067         2         0
      1070         1         0      1074         1         0      1078         1         0
      1082         2         0      1087         1         0      1091         1         0
      1093         1         0      1097         1         0      1101         1         0
      1105         1         0      1110         2         0      1114         1         0
      1123         2         0      1130         1         0      1138         1         0
      1142         1         0      1146         2         0      1156         1         0
      1164         1         0      1168         1         0      1176         1         0
      1179         1         0      1182         1         0      1185         1         0
      1188         1         0      1191         1         0      1194         1         0
      1197         1         0      1200         1         0      1203         1         0
      1206         1         0      1209         1         0      1213         1         0
      1216         1         0      1219         1         0      1222         1         0
      1225         1         0      1228         1         0      1231         1         0
      1234         1         0      1237         1         0      1240         1         0
      1243         1         0      1247         1         0      1249         1         0
      1252         1         0      1260         1         0      1263         1         0
      1266         1         0      1269         1         0      1272         1         0
      1275         1         0      1278         1         0      1281         1         0
      1284         1         0      1287         1         0      1291         1         0
      1294         1         0      1297         1         0      1300         1         0
      1303         1         0      1306         1         0      1309         1         0
      1312         1         0      1315         1         0      1318         1         0
      1321         1         0      1325         1         0      1329         1         0
      1332         1         0      1335         1         0      1338         1         0
      1341         1         0      1344         1         0      1347         1         0
      1350         1         0      1353         1         0      1356         1         0
      1359         1         0      1363         1         0      1365         1         0
      1368         1         0      1372         1         0      1375         1         0
      1378         1         0      1381         1         0      1384         1         0
      1387         1         0      1390         1         0      1393         1         0
      1396         1         0      1399         1         0      1402         1         0
      1406         2         0      1413         1         0      1416         2         0
      1419         2         0      1422         1         0      1426         1         0
      1431         2         0      1438         1         0      1441         1         0
      1445         1         0      1449         1         0      1453         1         0
      1458         2         0      1463         1         0      1467         2         0
      1470         2         0      1477         1         0      1481         1         0
      1486         2         0      1491         1         0      1495         2         0
      1498         2         0      1505         1         0      1509         2         0
      1513         2         0      1518         1         0      1522         1         0
      1526         1         0      1530         1         0      1534         1         0
      1539         2         0      1544         1         0      1548         2         0
      1551         1         0      1555         1         0      1560         2         0
      1565         2         0      1568         2         0      1571         1         0
      1575         1         0      1580         2         0      1585         2         0
      1588         1         0      1592         1         0      1596         1         0
      1601         2         0      1606         1         0      1610         1         0
      1614         1         0      1618         1         0      1623         2         0
      1628         1         0      1632         2         0      1635         1         0
      1639         1         0      1644         2         0      1649         1         0
      1653         1         0      1655         1         0      1659         2         0
      1662         1         0      1666         1         0      1671         2         0
      1676         2         0      1679         1         0      1683         1         0
      1687         1         0      1692         2         0      1697         2         0
      1700         1         0      1704         1         0      1708         1         0
      1712         2         0      1717         2         0      1720         2         0
      1723         1         0      1727         1         0      1731         2         0
      1736         1         0      1740         1         0      1742         1         0
      1746         1         0      1750         1         0      1754         1         0
      1759         2         0      1764         1         0      1768         1         0
      1770         1         0      1774         2         0      1777         1         0
      1781         1         0      1786         2         0      1791         2         0
      1794         1         0      1798         1         0      1802         1         0
      1807         2         0      1812         2         0      1815         1         0
      1819         1         0      1823         1         0      1827         2         0
      1832         2         0      1835         2         0      1838         1         0
      1842         1         0      1846         2         0      1851         1         0
      1855         1         0      1857         1         0      1861         1         0
      1865         1         0      1869         1         0      1874         2         0
      1879         1         0      1883         1         0      1885         1         0
      1889         2         0      1892         1         0      1896         1         0
      1901         2         0      1906         2         0      1909         1         0
      1913         1         0      1917         1         0      1922         2         0
      1927         2         0      1930         1         0      1934         1         0
      1938         1         0      1942         2         0      1947         2         0
      1950         2         0      1953         1         0      1957         1         0
      1961         2         0      1966         1         0      1970         1         0
      1972         1         0      1976         1         0      1980         1         0
      1984         1         0      1989         2         0      1994         1         0
      1998         1         0      2000         1         0      2004         2         0
      2007         1         0      2011         1         0      2016         2         0
      2021         2         0      2024         1         0      2028         1         0
      2032         1         0      2037         2         0      2042         2         0
      2045         1         0      2049         1         0      2053         1         0
      2057         2         0      2062         2         0      2065         2         0
      2068         1         0      2072         1         0      2076         2         0
      2081         1         0      2085         1         0      2087         1         0
      2091         1         0      2095         1         0      2099         1         0
      2104         2         0      2109         1         0      2113         1         0
      2115         1         0      2119         2         0      2122         1         0
      2126         1         0      2131         2         0      2136         2         0
      2139         1         0      2143         1         0      2147         1         0
      2152         2         0      2157         2         0      2160         1         0
      2164         1         0      2168         1         0      2172         2         0
      2177         2         0      2180         1         0      2184         1         0
      2188         1         0      2192         2         0      2197         1         0
      2201         1         0      2203         1         0      2207         1         0
      2211         1         0      2215         1         0      2220         2         0
      2224         1         0      2233         2         0      2240         1         0
      2248         1         0      2252         1         0      2256         2         0
      2266         1         0      2274         1         0      2278         1         0
      2286         1         0      2289         1         0      2292         1         0
      2295         1         0      2298         1         0      2301         1         0
      2304         1         0      2307         1         0      2310         1         0
      2313         1         0      2316         1         0      2319         1         0
      2323         1         0      2326         1         0      2329         1         0
      2332         1         0      2335         1         0      2338         1         0
      2341         1         0      2344         1         0      2347         1         0
      2350         1         0      2353         1         0      2357         1         0
      2359         1         0      2362         1         0      2370         1         0
      2373         1         0      2376         1         0      2379         1         0
      2382         1         0      2385         1         0      2388         1         0
      2391         1         0      2394         1         0      2397         1         0
      2401         1         0      2404         1         0      2407         1         0
      2410         1         0      2413         1         0      2416         1         0
      2419         1         0      2422         1         0      2425         1         0
      2428         1         0      2431         1         0      2435         1         0
      2439         1         0      2442         1         0      2445         1         0
      2448         1         0      2451         1         0      2454         1         0
      2457         1         0      2460         1         0      2463         1         0
      2466         1         0      2469         1         0      2473         1         0
      2475         1         0      2478         1         0      2482         1         0
      2485         1         0      2488         1         0      2491         1         0
      2494         1         0      2497         1         0      2500         1         0
      2503         1         0      2506         1         0      2509         1         0
      2512         1         0      2516         2         0      2523         1         0
      2526         2         0      2529         2         0      2532         1         0
      2536         1         0      2541         2         0      2548         1         0
      2551         1         0      2555         1         0      2559         1         0
      2563         1         0      2568         2         0      2573         1         0
      2577         2         0      2580         2         0      2587         1         0
      2591         1         0      2596         2         0      2601         1         0
      2605         2         0      2608         2         0      2615         1         0
      2619         2         0      2623         2         0      2628         1         0
      2632         1         0      2636         1         0      2640         1         0
      2644         1         0      2649         2         0      2654         1         0
      2658         2         0      2661         1         0      2665         1         0
      2670         2         0      2675         2         0      2678         2         0
      2681         1         0      2685         1         0      2690         2         0
      2695         2         0      2698         1         0      2702         1         0
      2706         1         0      2711         2         0      2716         1         0
      2720         1         0      2724         1         0      2728         1         0
      2733         2         0      2738         1         0      2742         2         0
      2745         1         0      2749         1         0      2754         2         0
      2759         1         0      2763         1         0      2765         1         0
      2769         2         0      2772         1         0      2776         1         0
      2781         2         0      2786         2         0      2789         1         0
      2793         1         0      2797         1         0      2802         2         0
      2807         2         0      2810         1         0      2814         1         0
      2818         1         0      2822         2         0      2827         2         0
      2830         2         0      2833         1         0      2837         1         0
      2841         2         0      2846         1         0      2850         1         0
      2852         1         0      2856         1         0      2860         1         0
      2864         1         0      2869         2         0      2874         1         0
      2878         1         0      2880         1         0      2884         2         0
      2887         1         0      2891         1         0      2896         2         0
      2901         2         0      2904         1         0      2908         1         0
      2912         1         0      2917         2         0      2922         2         0
      2925         1         0      2929         1         0      2933         1         0
      2937         2         0      2942         2         0      2945         2         0
      2948         1         0      2952         1         0      2956         2         0
      2961         1         0      2965         1         0      2967         1         0
      2971         1         0      2975         1         0      2979         1         0
      2984         2         0      2989         1         0      2993         1         0
      2995         1         0      2999         2         0      3002         1         0
      3006         1         0      3011         2         0      3016         2         0
      3019         1         0      3023         1         0      3027         1         0
      3032         2         0      3037         2         0      3040         1         0
      3044         1         0      3048         1         0      3052         2         0
      3057         2         0      3060         2         0      3063         1         0
      3067         1         0      3071         2         0      3076         1         0
      3080         1         0      3082         1         0      3086         1         0
      3090         1         0      3094         1         0      3099         2         0
      3104         1         0      3108         1         0      3110         1         0
      3114         2         0      3117         1         0      3121         1         0
      3126         2         0      3131         2         0      3134         1         0
      3138         1         0      3142         1         0      3147         2         0
      3152         2         0      3155         1         0      3159         1         0
      3163         1         0      3167         2         0      3172         2         0
      3175         2         0      3178         1         0      3182         1         0
      3186         2         0      3191         1         0      3195         1         0
      3197         1         0      3201         1         0      3205         1         0
      3209         1         0      3214         2         0      3219         1         0
      3223         1         0      3225         1         0      3229         2         0
      3232         1         0      3236         1         0      3241         2         0
      3246         2         0      3249         1         0      3253         1         0
      3257         1         0      3262         2         0      3267         2         0
      3270         1         0      3274         1         0      3278         1         0
      3282         2         0      3287         2         0      3290         1         0
      3294         1         0      3298         1         0      3302         2         0
      3307         1         0      3311         1         0      3313         1         0
      3317         1         0      3321         1         0      3325         1         0
      3330         2         0      3334         1         0      3343         2         0
      3350         1         0      3358         1         0      3362         1         0
      3366         2         0      3376         1         0      3384         1         0
      3388         1         0      3396         1         0      3399         1         0
      3402         1         0      3405         1         0      3408         1         0
      3411         1         0      3414         1         0      3417         1         0
      3420         1         0      3423         1         0      3426         1         0
      3429         1         0      3433         1         0      3436         1         0
      3439         1         0      3442         1         0      3445         1         0
      3448         1         0      3451         1         0      3454         1         0
      3457         1         0      3460         1         0      3463         1         0
      3467         1         0      3469         1         0      3472         1         0
      3480         1         0      3483         1         0      3486         1         0
      3489         1         0      3492         1         0      3495         1         0
      3498         1         0      3501         1         0      3504         1         0
      3507         1         0      3511         1         0      3514         1         0
      3517         1         0      3520         1         0      3523         1         0
      3526         1         0      3529         1         0      3532         1         0
      3535         1         0      3538         1         0      3541         1         0
      3545         1         0      3549         1         0      3552         1         0
      3555         1         0      3558         1         0      3561         1         0
      3564         1         0      3567         1         0      3570         1         0
      3573         1         0      3576         1         0      3579         1         0
      3583         1         0      3585         1         0      3588         1         0
      3592         1         0      3595         1         0      3598         1         0
      3601         1         0      3604         1         0      3607         1         0
      3610         1         0      3613         1         0      3616         1         0
      3619         1         0      3622         1         0      3626         2         0
      3633         1         0      3636         2         0      3639         2         0
      3642         1         0      3646         1         0      3651         2         0
      3658         1         0      3661         1         0      3665         1         0
      3669         1         0      3673         1         0      3678         2         0
      3683         1         0      3687         2         0      3690         2         0
      3697         1         0      3701         1         0      3706         2         0
      3711         1         0      3715         2         0      3718         2         0
      3725         1         0      3729         2         0      3733         2         0
      3738         1         0      3742         1         0      3746         1         0
      3750         1         0      3754         1         0      3759         2         0
      3764         1         0      3768         2         0      3771         1         0
      3775         1         0      3780         2         0      3785         2         0
      3788         2         0      3791         1         0      3795         1         0
      3800         2         0      3805         2         0      3808         1         0
      3812         1         0      3816         1         0      3821         2         0
      3826         1         0      3830         1         0      3834         1         0
      3838         1         0      3843         2         0      3848         1         0
      3852         2         0      3855         1         0      3859         1         0
      3864         2         0      3869         1         0      3873         1         0
      3875         1         0      3879         2         0      3882         1         0
      3886         1         0      3891         2         0      3896         2         0
      3899         1         0      3903         1         0      3907         1         0
      3912         2         0      3917         2         0      3920         1         0
      3924         1         0      3928         1         0      3932         2         0
      3937         2         0      3940         2         0      3943         1         0
      3947         1         0      3951         2         0      3956         1         0
      3960         1         0      3962         1         0      3966         1         0
      3970         1         0      3974         1         0      3979         2         0
      3984         1         0      3988         1         0      3990         1         0
      3994         2         0      3997         1         0      4001         1         0
      4006         2         0      4011         2         0      4014         1         0
      4018         1         0      4022         1         0      4027         2         0
      4032         2         0      4035         1         0      4039         1         0
      4043         1         0      4047         2         0      4052         2         0
      4055         2         0      4058         1         0      4062         1         0
      4066         2         0      4071         1         0      4075         1         0
      4077         1         0      4081         1         0      4085         1         0
      4089         1         0      4094         2         0      4099         1         0
      4103         1         0      4105         1         0      4109         2         0
      4112         1         0      4116         1         0      4121         2         0
      4126         2         0      4129         1         0      4133         1         0
      4137         1         0      4142         2         0      4147         2         0
      4150         1         0      4154         1         0      4158         1         0
      4162         2         0      4167         2         0      4170         2         0
      4173         1         0      4177         1         0      4181         2         0
      4186         1         0      4190         1         0      4192         1         0
      4196         1         0      4200         1         0      4204         1         0
      4209         2         0      4214         1         0      4218         1         0
      4220         1         0      4224         2         0      4227         1         0
      4231         1         0      4236         2         0      4241         2         0
      4244         1         0      4248         1         0      4252         1         0
      4257         2         0      4262         2         0      4265         1         0
      4269         1         0      4273         1         0      4277         2         0
      4282         2         0      4285         2         0      4288         1         0
      4292         1         0      4296         2         0      4301         1         0
      4305         1         0      4307         1         0      4311         1         0
      4315         1         0      4319         1         0      4324         2         0
      4329         1         0      4333         1         0      4335         1         0
      4339         2         0      4342         1         0      4346         1         0
      4351         2         0      4356         2         0      4359         1         0
      4363         1         0      4367         1         0      4372         2         0
      4377         2         0      4380         1         0      4384         1         0
      4388         1         0      4392         2         0      4397         2         0
      4400         1         0      4404         1         0      4408         1         0
      4412         2         0      4417         1         0      4421         1         0
      4423         1         0      4427         1         0      4431         1         0
      4435         1         0      4440         2         0      4444         1         0
      4453         2         0      4460         1         0      4468         1         0
      4472         1         0      4476         2         0      4486         1         0
      4494         1         0      4498         1         0      4506         1         0
      4509         1         0      4512         1         0      4515         1         0
      4518         1         0      4521         1         0      4524         1         0
      4527         1         0      4530         1         0      4533         1         0
      4536         1         0      4539         1         0      4543         1         0
      4546         1         0      4549         1         0      4552         1         0
      4555         1         0      4558         1         0      4561         1         0
      4564         1         0      4567         1         0      4570         1         0
      4573         1         0      4577         1         0      4579         1         0
      4582         1         0      4590         1         0      4593         1         0
      4596         1         0      4599         1         0      4602         1         0
      4605         1         0      4608         1         0      4611         1         0
      4614         1         0      4617         1         0      4621         1         0
      4624         1         0      4627         1         0      4630         1         0
      4633         1         0      4636         1         0      4639         1         0
      4642         1         0      4645         1         0      4648         1         0
      4651         1         0      4655         1         0      4659         1         0
      4662         1         0      4665         1         0      4668         1         0
      4671         1         0      4674         1         0      4677         1         0
      4680         1         0      4683         1         0      4686         1         0
      4689         1         0      4693         1         0      4695         1         0
      4698         1         0      4702         1         0      4705         1         0
      4708         1         0      4711         1         0      4714         1         0
      4717         1         0      4720         1         0      4723         1         0
      4726         1         0      4729         1         0      4732         1         0
      4736         2         0      4743         1         0      4746         2         0
      4749         2         0      4752         1         0      4756         1         0
      4761         2         0      4768         1         0      4771         1         0
      4775         1         0      4779         1         0      4783         1         0
      4788         2         0      4793         1         0      4797         2         0
      4800         2         0      4807         1         0      4811         1         0
      4816         2         0      4821         1         0      4825         2         0
      4828         2         0      4835         1         0      4839         2         0
      4843         2         0      4848         1         0      4852         1         0
      4856         1         0      4860         1         0      4864         1         0
      4869         2         0      4874         1         0      4878         2         0
      4881         1         0      4885         1         0      4890         2         0
      4895         2         0      4898         2         0      4901         1         0
      4905         1         0      4910         2         0      4915         2         0
      4918         1         0      4922         1         0      4926         1         0
      4931         2         0      4936         1         0      4940         1         0
      4944         1         0      4948         1         0      4953         2         0
      4958         1         0      4962         2         0      4965         1         0
      4969         1         0      4974         2         0      4979         1         0
      4983         1         0      4985         1         0      4989         2         0
      4992         1         0      4996         1         0      5001         2         0
      5006         2         0      5009         1         0      5013         1         0
      5017         1         0      5022         2         0      5027         2         0
      5030         1         0      5034         1         0      5038         1         0
      5042         2         0      5047         2         0      5050         2         0
      5053         1         0      5057         1         0      5061         2         0
      5066         1         0      5070         1         0      5072         1         0
      5076         1         0      5080         1         0      5084         1         0
      5089         2         0      5094         1         0      5098         1         0
      5100         1         0      5104         2         0      5107         1         0
      5111         1         0      5116         2         0      5121         2         0
      5124         1         0      5128         1         0      5132         1         0
      5137         2         0      5142         2         0      5145         1         0
      5149         1         0      5153         1         0      5157         2         0
      5162         2         0      5165         2         0      5168         1         0
      5172         1         0      5176         2         0      5181         1         0
      5185         1         0      5187         1         0      5191         1         0
      5195         1         0      5199         1         0      5204         2         0
      5209         1         0      5213         1         0      5215         1         0
      5219         2         0      5222         1         0      5226         1         0
      5231         2         0      5236         2         0      5239         1         0
      5243         1         0      5247         1         0      5252         2         0
      5257         2         0      5260         1         0      5264         1         0
      5268         1         0      5272         2         0      5277         2         0
      5280         2         0      5283         1         0      5287         1         0
      5291         2         0      5296         1         0      5300         1         0
      5302         1         0      5306         1         0      5310         1         0
      5314         1         0      5319         2         0      5324         1         0
      5328         1         0      5330         1         0      5334         2         0
      5337         1         0      5341         1         0      5346         2         0
      5351         2         0      5354         1         0      5358         1         0
      5362         1         0      5367         2         0      5372         2         0
      5375         1         0      5379         1         0      5383         1         0
      5387         2         0      5392         2         0      5395         2         0
      5398         1         0      5402         1         0      5406         2         0
      5411         1         0      5415         1         0      5417         1         0
      5421         1         0      5425         1         0      5429         1         0
      5434         2         0      5439         1         0      5443         1         0
      5445         1         0      5449         2         0      5452         1         0
      5456         1         0      5461         2         0      5466         2         0
      5469         1         0      5473         1         0      5477         1         0
      5482         2         0      5487         2         0      5490         1         0
      5494         1         0      5498         1         0      5502         2         0
      5507         2         0      5510         1         0      5514         1         0
      5518         1         0      5522         2         0      5527         1         0
      5531         1         0      5533         1         0      5537         1         0
      5541         1         0      5545         1         0      5550         2         0
      5554         1         0      5563         2         0      5570         1         0
      5578         1         0      5582         1         0      5586         2         0
      5596         1         0      5604         1         0      5608         1         0
      5616         1         0      5619         1         0      5622         1         0
      5625         1         0      5628         1         0      5631         1         0
      5634         1         0      5637         1         0      5640         1         0
      5643         1         0      5646         1         0      5649         1         0
      5653         1         0      5656         1         0      5659         1         0
      5662         1         0      5665         1         0      5668         1         0
      5671         1         0      5674         1         0      5677         1         0
      5680         1         0      5683         1         0      5687         1         0
      5689         1         0      5692         1         0      5700         1         0
      5703         1         0      5706         1         0      5709         1         0
      5712         1         0      5715         1         0      5718         1         0
      5721         1         0      5724         1         0      5727         1         0
      5731         1         0      5734         1         0      5737         1         0
      5740         1         0      5743         1         0      5746         1         0
      5749         1         0      5752         1         0      5755         1         0
      5758         1         0      5761         1         0      5765         1         0
      5769         1         0      5772         1         0      5775         1         0
      5778         1         0      5781         1         0      5784         1         0
      5787         1         0      5790         1         0      5793         1         0
      5796         1         0      5799         1         0      5803         1         0
      5805         1         0      5808         1         0      5812         1         0
      5815         1         0      5818         1         0      5821         1         0
      5824         1         0      5827         1         0      5830         1         0
      5833         1         0      5836         1         0      5839         1         0
      5842         1         0      5846         2         0      5853         1         0
      5856         2         0      5859         2         0      5862         1         0
      5866         1         0      5871         2         0      5878         1         0
      5881         1         0      5885         1         0      5889         1         0
      5893         1         0      5898         2         0      5903         1         0
      5907         2         0      5910         2         0      5917         1         0
      5921         1         0      5926         2         0      5931         1         0
      5935         2         0      5938         2         0      5945         1         0
      5949         2         0      5953         2         0      5958         1         0
      5962         1         0      5966         1         0      5970         1         0
      5974         1         0      5979         2         0      5984         1         0
      5988         2         0      5991         1         0      5995         1         0
      6000         2         0      6005         2         0      6008         2         0
      6011         1         0      6015         1         0      6020         2         0
      6025         2         0      6028         1         0      6032         1         0
      6036         1         0      6041         2         0      6046         1         0
      6050         1         0      6054         1         0      6058         1         0
      6063         2         0      6068         1         0      6072         2         0
      6075         1         0      6079         1         0      6084         2         0
      6089         1         0      6093         1         0      6095         1         0
      6099         2         0      6102         1         0      6106         1         0
      6111         2         0      6116         2         0      6119         1         0
      6123         1         0      6127         1         0      6132         2         0
      6137         2         0      6140         1         0      6144         1         0
      6148         1         0      6152         2         0      6157         2         0
      6160         2         0      6163         1         0      6167         1         0
      6171         2         0      6176         1         0      6180         1         0
      6182         1         0      6186         1         0      6190         1         0
      6194         1         0      6199         2         0      6204         1         0
      6208         1         0      6210         1         0      6214         2         0
      6217         1         0      6221         1         0      6226         2         0
      6231         2         0      6234         1         0      6238         1         0
      6242         1         0      6247         2         0      6252         2         0
      6255         1         0      6259         1         0      6263         1         0
      6267         2         0      6272         2         0      6275         2         0
      6278         1         0      6282         1         0      6286         2         0
      6291         1         0      6295         1         0      6297         1         0
      6301         1         0      6305         1         0      6309         1         0
      6314         2         0      6319         1         0      6323         1         0
      6325         1         0      6329         2         0      6332         1         0
      6336         1         0      6341         2         0      6346         2         0
      6349         1         0      6353         1         0      6357         1         0
      6362         2         0      6367         2         0      6370         1         0
      6374         1         0      6378         1         0      6382         2         0
      6387         2         0      6390         2         0      6393         1         0
      6397         1         0      6401         2         0      6406         1         0
      6410         1         0      6412         1         0      6416         1         0
      6420         1         0      6424         1         0      6429         2         0
      6434         1         0      6438         1         0      6440         1         0
      6444         2         0      6447         1         0      6451         1         0
      6456         2         0      6461         2         0      6464         1         0
      6468         1         0      6472         1         0      6477         2         0
      6482         2         0      6485         1         0      6489         1         0
      6493         1         0      6497         2         0      6502         2         0
      6505         2         0      6508         1         0      6512         1         0
      6516         2         0      6521         1         0      6525         1         0
      6527         1         0      6531         1         0      6535         1         0
      6539         1         0      6544         2         0      6549         1         0
      6553         1         0      6555         1         0      6559         2         0
      6562         1         0      6566         1         0      6571         2         0
      6576         2         0      6579         1         0      6583         1         0
      6587         1         0      6592         2         0      6597         2         0
      6600         1         0      6604         1         0      6608         1         0
      6612         2         0      6617         2         0      6620         1         0
      6624         1         0      6628         1         0      6632         2         0
      6637         1         0      6641         1         0      6643         1         0
      6647         1         0      6651         1         0      6655         1         0
      6660         2         0      6664         1         0      6673         2         0
      6680         1         0      6688         1         0      6692         1         0
      6696         2         0      6706         1         0      6714         1         0
      6718         1         0      6726         1         0      6729         1         0
      6732         1         0      6735         1         0      6738         1         0
      6741         1         0      6744         1         0      6747         1         0
      6750         1         0      6753         1         0      6756         1         0
      6759         1         0      6763         1         0      6766         1         0
      6769         1         0      6772         1         0      6775         1         0
      6778         1         0      6781         1         0      6784         1         0
      6787         1         0      6790         1         0      6793         1         0
      6797         1         0      6799         1         0      6802         1         0
      6810         1         0      6813         1         0      6816         1         0
      6819         1         0      6822         1         0      6825         1         0
      6828         1         0      6831         1         0      6834         1         0
      6837         1         0      6841         1         0      6844         1         0
      6847         1         0      6850         1         0      6853         1         0
      6856         1         0      6859         1         0      6862         1         0
      6865         1         0      6868         1         0      6871         1         0
      6875         1         0      6879         1         0      6882         1         0
      6885         1         0      6888         1         0      6891         1         0
      6894         1         0      6897         1         0      6900         1         0
      6903         1         0      6906         1         0      6909         1         0
      6913         1         0      6915         1         0      6918         1         0
      6922         1         0      6925         1         0      6928         1         0
      6931         1         0      6934         1         0      6937         1         0
      6940         1         0      6943         1         0      6946         1         0
      6949         1         0      6952         1         0      6956         2         0
      6963         1         0      6966         2         0      6969         2         0
      6972         1         0      6976         1         0      6981         2         0
      6988         1         0      6991         1         0      6995         1         0
      6999         1         0      7003         1         0      7008         2         0
      7013         1         0      7017         2         0      7020         2         0
      7027         1         0      7031         1         0      7036         2         0
      7041         1         0      7045         2         0      7048         2         0
      7055         1         0      7059         2         0      7063         2         0
      7068         1         0      7072         1         0      7076         1         0
      7080         1         0      7084         1         0      7089         2         0
      7094         1         0      7098         2         0      7101         1         0
      7105         1         0      7110         2         0      7115         2         0
      7118         2         0      7121         1         0      7125         1         0
      7130         2         0      7135         2         0      7138         1         0
      7142         1         0      7146         1         0      7151         2         0
      7156         1         0      7160         1         0      7164         1         0
      7168         1         0      7173         2         0      7178         1         0
      7182         2         0      7185         1         0      7189         1         0
      7194         2         0      7199         1         0      7203         1         0
      7205         1         0      7209         2         0      7212         1         0
      7216         1         0      7221         2         0      7226         2         0
      7229         1         0      7233         1         0      7237         1         0
      7242         2         0      7247         2         0      7250         1         0
      7254         1         0      7258         1         0      7262         2         0
      7267         2         0      7270         2         0      7273         1         0
      7277         1         0      7281         2         0      7286         1         0
      7290         1         0      7292         1         0      7296         1         0
      7300         1         0      7304         1         0      7309         2         0
      7314         1         0      7318         1         0      7320         1         0
      7324         2         0      7327         1         0      7331         1         0
      7336         2         0      7341         2         0      7344         1         0
      7348         1         0      7352         1         0      7357         2         0
      7362         2         0      7365         1         0      7369         1         0
      7373         1         0      7377         2         0      7382         2         0
      7385         2         0      7388         1         0      7392         1         0
      7396         2         0      7401         1         0      7405         1         0
      7407         1         0      7411         1         0      7415         1         0
      7419         1         0      7424         2         0      7429         1         0
      7433         1         0      7435         1         0      7439         2         0
      7442         1         0      7446         1         0      7451         2         0
      7456         2         0      7459         1         0      7463         1         0
      7467         1         0      7472         2         0      7477         2         0
      7480         1         0      7484         1         0      7488         1         0
      7492         2         0      7497         2         0      7500         2         0
      7503         1         0      7507         1         0      7511         2         0
      7516         1         0      7520         1         0      7522         1         0
      7526         1         0      7530         1         0      7534         1         0
      7539         2         0      7544         1         0      7548         1         0
      7550         1         0      7554         2         0      7557         1         0
      7561         1         0      7566         2         0      7571         2         0
      7574         1         0      7578         1         0      7582         1         0
      7587         2         0      7592         2         0      7595         1         0
      7599         1         0      7603         1         0      7607         2         0
      7612         2         0      7615         2         0      7618         1         0
      7622         1         0      7626         2         0      7631         1         0
      7635         1         0      7637         1         0      7641         1         0
      7645         1         0      7649         1         0      7654         2         0
      7659         1         0      7663         1         0      7665         1         0
      7669         2         0      7672         1         0      7676         1         0
      7681         2         0      7686         2         0      7689         1         0
      7693         1         0      7697         1         0      7702         2         0
      7707         2         0      7710         1         0      7714         1         0
      7718         1         0      7722         2         0      7727         2         0
      7730         1         0      7734         1         0      7738         1         0
      7742         2         0      7747         1         0      7751         1         0
      7753         1         0      7757         1         0      7761         1         0
      7765         1         0      7770         2         0      7774         1         0
      7783         2         0      7790         1         0      7798         1         0
      7802         1         0      7806         2         0      7816         1         0
      7824         1         0      7828         1         0      7836         1         0
      7839         1         0      7842         1         0      7845         1         0
      7848         1         0      7851         1         0      7854         1         0
      7857         1         0      7860         1         0      7863         1         0
      7866         1         0      7869         1         0      7873         1         0
      7876         1         0      7879         1         0      7882         1         0
      7885         1         0      7888         1         0      7891         1         0
      7894         1         0      7897         1         0      7900         1         0
      7903         1         0      7907         1         0      7909         1         0
      7912         1         0      7920         1         0      7923         1         0
      7926         1         0      7929         1         0      7932         1         0
      7935         1         0      7938         1         0      7941         1         0
      7944         1         0      7947         1         0      7951         1         0
      7954         1         0      7957         1         0      7960         1         0
      7963         1         0      7966         1         0      7969         1         0
      7972         1         0      7975         1         0      7978         1         0
      7981         1         0      7985         1         0      7989         1         0
      7992         1         0      7995         1         0      7998         1         0
      8001         1         0      8004         1         0      8007         1         0
      8010         1         0      8013         1         0      8016         1         0
      8019         1         0      8023         1         0      8025         1         0
      8028         1         0      8032         1         0      8035         1         0
      8038         1         0      8041         1         0      8044         1         0
      8047         1         0      8050         1         0      8053         1         0
      8056         1         0      8059         1         0      8062         1         0
      8066         2         0      8073         1         0      8076         2         0
      8079         2         0      8082         1         0      8086         1         0
      8091         2         0      8098         1         0      8101         1         0
      8105         1         0      8109         1         0      8113         1         0
      8118         2         0      8123         1         0      8127         2         0
      8130         2         0      8137         1         0      8141         1         0
      8146         2         0      8151         1         0      8155         2         0
      8158         2         0      8165         1         0      8169         2         0
      8173         2         0      8178         1         0      8182         1         0
      8186         1         0      8190         1         0      8194         1         0
      8199         2         0      8204         1         0      8208         2         0
      8211         1         0      8215         1         0      8220         2         0
      8225         2         0      8228         2         0      8231         1         0
      8235         1         0      8240         2         0      8245         2         0
      8248         1         0      8252         1         0      8256         1         0
      8261         2         0      8266         1         0      8270         1         0
      8274         1         0      8278         1         0      8283         2         0
      8288         1         0      8292         2         0      8295         1         0
      8299         1         0      8304         2         0      8309         1         0
      8313         1         0      8315         1         0      8319         2         0
      8322         1         0      8326         1         0      8331         2         0
      8336         2         0      8339         1         0      8343         1         0
      8347         1         0      8352         2         0      8357         2         0
      8360         1         0      8364         1         0      8368         1         0
      8372         2         0      8377         2         0      8380         2         0
      8383         1         0      8387         1         0      8391         2         0
      8396         1         0      8400         1         0      8402         1         0
      8406         1         0      8410         1         0      8414         1         0
      8419         2         0      8424         1         0      8428         1         0
      8430         1         0      8434         2         0      8437         1         0
      8441         1         0      8446         2         0      8451         2         0
      8454         1         0      8458         1         0      8462         1         0
      8467         2         0      8472         2         0      8475         1         0
      8479         1         0      8483         1         0      8487         2         0
      8492         2         0      8495         2         0      8498         1         0
      8502         1         0      8506         2         0      8511         1         0
      8515         1         0      8517         1         0      8521         1         0
      8525         1         0      8529         1         0      8534         2         0
      8539         1         0      8543         1         0      8545         1         0
      8549         2         0      8552         1         0      8556         1         0
      8561         2         0      8566         2         0      8569         1         0
      8573         1         0      8577         1         0      8582         2         0
      8587         2         0      8590         1         0      8594         1         0
      8598         1         0      8602         2         0      8607         2         0
      8610         2         0      8613         1         0      8617         1         0
      8621         2         0      8626         1         0      8630         1         0
      8632         1         0      8636         1         0      8640         1         0
      8644         1         0      8649         2         0      8654         1         0
      8658         1         0      8660         1         0      8664         2         0
      8667         1         0      8671         1         0      8676         2         0
      8681         2         0      8684         1         0      8688         1         0
      8692         1         0      8697         2         0      8702         2         0
      8705         1         0      8709         1         0      8713         1         0
      8717         2         0      8722         2         0      8725         2         0
      8728         1         0      8732         1         0      8736         2         0
      8741         1         0      8745         1         0      8747         1         0
      8751         1         0      8755         1         0      8759         1         0
      8764         2         0      8769         1         0      8773         1         0
      8775         1         0      8779         2         0      8782         1         0
      8786         1         0      8791         2         0      8796         2         0
      8799         1         0      8803         1         0      8807         1         0
      8812         2         0      8817         2         0      8820         1         0
      8824         1         0      8828         1         0      8832         2         0
      8837         2         0      8840         1         0      8844         1         0
      8848         1         0      8852         2         0      8857         1         0
      8861         1         0      8863         1         0      8867         1         0
      8871         1         0      8875         1         0      8880         2         0
      8884         1         0      8893         2         0      8900         1         0
      8908         1         0      8912         1         0      8916         2         0
      8926         1         0      8934         1         0      8938         1         0
      8946         1         0      8949         1         0      8952         1         0
      8955         1         0      8958         1         0      8961         1         0
      8964         1         0      8967         1         0      8970         1         0
      8973         1         0      8976         1         0      8979         1         0
      8983         1         0      8986         1         0      8989         1         0
      8992         1         0      8995         1         0      8998         1         0
      9001         1         0      9004         1         0      9007         1         0
      9010         1         0      9013         1         0      9017         1         0
      9019         1         0      9022         1         0      9030         1         0
      9033         1         0      9036         1         0      9039         1         0
      9042         1         0      9045         1         0      9048         1         0
      9051         1         0      9054         1         0      9057         1         0
      9061         1         0      9064         1         0      9067         1         0
      9070         1         0      9073         1         0      9076         1         0
      9079         1         0      9082         1         0      9085         1         0
      9088         1         0      9091         1         0      9095         1         0
      9099         1         0      9102         1         0      9105         1         0
      9108         1         0      9111         1         0      9114         1         0
      9117         1         0      9120         1         0      9123         1         0
      9126         1         0      9129         1         0      9133         1         0
      9135         1         0      9138         1         0      9142         1         0
      9145         1         0      9148         1         0      9151         1         0
      9154         1         0      9157         1         0      9160         1         0
      9163         1         0      9166         1         0      9169         1         0
      9172         1         0      9176         2         0      9183         1         0
      9186         2         0      9189         2         0      9192         1         0
      9196         1         0      9201         2         0      9208         1         0
      9211         1         0      9215         1         0      9219         1         0
      9223         1         0      9228         2         0      9233         1         0
      9237         2         0      9240         2         0      9247         1         0
      9251         1         0      9256         2         0      9261         1         0
      9265         2         0      9268         2         0      9275         1         0
      9279         2         0      9283         2         0      9288         1         0
      9292         1         0      9296         1         0      9300         1         0
      9304         1         0      9309         2         0      9314         1         0
      9318         2         0      9321         1         0      9325         1         0
      9330         2         0      9335         2         0      9338         2         0
      9341         1         0      9345         1         0      9350         2         0
      9355         2         0      9358         1         0      9362         1         0
      9366         1         0      9371         2         0      9376         1         0
      9380         1         0      9384         1         0      9388         1         0
      9393         2         0      9398         1         0      9402         2         0
      9405         1         0      9409         1         0      9414         2         0
      9419         1         0      9423         1         0      9425         1         0
      9429         2         0      9432         1         0      9436         1         0
      9441         2         0      9446         2         0      9449         1         0
      9453         1         0      9457         1         0      9462         2         0
      9467         2         0      9470         1         0      9474         1         0
      9478         1         0      9482         2         0      9487         2         0
      9490         2         0      9493         1         0      9497         1         0
      9501         2         0      9506         1         0      9510         1         0
      9512         1         0      9516         1         0      9520         1         0
      9524         1         0      9529         2         0      9534         1         0
      9538         1         0      9540         1         0      9544         2         0
      9547         1         0      9551         1         0      9556         2         0
      9561         2         0      9564         1         0      9568         1         0
      9572         1         0      9577         2         0      9582         2         0
      9585         1         0      9589         1         0      9593         1         0
      9597         2         0      9602         2         0      9605         2         0
      9608         1         0      9612         1         0      9616         2         0
      9621         1         0      9625         1         0      9627         1         0
      9631         1         0      9635         1         0      9639         1         0
      9644         2         0      9649         1         0      9653         1         0
      9655         1         0      9659         2         0      9662         1         0
      9666         1         0      9671         2         0      9676         2         0
      9679         1         0      9683         1         0      9687         1         0
      9692         2         0      9697         2         0      9700         1         0
      9704         1         0      9708         1         0      9712         2         0
      9717         2         0      9720         2         0      9723         1         0
      9727         1         0      9731         2         0      9736         1         0
      9740         1         0      9742         1         0      9746         1         0
      9750         1         0      9754         1         0      9759         2         0
      9764         1         0      9768         1         0      9770         1         0
      9774         2         0      9777         1         0      9781         1         0
      9786         2         0      9791         2         0      9794         1         0
      9798         1         0      9802         1         0      9807         2         0
      9812         2         0      9815         1         0      9819         1         0
      9823         1         0      9827         2         0      9832         2         0
      9835         2         0      9838         1         0      9842         1         0
      9846         2         0      9851         1         0      9855         1         0
      9857         1         0      9861         1         0      9865         1         0
      9869         1         0      9874         2         0      9879         1         0
      9883         1         0      9885         1         0      9889         2         0
      9892         1         0      9896         1         0      9901         2         0
      9906         2         0      9909         1         0      9913         1         0
      9917         1         0      9922         2         0      9927         2         0
      9930         1         0      9934         1         0      9938         1         0
      9942         2         0      9947         2         0      9950         1         0
      9954         1         0      9958         1         0      9962         2         0
      9967         1         0      9971         1         0      9973         1         0
      9977         1         0      9981         1         0      9985         1         0
      9990         2         0      9994         1         0     10003         2         0
     10010         1         0     10018         1         0     10022         1         0
     10026         2         0     10036         1         0     10044         1         0
     10048         1         0     10056         1         0     10059         1         0
     10062         1         0     10065         1         0     10068         1         0
     10071         1         0     10074         1         0     10077         1         0
     10080         1         0     10083         1         0     10086         1         0
     10089         1         0     10093         1         0     10096         1         0
     10099         1         0     10102         1         0     10105         1         0
     10108         1         0     10111         1         0     10114         1         0
     10117         1         0     10120         1         0     10123         1         0
     10127         1         0     10129         1         0     10132         1         0
     10140         1         0     10143         1         0     10146         1         0
     10149         1         0     10152         1         0     10155         1         0
     10158         1         0     10161         1         0     10164         1         0
     10167         1         0     10171         1         0     10174         1         0
     10177         1         0     10180         1         0     10183         1         0
     10186         1         0     10189         1         0     10192         1         0
     10195         1         0     10198         1         0     10201         1         0
     10205         1         0     10209         1         0     10212         1         0
     10215         1         0     10218         1         0     10221         1         0
     10224         1         0     10227         1         0     10230         1         0
     10233         1         0     10236         1         0     10239         1         0
     10243         1         0     10245         1         0     10248         1         0
     10252         1         0     10255         1         0     10258         1         0
     10261         1         0     10264         1         0     10267         1         0
     10270         1         0     10273         1         0     10276         1         0
     10279         1         0     10282         1         0     10286         2         0
     10293         1         0     10296         2         0     10299         2         0
     10302         1         0     10306         1         0     10311         2         0
     10318         1         0     10321         1         0     10325         1         0
     10329         1         0     10333         1         0     10338         2         0
     10343         1         0     10347         2         0     10350         2         0
     10357         1         0     10361         1         0     10366         2         0
     10371         1         0     10375         2         0     10378         2         0
     10385         1         0     10389         2         0     10393         2         0
     10398         1         0     10402         1         0     10406         1         0
     10410         1         0     10414         1         0     10419         2         0
     10424         1         0     10428         2         0     10431         1         0
     10435         1         0     10440         2         0     10445         2         0
     10448         2         0     10451         1         0     10455         1         0
     10460         2         0     10465         2         0     10468         1         0
     10472         1         0     10476         1         0     10481         2         0
     10486         1         0     10490         1         0     10494         1         0
     10498         1         0     10503         2         0     10508         1         0
     10512         2         0     10515         1         0     10519         1         0
     10524         2         0     10529         1         0     10533         1         0
     10535         1         0     10539         2         0     10542         1         0
     10546         1         0     10551         2         0     10556         2         0
     10559         1         0     10563         1         0     10567         1         0
     10572         2         0     10577         2         0     10580         1         0
     10584         1         0     10588         1         0     10592         2         0
     10597         2         0     10600         2         0     10603         1         0
     10607         1         0     10611         2         0     10616         1         0
     10620         1         0     10622         1         0     10626         1         0
     10630         1         0     10634         1         0     10639         2         0
     10644         1         0     10648         1         0     10650         1         0
     10654         2         0     10657         1         0     10661         1         0
     10666         2         0     10671         2         0     10674         1         0
     10678         1         0     10682         1         0     10687         2         0
     10692         2         0     10695         1         0     10699         1         0
     10703         1         0     10707         2         0     10712         2         0
     10715         2         0     10718         1         0     10722         1         0
     10726         2         0     10731         1         0     10735         1         0
     10737         1         0     10741         1         0     10745         1         0
     10749         1         0     10754         2         0     10759         1         0
     10763         1         0     10765         1         0     10769         2         0
     10772         1         0     10776         1         0     10781         2         0
     10786         2         0     10789         1         0     10793         1         0
     10797         1         0     10802         2         0     10807         2         0
     10810         1         0     10814         1         0     10818         1         0
     10822         2         0     10827         2         0     10830         2         0
     10833         1         0     10837         1         0     10841         2         0
     10846         1         0     10850         1         0     10852         1         0
     10856         1         0     10860         1         0     10864         1         0
     10869         2         0     10874         1         0     10878         1         0
     10880         1         0     10884         2         0     10887         1         0
     10891         1         0     10896         2         0     10901         2         0
     10904         1         0     10908         1         0     10912         1         0
     10917         2         0     10922         2         0     10925         1         0
     10929         1         0     10933         1         0     10937         2         0
     10942         2         0     10945         2         0     10948         1         0
     10952         1         0     10956         2         0     10961         1         0
     10965         1         0     10967         1         0     10971         1         0
     10975         1         0     10979         1         0     10984         2         0
     10989         1         0     10993         1         0     10995         1         0
     10999         2         0     11002         1         0     11006         1         0
     11011         2         0     11016         2         0     11019         1         0
     11023         1         0     11027         1         0     11032         2         0
     11037         2         0     11040         1         0     11044         1         0
     11048         1         0     11052         2         0     11057         2         0
     11060         1         0     11064         1         0     11068         1         0
     11072         2         0     11077         1         0     11081         1         0
     11083         1         0     11087         1         0     11091         1         0
     11095         1         0     11100         2         0     11104         1         0
     11113         2         0     11120         1         0     11128         1         0
     11132         1         0     11136         2         0     11146         1         0
     11154         1         0     11158         1         0     11166         1         0
     11169         1         0     11172         1         0     11175         1         0
     11178         1         0     11181         1         0     11184         1         0
     11187         1         0     11190         1         0     11193         1         0
     11196         1         0     11199         1         0     11203         1         0
     11206         1         0     11209         1         0     11212         1         0
     11215         1         0     11218         1         0     11221         1         0
     11224         1         0     11227         1         0     11230         1         0
     11233         1         0     11237         1         0     11239         1         0
     11242         1         0     11250         1         0     11253         1         0
     11256         1         0     11259         1         0     11262         1         0
     11265         1         0     11268         1         0     11271         1         0
     11274         1         0     11277         1         0     11281         1         0
     11284         1         0     11287         1         0     11290         1         0
     11293         1         0     11296         1         0     11299         1         0
     11302         1         0     11305         1         0     11308         1         0
     11311         1         0     11315         1         0     11319         1         0
     11322         1         0     11325         1         0     11328         1         0
     11331         1         0     11334         1         0     11337         1         0
     11340         1         0     11343         1         0     11346         1         0
     11349         1         0     11353         1         0     11355         1         0
     11358         1         0     11362         1         0     11365         1         0
     11368         1         0     11371         1         0     11374         1         0
     11377         1         0     11380         1         0     11383         1         0
     11386         1         0     11389         1         0     11392         1         0
     11396         2         0     11403         1         0     11406         2         0
     11409         2         0     11412         1         0     11416         1         0
     11421         2         0     11428         1         0     11431         1         0
     11435         1         0     11439         1         0     11443         1         0
     11448         2         0     11453         1         0     11457         2         0
     11460         2         0     11467         1         0     11471         1         0
     11476         2         0     11481         1         0     11485         2         0
     11488         2         0     11495         1         0     11499         2         0
     11503         2         0     11508         1         0     11512         1         0
     11516         1         0     11520         1         0     11524         1         0
     11529         2         0     11534         1         0     11538         2         0
     11541         1         0     11545         1         0     11550         2         0
     11555         2         0     11558         2         0     11561         1         0
     11565         1         0     11570         2         0     11575         2         0
     11578         1         0     11582         1         0     11586         1         0
     11591         2         0     11596         1         0     11600         1         0
     11604         1         0     11608         1         0     11613         2         0
     11618         1         0     11622         2         0     11625         1         0
     11629         1         0     11634         2         0     11639         1         0
     11643         1         0     11645         1         0     11649         2         0
     11652         1         0     11656         1         0     11661         2         0
     11666         2         0     11669         1         0     11673         1         0
     11677         1         0     11682         2         0     11687         2         0
     11690         1         0     11694         1         0     11698         1         0
     11702         2         0     11707         2         0     11710         2         0
     11713         1         0     11717         1         0     11721         2         0
     11726         1         0     11730         1         0     11732         1         0
     11736         1         0     11740         1         0     11744         1         0
     11749         2         0     11754         1         0     11758         1         0
     11760         1         0     11764         2         0     11767         1         0
     11771         1         0     11776         2         0     11781         2         0
     11784         1         0     11788         1         0     11792         1         0
     11797         2         0     11802         2         0     11805         1         0
     11809         1         0     11813         1         0     11817         2         0
     11822         2         0     11825         2         0     11828         1         0
     11832         1         0     11836         2         0     11841         1         0
     11845         1         0     11847         1         0     11851         1         0
     11855         1         0     11859         1         0     11864         2         0
     11869         1         0     11873         1         0     11875         1         0
     11879         2         0     11882         1         0     11886         1         0
     11891         2         0     11896         2         0     11899         1         0
     11903         1         0     11907         1         0     11912         2         0
     11917         2         0     11920         1         0     11924         1         0
     11928         1         0     11932         2         0     11937         2         0
     11940         2         0     11943         1         0     11947         1         0
     11951         2         0     11956         1         0     11960         1         0
     11962         1         0     11966         1         0     11970         1         0
     11974         1         0     11979         2         0     11984         1         0
     11988         1         0     11990         1         0     11994         2         0
     11997         1         0     12001         1         0     12006         2         0
     12011         2         0     12014         1         0     12018         1         0
     12022         1         0     12027         2         0     12032         2         0
     12035         1         0     12039         1         0     12043         1         0
     12047         2         0     12052         2         0     12055         2         0
     12058         1         0     12062         1         0     12066         2         0
     12071         1         0     12075         1         0     12077         1         0
     12081         1         0     12085         1         0     12089         1         0
     12094         2         0     12099         1         0     12103         1         0
     12105         1         0     12109         2         0     12112         1         0
     12116         1         0     12121         2         0     12126         2         0
     12129         1         0     12133         1         0     12137         1         0
     12142         2         0     12147         2         0     12150         1         0
     12154         1         0     12158         1         0     12162         2         0
     12167         2         0     12170         1         0     12174         1         0
     12178         1         0     12182         2         0     12187         1         0
     12191         1         0     12193         1         0     12197         1         0
     12201         1         0     12205         1         0     12210         2         0
     12214         1         0     12223         2         0     12230         1         0
     12238         1         0     12242         1         0     12246         2         0
     12256         1         0     12264         1         0     12268         1         0
     12276         1         0     12279         1         0     12282         1         0
     12285         1         0     12288         1         0     12291         1         0
     12294         1         0     12297         1         0     12300         1         0
     12303         1         0     12306         1         0     12309         1         0
     12313         1         0     12316         1         0     12319         1         0
     12322         1         0     12325         1         0     12328         1         0
     12331         1         0     12334         1         0     12337         1         0
     12340         1         0     12343         1         0     12347         1         0
     12349         1         0     12352         1         0     12360         1         0
     12363         1         0     12366         1         0     12369         1         0
     12372         1         0     12375         1         0     12378         1         0
     12381         1         0     12384         1         0     12387         1         0
     12391         1         0     12394         1         0     12397         1         0
     12400         1         0     12403         1         0     12406         1         0
     12409         1         0     12412         1         0     12415         1         0
     12418         1         0     12421         1         0     12425         1         0
     12429         1         0     12432         1         0     12435         1         0
     12438         1         0     12441         1         0     12444         1         0
     12447         1         0     12450         1         0     12453         1         0
     12456         1         0     12459         1         0     12463         1         0
     12465         1         0     12468         1         0     12472         1         0
     12475         1         0     12478         1         0     12481         1         0
     12484         1         0     12487         1         0     12490         1         0
     12493         1         0     12496         1         0     12499         1         0
     12502         1         0     12506         2         0     12513         1         0
     12516         2         0     12519         2         0     12522         1         0
     12526         1         0     12531         2         0     12538         1         0
     12541         1         0     12545         1         0     12549         1         0
     12553         1         0     12558         2         0     12563         1         0
     12567         2         0     12570         2         0     12577         1         0
     12581         1         0     12586         2         0     12591         1         0
     12595         2         0     12598         2         0     12605         1         0
     12609         2         0     12613         2         0     12618         1         0
     12622         1         0     12626         1         0     12630         1         0
     12634         1         0     12639         2         0     12644         1         0
     12648         2         0     12651         1         0     12655         1         0
     12660         2         0     12665         2         0     12668         2         0
     12671         1         0     12675         1         0     12680         2         0
     12685         2         0     12688         1         0     12692         1         0
     12696         1         0     12701         2         0     12706         1         0
     12710         1         0     12714         1         0     12718         1         0
     12723         2         0     12728         1         0     12732         2         0
     12735         1         0     12739         1         0     12744         2         0
     12749         1         0     12753         1         0     12755         1         0
     12759         2         0     12762         1         0     12766         1         0
     12771         2         0     12776         2         0     12779         1         0
     12783         1         0     12787         1         0     12792         2         0
     12797         2         0     12800         1         0     12804         1         0
     12808         1         0     12812         2         0     12817         2         0
     12820         2         0     12823         1         0     12827         1         0
     12831         2         0     12836         1         0     12840         1         0
     12842         1         0     12846         1         0     12850         1         0
     12854         1         0     12859         2         0     12864         1         0
     12868         1         0     12870         1         0     12874         2         0
     12877         1         0     12881         1         0     12886         2         0
     12891         2         0     12894         1         0     12898         1         0
     12902         1         0     12907         2         0     12912         2         0
     12915         1         0     12919         1         0     12923         1         0
     12927         2         0     12932         2         0     12935         2         0
     12938         1         0     12942         1         0     12946         2         0
     12951         1         0     12955         1         0     12957         1         0
     12961         1         0     12965         1         0     12969         1         0
     12974         2         0     12979         1         0     12983         1         0
     12985         1         0     12989         2         0     12992         1         0
     12996         1         0     13001         2         0     13006         2         0
     13009         1         0     13013         1         0     13017         1         0
     13022         2         0     13027         2         0     13030         1         0
     13034         1         0     13038         1         0     13042         2         0
     13047         2         0     13050         2         0     13053         1         0
     13057         1         0     13061         2         0     13066         1         0
     13070         1         0     13072         1         0     13076         1         0
     13080         1         0     13084         1         0     13089         2         0
     13094         1         0     13098         1         0     13100         1         0
     13104         2         0     13107         1         0     13111         1         0
     13116         2         0     13121         2         0     13124         1         0
     13128         1         0     13132         1         0     13137         2         0
     13142         2         0     13145         1         0     13149         1         0
     13153         1         0     13157         2         0     13162         2         0
     13165         2         0     13168         1         0     13172         1         0
     13176         2         0     13181         1         0     13185         1         0
     13187         1         0     13191         1         0     13195         1         0
     13199         1         0     13204         2         0     13209         1         0
     13213         1         0     13215         1         0     13219         2         0
     13222         1         0     13226         1         0     13231         2         0
     13236         2         0     13239         1         0     13243         1         0
     13247         1         0     13252         2         0     13257         2         0
     13260         1         0     13264         1         0     13268         1         0
     13272         2         0     13277         2         0     13280         1         0
     13284         1         0     13288         1         0     13292         2         0
     13297         1         0     13301         1         0     13303         1         0
     13307         1         0     13311         1         0     13315         1         0
     13320         2         0     13324         1         0     13333         2         0
     13340         1         0     13348         1         0     13352         1         0
     13356         2         0     13366         1         0     13374         1         0
     13378         1         0     13386         1         0     13389         1         0
     13392         1         0     13395         1         0     13398         1         0
     13401         1         0     13404         1         0     13407         1         0
     13410         1         0     13413         1         0     13416         1         0
     13419         1         0     13423         1         0     13426         1         0
     13429         1         0     13432         1         0     13435         1         0
     13438         1         0     13441         1         0     13444         1         0
     13447         1         0     13450         1         0     13453         1         0
     13457         1         0     13459         1         0     13462         1         0
     13470         1         0     13473         1         0     13476         1         0
     13479         1         0     13482         1         0     13485         1         0
     13488         1         0     13491         1         0     13494         1         0
     13497         1         0     13501         1         0     13504         1         0
     13507         1         0     13510         1         0     13513         1         0
     13516         1         0     13519         1         0     13522         1         0
     13525         1         0     13528         1         0     13531         1         0
     13535         1         0     13539         1         0     13542         1         0
     13545         1         0     13548         1         0     13551         1         0
     13554         1         0     13557         1         0     13560         1         0
     13563         1         0     13566         1         0     13569         1         0
     13573         1         0     13575         1         0     13578         1         0
     13582         1         0     13585         1         0     13588         1         0
     13591         1         0     13594         1         0     13597         1         0
     13600         1         0     13603         1         0     13606         1         0
     13609         1         0     13612         1         0     13616         2         0
     13623         1         0     13626         2         0     13629         2         0
     13632         1         0     13636         1         0     13641         2         0
     13648         1         0     13651         1         0     13655         1         0
     13659         1         0     13663         1         0     13668         2         0
     13673         1         0     13677         2         0     13680         2         0
     13687         1         0     13691         1         0     13696         2         0
     13701         1         0     13705         2         0     13708         2         0
     13715         1         0     13719         2         0     13723         2         0
     13728         1         0     13732         1         0     13736         1         0
     13740         1         0     13744         1         0     13749         2         0
     13754         1         0     13758         2         0     13761         1         0
     13765         1         0     13770         2         0     13775         2         0
     13778         2         0     13781         1         0     13785         1         0
     13790         2         0     13795         2         0     13798         1         0
     13802         1         0     13806         1         0     13811         2         0
     13816         1         0     13820         1         0     13824         1         0
     13828         1         0     13833         2         0     13838         1         0
     13842         2         0     13845         1         0     13849         1         0
     13854         2         0     13859         1         0     13863         1         0
     13865         1         0     13869         2         0     13872         1         0
     13876         1         0     13881         2         0     13886         2         0
     13889         1         0     13893         1         0     13897         1         0
     13902         2         0     13907         2         0     13910         1         0
     13914         1         0     13918         1         0     13922         2         0
     13927         2         0     13930         2         0     13933         1         0
     13937         1         0     13941         2         0     13946         1         0
     13950         1         0     13952         1         0     13956         1         0
     13960         1         0     13964         1         0     13969         2         0
     13974         1         0     13978         1         0     13980         1         0
     13984         2         0     13987         1         0     13991         1         0
     13996         2         0     14001         2         0     14004         1         0
     14008         1         0     14012         1         0     14017         2         0
     14022         2         0     14025         1         0     14029         1         0
     14033         1         0     14037         2         0     14042         2         0
     14045         2         0     14048         1         0     14052         1         0
     14056         2         0     14061         1         0     14065         1         0
     14067         1         0     14071         1         0     14075         1         0
     14079         1         0     14084         2         0     14089         1         0
     14093         1         0     14095         1         0     14099         2         0
     14102         1         0     14106         1         0     14111         2         0
     14116         2         0     14119         1         0     14123         1         0
     14127         1         0     14132         2         0     14137         2         0
     14140         1         0     14144         1         0     14148         1         0
     14152         2         0     14157         2         0     14160         2         0
     14163         1         0     14167         1         0     14171         2         0
     14176         1         0     14180         1         0     14182         1         0
     14186         1         0     14190         1         0     14194         1         0
     14199         2         0     14204         1         0     14208         1         0
     14210         1         0     14214         2         0     14217         1         0
     14221         1         0     14226         2         0     14231         2         0
     14234         1         0     14238         1         0     14242         1         0
     14247         2         0     14252         2         0     14255         1         0
     14259         1         0     14263         1         0     14267         2         0
     14272         2         0     14275         2         0     14278         1         0
     14282         1         0     14286         2         0     14291         1         0
     14295         1         0     14297         1         0     14301         1         0
     14305         1         0     14309         1         0     14314         2         0
     14319         1         0     14323         1         0     14325         1         0
     14329         2         0     14332         1         0     14336         1         0
     14341         2         0     14346         2         0     14349         1         0
     14353         1         0     14357         1         0     14362         2         0
     14367         2         0     14370         1         0     14374         1         0
     14378         1         0     14382         2         0     14387         2         0
     14390         1         0     14394         1         0     14398         1         0
     14402         2         0     14407         1         0     14411         1         0
     14413         1         0     14417         1         0     14421         1         0
     14425         1         0     14430         2         0     14434         1         0
     14443         2         0     14450         1         0     14458         1         0
     14462         1         0     14466         2         0     14476         1         0
     14484         1         0     14488         1         0     14496         1         0
     14499         1         0     14502         1         0     14505         1         0
     14508         1         0     14511         1         0     14514         1         0
     14517         1         0     14520         1         0     14523         1         0
     14526         1         0     14529         1         0     14533         1         0
     14536         1         0     14539         1         0     14542         1         0
     14545         1         0     14548         1         0     14551         1         0
     14554         1         0     14557         1         0     14560         1         0
     14563         1         0     14567         1         0     14569         1         0
     14572         1         0     14580         1         0     14583         1         0
     14586         1         0     14589         1         0     14592         1         0
     14595         1         0     14598         1         0     14601         1         0
     14604         1         0     14607         1         0     14611         1         0
     14614         1         0     14617         1         0     14620         1         0
     14623         1         0     14626         1         0     14629         1         0
     14632         1         0     14635         1         0     14638         1         0
     14641         1         0     14645         1         0     14649         1         0
     14652         1         0     14655         1         0     14658         1         0
     14661         1         0     14664         1         0     14667         1         0
     14670         1         0     14673         1         0     14676         1         0
     14679         1         0     14683         1         0     14685         1         0
     14688         1         0     14692         1         0     14695         1         0
     14698         1         0     14701         1         0     14704         1         0
     14707         1         0     14710         1         0     14713         1         0
     14716         1         0     14719         1         0     14722         1         0
     14726         2         0     14733         1         0     14736         2         0
     14739         2         0     14742         1         0     14746         1         0
     14751         2         0     14758         1         0     14761         1         0
     14765         1         0     14769         1         0     14773         1         0
     14778         2         0     14783         1         0     14787         2         0
     14790         2         0     14797         1         0     14801         1         0
     14806         2         0     14811         1         0     14815         2         0
     14818         2         0     14825         1         0     14829         2         0
     14833         2         0     14838         1         0     14842         1         0
     14846         1         0     14850         1         0     14854         1         0
     14859         2         0     14864         1         0     14868         2         0
     14871         1         0     14875         1         0     14880         2         0
     14885         2         0     14888         2         0     14891         1         0
     14895         1         0     14900         2         0     14905         2         0
     14908         1         0     14912         1         0     14916         1         0
     14921         2         0     14926         1         0     14930         1         0
     14934         1         0     14938         1         0     14943         2         0
     14948         1         0     14952         2         0     14955         1         0
     14959         1         0     14964         2         0     14969         1         0
     14973         1         0     14975         1         0     14979         2         0
     14982         1         0     14986         1         0     14991         2         0
     14996         2         0     14999         1         0     15003         1         0
     15007         1         0     15012         2         0     15017         2         0
     15020         1         0     15024         1         0     15028         1         0
     15032         2         0     15037         2         0     15040         2         0
     15043         1         0     15047         1         0     15051         2         0
     15056         1         0     15060         1         0     15062         1         0
     15066         1         0     15070         1         0     15074         1         0
     15079         2         0     15084         1         0     15088         1         0
     15090         1         0     15094         2         0     15097         1         0
     15101         1         0     15106         2         0     15111         2         0
     15114         1         0     15118         1         0     15122         1         0
     15127         2         0     15132         2         0     15135         1         0
     15139         1         0     15143         1         0     15147         2         0
     15152         2         0     15155         2         0     15158         1         0
     15162         1         0     15166         2         0     15171         1         0
     15175         1         0     15177         1         0     15181         1         0
     15185         1         0     15189         1         0     15194         2         0
     15199         1         0     15203         1         0     15205         1         0
     15209         2         0     15212         1         0     15216         1         0
     15221         2         0     15226         2         0     15229         1         0
     15233         1         0     15237         1         0     15242         2         0
     15247         2         0     15250         1         0     15254         1         0
     15258         1         0     15262         2         0     15267         2         0
     15270         2         0     15273         1         0     15277         1         0
     15281         2         0     15286         1         0     15290         1         0
     15292         1         0     15296         1         0     15300         1         0
     15304         1         0     15309         2         0     15314         1         0
     15318         1         0     15320         1         0     15324         2         0
     15327         1         0     15331         1         0     15336         2         0
     15341         2         0     15344         1         0     15348         1         0
     15352         1         0     15357         2         0     15362         2         0
     15365         1         0     15369         1         0     15373         1         0
     15377         2         0     15382         2         0     15385         2         0
     15388         1         0     15392         1         0     15396         2         0
     15401         1         0     15405         1         0     15407         1         0
     15411         1         0     15415         1         0     15419         1         0
     15424         2         0     15429         1         0     15433         1         0
     15435         1         0     15439         2         0     15442         1         0
     15446         1         0     15451         2         0     15456         2         0
     15459         1         0     15463         1         0     15467         1         0
     15472         2         0     15477         2         0     15480         1         0
     15484         1         0     15488         1         0     15492         2         0
     15497         2         0     15500         1         0     15504         1         0
     15508         1         0     15512         2         0     15517         1         0
     15521         1         0     15523         1         0     15527         1         0
     15531         1         0     15535         1         0     15540         2         0
     15544         1         0     15553         2         0     15560         1         0
     15568         1         0     15572         1         0     15576         2         0
     15586         1         0     15594         1         0     15598         1         0
     15606         1         0     15609         1         0     15612         1         0
     15615         1         0     15618         1         0     15621         1         0
     15624         1         0     15627         1         0     15630         1         0
     15633         1         0     15636         1         0     15639         1         0
     15643         1         0     15646         1         0     15649         1         0
     15652         1         0     15655         1         0     15658         1         0
     15661         1         0     15664         1         0     15667         1         0
     15670         1         0     15673         1         0     15677         1         0
     15679         1         0     15682         1         0     15690         1         0
     15693         1         0     15696         1         0     15699         1         0
     15702         1         0     15705         1         0     15708         1         0
     15711         1         0     15714         1         0     15717         1         0
     15721         1         0     15724         1         0     15727         1         0
     15730         1         0     15733         1         0     15736         1         0
     15739         1         0     15742         1         0     15745         1         0
     15748         1         0     15751         1         0     15755         1         0
     15759         1         0     15762         1         0     15765         1         0
     15768         1         0     15771         1         0     15774         1         0
     15777         1         0     15780         1         0     15783         1         0
     15786         1         0     15789         1         0     15793         1         0
     15795         1         0     15798         1         0     15802         1         0
     15805         1         0     15808         1         0     15811         1         0
     15814         1         0     15817         1         0     15820         1         0
     15823         1         0     15826         1         0     15829         1         0
     15832         1         0     15836         2         0     15843         1         0
     15846         2         0     15849         2         0     15852         1         0
     15856         1         0     15861         2         0     15868         1         0
     15871         1         0     15875         1         0     15879         1         0
     15883         1         0     15888         2         0     15893         1         0
     15897         2         0     15900         2         0     15907         1         0
     15911         1         0     15916         2         0     15921         1         0
     15925         2         0     15928         2         0     15935         1         0
     15939         2         0     15943         2         0     15948         1         0
     15952         1         0     15956         1         0     15960         1         0
     15964         1         0     15969         2         0     15974         1         0
     15978         2         0     15981         1         0     15985         1         0
     15990         2         0     15995         2         0     15998         2         0
     16001         1         0     16005         1         0     16010         2         0
     16015         2         0     16018         1         0     16022         1         0
     16026         1         0     16031         2         0     16036         1         0
     16040         1         0     16044         1         0     16048         1         0
     16053         2         0     16058         1         0     16062         2         0
     16065         1         0     16069         1         0     16074         2         0
     16079         1         0     16083         1         0     16085         1         0
     16089         2         0     16092         1         0     16096         1         0
     16101         2         0     16106         2         0     16109         1         0
     16113         1         0     16117         1         0     16122         2         0
     16127         2         0     16130         1         0     16134         1         0
     16138         1         0     16142         2         0     16147         2         0
     16150         2         0     16153         1         0     16157         1         0
     16161         2         0     16166         1         0     16170         1         0
     16172         1         0     16176         1         0     16180         1         0
     16184         1         0     16189         2         0     16194         1         0
     16198         1         0     16200         1         0     16204         2         0
     16207         1         0     16211         1         0     16216         2         0
     16221         2         0     16224         1         0     16228         1         0
     16232         1         0     16237         2         0     16242         2         0
     16245         1         0     16249         1         0     16253         1         0
     16257         2         0     16262         2         0     16265         2         0
     16268         1         0     16272         1         0     16276         2         0
     16281         1         0     16285         1         0     16287         1         0
     16291         1         0     16295         1         0     16299         1         0
     16304         2         0     16309         1         0     16313         1         0
     16315         1         0     16319         2         0     16322         1         0
     16326         1         0     16331         2         0     16336         2         0
     16339         1         0     16343         1         0     16347         1         0
     16352         2         0     16357         2         0     16360         1         0
     16364         1         0     16368         1         0     16372         2         0
     16377         2         0     16380         2         0     16383         1         0
     16387         1         0     16391         2         0     16396         1         0
     16400         1         0     16402         1         0     16406         1         0
     16410         1         0     16414         1         0     16419         2         0
     16424         1         0     16428         1         0     16430         1         0
     16434         2         0     16437         1         0     16441         1         0
     16446         2         0     16451         2         0     16454         1         0
     16458         1         0     16462         1         0     16467         2         0
     16472         2         0     16475         1         0     16479         1         0
     16483         1         0     16487         2         0     16492         2         0
     16495         2         0     16498         1         0     16502         1         0
     16506         2         0     16511         1         0     16515         1         0
     16517         1         0     16521         1         0     16525         1         0
     16529         1         0     16534         2         0     16539         1         0
     16543         1         0     16545         1         0     16549         2         0
     16552         1         0     16556         1         0     16561         2         0
     16566         2         0     16569         1         0     16573         1         0
     16577         1         0     16582         2         0     16587         2         0
     16590         1         0     16594         1         0     16598         1         0
     16602         2         0     16607         2         0     16610         1         0
     16614         1         0     16618         1         0     16622         2         0
     16627         1         0     16631         1         0     16633         1         0
     16637         1         0     16641         1         0     16645         1         0
     16650         2         0     16654         1         0     16663         2         0
     16670         1         0     16678         1         0     16682         1         0
     16686         2         0     16696         1         0     16704         1         0
     16708         1         0     16716         1         0     16719         1         0
     16722         1         0     16725         1         0     16728         1         0
     16731         1         0     16734         1         0     16737         1         0
     16740         1         0     16743         1         0     16746         1         0
     16749         1         0     16753         1         0     16756         1         0
     16759         1         0     16762         1         0     16765         1         0
     16768         1         0     16771         1         0     16774         1         0
     16777         1         0     16780         1         0     16783         1         0
     16787         1         0     16789         1         0     16792         1         0
     16800         1         0     16803         1         0     16806         1         0
     16809         1         0     16812         1         0     16815         1         0
     16818         1         0     16821         1         0     16824         1         0
     16827         1         0     16831         1         0     16834         1         0
     16837         1         0     16840         1         0     16843         1         0
     16846         1         0     16849         1         0     16852         1         0
     16855         1         0     16858         1         0     16861         1         0
     16865         1         0     16869         1         0     16872         1         0
     16875         1         0     16878         1         0     16881         1         0
     16884         1         0     16887         1         0     16890         1         0
     16893         1         0     16896         1         0     16899         1         0
     16903         1         0     16905         1         0     16908         1         0
     16912         1         0     16915         1         0     16918         1         0
     16921         1         0     16924         1         0     16927         1         0
     16930         1         0     16933         1         0     16936         1         0
     16939         1         0     16942         1         0     16946         2         0
     16953         1         0     16956         2         0     16959         2         0
     16962         1         0     16966         1         0     16971         2         0
     16978         1         0     16981         1         0     16985         1         0
     16989         1         0     16993         1         0     16998         2         0
     17003         1         0     17007         2         0     17010         2         0
     17017         1         0     17021         1         0     17026         2         0
     17031         1         0     17035         2         0     17038         2         0
     17045         1         0     17049         2         0     17053         2         0
     17058         1         0     17062         1         0     17066         1         0
     17070         1         0     17074         1         0     17079         2         0
     17084         1         0     17088         2         0     17091         1         0
     17095         1         0     17100         2         0     17105         2         0
     17108         2         0     17111         1         0     17115         1         0
     17120         2         0     17125         2         0     17128         1         0
     17132         1         0     17136         1         0     17141         2         0
     17146         1         0     17150         1         0     17154         1         0
     17158         1         0     17163         2         0     17168         1         0
     17172         2         0     17175         1         0     17179         1         0
     17184         2         0     17189         1         0     17193         1         0
     17195         1         0     17199         2         0     17202         1         0
     17206         1         0     17211         2         0     17216         2         0
     17219         1         0     17223         1         0     17227         1         0
     17232         2         0     17237         2         0     17240         1         0
     17244         1         0     17248         1         0     17252         2         0
     17257         2         0     17260         2         0     17263         1         0
     17267         1         0     17271         2         0     17276         1         0
     17280         1         0     17282         1         0     17286         1         0
     17290         1         0     17294         1         0     17299         2         0
     17304         1         0     17308         1         0     17310         1         0
     17314         2         0     17317         1         0     17321         1         0
     17326         2         0     17331         2         0     17334         1         0
     17338         1         0     17342         1         0     17347         2         0
     17352         2         0     17355         1         0     17359         1         0
     17363         1         0     17367         2         0     17372         2         0
     17375         2         0     17378         1         0     17382         1         0
     17386         2         0     17391         1         0     17395         1         0
     17397         1         0     17401         1         0     17405         1         0
     17409         1         0     17414         2         0     17419         1         0
     17423         1         0     17425         1         0     17429         2         0
     17432         1         0     17436         1         0     17441         2         0
     17446         2         0     17449         1         0     17453         1         0
     17457         1         0     17462         2         0     17467         2         0
     17470         1         0     17474         1         0     17478         1         0
     17482         2         0     17487         2         0     17490         2         0
     17493         1         0     17497         1         0     17501         2         0
     17506         1         0     17510         1         0     17512         1         0
     17516         1         0     17520         1         0     17524         1         0
     17529         2         0     17534         1         0     17538         1         0
     17540         1         0     17544         2         0     17547         1         0
     17551         1         0     17556         2         0     17561         2         0
     17564         1         0     17568         1         0     17572         1         0
     17577         2         0     17582         2         0     17585         1         0
     17589         1         0     17593         1         0     17597         2         0
     17602         2         0     17605         2         0     17608         1         0
     17612         1         0     17616         2         0     17621         1         0
     17625         1         0     17627         1         0     17631         1         0
     17635         1         0     17639         1         0     17644         2         0
     17649         1         0     17653         1         0     17655         1         0
     17659         2         0     17662         1         0     17666         1         0
     17671         2         0     17676         2         0     17679         1         0
     17683         1         0     17687         1         0     17692         2         0
     17697         2         0     17700         1         0     17704         1         0
     17708         1         0     17712         2         0     17717         2         0
     17720         1         0     17724         1         0     17728         1         0
     17732         2         0     17737         1         0     17741         1         0
     17743         1         0     17747         1         0     17751         1         0
     17755         1         0     17760         2         0     17764         1         0
     17773         2         0     17780         1         0     17788         1         0
     17792         1         0     17796         2         0     17806         1         0
     17814         1         0     17818         1         0     17826         1         0
     17829         1         0     17832         1         0     17835         1         0
     17838         1         0     17841         1         0     17844         1         0
     17847         1         0     17850         1         0     17853         1         0
     17856         1         0     17859         1         0     17863         1         0
     17866         1         0     17869         1         0     17872         1         0
     17875         1         0     17878         1         0     17881         1         0
     17884         1         0     17887         1         0     17890         1         0
     17893         1         0     17897         1         0     17899         1         0
     17902         1         0     17910         1         0     17913         1         0
     17916         1         0     17919         1         0     17922         1         0
     17925         1         0     17928         1         0     17931         1         0
     17934         1         0     17937         1         0     17941         1         0
     17944         1         0     17947         1         0     17950         1         0
     17953         1         0     17956         1         0     17959         1         0
     17962         1         0     17965         1         0     17968         1         0
     17971         1         0     17975         1         0     17979         1         0
     17982         1         0     17985         1         0     17988         1         0
     17991         1         0     17994         1         0     17997         1         0
     18000         1         0     18003         1         0     18006         1         0
     18009         1         0     18013         1         0     18015         1         0
     18018         1         0     18022         1         0     18025         1         0
     18028         1         0     18031         1         0     18034         1         0
     18037         1         0     18040         1         0     18043         1         0
     18046         1         0     18049         1         0     18052         1         0
     18056         2         0     18063         1         0     18066         2         0
     18069         2         0     18072         1         0     18076         1         0
     18081         2         0     18088         1         0     18091         1         0
     18095         1         0     18099         1         0     18103         1         0
     18108         2         0     18113         1         0     18117         2         0
     18120         2         0     18127         1         0     18131         1         0
     18136         2         0     18141         1         0     18145         2         0
     18148         2         0     18155         1         0     18159         2         0
     18163         2         0     18168         1         0     18172         1         0
     18176         1         0     18180         1         0     18184         1         0
     18189         2         0     18194         1         0     18198         2         0
     18201         1         0     18205         1         0     18210         2         0
     18215         2         0     18218         2         0     18221         1         0
     18225         1         0     18230         2         0     18235         2         0
     18238         1         0     18242         1         0     18246         1         0
     18251         2         0     18256         1         0     18260         1         0
     18264         1         0     18268         1         0     18273         2         0
     18278         1         0     18282         2         0     18285         1         0
     18289         1         0     18294         2         0     18299         1         0
     18303         1         0     18305         1         0     18309         2         0
     18312         1         0     18316         1         0     18321         2         0
     18326         2         0     18329         1         0     18333         1         0
     18337         1         0     18342         2         0     18347         2         0
     18350         1         0     18354         1         0     18358         1         0
     18362         2         0     18367         2         0     18370         2         0
     18373         1         0     18377         1         0     18381         2         0
     18386         1         0     18390         1         0     18392         1         0
     18396         1         0     18400         1         0     18404         1         0
     18409         2         0     18414         1         0     18418         1         0
     18420         1         0     18424         2         0     18427         1         0
     18431         1         0     18436         2         0     18441         2         0
     18444         1         0     18448         1         0     18452         1         0
     18457         2         0     18462         2         0     18465         1         0
     18469         1         0     18473         1         0     18477         2         0
     18482         2         0     18485         2         0     18488         1         0
     18492         1         0     18496         2         0     18501         1         0
     18505         1         0     18507         1         0     18511         1         0
     18515         1         0     18519         1         0     18524         2         0
     18529         1         0     18533         1         0     18535         1         0
     18539         2         0     18542         1         0     18546         1         0
     18551         2         0     18556         2         0     18559         1         0
     18563         1         0     18567         1         0     18572         2         0
     18577         2         0     18580         1         0     18584         1         0
     18588         1         0     18592         2         0     18597         2         0
     18600         2         0     18603         1         0     18607         1         0
     18611         2         0     18616         1         0     18620         1         0
     18622         1         0     18626         1         0     18630         1         0
     18634         1         0     18639         2         0     18644         1         0
     18648         1         0     18650         1         0     18654         2         0
     18657         1         0     18661         1         0     18666         2         0
     18671         2         0     18674         1         0     18678         1         0
     18682         1         0     18687         2         0     18692         2         0
     18695         1         0     18699         1         0     18703         1         0
     18707         2         0     18712         2         0     18715         2         0
     18718         1         0     18722         1         0     18726         2         0
     18731         1         0     18735         1         0     18737         1         0
     18741         1         0     18745         1         0     18749         1         0
     18754         2         0     18759         1         0     18763         1         0
     18765         1         0     18769         2         0     18772         1         0
     18776         1         0     18781         2         0     18786         2         0
     18789         1         0     18793         1         0     18797         1         0
     18802         2         0     18807         2         0     18810         1         0
     18814         1         0     18818         1         0     18822         2         0
     18827         2         0     18830         1         0     18834         1         0
     18838         1         0     18842         2         0     18847         1         0
     18851         1         0     18853         1         0     18857         1         0
     18861         1         0     18865         1         0     18870         2         0
     18874         1         0     18883         2         0     18890         1         0
     18898         1         0     18902         1         0     18906         2         0
     18916         1         0     18924         1         0     18928         1         0
     18936         1         0     18939         1         0     18942         1         0
     18945         1         0     18948         1         0     18951         1         0
     18954         1         0     18957         1         0     18960         1         0
     18963         1         0     18966         1         0     18969         1         0
     18973         1         0     18976         1         0     18979         1         0
     18982         1         0     18985         1         0     18988         1         0
     18991         1         0     18994         1         0     18997         1         0
     19000         1         0     19003         1         0     19007         1         0
     19009         1         0     19012         1         0     19020         1         0
     19023         1         0     19026         1         0     19029         1         0
     19032         1         0     19035         1         0     19038         1         0
     19041         1         0     19044         1         0     19047         1         0
     19051         1         0     19054         1         0     19057         1         0
     19060         1         0     19063         1         0     19066         1         0
     19069         1         0     19072         1         0     19075         1         0
     19078         1         0     19081         1         0     19085         1         0
     19089         1         0     19092         1         0     19095         1         0
     19098         1         0     19101         1         0     19104         1         0
     19107         1         0     19110         1         0     19113         1         0
     19116         1         0     19119         1         0     19123         1         0
     19125         1         0     19128         1         0     19132         1         0
     19135         1         0     19138         1         0     19141         1         0
     19144         1         0     19147         1         0     19150         1         0
     19153         1         0     19156         1         0     19159         1         0
     19162         1         0     19166         2         0     19173         1         0
     19176         2         0     19179         2         0     19182         1         0
     19186         1         0     19191         2         0     19198         1         0
     19201         1         0     19205         1         0     19209         1         0
     19213         1         0     19218         2         0     19223         1         0
     19227         2         0     19230         2         0     19237         1         0
     19241         1         0     19246         2         0     19251         1         0
     19255         2         0     19258         2         0     19265         1         0
     19269         2         0     19273         2         0     19278         1         0
     19282         1         0     19286         1         0     19290         1         0
     19294         1         0     19299         2         0     19304         1         0
     19308         2         0     19311         1         0     19315         1         0
     19320         2         0     19325         2         0     19328         2         0
     19331         1         0     19335         1         0     19340         2         0
     19345         2         0     19348         1         0     19352         1         0
     19356         1         0     19361         2         0     19366         1         0
     19370         1         0     19374         1         0     19378         1         0
     19383         2         0     19388         1         0     19392         2         0
     19395         1         0     19399         1         0     19404         2         0
     19409         1         0     19413         1         0     19415         1         0
     19419         2         0     19422         1         0     19426         1         0
     19431         2         0     19436         2         0     19439         1         0
     19443         1         0     19447         1         0     19452         2         0
     19457         2         0     19460         1         0     19464         1         0
     19468         1         0     19472         2         0     19477         2         0
     19480         2         0     19483         1         0     19487         1         0
     19491         2         0     19496         1         0     19500         1         0
     19502         1         0     19506         1         0     19510         1         0
     19514         1         0     19519         2         0     19524         1         0
     19528         1         0     19530         1         0     19534         2         0
     19537         1         0     19541         1         0     19546         2         0
     19551         2         0     19554         1         0     19558         1         0
     19562         1         0     19567         2         0     19572         2         0
     19575         1         0     19579         1         0     19583         1         0
     19587         2         0     19592         2         0     19595         2         0
     19598         1         0     19602         1         0     19606         2         0
     19611         1         0     19615         1         0     19617         1         0
     19621         1         0     19625         1         0     19629         1         0
     19634         2         0     19639         1         0     19643         1         0
     19645         1         0     19649         2         0     19652         1         0
     19656         1         0     19661         2         0     19666         2         0
     19669         1         0     19673         1         0     19677         1         0
     19682         2         0     19687         2         0     19690         1         0
     19694         1         0     19698         1         0     19702         2         0
     19707         2         0     19710         2         0     19713         1         0
     19717         1         0     19721         2         0     19726         1         0
     19730         1         0     19732         1         0     19736         1         0
     19740         1         0     19744         1         0     19749         2         0
     19754         1         0     19758         1         0     19760         1         0
     19764         2         0     19767         1         0     19771         1         0
     19776         2         0     19781         2         0     19784         1         0
     19788         1         0     19792         1         0     19797         2         0
     19802         2         0     19805         1         0     19809         1         0
     19813         1         0     19817         2         0     19822         2         0
     19825         2         0     19828         1         0     19832         1         0
     19836         2         0     19841         1         0     19845         1         0
     19847         1         0     19851         1         0     19855         1         0
     19859         1         0     19864         2         0     19869         1         0
     19873         1         0     19875         1         0     19879         2         0
     19882         1         0     19886         1         0     19891         2         0
     19896         2         0     19899         1         0     19903         1         0
     19907         1         0     19912         2         0     19917         2         0
     19920         1         0     19924         1         0     19928         1         0
     19932         2         0     19937         2         0     19940         1         0
     19944         1         0     19948         1         0     19952         2         0
     19957         1         0     19961         1         0     19963         1         0
     19967         1         0     19971         1         0     19975         1         0
     19980         2         0     19984         1         0     19993         2         0
     20000         1         0     20008         1         0     20012         1         0
     20016         2         0     20026         1         0     20034         1         0
     20038         1         0     20046         1         0     20049         1         0
     20052         1         0     20055         1         0     20058         1         0
     20061         1         0     20064         1         0     20067         1         0
     20070         1         0     20073         1         0     20076         1         0
     20079         1         0     20083         1         0     20086         1         0
     20089         1         0     20092         1         0     20095         1         0
     20098         1         0     20101         1         0     20104         1         0
     20107         1         0     20110         1         0     20113         1         0
     20117         1         0     20119         1         0     20122         1         0
     20130         1         0     20133         1         0     20136         1         0
     20139         1         0     20142         1         0     20145         1         0
     20148         1         0     20151         1         0     20154         1         0
     20157         1         0     20161         1         0     20164         1         0
     20167         1         0     20170         1         0     20173         1         0
     20176         1         0     20179         1         0     20182         1         0
     20185         1         0     20188         1         0     20191         1         0
     20195         1         0     20199         1         0     20202         1         0
     20205         1         0     20208         1         0     20211         1         0
     20214         1         0     20217         1         0     20220         1         0
     20223         1         0     20226         1         0     20229         1         0
     20233         1         0     20235         1         0     20238         1         0
     20242         1         0     20245         1         0     20248         1         0
     20251         1         0     20254         1         0     20257         1         0
     20260         1         0     20263         1         0     20266         1         0
     20269         1         0     20272         1         0     20276         2         0
     20283         1         0     20286         2         0     20289         2         0
     20292         1         0     20296         1         0     20301         2         0
     20308         1         0     20311         1         0     20315         1         0
     20319         1         0     20323         1         0     20328         2         0
     20333         1         0     20337         2         0     20340         2         0
     20347         1         0     20351         1         0     20356         2         0
     20361         1         0     20365         2         0     20368         2         0
     20375         1         0     20379         2         0     20383         2         0
     20388         1         0     20392         1         0     20396         1         0
     20400         1         0     20404         1         0     20409         2         0
     20414         1         0     20418         2         0     20421         1         0
     20425         1         0     20430         2         0     20435         2         0
     20438         2         0     20441         1         0     20445         1         0
     20450         2         0     20455         2         0     20458         1         0
     20462         1         0     20466         1         0     20471         2         0
     20476         1         0     20480         1         0     20484         1         0
     20488         1         0     20493         2         0     20498         1         0
     20502         2         0     20505         1         0     20509         1         0
     20514         2         0     20519         1         0     20523         1         0
     20525         1         0     20529         2         0     20532         1         0
     20536         1         0     20541         2         0     20546         2         0
     20549         1         0     20553         1         0     20557         1         0
     20562         2         0     20567         2         0     20570         1         0
     20574         1         0     20578         1         0     20582         2         0
     20587         2         0     20590         2         0     20593         1         0
     20597         1         0     20601         2         0     20606         1         0
     20610         1         0     20612         1         0     20616         1         0
     20620         1         0     20624         1         0     20629         2         0
     20634         1         0     20638         1         0     20640         1         0
     20644         2         0     20647         1         0     20651         1         0
     20656         2         0     20661         2         0     20664         1         0
     20668         1         0     20672         1         0     20677         2         0
     20682         2         0     20685         1         0     20689         1         0
     20693         1         0     20697         2         0     20702         2         0
     20705         2         0     20708         1         0     20712         1         0
     20716         2         0     20721         1         0     20725         1         0
     20727         1         0     20731         1         0     20735         1         0
     20739         1         0     20744         2         0     20749         1         0
     20753         1         0     20755         1         0     20759         2         0
     20762         1         0     20766         1         0     20771         2         0
     20776         2         0     20779         1         0     20783         1         0
     20787         1         0     20792         2         0     20797         2         0
     20800         1         0     20804         1         0     20808         1         0
     20812         2         0     20817         2         0     20820         2         0
     20823         1         0     20827         1         0     20831         2         0
     20836         1         0     20840         1         0     20842         1         0
     20846         1         0     20850         1         0     20854         1         0
     20859         2         0     20864         1         0     20868         1         0
     20870         1         0     20874         2         0     20877         1         0
     20881         1         0     20886         2         0     20891         2         0
     20894         1         0     20898         1         0     20902         1         0
     20907         2         0     20912         2         0     20915         1         0
     20919         1         0     20923         1         0     20927         2         0
     20932         2         0     20935         2         0     20938         1         0
     20942         1         0     20946         2         0     20951         1         0
     20955         1         0     20957         1         0     20961         1         0
     20965         1         0     20969         1         0     20974         2         0
     20979         1         0     20983         1         0     20985         1         0
     20989         2         0     20992         1         0     20996         1         0
     21001         2         0     21006         2         0     21009         1         0
     21013         1         0     21017         1         0     21022         2         0
     21027         2         0     21030         1         0     21034         1         0
     21038         1         0     21042         2         0     21047         2         0
     21050         1         0     21054         1         0     21058         1         0
     21062         2         0     21067         1         0     21071         1         0
     21073         1         0     21077         1         0     21081         1         0
     21085         1         0     21090         2         0     21094         1         0
     21103         2         0     21110         1         0     21118         1         0
     21122         1         0     21126         2         0     21136         1         0
     21144         1         0     21148         1         0     21156         1         0
     21159         1         0     21162         1         0     21165         1         0
     21168         1         0     21171         1         0     21174         1         0
     21177         1         0     21180         1         0     21183         1         0
     21186         1         0     21189         1         0     21193         1         0
     21196         1         0     21199         1         0     21202         1         0
     21205         1         0     21208         1         0     21211         1         0
     21214         1         0     21217         1         0     21220         1         0
     21223         1         0     21227         1         0     21229         1         0
     21232         1         0     21240         1         0     21243         1         0
     21246         1         0     21249         1         0     21252         1         0
     21255         1         0     21258         1         0     21261         1         0
     21264         1         0     21267         1         0     21271         1         0
     21274         1         0     21277         1         0     21280         1         0
     21283         1         0     21286         1         0     21289         1         0
     21292         1         0     21295         1         0     21298         1         0
     21301         1         0     21305         1         0     21309         1         0
     21312         1         0     21315         1         0     21318         1         0
     21321         1         0     21324         1         0     21327         1         0
     21330         1         0     21333         1         0     21336         1         0
     21339         1         0     21343         1         0     21345         1         0
     21348         1         0     21352         1         0     21355         1         0
     21358         1         0     21361         1         0     21364         1         0
     21367         1         0     21370         1         0     21373         1         0
     21376         1         0     21379         1         0     21382         1         0
     21386         2         0     21393         1         0     21396         2         0
     21399         2         0     21402         1         0     21406         1         0
     21411         2         0     21418         1         0     21421         1         0
     21425         1         0     21429         1         0     21433         1         0
     21438         2         0     21443         1         0     21447         2         0
     21450         2         0     21457         1         0     21461         1         0
     21466         2         0     21471         1         0     21475         2         0
     21478         2         0     21485         1         0     21489         2         0
     21493         2         0     21498         1         0     21502         1         0
     21506         1         0     21510         1         0     21514         1         0
     21519         2         0     21524         1         0     21528         2         0
     21531         1         0     21535         1         0     21540         2         0
     21545         2         0     21548         2         0     21551         1         0
     21555         1         0     21560         2         0     21565         2         0
     21568         1         0     21572         1         0     21576         1         0
     21581         2         0     21586         1         0     21590         1         0
     21594         1         0     21598         1         0     21603         2         0
     21608         1         0     21612         2         0     21615         1         0
     21619         1         0     21624         2         0     21629         1         0
     21633         1         0     21635         1         0     21639         2         0
     21642         1         0     21646         1         0     21651         2         0
     21656         2         0     21659         1         0     21663         1         0
     21667         1         0     21672         2         0     21677         2         0
     21680         1         0     21684         1         0     21688         1         0
     21692         2         0     21697         2         0     21700         2         0
     21703         1         0     21707         1         0     21711         2         0
     21716         1         0     21720         1         0     21722         1         0
     21726         1         0     21730         1         0     21734         1         0
     21739         2         0     21744         1         0     21748         1         0
     21750         1         0     21754         2         0     21757         1         0
     21761         1         0     21766         2         0     21771         2         0
     21774         1         0     21778         1         0     21782         1         0
     21787         2         0     21792         2         0     21795         1         0
     21799         1         0     21803         1         0     21807         2         0
     21812         2         0     21815         2         0     21818         1         0
     21822         1         0     21826         2         0     21831         1         0
     21835         1         0     21837         1         0     21841         1         0
     21845         1         0     21849         1         0     21854         2         0
     21859         1         0     21863         1         0     21865         1         0
     21869         2         0     21872         1         0     21876         1         0
     21881         2         0     21886         2         0     21889         1         0
     21893         1         0     21897         1         0     21902         2         0
     21907         2         0     21910         1         0     21914         1         0
     21918         1         0     21922         2         0     21927         2         0
     21930         2         0     21933         1         0     21937         1         0
     21941         2         0     21946         1         0     21950         1         0
     21952         1         0     21956         1         0     21960         1         0
     21964         1         0     21969         2         0     21974         1         0
     21978         1         0     21980         1         0     21984         2         0
     21987         1         0     21991         1         0     21996         2         0
     22001         2         0     22004         1         0     22008         1         0
     22012         1         0     22017         2         0     22022         2         0
     22025         1         0     22029         1         0     22033         1         0
     22037         2         0     22042         2         0     22045         2         0
     22048         1         0     22052         1         0     22056         2         0
     22061         1         0     22065         1         0     22067         1         0
     22071         1         0     22075         1         0     22079         1         0
     22084         2         0     22089         1         0     22093         1         0
     22095         1         0     22099         2         0     22102         1         0
     22106         1         0     22111         2         0     22116         2         0
     22119         1         0     22123         1         0     22127         1         0
     22132         2         0     22137         2         0     22140         1         0
     22144         1         0     22148         1         0     22152         2         0
     22157         2         0     22160         1         0     22164         1         0
     22168         1         0     22172         2         0     22177         1         0
     22181         1         0     22183         1         0     22187         1         0
     22191         1         0     22195         1         0     22200         2         0
     22204         1         0     22213         2         0     22220         1         0
     22228         1         0     22232         1         0     22236         2         0
     22246         1         0     22254         1         0     22258         1         0
     22266         1         0     22269         1         0     22272         1         0
     22275         1         0     22278         1         0     22281         1         0
     22284         1         0     22287         1         0     22290         1         0
     22293         1         0     22296         1         0     22299         1         0
     22303         1         0     22306         1         0     22309         1         0
     22312         1         0     22315         1         0     22318         1         0
     22321         1         0     22324         1         0     22327         1         0
     22330         1         0     22333         1         0     22337         1         0
     22339         1         0     22342         1         0     22350         1         0
     22353         1         0     22356         1         0     22359         1         0
     22362         1         0     22365         1         0     22368         1         0
     22371         1         0     22374         1         0     22377         1         0
     22381         1         0     22384         1         0     22387         1         0
     22390         1         0     22393         1         0     22396         1         0
     22399         1         0     22402         1         0     22405         1         0
     22408         1         0     22411         1         0     22415         1         0
     22419         1         0     22422         1         0     22425         1         0
     22428         1         0     22431         1         0     22434         1         0
     22437         1         0     22440         1         0     22443         1         0
     22446         1         0     22449         1         0     22453         1         0
     22455         1         0     22458         1         0     22462         1         0
     22465         1         0     22468         1         0     22471         1         0
     22474         1         0     22477         1         0     22480         1         0
     22483         1         0     22486         1         0     22489         1         0
     22492         1         0     22496         2         0     22503         1         0
     22506         2         0     22509         2         0     22512         1         0
     22516         1         0     22521         2         0     22528         1         0
     22531         1         0     22535         1         0     22539         1         0
     22543         1         0     22548         2         0     22553         1         0
     22557         2         0     22560         2         0     22567         1         0
     22571         1         0     22576         2         0     22581         1         0
     22585         2         0     22588         2         0     22595         1         0
     22599         2         0     22603         2         0     22608         1         0
     22612         1         0     22616         1         0     22620         1         0
     22624         1         0     22629         2         0     22634         1         0
     22638         2         0     22641         1         0     22645         1         0
     22650         2         0     22655         2         0     22658         2         0
     22661         1         0     22665         1         0     22670         2         0
     22675         2         0     22678         1         0     22682         1         0
     22686         1         0     22691         2         0     22696         1         0
     22700         1         0     22704         1         0     22708         1         0
     22713         2         0     22718         1         0     22722         2         0
     22725         1         0     22729         1         0     22734         2         0
     22739         1         0     22743         1         0     22745         1         0
     22749         2         0     22752         1         0     22756         1         0
     22761         2         0     22766         2         0     22769         1         0
     22773         1         0     22777         1         0     22782         2         0
     22787         2         0     22790         1         0     22794         1         0
     22798         1         0     22802         2         0     22807         2         0
     22810         2         0     22813         1         0     22817         1         0
     22821         2         0     22826         1         0     22830         1         0
     22832         1         0     22836         1         0     22840         1         0
     22844         1         0     22849         2         0     22854         1         0
     22858         1         0     22860         1         0     22864         2         0
     22867         1         0     22871         1         0     22876         2         0
     22881         2         0     22884         1         0     22888         1         0
     22892         1         0     22897         2         0     22902         2         0
     22905         1         0     22909         1         0     22913         1         0
     22917         2         0     22922         2         0     22925         2         0
     22928         1         0     22932         1         0     22936         2         0
     22941         1         0     22945         1         0     22947         1         0
     22951         1         0     22955         1         0     22959         1         0
     22964         2         0     22969         1         0     22973         1         0
     22975         1         0     22979         2         0     22982         1         0
     22986         1         0     22991         2         0     22996         2         0
     22999         1         0     23003         1         0     23007         1         0
     23012         2         0     23017         2         0     23020         1         0
     23024         1         0     23028         1         0     23032         2         0
     23037         2         0     23040         2         0     23043         1         0
     23047         1         0     23051         2         0     23056         1         0
     23060         1         0     23062         1         0     23066         1         0
     23070         1         0     23074         1         0     23079         2         0
     23084         1         0     23088         1         0     23090         1         0
     23094         2         0     23097         1         0     23101         1         0
     23106         2         0     23111         2         0     23114         1         0
     23118         1         0     23122         1         0     23127         2         0
     23132         2         0     23135         1         0     23139         1         0
     23143         1         0     23147         2         0     23152         2         0
     23155         2         0     23158         1         0     23162         1         0
     23166         2         0     23171         1         0     23175         1         0
     23177         1         0     23181         1         0     23185         1         0
     23189         1         0     23194         2         0     23199         1         0
     23203         1         0     23205         1         0     23209         2         0
     23212         1         0     23216         1         0     23221         2         0
     23226         2         0     23229         1         0     23233         1         0
     23237         1         0     23242         2         0     23247         2         0
     23250         1         0     23254         1         0     23258         1         0
     23262         2         0     23267         2         0     23270         1         0
     23274         1         0     23278         1         0     23282         2         0
     23287         1         0     23291         1         0     23293         1         0
     23297         1         0     23301         1         0     23305         1         0
     23310         2         0     23314         1         0     23323         2         0
     23330         1         0     23338         1         0     23342         1         0
     23346         2         0     23356         1         0     23364         1         0
     23368         1         0     23376         1         0     23379         1         0
     23382         1         0     23385         1         0     23388         1         0
     23391         1         0     23394         1         0     23397         1         0
     23400         1         0     23403         1         0     23406         1         0
     23409         1         0     23413         1         0     23416         1         0
     23419         1         0     23422         1         0     23425         1         0
     23428         1         0     23431         1         0     23434         1         0
     23437         1         0     23440         1         0     23443         1         0
     23447         1         0     23449         1         0     23452         1         0
     23460         1         0     23463         1         0     23466         1         0
     23469         1         0     23472         1         0     23475         1         0
     23478         1         0     23481         1         0     23484         1         0
     23487         1         0     23491         1         0     23494         1         0
     23497         1         0     23500         1         0     23503         1         0
     23506         1         0     23509         1         0     23512         1         0
     23515         1         0     23518         1         0     23521         1         0
     23525         1         0     23529         1         0     23532         1         0
     23535         1         0     23538         1         0     23541         1         0
     23544         1         0     23547         1         0     23550         1         0
     23553         1         0     23556         1         0     23559         1         0
     23563         1         0     23565         1         0     23568         1         0
     23572         1         0     23575         1         0     23578         1         0
     23581         1         0     23584         1         0     23587         1         0
     23590         1         0     23593         1         0     23596         1         0
     23599         1         0     23602         1         0     23606         2         0
     23613         1         0     23616         2         0     23619         2         0
     23622         1         0     23626         1         0     23631         2         0
     23638         1         0     23641         1         0     23645         1         0
     23649         1         0     23653         1         0     23658         2         0
     23663         1         0     23667         2         0     23670         2         0
     23677         1         0     23681         1         0     23686         2         0
     23691         1         0     23695         2         0     23698         2         0
     23705         1         0     23709         2         0     23713         2         0
     23718         1         0     23722         1         0     23726         1         0
     23730         1         0     23734         1         0     23739         2         0
     23744         1         0     23748         2         0     23751         1         0
     23755         1         0     23760         2         0     23765         2         0
     23768         2         0     23771         1         0     23775         1         0
     23780         2         0     23785         2         0     23788         1         0
     23792         1         0     23796         1         0     23801         2         0
     23806         1         0     23810         1         0     23814         1         0
     23818         1         0     23823         2         0     23828         1         0
     23832         2         0     23835         1         0     23839         1         0
     23844         2         0     23849         1         0     23853         1         0
     23855         1         0     23859         2         0     23862         1         0
     23866         1         0     23871         2         0     23876         2         0
     23879         1         0     23883         1         0     23887         1         0
     23892         2         0     23897         2         0     23900         1         0
     23904         1         0     23908         1         0     23912         2         0
     23917         2         0     23920         2         0     23923         1         0
     23927         1         0     23931         2         0     23936         1         0
     23940         1         0     23942         1         0     23946         1         0
     23950         1         0     23954         1         0     23959         2         0
     23964         1         0     23968         1         0     23970         1         0
     23974         2         0     23977         1         0     23981         1         0
     23986         2         0     23991         2         0     23994         1         0
     23998         1         0     24002         1         0     24007         2         0
     24012         2         0     24015         1         0     24019         1         0
     24023         1         0     24027         2         0     24032         2         0
     24035         2         0     24038         1         0     24042         1         0
     24046         2         0     24051         1         0     24055         1         0
     24057         1         0     24061         1         0     24065         1         0
     24069         1         0     24074         2         0     24079         1         0
     24083         1         0     24085         1         0     24089         2         0
     24092         1         0     24096         1         0     24101         2         0
     24106         2         0     24109         1         0     24113         1         0
     24117         1         0     24122         2         0     24127         2         0
     24130         1         0     24134         1         0     24138         1         0
     24142         2         0     24147         2         0     24150         2         0
     24153         1         0     24157         1         0     24161         2         0
     24166         1         0     24170         1         0     24172         1         0
     24176         1         0     24180         1         0     24184         1         0
     24189         2         0     24194         1         0     24198         1         0
     24200         1         0     24204         2         0     24207         1         0
     24211         1         0     24216         2         0     24221         2         0
     24224         1         0     24228         1         0     24232         1         0
     24237         2         0     24242         2         0     24245         1         0
     24249         1         0     24253         1         0     24257         2         0
     24262         2         0     24265         2         0     24268         1         0
     24272         1         0     24276         2         0     24281         1         0
     24285         1         0     24287         1         0     24291         1         0
     24295         1         0     24299         1         0     24304         2         0
     24309         1         0     24313         1         0     24315         1         0
     24319         2         0     24322         1         0     24326         1         0
     24331         2         0     24336         2         0     24339         1         0
     24343         1         0     24347         1         0     24352         2         0
     24357         2         0     24360         1         0     24364         1         0
     24368         1         0     24372         2         0     24377         2         0
     24380         1         0     24384         1         0     24388         1         0
     24392         2         0     24397         1         0     24401         1         0
     24403         1         0     24407         1         0     24411         1         0
     24415         1         0     24420         2         0     24424         1         0
     24433         2         0     24440         1         0     24448         1         0
     24452         1         0     24456         2         0     24466         1         0
     24474         1         0     24478         1         0     24486         1         0
     24489         1         0     24492         1         0     24495         1         0
     24498         1         0     24501         1         0     24504         1         0
     24507         1         0     24510         1         0     24513         1         0
     24516         1         0     24519         1         0     24523         1         0
     24526         1         0     24529         1         0     24532         1         0
     24535         1         0     24538         1         0     24541         1         0
     24544         1         0     24547         1         0     24550         1         0
     24553         1         0     24557         1         0     24559         1         0
     24562         1         0     24570         1         0     24573         1         0
     24576         1         0     24579         1         0     24582         1         0
     24585         1         0     24588         1         0     24591         1         0
     24594         1         0     24597         1         0     24601         1         0
     24604         1         0     24607         1         0     24610         1         0
     24613         1         0     24616         1         0     24619         1         0
     24622         1         0     24625         1         0     24628         1         0
     24631         1         0     24635         1         0     24639         1         0
     24642         1         0     24645         1         0     24648         1         0
     24651         1         0     24654         1         0     24657         1         0
     24660         1         0     24663         1         0     24666         1         0
     24669         1         0     24673         1         0     24675         1         0
     24678         1         0     24682         1         0     24685         1         0
     24688         1         0     24691         1         0     24694         1         0
     24697         1         0     24700         1         0     24703         1         0
     24706         1         0     24709         1         0     24712         1         0
     24716         2         0     24723         1         0     24726         2         0
     24729         2         0     24732         1         0     24736         1         0
     24741         2         0     24748         1         0     24751         1         0
     24755         1         0     24759         1         0     24763         1         0
     24768         2         0     24773         1         0     24777         2         0
     24780         2         0     24787         1         0     24791         1         0
     24796         2         0     24801         1         0     24805         2         0
     24808         2         0     24815         1         0     24819         2         0
     24823         2         0     24828         1         0     24832         1         0
     24836         1         0     24840         1         0     24844         1         0
     24849         2         0     24854         1         0     24858         2         0
     24861         1         0     24865         1         0     24870         2         0
     24875         2         0     24878         2         0     24881         1         0
     24885         1         0     24890         2         0     24895         2         0
     24898         1         0     24902         1         0     24906         1         0
     24911         2         0     24916         1         0     24920         1         0
     24924         1         0     24928         1         0     24933         2         0
     24938         1         0     24942         2         0     24945         1         0
     24949         1         0     24954         2         0     24959         1         0
     24963         1         0     24965         1         0     24969         2         0
     24972         1         0     24976         1         0     24981         2         0
     24986         2         0     24989         1         0     24993         1         0
     24997         1         0     25002         2         0     25007         2         0
     25010         1         0     25014         1         0     25018         1         0
     25022         2         0     25027         2         0     25030         2         0
     25033         1         0     25037         1         0     25041         2         0
     25046         1         0     25050         1         0     25052         1         0
     25056         1         0     25060         1         0     25064         1         0
     25069         2         0     25074         1         0     25078         1         0
     25080         1         0     25084         2         0     25087         1         0
     25091         1         0     25096         2         0     25101         2         0
     25104         1         0     25108         1         0     25112         1         0
     25117         2         0     25122         2         0     25125         1         0
     25129         1         0     25133         1         0     25137         2         0
     25142         2         0     25145         2         0     25148         1         0
     25152         1         0     25156         2         0     25161         1         0
     25165         1         0     25167         1         0     25171         1         0
     25175         1         0     25179         1         0     25184         2         0
     25189         1         0     25193         1         0     25195         1         0
     25199         2         0     25202         1         0     25206         1         0
     25211         2         0     25216         2         0     25219         1         0
     25223         1         0     25227         1         0     25232         2         0
     25237         2         0     25240         1         0     25244         1         0
     25248         1         0     25252         2         0     25257         2         0
     25260         2         0     25263         1         0     25267         1         0
     25271         2         0     25276         1         0     25280         1         0
     25282         1         0     25286         1         0     25290         1         0
     25294         1         0     25299         2         0     25304         1         0
     25308         1         0     25310         1         0     25314         2         0
     25317         1         0     25321         1         0     25326         2         0
     25331         2         0     25334         1         0     25338         1         0
     25342         1         0     25347         2         0     25352         2         0
     25355         1         0     25359         1         0     25363         1         0
     25367         2         0     25372         2         0     25375         2         0
     25378         1         0     25382         1         0     25386         2         0
     25391         1         0     25395         1         0     25397         1         0
     25401         1         0     25405         1         0     25409         1         0
     25414         2         0     25419         1         0     25423         1         0
     25425         1         0     25429         2         0     25432         1         0
     25436         1         0     25441         2         0     25446         2         0
     25449         1         0     25453         1         0     25457         1         0
     25462         2         0     25467         2         0     25470         1         0
     25474         1         0     25478         1         0     25482         2         0
     25487         2         0     25490         1         0     25494         1         0
     25498         1         0     25502         2         0     25507         1         0
     25511         1         0     25513         1         0     25517         1         0
     25521         1         0     25525         1         0     25530         2         0
     25534         1         0     25543         2         0     25550         1         0
     25558         1         0     25562         1         0     25566         2         0
     25576         1         0     25584         1         0     25588         1         0
     25596         1         0     25599         1         0     25602         1         0
     25605         1         0     25608         1         0     25611         1         0
     25614         1         0     25617         1         0     25620         1         0
     25623         1         0     25626         1         0     25629         1         0
     25633         1         0     25636         1         0     25639         1         0
     25642         1         0     25645         1         0     25648         1         0
     25651         1         0     25654         1         0     25657         1         0
     25660         1         0     25663         1         0     25667         1         0
     25669         1         0     25672         1         0     25680         1         0
     25683         1         0     25686         1         0     25689         1         0
     25692         1         0     25695         1         0     25698         1         0
     25701         1         0     25704         1         0     25707         1         0
     25711         1         0     25714         1         0     25717         1         0
     25720         1         0     25723         1         0     25726         1         0
     25729         1         0     25732         1         0     25735         1         0
     25738         1         0     25741         1         0     25745         1         0
     25749         1         0     25752         1         0     25755         1         0
     25758         1         0     25761         1         0     25764         1         0
     25767         1         0     25770         1         0     25773         1         0
     25776         1         0     25779         1         0     25783         1         0
     25785         1         0     25788         1         0     25792         1         0
     25795         1         0     25798         1         0     25801         1         0
     25804         1         0     25807         1         0     25810         1         0
     25813         1         0     25816         1         0     25819         1         0
     25822         1         0     25826         2         0     25833         1         0
     25836         2         0     25839         2         0     25842         1         0
     25846         1         0     25851         2         0     25858         1         0
     25861         1         0     25865         1         0     25869         1         0
     25873         1         0     25878         2         0     25883         1         0
     25887         2         0     25890         2         0     25897         1         0
     25901         1         0     25906         2         0     25911         1         0
     25915         2         0     25918         2         0     25925         1         0
     25929         2         0     25933         2         0     25938         1         0
     25942         1         0     25946         1         0     25950         1         0
     25954         1         0     25959         2         0     25964         1         0
     25968         2         0     25971         1         0     25975         1         0
     25980         2         0     25985         2         0     25988         2         0
     25991         1         0     25995         1         0     26000         2         0
     26005         2         0     26008         1         0     26012         1         0
     26016         1         0     26021         2         0     26026         1         0
     26030         1         0     26034         1         0     26038         1         0
     26043         2         0     26048         1         0     26052         2         0
     26055         1         0     26059         1         0     26064         2         0
     26069         1         0     26073         1         0     26075         1         0
     26079         2         0     26082         1         0     26086         1         0
     26091         2         0     26096         2         0     26099         1         0
     26103         1         0     26107         1         0     26112         2         0
     26117         2         0     26120         1         0     26124         1         0
     26128         1         0     26132         2         0     26137         2         0
     26140         2         0     26143         1         0     26147         1         0
     26151         2         0     26156         1         0     26160         1         0
     26162         1         0     26166         1         0     26170         1         0
     26174         1         0     26179         2         0     26184         1         0
     26188         1         0     26190         1         0     26194         2         0
     26197         1         0     26201         1         0     26206         2         0
     26211         2         0     26214         1         0     26218         1         0
     26222         1         0     26227         2         0     26232         2         0
     26235         1         0     26239         1         0     26243         1         0
     26247         2         0     26252         2         0     26255         2         0
     26258         1         0     26262         1         0     26266         2         0
     26271         1         0     26275         1         0     26277         1         0
     26281         1         0     26285         1         0     26289         1         0
     26294         2         0     26299         1         0     26303         1         0
     26305         1         0     26309         2         0     26312         1         0
     26316         1         0     26321         2         0     26326         2         0
     26329         1         0     26333         1         0     26337         1         0
     26342         2         0     26347         2         0     26350         1         0
     26354         1         0     26358         1         0     26362         2         0
     26367         2         0     26370         2         0     26373         1         0
     26377         1         0     26381         2         0     26386         1         0
     26390         1         0     26392         1         0     26396         1         0
     26400         1         0     26404         1         0     26409         2         0
     26414         1         0     26418         1         0     26420         1         0
     26424         2         0     26427         1         0     26431         1         0
     26436         2         0     26441         2         0     26444         1         0
     26448         1         0     26452         1         0     26457         2         0
     26462         2         0     26465         1         0     26469         1         0
     26473         1         0     26477         2         0     26482         2         0
     26485         2         0     26488         1         0     26492         1         0
     26496         2         0     26501         1         0     26505         1         0
     26507         1         0     26511         1         0     26515         1         0
     26519         1         0     26524         2         0     26529         1         0
     26533         1         0     26535         1         0     26539         2         0
     26542         1         0     26546         1         0     26551         2         0
     26556         2         0     26559         1         0     26563         1         0
     26567         1         0     26572         2         0     26577         2         0
     26580         1         0     26584         1         0     26588         1         0
     26592         2         0     26597         2         0     26600         1         0
     26604         1         0     26608         1         0     26612         2         0
     26617         1         0     26621         1         0     26623         1         0
     26627         1         0     26631         1         0     26635         1         0
     26640         2         0     26644         1         0     26653         2         0
     26660         1         0     26668         1         0     26672         1         0
     26676         2         0     26686         1         0     26694         1         0
     26698         1         0     26706         1         0     26709         1         0
     26712         1         0     26715         1         0     26718         1         0
     26721         1         0     26724         1         0     26727         1         0
     26730         1         0     26733         1         0     26736         1         0
     26739         1         0     26743         1         0     26746         1         0
     26749         1         0     26752         1         0     26755         1         0
     26758         1         0     26761         1         0     26764         1         0
     26767         1         0     26770         1         0     26773         1         0
     26777         1         0     26779         1         0     26782         1         0
     26790         1         0     26793         1         0     26796         1         0
     26799         1         0     26802         1         0     26805         1         0
     26808         1         0     26811         1         0     26814         1         0
     26817         1         0     26821         1         0     26824         1         0
     26827         1         0     26830         1         0     26833         1         0
     26836         1         0     26839         1         0     26842         1         0
     26845         1         0     26848         1         0     26851         1         0
     26855         1         0     26859         1         0     26862         1         0
     26865         1         0     26868         1         0     26871         1         0
     26874         1         0     26877         1         0     26880         1         0
     26883         1         0     26886         1         0     26889         1         0
     26893         1         0     26895         1         0     26898         1         0
     26902         1         0     26905         1         0     26908         1         0
     26911         1         0     26914         1         0     26917         1         0
     26920         1         0     26923         1         0     26926         1         0
     26929         1         0     26932         1         0     26936         2         0
     26943         1         0     26946         2         0     26949         2         0
     26952         1         0     26956         1         0     26961         2         0
     26968         1         0     26971         1         0     26975         1         0
     26979         1         0     26983         1         0     26988         2         0
     26993         1         0     26997         2         0     27000         2         0
     27007         1         0     27011         1         0     27016         2         0
     27021         1         0     27025         2         0     27028         2         0
     27035         1         0     27039         2         0     27043         2         0
     27048         1         0     27052         1         0     27056         1         0
     27060         1         0     27064         1         0     27069         2         0
     27074         1         0     27078         2         0     27081         1         0
     27085         1         0     27090         2         0     27095         2         0
     27098         2         0     27101         1         0     27105         1         0
     27110         2         0     27115         2         0     27118         1         0
     27122         1         0     27126         1         0     27131         2         0
     27136         1         0     27140         1         0     27144         1         0
     27148         1         0     27153         2         0     27158         1         0
     27162         2         0     27165         1         0     27169         1         0
     27174         2         0     27179         1         0     27183         1         0
     27185         1         0     27189         2         0     27192         1         0
     27196         1         0     27201         2         0     27206         2         0
     27209         1         0     27213         1         0     27217         1         0
     27222         2         0     27227         2         0     27230         1         0
     27234         1         0     27238         1         0     27242         2         0
     27247         2         0     27250         2         0     27253         1         0
     27257         1         0     27261         2         0     27266         1         0
     27270         1         0     27272         1         0     27276         1         0
     27280         1         0     27284         1         0     27289         2         0
     27294         1         0     27298         1         0     27300         1         0
     27304         2         0     27307         1         0     27311         1         0
     27316         2         0     27321         2         0     27324         1         0
     27328         1         0     27332         1         0     27337         2         0
     27342         2         0     27345         1         0     27349         1         0
     27353         1         0     27357         2         0     27362         2         0
     27365         2         0     27368         1         0     27372         1         0
     27376         2         0     27381         1         0     27385         1         0
     27387         1         0     27391         1         0     27395         1         0
     27399         1         0     27404         2         0     27409         1         0
     27413         1         0     27415         1         0     27419         2         0
     27422         1         0     27426         1         0     27431         2         0
     27436         2         0     27439         1         0     27443         1         0
     27447         1         0     27452         2         0     27457         2         0
     27460         1         0     27464         1         0     27468         1         0
     27472         2         0     27477         2         0     27480         2         0
     27483         1         0     27487         1         0     27491         2         0
     27496         1         0     27500         1         0     27502         1         0
     27506         1         0     27510         1         0     27514         1         0
     27519         2         0     27524         1         0     27528         1         0
     27530         1         0     27534         2         0     27537         1         0
     27541         1         0     27546         2         0     27551         2         0
     27554         1         0     27558         1         0     27562         1         0
     27567         2         0     27572         2         0     27575         1         0
     27579         1         0     27583         1         0     27587         2         0
     27592         2         0     27595         2         0     27598         1         0
     27602         1         0     27606         2         0     27611         1         0
     27615         1         0     27617         1         0     27621         1         0
     27625         1         0     27629         1         0     27634         2         0
     27639         1         0     27643         1         0     27645         1         0
     27649         2         0     27652         1         0     27656         1         0
     27661         2         0     27666         2         0     27669         1         0
     27673         1         0     27677         1         0     27682         2         0
     27687         2         0     27690         1         0     27694         1         0
     27698         1         0     27702         2         0     27707         2         0
     27710         1         0     27714         1         0     27718         1         0
     27722         2         0     27727         1         0     27731         1         0
     27733         1         0     27737         1         0     27741         1         0
     27745         1         0     27750         2         0     27754         1         0
     27763         2         0     27770         1         0     27778         1         0
     27782         1         0     27786         2         0     27796         1         0
     27804         1         0     27808         1         0     27816         1         0
     27819         1         0     27822         1         0     27825         1         0
     27828         1         0     27831         1         0     27834         1         0
     27837         1         0     27840         1         0     27843         1         0
     27846         1         0     27849         1         0     27853         1         0
     27856         1         0     27859         1         0     27862         1         0
     27865         1         0     27868         1         0     27871         1         0
     27874         1         0     27877         1         0     27880         1         0
     27883         1         0     27887         1         0     27889         1         0
     27892         1         0     27900         1         0     27903         1         0
     27906         1         0     27909         1         0     27912         1         0
     27915         1         0     27918         1         0     27921         1         0
     27924         1         0     27927         1         0     27931         1         0
     27934         1         0     27937         1         0     27940         1         0
     27943         1         0     27946         1         0     27949         1         0
     27952         1         0     27955         1         0     27958         1         0
     27961         1         0     27965         1         0     27969         1         0
     27972         1         0     27975         1         0     27978         1         0
     27981         1         0     27984         1         0     27987         1         0
     27990         1         0     27993         1         0     27996         1         0
     27999         1         0     28003         1         0     28005         1         0
     28008         1         0     28012         1         0     28015         1         0
     28018         1         0     28021         1         0     28024         1         0
     28027         1         0     28030         1         0     28033         1         0
     28036         1         0     28039         1         0     28042         1         0
     28046         2         0     28053         1         0     28056         2         0
     28059         2         0     28062         1         0     28066         1         0
     28071         2         0     28078         1         0     28081         1         0
     28085         1         0     28089         1         0     28093         1         0
     28098         2         0     28103         1         0     28107         2         0
     28110         2         0     28117         1         0     28121         1         0
     28126         2         0     28131         1         0     28135         2         0
     28138         2         0     28145         1         0     28149         2         0
     28153         2         0     28158         1         0     28162         1         0
     28166         1         0     28170         1         0     28174         1         0
     28179         2         0     28184         1         0     28188         2         0
     28191         1         0     28195         1         0     28200         2         0
     28205         2         0     28208         2         0     28211         1         0
     28215         1         0     28220         2         0     28225         2         0
     28228         1         0     28232         1         0     28236         1         0
     28241         2         0     28246         1         0     28250         1         0
     28254         1         0     28258         1         0     28263         2         0
     28268         1         0     28272         2         0     28275         1         0
     28279         1         0     28284         2         0     28289         1         0
     28293         1         0     28295         1         0     28299         2         0
     28302         1         0     28306         1         0     28311         2         0
     28316         2         0     28319         1         0     28323         1         0
     28327         1         0     28332         2         0     28337         2         0
     28340         1         0     28344         1         0     28348         1         0
     28352         2         0     28357         2         0     28360         2         0
     28363         1         0     28367         1         0     28371         2         0
     28376         1         0     28380         1         0     28382         1         0
     28386         1         0     28390         1         0     28394         1         0
     28399         2         0     28404         1         0     28408         1         0
     28410         1         0     28414         2         0     28417         1         0
     28421         1         0     28426         2         0     28431         2         0
     28434         1         0     28438         1         0     28442         1         0
     28447         2         0     28452         2         0     28455         1         0
     28459         1         0     28463         1         0     28467         2         0
     28472         2         0     28475         2         0     28478         1         0
     28482         1         0     28486         2         0     28491         1         0
     28495         1         0     28497         1         0     28501         1         0
     28505         1         0     28509         1         0     28514         2         0
     28519         1         0     28523         1         0     28525         1         0
     28529         2         0     28532         1         0     28536         1         0
     28541         2         0     28546         2         0     28549         1         0
     28553         1         0     28557         1         0     28562         2         0
     28567         2         0     28570         1         0     28574         1         0
     28578         1         0     28582         2         0     28587         2         0
     28590         2         0     28593         1         0     28597         1         0
     28601         2         0     28606         1         0     28610         1         0
     28612         1         0     28616         1         0     28620         1         0
     28624         1         0     28629         2         0     28634         1         0
     28638         1         0     28640         1         0     28644         2         0
     28647         1         0     28651         1         0     28656         2         0
     28661         2         0     28664         1         0     28668         1         0
     28672         1         0     28677         2         0     28682         2         0
     28685         1         0     28689         1         0     28693         1         0
     28697         2         0     28702         2         0     28705         2         0
     28708         1         0     28712         1         0     28716         2         0
     28721         1         0     28725         1         0     28727         1         0
     28731         1         0     28735         1         0     28739         1         0
     28744         2         0     28749         1         0     28753         1         0
     28755         1         0     28759         2         0     28762         1         0
     28766         1         0     28771         2         0     28776         2         0
     28779         1         0     28783         1         0     28787         1         0
     28792         2         0     28797         2         0     28800         1         0
     28804         1         0     28808         1         0     28812         2         0
     28817         2         0     28820         1         0     28824         1         0
     28828         1         0     28832         2         0     28837         1         0
     28841         1         0     28843         1         0     28847         1         0
     28851         1         0     28855         1         0     28860         2         0
     28864         1         0     28873         2         0     28880         1         0
     28888         1         0     28892         1         0     28896         2         0
     28906         1         0     28914         1         0     28918         1         0
     28926         1         0     28929         1         0     28932         1         0
     28935         1         0     28938         1         0     28941         1         0
     28944         1         0     28947         1         0     28950         1         0
     28953         1         0     28956         1         0     28959         1         0
     28963         1         0     28966         1         0     28969         1         0
     28972         1         0     28975         1         0     28978         1         0
     28981         1         0     28984         1         0     28987         1         0
     28990         1         0     28993         1         0     28997         1         0
     28999         1         0     29002         1         0     29010         1         0
     29013         1         0     29016         1         0     29019         1         0
     29022         1         0     29025         1         0     29028         1         0
     29031         1         0     29034         1         0     29037         1         0
     29041         1         0     29044         1         0     29047         1         0
     29050         1         0     29053         1         0     29056         1         0
     29059         1         0     29062         1         0     29065         1         0
     29068         1         0     29071         1         0     29075         1         0
     29079         1         0     29082         1         0     29085         1         0
     29088         1         0     29091         1         0     29094         1         0
     29097         1         0     29100         1         0     29103         1         0
     29106         1         0     29109         1         0     29113         1         0
     29115         1         0     29118         1         0     29122         1         0
     29125         1         0     29128         1         0     29131         1         0
     29134         1         0     29137         1         0     29140         1         0
     29143         1         0     29146         1         0     29149         1         0
     29152         1         0     29156         2         0     29163         1         0
     29166         2         0     29169         2         0     29172         1         0
     29176         1         0     29181         2         0     29188         1         0
     29191         1         0     29195         1         0     29199         1         0
     29203         1         0     29208         2         0     29213         1         0
     29217         2         0     29220         2         0     29227         1         0
     29231         1         0     29236         2         0     29241         1         0
     29245         2         0     29248         2         0     29255         1         0
     29259         2         0     29263         2         0     29268         1         0
     29272         1         0     29276         1         0     29280         1         0
     29284         1         0     29289         2         0     29294         1         0
     29298         2         0     29301         1         0     29305         1         0
     29310         2         0     29315         2         0     29318         2         0
     29321         1         0     29325         1         0     29330         2         0
     29335         2         0     29338         1         0     29342         1         0
     29346         1         0     29351         2         0     29356         1         0
     29360         1         0     29364         1         0     29368         1         0
     29373         2         0     29378         1         0     29382         2         0
     29385         1         0     29389         1         0     29394         2         0
     29399         1         0     29403         1         0     29405         1         0
     29409         2         0     29412         1         0     29416         1         0
     29421         2         0     29426         2         0     29429         1         0
     29433         1         0     29437         1         0     29442         2         0
     29447         2         0     29450         1         0     29454         1         0
     29458         1         0     29462         2         0     29467         2         0
     29470         2         0     29473         1         0     29477         1         0
     29481         2         0     29486         1         0     29490         1         0
     29492         1         0     29496         1         0     29500         1         0
     29504         1         0     29509         2         0     29514         1         0
     29518         1         0     29520         1         0     29524         2         0
     29527         1         0     29531         1         0     29536         2         0
     29541         2         0     29544         1         0     29548         1         0
     29552         1         0     29557         2         0     29562         2         0
     29565         1         0     29569         1         0     29573         1         0
     29577         2         0     29582         2         0     29585         2         0
     29588         1         0     29592         1         0     29596         2         0
     29601         1         0     29605         1         0     29607         1         0
     29611         1         0     29615         1         0     29619         1         0
     29624         2         0     29629         1         0     29633         1         0
     29635         1         0     29639         2         0     29642         1         0
     29646         1         0     29651         2         0     29656         2         0
     29659         1         0     29663         1         0     29667         1         0
     29672         2         0     29677         2         0     29680         1         0
     29684         1         0     29688         1         0     29692         2         0
     29697         2         0     29700         2         0     29703         1         0
     29707         1         0     29711         2         0     29716         1         0
     29720         1         0     29722         1         0     29726         1         0
     29730         1         0     29734         1         0     29739         2         0
     29744         1         0     29748         1         0     29750         1         0
     29754         2         0     29757         1         0     29761         1         0
     29766         2         0     29771         2         0     29774         1         0
     29778         1         0     29782         1         0     29787         2         0
     29792         2         0     29795         1         0     29799         1         0
     29803         1         0     29807         2         0     29812         2         0
     29815         2         0     29818         1         0     29822         1         0
     29826         2         0     29831         1         0     29835         1         0
     29837         1         0     29841         1         0     29845         1         0
     29849         1         0     29854         2         0     29859         1         0
     29863         1         0     29865         1         0     29869         2         0
     29872         1         0     29876         1         0     29881         2         0
     29886         2         0     29889         1         0     29893         1         0
     29897         1         0     29902         2         0     29907         2         0
     29910         1         0     29914         1         0     29918         1         0
     29922         2         0     29927         2         0     29930         1         0
     29934         1         0     29938         1         0     29942         2         0
     29947         1         0     29951         1         0     29953         1         0
     29957         1         0     29961         1         0     29965         1         0
     29970         2         0     29974         1         0     29983         2         0
     29990         1         0     29998         1         0     30002         1         0
     30006         2         0     30016         1         0     30024         1         0
     30028         1         0     30036         1         0     30039         1         0
     30042         1         0     30045         1         0     30048         1         0
     30051         1         0     30054         1         0     30057         1         0
     30060         1         0     30063         1         0     30066         1         0
     30069         1         0     30073         1         0     30076         1         0
     30079         1         0     30082         1         0     30085         1         0
     30088         1         0     30091         1         0     30094         1         0
     30097         1         0     30100         1         0     30103         1         0
     30107         1         0     30109         1         0     30112         1         0
     30120         1         0     30123         1         0     30126         1         0
     30129         1         0     30132         1         0     30135         1         0
     30138         1         0     30141         1         0     30144         1         0
     30147         1         0     30151         1         0     30154         1         0
     30157         1         0     30160         1         0     30163         1         0
     30166         1         0     30169         1         0     30172         1         0
     30175         1         0     30178         1         0     30181         1         0
     30185         1         0     30189         1         0     30192         1         0
     30195         1         0     30198         1         0     30201         1         0
     30204         1         0     30207         1         0     30210         1         0
     30213         1         0     30216         1         0     30219         1         0
     30223         1         0     30225         1         0     30228         1         0
     30232         1         0     30235         1         0     30238         1         0
     30241         1         0     30244         1         0     30247         1         0
     30250         1         0     30253         1         0     30256         1         0
     30259         1         0     30262         1         0     30266         2         0
     30273         1         0     30276         2         0     30279         2         0
     30282         1         0     30286         1         0     30291         2         0
     30298         1         0     30301         1         0     30305         1         0
     30309         1         0     30313         1         0     30318         2         0
     30323         1         0     30327         2         0     30330         2         0
     30337         1         0     30341         1         0     30346         2         0
     30351         1         0     30355         2         0     30358         2         0
     30365         1         0     30369         2         0     30373         2         0
     30378         1         0     30382         1         0     30386         1         0
     30390         1         0     30394         1         0     30399         2         0
     30404         1         0     30408         2         0     30411         1         0
     30415         1         0     30420         2         0     30425         2         0
     30428         2         0     30431         1         0     30435         1         0
     30440         2         0     30445         2         0     30448         1         0
     30452         1         0     30456         1         0     30461         2         0
     30466         1         0     30470         1         0     30474         1         0
     30478         1         0     30483         2         0     30488         1         0
     30492         2         0     30495         1         0     30499         1         0
     30504         2         0     30509         1         0     30513         1         0
     30515         1         0     30519         2         0     30522         1         0
     30526         1         0     30531         2         0     30536         2         0
     30539         1         0     30543         1         0     30547         1         0
     30552         2         0     30557         2         0     30560         1         0
     30564         1         0     30568         1         0     30572         2         0
     30577         2         0     30580         2         0     30583         1         0
     30587         1         0     30591         2         0     30596         1         0
     30600         1         0     30602         1         0     30606         1         0
     30610         1         0     30614         1         0     30619         2         0
     30624         1         0     30628         1         0     30630         1         0
     30634         2         0     30637         1         0     30641         1         0
     30646         2         0     30651         2         0     30654         1         0
     30658         1         0     30662         1         0     30667         2         0
     30672         2         0     30675         1         0     30679         1         0
     30683         1         0     30687         2         0     30692         2         0
     30695         2         0     30698         1         0     30702         1         0
     30706         2         0     30711         1         0     30715         1         0
     30717         1         0     30721         1         0     30725         1         0
     30729         1         0     30734         2         0     30739         1         0
     30743         1         0     30745         1         0     30749         2         0
     30752         1         0     30756         1         0     30761         2         0
     30766         2         0     30769         1         0     30773         1         0
     30777         1         0     30782         2         0     30787         2         0
     30790         1         0     30794         1         0     30798         1         0
     30802         2         0     30807         2         0     30810         2         0
     30813         1         0     30817         1         0     30821         2         0
     30826         1         0     30830         1         0     30832         1         0
     30836         1         0     30840         1         0     30844         1         0
     30849         2         0     30854         1         0     30858         1         0
     30860         1         0     30864         2         0     30867         1         0
     30871         1         0     30876         2         0     30881         2         0
     30884         1         0     30888         1         0     30892         1         0
     30897         2         0     30902         2         0     30905         1         0
     30909         1         0     30913         1         0     30917         2         0
     30922         2         0     30925         2         0     30928         1         0
     30932         1         0     30936         2         0     30941         1         0
     30945         1         0     30947         1         0     30951         1         0
     30955         1         0     30959         1         0     30964         2         0
     30969         1         0     30973         1         0     30975         1         0
     30979         2         0     30982         1         0     30986         1         0
     30991         2         0     30996         2         0     30999         1         0
     31003         1         0     31007         1         0     31012         2         0
     31017         2         0     31020         1         0     31024         1         0
     31028         1         0     31032         2         0     31037         2         0
     31040         1         0     31044         1         0     31048         1         0
     31052         2         0     31057         1         0     31061         1         0
     31063         1         0     31067         1         0     31071         1         0
     31075         1         0     31080         2         0     31084         1         0
     31093         2         0     31100         1         0     31108         1         0
     31112         1         0     31116         2         0     31126         1         0
     31134         1         0     31138         1         0     31146         1         0
     31149         1         0     31152         1         0     31155         1         0
     31158         1         0     31161         1         0     31164         1         0
     31167         1         0     31170         1         0     31173         1         0
     31176         1         0     31179         1         0     31183         1         0
     31186         1         0     31189         1         0     31192         1         0
     31195         1         0     31198         1         0     31201         1         0
     31204         1         0     31207         1         0     31210         1         0
     31213         1         0     31217         1         0     31219         1         0
     31222         1         0     31230         1         0     31233         1         0
     31236         1         0     31239         1         0     31242         1         0
     31245         1         0     31248         1         0     31251         1         0
     31254         1         0     31257         1         0     31261         1         0
     31264         1         0     31267         1         0     31270         1         0
     31273         1         0     31276         1         0     31279         1         0
     31282         1         0     31285         1         0     31288         1         0
     31291         1         0     31295         1         0     31299         1         0
     31302         1         0     31305         1         0     31308         1         0
     31311         1         0     31314         1         0     31317         1         0
     31320         1         0     31323         1         0     31326         1         0
     31329         1         0     31333         1         0     31335         1         0
     31338         1         0     31342         1         0     31345         1         0
     31348         1         0     31351         1         0     31354         1         0
     31357         1         0     31360         1         0     31363         1         0
     31366         1         0     31369         1         0     31372         1         0
     31376         2         0     31383         1         0     31386         2         0
     31389         2         0     31392         1         0     31396         1         0
     31401         2         0     31408         1         0     31411         1         0
     31415         1         0     31419         1         0     31423         1         0
     31428         2         0     31433         1         0     31437         2         0
     31440         2         0     31447         1         0     31451         1         0
     31456         2         0     31461         1         0     31465         2         0
     31468         2         0     31475         1         0     31479         2         0
     31483         2         0     31488         1         0     31492         1         0
     31496         1         0     31500         1         0     31504         1         0
     31509         2         0     31514         1         0     31518         2         0
     31521         1         0     31525         1         0     31530         2         0
     31535         2         0     31538         2         0     31541         1         0
     31545         1         0     31550         2         0     31555         2         0
     31558         1         0     31562         1         0     31566         1         0
     31571         2         0     31576         1         0     31580         1         0
     31584         1         0     31588         1         0     31593         2         0
     31598         1         0     31602         2         0     31605         1         0
     31609         1         0     31614         2         0     31619         1         0
     31623         1         0     31625         1         0     31629         2         0
     31632         1         0     31636         1         0     31641         2         0
     31646         2         0     31649         1         0     31653         1         0
     31657         1         0     31662         2         0     31667         2         0
     31670         1         0     31674         1         0     31678         1         0
     31682         2         0     31687         2         0     31690         2         0
     31693         1         0     31697         1         0     31701         2         0
     31706         1         0     31710         1         0     31712         1         0
     31716         1         0     31720         1         0     31724         1         0
     31729         2         0     31734         1         0     31738         1         0
     31740         1         0     31744         2         0     31747         1         0
     31751         1         0     31756         2         0     31761         2         0
     31764         1         0     31768         1         0     31772         1         0
     31777         2         0     31782         2         0     31785         1         0
     31789         1         0     31793         1         0     31797         2         0
     31802         2         0     31805         2         0     31808         1         0
     31812         1         0     31816         2         0     31821         1         0
     31825         1         0     31827         1         0     31831         1         0
     31835         1         0     31839         1         0     31844         2         0
     31849         1         0     31853         1         0     31855         1         0
     31859         2         0     31862         1         0     31866         1         0
     31871         2         0     31876         2         0     31879         1         0
     31883         1         0     31887         1         0     31892         2         0
     31897         2         0     31900         1         0     31904         1         0
     31908         1         0     31912         2         0     31917         2         0
     31920         2         0     31923         1         0     31927         1         0
     31931         2         0     31936         1         0     31940         1         0
     31942         1         0     31946         1         0     31950         1         0
     31954         1         0     31959         2         0     31964         1         0
     31968         1         0     31970         1         0     31974         2         0
     31977         1         0     31981         1         0     31986         2         0
     31991         2         0     31994         1         0     31998         1         0
     32002         1         0     32007         2         0     32012         2         0
     32015         1         0     32019         1         0     32023         1         0
     32027         2         0     32032         2         0     32035         2         0
     32038         1         0     32042         1         0     32046         2         0
     32051         1         0     32055         1         0     32057         1         0
     32061         1         0     32065         1         0     32069         1         0
     32074         2         0     32079         1         0     32083         1         0
     32085         1         0     32089         2         0     32092         1         0
     32096         1         0     32101         2         0     32106         2         0
     32109         1         0     32113         1         0     32117         1         0
     32122         2         0     32127         2         0     32130         1         0
     32134         1         0     32138         1         0     32142         2         0
     32147         2         0     32150         1         0     32154         1         0
     32158         1         0     32162         2         0     32167         1         0
     32171         1         0     32173         1         0     32177         1         0
     32181         1         0     32185         1         0     32190         2         0
     32194         1         0     32203         2         0     32210         1         0
     32218         1         0     32222         1         0     32226         2         0
     32236         1         0     32244         1         0     32248         1         0
     32256         1         0     32259         1         0     32262         1         0
     32265         1         0     32268         1         0     32271         1         0
     32274         1         0     32277         1         0     32280         1         0
     32283         1         0     32286         1         0     32289         1         0
     32293         1         0     32296         1         0     32299         1         0
     32302         1         0     32305         1         0     32308         1         0
     32311         1         0     32314         1         0     32317         1         0
     32320         1         0     32323         1         0     32327         1         0
     32329         1         0     32332         1         0     32340         1         0
     32343         1         0     32346         1         0     32349         1         0
     32352         1         0     32355         1         0     32358         1         0
     32361         1         0     32364         1         0     32367         1         0
     32371         1         0     32374         1         0     32377         1         0
     32380         1         0     32383         1         0     32386         1         0
     32389         1         0     32392         1         0     32395         1         0
     32398         1         0     32401         1         0     32405         1         0
     32409         1         0     32412         1         0     32415         1         0
     32418         1         0     32421         1         0     32424         1         0
     32427         1         0     32430         1         0     32433         1         0
     32436         1         0     32439         1         0     32443         1         0
     32445         1         0     32448         1         0     32452         1         0
     32455         1         0     32458         1         0     32461         1         0
     32464         1         0     32467         1         0     32470         1         0
     32473         1         0     32476         1         0     32479         1         0
     32482         1         0     32486         2         0     32493         1         0
     32496         2         0     32499         2         0     32502         1         0
     32506         1         0     32511         2         0     32518         1         0
     32521         1         0     32525         1         0     32529         1         0
     32533         1         0     32538         2         0     32543         1         0
     32547         2         0     32550         2         0     32557         1         0
     32561         1         0     32566         2         0     32571         1         0
     32575         2         0     32578         2         0     32585         1         0
     32589         2         0     32593         2         0     32598         1         0
     32602         1         0     32606         1         0     32610         1         0
     32614         1         0     32619         2         0     32624         1         0
     32628         2         0     32631         1         0     32635         1         0
     32640         2         0     32645         2         0     32648         2         0
     32651         1         0     32655         1         0     32660         2         0
     32665         2         0     32668         1         0     32672         1         0
     32676         1         0     32681         2         0     32686         1         0
     32690         1         0     32694         1         0     32698         1         0
     32703         2         0     32708         1         0     32712         2         0
     32715         1         0     32719         1         0     32724         2         0
     32729         1         0     32733         1         0     32735         1         0
     32739         2         0     32742         1         0     32746         1         0
     32751         2         0     32756         2         0     32759         1         0
     32763         1         0     32767         1         0     32772         2         0
     32777         2         0     32780         1         0     32784         1         0
     32788         1         0     32792         2         0     32797         2         0
     32800         2         0     32803         1         0     32807         1         0
     32811         2         0     32816         1         0     32820         1         0
     32822         1         0     32826         1         0     32830         1         0
     32834         1         0     32839         2         0     32844         1         0
     32848         1         0     32850         1         0     32854         2         0
     32857         1         0     32861         1         0     32866         2         0
     32871         2         0     32874         1         0     32878         1         0
     32882         1         0     32887         2         0     32892         2         0
     32895         1         0     32899         1         0     32903         1         0
     32907         2         0     32912         2         0     32915         2         0
     32918         1         0     32922         1         0     32926         2         0
     32931         1         0     32935         1         0     32937         1         0
     32941         1         0     32945         1         0     32949         1         0
     32954         2         0     32959         1         0     32963         1         0
     32965         1         0     32969         2         0     32972         1         0
     32976         1         0     32981         2         0     32986         2         0
     32989         1         0     32993         1         0     32997         1         0
     33002         2         0     33007         2         0     33010         1         0
     33014         1         0     33018         1         0     33022         2         0
     33027         2         0     33030         2         0     33033         1         0
     33037         1         0     33041         2         0     33046         1         0
     33050         1         0     33052         1         0     33056         1         0
     33060         1         0     33064         1         0     33069         2         0
     33074         1         0     33078         1         0     33080         1         0
     33084         2         0     33087         1         0     33091         1         0
     33096         2         0     33101         2         0     33104         1         0
     33108         1         0     33112         1         0     33117         2         0
     33122         2         0     33125         1         0     33129         1         0
     33133         1         0     33137         2         0     33142         2         0
     33145         2         0     33148         1         0     33152         1         0
     33156         2         0     33161         1         0     33165         1         0
     33167         1         0     33171         1         0     33175         1         0
     33179         1         0     33184         2         0     33189         1         0
     33193         1         0     33195         1         0     33199         2         0
     33202         1         0     33206         1         0     33211         2         0
     33216         2         0     33219         1         0     33223         1         0
     33227         1         0     33232         2         0     33237         2         0
     33240         1         0     33244         1         0     33248         1         0
     33252         2         0     33257         2         0     33260         1         0
     33264         1         0     33268         1         0     33272         2         0
     33277         1         0     33281         1         0     33283         1         0
     33287         1         0     33291         1         0     33295         1         0
     33300         2         0     33304         1         0     33313         2         0
     33320         1         0     33328         1         0     33332         1         0
     33336         2         0     33346         1         0     33354         1         0
     33358         1         0     33366         1         0     33369         1         0
     33372         1         0     33375         1         0     33378         1         0
     33381         1         0     33384         1         0     33387         1         0
     33390         1         0     33393         1         0     33396         1         0
     33399         1         0     33403         1         0     33406         1         0
     33409         1         0     33412         1         0     33415         1         0
     33418         1         0     33421         1         0     33424         1         0
     33427         1         0     33430         1         0     33433         1         0
     33437         1         0     33439         1         0     33442         1         0
     33450         1         0     33453         1         0     33456         1         0
     33459         1         0     33462         1         0     33465         1         0
     33468         1         0     33471         1         0     33474         1         0
     33477         1         0     33481         1         0     33484         1         0
     33487         1         0     33490         1         0     33493         1         0
     33496         1         0     33499         1         0     33502         1         0
     33505         1         0     33508         1         0     33511         1         0
     33515         1         0     33519         1         0     33522         1         0
     33525         1         0     33528         1         0     33531         1         0
     33534         1         0     33537         1         0     33540         1         0
     33543         1         0     33546         1         0     33549         1         0
     33553         1         0     33555         1         0     33558         1         0
     33562         1         0     33565         1         0     33568         1         0
     33571         1         0     33574         1         0     33577         1         0
     33580         1         0     33583         1         0     33586         1         0
     33589         1         0     33592         1         0     33596         2         0
     33603         1         0     33606         2         0     33609         2         0
     33612         1         0     33616         1         0     33621         2         0
     33628         1         0     33631         1         0     33635         1         0
     33639         1         0     33643         1         0     33648         2         0
     33653         1         0     33657         2         0     33660         2         0
     33667         1         0     33671         1         0     33676         2         0
     33681         1         0     33685         2         0     33688         2         0
     33695         1         0     33699         2         0     33703         2         0
     33708         1         0     33712         1         0     33716         1         0
     33720         1         0     33724         1         0     33729         2         0
     33734         1         0     33738         2         0     33741         1         0
     33745         1         0     33750         2         0     33755         2         0
     33758         2         0     33761         1         0     33765         1         0
     33770         2         0     33775         2         0     33778         1         0
     33782         1         0     33786         1         0     33791         2         0
     33796         1         0     33800         1         0     33804         1         0
     33808         1         0     33813         2         0     33818         1         0
     33822         2         0     33825         1         0     33829         1         0
     33834         2         0     33839         1         0     33843         1         0
     33845         1         0     33849         2         0     33852         1         0
     33856         1         0     33861         2         0     33866         2         0
     33869         1         0     33873         1         0     33877         1         0
     33882         2         0     33887         2         0     33890         1         0
     33894         1         0     33898         1         0     33902         2         0
     33907         2         0     33910         2         0     33913         1         0
     33917         1         0     33921         2         0     33926         1         0
     33930         1         0     33932         1         0     33936         1         0
     33940         1         0     33944         1         0     33949         2         0
     33954         1         0     33958         1         0     33960         1         0
     33964         2         0     33967         1         0     33971         1         0
     33976         2         0     33981         2         0     33984         1         0
     33988         1         0     33992         1         0     33997         2         0
     34002         2         0     34005         1         0     34009         1         0
     34013         1         0     34017         2         0     34022         2         0
     34025         2         0     34028         1         0     34032         1         0
     34036         2         0     34041         1         0     34045         1         0
     34047         1         0     34051         1         0     34055         1         0
     34059         1         0     34064         2         0     34069         1         0
     34073         1         0     34075         1         0     34079         2         0
     34082         1         0     34086         1         0     34091         2         0
     34096         2         0     34099         1         0     34103         1         0
     34107         1         0     34112         2         0     34117         2         0
     34120         1         0     34124         1         0     34128         1         0
     34132         2         0     34137         2         0     34140         2         0
     34143         1         0     34147         1         0     34151         2         0
     34156         1         0     34160         1         0     34162         1         0
     34166         1         0     34170         1         0     34174         1         0
     34179         2         0     34184         1         0     34188         1         0
     34190         1         0     34194         2         0     34197         1         0
     34201         1         0     34206         2         0     34211         2         0
     34214         1         0     34218         1         0     34222         1         0
     34227         2         0     34232         2         0     34235         1         0
     34239         1         0     34243         1         0     34247         2         0
     34252         2         0     34255         2         0     34258         1         0
     34262         1         0     34266         2         0     34271         1         0
     34275         1         0     34277         1         0     34281         1         0
     34285         1         0     34289         1         0     34294         2         0
     34299         1         0     34303         1         0     34305         1         0
     34309         2         0     34312         1         0     34316         1         0
     34321         2         0     34326         2         0     34329         1         0
     34333         1         0     34337         1         0     34342         2         0
     34347         2         0     34350         1         0     34354         1         0
     34358         1         0     34362         2         0     34367         2         0
     34370         1         0     34374         1         0     34378         1         0
     34382         2         0     34387         1         0     34391         1         0
     34393         1         0     34397         1         0     34401         1         0
     34405         1         0     34410         2         0     34414         1         0
     34423         2         0     34430         1         0     34438         1         0
     34442         1         0     34446         2         0     34456         1         0
     34464         1         0     34468         1         0     34476         1         0
     34479         1         0     34482         1         0     34485         1         0
     34488         1         0     34491         1         0     34494         1         0
     34497         1         0     34500         1         0     34503         1         0
     34506         1         0     34509         1         0     34513         1         0
     34516         1         0     34519         1         0     34522         1         0
     34525         1         0     34528         1         0     34531         1         0
     34534         1         0     34537         1         0     34540         1         0
     34543         1         0     34547         1         0     34549         1         0
     34552         1         0     34560         1         0     34563         1         0
     34566         1         0     34569         1         0     34572         1         0
     34575         1         0     34578         1         0     34581         1         0
     34584         1         0     34587         1         0     34591         1         0
     34594         1         0     34597         1         0     34600         1         0
     34603         1         0     34606         1         0     34609         1         0
     34612         1         0     34615         1         0     34618         1         0
     34621         1         0     34625         1         0     34629         1         0
     34632         1         0     34635         1         0     34638         1         0
     34641         1         0     34644         1         0     34647         1         0
     34650         1         0     34653         1         0     34656         1         0
     34659         1         0     34663         1         0     34665         1         0
     34668         1         0     34672         1         0     34675         1         0
     34678         1         0     34681         1         0     34684         1         0
     34687         1         0     34690         1         0     34693         1         0
     34696         1         0     34699         1         0     34702         1         0
     34706         2         0     34713         1         0     34716         2         0
     34719         2         0     34722         1         0     34726         1         0
     34731         2         0     34738         1         0     34741         1         0
     34745         1         0     34749         1         0     34753         1         0
     34758         2         0     34763         1         0     34767         2         0
     34770         2         0     34777         1         0     34781         1         0
     34786         2         0     34791         1         0     34795         2         0
     34798         2         0     34805         1         0     34809         2         0
     34813         2         0     34818         1         0     34822         1         0
     34826         1         0     34830         1         0     34834         1         0
     34839         2         0     34844         1         0     34848         2         0
     34851         1         0     34855         1         0     34860         2         0
     34865         2         0     34868         2         0     34871         1         0
     34875         1         0     34880         2         0     34885         2         0
     34888         1         0     34892         1         0     34896         1         0
     34901         2         0     34906         1         0     34910         1         0
     34914         1         0     34918         1         0     34923         2         0
     34928         1         0     34932         2         0     34935         1         0
     34939         1         0     34944         2         0     34949         1         0
     34953         1         0     34955         1         0     34959         2         0
     34962         1         0     34966         1         0     34971         2         0
     34976         2         0     34979         1         0     34983         1         0
     34987         1         0     34992         2         0     34997         2         0
     35000         1         0     35004         1         0     35008         1         0
     35012         2         0     35017         2         0     35020         2         0
     35023         1         0     35027         1         0     35031         2         0
     35036         1         0     35040         1         0     35042         1         0
     35046         1         0     35050         1         0     35054         1         0
     35059         2         0     35064         1         0     35068         1         0
     35070         1         0     35074         2         0     35077         1         0
     35081         1         0     35086         2         0     35091         2         0
     35094         1         0     35098         1         0     35102         1         0
     35107         2         0     35112         2         0     35115         1         0
     35119         1         0     35123         1         0     35127         2         0
     35132         2         0     35135         2         0     35138         1         0
     35142         1         0     35146         2         0     35151         1         0
     35155         1         0     35157         1         0     35161         1         0
     35165         1         0     35169         1         0     35174         2         0
     35179         1         0     35183         1         0     35185         1         0
     35189         2         0     35192         1         0     35196         1         0
     35201         2         0     35206         2         0     35209         1         0
     35213         1         0     35217         1         0     35222         2         0
     35227         2         0     35230         1         0     35234         1         0
     35238         1         0     35242         2         0     35247         2         0
     35250         2         0     35253         1         0     35257         1         0
     35261         2         0     35266         1         0     35270         1         0
     35272         1         0     35276         1         0     35280         1         0
     35284         1         0     35289         2         0     35294         1         0
     35298         1         0     35300         1         0     35304         2         0
     35307         1         0     35311         1         0     35316         2         0
     35321         2         0     35324         1         0     35328         1         0
     35332         1         0     35337         2         0     35342         2         0
     35345         1         0     35349         1         0     35353         1         0
     35357         2         0     35362         2         0     35365         2         0
     35368         1         0     35372         1         0     35376         2         0
     35381         1         0     35385         1         0     35387         1         0
     35391         1         0     35395         1         0     35399         1         0
     35404         2         0     35409         1         0     35413         1         0
     35415         1         0     35419         2         0     35422         1         0
     35426         1         0     35431         2         0     35436         2         0
     35439         1         0     35443         1         0     35447         1         0
     35452         2         0     35457         2         0     35460         1         0
     35464         1         0     35468         1         0     35472         2         0
     35477         2         0     35480         1         0     35484         1         0
     35488         1         0     35492         2         0     35497         1         0
     35501         1         0     35503         1         0     35507         1         0
     35511         1         0     35515         1         0     35520         2         0
     35524         1         0     35533         2         0     35540         1         0
     35548         1         0     35552         1         0     35556         2         0
     35566         1         0     35574         1         0     35578         1         0
     35586         1         0     35589         1         0     35592         1         0
     35595         1         0     35598         1         0     35601         1         0
     35604         1         0     35607         1         0     35610         1         0
     35613         1         0     35616         1         0     35619         1         0
     35623         1         0     35626         1         0     35629         1         0
     35632         1         0     35635         1         0     35638         1         0
     35641         1         0     35644         1         0     35647         1         0
     35650         1         0     35653         1         0     35657         1         0
     35659         1         0     35662         1         0     35670         1         0
     35673         1         0     35676         1         0     35679         1         0
     35682         1         0     35685         1         0     35688         1         0
     35691         1         0     35694         1         0     35697         1         0
     35701         1         0     35704         1         0     35707         1         0
     35710         1         0     35713         1         0     35716         1         0
     35719         1         0     35722         1         0     35725         1         0
     35728         1         0     35731         1         0     35735         1         0
     35739         1         0     35742         1         0     35745         1         0
     35748         1         0     35751         1         0     35754         1         0
     35757         1         0     35760         1         0     35763         1         0
     35766         1         0     35769         1         0     35773         1         0
     35775         1         0     35778         1         0     35782         1         0
     35785         1         0     35788         1         0     35791         1         0
     35794         1         0     35797         1         0     35800         1         0
     35803         1         0     35806         1         0     35809         1         0
     35812         1         0     35816         2         0     35823         1         0
     35826         2         0     35829         2         0     35832         1         0
     35836         1         0     35841         2         0     35848         1         0
     35851         1         0     35855         1         0     35859         1         0
     35863         1         0     35868         2         0     35873         1         0
     35877         2         0     35880         2         0     35887         1         0
     35891         1         0     35896         2         0     35901         1         0
     35905         2         0     35908         2         0     35915         1         0
     35919         2         0     35923         2         0     35928         1         0
     35932         1         0     35936         1         0     35940         1         0
     35944         1         0     35949         2         0     35954         1         0
     35958         2         0     35961         1         0     35965         1         0
     35970         2         0     35975         2         0     35978         2         0
     35981         1         0     35985         1         0     35990         2         0
     35995         2         0     35998         1         0     36002         1         0
     36006         1         0     36011         2         0     36016         1         0
     36020         1         0     36024         1         0     36028         1         0
     36033         2         0     36038         1         0     36042         2         0
     36045         1         0     36049         1         0     36054         2         0
     36059         1         0     36063         1         0     36065         1         0
     36069         2         0     36072         1         0     36076         1         0
     36081         2         0     36086         2         0     36089         1         0
     36093         1         0     36097         1         0     36102         2         0
     36107         2         0     36110         1         0     36114         1         0
     36118         1         0     36122         2         0     36127         2         0
     36130         2         0     36133         1         0     36137         1         0
     36141         2         0     36146         1         0     36150         1         0
     36152         1         0     36156         1         0     36160         1         0
     36164         1         0     36169         2         0     36174         1         0
     36178         1         0     36180         1         0     36184         2         0
     36187         1         0     36191         1         0     36196         2         0
     36201         2         0     36204         1         0     36208         1         0
     36212         1         0     36217         2         0     36222         2         0
     36225         1         0     36229         1         0     36233         1         0
     36237         2         0     36242         2         0     36245         2         0
     36248         1         0     36252         1         0     36256         2         0
     36261         1         0     36265         1         0     36267         1         0
     36271         1         0     36275         1         0     36279         1         0
     36284         2         0     36289         1         0     36293         1         0
     36295         1         0     36299         2         0     36302         1         0
     36306         1         0     36311         2         0     36316         2         0
     36319         1         0     36323         1         0     36327         1         0
     36332         2         0     36337         2         0     36340         1         0
     36344         1         0     36348         1         0     36352         2         0
     36357         2         0     36360         2         0     36363         1         0
     36367         1         0     36371         2         0     36376         1         0
     36380         1         0     36382         1         0     36386         1         0
     36390         1         0     36394         1         0     36399         2         0
     36404         1         0     36408         1         0     36410         1         0
     36414         2         0     36417         1         0     36421         1         0
     36426         2         0     36431         2         0     36434         1         0
     36438         1         0     36442         1         0     36447         2         0
     36452         2         0     36455         1         0     36459         1         0
     36463         1         0     36467         2         0     36472         2         0
     36475         2         0     36478         1         0     36482         1         0
     36486         2         0     36491         1         0     36495         1         0
     36497         1         0     36501         1         0     36505         1         0
     36509         1         0     36514         2         0     36519         1         0
     36523         1         0     36525         1         0     36529         2         0
     36532         1         0     36536         1         0     36541         2         0
     36546         2         0     36549         1         0     36553         1         0
     36557         1         0     36562         2         0     36567         2         0
     36570         1         0     36574         1         0     36578         1         0
     36582         2         0     36587         2         0     36590         1         0
     36594         1         0     36598         1         0     36602         2         0
     36607         1         0     36611         1         0     36613         1         0
     36617         1         0     36621         1         0     36625         1         0
     36630         2         0     36634         1         0     36643         2         0
     36650         1         0     36658         1         0     36662         1         0
     36666         2         0     36676         1         0     36684         1         0
     36688         1         0     36696         1         0     36699         1         0
     36702         1         0     36705         1         0     36708         1         0
     36711         1         0     36714         1         0     36717         1         0
     36720         1         0     36723         1         0     36726         1         0
     36729         1         0     36733         1         0     36736         1         0
     36739         1         0     36742         1         0     36745         1         0
     36748         1         0     36751         1         0     36754         1         0
     36757         1         0     36760         1         0     36763         1         0
     36767         1         0     36769         1         0     36772         1         0
     36780         1         0     36783         1         0     36786         1         0
     36789         1         0     36792         1         0     36795         1         0
     36798         1         0     36801         1         0     36804         1         0
     36807         1         0     36811         1         0     36814         1         0
     36817         1         0     36820         1         0     36823         1         0
     36826         1         0     36829         1         0     36832         1         0
     36835         1         0     36838         1         0     36841         1         0
     36845         1         0     36849         1         0     36852         1         0
     36855         1         0     36858         1         0     36861         1         0
     36864         1         0     36867         1         0     36870         1         0
     36873         1         0     36876         1         0     36879         1         0
     36883         1         0     36885         1         0     36888         1         0
     36892         1         0     36895         1         0     36898         1         0
     36901         1         0     36904         1         0     36907         1         0
     36910         1         0     36913         1         0     36916         1         0
     36919         1         0     36922         1         0     36926         2         0
     36933         1         0     36936         2         0     36939         2         0
     36942         1         0     36946         1         0     36951         2         0
     36958         1         0     36961         1         0     36965         1         0
     36969         1         0     36973         1         0     36978         2         0
     36983         1         0     36987         2         0     36990         2         0
     36997         1         0     37001         1         0     37006         2         0
     37011         1         0     37015         2         0     37018         2         0
     37025         1         0     37029         2         0     37033         2         0
     37038         1         0     37042         1         0     37046         1         0
     37050         1         0     37054         1         0     37059         2         0
     37064         1         0     37068         2         0     37071         1         0
     37075         1         0     37080         2         0     37085         2         0
     37088         2         0     37091         1         0     37095         1         0
     37100         2         0     37105         2         0     37108         1         0
     37112         1         0     37116         1         0     37121         2         0
     37126         1         0     37130         1         0     37134         1         0
     37138         1         0     37143         2         0     37148         1         0
     37152         2         0     37155         1         0     37159         1         0
     37164         2         0     37169         1         0     37173         1         0
     37175         1         0     37179         2         0     37182         1         0
     37186         1         0     37191         2         0     37196         2         0
     37199         1         0     37203         1         0     37207         1         0
     37212         2         0     37217         2         0     37220         1         0
     37224         1         0     37228         1         0     37232         2         0
     37237         2         0     37240         2         0     37243         1         0
     37247         1         0     37251         2         0     37256         1         0
     37260         1         0     37262         1         0     37266         1         0
     37270         1         0     37274         1         0     37279         2         0
     37284         1         0     37288         1         0     37290         1         0
     37294         2         0     37297         1         0     37301         1         0
     37306         2         0     37311         2         0     37314         1         0
     37318         1         0     37322         1         0     37327         2         0
     37332         2         0     37335         1         0     37339         1         0
     37343         1         0     37347         2         0     37352         2         0
     37355         2         0     37358         1         0     37362         1         0
     37366         2         0     37371         1         0     37375         1         0
     37377         1         0     37381         1         0     37385         1         0
     37389         1         0     37394         2         0     37399         1         0
     37403         1         0     37405         1         0     37409         2         0
     37412         1         0     37416         1         0     37421         2         0
     37426         2         0     37429         1         0     37433         1         0
     37437         1         0     37442         2         0     37447         2         0
     37450         1         0     37454         1         0     37458         1         0
     37462         2         0     37467         2         0     37470         2         0
     37473         1         0     37477         1         0     37481         2         0
     37486         1         0     37490         1         0     37492         1         0
     37496         1         0     37500         1         0     37504         1         0
     37509         2         0     37514         1         0     37518         1         0
     37520         1         0     37524         2         0     37527         1         0
     37531         1         0     37536         2         0     37541         2         0
     37544         1         0     37548         1         0     37552         1         0
     37557         2         0     37562         2         0     37565         1         0
     37569         1         0     37573         1         0     37577         2         0
     37582         2         0     37585         2         0     37588         1         0
     37592         1         0     37596         2         0     37601         1         0
     37605         1         0     37607         1         0     37611         1         0
     37615         1         0     37619         1         0     37624         2         0
     37629         1         0     37633         1         0     37635         1         0
     37639         2         0     37642         1         0     37646         1         0
     37651         2         0     37656         2         0     37659         1         0
     37663         1         0     37667         1         0     37672         2         0
     37677         2         0     37680         1         0     37684         1         0
     37688         1         0     37692         2         0     37697         2         0
     37700         1         0     37704         1         0     37708         1         0
     37712         2         0     37717         1         0     37721         1         0
     37723         1         0     37727         1         0     37731         1         0
     37735         1         0     37740         2         0     37744         1         0
     37753         2         0     37760         1         0     37768         1         0
     37772         1         0     37776         2         0     37786         1         0
     37794         1         0     37798         1         0     37806         1         0
     37809         1         0     37812         1         0     37815         1         0
     37818         1         0     37821         1         0     37824         1         0
     37827         1         0     37830         1         0     37833         1         0
     37836         1         0     37839         1         0     37843         1         0
     37846         1         0     37849         1         0     37852         1         0
     37855         1         0     37858         1         0     37861         1         0
     37864         1         0     37867         1         0     37870         1         0
     37873         1         0     37877         1         0     37879         1         0
     37882         1         0     37890         1         0     37893         1         0
     37896         1         0     37899         1         0     37902         1         0
     37905         1         0     37908         1         0     37911         1         0
     37914         1         0     37917         1         0     37921         1         0
     37924         1         0     37927         1         0     37930         1         0
     37933         1         0     37936         1         0     37939         1         0
     37942         1         0     37945         1         0     37948         1         0
     37951         1         0     37955         1         0     37959         1         0
     37962         1         0     37965         1         0     37968         1         0
     37971         1         0     37974         1         0     37977         1         0
     37980         1         0     37983         1         0     37986         1         0
     37989         1         0     37993         1         0     37995         1         0
     37998         1         0     38002         1         0     38005         1         0
     38008         1         0     38011         1         0     38014         1         0
     38017         1         0     38020         1         0     38023         1         0
     38026         1         0     38029         1         0     38032         1         0
     38036         2         0     38043         1         0     38046         2         0
     38049         2         0     38052         1         0     38056         1         0
     38061         2         0     38068         1         0     38071         1         0
     38075         1         0     38079         1         0     38083         1         0
     38088         2         0     38093         1         0     38097         2         0
     38100         2         0     38107         1         0     38111         1         0
     38116         2         0     38121         1         0     38125         2         0
     38128         2         0     38135         1         0     38139         2         0
     38143         2         0     38148         1         0     38152         1         0
     38156         1         0     38160         1         0     38164         1         0
     38169         2         0     38174         1         0     38178         2         0
     38181         1         0     38185         1         0     38190         2         0
     38195         2         0     38198         2         0     38201         1         0
     38205         1         0     38210         2         0     38215         2         0
     38218         1         0     38222         1         0     38226         1         0
     38231         2         0     38236         1         0     38240         1         0
     38244         1         0     38248         1         0     38253         2         0
     38258         1         0     38262         2         0     38265         1         0
     38269         1         0     38274         2         0     38279         1         0
     38283         1         0     38285         1         0     38289         2         0
     38292         1         0     38296         1         0     38301         2         0
     38306         2         0     38309         1         0     38313         1         0
     38317         1         0     38322         2         0     38327         2         0
     38330         1         0     38334         1         0     38338         1         0
     38342         2         0     38347         2         0     38350         2         0
     38353         1         0     38357         1         0     38361         2         0
     38366         1         0     38370         1         0     38372         1         0
     38376         1         0     38380         1         0     38384         1         0
     38389         2         0     38394         1         0     38398         1         0
     38400         1         0     38404         2         0     38407         1         0
     38411         1         0     38416         2         0     38421         2         0
     38424         1         0     38428         1         0     38432         1         0
     38437         2         0     38442         2         0     38445         1         0
     38449         1         0     38453         1         0     38457         2         0
     38462         2         0     38465         2         0     38468         1         0
     38472         1         0     38476         2         0     38481         1         0
     38485         1         0     38487         1         0     38491         1         0
     38495         1         0     38499         1         0     38504         2         0
     38509         1         0     38513         1         0     38515         1         0
     38519         2         0     38522         1         0     38526         1         0
     38531         2         0     38536         2         0     38539         1         0
     38543         1         0     38547         1         0     38552         2         0
     38557         2         0     38560         1         0     38564         1         0
     38568         1         0     38572         2         0     38577         2         0
     38580         2         0     38583         1         0     38587         1         0
     38591         2         0     38596         1         0     38600         1         0
     38602         1         0     38606         1         0     38610         1         0
     38614         1         0     38619         2         0     38624         1         0
     38628         1         0     38630         1         0     38634         2         0
     38637         1         0     38641         1         0     38646         2         0
     38651         2         0     38654         1         0     38658         1         0
     38662         1         0     38667         2         0     38672         2         0
     38675         1         0     38679         1         0     38683         1         0
     38687         2         0     38692         2         0     38695         2         0
     38698         1         0     38702         1         0     38706         2         0
     38711         1         0     38715         1         0     38717         1         0
     38721         1         0     38725         1         0     38729         1         0
     38734         2         0     38739         1         0     38743         1         0
     38745         1         0     38749         2         0     38752         1         0
     38756         1         0     38761         2         0     38766         2         0
     38769         1         0     38773         1         0     38777         1         0
     38782         2         0     38787         2         0     38790         1         0
     38794         1         0     38798         1         0     38802         2         0
     38807         2         0     38810         1         0     38814         1         0
     38818         1         0     38822         2         0     38827         1         0
     38831         1         0     38833         1         0     38837         1         0
     38841         1         0     38845         1         0     38850         1         0
     38855         1         0     38859         2         0     38870         1         0
     38878         1         0     38887         1         0     38890         1         0
     38893         1         0     38896         1         0     38899         1         0
     38902         1         0     38905         1         0     38908         1         0
     38911         1         0     38913         1         0     38915         1         0
     38918         1         0     38921         1         0     38924         1         0
     38927         1         0     38930         1         0     38934         1         0
     38937         1         0     38940         1         0     38943         1         0
     38946         1         0     38949         1         0     38952         1         0
     38955         1         0     38958         1         0     38961         1         0
     38964         1         0     38967         1         0     38970         1         0
     38973         1         0     38977         2         0     38984         2         0
     38995         1         0     39003         1         0     39012         1         0
     39015         1         0     39018         1         0     39021         1         0
     39024         1         0     39027         1         0     39030         1         0
     39032         1         0     39034         1         0     39037         1         0
     39040         1         0     39043         1         0     39046         1         0
     39049         1         0     39053         1         0     39056         1         0
     39059         1         0     39062         1         0     39065         1         0
     39068         1         0     39071         1         0     39074         1         0
     39077         1         0     39080         1         0     39083         1         0
     39086         1         0     39089         1         0     39092         1         0
     39096         2         0     39103         2         0     39114         1         0
     39122         1         0     39131         1         0     39134         1         0
     39137         1         0     39140         1         0     39143         1         0
     39146         1         0     39149         1         0     39151         1         0
     39153         1         0     39156         1         0     39159         1         0
     39162         1         0     39165         1         0     39168         1         0
     39172         1         0     39175         1         0     39178         1         0
     39181         1         0     39184         1         0     39187         1         0
     39190         1         0     39193         1         0     39196         1         0
     39199         1         0     39202         1         0     39205         1         0
     39208         1         0     39211         1         0     39215         1         0
     39220         1         0     39224         2         0     39235         1         0
     39243         1         0     39252         1         0     39255         1         0
     39258         1         0     39261         1         0     39264         1         0
     39267         1         0     39270         1         0     39273         1         0
     39276         1         0     39278         1         0     39280         1         0
     39283         1         0     39286         1         0     39289         1         0
     39292         1         0     39295         1         0     39299         1         0
     39302         1         0     39305         1         0     39308         1         0
     39311         1         0     39314         1         0     39317         1         0
     39320         1         0     39323         1         0     39326         1         0
     39329         1         0     39332         1         0     39335         1         0
     39338         1         0     39342         2         0     39349         2         0
     39360         1         0     39368         1         0     39377         1         0
     39380         1         0     39383         1         0     39386         1         0
     39389         1         0     39392         1         0     39395         1         0
     39397         1         0     39399         1         0     39402         1         0
     39405         1         0     39408         1         0     39411         1         0
     39414         1         0     39418         1         0     39421         1         0
     39424         1         0     39427         1         0     39430         1         0
     39433         1         0     39436         1         0     39439         1         0
     39442         1         0     39445         1         0     39448         1         0
     39451         1         0     39454         1         0     39457         1         0
     39461         2         0     39468         2         0     39479         1         0
     39487         1         0     39496         1         0     39499         1         0
     39502         1         0     39505         1         0     39508         1         0
     39511         1         0     39514         1         0     39516         1         0
     39518         1         0     39521         1         0     39524         1         0
     39527         1         0     39530         1         0     39533         1         0
     39537         1         0     39540         1         0     39543         1         0
     39546         1         0     39549         1         0     39552         1         0
     39555         1         0     39558         1         0     39561         1         0
     39564         1         0     39567         1         0     39570         1         0
     39573         1         0     39576         1         0     39580         2         0
     39587         2         0     39598         1         0     39606         1         0
     39615         1         0     39618         1         0     39621         1         0
     39624         1         0     39627         1         0     39630         1         0
     39633         1         0     39635         1         0     39637         1         0
     39640         1         0     39643         1         0     39646         1         0
     39649         1         0     39652         1         0     39656         1         0
     39659         1         0     39662         1         0     39665         1         0
     39668         1         0     39671         1         0     39674         1         0
     39677         1         0     39680         1         0     39683         1         0
     39686         1         0     39689         1         0     39692         1         0
     39695         1         0     39699         2         0     39706         2         0
     39717         1         0     39725         1         0     39734         1         0
     39737         1         0     39740         1         0     39743         1         0
     39746         1         0     39749         1         0     39752         1         0
     39754         1         0     39756         1         0     39759         1         0
     39762         1         0     39765         1         0     39768         1         0
     39771         1         0     39775         1         0     39778         1         0
     39781         1         0     39784         1         0     39787         1         0
     39790         1         0     39793         1         0     39796         1         0
     39799         1         0     39802         1         0     39805         1         0
     39808         1         0     39811         1         0     39814         1         0
     39818         2         0     39825         2         0     39836         1         0
     39844         1         0     39853         1         0     39856         1         0
     39859         1         0     39862         1         0     39865         1         0
     39868         1         0     39871         1         0     39873         1         0
     39875         1         0     39878         1         0     39881         1         0
     39884         1         0     39887         1         0     39890         1         0
     39894         1         0     39897         1         0     39900         1         0
     39903         1         0     39906         1         0     39909         1         0
     39912         1         0     39915         1         0     39918         1         0
     39921         1         0     39924         1         0     39927         1         0
     39930         1         0     39933         1         0     39937         1         0
     39942         1         0     39946         2         0     39957         1         0
     39965         1         0     39974         1         0     39977         1         0
     39980         1         0     39983         1         0     39986         1         0
     39989         1         0     39992         1         0     39995         1         0
     39998         1         0     40000         1         0     40002         1         0
     40005         1         0     40008         1         0     40011         1         0
     40014         1         0     40017         1         0     40021         1         0
     40024         1         0     40027         1         0     40030         1         0
     40033         1         0     40036         1         0     40039         1         0
     40042         1         0     40045         1         0     40048         1         0
     40051         1         0     40054         1         0     40057         1         0
     40060         1         0     40064         2         0     40071         2         0
     40082         1         0     40090         1         0     40099         1         0
     40102         1         0     40105         1         0     40108         1         0
     40111         1         0     40114         1         0     40117         1         0
     40119         1         0     40121         1         0     40124         1         0
     40127         1         0     40130         1         0     40133         1         0
     40136         1         0     40140         1         0     40143         1         0
     40146         1         0     40149         1         0     40152         1         0
     40155         1         0     40158         1         0     40161         1         0
     40164         1         0     40167         1         0     40170         1         0
     40173         1         0     40176         1         0     40179         1         0
     40183         2         0     40190         2         0     40201         1         0
     40209         1         0     40218         1         0     40221         1         0
     40224         1         0     40227         1         0     40230         1         0
     40233         1         0     40236         1         0     40238         1         0
     40240         1         0     40243         1         0     40246         1         0
     40249         1         0     40252         1         0     40255         1         0
     40259         1         0     40262         1         0     40265         1         0
     40268         1         0     40271         1         0     40274         1         0
     40277         1         0     40280         1         0     40283         1         0
     40286         1         0     40289         1         0     40292         1         0
     40295         1         0     40298         1         0     40302         2         0
     40309         2         0     40320         1         0     40328         1         0
     40337         1         0     40340         1         0     40343         1         0
     40346         1         0     40349         1         0     40352         1         0
     40355         1         0     40357         1         0     40359         1         0
     40362         1         0     40365         1         0     40368         1         0
     40371         1         0     40374         1         0     40378         1         0
     40381         1         0     40384         1         0     40387         1         0
     40390         1         0     40393         1         0     40396         1         0
     40399         1         0     40402         1         0     40405         1         0
     40408         1         0     40411         1         0     40414         1         0
     40417         1         0     40421         2         0     40428         2         0
     40439         1         0     40447         1         0     40456         1         0
     40459         1         0     40462         1         0     40465         1         0
     40468         1         0     40471         1         0     40474         1         0
     40476         1         0     40478         1         0     40481         1         0
     40484         1         0     40487         1         0     40490         1         0
     40493         1         0     40497         1         0     40500         1         0
     40503         1         0     40506         1         0     40509         1         0
     40512         1         0     40515         1         0     40518         1         0
     40521         1         0     40524         1         0     40527         1         0
     40530         1         0     40533         1         0     40536         1         0
     40540         2         0     40547         2         0     40558         1         0
     40566         1         0     40575         1         0     40578         1         0
     40581         1         0     40584         1         0     40587         1         0
     40590         1         0     40593         1         0     40595         1         0
     40597         1         0     40600         1         0     40603         1         0
     40606         1         0     40609         1         0     40612         1         0
     40616         1         0     40619         1         0     40622         1         0
     40625         1         0     40628         1         0     40631         1         0
     40634         1         0     40637         1         0     40640         1         0
     40643         1         0     40646         1         0     40649         1         0
     40652         1         0     40655         1         0     40659         2         0
     40666         2         0     40677         1         0     40685         1         0
     40694         1         0     40697         1         0     40700         1         0
     40703         1         0     40706         1         0     40709         1         0
     40712         1         0     40714         1         0     40716         1         0
     40719         1         0     40722         1         0     40725         1         0
     40728         1         0     40731         1         0     40735         1         0
     40738         1         0     40741         1         0     40744         1         0
     40747         1         0     40750         1         0     40753         1         0
     40756         1         0     40759         1         0     40762         1         0
     40765         1         0     40768         1         0     40771         1         0
     40774         1         0     40778         1         0     40783         1         0
     40787         2         0     40798         1         0     40806         1         0
     40815         1         0     40818         1         0     40821         1         0
     40824         1         0     40827         1         0     40830         1         0
     40833         1         0     40836         1         0     40839         1         0
     40841         1         0     40843         1         0     40846         1         0
     40849         1         0     40852         1         0     40855         1         0
     40858         1         0     40862         1         0     40865         1         0
     40868         1         0     40871         1         0     40874         1         0
     40877         1         0     40880         1         0     40883         1         0
     40886         1         0     40889         1         0     40892         1         0
     40895         1         0     40898         1         0     40901         1         0
     40905         1         0     40910         1         0     40914         2         0
     40925         1         0     40933         1         0     40942         1         0
     40945         1         0     40948         1         0     40951         1         0
     40954         1         0     40957         1         0     40960         1         0
     40963         1         0     40966         1         0     40968         1         0
     40970         1         0     40973         1         0     40976         1         0
     40979         1         0     40982         1         0     40985         1         0
     40989         1         0     40992         1         0     40995         1         0
     40998         1         0     41001         1         0     41004         1         0
     41007         1         0     41010         1         0     41013         1         0
     41016         1         0     41019         1         0     41022         1         0
     41025         1         0     41028         1         0     41032         2         0
     41039         2         0     41050         1         0     41058         1         0
     41067         1         0     41070         1         0     41073         1         0
     41076         1         0     41079         1         0     41082         1         0
     41085         1         0     41087         1         0     41089         1         0
     41092         1         0     41095         1         0     41098         1         0
     41101         1         0     41104         1         0     41108         1         0
     41111         1         0     41114         1         0     41117         1         0
     41120         1         0     41123         1         0     41126         1         0
     41129         1         0     41132         1         0     41135         1         0
     41138         1         0     41141         1         0     41144         1         0
     41147         1         0     41151         2         0     41158         2         0
     41169         1         0     41177         1         0     41186         1         0
     41189         1         0     41192         1         0     41195         1         0
     41198         1         0     41201         1         0     41204         1         0
     41206         1         0     41208         1         0     41211         1         0
     41214         1         0     41217         1         0     41220         1         0
     41223         1         0     41227         1         0     41230         1         0
     41233         1         0     41236         1         0     41239         1         0
     41242         1         0     41245         1         0     41248         1         0
     41251         1         0     41254         1         0     41257         1         0
     41260         1         0     41263         1         0     41266         1         0
     41270         2         0     41281         1         0     41285         2         0
     41296         1         0     41304         1         0     41313         1         0
     41321         1         0     41330         1         0     41333         1         0
     41336         1         0     41339         1         0     41342         1         0
     41345         1         0     41348         1         0     41351         1         0
     41354         1         0     41356         1         0     41358         1         0
     41361         1         0     41364         1         0     41367         1         0
     41370         1         0     41373         1         0     41377         1         0
     41380         1         0     41383         1         0     41386         1         0
     41389         1         0     41392         1         0     41395         1         0
     41398         1         0     41401         1         0     41404         1         0
     41407         1         0     41410         1         0     41413         1         0
     41416         1         0     41420         1         0     41423         1         0
     41426         1         0     41429         1         0     41432         1         0
     41435         1         0     41438         1         0     41441         1         0
     41444         1         0     41446         1         0     41448         1         0
     41451         1         0     41454         1         0     41457         1         0
     41460         1         0     41463         1         0     41467         1         0
     41470         1         0     41473         1         0     41476         1         0
     41479         1         0     41482         1         0     41485         1         0
     41488         1         0     41491         1         0     41494         1         0
     41497         1         0     41500         1         0     41503         1         0
     41506         1         0     41510         2         0     41517         2         0
     41528         1         0     41536         1         0     41545         1         0
     41548         1         0     41551         1         0     41554         1         0
     41557         1         0     41560         1         0     41563         1         0
     41565         1         0     41567         1         0     41570         1         0
     41573         1         0     41576         1         0     41579         1         0
     41582         1         0     41586         1         0     41589         1         0
     41592         1         0     41595         1         0     41598         1         0
     41601         1         0     41604         1         0     41607         1         0
     41610         1         0     41613         1         0     41616         1         0
     41619         1         0     41622         1         0     41625         1         0
     41629         1         0     41634         1         0     41638         2         0
     41649         1         0     41657         1         0     41666         1         0
     41669         1         0     41672         1         0     41675         1         0
     41678         1         0     41681         1         0     41684         1         0
     41687         1         0     41690         1         0     41692         1         0
     41694         1         0     41697         1         0     41700         1         0
     41703         1         0     41706         1         0     41709         1         0
     41713         1         0     41716         1         0     41719         1         0
     41722         1         0     41725         1         0     41728         1         0
     41731         1         0     41734         1         0     41737         1         0
     41740         1         0     41743         1         0     41746         1         0
     41749         1         0     41752         1         0     41756         2         0
     41763         2         0     41774         1         0     41782         1         0
     41791         1         0     41794         1         0     41797         1         0
     41800         1         0     41803         1         0     41806         1         0
     41809         1         0     41811         1         0     41813         1         0
     41816         1         0     41819         1         0     41822         1         0
     41825         1         0     41828         1         0     41832         1         0
     41835         1         0     41838         1         0     41841         1         0
     41844         1         0     41847         1         0     41850         1         0
     41853         1         0     41856         1         0     41859         1         0
     41862         1         0     41865         1         0     41868         1         0
     41871         1         0     41875         2         0     41882         2         0
     41893         1         0     41901         1         0     41910         1         0
     41913         1         0     41916         1         0     41919         1         0
     41922         1         0     41925         1         0     41928         1         0
     41930         1         0     41932         1         0     41935         1         0
     41938         1         0     41941         1         0     41944         1         0
     41947         1         0     41951         1         0     41954         1         0
     41957         1         0     41960         1         0     41963         1         0
     41966         1         0     41969         1         0     41972         1         0
     41975         1         0     41978         1         0     41981         1         0
     41984         1         0     41987         1         0     41990         1         0
     41994         2         0     42001         2         0     42012         1         0
     42020         1         0     42029         1         0     42032         1         0
     42035         1         0     42038         1         0     42041         1         0
     42044         1         0     42047         1         0     42049         1         0
     42051         1         0     42054         1         0     42057         1         0
     42060         1         0     42063         1         0     42066         1         0
     42070         1         0     42073         1         0     42076         1         0
     42079         1         0     42082         1         0     42085         1         0
     42088         1         0     42091         1         0     42094         1         0
     42097         1         0     42100         1         0     42103         1         0
     42106         1         0     42109         1         0     42113         2         0
     42120         2         0     42131         1         0     42139         1         0
     42148         1         0     42151         1         0     42154         1         0
     42157         1         0     42160         1         0     42163         1         0
     42166         1         0     42168         1         0     42170         1         0
     42173         1         0     42176         1         0     42179         1         0
     42182         1         0     42185         1         0     42189         1         0
     42192         1         0     42195         1         0     42198         1         0
     42201         1         0     42204         1         0     42207         1         0
     42210         1         0     42213         1         0     42216         1         0
     42219         1         0     42222         1         0     42225         1         0
     42228         1         0     42232         2         0     42239         2         0
     42250         1         0     42258         1         0     42267         1         0
     42270         1         0     42273         1         0     42276         1         0
     42279         1         0     42282         1         0     42285         1         0
     42287         1         0     42289         1         0     42292         1         0
     42295         1         0     42298         1         0     42301         1         0
     42304         1         0     42308         1         0     42311         1         0
     42314         1         0     42317         1         0     42320         1         0
     42323         1         0     42326         1         0     42329         1         0
     42332         1         0     42335         1         0     42338         1         0
     42341         1         0     42344         1         0     42347         1         0
     42351         2         0     42358         2         0     42369         1         0
     42377         1         0     42386         1         0     42389         1         0
     42392         1         0     42395         1         0     42398         1         0
     42401         1         0     42404         1         0     42406         1         0
     42408         1         0     42411         1         0     42414         1         0
     42417         1         0     42420         1         0     42423         1         0
     42427         1         0     42430         1         0     42433         1         0
     42436         1         0     42439         1         0     42442         1         0
     42445         1         0     42448         1         0     42451         1         0
     42454         1         0     42457         1         0     42460         1         0
     42463         1         0     42466         1         0     42470         1         0
     42475         1         0     42479         2         0     42490         1         0
     42498         1         0     42507         1         0     42510         1         0
     42513         1         0     42516         1         0     42519         1         0
     42522         1         0     42525         1         0     42528         1         0
     42531         1         0     42533         1         0     42535         1         0
     42538         1         0     42541         1         0     42544         1         0
     42547         1         0     42550         1         0     42554         1         0
     42557         1         0     42560         1         0     42563         1         0
     42566         1         0     42569         1         0     42572         1         0
     42575         1         0     42578         1         0     42581         1         0
     42584         1         0     42587         1         0     42590         1         0
     42593         1         0     42597         2         0     42604         2         0
     42615         1         0     42623         1         0     42632         1         0
     42635         1         0     42638         1         0     42641         1         0
     42644         1         0     42647         1         0     42650         1         0
     42652         1         0     42654         1         0     42657         1         0
     42660         1         0     42663         1         0     42666         1         0
     42669         1         0     42673         1         0     42676         1         0
     42679         1         0     42682         1         0     42685         1         0
     42688         1         0     42691         1         0     42694         1         0
     42697         1         0     42700         1         0     42703         1         0
     42706         1         0     42709         1         0     42712         1         0
     42716         2         0     42723         2         0     42734         1         0
     42742         1         0     42751         1         0     42754         1         0
     42757         1         0     42760         1         0     42763         1         0
     42766         1         0     42769         1         0     42771         1         0
     42773         1         0     42776         1         0     42779         1         0
     42782         1         0     42785         1         0     42788         1         0
     42792         1         0     42795         1         0     42798         1         0
     42801         1         0     42804         1         0     42807         1         0
     42810         1         0     42813         1         0     42816         1         0
     42819         1         0     42822         1         0     42825         1         0
     42828         1         0     42831         1         0     42835         2         0
     42842         2         0     42853         1         0     42861         1         0
     42870         1         0     42873         1         0     42876         1         0
     42879         1         0     42882         1         0     42885         1         0
     42888         1         0     42890         1         0     42892         1         0
     42895         1         0     42898         1         0     42901         1         0
     42904         1         0     42907         1         0     42911         1         0
     42914         1         0     42917         1         0     42920         1         0
     42923         1         0     42926         1         0     42929         1         0
     42932         1         0     42935         1         0     42938         1         0
     42941         1         0     42944         1         0     42947         1         0
     42950         1         0     42954         2         0     42961         2         0
     42972         1         0     42980         1         0     42989         1         0
     42992         1         0     42995         1         0     42998         1         0
     43001         1         0     43004         1         0     43007         1         0
     43009         1         0     43011         1         0     43014         1         0
     43017         1         0     43020         1         0     43023         1         0
     43026         1         0     43030         1         0     43033         1         0
     43036         1         0     43039         1         0     43042         1         0
     43045         1         0     43048         1         0     43051         1         0
     43054         1         0     43057         1         0     43060         1         0
     43063         1         0     43066         1         0     43069         1         0
     43073         2         0     43080         2         0     43091         1         0
     43099         1         0     43108         1         0     43111         1         0
     43114         1         0     43117         1         0     43120         1         0
     43123         1         0     43126         1         0     43128         1         0
     43130         1         0     43133         1         0     43136         1         0
     43139         1         0     43142         1         0     43145         1         0
     43149         1         0     43152         1         0     43155         1         0
     43158         1         0     43161         1         0     43164         1         0
     43167         1         0     43170         1         0     43173         1         0
     43176         1         0     43179         1         0     43182         1         0
     43185         1         0     43188         1         0     43192         1         0
     43197         1         0     43201         2         0     43212         1         0
     43220         1         0     43229         1         0     43232         1         0
     43235         1         0     43238         1         0     43241         1         0
     43244         1         0     43247         1         0     43250         1         0
     43253         1         0     43255         1         0     43257         1         0
     43260         1         0     43263         1         0     43266         1         0
     43269         1         0     43272         1         0     43276         1         0
     43279         1         0     43282         1         0     43285         1         0
     43288         1         0     43291         1         0     43294         1         0
     43297         1         0     43300         1         0     43303         1         0
     43306         1         0     43309         1         0     43312         1         0
     43315         1         0     43319         1         0     43324         1         0
     43328         2         0     43339         1         0     43347         1         0
     43356         1         0     43359         1         0     43362         1         0
     43365         1         0     43368         1         0     43371         1         0
     43374         1         0     43377         1         0     43380         1         0
     43382         1         0     43384         1         0     43387         1         0
     43390         1         0     43393         1         0     43396         1         0
     43399         1         0     43403         1         0     43406         1         0
     43409         1         0     43412         1         0     43415         1         0
     43418         1         0     43421         1         0     43424         1         0
     43427         1         0     43430         1         0     43433         1         0
     43436         1         0     43439         1         0     43442         1         0
     43446         2         0     43453         2         0     43464         1         0
     43472         1         0     43481         1         0     43484         1         0
     43487         1         0     43490         1         0     43493         1         0
     43496         1         0     43499         1         0     43501         1         0
     43503         1         0     43506         1         0     43509         1         0
     43512         1         0     43515         1         0     43518         1         0
     43522         1         0     43525         1         0     43528         1         0
     43531         1         0     43534         1         0     43537         1         0
     43540         1         0     43543         1         0     43546         1         0
     43549         1         0     43552         1         0     43555         1         0
     43558         1         0     43561         1         0     43565         1         0
     43570         1         0     43574         2         0     43585         1         0
     43593         1         0     43602         1         0     43605         1         0
     43608         1         0     43611         1         0     43614         1         0
     43617         1         0     43620         1         0     43623         1         0
     43626         1         0     43628         1         0     43630         1         0
     43633         1         0     43636         1         0     43639         1         0
     43642         1         0     43645         1         0     43649         1         0
     43652         1         0     43655         1         0     43658         1         0
     43661         1         0     43664         1         0     43667         1         0
     43670         1         0     43673         1         0     43676         1         0
     43679         1         0     43682         1         0     43685         1         0
     43688         1         0     43692         2         0     43699         2         0
     43710         1         0     43718         1         0     43727         1         0
     43730         1         0     43733         1         0     43736         1         0
     43739         1         0     43742         1         0     43745         1         0
     43747         1         0     43749         1         0     43752         1         0
     43755         1         0     43758         1         0     43761         1         0
     43764         1         0     43768         1         0     43771         1         0
     43774         1         0     43777         1         0     43780         1         0
     43783         1         0     43786         1         0     43789         1         0
     43792         1         0     43795         1         0     43798         1         0
     43801         1         0     43804         1         0     43807         1         0
     43811         2         0     43818         2         0     43829         1         0
     43837         1         0     43846         1         0     43849         1         0
     43852         1         0     43855         1         0     43858         1         0
     43861         1         0     43864         1         0     43866         1         0
     43868         1         0     43871         1         0     43874         1         0
     43877         1         0     43880         1         0     43883         1         0
     43887         1         0     43890         1         0     43893         1         0
     43896         1         0     43899         1         0     43902         1         0
     43905         1         0     43908         1         0     43911         1         0
     43914         1         0     43917         1         0     43920         1         0
     43923         1         0     43926         1         0     43930         2         0
     43941         1         0     43945         2         0     43956         1         0
     43964         1         0     43973         1         0     43981         1         0
     43990         1         0     43993         1         0     43996         1         0
     43999         1         0     44002         1         0     44005         1         0
     44008         1         0     44011         1         0     44014         1         0
     44016         1         0     44018         1         0     44021         1         0
     44024         1         0     44027         1         0     44030         1         0
     44033         1         0     44037         1         0     44040         1         0
     44043         1         0     44046         1         0     44049         1         0
     44052         1         0     44055         1         0     44058         1         0
     44061         1         0     44064         1         0     44067         1         0
     44070         1         0     44073         1         0     44076         1         0
     44080         1         0     44083         1         0     44086         1         0
     44089         1         0     44092         1         0     44095         1         0
     44098         1         0     44101         1         0     44104         1         0
     44106         1         0     44108         1         0     44111         1         0
     44114         1         0     44117         1         0     44120         1         0
     44123         1         0     44127         1         0     44130         1         0
     44133         1         0     44136         1         0     44139         1         0
     44142         1         0     44145         1         0     44148         1         0
     44151         1         0     44154         1         0     44157         1         0
     44160         1         0     44163         1         0     44166         1         0
     44170         2         0     44177         2         0     44188         1         0
     44196         1         0     44205         1         0     44208         1         0
     44211         1         0     44214         1         0     44217         1         0
     44220         1         0     44223         1         0     44225         1         0
     44227         1         0     44230         1         0     44233         1         0
     44236         1         0     44239         1         0     44242         1         0
     44246         1         0     44249         1         0     44252         1         0
     44255         1         0     44258         1         0     44261         1         0
     44264         1         0     44267         1         0     44270         1         0
     44273         1         0     44276         1         0     44279         1         0
     44282         1         0     44285         1         0     44289         2         0
     44296         2         0     44307         1         0     44315         1         0
     44324         1         0     44327         1         0     44330         1         0
     44333         1         0     44336         1         0     44339         1         0
     44342         1         0     44344         1         0     44346         1         0
     44349         1         0     44352         1         0     44355         1         0
     44358         1         0     44361         1         0     44365         1         0
     44368         1         0     44371         1         0     44374         1         0
     44377         1         0     44380         1         0     44383         1         0
     44386         1         0     44389         1         0     44392         1         0
     44395         1         0     44398         1         0     44401         1         0
     44404         1         0     44408         2         0     44415         2         0
     44426         1         0     44434         1         0     44443         1         0
     44446         1         0     44449         1         0     44452         1         0
     44455         1         0     44458         1         0     44461         1         0
     44463         1         0     44465         1         0     44468         1         0
     44471         1         0     44474         1         0     44477         1         0
     44480         1         0     44484         1         0     44487         1         0
     44490         1         0     44493         1         0     44496         1         0
     44499         1         0     44502         1         0     44505         1         0
     44508         1         0     44511         1         0     44514         1         0
     44517         1         0     44520         1         0     44523         1         0
     44527         2         0     44534         2         0     44545         1         0
     44553         1         0     44562         1         0     44565         1         0
     44568         1         0     44571         1         0     44574         1         0
     44577         1         0     44580         1         0     44582         1         0
     44584         1         0     44587         1         0     44590         1         0
     44593         1         0     44596         1         0     44599         1         0
     44603         1         0     44606         1         0     44609         1         0
     44612         1         0     44615         1         0     44618         1         0
     44621         1         0     44624         1         0     44627         1         0
     44630         1         0     44633         1         0     44636         1         0
     44639         1         0     44642         1         0     44646         2         0
     44653         2         0     44664         1         0     44672         1         0
     44681         1         0     44684         1         0     44687         1         0
     44690         1         0     44693         1         0     44696         1         0
     44699         1         0     44701         1         0     44703         1         0
     44706         1         0     44709         1         0     44712         1         0
     44715         1         0     44718         1         0     44722         1         0
     44725         1         0     44728         1         0     44731         1         0
     44734         1         0     44737         1         0     44740         1         0
     44743         1         0     44746         1         0     44749         1         0
     44752         1         0     44755         1         0     44758         1         0
     44761         1         0     44765         2         0     44776         1         0
     44780         2         0     44791         1         0     44799         1         0
     44808         1         0     44816         1         0     44825         1         0
     44828         1         0     44831         1         0     44834         1         0
     44837         1         0     44840         1         0     44843         1         0
     44846         1         0     44849         1         0     44851         1         0
     44853         1         0     44856         1         0     44859         1         0
     44862         1         0     44865         1         0     44868         1         0
     44872         1         0     44875         1         0     44878         1         0
     44881         1         0     44884         1         0     44887         1         0
     44890         1         0     44893         1         0     44896         1         0
     44899         1         0     44902         1         0     44905         1         0
     44908         1         0     44911         1         0     44915         1         0
     44918         1         0     44921         1         0     44924         1         0
     44927         1         0     44930         1         0     44933         1         0
     44936         1         0     44939         1         0     44941         1         0
     44943         1         0     44946         1         0     44949         1         0
     44952         1         0     44955         1         0     44958         1         0
     44962         1         0     44965         1         0     44968         1         0
     44971         1         0     44974         1         0     44977         1         0
     44980         1         0     44983         1         0     44986         1         0
     44989         1         0     44992         1         0     44995         1         0
     44998         1         0     45001         1         0     45005         2         0
     45012         2         0     45023         1         0     45031         1         0
     45040         1         0     45043         1         0     45046         1         0
     45049         1         0     45052         1         0     45055         1         0
     45058         1         0     45060         1         0     45062         1         0
     45065         1         0     45068         1         0     45071         1         0
     45074         1         0     45077         1         0     45081         1         0
     45084         1         0     45087         1         0     45090         1         0
     45093         1         0     45096         1         0     45099         1         0
     45102         1         0     45105         1         0     45108         1         0
     45111         1         0     45114         1         0     45117         1         0
     45120         1         0     45124         2         0     45131         2         0
     45142         1         0     45150         1         0     45159         1         0
     45162         1         0     45165         1         0     45168         1         0
     45171         1         0     45174         1         0     45177         1         0
     45179         1         0     45181         1         0     45184         1         0
     45187         1         0     45190         1         0     45193         1         0
     45196         1         0     45200         1         0     45203         1         0
     45206         1         0     45209         1         0     45212         1         0
     45215         1         0     45218         1         0     45221         1         0
     45224         1         0     45227         1         0     45230         1         0
     45233         1         0     45236         1         0     45239         1         0
     45243         2         0     45250         2         0     45261         1         0
     45269         1         0     45278         1         0     45281         1         0
     45284         1         0     45287         1         0     45290         1         0
     45293         1         0     45296         1         0     45298         1         0
     45300         1         0     45303         1         0     45306         1         0
     45309         1         0     45312         1         0     45315         1         0
     45319         1         0     45322         1         0     45325         1         0
     45328         1         0     45331         1         0     45334         1         0
     45337         1         0     45340         1         0     45343         1         0
     45346         1         0     45349         1         0     45352         1         0
     45355         1         0     45358         1         0     45362         2         0
     45369         2         0     45380         1         0     45388         1         0
     45397         1         0     45400         1         0     45403         1         0
     45406         1         0     45409         1         0     45412         1         0
     45415         1         0     45417         1         0     45419         1         0
     45422         1         0     45425         1         0     45428         1         0
     45431         1         0     45434         1         0     45438         1         0
     45441         1         0     45444         1         0     45447         1         0
     45450         1         0     45453         1         0     45456         1         0
     45459         1         0     45462         1         0     45465         1         0
     45468         1         0     45471         1         0     45474         1         0
     45477         1         0     45481         2         0     45488         2         0
     45499         1         0     45507         1         0     45516         1         0
     45519         1         0     45522         1         0     45525         1         0
     45528         1         0     45531         1         0     45534         1         0
     45536         1         0     45538         1         0     45541         1         0
     45544         1         0     45547         1         0     45550         1         0
     45553         1         0     45557         1         0     45560         1         0
     45563         1         0     45566         1         0     45569         1         0
     45572         1         0     45575         1         0     45578         1         0
     45581         1         0     45584         1         0     45587         1         0
     45590         1         0     45593         1         0     45596         1         0
     45600         2         0     45607         2         0     45618         1         0
     45626         1         0     45635         1         0     45638         1         0
     45641         1         0     45644         1         0     45647         1         0
     45650         1         0     45653         1         0     45655         1         0
     45657         1         0     45660         1         0     45663         1         0
     45666         1         0     45669         1         0     45672         1         0
     45676         1         0     45679         1         0     45682         1         0
     45685         1         0     45688         1         0     45691         1         0
     45694         1         0     45697         1         0     45700         1         0
     45703         1         0     45706         1         0     45709         1         0
     45712         1         0     45715         1         0     45719         2         0
     45726         2         0     45737         1         0     45745         1         0
     45754         1         0     45757         1         0     45760         1         0
     45763         1         0     45766         1         0     45769         1         0
     45772         1         0     45774         1         0     45776         1         0
     45779         1         0     45782         1         0     45785         1         0
     45788         1         0     45791         1         0     45795         1         0
     45798         1         0     45801         1         0     45804         1         0
     45807         1         0     45810         1         0     45813         1         0
     45816         1         0     45819         1         0     45822         1         0
     45825         1         0     45828         1         0     45831         1         0
     45834         1         0     45838         2         0     45845         2         0
     45856         1         0     45864         1         0     45873         1         0
     45876         1         0     45879         1         0     45882         1         0
     45885         1         0     45888         1         0     45891         1         0
     45893         1         0     45895         1         0     45898         1         0
     45901         1         0     45904         1         0     45907         1         0
     45910         1         0     45914         1         0     45917         1         0
     45920         1         0     45923         1         0     45926         1         0
     45929         1         0     45932         1         0     45935         1         0
     45938         1         0     45941         1         0     45944         1         0
     45947         1         0     45950         1         0     45953         1         0
     45957         2         0     45964         2         0     45975         1         0
     45983         1         0     45992         1         0     45995         1         0
     45998         1         0     46001         1         0     46004         1         0
     46007         1         0     46010         1         0     46012         1         0
     46014         1         0     46017         1         0     46020         1         0
     46023         1         0     46026         1         0     46029         1         0
     46033         1         0     46036         1         0     46039         1         0
     46042         1         0     46045         1         0     46048         1         0
     46051         1         0     46054         1         0     46057         1         0
     46060         1         0     46063         1         0     46066         1         0
     46069         1         0     46072         1         0     46076         2         0
     46083         2         0     46094         1         0     46102         1         0
     46111         1         0     46114         1         0     46117         1         0
     46120         1         0     46123         1         0     46126         1         0
     46129         1         0     46131         1         0     46133         1         0
     46136         1         0     46139         1         0     46142         1         0
     46145         1         0     46148         1         0     46152         1         0
     46155         1         0     46158         1         0     46161         1         0
     46164         1         0     46167         1         0     46170         1         0
     46173         1         0     46176         1         0     46179         1         0
     46182         1         0     46185         1         0     46188         1         0
     46191         1         0     46195         1         0     46200         1         0
     46204         2         0     46215         1         0     46223         1         0
     46232         1         0     46235         1         0     46238         1         0
     46241         1         0     46244         1         0     46247         1         0
     46250         1         0     46253         1         0     46256         1         0
     46258         1         0     46260         1         0     46263         1         0
     46266         1         0     46269         1         0     46272         1         0
     46275         1         0     46279         1         0     46282         1         0
     46285         1         0     46288         1         0     46291         1         0
     46294         1         0     46297         1         0     46300         1         0
     46303         1         0     46306         1         0     46309         1         0
     46312         1         0     46315         1         0     46318         1         0
     46322         2         0     46329         2         0     46340         1         0
     46348         1         0     46357         1         0     46360         1         0
     46363         1         0     46366         1         0     46369         1         0
     46372         1         0     46375         1         0     46377         1         0
     46379         1         0     46382         1         0     46385         1         0
     46388         1         0     46391         1         0     46394         1         0
     46398         1         0     46401         1         0     46404         1         0
     46407         1         0     46410         1         0     46413         1         0
     46416         1         0     46419         1         0     46422         1         0
     46425         1         0     46428         1         0     46431         1         0
     46434         1         0     46437         1         0     46441         2         0
     46448         2         0     46459         1         0     46467         1         0
     46476         1         0     46479         1         0     46482         1         0
     46485         1         0     46488         1         0     46491         1         0
     46494         1         0     46496         1         0     46498         1         0
     46501         1         0     46504         1         0     46507         1         0
     46510         1         0     46513         1         0     46517         1         0
     46520         1         0     46523         1         0     46526         1         0
     46529         1         0     46532         1         0     46535         1         0
     46538         1         0     46541         1         0     46544         1         0
     46547         1         0     46550         1         0     46553         1         0
     46556         1         0     46560         2         0     46567         2         0
     46578         1         0     46586         1         0     46595         1         0
     46598         1         0     46601         1         0     46604         1         0
     46607         1         0     46610         1         0     46613         1         0
     46615         1         0     46617         1         0     46620         1         0
     46623         1         0     46626         1         0     46629         1         0
     46632         1         0     46636         1         0     46639         1         0
     46642         1         0     46645         1         0     46648         1         0
     46651         1         0     46654         1         0     46657         1         0
     46660         1         0     46663         1         0     46666         1         0
     46669         1         0     46672         1         0     46675         1         0
     46679         2         0     46686         2         0     46697         1         0
     46705         1         0     46714         1         0     46717         1         0
     46720         1         0     46723         1         0     46726         1         0
     46729         1         0     46732         1         0     46734         1         0
     46736         1         0     46739         1         0     46742         1         0
     46745         1         0     46748         1         0     46751         1         0
     46755         1         0     46758         1         0     46761         1         0
     46764         1         0     46767         1         0     46770         1         0
     46773         1         0     46776         1         0     46779         1         0
     46782         1         0     46785         1         0     46788         1         0
     46791         1         0     46794         1         0     46798         2         0
     46805         2         0     46816         1         0     46824         1         0
     46833         1         0     46836         1         0     46839         1         0
     46842         1         0     46845         1         0     46848         1         0
     46851         1         0     46853         1         0     46855         1         0
     46858         1         0     46861         1         0     46864         1         0
     46867         1         0     46870         1         0     46874         1         0
     46877         1         0     46880         1         0     46883         1         0
     46886         1         0     46889         1         0     46892         1         0
     46895         1         0     46898         1         0     46901         1         0
     46904         1         0     46907         1         0     46910         1         0
     46913         1         0     46917         1         0     46922         1         0
     46926         2         0     46937         1         0     46945         1         0
     46954         1         0     46957         1         0     46960         1         0
     46963         1         0     46966         1         0     46969         1         0
     46972         1         0     46975         1         0     46978         1         0
     46980         1         0     46982         1         0     46985         1         0
     46988         1         0     46991         1         0     46994         1         0
     46997         1         0     47001         1         0     47004         1         0
     47007         1         0     47010         1         0     47013         1         0
     47016         1         0     47019         1         0     47022         1         0
     47025         1         0     47028         1         0     47031         1         0
     47034         1         0     47037         1         0     47040         1         0
     47044         1         0     47049         1         0     47053         2         0
     47064         1         0     47072         1         0     47081         1         0
     47084         1         0     47087         1         0     47090         1         0
     47093         1         0     47096         1         0     47099         1         0
     47102         1         0     47105         1         0     47107         1         0
     47109         1         0     47112         1         0     47115         1         0
     47118         1         0     47121         1         0     47124         1         0
     47128         1         0     47131         1         0     47134         1         0
     47137         1         0     47140         1         0     47143         1         0
     47146         1         0     47149         1         0     47152         1         0
     47155         1         0     47158         1         0     47161         1         0
     47164         1         0     47167         1         0     47171         2         0
     47178         2         0     47189         1         0     47197         1         0
     47206         1         0     47209         1         0     47212         1         0
     47215         1         0     47218         1         0     47221         1         0
     47224         1         0     47226         1         0     47228         1         0
     47231         1         0     47234         1         0     47237         1         0
     47240         1         0     47243         1         0     47247         1         0
     47250         1         0     47253         1         0     47256         1         0
     47259         1         0     47262         1         0     47265         1         0
     47268         1         0     47271         1         0     47274         1         0
     47277         1         0     47280         1         0     47283         1         0
     47286         1         0     47290         2         0     47297         2         0
     47308         1         0     47316         1         0     47325         1         0
     47328         1         0     47331         1         0     47334         1         0
     47337         1         0     47340         1         0     47343         1         0
     47345         1         0     47347         1         0     47350         1         0
     47353         1         0     47356         1         0     47359         1         0
     47362         1         0     47366         1         0     47369         1         0
     47372         1         0     47375         1         0     47378         1         0
     47381         1         0     47384         1         0     47387         1         0
     47390         1         0     47393         1         0     47396         1         0
     47399         1         0     47402         1         0     47405         1         0
     47409         2         0     47416         2         0     47427         1         0
     47435         1         0     47444         1         0     47447         1         0
     47450         1         0     47453         1         0     47456         1         0
     47459         1         0     47462         1         0     47464         1         0
     47466         1         0     47469         1         0     47472         1         0
     47475         1         0     47478         1         0     47481         1         0
     47485         1         0     47488         1         0     47491         1         0
     47494         1         0     47497         1         0     47500         1         0
     47503         1         0     47506         1         0     47509         1         0
     47512         1         0     47515         1         0     47518         1         0
     47521         1         0     47524         1         0     47528         1         0
     47533         1         0     47537         2         0     47548         1         0
     47556         1         0     47565         1         0     47568         1         0
     47571         1         0     47574         1         0     47577         1         0
     47580         1         0     47583         1         0     47586         1         0
     47589         1         0     47591         1         0     47593         1         0
     47596         1         0     47599         1         0     47602         1         0
     47605         1         0     47608         1         0     47612         1         0
     47615         1         0     47618         1         0     47621         1         0
     47624         1         0     47627         1         0     47630         1         0
     47633         1         0     47636         1         0     47639         1         0
     47642         1         0     47645         1         0     47648         1         0
     47651         1         0     47655         2         0     47662         2         0
     47673         1         0     47681         1         0     47690         1         0
     47693         1         0     47696         1         0     47699         1         0
     47702         1         0     47705         1         0     47708         1         0
     47710         1         0     47712         1         0     47715         1         0
     47718         1         0     47721         1         0     47724         1         0
     47727         1         0     47731         1         0     47734         1         0
     47737         1         0     47740         1         0     47743         1         0
     47746         1         0     47749         1         0     47752         1         0
     47755         1         0     47758         1         0     47761         1         0
     47764         1         0     47767         1         0     47770         1         0
     47774         1         0     47779         1         0     47783         2         0
     47794         1         0     47802         1         0     47811         1         0
     47814         1         0     47817         1         0     47820         1         0
     47823         1         0     47826         1         0     47829         1         0
     47832         1         0     47835         1         0     47837         1         0
     47839         1         0     47842         1         0     47845         1         0
     47848         1         0     47851         1         0     47854         1         0
     47858         1         0     47861         1         0     47864         1         0
     47867         1         0     47870         1         0     47873         1         0
     47876         1         0     47879         1         0     47882         1         0
     47885         1         0     47888         1         0     47891         1         0
     47894         1         0     47897         1         0     47901         1         0
     47906         1         0     47910         2         0     47921         1         0
     47929         1         0     47938         1         0     47941         1         0
     47944         1         0     47947         1         0     47950         1         0
     47953         1         0     47956         1         0     47959         1         0
     47962         1         0     47964         1         0     47966         1         0
     47969         1         0     47972         1         0     47975         1         0
     47978         1         0     47981         1         0     47985         1         0
     47988         1         0     47991         1         0     47994         1         0
     47997         1         0     48000         1         0     48003         1         0
     48006         1         0     48009         1         0     48012         1         0
     48015         1         0     48018         1         0     48021         1         0
     48024         1         0     48028         2         0     48035         2         0
     48046         1         0     48054         1         0     48063         1         0
     48066         1         0     48069         1         0     48072         1         0
     48075         1         0     48078         1         0     48081         1         0
     48083         1         0     48085         1         0     48088         1         0
     48091         1         0     48094         1         0     48097         1         0
     48100         1         0     48104         1         0     48107         1         0
     48110         1         0     48113         1         0     48116         1         0
     48119         1         0     48122         1         0     48125         1         0
     48128         1         0     48131         1         0     48134         1         0
     48137         1         0     48140         1         0     48143         1         0
     48147         2         0     48154         2         0     48165         1         0
     48173         1         0     48182         1         0     48185         1         0
     48188         1         0     48191         1         0     48194         1         0
     48197         1         0     48200         1         0     48202         1         0
     48204         1         0     48207         1         0     48210         1         0
     48213         1         0     48216         1         0     48219         1         0
     48223         1         0     48226         1         0     48229         1         0
     48232         1         0     48235         1         0     48238         1         0
     48241         1         0     48244         1         0     48247         1         0
     48250         1         0     48253         1         0     48256         1         0
     48259         1         0     48262         1         0     48266         2         0
     48273         2         0     48284         1         0     48292         1         0
     48301         1         0     48304         1         0     48307         1         0
     48310         1         0     48313         1         0     48316         1         0
     48319         1         0     48321         1         0     48323         1         0
     48326         1         0     48329         1         0     48332         1         0
     48335         1         0     48338         1         0     48342         1         0
     48345         1         0     48348         1         0     48351         1         0
     48354         1         0     48357         1         0     48360         1         0
     48363         1         0     48366         1         0     48369         1         0
     48372         1         0     48375         1         0     48378         1         0
     48381         1         0     48385         2         0     48392         2         0
     48403         1         0     48411         1         0     48420         1         0
     48423         1         0     48426         1         0     48429         1         0
     48432         1         0     48435         1         0     48438         1         0
     48440         1         0     48442         1         0     48445         1         0
     48448         1         0     48451         1         0     48454         1         0
     48457         1         0     48461         1         0     48464         1         0
     48467         1         0     48470         1         0     48473         1         0
     48476         1         0     48479         1         0     48482         1         0
     48485         1         0     48488         1         0     48491         1         0
     48494         1         0     48497         1         0     48500         1         0
     48504         2         0     48511         2         0     48522         1         0
     48530         1         0     48539         1         0     48542         1         0
     48545         1         0     48548         1         0     48551         1         0
     48554         1         0     48557         1         0     48559         1         0
     48561         1         0     48564         1         0     48567         1         0
     48570         1         0     48573         1         0     48576         1         0
     48580         1         0     48583         1         0     48586         1         0
     48589         1         0     48592         1         0     48595         1         0
     48598         1         0     48601         1         0     48604         1         0
     48607         1         0     48610         1         0     48613         1         0
     48616         1         0     48619         1         0     48623         2         0
     48630         2         0     48641         1         0     48649         1         0
     48658         1         0     48661         1         0     48664         1         0
     48667         1         0     48670         1         0     48673         1         0
     48676         1         0     48678         1         0     48680         1         0
     48683         1         0     48686         1         0     48689         1         0
     48692         1         0     48695         1         0     48699         1         0
     48702         1         0     48705         1         0     48708         1         0
     48711         1         0     48714         1         0     48717         1         0
     48720         1         0     48723         1         0     48726         1         0
     48729         1         0     48732         1         0     48735         1         0
     48738         1         0     48742         2         0     48749         2         0
     48760         1         0     48768         1         0     48777         1         0
     48780         1         0     48783         1         0     48786         1         0
     48789         1         0     48792         1         0     48795         1         0
     48797         1         0     48799         1         0     48802         1         0
     48805         1         0     48808         1         0     48811         1         0
     48814         1         0     48818         1         0     48821         1         0
     48824         1         0     48827         1         0     48830         1         0
     48833         1         0     48836         1         0     48839         1         0
     48842         1         0     48845         1         0     48848         1         0
     48851         1         0     48854         1         0     48857         1         0
     48861         2         0     48868         2         0     48879         1         0
     48887         1         0     48896         1         0     48899         1         0
     48902         1         0     48905         1         0     48908         1         0
     48911         1         0     48914         1         0     48916         1         0
     48918         1         0     48921         1         0     48924         1         0
     48927         1         0     48930         1         0     48933         1         0
     48937         1         0     48940         1         0     48943         1         0
     48946         1         0     48949         1         0     48952         1         0
     48955         1         0     48958         1         0     48961         1         0
     48964         1         0     48967         1         0     48970         1         0
     48973         1         0     48976         1         0     48980         2         0
     48987         2         0     48998         1         0     49006         1         0
     49015         1         0     49018         1         0     49021         1         0
     49024         1         0     49027         1         0     49030         1         0
     49033         1         0     49035         1         0     49037         1         0
     49040         1         0     49043         1         0     49046         1         0
     49049         1         0     49052         1         0     49056         1         0
     49059         1         0     49062         1         0     49065         1         0
     49068         1         0     49071         1         0     49074         1         0
     49077         1         0     49080         1         0     49083         1         0
     49086         1         0     49089         1         0     49092         1         0
     49095         1         0     49099         2         0     49106         2         0
     49117         1         0     49125         1         0     49134         1         0
     49137         1         0     49140         1         0     49143         1         0
     49146         1         0     49149         1         0     49152         1         0
     49154         1         0     49156         1         0     49159         1         0
     49162         1         0     49165         1         0     49168         1         0
     49171         1         0     49175         1         0     49178         1         0
     49181         1         0     49184         1         0     49187         1         0
     49190         1         0     49193         1         0     49196         1         0
     49199         1         0     49202         1         0     49205         1         0
     49208         1         0     49211         1         0     49214         1         0
     49218         2         0     49225         2         0     49236         1         0
     49244         1         0     49253         1         0     49256         1         0
     49259         1         0     49262         1         0     49265         1         0
     49268         1         0     49271         1         0     49273         1         0
     49275         1         0     49278         1         0     49281         1         0
     49284         1         0     49287         1         0     49290         1         0
     49294         1         0     49297         1         0     49300         1         0
     49303         1         0     49306         1         0     49309         1         0
     49312         1         0     49315         1         0     49318         1         0
     49321         1         0     49324         1         0     49327         1         0
     49330         1         0     49333         1         0     49337         1         0
     49342         1         0     49346         2         0     49357         1         0
     49365         1         0     49374         1         0     49377         1         0
     49380         1         0     49383         1         0     49386         1         0
     49389         1         0     49392         1         0     49395         1         0
     49398         1         0     49400         1         0     49402         1         0
     49405         1         0     49408         1         0     49411         1         0
     49414         1         0     49417         1         0     49421         1         0
     49424         1         0     49427         1         0     49430         1         0
     49433         1         0     49436         1         0     49439         1         0
     49442         1         0     49445         1         0     49448         1         0
     49451         1         0     49454         1         0     49457         1         0
     49460         1         0     49464         2         0     49471         2         0
     49482         1         0     49490         1         0     49499         1         0
     49502         1         0     49505         1         0     49508         1         0
     49511         1         0     49514         1         0     49517         1         0
     49519         1         0     49521         1         0     49524         1         0
     49527         1         0     49530         1         0     49533         1         0
     49536         1         0     49540         1         0     49543         1         0
     49546         1         0     49549         1         0     49552         1         0
     49555         1         0     49558         1         0     49561         1         0
     49564         1         0     49567         1         0     49570         1         0
     49573         1         0     49576         1         0     49579         1         0
     49583         2         0     49590         2         0     49601         1         0
     49609         1         0     49618         1         0     49621         1         0
     49624         1         0     49627         1         0     49630         1         0
     49633         1         0     49636         1         0     49638         1         0
     49640         1         0     49643         1         0     49646         1         0
     49649         1         0     49652         1         0     49655         1         0
     49659         1         0     49662         1         0     49665         1         0
     49668         1         0     49671         1         0     49674         1         0
     49677         1         0     49680         1         0     49683         1         0
     49686         1         0     49689         1         0     49692         1         0
     49695         1         0     49698         1         0     49702         2         0
     49713         1         0     49717         2         0     49728         1         0
     49736         1         0     49745         1         0     49753         1         0
     49762         1         0     49765         1         0     49768         1         0
     49771         1         0     49774         1         0     49777         1         0
     49780         1         0     49783         1         0     49786         1         0
     49788         1         0     49790         1         0     49793         1         0
     49796         1         0     49799         1         0     49802         1         0
     49805         1         0     49809         1         0     49812         1         0
     49815         1         0     49818         1         0     49821         1         0
     49824         1         0     49827         1         0     49830         1         0
     49833         1         0     49836         1         0     49839         1         0
     49842         1         0     49845         1         0     49848         1         0
     49852         1         0     49855         1         0     49858         1         0
     49861         1         0     49864         1         0     49867         1         0
     49870         1         0     49873         1         0     49876         1         0
     49878         1         0     49880         1         0     49883         1         0
     49886         1         0     49889         1         0     49892         1         0
     49895         1         0     49899         1         0     49902         1         0
     49905         1         0     49908         1         0     49911         1         0
     49914         1         0     49917         1         0     49920         1         0
     49923         1         0     49926         1         0     49929         1         0
     49932         1         0     49935         1         0     49938         1         0
     49942         1         0     49947         1         0     49951         2         0
     49962         1         0     49970         1         0     49979         1         0
     49982         1         0     49985         1         0     49988         1         0
     49991         1         0     49994         1         0     49997         1         0
     50000         1         0     50003         1         0     50005         1         0
     50007         1         0     50010         1         0     50013         1         0
     50016         1         0     50019         1         0     50022         1         0
     50026         1         0     50029         1         0     50032         1         0
     50035         1         0     50038         1         0     50041         1         0
     50044         1         0     50047         1         0     50050         1         0
     50053         1         0     50056         1         0     50059         1         0
     50062         1         0     50065         1         0     50069         2         0
     50076         2         0     50087         1         0     50095         1         0
     50104         1         0     50107         1         0     50110         1         0
     50113         1         0     50116         1         0     50119         1         0
     50122         1         0     50124         1         0     50126         1         0
     50129         1         0     50132         1         0     50135         1         0
     50138         1         0     50141         1         0     50145         1         0
     50148         1         0     50151         1         0     50154         1         0
     50157         1         0     50160         1         0     50163         1         0
     50166         1         0     50169         1         0     50172         1         0
     50175         1         0     50178         1         0     50181         1         0
     50184         1         0     50188         2         0     50195         2         0
     50206         1         0     50214         1         0     50223         1         0
     50226         1         0     50229         1         0     50232         1         0
     50235         1         0     50238         1         0     50241         1         0
     50243         1         0     50245         1         0     50248         1         0
     50251         1         0     50254         1         0     50257         1         0
     50260         1         0     50264         1         0     50267         1         0
     50270         1         0     50273         1         0     50276         1         0
     50279         1         0     50282         1         0     50285         1         0
     50288         1         0     50291         1         0     50294         1         0
     50297         1         0     50300         1         0     50303         1         0
     50307         2         0     50314         2         0     50325         1         0
     50333         1         0     50342         1         0     50345         1         0
     50348         1         0     50351         1         0     50354         1         0
     50357         1         0     50360         1         0     50362         1         0
     50364         1         0     50367         1         0     50370         1         0
     50373         1         0     50376         1         0     50379         1         0
     50383         1         0     50386         1         0     50389         1         0
     50392         1         0     50395         1         0     50398         1         0
     50401         1         0     50404         1         0     50407         1         0
     50410         1         0     50413         1         0     50416         1         0
     50419         1         0     50422         1         0     50426         2         0
     50433         2         0     50444         1         0     50452         1         0
     50461         1         0     50464         1         0     50467         1         0
     50470         1         0     50473         1         0     50476         1         0
     50479         1         0     50481         1         0     50483         1         0
     50486         1         0     50489         1         0     50492         1         0
     50495         1         0     50498         1         0     50502         1         0
     50505         1         0     50508         1         0     50511         1         0
     50514         1         0     50517         1         0     50520         1         0
     50523         1         0     50526         1         0     50529         1         0
     50532         1         0     50535         1         0     50538         1         0
     50541         1         0     50545         2         0     50552         2         0
     50563         1         0     50571         1         0     50580         1         0
     50583         1         0     50586         1         0     50589         1         0
     50592         1         0     50595         1         0     50598         1         0
     50600         1         0     50602         1         0     50605         1         0
     50608         1         0     50611         1         0     50614         1         0
     50617         1         0     50621         1         0     50624         1         0
     50627         1         0     50630         1         0     50633         1         0
     50636         1         0     50639         1         0     50642         1         0
     50645         1         0     50648         1         0     50651         1         0
     50654         1         0     50657         1         0     50660         1         0
     50664         2         0     50671         2         0     50682         1         0
     50690         1         0     50699         1         0     50702         1         0
     50705         1         0     50708         1         0     50711         1         0
     50714         1         0     50717         1         0     50719         1         0
     50721         1         0     50724         1         0     50727         1         0
     50730         1         0     50733         1         0     50736         1         0
     50740         1         0     50743         1         0     50746         1         0
     50749         1         0     50752         1         0     50755         1         0
     50758         1         0     50761         1         0     50764         1         0
     50767         1         0     50770         1         0     50773         1         0
     50776         1         0     50779         1         0     50783         2         0
     50790         2         0     50801         1         0     50809         1         0
     50818         1         0     50821         1         0     50824         1         0
     50827         1         0     50830         1         0     50833         1         0
     50836         1         0     50838         1         0     50840         1         0
     50843         1         0     50846         1         0     50849         1         0
     50852         1         0     50855         1         0     50859         1         0
     50862         1         0     50865         1         0     50868         1         0
     50871         1         0     50874         1         0     50877         1         0
     50880         1         0     50883         1         0     50886         1         0
     50889         1         0     50892         1         0     50895         1         0
     50898         1         0     50902         1         0     50907         1         0
     50911         2         0     50922         1         0     50930         1         0
     50939         1         0     50942         1         0     50945         1         0
     50948         1         0     50951         1         0     50954         1         0
     50957         1         0     50960         1         0     50963         1         0
     50965         1         0     50967         1         0     50970         1         0
     50973         1         0     50976         1         0     50979         1         0
     50982         1         0     50986         1         0     50989         1         0
     50992         1         0     50995         1         0     50998         1         0
     51001         1         0     51004         1         0     51007         1         0
     51010         1         0     51013         1         0     51016         1         0
     51019         1         0     51022         1         0     51025         1         0
     51029         2         0     51036         2         0     51047         1         0
     51055         1         0     51064         1         0     51067         1         0
     51070         1         0     51073         1         0     51076         1         0
     51079         1         0     51082         1         0     51084         1         0
     51086         1         0     51089         1         0     51092         1         0
     51095         1         0     51098         1         0     51101         1         0
     51105         1         0     51108         1         0     51111         1         0
     51114         1         0     51117         1         0     51120         1         0
     51123         1         0     51126         1         0     51129         1         0
     51132         1         0     51135         1         0     51138         1         0
     51141         1         0     51144         1         0     51148         1         0
     51153         1         0     51157         2         0     51168         1         0
     51176         1         0     51185         1         0     51188         1         0
     51191         1         0     51194         1         0     51197         1         0
     51200         1         0     51203         1         0     51206         1         0
     51209         1         0     51211         1         0     51213         1         0
     51216         1         0     51219         1         0     51222         1         0
     51225         1         0     51228         1         0     51232         1         0
     51235         1         0     51238         1         0     51241         1         0
     51244         1         0     51247         1         0     51250         1         0
     51253         1         0     51256         1         0     51259         1         0
     51262         1         0     51265         1         0     51268         1         0
     51271         1         0     51275         2         0     51286         1         0
     51290         2         0     51301         1         0     51309         1         0
     51318         1         0     51326         1         0     51335         1         0
     51338         1         0     51341         1         0     51344         1         0
     51347         1         0     51350         1         0     51353         1         0
     51356         1         0     51359         1         0     51361         1         0
     51363         1         0     51366         1         0     51369         1         0
     51372         1         0     51375         1         0     51378         1         0
     51382         1         0     51385         1         0     51388         1         0
     51391         1         0     51394         1         0     51397         1         0
     51400         1         0     51403         1         0     51406         1         0
     51409         1         0     51412         1         0     51415         1         0
     51418         1         0     51421         1         0     51425         1         0
     51428         1         0     51431         1         0     51434         1         0
     51437         1         0     51440         1         0     51443         1         0
     51446         1         0     51449         1         0     51451         1         0
     51453         1         0     51456         1         0     51459         1         0
     51462         1         0     51465         1         0     51468         1         0
     51472         1         0     51475         1         0     51478         1         0
     51481         1         0     51484         1         0     51487         1         0
     51490         1         0     51493         1         0     51496         1         0
     51499         1         0     51502         1         0     51505         1         0
     51508         1         0     51511         1         0

         0         0 !NUMLP NUMLPH

         0 !NCRTERM: cross-terms

